LAMMPS data file via write_data, version 15 May 2015, timestep = 23005000

2611 atoms
6 atom types
1749 bonds
4 bond types
894 angles
3 angle types
44 dihedrals
3 dihedral types
10 impropers
1 improper types

-1.4962440510482544e+01 1.4962440510482544e+01 xlo xhi
-1.4962440510482544e+01 1.4962440510482544e+01 ylo yhi
-1.4962440510482544e+01 1.4962440510482544e+01 zlo zhi

Masses

1 15.9994
2 1.00794
3 12.0107
4 1.00794
5 12.0107
6 12.0107

Bond Coeffs # harmonic

1 1000 1
2 469 1.4
3 367 1.08
4 469 0.7

Angle Coeffs # harmonic

1 100 109.47
2 35 120
3 63 120

Dihedral Coeffs # opls

1 0 7.25 0 0
2 0 7.25 0 0
3 0 7.25 0 0

Improper Coeffs # cvff

1 2.5 -1 2

Atoms # full

789 263 2 4.0999999999999998e-01 -1.0834482835832068e+01 -1.3939606774216285e+01 -1.0577847227702296e+01 6 4 1
880 294 1 -8.1999999999999995e-01 -1.2394312427285367e+01 -1.0947148760122907e+01 -8.5758477947768252e+00 -2 -1 -4
881 294 2 4.0999999999999998e-01 -1.1667545219627767e+01 -1.1568958530140662e+01 -8.2840862648526858e+00 -2 -1 -4
882 294 2 4.0999999999999998e-01 -1.2547979166038647e+01 -1.0258329678203140e+01 -7.8674146248191565e+00 -2 -1 -4
1814 605 2 4.0999999999999998e-01 -8.4131105175191010e+00 -1.0480682100110087e+01 -9.3264808583098002e+00 6 2 0
787 263 1 -8.1999999999999995e-01 -1.0046538062173735e+01 -1.3598261691672743e+01 -1.1090281915222658e+01 6 4 1
788 263 2 4.0999999999999998e-01 -9.2195457450320042e+00 -1.4068655359117052e+01 -1.0782424381389877e+01 6 4 1
1947 649 2 4.0999999999999998e-01 -1.3073505858517366e+01 -1.2676014552627201e+01 -9.1725979366243351e+00 2 -3 0
1813 605 1 -8.1999999999999995e-01 -9.2501649089682161e+00 -1.0086601156909317e+01 -8.9470037081034164e+00 6 2 0
1262 421 2 4.0999999999999998e-01 -9.1358498117863114e+00 -9.7279719360969246e+00 -1.3501239992034714e+01 5 4 1
2316 772 2 4.0999999999999998e-01 -6.4009543950486645e+00 -1.2150418529495919e+01 -9.6860627146281608e+00 2 -2 -2
1261 421 1 -8.1999999999999995e-01 -8.5453070685758554e+00 -8.9249745507839453e+00 -1.3581347603574722e+01 5 4 1
2314 772 1 -8.1999999999999995e-01 -7.2032033517955352e+00 -1.1897921933346257e+01 -1.0226992308509622e+01 2 -2 -2
2275 759 1 -8.1999999999999995e-01 -1.4192178301845271e+01 -1.3514905673664467e+01 -1.2275297733685026e+01 -2 2 2
2315 772 2 4.0999999999999998e-01 -7.1623851668993535e+00 -1.2353379904912860e+01 -1.1116292428354413e+01 2 -2 -2
870 290 2 4.0999999999999998e-01 -5.4141475913133945e+00 -1.4700181441394420e+01 -1.2934184817864061e+01 -4 0 -8
301 101 1 -8.1999999999999995e-01 -1.0188191519490502e+01 -8.8173261675753700e+00 -1.1243350261125501e+01 2 2 0
1104 368 2 4.0999999999999998e-01 -1.0340200544879812e+01 -1.0311555277273106e+01 -1.2080808002515679e+01 1 -2 -2
1102 368 1 -8.1999999999999995e-01 -1.0137000852639854e+01 -1.1182321925280853e+01 -1.2528511140753171e+01 1 -2 -2
2277 759 2 4.0999999999999998e-01 -1.3884214554135458e+01 -1.3387458384190115e+01 -1.1332494314202386e+01 -2 2 2
1103 368 2 4.0999999999999998e-01 -1.0392192860390059e+01 -1.1936019889627747e+01 -1.1922888157402642e+01 1 -2 -2
822 274 2 4.0999999999999998e-01 -9.8353123712576700e+00 -1.4258855406763736e+01 -7.8979933561292217e+00 3 -3 2
1945 649 1 -8.1999999999999995e-01 -1.2945046475621609e+01 -1.3618315512148245e+01 -9.4816770122212297e+00 2 -3 0
1946 649 2 4.0999999999999998e-01 -1.2958730810659963e+01 -1.4232653584963664e+01 -8.6927763632317294e+00 2 -3 0
1787 596 2 4.0999999999999998e-01 -8.2121931524234206e+00 -1.3712719214347274e+01 -1.2886859473270949e+01 -2 0 1
1786 596 1 -8.1999999999999995e-01 -7.7476157063351820e+00 -1.2844149126900433e+01 -1.2714474614669285e+01 -2 0 1
1788 596 2 4.0999999999999998e-01 -8.4198606509628711e+00 -1.2154013029722146e+01 -1.2446590963116465e+01 -2 0 1
869 290 2 4.0999999999999998e-01 -5.8466727349847378e+00 -1.3150158676087194e+01 -1.3211454669280824e+01 -4 0 -8
642 214 2 4.0999999999999998e-01 -1.1079215279967162e+01 -1.2530870676947899e+01 -1.3779532343867674e+01 -2 5 2
1263 421 2 4.0999999999999998e-01 -7.8410388463298775e+00 -9.0965598802159988e+00 -1.4270207180705368e+01 5 4 1
1815 605 2 4.0999999999999998e-01 -9.6467779298747605e+00 -9.4481409719017471e+00 -9.6065713432240294e+00 6 2 0
739 247 1 -8.1999999999999995e-01 -5.4443254327371111e+00 -8.6013710788267037e+00 -9.5319164018233042e+00 3 2 -2
452 151 2 4.0999999999999998e-01 -6.5809992898965799e+00 -7.6776632130252347e+00 -1.2688355110836392e+01 5 -1 -1
740 247 2 4.0999999999999998e-01 -5.7678703445424375e+00 -8.3616192920936214e+00 -1.0447230846052349e+01 3 2 -2
55 19 1 -8.1999999999999995e-01 -1.1960567232827771e+01 -7.6182412056155329e+00 -1.3903307764202069e+01 -4 3 -5
868 290 1 -8.1999999999999995e-01 -5.0744410749418130e+00 -1.3769536734769119e+01 -1.3070062177154478e+01 -4 0 -8
1826 609 2 4.0999999999999998e-01 -1.4634060549066017e+01 -8.5429154785427777e+00 -1.2095160366802459e+01 -2 -1 -2
741 247 2 4.0999999999999998e-01 -5.3755942633524949e+00 -9.5958259568825941e+00 -9.4525547275821502e+00 3 2 -2
302 101 2 4.0999999999999998e-01 -1.0833213183520243e+01 -8.0532089754477063e+00 -1.1249244809021798e+01 2 2 0
84 28 2 4.0999999999999998e-01 -1.3590532331177686e+01 -7.5241688207953876e+00 -1.0223823228617356e+01 -1 2 0
303 101 2 4.0999999999999998e-01 -9.5299440743647956e+00 -8.7036044750917583e+00 -1.1987487691775353e+01 2 2 0
1827 609 2 4.0999999999999998e-01 -1.3768133762732454e+01 -9.2295785653846405e+00 -1.3297321642938446e+01 -2 -1 -2
2525 842 2 4.0999999999999998e-01 -1.0009594481200068e+01 -1.1666050001335815e+01 -8.0547518613777438e+00 0 -4 0
351 117 2 4.0999999999999998e-01 -7.0360216034446754e+00 -1.4753989898972446e+01 -1.0222557729464571e+01 1 -1 3
57 19 2 4.0999999999999998e-01 -1.2336832119417867e+01 -7.6813922508952119e+00 -1.2978970471596353e+01 -4 3 -5
374 125 2 4.0999999999999998e-01 -9.7423603873685920e+00 -1.4330118362284889e+01 -1.4553819655766837e+01 3 -3 0
2518 840 1 -8.1999999999999995e-01 -5.3253461448655575e+00 -1.1385804820991424e+01 -8.0859734511115597e+00 -1 0 -2
2276 759 2 4.0999999999999998e-01 -1.3939689219680469e+01 -1.4430736762015144e+01 -1.2587492312503091e+01 -2 2 2
1825 609 1 -8.1999999999999995e-01 -1.4670195169624741e+01 -9.1749573357917331e+00 -1.2869227625981516e+01 -2 -1 -2
201 67 2 4.0999999999999998e-01 -6.7198997370019811e+00 -7.8073461294463575e+00 -8.3339292574938622e+00 4 5 -1
139 47 1 -8.1999999999999995e-01 -5.2167425502928584e+00 -1.4298216503911174e+01 -9.7769340519811756e+00 -5 3 2
1850 617 2 4.0999999999999998e-01 -1.4492590211165231e+01 -1.3442515081187365e+01 -1.4178645869744962e+01 -2 6 0
2524 842 1 -8.1999999999999995e-01 -1.0390792760561393e+01 -1.2547864621825475e+01 -7.7771665665087646e+00 0 -4 0
640 214 1 -8.1999999999999995e-01 -1.1033988455930219e+01 -1.3104191928749493e+01 -1.4597591033717855e+01 -2 5 2
140 47 2 4.0999999999999998e-01 -5.0190197669513061e+00 -1.4439535156434633e+01 -8.8069353494376266e+00 -5 3 2
2520 840 2 4.0999999999999998e-01 -5.7979887082022721e+00 -1.2220030877783447e+01 -7.8020040219128211e+00 -1 0 -2
156 52 2 4.0999999999999998e-01 -9.7409934621964744e+00 -1.5197607762722996e+00 -1.1867781064864083e+01 0 1 3
232 78 1 -8.1999999999999995e-01 -1.3963261647877413e+01 -6.1664130958205874e+00 -8.2297737777592204e+00 1 3 2
1948 650 1 -8.1999999999999995e-01 -7.1488137358167831e+00 -1.2186788627105329e+00 -1.4775429428117748e+01 2 -2 -3
905 302 2 4.0999999999999998e-01 -7.4773746947968744e+00 -1.0466125525657564e+00 -1.1950341402041868e+01 2 4 2
1801 601 1 -8.1999999999999995e-01 -1.1697516087035646e+01 -2.6522677304486582e+00 -1.3157675215687185e+01 3 1 -5
154 52 1 -8.1999999999999995e-01 -9.1957996803661821e+00 -1.5208988882745089e+00 -1.2706068143333171e+01 0 1 3
1976 659 2 4.0999999999999998e-01 -1.4659757422946557e+01 -1.6718382692238283e+00 -1.3691949885054678e+01 4 2 2
56 19 2 4.0999999999999998e-01 -1.2172415089285135e+01 -6.7201873090134505e+00 -1.4288771697228496e+01 -4 3 -5
1040 347 2 4.0999999999999998e-01 -9.2165767198933359e+00 -7.1433103998845766e+00 -1.4190502259128380e+01 2 -4 4
1039 347 1 -8.1999999999999995e-01 -9.0718376458338312e+00 -6.3249357905779782e+00 -1.4746628482216309e+01 2 -4 4
449 150 2 4.0999999999999998e-01 -1.0648509753474865e+01 -5.5411505223282713e+00 -1.4902680177906623e+01 -3 8 2
996 332 2 4.0999999999999998e-01 -1.2648903888758300e+01 -5.1779476338015744e+00 -8.0910833193365264e+00 1 -2 1
2460 820 2 4.0999999999999998e-01 -5.3404180734072604e+00 -5.0522458313750214e+00 -1.3756869895372311e+01 4 -1 -3
1021 341 1 -8.1999999999999995e-01 -1.0026302382536988e+01 -5.2873959515844522e+00 -1.1787094492424609e+01 7 0 -2
1400 467 2 4.0999999999999998e-01 -6.6120570304838555e+00 -4.5646808692684413e+00 -7.7073053610392677e+00 2 -2 -3
155 52 2 4.0999999999999998e-01 -9.7994773307736267e+00 -1.6273605106115259e+00 -1.3496132711957037e+01 0 1 3
1950 650 2 4.0999999999999998e-01 -7.7745707780664119e+00 -1.2066824764918689e+00 -1.3995527525552793e+01 2 -2 -3
13 5 1 -8.1999999999999995e-01 -1.0927800661494640e+01 -1.3204373274126482e+00 -1.0361729068375320e+01 0 4 3
450 150 2 4.0999999999999998e-01 -1.1650096520204762e+01 -4.2818401246071751e+00 -1.4624312515696179e+01 -3 8 2
453 151 2 4.0999999999999998e-01 -5.5191798932677578e+00 -6.5016970521162776e+00 -1.2293171239251873e+01 5 -1 -1
2458 820 1 -8.1999999999999995e-01 -5.0149774941515322e+00 -5.6656616979394556e+00 -1.4476433782649003e+01 4 -1 -3
14 5 2 4.0999999999999998e-01 -1.1545369186779618e+01 -2.0991097313486620e+00 -1.0472368825388628e+01 0 4 3
2527 843 1 -8.1999999999999995e-01 -5.8438667944269689e+00 -3.3748426464215786e+00 -1.3005955074577740e+01 3 0 -9
906 302 2 4.0999999999999998e-01 -6.2817927246489926e+00 -1.7736086799217787e-02 -1.1527820260293826e+01 2 4 2
904 302 1 -8.1999999999999995e-01 -6.7741814650106260e+00 -8.4827687215539704e-01 -1.1267593286584882e+01 2 4 2
1022 341 2 4.0999999999999998e-01 -1.0689294136179413e+01 -4.8220549621896911e+00 -1.1200696545643300e+01 7 0 -2
1248 416 2 4.0999999999999998e-01 -8.8178128614971847e+00 -5.7315759300746087e+00 -1.0845121740201352e+01 5 -6 -1
200 67 2 4.0999999999999998e-01 -7.8413425873401739e+00 -6.8852005957072393e+00 -9.0812850506562821e+00 4 5 -1
2462 821 2 4.0999999999999998e-01 -7.3474627783180706e+00 -2.5119943801888898e+00 -8.4295923513048177e+00 0 3 -5
2529 843 2 4.0999999999999998e-01 -6.6948772419480171e+00 -3.3978122685401129e+00 -1.2481344408355747e+01 3 0 -9
83 28 2 4.0999999999999998e-01 -1.3712706874084885e+01 -6.3461671740578680e+00 -1.1348061914404363e+01 -1 2 0
1803 601 2 4.0999999999999998e-01 -1.1661246640197065e+01 -2.9402812475555553e+00 -1.2200755428717903e+01 3 1 -5
1401 467 2 4.0999999999999998e-01 -7.3142015452008833e+00 -4.8674584608972609e+00 -9.1501657411911630e+00 2 -2 -3
451 151 1 -8.1999999999999995e-01 -6.0890759873966296e+00 -7.2412333338034856e+00 -1.1935027041730741e+01 5 -1 -1
792 264 2 4.0999999999999998e-01 -1.3188705832915034e+01 -4.1744186624141619e+00 -1.0948891217053959e+01 0 -3 4
1949 650 2 4.0999999999999998e-01 -6.4256274733237220e+00 -1.8897426453680488e+00 -1.4612218606865941e+01 2 -2 -3
1975 659 1 -8.1999999999999995e-01 -1.4166062433654563e+01 -8.0234660276552106e-01 -1.3706520717004498e+01 4 2 2
1399 467 1 -8.1999999999999995e-01 -6.8212203769384949e+00 -4.1862515119636523e+00 -8.6089730746475404e+00 2 -2 -3
658 220 1 -8.1999999999999995e-01 -1.1682223570634827e+01 -2.5191684592414809e-01 -7.5531998714359974e+00 0 1 -3
1246 416 1 -8.1999999999999995e-01 -7.9422126775496293e+00 -5.8849804648093453e+00 -1.0387132541571550e+01 5 -6 -1
1247 416 2 4.0999999999999998e-01 -7.2898187281389886e+00 -6.2746064446517416e+00 -1.1037160596064739e+01 5 -6 -1
790 264 1 -8.1999999999999995e-01 -1.2327949076006789e+01 -3.7826122976043219e+00 -1.0624009075916131e+01 0 -3 4
791 264 2 4.0999999999999998e-01 -1.2244594081654778e+01 -3.9320077641515656e+00 -9.6387701516718671e+00 0 -3 4
82 28 1 -8.1999999999999995e-01 -1.3317704949347512e+01 -7.2417581993893956e+00 -1.1143481972142748e+01 -1 2 0
2461 821 1 -8.1999999999999995e-01 -7.6281752121653819e+00 -1.5678168267301729e+00 -8.6019062383078086e+00 0 3 -5
796 266 1 -8.1999999999999995e-01 -1.4605087365193993e+01 -4.8974265542303410e+00 -1.1443432256704016e+01 4 4 0
1023 341 2 4.0999999999999998e-01 -1.0108600058084816e+01 -4.9426056746471101e+00 -1.2722139677615731e+01 7 0 -2
2463 821 2 4.0999999999999998e-01 -7.5687924932485302e+00 -1.3759339613771910e+00 -9.5815068830103804e+00 0 3 -5
994 332 1 -8.1999999999999995e-01 -1.1936552087795846e+01 -4.4848315597996429e+00 -7.9810479073463005e+00 1 -2 1
1802 601 2 4.0999999999999998e-01 -1.2489852144551856e+01 -2.0583835593352315e+00 -1.3297202648280305e+01 3 1 -5
199 67 1 -8.1999999999999995e-01 -7.6528567509636121e+00 -7.4516206137641801e+00 -8.2790355808663207e+00 4 5 -1
15 5 2 4.0999999999999998e-01 -1.0992930688364682e+01 -9.7369315452745120e-01 -9.4260532132970258e+00 0 4 3
24 8 2 4.0999999999999998e-01 -5.4201132851701335e+00 -3.7576587728100819e+00 -9.9674588613601021e+00 -1 -1 -11
2229 743 2 4.0999999999999998e-01 -1.4450683856046247e+01 -4.5015265568896314e+00 -1.4535417573515392e+01 8 4 -3
1977 659 2 4.0999999999999998e-01 -1.4695935265206813e+01 -1.2674803915876076e-01 -1.4219125962635784e+01 4 2 2
2528 843 2 4.0999999999999998e-01 -5.2488032558979398e+00 -2.6570300699150362e+00 -1.2644558800496689e+01 3 0 -9
162 54 2 4.0999999999999998e-01 -5.1526606404429813e+00 -8.4062645189916907e-01 -9.5370325928392106e+00 -3 2 0
1226 409 2 4.0999999999999998e-01 -8.9266402679938643e+00 -6.4509713732131715e+00 -7.4997787421981501e+00 2 2 -4
234 78 2 4.0999999999999998e-01 -1.3664724166246137e+01 -6.8362030812198125e+00 -7.5499064673023835e+00 1 3 2
2209 737 1 -8.1999999999999995e-01 -9.1758409350346071e+00 -1.1543080409783954e+01 -1.9335534608243705e+00 4 3 5
2210 737 2 4.0999999999999998e-01 -1.0048284143024610e+01 -1.1999355091827486e+01 -1.7585704990382869e+00 4 3 5
818 273 2 4.0999999999999998e-01 -5.0373713394878958e+00 -8.4870758536561457e+00 -5.4830670725124904e+00 2 3 4
1522 508 1 -8.1999999999999995e-01 -6.4622351776938398e+00 -1.3677601823946716e+01 -6.1071009805864431e+00 -1 2 -2
528 176 2 4.0999999999999998e-01 -1.1102557292705377e+01 -1.3485658620069824e+01 -4.7088076634148450e+00 -4 3 0
1906 636 1 -8.1999999999999995e-01 -9.7126580009893466e+00 -8.8112783328025266e+00 -2.4669171202856557e+00 7 1 2
1907 636 2 4.0999999999999998e-01 -9.6054695101755385e+00 -8.2746284474600493e+00 -1.6299701239350828e+00 7 1 2
1908 636 2 4.0999999999999998e-01 -9.3675256732162460e+00 -9.7375100306012072e+00 -2.3154534049386264e+00 7 1 2
2304 768 2 4.0999999999999998e-01 -1.2031316128840794e+01 -1.2189026343207539e+01 -2.4948205950349109e+00 0 -4 -2
2302 768 1 -8.1999999999999995e-01 -1.2272990253283767e+01 -1.1274867602449392e+01 -2.8201975470624170e+00 0 -4 -2
843 281 2 4.0999999999999998e-01 -1.2968525916713617e+01 -9.9047596390175201e+00 -6.0256435098547723e+00 -4 0 -2
841 281 1 -8.1999999999999995e-01 -1.2480633737050173e+01 -9.1397897892594759e+00 -6.4460541354893000e+00 -4 0 -2
65 22 2 4.0999999999999998e-01 -8.4086227300959742e+00 -1.1932220086789936e+01 -3.5344502333421364e+00 3 0 2
2278 760 1 -8.1999999999999995e-01 -1.0979944969004986e+01 -1.1691907655257351e+01 -5.1841542657432367e+00 -2 2 -1
2279 760 2 4.0999999999999998e-01 -1.1454047958896666e+01 -1.1446991614471656e+01 -4.3384561770126755e+00 -2 2 -1
842 281 2 4.0999999999999998e-01 -1.1721996566889324e+01 -8.8636504605514439e+00 -5.8559867714036269e+00 -4 0 -2
66 22 2 4.0999999999999998e-01 -7.8955703707310327e+00 -1.1219620326135525e+01 -4.9112239994488984e+00 3 0 2
1452 484 2 4.0999999999999998e-01 -1.0156076001565481e+01 -8.5121422276130190e+00 -4.1939196772953089e+00 10 2 -3
1450 484 1 -8.1999999999999995e-01 -1.0270412801033469e+01 -8.6851032655335558e+00 -5.1721703478398098e+00 10 2 -3
1451 484 2 4.0999999999999998e-01 -9.4190222141082423e+00 -9.0513259754081261e+00 -5.5476403876946723e+00 10 2 -3
2280 760 2 4.0999999999999998e-01 -1.0178461524499991e+01 -1.1105036298803196e+01 -5.2989107243837861e+00 -2 2 -1
2250 750 2 4.0999999999999998e-01 -6.9868507108861868e+00 -1.3594662681303079e+01 -3.2519819952792037e+00 4 -1 -6
1135 379 1 -8.1999999999999995e-01 -1.4317718906516379e+01 -1.0495464895979346e+01 -4.8274178921752231e+00 0 5 0
64 22 1 -8.1999999999999995e-01 -8.0261485521195866e+00 -1.2094098400310283e+01 -4.4441049476438383e+00 3 0 2
1137 379 2 4.0999999999999998e-01 -1.3610653232394377e+01 -1.0781486825452392e+01 -4.1807245091645591e+00 0 5 0
2303 768 2 4.0999999999999998e-01 -1.2198942413800996e+01 -1.0622295126825232e+01 -2.0661227356236100e+00 0 -4 -2
526 176 1 -8.1999999999999995e-01 -1.1269798883938376e+01 -1.4471349592408206e+01 -4.6886497459180241e+00 -4 3 0
2088 696 2 4.0999999999999998e-01 -1.2000862287381791e+01 -1.4076034002990088e+01 -1.3457244260747014e+00 1 -3 0
2526 842 2 4.0999999999999998e-01 -1.0524165346601468e+01 -1.2556221347963145e+01 -6.7861546255414993e+00 0 -4 0
2086 696 1 -8.1999999999999995e-01 -1.1179264773401092e+01 -1.3535573683579313e+01 -1.5269505672511592e+00 1 -3 0
1524 508 2 4.0999999999999998e-01 -6.8064304847338608e+00 -1.4602864662819350e+01 -6.2664151685724949e+00 -1 2 -2
2211 737 2 4.0999999999999998e-01 -8.7189859023008953e+00 -1.1352903917997306e+01 -1.0646005670690109e+00 4 3 5
1005 335 2 4.0999999999999998e-01 -1.4639514044044978e+01 -8.0558980813705396e+00 -1.8359369261245053e+00 3 3 -1
1523 508 2 4.0999999999999998e-01 -6.8858188166107706e+00 -1.3301713883902764e+01 -5.2829360025741057e+00 -1 2 -2
2272 758 1 -8.1999999999999995e-01 -8.0298068994917706e+00 -9.7998739802084209e+00 -6.4193592910484014e+00 1 -1 0
2273 758 2 4.0999999999999998e-01 -7.3471312167503831e+00 -9.0695377649437212e+00 -6.3964315884024909e+00 1 -1 0
1662 554 2 4.0999999999999998e-01 -1.3837182522379676e+01 -1.4714968129764195e+01 -2.4035754103454856e+00 -3 -1 2
1966 656 1 -8.1999999999999995e-01 -1.4692031421567709e+01 -1.3555760182529493e+01 -1.2011801812620462e+00 -1 3 -1
2087 696 2 4.0999999999999998e-01 -1.0369764190066192e+01 -1.4111839192134131e+01 -1.4147470387688479e+00 1 -3 0
2274 758 2 4.0999999999999998e-01 -8.4181166518081234e+00 -9.8644127416554994e+00 -7.3386052007659170e+00 1 -1 0
1848 616 2 4.0999999999999998e-01 -7.3225804972849575e+00 -8.1343834355788864e+00 -1.3233865857984757e+00 3 5 -4
1846 616 1 -8.1999999999999995e-01 -6.7898629742251995e+00 -8.2922765056781795e+00 -2.1547977793128972e+00 3 5 -4
817 273 1 -8.1999999999999995e-01 -5.9642452731162621e+00 -8.1201856660880161e+00 -5.4039528673973329e+00 2 3 4
1001 334 2 4.0999999999999998e-01 -1.4748631877284996e+01 -8.8351442182780886e+00 -6.4732503076094297e+00 7 2 5
2519 840 2 4.0999999999999998e-01 -5.2017540411461134e+00 -1.0786956102098879e+01 -7.2947288872937905e+00 -1 0 -2
2248 750 1 -8.1999999999999995e-01 -6.6416501308773395e+00 -1.4155043049557984e+01 -2.4991386209798900e+00 4 -1 -6
527 176 2 4.0999999999999998e-01 -1.2132924948951510e+01 -1.4653410804607718e+01 -4.2176615717378514e+00 -4 3 0
273 91 2 4.0999999999999998e-01 -7.1372230200887135e+00 -1.3249621737100645e+01 -4.5593475277518891e-01 1 -1 -3
819 273 2 4.0999999999999998e-01 -6.3842841032367623e+00 -8.4547790643063188e+00 -4.5604023529444255e+00 2 3 4
2550 850 2 4.0999999999999998e-01 -1.2953631898692098e+01 -9.1073045598001503e+00 -2.9368247437290584e-01 -1 2 -4
2198 733 2 4.0999999999999998e-01 -5.0487398102745349e+00 -9.6389430956073916e+00 -1.4262448182286871e+00 0 -1 0
1136 379 2 4.0999999999999998e-01 -1.4780252805108217e+01 -1.1302660709197550e+01 -5.1941058755628617e+00 0 5 0
1491 497 2 4.0999999999999998e-01 -1.4312803899010293e+01 -4.0685422666800797e+00 -2.7791622560418698e+00 2 3 0
2586 862 2 4.0999999999999998e-01 -5.0044570663850916e+00 -5.7718637404088504e+00 -1.0877356773447957e+00 4 -2 0
2111 704 2 4.0999999999999998e-01 -5.4062742852703192e+00 -1.7094424893388940e+00 -6.5278777282615774e+00 -1 1 2
2500 834 1 -8.1999999999999995e-01 -1.1801960222511344e+01 -1.8757829820155791e+00 -4.2899730105065768e+00 -5 -2 -3
2501 834 2 4.0999999999999998e-01 -1.2628125448905987e+01 -2.4259785102487292e+00 -4.1687349009061787e+00 -5 -2 -3
1490 497 2 4.0999999999999998e-01 -1.4610219169157176e+01 -3.2374956151816967e+00 -4.1530009601177937e+00 2 3 0
2090 697 2 4.0999999999999998e-01 -1.3966313940314647e+01 -6.6261930450714353e+00 -4.7650969732949555e-01 -3 0 -3
319 107 1 -8.1999999999999995e-01 -8.9805084414037868e+00 -4.6373051484181751e+00 -2.2062730041744150e+00 3 -6 4
660 220 2 4.0999999999999998e-01 -1.2629299758128077e+01 -3.1668381663227585e-01 -7.2388517817821283e+00 0 1 -3
2464 822 1 -8.1999999999999995e-01 -8.8502594619792028e+00 -4.4303197649441763e+00 -4.9007683954200516e+00 -5 2 0
1742 581 2 4.0999999999999998e-01 -1.4566415421565297e+01 -1.9236982856274611e+00 -6.2736541403661263e+00 1 3 0
1743 581 2 4.0999999999999998e-01 -1.4468887338263180e+01 -5.0233100283479004e-01 -7.0716081092949201e+00 1 3 0
1227 409 2 4.0999999999999998e-01 -1.0013712181742481e+01 -7.1352551374050490e+00 -6.4915339680585404e+00 2 2 -4
1225 409 1 -8.1999999999999995e-01 -9.7283022908445265e+00 -6.2813173936177371e+00 -6.9266136009571966e+00 2 2 -4
2110 704 1 -8.1999999999999995e-01 -5.1597307141712516e+00 -2.3556059618882639e+00 -5.8056230800964332e+00 -1 1 2
2097 699 2 4.0999999999999998e-01 -1.3994087412091407e+01 -2.6730147035937435e-01 -4.6470191244768646e+00 5 1 -2
1489 497 1 -8.1999999999999995e-01 -1.3894260577892975e+01 -3.6180905358120174e+00 -3.5677543541111163e+00 2 3 0
74 25 2 4.0999999999999998e-01 -9.3356257053471783e+00 -2.1124761413456419e+00 -7.2543653803638959e+00 4 -4 1
1229 410 2 4.0999999999999998e-01 -9.4390724428237611e+00 -8.6118669153905358e-01 -2.8123147984460601e+00 -2 -3 -6
2400 800 2 4.0999999999999998e-01 -5.4044185001193465e+00 -4.9666391302970538e+00 -5.9230631865139447e+00 1 0 -5
321 107 2 4.0999999999999998e-01 -8.9146221072812271e+00 -4.2961903405946043e+00 -3.1439629548195160e+00 3 -6 4
320 107 2 4.0999999999999998e-01 -9.8218405716285524e+00 -5.1678175409479827e+00 -2.1029308580782917e+00 3 -6 4
2465 822 2 4.0999999999999998e-01 -9.5392156363292084e+00 -4.9882224982326431e+00 -5.3634201869065432e+00 -5 2 0
75 25 2 4.0999999999999998e-01 -9.4519734256274077e+00 -2.8605398510429101e+00 -5.8075098126482327e+00 4 -4 1
411 137 2 4.0999999999999998e-01 -7.5716963906749628e+00 -1.9434840284918469e+00 -8.8530892107888803e-01 0 2 2
2399 800 2 4.0999999999999998e-01 -6.2272047454268371e+00 -6.3701236081138504e+00 -5.7824170326694233e+00 1 0 -5
410 137 2 4.0999999999999998e-01 -8.5384955269324401e+00 -3.2585750448807218e+00 -9.3391187327986991e-01 0 2 2
2478 826 2 4.0999999999999998e-01 -6.3372131520497721e+00 -4.7287268585079882e+00 -2.6551336209168461e+00 8 1 -1
1847 616 2 4.0999999999999998e-01 -6.6329531586532298e+00 -7.4213964792078855e+00 -2.6205337859226212e+00 3 5 -4
2477 826 2 4.0999999999999998e-01 -7.3229713790036710e+00 -5.5904802055016010e+00 -1.6793318866357172e+00 8 1 -1
2089 697 1 -8.1999999999999995e-01 -1.3364416878485278e+01 -7.1346041365073107e+00 -1.0923025763745340e+00 -3 0 -3
1741 581 1 -8.1999999999999995e-01 -1.3985783318100980e+01 -1.1319215146099193e+00 -6.4631764603483184e+00 1 3 0
2398 800 1 -8.1999999999999995e-01 -6.3061730579370874e+00 -5.3942529971564372e+00 -5.9858951310879203e+00 1 0 -5
1340 447 2 4.0999999999999998e-01 -1.2389606803486810e+01 -4.3607095133895886e+00 -2.6889834194433728e+00 3 -1 0
2091 697 2 4.0999999999999998e-01 -1.2587491840066534e+01 -6.5596770994755218e+00 -1.3488355578808022e+00 -3 0 -3
73 25 1 -8.1999999999999995e-01 -9.8313250504344687e+00 -2.1386876621200415e+00 -6.3862882771012313e+00 4 -4 1
2428 810 1 -8.1999999999999995e-01 -5.1231274749364051e+00 -1.6771569253925893e+00 -1.1220373953050267e+00 2 4 7
397 133 1 -8.1999999999999995e-01 -6.4150351065887623e+00 -2.5954315380577864e+00 -3.2801745029996994e+00 -1 -2 -6
2190 730 2 4.0999999999999998e-01 -1.4786196203940458e+01 -2.5396958253230828e-01 -1.2247026545511552e+00 -2 2 -2
1228 410 1 -8.1999999999999995e-01 -9.1712774432159101e+00 -1.3221687312111978e+00 -3.6583314392919739e+00 -2 -3 -6
659 220 2 4.0999999999999998e-01 -1.1116861110794359e+01 -9.0065080404224673e-01 -7.0438156082155299e+00 0 1 -3
2476 826 1 -8.1999999999999995e-01 -6.3702141927070546e+00 -5.3719536774807040e+00 -1.8901937680944112e+00 8 1 -1
2466 822 2 4.0999999999999998e-01 -7.9375309433781673e+00 -4.7281929554657900e+00 -5.1803412351231817e+00 -5 2 0
2430 810 2 4.0999999999999998e-01 -5.6513601344002353e+00 -2.0280556206193960e+00 -1.8952147125908034e+00 2 4 7
399 133 2 4.0999999999999998e-01 -7.2916775781319831e+00 -2.2526937410659098e+00 -3.6178008352979685e+00 -1 -2 -6
1339 447 1 -8.1999999999999995e-01 -1.1994910530274703e+01 -4.8684546209700628e+00 -1.9232337873425553e+00 3 -1 0
398 133 2 4.0999999999999998e-01 -5.8207768972959677e+00 -2.8111509547159823e+00 -4.0549551688892294e+00 -1 -2 -6
409 137 1 -8.1999999999999995e-01 -8.3481019283936018e+00 -2.4024816531142772e+00 -4.5347751183292750e-01 0 2 2
2502 834 2 4.0999999999999998e-01 -1.1527250334086711e+01 -1.8943302458827915e+00 -5.2513018972108547e+00 -5 -2 -3
1230 410 2 4.0999999999999998e-01 -9.9885728173562001e+00 -1.6485837232132088e+00 -4.1331412013017683e+00 -2 -3 -6
1341 447 2 4.0999999999999998e-01 -1.1858755274059549e+01 -4.2508543465818196e+00 -1.1486407131311900e+00 3 -1 0
995 332 2 4.0999999999999998e-01 -1.1183699405740498e+01 -4.8631988134657238e+00 -7.4425186049140892e+00 1 -2 1
1237 413 1 -8.1999999999999995e-01 -1.4480619224229631e+01 -1.2531030521460911e+01 3.1468911450876149e+00 2 3 1
1054 352 1 -8.1999999999999995e-01 -9.0514354898639837e+00 -1.2258788654928992e+01 4.8485261994450752e+00 -6 0 3
1239 413 2 4.0999999999999998e-01 -1.4024946069691438e+01 -1.1941744618483309e+01 2.4797578410511107e+00 2 3 1
428 143 2 4.0999999999999998e-01 -1.1157209266616350e+01 -9.9980743954142905e+00 3.3563578871143562e+00 -1 3 -3
1056 352 2 4.0999999999999998e-01 -9.7684243924451373e+00 -1.2540634829104063e+01 4.2109900068830619e+00 -6 0 3
427 143 1 -8.1999999999999995e-01 -1.1481255226406823e+01 -9.2861393982586087e+00 3.9793390355560980e+00 -1 3 -3
429 143 2 4.0999999999999998e-01 -1.1236119164864407e+01 -9.5279302384970528e+00 4.9181724797211501e+00 -1 3 -3
785 262 2 4.0999999999999998e-01 -1.2392458682192757e+01 -7.5004686832734473e+00 5.0643646522079173e+00 3 3 2
482 161 2 4.0999999999999998e-01 -1.3765299878900326e+01 -1.0167717365249825e+01 5.3391491866175826e+00 6 3 -3
271 91 1 -8.1999999999999995e-01 -6.9701798121278591e+00 -1.2506037222657852e+01 1.9147653109687646e-01 1 -1 -3
1613 538 2 4.0999999999999998e-01 -1.3224363428436163e+01 -1.2416962842105999e+01 6.5918453755299389e+00 -1 2 0
1055 352 2 4.0999999999999998e-01 -9.3669248174257866e+00 -1.2397146786053177e+01 5.7872946844591233e+00 -6 0 3
1612 538 1 -8.1999999999999995e-01 -1.3049132559162867e+01 -1.1829854064693080e+01 5.8015541648338136e+00 -1 2 0
272 91 2 4.0999999999999998e-01 -7.3446742643504743e+00 -1.2752030201742830e+01 1.0854587052319680e+00 1 -1 -3
1614 538 2 4.0999999999999998e-01 -1.3475340076716510e+01 -1.2228197944087670e+01 4.9893767538865887e+00 -1 2 0
365 122 2 4.0999999999999998e-01 -9.7771456894511317e+00 -1.2603097524896036e+01 2.3131169806347884e+00 5 3 4
54 18 2 4.0999999999999998e-01 -7.1962374580533890e+00 -9.8501340333083114e+00 3.4499691094840763e+00 -2 1 -7
2549 850 2 4.0999999999999998e-01 -1.2166732923426119e+01 -9.2669626982633027e+00 1.1282269564541068e+00 -1 2 -4
53 18 2 4.0999999999999998e-01 -7.7055319156275468e+00 -1.1145500819409477e+01 4.3038843648949161e+00 -2 1 -7
2376 792 2 4.0999999999999998e-01 -9.2888027742143198e+00 -1.0480096398476686e+01 1.2294558313634489e+00 8 3 1
2299 767 1 -8.1999999999999995e-01 -7.2355798745638307e+00 -1.3530855120792294e+01 2.8851258527069028e+00 5 3 -4
2375 792 2 4.0999999999999998e-01 -7.6568348895896898e+00 -1.0529421821464886e+01 1.2016166009762124e+00 8 3 1
2301 767 2 4.0999999999999998e-01 -7.8565012861139332e+00 -1.3302625878978724e+01 3.6350130532975733e+00 5 3 -4
366 122 2 4.0999999999999998e-01 -1.1097161126472766e+01 -1.1918126670534583e+01 1.6386532575401205e+00 5 3 4
2374 792 1 -8.1999999999999995e-01 -8.4592264619040449e+00 -9.9552955069929077e+00 1.0387992130820933e+00 8 3 1
364 122 1 -8.1999999999999995e-01 -1.0135557947655359e+01 -1.1778749308124562e+01 1.8749920903274457e+00 5 3 4
2499 833 2 4.0999999999999998e-01 -1.2514004727347084e+01 -1.0083853783896704e+01 6.8126499887515806e+00 4 -1 2
2497 833 1 -8.1999999999999995e-01 -1.1989248708888137e+01 -9.3557049333039792e+00 7.2535503531538623e+00 4 -1 2
2093 698 2 4.0999999999999998e-01 -7.1130635679268135e+00 -7.5768985615332785e+00 6.7732020138570945e+00 3 -3 -1
1289 430 2 4.0999999999999998e-01 -1.4895966006265571e+01 -8.6613968619079813e+00 8.1939728590581140e-01 -1 -2 -1
52 18 1 -8.1999999999999995e-01 -6.9477809864873858e+00 -1.0509062582928168e+01 4.1599305855651707e+00 -2 1 -7
1689 563 2 4.0999999999999998e-01 -5.7493612461761892e+00 -1.0295584978195821e+01 5.6313565640666639e+00 6 2 0
2300 767 2 4.0999999999999998e-01 -7.3570876336383710e+00 -1.4490650986879658e+01 2.6321623574287472e+00 5 3 -4
334 112 1 -8.1999999999999995e-01 -1.2619606662230744e+01 -1.2319340873972065e+01 9.1148155762523686e-01 1 -4 0
1390 464 1 -8.1999999999999995e-01 -9.2202815266603828e+00 -9.3119663667664323e+00 5.9822704390814678e+00 4 0 -2
335 112 2 4.0999999999999998e-01 -1.3022928880116714e+01 -1.2925912446391001e+01 2.2637947838346051e-01 1 -4 0
2339 780 2 4.0999999999999998e-01 -8.1207459342113921e+00 -8.4028668551003758e+00 4.4762928599130625e+00 3 5 1
1392 464 2 4.0999999999999998e-01 -8.5209231452832839e+00 -9.9778898816119153e+00 6.2418980171181850e+00 4 0 -2
1027 343 1 -8.1999999999999995e-01 -1.0497338633426249e+01 -1.4323991653600062e+01 3.4359944096928956e+00 2 5 -4
336 112 2 4.0999999999999998e-01 -1.2545540364405234e+01 -1.1395367568971285e+01 5.3631454245852694e-01 1 -4 0
2338 780 1 -8.1999999999999995e-01 -7.8320165715013417e+00 -7.6574066584101494e+00 3.8755539594730948e+00 3 5 1