LAMMPS data file via write_data, version 15 May 2015, timestep = 8008000

2611 atoms
6 atom types
1749 bonds
4 bond types
894 angles
3 angle types
44 dihedrals
3 dihedral types
10 impropers
1 improper types

-1.5016410327428767e+01 1.5016410327428767e+01 xlo xhi
-1.5016410327428767e+01 1.5016410327428767e+01 ylo yhi
-1.5016410327428767e+01 1.5016410327428767e+01 zlo zhi

Masses

1 15.9994
2 1.00794
3 12.0107
4 1.00794
5 12.0107
6 12.0107

Bond Coeffs # harmonic

1 1000 1
2 469 1.4
3 367 1.08
4 469 0.7

Angle Coeffs # harmonic

1 100 109.47
2 35 120
3 63 120

Dihedral Coeffs # opls

1 0 7.25 0 0
2 0 7.25 0 0
3 0 7.25 0 0

Improper Coeffs # cvff

1 2.5 -1 2

Atoms # full

1305 435 2 4.0999999999999998e-01 -1.1175505781588686e+01 -1.1636130051726035e+01 -1.3221792408655375e+01 0 -1 -1
1303 435 1 -8.1999999999999995e-01 -1.1087799215602478e+01 -1.0662645647280710e+01 -1.3433118218116910e+01 0 -1 -1
668 223 2 4.0999999999999998e-01 -1.0414238267614408e+01 -9.6399747993733698e+00 -1.2155277191797140e+01 1 1 2
481 161 1 -8.1999999999999995e-01 -1.1184425712194468e+01 -9.7719994148889526e+00 -8.8741459857844802e+00 2 0 -2
667 223 1 -8.1999999999999995e-01 -1.0056818664138854e+01 -8.9972667289777242e+00 -1.1477633867416014e+01 1 1 2
482 161 2 4.0999999999999998e-01 -1.0405307102346379e+01 -9.5388305554020825e+00 -8.2922272689664300e+00 2 0 -2
669 223 2 4.0999999999999998e-01 -1.0528840193905749e+01 -9.1343618245400435e+00 -1.0606758721458682e+01 1 1 2
1559 520 2 4.0999999999999998e-01 -1.2437803323036608e+01 -6.9264707014270304e+00 -7.9277812772911620e+00 2 -2 5
830 277 2 4.0999999999999998e-01 -1.3714226572203998e+01 -7.6215437669853197e+00 -1.1687796189926365e+01 2 -3 2
829 277 1 -8.1999999999999995e-01 -1.3526657550711352e+01 -6.6571664529122536e+00 -1.1501202660733210e+01 2 -3 2
1119 373 2 4.0999999999999998e-01 -1.2457384873664907e+01 -9.5042511000538390e+00 -1.3048481797421468e+01 1 1 1
1117 373 1 -8.1999999999999995e-01 -1.3289728478301789e+01 -8.9923115264887663e+00 -1.2836008462689483e+01 1 1 1
1304 435 2 4.0999999999999998e-01 -1.0750674194116343e+01 -1.0553620806333079e+01 -1.4368256302817114e+01 0 -1 -1
1785 595 2 4.0999999999999998e-01 -1.3380463347447488e+01 -1.2013415390863859e+01 -1.0281936112077087e+01 0 -4 2
1653 551 2 4.0999999999999998e-01 -1.2742319878376829e+01 -1.3130492910172247e+01 -1.4184790048342876e+01 2 1 2
306 102 2 4.0999999999999998e-01 -1.0702942588865447e+01 -7.3718212046895761e+00 -1.1638321095267408e+01 1 0 -1
1687 563 1 -8.1999999999999995e-01 -1.2775576447663171e+01 -1.2022056683478748e+01 -8.2773663062630654e+00 3 0 0
1118 373 2 4.0999999999999998e-01 -1.4083234723390408e+01 -9.4805797745185316e+00 -1.3199278185382781e+01 1 1 1
831 277 2 4.0999999999999998e-01 -1.4108511576027308e+01 -6.0862822702627977e+00 -1.2080478097822127e+01 2 -3 2
2302 768 1 -8.1999999999999995e-01 -7.6013134658920718e+00 -1.0849188927045885e+01 -1.4085026664441102e+01 0 0 -3
1688 563 2 4.0999999999999998e-01 -1.2231944845738557e+01 -1.2681618543753384e+01 -7.7582654144410084e+00 3 0 0
1630 544 1 -8.1999999999999995e-01 -9.5084981881641291e+00 -1.4700000841634132e+01 -9.4125688659980788e+00 3 -3 -1
1652 551 2 4.0999999999999998e-01 -1.3018790313741279e+01 -1.3171431559284958e+01 -1.2575884911279516e+01 2 1 2
1631 544 2 4.0999999999999998e-01 -8.5326181237991463e+00 -1.4902568418050423e+01 -9.4941004530218933e+00 3 -3 -1
1783 595 1 -8.1999999999999995e-01 -1.3602124636289989e+01 -1.1897019598794927e+01 -1.1250099945416709e+01 0 -4 2
1651 551 1 -8.1999999999999995e-01 -1.2555270439604927e+01 -1.3625958674716314e+01 -1.3336527639917733e+01 2 1 2
305 102 2 4.0999999999999998e-01 -1.2015877597944549e+01 -6.4209315834933438e+00 -1.1835039639954744e+01 1 0 -1
483 161 2 4.0999999999999998e-01 -1.1571391638562110e+01 -1.0645535719832539e+01 -8.5788247846489334e+00 2 0 -2
2559 853 2 4.0999999999999998e-01 -1.0130006823001512e+01 -5.1847581988592566e+00 -1.0649743337507353e+01 -2 3 2
2226 742 2 4.0999999999999998e-01 -1.4803366165743205e+01 -1.1050882327800339e+01 -1.4840538560111115e+01 1 3 0
238 80 1 -8.1999999999999995e-01 -8.1480872204314618e+00 -9.4576032054604511e+00 -8.3520327992554648e+00 -2 -1 0
1689 563 2 4.0999999999999998e-01 -1.3421171439053015e+01 -1.1566436791822721e+01 -7.6644710899402790e+00 3 0 0
1784 595 2 4.0999999999999998e-01 -1.3819522558363708e+01 -1.0937506461614431e+01 -1.1429252350972893e+01 0 -4 2
1199 400 2 4.0999999999999998e-01 -1.0264629956935732e+01 -1.4653253390119653e+01 -7.8850914978834368e+00 3 0 0
715 239 1 -8.1999999999999995e-01 -1.0892911102008073e+01 -5.6061513732583599e+00 -8.0614947039031897e+00 1 2 2
2094 698 2 4.0999999999999998e-01 -8.3175983180050181e+00 -6.2337236347950462e+00 -1.0014708461547608e+01 0 -3 0
716 239 2 4.0999999999999998e-01 -1.0018033812315661e+01 -5.5655120169957204e+00 -8.5441551329640717e+00 1 2 2
240 80 2 4.0999999999999998e-01 -8.0742745895833856e+00 -8.6595172459828262e+00 -8.9500573856913164e+00 -2 -1 0
525 175 2 4.0999999999999998e-01 -8.2863668430022024e+00 -8.7914311643735736e+00 -1.1755430395783044e+01 2 -2 2
304 102 1 -8.1999999999999995e-01 -1.1040195580547259e+01 -6.5167654132230091e+00 -1.2032228354574722e+01 1 0 -1
1950 650 2 4.0999999999999998e-01 -1.0301892215587866e+01 -6.1027192942058068e+00 -1.3595780152603851e+01 1 -2 1
2037 679 2 4.0999999999999998e-01 -8.6489757075754419e+00 -1.1139717463203839e+01 -7.7068828753272838e+00 -1 1 -1
1248 416 2 4.0999999999999998e-01 -1.1501523587892422e+01 -1.4891250295173558e+01 -1.2217034621557614e+01 2 -2 2
1558 520 1 -8.1999999999999995e-01 -1.2873910894365821e+01 -7.7506228374529931e+00 -7.5663862402177893e+00 2 -2 5
2092 698 1 -8.1999999999999995e-01 -7.9407069427573846e+00 -7.0831897935382839e+00 -9.6454076821182682e+00 0 -3 0
1560 520 2 4.0999999999999998e-01 -1.2404382850700346e+01 -8.5591150654779113e+00 -7.9212195278347197e+00 2 -2 5
1948 650 1 -8.1999999999999995e-01 -9.6053879457322857e+00 -5.8268838597290848e+00 -1.4258214692532723e+01 1 -2 1
1949 650 2 4.0999999999999998e-01 -8.6971782830571804e+00 -5.9544217712464089e+00 -1.3859576760822751e+01 1 -2 1
2417 806 2 4.0999999999999998e-01 -1.4436339592644119e+01 -7.8545290662265108e+00 -8.2094411155377340e+00 1 -1 0
2036 679 2 4.0999999999999998e-01 -9.4935651598779422e+00 -1.2492197969618195e+01 -8.0592360102577238e+00 -1 1 -1
2304 768 2 4.0999999999999998e-01 -8.4477591336997886e+00 -1.1126018741105478e+01 -1.4539908947549804e+01 0 0 -3
1457 486 2 4.0999999999999998e-01 -8.6705069753161848e+00 -1.5010475587739220e+01 -1.3574224526153429e+01 4 0 -2
2303 768 2 4.0999999999999998e-01 -6.8174536880886691e+00 -1.1200204477994625e+01 -1.4597252079023354e+01 0 0 -3
427 143 1 -8.1999999999999995e-01 -5.4161987911324161e-01 -6.5506517091492853e+00 -1.3749823349801492e+01 -4 2 2
1485 495 2 4.0999999999999998e-01 -1.4313611910725221e-01 -8.4197218258069526e+00 -1.4631599148520840e+01 -2 1 0
206 69 2 4.0999999999999998e-01 -1.7060947318063135e-01 -1.3314543900952412e+01 -1.1230748406537581e+01 -1 -3 1
239 80 2 4.0999999999999998e-01 -7.3762203270373448e+00 -1.0071266761656823e+01 -8.5183501387889962e+00 -2 -1 0
428 143 2 4.0999999999999998e-01 -5.7846059184447363e-01 -5.5673984921023223e+00 -1.3928369675076107e+01 -4 2 2
1599 533 2 4.0999999999999998e-01 -3.7743128258365175e+00 -1.4950721786304852e+01 -1.1115004493178361e+01 4 0 3
2124 708 2 4.0999999999999998e-01 -6.8746169321365134e+00 -9.5163771291287844e+00 -1.4946980785068064e+01 3 1 3
523 175 1 -8.1999999999999995e-01 -7.4170316220688353e+00 -8.8438929679910210e+00 -1.2246884348500231e+01 2 -2 2
290 97 2 4.0999999999999998e-01 -7.2743398026273507e+00 -7.2624590417177908e+00 -1.2500392916091153e+01 0 3 4
1166 389 2 4.0999999999999998e-01 -2.2252341874207637e+00 -1.3784449407907395e+01 -1.3348463781654333e+01 -2 0 2
524 175 2 4.0999999999999998e-01 -7.4225887206138594e+00 -9.6417054230259360e+00 -1.2849783476138311e+01 2 -2 2
1167 389 2 4.0999999999999998e-01 -2.7685188047856037e+00 -1.2819919014688065e+01 -1.4548968066578702e+01 -2 0 2
2520 840 2 4.0999999999999998e-01 -6.5776199742983632e+00 -1.4916604118478897e+01 -1.4926790416634933e+01 0 1 -1
2123 708 2 4.0999999999999998e-01 -6.6297379288800613e+00 -7.9063407262176630e+00 -1.4826545620949306e+01 3 1 3
198 66 2 4.0999999999999998e-01 -3.5611680028748829e+00 -1.0311285808933292e+01 -1.4033917600266019e+01 -2 0 6
2096 699 2 4.0999999999999998e-01 -1.1707940624620505e-01 -1.0978819553606431e+01 -1.1834425630485544e+01 1 -2 1
265 89 1 -8.1999999999999995e-01 -2.5940538983606043e+00 -8.0659977473821023e+00 -1.3062194794558748e+01 0 0 0
291 97 2 4.0999999999999998e-01 -6.5091901133523393e+00 -5.8392033992671681e+00 -1.2736140537654171e+01 0 3 4
1165 389 1 -8.1999999999999995e-01 -2.5394540611403169e+00 -1.3760304916897951e+01 -1.4297519016340754e+01 -2 0 2
1597 533 1 -8.1999999999999995e-01 -3.7982460270643017e+00 -1.4046802233397230e+01 -1.0687945290975760e+01 4 0 3
289 97 1 -8.1999999999999995e-01 -7.2649524195426300e+00 -6.4198774169770392e+00 -1.3038901065511720e+01 0 3 4
1123 375 1 -8.1999999999999995e-01 -5.0470786192032939e+00 -7.3601838325014208e+00 -9.7528693363560333e+00 3 0 0
946 316 1 -8.1999999999999995e-01 -4.5835129580264269e+00 -1.2221562188057348e+01 -1.2400589611949330e+01 0 1 -4
164 55 2 4.0999999999999998e-01 -3.8191894440530714e+00 -8.6661468143994647e+00 -8.0066210604707138e+00 2 1 -1
2093 698 2 4.0999999999999998e-01 -6.9629503833370432e+00 -6.9660886703158500e+00 -9.4713319353326977e+00 0 -3 0
2245 749 1 -8.1999999999999995e-01 -6.6821405023422251e+00 -1.4592317516256260e+01 -9.9177283898630364e+00 3 1 1
205 69 1 -8.1999999999999995e-01 -9.6438444669570877e-01 -1.3285774049351090e+01 -1.1838298007799459e+01 -1 -3 1
2321 774 2 4.0999999999999998e-01 -2.1803058596575582e+00 -1.1841044764079246e+01 -8.5113817122747353e+00 -1 3 0
266 89 2 4.0999999999999998e-01 -1.8823374034725919e+00 -7.4809067759789345e+00 -1.3450976379799172e+01 0 0 0
267 89 2 4.0999999999999998e-01 -2.2326669057636988e+00 -8.5428636570735037e+00 -1.2260932494076870e+01 0 0 0
2320 774 1 -8.1999999999999995e-01 -1.4929488798233219e+00 -1.1370467924344904e+01 -9.0646635097677457e+00 -1 3 0
1664 555 2 4.0999999999999998e-01 -1.8230061016652552e+00 -7.8618743377782767e+00 -8.5127846681001387e+00 1 2 1
60 20 2 4.0999999999999998e-01 -3.4531460506935723e+00 -9.7659777029626724e+00 -1.0760900670827029e+01 2 1 1
2482 828 1 -8.1999999999999995e-01 -3.5269162471098117e+00 -1.3329988312703293e+01 -7.9342905004180109e+00 3 2 3
1900 634 1 -8.1999999999999995e-01 -7.5241757824878519e-01 -6.9247568390630772e+00 -1.0739795993501604e+01 -1 0 3
2322 774 2 4.0999999999999998e-01 -5.9962584068482983e-01 -1.1446097689683741e+01 -8.6216318873999569e+00 -1 3 0
59 20 2 4.0999999999999998e-01 -1.9401503035201664e+00 -1.0146111312513797e+01 -1.0278168946638470e+01 2 1 1
1418 473 2 4.0999999999999998e-01 -4.9628500275654073e+00 -1.2250739346745657e+01 -1.4186163658575204e+01 2 -2 4
1789 597 1 -8.1999999999999995e-01 -6.2470605637310044e+00 -1.0991052186067204e+01 -8.4534041976049892e+00 2 -1 6
589 197 1 -8.1999999999999995e-01 -3.8617632183649775e-02 -8.4858286240813356e+00 -8.3970208338407311e+00 0 0 0
441 147 2 4.0999999999999998e-01 -6.7545341600454130e+00 -1.3201997985855034e+01 -1.3055355596128797e+01 0 0 -2
621 207 2 4.0999999999999998e-01 -4.0101616189348128e+00 -6.6437598657698800e+00 -1.3121972813355228e+01 2 -4 -7
1791 597 2 4.0999999999999998e-01 -5.5095888979365579e+00 -1.0428002166587422e+01 -8.0803986116616002e+00 2 -1 6
439 147 1 -8.1999999999999995e-01 -7.3938834154331703e+00 -1.3935360678343333e+01 -1.2824196319540787e+01 0 0 -2
1125 375 2 4.0999999999999998e-01 -4.1458376830793320e+00 -7.2677355861176176e+00 -9.3295006629318173e+00 3 0 0
1839 613 2 4.0999999999999998e-01 -5.7523080404498845e+00 -1.0311459754347664e+01 -1.0059957757111828e+01 2 0 -2
58 20 1 -8.1999999999999995e-01 -2.5137493258149721e+00 -9.4326426316024552e+00 -1.0680623336991857e+01 2 1 1
1598 533 2 4.0999999999999998e-01 -3.5819565330288832e+00 -1.4131846575338230e+01 -9.7153152244369529e+00 4 0 3
947 316 2 4.0999999999999998e-01 -4.3977687334983582e+00 -1.2998143073642675e+01 -1.1798556254312080e+01 0 1 -4
948 316 2 4.0999999999999998e-01 -5.0263765481543867e+00 -1.1493070665283994e+01 -1.1877909140001520e+01 0 1 -4
207 69 2 4.0999999999999998e-01 -1.8008716013099750e+00 -1.3380417471837111e+01 -1.1298525102004714e+01 -1 -3 1
2247 749 2 4.0999999999999998e-01 -7.0130162779898466e+00 -1.4262566713641188e+01 -9.0335290103829244e+00 3 1 1
619 207 1 -8.1999999999999995e-01 -4.4740335345211069e+00 -5.7578760327166574e+00 -1.3114514951114197e+01 2 -4 -7
1124 375 2 4.0999999999999998e-01 -4.9617563858606033e+00 -7.8658419825440387e+00 -1.0611387171946948e+01 3 0 0
681 227 2 4.0999999999999998e-01 -1.3365907765062879e-01 -1.2736053045489736e+01 -1.3400340827922184e+01 -1 -1 -1
1837 613 1 -8.1999999999999995e-01 -5.3687178121863663e+00 -1.0008518469547909e+01 -1.0932372809289548e+01 2 0 -2
1838 613 2 4.0999999999999998e-01 -6.0462835101938648e+00 -9.4594311890820162e+00 -1.1421689497204738e+01 2 0 -2
1663 555 1 -8.1999999999999995e-01 -2.6391886144037127e+00 -7.2900560912017403e+00 -8.5958083555259108e+00 1 2 1
1790 597 2 4.0999999999999998e-01 -6.2647202362000609e+00 -1.1872537813859404e+01 -7.9814993796459852e+00 2 -1 6
1902 634 2 4.0999999999999998e-01 -1.4812733687528929e+00 -7.5813006000181860e+00 -1.0545521828518078e+01 -1 0 3
26 9 2 4.0999999999999998e-01 -1.7886489679706479e+00 -5.6148095958974977e+00 -1.1273978762244429e+01 0 -3 0
1665 555 2 4.0999999999999998e-01 -2.4873969138302368e+00 -6.4218799482781925e+00 -8.1233124424987508e+00 1 2 1
591 197 2 4.0999999999999998e-01 -3.6222479063840396e-01 -9.1976791624559091e+00 -7.7736668854036237e+00 0 0 0
440 147 2 4.0999999999999998e-01 -7.2042077451540125e+00 -1.4263544921610674e+01 -1.1898809282884775e+01 0 0 -2
620 207 2 4.0999999999999998e-01 -4.9240701958510886e+00 -5.6098550297661696e+00 -1.3995184991582059e+01 2 -4 -7
196 66 1 -8.1999999999999995e-01 -2.7562972986699155e+00 -1.0717482686302208e+01 -1.4466595502506037e+01 -2 0 6
197 66 2 4.0999999999999998e-01 -1.9804571106491728e+00 -1.0092431882964597e+01 -1.4380535014729888e+01 -2 0 6
2483 828 2 4.0999999999999998e-01 -4.4904582420380734e+00 -1.3130252510442586e+01 -7.7562025154317213e+00 3 2 3
27 9 2 4.0999999999999998e-01 -2.9974172977163480e+00 -5.0548560354123122e+00 -1.2218446212052999e+01 0 -3 0
2246 749 2 4.0999999999999998e-01 -5.7653656611495787e+00 -1.4976487637447152e+01 -9.8083660332091913e+00 3 1 1
1449 483 2 4.0999999999999998e-01 -1.0956423525494898e+01 -7.0769984847502974e+00 -1.5286859470759850e+00 -1 1 3
1447 483 1 -8.1999999999999995e-01 -1.0482390773221333e+01 -7.6659205275337197e+00 -2.1832748943628211e+00 -1 1 3
761 254 2 4.0999999999999998e-01 -1.0216350276758892e+01 -1.2837518028594076e+01 -2.1187044284088721e+00 0 -2 0
760 254 1 -8.1999999999999995e-01 -9.5007085838119743e+00 -1.2139311384640791e+01 -2.1383863695799832e+00 0 -2 0
762 254 2 4.0999999999999998e-01 -9.0070083768944418e+00 -1.2192413078262662e+01 -3.0064089931273710e+00 0 -2 0
806 269 2 4.0999999999999998e-01 -1.2441378099741208e+01 -1.1411534144267883e+01 -4.2552248659318170e+00 -2 -1 2
50 17 2 4.0999999999999998e-01 -9.1120427722051449e+00 -1.2200538779129289e+01 -5.5509497797150082e+00 -2 -2 2
49 17 1 -8.1999999999999995e-01 -8.9163668454626546e+00 -1.1947290241127204e+01 -4.6035327499422003e+00 -2 -2 2
805 269 1 -8.1999999999999995e-01 -1.3065575270293357e+01 -1.0650920345466513e+01 -4.4337394662386487e+00 -2 -1 2
308 103 2 4.0999999999999998e-01 -8.2838076319124969e+00 -8.9090782242528679e+00 -5.1348447587620747e+00 5 0 -1
1448 483 2 4.0999999999999998e-01 -1.0571265532789411e+01 -7.2819101772670241e+00 -3.1023288789894341e+00 -1 1 3
1686 562 2 4.0999999999999998e-01 -1.2676894597732876e+01 -8.6150013864742565e+00 -1.4012405635781953e+00 3 2 0
807 269 2 4.0999999999999998e-01 -1.2925438436049115e+01 -9.9367347122163920e+00 -3.7479381240195480e+00 -2 -1 2
701 234 2 4.0999999999999998e-01 -9.4354360086402131e+00 -6.2964416128757392e+00 -4.9076614085318635e+00 3 0 3
51 17 2 4.0999999999999998e-01 -8.5547358533034394e+00 -1.1015377977115170e+01 -4.5755060451372795e+00 -2 -2 2
307 103 1 -8.1999999999999995e-01 -8.8283827704145370e+00 -9.3450151631685223e+00 -4.4183115395298209e+00 5 0 -1
309 103 2 4.0999999999999998e-01 -9.7582483805396585e+00 -8.9775224482092639e+00 -4.4362551177713403e+00 5 0 -1
1685 562 2 4.0999999999999998e-01 -1.4076685577485982e+01 -9.2566831297620240e+00 -1.9448556536221684e+00 3 2 0
1101 367 2 4.0999999999999998e-01 -9.8276964817209134e+00 -9.1398052394665488e+00 -1.3086383642368560e+00 1 -4 1
1031 344 2 4.0999999999999998e-01 -1.3915743780369636e+01 -7.2542001074883178e+00 -5.4327886358199198e+00 -1 -2 3
2381 794 2 4.0999999999999998e-01 -1.3504388897340835e+01 -1.3839796769656434e+01 -3.8426927712070587e+00 1 2 -2
816 272 2 4.0999999999999998e-01 -1.4708924348451104e+01 -1.1459101093120228e+01 -3.7443306022626928e+00 1 1 2
702 234 2 4.0999999999999998e-01 -1.0401358764647245e+01 -6.5514804984749180e+00 -6.1994183510463863e+00 3 0 3
1032 344 2 4.0999999999999998e-01 -1.4030188860518932e+01 -7.6821541978305925e+00 -3.8610236325117597e+00 -1 -2 3
1684 562 1 -8.1999999999999995e-01 -1.3243436820005769e+01 -8.7716291852263808e+00 -2.2102650196510183e+00 3 2 0
479 160 2 4.0999999999999998e-01 -8.1863867603381060e+00 -1.3422980224511646e+01 -1.5428501773700170e+00 1 1 3
700 234 1 -8.1999999999999995e-01 -1.0383708606858342e+01 -6.3404058344712819e+00 -5.2220960511031524e+00 3 0 3
1099 367 1 -8.1999999999999995e-01 -9.6777734881202395e+00 -9.7371999777885190e+00 -5.2081506509874664e-01 1 -4 1
1100 367 2 4.0999999999999998e-01 -9.5169000040198153e+00 -1.0672086234097019e+01 -8.3724882842275505e-01 1 -4 1
2301 767 2 4.0999999999999998e-01 -1.3683741479771413e+01 -1.2746317743896977e+01 -1.6713012150491195e+00 2 1 -3
1030 344 1 -8.1999999999999995e-01 -1.4492700618878526e+01 -7.2185381633810497e+00 -4.6167788622029331e+00 -1 -2 3
426 142 2 4.0999999999999998e-01 -1.4625344790242799e+01 -1.3695300817030216e+01 -6.2133585759275913e+00 0 -1 0
2380 794 1 -8.1999999999999995e-01 -1.3311483200538115e+01 -1.3812941110072387e+01 -2.8618313657283228e+00 1 2 -2
2299 767 1 -8.1999999999999995e-01 -1.3918186801340191e+01 -1.2171102941016468e+01 -8.8760084883379697e-01 2 1 -3
1198 400 1 -8.1999999999999995e-01 -1.0826208518955092e+01 -1.4647826420983145e+01 -7.0576720043415024e+00 3 0 0
1268 423 2 4.0999999999999998e-01 -7.6275017415943189e+00 -8.2569589656122382e+00 -7.1555532726180990e+00 0 -4 0
2362 788 1 -8.1999999999999995e-01 -1.4693222556171543e+01 -1.0641438928543513e+01 -6.6290400014451389e+00 3 1 0
2364 788 2 4.0999999999999998e-01 -1.4124954407483061e+01 -1.0663191757767766e+01 -5.8064702114817948e+00 3 1 0
424 142 1 -8.1999999999999995e-01 -1.4302941646983690e+01 -1.4224354850734688e+01 -5.4283866233796463e+00 0 -1 0
1023 341 2 4.0999999999999998e-01 -1.1276450525806160e+01 -5.1370135340304568e+00 -3.9109340271935302e+00 4 1 -2
480 160 2 4.0999999999999998e-01 -7.6647315215839509e+00 -1.4970283592447975e+01 -1.5224613434779393e+00 1 1 3
2300 767 2 4.0999999999999998e-01 -1.4548461373679650e+01 -1.1451481512494858e+01 -1.1790144412574186e+00 2 1 -3
1022 341 2 4.0999999999999998e-01 -1.2747283593921260e+01 -5.4021964297056559e+00 -3.2528947518785447e+00 4 1 -2
2382 794 2 4.0999999999999998e-01 -1.2419556770385892e+01 -1.4229568780112309e+01 -2.6860144772348988e+00 1 2 -2
1832 611 2 4.0999999999999998e-01 -8.4681433787646796e+00 -5.3057919619768636e+00 -2.4587303117614052e+00 0 -4 3
1267 423 1 -8.1999999999999995e-01 -7.5851189217863793e+00 -7.8450644818930675e+00 -6.2452953123302901e+00 0 -4 0
442 148 1 -8.1999999999999995e-01 -1.1746516136719716e+01 -6.0727232484843228e+00 -2.8209848333454524e-01 2 1 -3
2523 841 2 4.0999999999999998e-01 -7.6318574587645305e+00 -5.9136109811144753e+00 -8.5681270644387553e-01 1 0 2
2035 679 1 -8.1999999999999995e-01 -8.9120015046145298e+00 -1.2046886405921757e+01 -7.3784245560012431e+00 -1 1 -1
504 168 2 4.0999999999999998e-01 -1.4404814926557803e+01 -1.5007488699917868e+01 -2.0993537234737403e+00 -1 0 1
444 148 2 4.0999999999999998e-01 -1.1170320370598484e+01 -5.3009650545770803e+00 -5.5119075361291436e-01 2 1 -3
169 57 1 -8.1999999999999995e-01 -1.0898012496354241e+01 -1.4858576038488151e+01 -2.2823647851155222e+00 -2 -1 0
458 153 2 4.0999999999999998e-01 -1.2761825258118604e+01 -1.0954350308503489e+01 -2.0888565957564076e-01 3 -2 0
170 57 2 4.0999999999999998e-01 -1.0395686319556063e+01 -1.4993176024254131e+01 -3.1365159316970281e+00 -2 -1 0
1375 459 1 -8.1999999999999995e-01 -6.3587729474393964e+00 -1.4670332202403403e+01 -4.7574084788094027e+00 2 -3 1
478 160 1 -8.1999999999999995e-01 -7.3921475174518330e+00 -1.4015137745890835e+01 -1.4066282633575327e+00 1 1 3
1376 459 2 4.0999999999999998e-01 -5.6915959987083351e+00 -1.4152785569709485e+01 -4.2216442544387096e+00 2 -3 1
1584 528 2 4.0999999999999998e-01 -3.6574412464628878e+00 -1.3443318778858014e+01 -3.1044343025520682e+00 1 -1 0
1582 528 1 -8.1999999999999995e-01 -2.8340043448477310e+00 -1.3970816556845158e+01 -3.3135292987096552e+00 1 -1 0
1480 494 1 -8.1999999999999995e-01 -3.6643581692707148e+00 -9.8471915670514623e+00 -2.2447254365597527e+00 0 1 -1
2484 828 2 4.0999999999999998e-01 -3.1604741670958969e+00 -1.3892133203977505e+01 -7.1928484848163246e+00 3 2 3
1 1 1 -8.1999999999999995e-01 -1.7788116620094794e+00 -5.9124173429493876e+00 -4.9346266991358299e+00 0 -1 0
1957 653 1 -8.1999999999999995e-01 -5.9335901507137780e+00 -5.7431528299882562e+00 -6.1838581704945561e+00 3 -1 0
718 240 1 -8.1999999999999995e-01 -6.4179054145450838e+00 -1.3466268280232001e+01 -7.3180177282308536e+00 2 0 0
2391 797 2 4.0999999999999998e-01 -7.2124973871825615e+00 -8.7011373956008242e+00 -3.2991999136160679e+00 0 0 -1
127 43 1 -8.1999999999999995e-01 -4.6581141231253014e+00 -6.7825388294027142e+00 -5.0633793783171122e-01 0 -4 1
719 240 2 4.0999999999999998e-01 -6.2191387276494865e+00 -1.4139112227264013e+01 -6.6054198290151565e+00 2 0 0
1583 528 2 4.0999999999999998e-01 -2.5311254713470301e+00 -1.4455240709298879e+01 -2.4927853811812017e+00 1 -1 0
879 293 2 4.0999999999999998e-01 -1.6861844463733444e+00 -1.2953987536825471e+01 -4.1618433325874946e+00 -2 -2 0
1813 605 1 -8.1999999999999995e-01 -1.7731347510479392e+00 -1.0211439708977107e+01 -6.0556316101967784e+00 2 1 0
2 1 2 4.0999999999999998e-01 -2.0006159960808567e+00 -5.2446834453268103e+00 -5.6452301266654281e+00 0 -1 0
2522 841 2 4.0999999999999998e-01 -6.0811745657097074e+00 -6.1031739433587227e+00 -1.3323503600047957e+00 1 0 2
128 43 2 4.0999999999999998e-01 -3.6794422543233427e+00 -6.6127429095572960e+00 -6.2206887477822193e-01 0 -4 1
2389 797 1 -8.1999999999999995e-01 -6.3055616777944064e+00 -8.2994059082268752e+00 -3.1723048435089343e+00 0 0 -1
2090 697 2 4.0999999999999998e-01 -4.7496017796696428e+00 -6.8057326004476764e+00 -5.4705381032664206e+00 -3 0 -1
609 203 2 4.0999999999999998e-01 -5.9389191133645891e+00 -1.3095471647461068e+01 -2.0412694293561966e+00 1 -3 1
1269 423 2 4.0999999999999998e-01 -6.8415894249988547e+00 -7.1769844237740354e+00 -6.2160404056760203e+00 0 -4 0
163 55 1 -8.1999999999999995e-01 -4.3836049373190686e+00 -9.2414513654082917e+00 -7.4146052256738351e+00 2 1 -1
635 212 2 4.0999999999999998e-01 -1.8556626346283185e+00 -9.0428842258164934e+00 -8.8793069722148488e-01 -2 0 0
607 203 1 -8.1999999999999995e-01 -5.2648869445338295e+00 -1.2724328796072367e+01 -2.6799841958951998e+00 1 -3 1
371 124 2 4.0999999999999998e-01 -3.2008425422554687e-01 -8.3691789573593454e+00 -3.4399665763618277e+00 -1 -2 -1
2089 697 1 -8.1999999999999995e-01 -4.2532128859678551e+00 -7.5674462033899532e+00 -5.0541087707230474e+00 -3 0 -1
2390 797 2 4.0999999999999998e-01 -6.3945645925203181e+00 -7.4110661406762048e+00 -2.7218008282897994e+00 0 0 -1
2366 789 2 4.0999999999999998e-01 -2.4032557618569594e+00 -1.1045365448940100e+01 -1.7802954721986755e+00 2 0 0
2367 789 2 4.0999999999999998e-01 -1.3660305228594662e+00 -1.2122646344910921e+01 -2.4362811779286755e+00 2 0 0
3 1 2 4.0999999999999998e-01 -2.5990587112577437e+00 -6.4339237825571640e+00 -4.6995762043181184e+00 0 -1 0
1815 605 2 4.0999999999999998e-01 -2.7389479254754008e+00 -1.0052010812383045e+01 -6.2601071049540913e+00 2 1 0
2091 697 2 4.0999999999999998e-01 -4.7985506368115889e+00 -7.9537179381773333e+00 -4.3101841607177089e+00 -3 0 -1
1814 605 2 4.0999999999999998e-01 -1.4209375628821483e+00 -9.4574238515252560e+00 -5.5011587858393547e+00 2 1 0
608 203 2 4.0999999999999998e-01 -5.6979447313429024e+00 -1.2030975706562717e+01 -3.2559576015799898e+00 1 -3 1
2365 789 1 -8.1999999999999995e-01 -1.5838123055542059e+00 -1.1594373544108844e+01 -1.6155974045414165e+00 2 0 0
1482 494 2 4.0999999999999998e-01 -3.0521738424209559e+00 -9.3940062798485755e+00 -2.8927041154390256e+00 0 1 -1
370 124 1 -8.1999999999999995e-01 -1.3091750432999039e+00 -8.2309248069160237e+00 -3.3888966703165995e+00 -1 -2 -1
2521 841 1 -8.1999999999999995e-01 -7.0270802329858890e+00 -6.0202438431710501e+00 -1.6460508713457358e+00 1 0 2
1291 431 1 -8.1999999999999995e-01 -1.8703744920525729e+00 -6.0859345141242258e+00 -1.5415996986228997e-01 -2 -1 1
165 55 2 4.0999999999999998e-01 -4.5367743860266501e+00 -8.7743933276569006e+00 -6.5437327689166445e+00 2 1 -1
372 124 2 4.0999999999999998e-01 -1.5657923154090341e+00 -7.4470232363341662e+00 -3.9542893035601114e+00 -1 -2 -1
878 293 2 4.0999999999999998e-01 -1.1720638073064062e+00 -1.1732953423546309e+01 -5.1165387115459211e+00 -2 -2 0
877 293 1 -8.1999999999999995e-01 -8.8493043917531189e-01 -1.2443802965234685e+01 -4.4744559422252461e+00 -2 -2 0
1481 494 2 4.0999999999999998e-01 -4.6003070430494422e+00 -9.5265185372751819e+00 -2.3902982032065729e+00 0 1 -1
720 240 2 4.0999999999999998e-01 -7.3368530523311586e+00 -1.3096634459731295e+01 -7.1804349686050859e+00 2 0 0
1959 653 2 4.0999999999999998e-01 -5.1625555736443332e+00 -5.3489303411706608e+00 -6.6839753969340467e+00 3 -1 0
1958 653 2 4.0999999999999998e-01 -6.6304367155609967e+00 -5.0408770812845969e+00 -6.0381304060781815e+00 3 -1 0
420 140 2 4.0999999999999998e-01 -3.0045031665661242e+00 -1.4705429954659252e+01 -4.9331324980812497e+00 0 1 3
215 72 2 4.0999999999999998e-01 -1.5148361935228394e-01 -5.0150317814243888e+00 -3.0315149867485225e+00 3 1 1
1293 431 2 4.0999999999999998e-01 -1.6362377691321566e+00 -7.0571578412808158e+00 -1.9807091501157359e-01 -2 -1 1
1786 596 1 -8.1999999999999995e-01 -1.2161186742559970e+01 -1.2322509738034924e+01 3.8795073464923338e+00 2 -2 3
1414 472 1 -8.1999999999999995e-01 -1.3652318319135111e+01 -1.0302691715181568e+01 2.9888710081361882e+00 2 0 0
1657 553 1 -8.1999999999999995e-01 -1.0164534268684882e+01 -9.0646845459113550e+00 3.9443987074891371e+00 3 2 0
1659 553 2 4.0999999999999998e-01 -9.2533567779711703e+00 -8.9178226346171883e+00 4.3293793546668322e+00 3 2 0
1415 472 2 4.0999999999999998e-01 -1.3423159693712323e+01 -1.0383750683044102e+01 2.0188510566243441e+00 2 0 0
1416 472 2 4.0999999999999998e-01 -1.3846117262255184e+01 -9.3461449340539708e+00 3.2067773227583576e+00 2 0 0
623 208 2 4.0999999999999998e-01 -1.0209246362247299e+01 -1.2359329107618111e+01 1.7682668927818153e+00 -1 5 1
1787 596 2 4.0999999999999998e-01 -1.2431159831633138e+01 -1.1385799354780497e+01 3.6565474376843223e+00 2 -2 3
2251 751 1 -8.1999999999999995e-01 -1.2011130232779122e+01 -7.3074421992561840e+00 5.2545936142813670e+00 1 1 5
2253 751 2 4.0999999999999998e-01 -1.1824552516716864e+01 -6.3253510975872445e+00 5.2279714272406945e+00 1 1 5
2252 751 2 4.0999999999999998e-01 -1.2401062337347300e+01 -7.5486715045797483e+00 6.1432917014378443e+00 1 1 5
284 95 2 4.0999999999999998e-01 -9.3089608043655883e+00 -1.0345735722779350e+01 2.8904988312486370e+00 -3 -1 -1
1788 596 2 4.0999999999999998e-01 -1.1822959993162781e+01 -1.2777013121155106e+01 3.0554610721045155e+00 2 -2 3
47 16 2 4.0999999999999998e-01 -1.0820817417762090e+01 -1.1508112655951972e+01 5.2345585803398311e+00 -2 0 -2
637 213 1 -8.1999999999999995e-01 -1.0646295973358669e+01 -7.1075733601436335e+00 2.0083967484460228e+00 -2 -7 -3
1658 553 2 4.0999999999999998e-01 -1.0843333549294542e+01 -8.5887249807978705e+00 4.5036097258275856e+00 3 2 0
1868 623 2 4.0999999999999998e-01 -1.3783012460589754e+01 -6.1628406176295041e+00 4.2407691650324608e-01 2 -1 1
639 213 2 4.0999999999999998e-01 -1.0497990101501024e+01 -7.9345324694306738e+00 2.5507683244581880e+00 -2 -7 -3
48 16 2 4.0999999999999998e-01 -9.4441391298857322e+00 -1.0768641700465681e+01 5.7085070929287287e+00 -2 0 -2
46 16 1 -8.1999999999999995e-01 -1.0346345418601729e+01 -1.1082044524811241e+01 6.0048605907453965e+00 -2 0 -2
622 208 1 -8.1999999999999995e-01 -1.0621644107700263e+01 -1.3255259616777574e+01 1.6031622366884566e+00 -1 5 1
285 95 2 4.0999999999999998e-01 -9.2644118878942479e+00 -1.0178461279082178e+01 1.2667001173659198e+00 -3 -1 -1
283 95 1 -8.1999999999999995e-01 -9.2379197582422954e+00 -1.0834507288260388e+01 2.0209711161627464e+00 -3 -1 -1
1561 521 1 -8.1999999999999995e-01 -1.4069536487594778e+01 -1.4264844885278096e+01 4.9024469740721930e+00 -1 1 1
1867 623 1 -8.1999999999999995e-01 -1.4643633985973278e+01 -5.8740443198610741e+00 8.4354109648747766e-01 2 -1 1
2119 707 1 -8.1999999999999995e-01 -1.3851291708968931e+01 -5.2171770724219826e+00 7.3404895281080993e+00 3 2 3
1563 521 2 4.0999999999999998e-01 -1.3250953559251828e+01 -1.3692918302508337e+01 4.9557845882096085e+00 -1 1 1
682 228 1 -8.1999999999999995e-01 -1.1507149785809906e+01 -1.4327802482962060e+01 6.6090326716204704e+00 3 -2 0
654 218 2 4.0999999999999998e-01 -9.3023918059339810e+00 -6.3972557275478330e+00 1.0420877083159237e+00 -1 -3 0
174 58 2 4.0999999999999998e-01 -8.4057359507006453e+00 -1.1872224672822412e+01 2.8212815900796056e+00 -2 0 0
172 58 1 -8.1999999999999995e-01 -7.8120496100443590e+00 -1.2527306360466186e+01 3.2886437882086472e+00 -2 0 0