2611
Atoms. Timestep: 23000000
O -8.87357 13.7822 -4.62771
H -7.95947 13.7747 -5.03317
H -9.10899 14.7146 -4.35361
O -9.32182 -0.521039 5.26189
H -9.89771 -1.16484 4.75801
H -9.03352 0.216641 4.65137
O -12.6058 11.4968 9.91833
H -12.7395 11.0201 10.7872
H -13.2507 12.2583 9.85321
O 4.86929 3.94741 6.19063
H 4.18164 4.34539 6.79789
H 5.16549 3.06476 6.55562
O -7.52698 -1.66453 -11.2152
H -7.88286 -2.02579 -12.0771
H -8.25883 -1.64616 -10.534
O -14.3015 1.22436 -12.5715
H -13.9568 0.808861 -13.4133
H -14.9066 1.9871 -12.7998
O -3.61941 -12.7955 7.99661
H -4.4096 -13.3214 8.31134
H -2.97884 -12.6708 8.75432
O -2.58649 -1.26102 -8.30503
H -2.47545 -0.343013 -8.68575
H -2.5725 -1.21162 -7.30634
O 3.97198 14.2004 1.60116
H 3.8768 13.8679 2.53944
H 4.93648 14.183 1.33759
O 5.14266 12.5734 -1.27632
H 5.42723 13.5304 -1.33346
H 5.5113 12.0689 -2.05706
O 11.2171 -1.45089 -1.30545
H 12.1702 -1.18433 -1.44863
H 11.156 -2.05718 -0.512534
O 6.98375 5.69569 6.52443
H 6.1857 5.10121 6.42574
H 6.68284 6.62424 6.74184
O 1.78324 -0.575334 -13.538
H 2.34916 0.242374 -13.4326
H 2.34308 -1.38996 -13.3864
O 0.35833 7.81271 -1.07928
H 0.518509 8.69137 -0.629472
H -0.525189 7.44553 -0.788422
O 12.757 -6.97163 5.38889
H 13.7491 -7.06743 5.30738
H 12.4795 -7.16616 6.32973
O 10.4296 3.1793 -2.31481
H 9.91199 2.46488 -2.78568
H 11.2623 2.78581 -1.92527
O 6.20029 -14.5743 -5.40556
H 6.27688 -14.7048 -6.39405
H 5.7606 14.4445 -4.99683
O -7.13428 -7.9085 1.81428
H -7.50024 -7.6885 0.91001
H -7.86612 -7.85013 2.49326
O -11.853 -7.97642 -14.1688
H -11.0576 -8.46679 -13.8125
H -12.6118 -8.05781 -13.5224
O 8.52811 -7.32965 12.5445
H 8.55774 -8.32799 12.4949
H 7.68526 -7.04339 13.0002
O -6.57388 2.41236 -4.71608
H -5.61147 2.53292 -4.47264
H -6.75196 2.84942 -5.59772
O -7.81803 -11.4269 -4.67204
H -7.93069 -11.7334 -3.72685
H -8.39281 -10.6245 -4.83301
O -3.66804 -10.9807 -14.2949
H -3.25905 -11.8867 -14.1852
H -4.6107 -11.0771 -14.6145
O 7.30874 -13.3824 2.85574
H 6.8995 -14.0971 2.28852
H 6.68378 -13.1495 3.60088
O -8.41534 -3.26239 -8.61349
H -7.8114 -3.58565 -9.34203
H -8.33681 -3.86845 -7.82194
O -14.7666 0.602182 -2.76667
H -13.9771 1.07767 -3.15478
H 14.4358 1.26786 -2.34562
O -13.9697 -13.9403 -8.4516
H -13.7037 -13.8445 -7.49239
H -13.161 -14.1455 -9.00287
O -13.5195 -7.67298 -11.7027
H -13.6188 -6.6782 -11.7267
H -14.3606 -8.08348 -11.3506
O 12.8517 -12.5068 -6.99254
H 13.164 -13.077 -7.75234
H 12.5272 -13.0911 -6.24869
O 8.38111 10.5732 -1.72067
H 8.3301 9.69714 -2.20015
H 8.02467 10.4664 -0.792458
O 9.35285 -7.23338 -6.79328
H 8.80501 -7.03131 -5.98145
H 9.99503 -7.9716 -6.58676
O 7.60896 -3.25277 -0.242041
H 8.07463 -3.8233 0.434477
H 6.77031 -2.88101 0.156052
O -3.76297 -4.94371 -6.30695
H -4.17664 -4.03561 -6.3722
H -2.97208 -4.99431 -6.91683
O -8.50573 -2.59176 11.3045
H -8.7569 -2.58146 10.3366
H -8.33165 -3.53309 11.5937
O -12.1194 9.92154 11.9945
H -11.4063 9.30243 12.3235
H -12.4411 10.4913 12.7507
O -11.9854 7.6332 2.04698
H -11.4142 7.84484 1.25393
H -11.4934 7.86981 2.88482
O -5.18049 -13.5767 3.0801
H -5.90607 -12.8948 3.17271
H -5.29247 -14.28 3.78215
O -12.9754 1.18821 1.86628
H -13.038 0.442539 2.52968
H -12.4208 0.895651 1.0873
O 9.02709 13.1596 2.49437
H 9.79541 12.6057 2.17356
H 8.61175 12.723 3.29244
O -4.1714 9.6856 3.5733
H -3.22837 9.67855 3.24063
H -4.27363 9.00611 4.29984
O -1.76143 6.45411 5.65751
H -1.22591 6.82141 4.89703
H -1.34511 6.73204 6.52322
O -5.02787 -11.9392 -4.5517
H -5.97337 -12.0012 -4.87139
H -4.42277 -11.7745 -5.33065
O 1.58557 11.3383 -9.69345
H 0.704678 11.7738 -9.50809
H 1.7111 10.5633 -9.07406
O -5.22641 11.9433 7.88171
H -5.2926 11.1566 8.49543
H -5.97399 12.5793 8.07325
O -3.18497 -3.13722 -13.0104
H -3.7766 -2.36542 -12.7773
H -2.31336 -2.79497 -13.3614
O 11.0466 -9.81698 12.3911
H 10.0986 -10.0943 12.5475
H 11.1613 -8.85893 12.6538
O -6.99788 -12.3025 -10.3335
H -7.38056 -12.0941 -9.43345
H -6.27457 -11.6461 -10.5483
O -11.821 5.34576 -12.9931
H -12.698 4.88805 -12.8473
H -11.9777 6.24234 -13.4074
O -14.6667 -11.9747 6.6994
H 14.4785 -12.6941 6.86957
H -13.8019 -12.3882 6.41457
O -5.26893 9.21847 -2.08489
H -5.50741 8.53392 -1.39602
H -5.99074 9.26172 -2.77565
O 2.87627 -9.26899 -8.15439
H 3.03146 -8.69999 -7.34681
H 2.72927 -10.2167 -7.87114
O -11.3519 -4.37753 14.3106
H -11.0207 -3.86118 -14.7183
H -12.2245 -4.81031 14.5374
O 13.8556 11.719 -14.2679
H 12.8686 11.867 -14.3307
H 14.3294 12.3794 -14.8506
O -5.20115 0.100528 -8.47603
H -5.94352 -0.257248 -9.04252
H -4.85234 -0.627018 -7.88524
O 8.87694 2.41278 -11.1101
H 8.25962 1.69147 -10.796
H 9.34275 2.1136 -11.9428
O 7.52187 -10.838 5.79263
H 6.98712 -11.683 5.7885
H 7.52363 -10.4402 4.87516
O 8.64925 7.54576 0.424227
H 7.75751 7.67772 -0.00869954
H 9.12838 6.79047 -0.0229738
O 8.63897 -11.0121 -1.13265
H 8.38447 -11.9789 -1.15694
H 9.09342 -10.8088 -0.265386
O 12.5207 -6.17629 2.70322
H 12.4302 -6.51929 3.63819
H 11.6612 -6.31677 2.2119
O 10.9047 0.727383 8.64178
H 10.3153 0.537343 9.42701
H 11.7326 0.169919 8.70374
O 12.5384 5.32914 0.32005
H 11.5819 5.09997 0.139798
H 12.8457 4.85293 1.14396
O 6.22933 8.22522 7.49801
H 6.5647 8.71138 8.30498
H 6.20254 8.85145 6.71882
O 2.46032 -7.20539 10.0692
H 2.48397 -6.39939 10.6607
H 1.5323 -7.57745 10.0498
O -0.392433 -10.7908 2.51576
H -0.365666 -9.88226 2.93271
H -1.33751 -11.1164 2.48645
O -11.0359 8.17925 4.6594
H -10.0544 8.00115 4.58944
H -11.3639 7.88983 5.55866
O 10.7583 4.99122 -10.035
H 11.4358 4.27532 -10.2039
H 10.2908 4.81027 -9.16973
O -8.46035 -6.32881 -9.74292
H -8.59885 -5.7789 -10.5666
H -7.66794 -5.98283 -9.24051
O -2.49413 -12.5939 10.4728
H -2.18692 -13.2109 11.1974
H -3.0883 -11.8908 10.8635
O 12.8244 10.954 -9.81511
H 12.3352 10.0821 -9.78983
H 13.4645 10.9549 -10.5834
O 14.5137 -2.9196 -11.9811
H 14.0435 -2.91211 -12.8636
H 13.8559 -3.11901 -11.2547
O -3.41104 9.5965 8.19362
H -2.77928 9.59482 7.41844
H -4.1384 8.92947 8.03227
O 13.8781 8.71624 -12.2995
H 13.0157 9.22142 -12.2667
H 13.7725 7.84491 -11.8203
O 6.82643 14.3626 0.93462
H 7.00068 -14.774 0.224326
H 7.66265 13.843 1.11019
O -10.3462 -10.4025 11.4574
H -10.0985 -11.3401 11.7014
H -9.57202 -9.9603 11.0045
O 1.06579 -14.7474 10.1357
H 0.748816 -13.9467 9.62744
H 1.55417 -14.4497 10.956
O 7.86748 10.2016 1.01883
H 7.62258 9.25614 1.23381
H 8.75961 10.4137 1.41771
O -8.57984 1.19658 13.5898
H -9.47378 1.36775 13.1756
H -8.67829 0.535691 14.3338
O 14.7214 -5.53575 -8.16111
H 14.1863 -5.53907 -9.00593
H -14.3661 -6.2148 -8.22696
O -11.8351 5.57208 -0.83499
H -11.077 6.17331 -0.58251
H -12.2592 5.90597 -1.67683
O -2.78267 3.80245 -9.31149
H -1.9626 3.97277 -8.76513
H -2.76891 4.38536 -10.1239
O 11.9607 -14.5828 -5.43601
H 12.1309 14.2915 -5.15435
H 11.2288 -14.1947 -4.87585
O -5.97348 14.271 4.67702
H -5.55241 13.4834 4.22711
H -6.4724 13.9644 5.48764
O -10.0333 7.67806 -0.288385
H -9.13335 7.43478 -0.650192
H -10.3533 8.51759 -0.727508
O 4.56727 11.4824 8.76244
H 3.92682 11.6045 8.00419
H 4.06104 11.2439 9.59121
O 11.9895 -3.21885 8.23691
H 12.2138 -2.38586 8.74271
H 12.2345 -4.01816 8.78562
O 4.84431 -12.7045 -10.5467
H 4.50504 -13.538 -10.1106
H 5.18 -12.0747 -9.84623
O 7.61132 6.94194 -12.4479
H 7.95552 6.58501 -13.3163
H 7.27423 7.874 -12.5808
O -8.85388 -5.15382 12.249
H -9.75165 -5.57268 12.3854
H -8.46112 -5.47981 11.3891
O 12.6057 -3.73405 -10.1126
H 12.7955 -4.70058 -9.93977
H 12.5507 -3.24441 -9.24237
O -6.92424 8.91503 -6.29134
H -6.82881 9.58342 -7.02902
H -7.11477 8.01384 -6.68068
O -5.79141 -10.7914 -2.0366
H -6.18926 -11.3893 -1.34069
H -5.32927 -11.3465 -2.72823
O -6.09978 -2.80241 1.07635
H -6.61174 -2.39035 0.322607
H -6.07736 -3.79543 0.960474
O 8.19899 13.9438 14.0429
H 8.21818 13.7228 13.0678
H 9.11587 14.2068 14.3432
O 13.7098 7.35306 -3.72425
H 14.51 7.84344 -3.37905
H 13.56 6.53104 -3.17483
O 1.35327 -10.6814 11.5115
H 1.24622 -11.2231 12.3453
H 1.22566 -9.71275 11.7248
O -1.09414 9.85459 -5.39442
H -1.30396 10.7924 -5.6711
H -1.45757 9.21734 -6.07401
O 12.8566 -14.5718 -8.91346
H 12.564 14.3735 -8.52398
H 13.8539 -14.5081 -8.87725
O 0.677077 6.02419 10.2166
H 1.42386 6.67336 10.3612
H 0.948694 5.12302 10.5545
O 13.5819 2.80217 -13.3011
H 12.9275 2.90255 -12.5516
H 13.1233 2.98519 -14.1707
O 3.25231 -8.93908 2.85418
H 3.14306 -9.67629 2.18739
H 3.69269 -8.15561 2.4157
O -10.8767 -8.13945 -11.0881
H -11.7985 -7.81396 -11.2989
H -10.3503 -7.40049 -10.6675
O -8.47887 -6.79396 -0.810412
H -9.33707 -6.37674 -1.10947
H -8.48955 -7.77015 -1.02713
O -5.17301 -1.69074 10.159
H -5.1942 -1.07159 10.944
H -4.22383 -1.90876 9.93198
O -13.3098 8.63681 -13.5365
H -13.3148 9.12577 -14.4088
H -14.2498 8.43205 -13.2637
O -5.99701 -10.8976 14.2115
H -6.4874 -11.7629 14.1075
H -6.62802 -10.1366 14.0606
O -3.24494 -6.36844 8.93094
H -2.40663 -5.82936 8.8494
H -3.34316 -6.95555 8.1274
O -9.10526 -2.12792 -4.85678
H -10.0366 -1.93514 -4.54766
H -9.13472 -2.76744 -5.625
O -8.73907 8.79588 2.26906
H -9.12029 8.74457 1.34598
H -8.25847 7.94443 2.47901
O -11.7297 -14.794 10.0409
H -12.0964 -14.822 10.9708
H -11.9676 -13.9212 9.6149
O 6.38495 -6.42077 14.2543
H 5.57799 -7.00807 14.1917
H 6.98778 -6.75863 -14.8414
O -6.46467 0.978015 4.46686
H -6.37111 0.148741 3.91588
H -6.5292 1.77324 3.86397
O -11.6547 -12.459 0.735676
H -11.6469 -13.4587 0.758662
H -11.7685 -12.1481 -0.207974
O 0.385828 2.72979 8.71303
H 0.763042 3.26576 9.46833
H 1.02927 2.00591 8.46404
O -7.40331 -11.3743 5.06016
H -6.49933 -10.9496 5.10971
H -7.77722 -11.4709 5.9826
O -3.01938 13.4803 7.45282
H -3.93371 13.1004 7.5931
H -2.76107 13.3812 6.49184
O 4.4366 5.89398 -13.2493
H 5.18798 5.94623 -13.9071
H 3.70305 6.51234 -13.5314
O -8.67092 -13.7061 -11.9271
H -9.42822 -14.261 -11.5828
H -8.22271 -13.2428 -11.1626
O 3.88741 12.7491 -7.91728
H 3.10676 12.8767 -7.30545
H 3.6307 12.1317 -8.66085
O 2.50641 -11.8518 -11.8603
H 2.06287 -12.7272 -12.0526
H 3.46997 -12.0071 -11.6424
O 3.37665 -5.44525 12.4167
H 2.85014 -5.36778 13.2633
H 4.26558 -5.0028 12.5353
O -2.54401 -2.56947 9.42846
H -1.94681 -2.47931 8.63144
H -2.34722 -3.43091 9.89668
O -9.40376 -10.6614 0.94144
H -8.57059 -10.9046 1.43809
H -10.0258 -11.4443 0.930375
O 10.0424 1.12434 -13.1991
H 10.7778 0.55788 -12.8272
H 9.74612 0.751039 -14.0782
O 3.81905 8.30569 0.0734821
H 2.82868 8.38389 -0.0408325
H 4.20835 9.21222 0.236805
O -12.9486 -14.3992 13.1806
H -12.5482 14.6962 13.7434
H -13.0636 -13.5729 13.732
O 13.594 1.86463 4.70708
H 13.4834 2.27933 3.80384
H 13.3419 0.897911 4.66312
O 8.80195 -10.5153 -3.90487
H 8.01936 -10.0261 -4.28999
H 8.63342 -10.7048 -2.93755
O -8.06865 4.30285 5.42245
H -7.63189 5.16552 5.6775
H -7.68182 3.55934 5.96795
O 2.40165 1.94508 4.13588
H 2.19551 2.80553 3.66988
H 3.33785 1.66615 3.92197
O 9.85834 6.11162 -5.43822
H 9.66895 7.0496 -5.14778
H 10.7486 5.82612 -5.08333
O 3.96654 7.08336 12.4272
H 3.15992 6.82191 12.9574
H 4.49517 7.7618 12.9374
O 3.12855 -6.16823 7.38638
H 2.96918 -6.93493 6.76446
H 2.94663 -6.4579 8.32607
O -6.68278 -0.948058 -4.5518
H -6.39636 -0.0976104 -4.99308
H -7.63103 -1.14847 -4.79815
O -7.21859 10.4509 -9.59659
H -7.6828 11.1263 -9.02349
H -7.8912 9.97809 -10.1659
O 3.37782 1.55721 -12.9865
H 3.38367 1.87876 -12.0396
H 3.74321 2.27155 -13.5834
O 14.1508 5.01168 -2.18218
H -14.7499 4.95554 -2.57506
H 14.2178 5.22767 -1.20808
O -9.61143 -2.80925 -1.76257
H -9.08276 -2.93108 -2.60262
H -10.0566 -3.67149 -1.52088
O -7.47461 12.5609 -14.6162
H -6.53548 12.8405 -14.816
H -7.71784 12.8477 -13.6896
O 8.62634 -8.06947 -2.21993
H 8.765 -9.00922 -1.90743
H 9.35988 -7.48898 -1.8664
O 5.02303 0.887416 0.579479
H 5.84948 0.766616 1.1294
H 4.65126 1.80294 0.733184
O -5.11616 12.5354 11.893
H -4.68841 12.0535 11.1282
H -5.16784 11.9258 12.684
O 14.7552 -9.6042 -14.4916
H 14.0435 -10.2976 -14.6045
H -14.1698 -10.0497 -14.4365
O -10.9582 -8.59179 2.08048
H -10.2613 -9.17032 1.65664
H -11.5795 -9.15965 2.62042
O -2.9439 -1.39819 5.35788
H -2.97969 -1.74277 4.41979
H -2.17844 -1.82396 5.84039
O 0.342641 14.5463 7.25161
H 0.503303 14.4131 8.2296
H -0.212486 -14.452 7.11372
O -12.9537 -6.82139 10.9185
H -12.3925 -6.98993 11.7289
H -12.7298 -5.92374 10.5389
O 9.204 -2.01493 5.49621
H 10.0752 -2.43953 5.24969
H 8.74242 -2.57596 6.18339
O 11.8037 1.86368 -6.13708
H 12.2465 2.45638 -6.80987
H 12.4723 1.21542 -5.77269
O -6.92333 2.28864 -10.5621
H -7.63146 2.14781 -11.254
H -6.0923 1.80217 -10.8318
O -11.1903 -2.56801 12.0797
H -10.3335 -2.33981 11.6172
H -11.0268 -3.29835 12.7429
O -7.2939 -7.05377 -14.7653
H -7.93407 -6.51011 -14.2225
H -6.52072 -6.48215 14.7786
O -6.82906 14.1589 1.44556
H -6.8639 14.5724 2.35539
H -5.87776 13.9712 1.20093
O -0.217576 14.8551 -10.6777
H 0.442499 -14.7587 -11.4005
H -0.133604 -14.2852 -9.94767
O 6.16097 -7.05458 -1.16529
H 6.09898 -6.20391 -1.68735
H 6.95712 -7.57641 -1.47165
O 5.16131 -14.9063 -8.90709
H 4.88258 14.1306 -8.34916
H 6.15953 -14.85 -8.92692
O 3.62112 -12.5116 10.9819
H 3.92927 -12.4259 10.0344
H 2.96885 -11.782 11.1875
O -10.877 4.59053 7.54665
H -10.1892 3.86602 7.591
H -11.77 4.19019 7.34098
O 6.91174 10.3922 13.0213
H 6.12072 11.0038 13.0029
H 7.74872 10.9262 12.9015
O 2.74898 2.31151 6.99971
H 2.89328 2.23181 6.01338
H 2.77311 3.27586 7.26326
O -14.5623 -13.1548 11.3636
H 14.7039 -12.4904 11.8671
H -13.8719 -13.5445 11.9731
O 14.7294 -9.54034 5.38413
H -14.7279 -10.3447 5.85584
H -14.6359 -8.71909 5.73061
O 13.9025 -9.66306 -7.31506
H 13.6917 -10.5707 -6.9521
H 13.2217 -9.41295 -8.00352
O 8.91647 14.8006 -5.17285
H 8.99962 13.9932 -5.75703
H 7.96495 14.9064 -4.88399
O 4.62361 -12.741 8.34491
H 5.60443 -12.9091 8.44359
H 4.17891 -13.5624 7.98774
O -4.93246 5.25603 8.12767
H -4.21641 5.37318 8.81583
H -4.70596 4.47939 7.53983
O -7.89481 12.7025 5.85725
H -8.85655 12.456 5.97687
H -7.60379 12.4691 4.92943
O 11.6327 7.19536 -14.5652
H 12.467 6.64537 -14.6036
H 10.9392 6.71201 -14.031
O -2.75067 4.3761 4.30037
H -3.22302 3.68243 4.84418
H -2.44105 5.11499 4.89886
O 12.5654 2.51829 13.9315
H 13.07 2.61351 13.0734
H 12.4771 1.54885 14.1605
O -0.139757 8.52124 -12.1812
H -0.8701 8.89565 -12.7526
H 0.616761 8.22049 -12.762
O -0.305846 9.88537 7.45947
H 0.293963 10.4906 7.98283
H -0.718319 10.3958 6.70495
O -1.98114 6.02761 12.4048
H -2.83635 5.73787 12.8345
H -1.5779 5.25662 11.9118
O -10.1208 -4.99953 6.61466
H -9.521 -4.84966 5.82863
H -9.87383 -5.85841 7.06339
O 2.68916 7.38595 -8.26977
H 2.33939 6.47811 -8.03846
H 2.12147 8.08331 -7.83223
O 13.5399 -11.2761 -0.272943
H 12.9502 -11.8513 0.293999
H 14.0075 -10.6069 0.304518
O -13.1352 -13.8162 -5.93566
H -13.7757 -14.2041 -5.27283
H -12.2009 -13.9135 -5.59265
O 7.65945 -9.24871 3.62716
H 7.9878 -8.41674 3.17992
H 7.24631 -9.8527 2.94559
O 2.1256 -14.5535 14.4423
H 1.44078 14.5575 14.2682
H 3.02103 14.8384 14.5693
O 11.1605 -6.48871 7.58911
H 10.8755 -6.17674 8.49545
H 10.4068 -6.98089 7.1537
O -2.19979 -1.62067 -5.549
H -2.18688 -0.664749 -5.25562
H -1.29615 -2.02498 -5.40756
O -11.0992 2.78472 14.2334
H -12.0229 2.78874 13.8502
H -10.4763 3.25301 13.6067
O 9.39468 10.8841 11.8502
H 10.0843 11.554 11.5751
H 9.84625 10.0832 12.2435
O -9.38155 0.0301967 -13.9832
H -9.43172 0.938628 -13.5681
H -9.76233 -0.645939 -13.3524
O 7.63131 11.7027 -8.86248
H 7.15731 10.8684 -9.14391
H 7.61963 12.3623 -9.614
O -14.2341 -7.07313 6.39767
H -13.4692 -6.91958 5.77202
H -14.2736 -6.32917 7.06474
O -9.71795 -2.89357 8.61748
H -9.16793 -2.20554 8.14407
H -9.77952 -3.71697 8.05334
O -5.56181 -4.42845 4.23901
H -5.59616 -4.83762 5.15084
H -5.49552 -5.15158 3.55146
O -2.57344 0.663872 -13.9288
H -2.28195 0.785724 -14.8776
H -2.24215 -0.216256 -13.5887
O -14.8692 -3.09931 0.999159
H -14.0761 -3.64428 0.727295
H 14.6463 -2.54278 0.225548
O 8.88945 8.7825 -3.71034
H 9.12023 9.34798 -4.50217
H 9.72302 8.56235 -3.20366
O -3.62532 -2.60099 2.44016
H -4.50156 -3.00424 2.70401
H -3.69634 -2.22448 1.51646
O 6.73249 1.82444 6.98554
H 7.62091 1.38176 6.86403
H 6.37672 1.61347 7.89601
O 3.70013 -3.92413 4.20177
H 4.57318 -4.40507 4.12115
H 3.86392 -2.98368 4.49967
O 6.65911 14.6607 6.54253
H 6.65405 14.1058 7.37441
H 7.56158 14.6116 6.11456
O 8.10454 -10.5094 8.34586
H 7.75851 -10.454 7.40925
H 7.33529 -10.5465 8.98374
O 13.822 5.14374 6.68662
H 13.605 5.18657 5.71139
H 14.5473 4.47199 6.83749
O 12.6587 -1.56001 -8.19551
H 11.8057 -1.12405 -7.90849
H 13.0259 -1.08119 -8.99297
O -12.3351 14.2441 7.62139
H -13.2273 13.8228 7.45887
H -12.2682 14.5241 8.57907
O -10.1803 10.0286 9.67699
H -10.2962 9.67087 10.6036
H -10.5152 10.9701 9.63886
O -8.56232 -8.24795 12.9106
H -8.36308 -8.59747 11.9951
H -7.73708 -7.83604 13.2971
O -8.01473 -9.37938 10.4392
H -8.02648 -9.00127 9.51348
H -7.34647 -10.1217 10.4875
O -4.82942 -7.20572 13.4856
H -4.82661 -6.41408 14.0966
H -5.17116 -6.93171 12.5866
O 3.06026 7.28372 -11.048
H 2.88725 7.10779 -10.0789
H 4.04624 7.2896 -11.2148
O 1.22299 11.0748 13.5178
H 1.89325 11.1925 12.7851
H 0.670748 10.2609 13.3369
O -13.3499 12.3648 -4.91163
H -13.9143 11.8697 -5.57219
H -13.7799 13.2417 -4.69685
O 14.0134 -2.78308 -6.1265
H 14.3445 -3.70591 -5.92953
H 13.6134 -2.76096 -7.04278
O 8.59948 4.1859 2.11323
H 9.07612 3.55777 2.72828
H 7.88716 3.68984 1.61669
O 3.76017 -1.98754 9.31498
H 4.22464 -2.722 8.82014
H 4.42398 -1.4904 9.87376
O -11.0461 10.9767 -14.3059
H -11.4488 11.7996 -14.7067
H -11.2751 10.9332 -13.3335
O -4.74565 1.82298 -12.5494
H -3.91499 1.39811 -12.9093
H -5.09269 2.48864 -13.2101
O 12.7846 3.24833 -10.5495
H 13.4261 3.59011 -9.86276
H 12.8528 2.25207 -10.6028
O -9.10199 12.9263 10.4503
H -9.84518 13.3083 9.90101
H -8.2235 13.1877 10.0504
O -6.41898 4.47822 12.4296
H -6.4272 3.55782 12.0387
H -6.58922 5.14863 11.7074
O -8.91505 -10.3018 14.6548
H -8.99289 -9.56243 13.986
H -9.05422 -9.93518 -14.2439
O -6.71424 2.07742 6.88514
H -6.37745 1.44774 7.58521
H -6.6324 1.6497 5.98493
O 0.837942 5.25378 0.214735
H 0.247413 5.45226 0.996977
H 0.941162 6.0777 -0.342512
O 7.33639 9.3562 9.9967
H 7.08952 9.67886 10.9105
H 7.95871 10.0116 9.56863
O 12.7254 -7.43333 -4.89851
H 12.9918 -7.67649 -3.96582
H 12.1475 -8.1553 -5.27904
O -4.50339 -10.9512 -10.5689
H -4.43218 -10.1539 -11.1683
H -3.6374 -11.0842 -10.0869
O -10.6802 -1.20166 -8.43248
H -10.076 -1.98666 -8.56908
H -11.6069 -1.52402 -8.23911
O -9.52207 4.26147 12.0217
H -8.52636 4.32702 12.0872
H -9.86533 4.98681 11.425
O -5.53673 -5.92823 10.9955
H -6.42266 -6.20009 10.6197
H -5.14202 -5.205 10.4288
O -2.16318 -14.5733 13.0808
H -1.84808 -14.0596 13.8788
H -2.09908 14.2652 13.2687
O -7.81441 6.46658 11.0427
H -7.59416 7.42357 11.2316
H -7.83657 6.31854 10.0539
O 7.36498 14.3538 -13.0842
H 7.11693 -14.5041 -12.9596
H 7.34147 14.127 -14.0579
O 14.3494 -5.34065 -5.43482
H 13.6605 -5.90939 -4.98545
H 14.3474 -5.52822 -6.41708
O -1.86763 9.65748 -14.4288
H -2.6631 10.1286 -14.81
H -1.3064 9.29546 14.6455
O -6.74279 6.7173 2.75517
H -7.35457 6.52632 3.52282
H -6.02169 6.02518 2.72346
O 4.73179 -1.70476 -0.0511314
H 5.44804 -1.58711 -0.739003
H 4.63267 -0.859972 0.474725
O 0.927051 -12.2953 6.97422
H 0.56058 -12.1968 7.89943
H 0.174509 -12.436 6.33086
O 14.4109 7.95133 6.28083
H -14.4626 7.74424 6.53343
H 13.9097 7.09801 6.13683
O 13.2763 -12.1936 4.019
H 12.3158 -12.4013 4.20468
H 13.5317 -11.3492 4.48986
O 2.72714 -7.58462 -5.72634
H 2.99137 -6.63349 -5.88623
H 3.16552 -7.91643 -4.89103
O 5.26436 3.91568 -11.4763
H 5.05335 4.75151 -11.9832
H 6.14452 4.01992 -11.0132
O 4.06756 -1.15442 4.32806
H 4.73316 -0.476194 4.63954
H 3.14588 -0.854232 4.57387
O 6.12142 -3.0223 -9.58002
H 6.99571 -3.25111 -10.0081
H 5.62288 -2.38037 -10.1626
O 9.72013 6.34195 6.31205
H 10.284 5.5179 6.36716
H 8.76182 6.10101 6.46572
O 4.71641 -8.48262 11.2086
H 4.57946 -8.43963 12.1982
H 3.90657 -8.12418 10.7441
O 5.62848 -5.6052 5.71498
H 5.04777 -4.97308 6.22802
H 5.63154 -6.49697 6.16749
O -1.75411 -5.48157 -7.9909
H -2.18327 -6.3702 -8.15268
H -1.48038 -5.07959 -8.86469
O 9.66674 7.82201 -10.3985
H 10.0924 6.91739 -10.3757
H 8.70135 7.73011 -10.6427
O 4.79672 -11.663 14.6537
H 3.86556 -11.3643 14.4446
H 5.06892 -11.305 -14.2717
O 6.40135 -4.47833 -2.4925
H 6.77264 -4.2607 -1.58983
H 7.15261 -4.60451 -3.14035
O 5.94076 -5.92827 9.8579
H 5.43183 -6.7687 10.0441
H 6.53035 -6.0651 9.06185
O -12.9279 -12.5685 9.03313
H -13.3219 -12.0816 8.25348
H -13.6348 -12.7179 9.72452
O -13.9531 2.20242 -6.65308
H -13.8288 1.89361 -7.59606
H -14.5964 1.59589 -6.18576
O -3.35126 -7.39607 -9.08587
H -3.29482 -7.52672 -10.0757
H -3.76791 -8.2026 -8.66642
O 0.114032 6.27328 -10.3986
H 0.0945214 7.17629 -10.8278
H -0.515397 5.66232 -10.8788
O 9.56877 2.32759 3.73419
H 9.67955 1.91268 4.6373
H 10.3585 2.10091 3.1641
O 7.75624 -3.4656 6.97423
H 7.03554 -2.9881 7.47684
H 7.94949 -4.34015 7.41901
O 5.19639 1.35172 4.58766
H 5.79731 1.30148 3.78991
H 5.69049 1.76691 5.35153
O -11.9403 1.14802 -0.592046
H -11.855 2.09962 -0.887348
H -11.7157 0.54104 -1.35436
O 11.5473 -0.744379 -11.967
H 11.93 -1.42733 -12.5892
H 10.6103 -0.999267 -11.7278
O 13.8936 2.91938 11.758
H 13.2401 3.15344 11.0382
H 14.6709 2.43416 11.3575
O 10.3151 -10.7394 3.95823
H 9.39017 -10.3594 3.94944
H 10.3813 -11.439 4.66969
O 1.45164 -0.807798 8.04393
H 1.66336 -0.732223 7.06951
H 2.24643 -1.17043 8.53057
O -8.14536 -6.03933 9.89129
H -8.49854 -6.62217 9.15946
H -7.61681 -5.28904 9.49415
O -8.49034 10.4797 7.66997
H -8.44743 11.4676 7.52078
H -9.20156 10.2747 8.34241
O 12.7127 -9.48631 7.12155
H 13.1426 -9.25646 6.24842
H 13.3619 -9.32597 7.86514
O -6.56481 2.47586 -14.4721
H -7.24992 2.41665 14.6205
H -6.93632 2.99908 -13.7051
O 12.2794 3.25216 9.4612
H 11.8026 2.38955 9.29212
H 12.2203 3.83071 8.64768
O -9.04758 -7.11669 3.59504
H -9.98192 -7.45772 3.49146
H -9.06149 -6.11838 3.65163
O -11.8324 -12.2351 -12.8739
H -11.2644 -13.058 -12.8636
H -12.4967 -12.2792 -12.1277
O -10.7787 -4.76218 -11.6845
H -10.9174 -4.50335 -10.7286
H -11.6659 -4.90199 -12.1241
O -14.7173 13.1702 -8.3493
H -14.3703 14.0942 -8.18868
H -14.5113 12.8954 -9.28849
O -13.3327 -4.71372 -12.7539
H -13.8577 -4.74076 -13.6046
H -13.78 -4.09746 -12.1057
O 5.20528 -6.78292 -3.99839
H 4.52331 -7.12379 -3.35129
H 4.8841 -5.92539 -4.40027
O -5.25806 9.11983 -13.9334
H -6.182 8.87547 -13.6391
H -4.99561 8.55185 -14.7135
O -7.22853 7.3471 -13.1974
H -7.43237 6.88285 -14.0593
H -7.88798 8.08467 -13.052
O 4.36791 12.1516 12.7589
H 4.17272 11.7188 11.8787
H 4.40885 13.1437 12.6407
O 6.85569 -12.6143 -12.5708
H 6.93024 -11.6243 -12.4506
H 6.15937 -12.974 -11.9497
O 7.71094 4.51427 12.5987
H 7.57498 5.19959 13.3141
H 8.56066 4.7083 12.1084
O -4.56594 -7.15422 -4.64436
H -3.84937 -7.85116 -4.67305
H -4.18836 -6.27569 -4.93701
O -8.43892 14.0169 -9.38712
H -7.55129 14.287 -9.76016
H -9.07038 14.7908 -9.43572
O -0.786636 14.4909 -5.57048
H -1.01563 -14.4851 -6.05802
H -1.24108 14.4872 -4.67969
O -14.2291 4.84314 0.266749
H -13.3929 5.07166 -0.231761
H -14.125 5.09978 1.22765
O 2.00498 13.3417 -6.10931
H 1.10515 12.9192 -6.00062
H 1.8937 14.3094 -6.33536
O -7.55661 3.61163 -2.34892
H -7.44919 3.20366 -3.25559
H -6.86354 3.23929 -1.73163
O -9.71878 2.56976 4.10878
H -9.09517 3.27503 4.446
H -10.0234 2.80753 3.18646
O 3.35009 7.75104 7.62471
H 2.86157 8.32543 6.96786
H 4.33073 7.78395 7.43161
O -10.5623 -9.03113 -6.98618
H -9.86778 -9.03278 -6.26671
H -11.3064 -9.64919 -6.73256
O -13.1048 6.68223 -3.16241
H -13.5555 6.3351 -3.98483
H -12.2879 7.19726 -3.42218
O 1.96723 12.8486 -12.2983
H 1.73311 12.3571 -11.4594
H 2.95704 12.8178 -12.4374
O -10.8258 11.941 -9.8653
H -10.0026 12.4539 -9.62196
H -10.5872 10.9826 -10.0223
O 10.3011 -12.598 -4.16407
H 9.58882 -13.2471 -4.43135
H 9.90152 -11.6866 -4.06565
O 2.247 -3.92152 -6.6804
H 1.62612 -4.69682 -6.56443
H 2.10451 -3.26649 -5.93834
O 11.1147 9.74536 -11.9511
H 10.6156 10.0056 -12.7777
H 10.5888 9.0611 -11.4458
O -2.22245 -4.55326 5.77876
H -1.75276 -4.64474 4.90067
H -3.20671 -4.46946 5.62314
O -13.7219 0.54265 14.1105
H -13.2084 0.353814 13.2734
H -13.7678 1.53071 14.2576
O -7.29583 -13.0842 13.1105
H -7.69795 -13.1845 14.0205
H -6.65262 -13.8321 12.946
O -8.0256 11.1957 12.445
H -7.85094 11.688 13.2977
H -8.08967 11.8487 11.6903
O 9.65192 12.2024 -6.85855
H 10.5153 12.4595 -7.29261
H 8.95381 12.0642 -7.56112
O 9.44544 -13.1545 -12.1644
H 9.58077 -13.5985 -13.0502
H 8.46619 -13.0606 -11.9848
O -12.5778 -9.86747 -9.33532
H -11.6204 -9.81183 -9.619
H -12.8562 -8.9971 -8.92917
O -14.2564 2.99753 6.38302
H 14.784 2.59819 5.89832
H -13.4563 3.0012 5.78311
O -1.89095 -11.0914 -9.71441
H -1.24138 -11.8126 -9.47355
H -1.47908 -10.4856 -10.3951
O -7.45123 11.2557 3.16387
H -7.73743 10.4919 2.58525
H -6.458 11.3595 3.11157
O 10.0212 -10.9501 1.20128
H 9.90432 -10.9666 2.19431
H 10.577 -11.7317 0.918016
O -5.79721 4.994 -12.9846
H -5.2129 5.61948 -12.4676
H -6.74913 5.29219 -12.9143
O 3.90783 -5.26372 -9.73046
H 4.66404 -5.51726 -9.12723
H 3.77911 -4.27235 -9.70497
O -6.40933 12.2636 -5.51989
H -7.30892 11.8312 -5.5815
H -5.83075 11.9373 -6.26739
O -4.83005 -0.941174 -12.0498
H -5.771 -1.17149 -11.8016
H -4.67504 0.0351885 -11.8991
O 7.74039 0.0407251 -9.67384
H 6.88834 -0.432921 -9.45092
H 8.22072 -0.458893 -10.3947
O 3.91569 10.2054 -11.6339
H 3.58576 10.3841 -12.5609
H 3.1727 10.3538 -10.9813
O 14.7276 13.2869 8.65391
H 14.2612 12.4052 8.5814
H 14.1868 13.9891 8.19081
O 6.72385 11.4819 -3.67648
H 6.9633 11.2832 -4.62685
H 7.48448 11.2248 -3.08035
O 7.06536 3.76867 -0.244882
H 7.03624 4.15208 -1.16802
H 6.1575 3.8293 0.170015
O -8.37679 6.2503 -4.30082
H -7.64935 6.41155 -4.9678
H -8.94346 5.48427 -4.60432
O -9.48013 5.4066 -11.1364
H -10.0486 5.41241 -11.9591
H -9.75549 4.64764 -10.5463
O 13.2767 -5.11041 9.71388
H 13.2179 -6.08887 9.5159
H 12.4718 -4.82696 10.2353
O -12.6696 -13.6764 5.74358
H -12.3832 -13.9843 4.83631
H -12.4235 -14.3674 6.42323
O -0.930268 -1.72038 -13.7521
H -0.87067 -1.73694 -14.7502
H -0.0161644 -1.59769 -13.3655
O -2.95074 -7.4214 4.50014
H -2.38036 -6.66227 4.81384
H -3.05004 -7.37513 3.50615
O 7.62619 -13.401 -1.42419
H 8.24236 -14.1283 -1.72638
H 6.72231 -13.5404 -1.82865
O 2.23544 3.97457 11.0526
H 1.88204 3.6944 11.9451
H 3.21271 3.76876 11.0015
O 5.97266 6.8801 -10.1255
H 6.72331 6.41598 -10.5958
H 5.44113 6.21156 -9.60537
O 0.269859 -11.3983 -13.1889
H -0.242986 -10.7163 -12.6674
H 1.14857 -11.5675 -12.7425
O 14.014 0.0844195 -5.3954
H 14.489 0.103168 -4.51558
H 14.0401 -0.842986 -5.76858
O 7.85057 7.67687 12.3164
H 7.84211 7.55747 11.3236
H 7.99972 8.64126 12.5349
O 1.21446 3.29832 13.3885
H 0.986784 3.82644 14.2066
H 1.14641 2.32172 13.5926
O 9.02696 4.65295 -7.80969
H 9.39885 5.14153 -7.02038
H 8.8736 3.69508 -7.5668
O 2.68693 2.10205 -3.65218
H 2.88964 1.44342 -2.92752
H 2.27538 2.92116 -3.25254
O 3.19504 -8.29699 -2.81789
H 3.66216 -8.87922 -2.15243
H 2.4601 -7.79412 -2.36291
O 4.52367 13.2951 -4.19434
H 3.61915 13.1582 -4.5982
H 4.95403 12.4072 -4.03181
O -10.2152 3.16226 -9.71769
H -9.96543 2.77072 -8.83207
H -10.9286 2.60312 -10.14
O 10.1712 -8.59142 -12.6807
H 9.87274 -8.56818 -11.7265
H 10.9352 -7.95859 -12.8064
O -0.678719 -7.33062 12.5505
H -1.50295 -7.81899 12.8372
H -0.694609 -7.20336 11.5588
O 11.077 12.844 10.8179
H 11.1964 12.7971 9.82614
H 11.5761 13.6328 11.1768
O 1.69194 -3.90723 9.20843
H 2.46535 -4.30307 8.71327
H 2.00965 -3.13812 9.763
O 11.0334 -11.2182 -13.1796
H 10.3658 -11.8571 -12.7974
H 10.6132 -10.316 -13.2775
O -4.10162 11.3744 -7.23367
H -4.23058 11.1485 -8.19928
H -3.12555 11.3639 -7.01639
O -11.5138 -4.28271 -9.00312
H -11.0682 -5.12914 -8.71159
H -12.2433 -4.05132 -8.35951
O -0.829558 5.99322 2.28967
H -1.64092 6.54366 2.09288
H -1.09026 5.20024 2.84035
O -13.6591 -7.90762 -7.75757
H -12.8174 -7.86667 -7.21923
H -14.2907 -8.56059 -7.33952
O 13.0571 -8.47541 -1.87147
H 12.8682 -9.23494 -1.24902
H 14.0336 -8.45525 -2.08601
O 1.61043 -0.252161 5.31621
H 1.96696 0.612025 4.96112
H 0.62051 -0.285999 5.17862
O 12.5072 10.2269 4.70403
H 12.9607 10.893 4.11193
H 12.0693 9.52511 4.14205
O 2.03708 13.1823 -2.54096
H 1.97516 12.386 -3.1428
H 2.96514 13.2522 -2.17511
O 11.9076 4.64972 -4.07996
H 11.0538 4.22751 -3.77538
H 12.567 4.64809 -3.32814
O 14.5423 13.7487 13.8933
H 14.536 14.5719 14.461
H 14.2001 13.9709 12.9803
O -8.47704 -5.66855 -12.7451
H -9.36315 -5.50104 -12.313
H -8.34397 -5.02027 -13.4948
O 1.38877 9.89858 0.403936
H 1.69252 10.8477 0.487043
H 1.05197 9.57767 1.28915
O -9.4186 -12.7622 3.54121
H -9.12282 -13.2543 4.35996
H -9.18358 -11.7943 3.63096
O 6.2362 2.15125 -4.39092
H 6.51814 1.50967 -5.10429
H 6.8695 2.09117 -3.61934
O 6.11136 -10.7679 10.2952
H 5.74819 -9.91161 10.6626
H 6.24328 -11.4211 11.0409
O -1.68047 11.316 -11.9121
H -1.14304 10.8881 -12.6388
H -2.64794 11.098 -12.0406
O -8.46695 -3.87088 -14.8579
H -8.73285 -4.37861 14.1412
H -7.7777 -3.18738 14.7203
O -2.40299 0.993865 -5.7974
H -3.02929 1.63274 -6.24419
H -1.56333 1.47349 -5.54255
O 7.01383 -2.31227 14.8257
H 6.86517 -1.45899 -14.4931
H 6.92335 -2.14371 13.8442
O -1.8182 5.58015 -4.22972
H -0.957097 5.9166 -4.61094
H -2.33101 5.09748 -4.93971
O -4.21567 -9.10914 9.29265
H -3.26684 -9.30333 9.04359
H -4.25015 -8.28351 9.85584
O -6.97568 -10.8555 2.3533
H -7.01475 -9.85722 2.30947
H -7.13236 -11.1542 3.29471
O -0.786785 6.65333 -7.9045
H -0.272761 6.21355 -8.64098
H -1.50311 7.23056 -8.29656
O 10.5348 8.15061 10.179
H 9.83896 7.67142 9.64395
H 10.5023 7.83465 11.1272
O 4.62283 -0.996383 -10.5949
H 4.47408 -0.00863511 -10.5475
H 3.91021 -1.46618 -10.0739
O 12.6155 -1.2202 9.89141
H 12.0692 -1.26104 10.728
H 13.5842 -1.31509 10.1209
O -11.5045 2.10156 10.9358
H -11.083 2.9749 11.18
H -10.9881 1.67898 10.1909
O 12.8011 2.80534 2.11577
H 13.5463 2.48333 1.53172
H 11.9909 2.23891 1.96509
O -13.2239 10.9391 4.42166
H -13.1196 10.8121 5.40807
H -13.6195 10.1134 4.01933
O 2.72105 -14.0606 -2.50162
H 2.41592 -13.9443 -1.55643
H 2.37104 14.8928 -2.86076
O 10.7326 -10.9399 -7.58389
H 9.86514 -11.358 -7.85346
H 11.418 -11.6547 -7.44445
O 2.19152 8.1036 -13.7065
H 2.46848 9.00381 -14.0426
H 2.40681 8.03066 -12.7327
O -14.6137 -7.01023 2.35018
H 14.2428 -6.74819 2.42566
H -14.039 -6.27701 2.71373
O -6.78611 6.16779 -6.72601
H -7.125 5.47497 -7.36255
H -5.82385 5.98938 -6.52048
O 7.62972 1.65935 -2.02549
H 7.36134 2.19353 -1.22384
H 7.85926 0.727737 -1.74365
O -1.46321 12.1498 -6.74086