2611
Atoms. Timestep: 8000000
O 0.137826 -9.24807 -5.96446
H 0.530174 -9.68693 -6.77283
H 0.606442 -8.38098 -5.79542
O -0.327385 -7.78464 3.40502
H -0.226841 -7.8112 4.3996
H 0.290789 -8.45194 2.98957
O 2.0628 -6.17325 2.94771
H 1.40035 -6.84964 3.26969
H 1.86633 -5.94157 1.99496
O 7.31566 11.3642 -4.75081
H 6.51288 11.6889 -4.25066
H 7.29508 11.7238 -5.68371
O 2.05516 -14.7616 -7.81208
H 1.30544 -14.1001 -7.82858
H 2.62035 -14.6047 -7.00216
O 7.20656 7.37149 -1.13095
H 6.24305 7.12687 -1.02218
H 7.66104 6.68929 -1.70373
O -11.0917 9.51039 12.7759
H -11.5527 8.62415 12.7298
H -10.4511 9.51335 13.5437
O -2.65019 -9.23269 2.5165
H -1.769 -8.84078 2.78093
H -3.35633 -8.92614 3.15479
O -3.22314 -3.42094 -14.2157
H -2.40353 -3.30391 -13.6548
H -3.97837 -2.90261 -13.8145
O -3.24288 -6.50692 -7.37149
H -2.44979 -5.94909 -7.12685
H -3.88037 -5.96007 -7.91425
O 8.51797 -3.70199 -2.34478
H 9.02058 -4.19032 -3.05817
H 9.02248 -3.75878 -1.48323
O 5.52463 -4.75082 1.35836
H 5.25389 -5.14955 2.23456
H 6.38595 -4.25509 1.46968
O -8.61188 6.15958 14.2621
H -9.12344 7.01812 14.2271
H -7.88498 6.17651 13.5755
O -6.49117 -13.4997 2.13015
H -5.85768 -13.9764 1.52064
H -6.25095 -12.5297 2.16812
O -6.37114 9.64161 1.83416
H -5.43705 9.48311 1.51423
H -6.6231 10.595 1.668
O -9.59326 -13.2783 7.47498
H -10.1195 -12.743 6.81432
H -9.05459 -13.9682 6.99137
O -8.85348 -10.1329 -3.73202
H -9.19968 -10.8582 -4.32712
H -8.48331 -9.39115 -4.29128
O 12.7858 0.516664 10.0639
H 13.4513 1.20536 10.3517
H 12.5849 -0.0934965 10.8303
O 13.241 -5.34369 -12.2729
H 12.3517 -5.16232 -11.853
H 13.9168 -5.52275 -11.5579
O -2.29639 -10.5495 13.5888
H -1.67311 -10.6855 12.8187
H -2.83118 -9.7174 13.4419
O -5.67566 1.28406 -1.20781
H -5.91708 0.566117 -0.554906
H -6.50856 1.65437 -1.6191
O 7.88114 -11.9017 5.2746
H 8.56599 -12.5324 4.90964
H 6.98265 -12.3405 5.26016
O -0.274002 11.998 13.186
H -1.15756 11.674 13.5242
H 0.460448 11.5897 13.7281
O 4.91749 12.7799 8.14954
H 4.13089 12.8523 8.76276
H 4.64785 12.2954 7.31731
O -11.9369 6.29938 12.2679
H -11.8919 6.62255 13.2132
H -11.6742 5.33515 12.2325
O -5.71323 0.0535452 6.43337
H -6.40226 -0.432228 5.89553
H -5.49179 -0.478929 7.25035
O 8.67999 -4.09926 3.22173
H 8.42961 -4.97954 3.62476
H 9.46128 -4.22294 2.60993
O 2.26945 -3.70685 -6.30989
H 2.88787 -2.97618 -6.59922
H 1.43156 -3.30681 -5.93853
O 7.52781 -1.16314 -3.06398
H 6.82694 -1.7806 -2.70685
H 8.4322 -1.56166 -2.91147
O 9.93155 2.24786 -2.81284
H 10.5724 2.72773 -2.21361
H 9.70051 2.83272 -3.59038
O -0.706616 -0.478917 11.9846
H -0.485766 -0.399267 12.9567
H -1.66795 -0.734127 11.881
O 10.415 4.36818 -10.2265
H 9.52018 4.06615 -9.89783
H 10.4631 5.36645 -10.1924
O -8.88886 6.63638 -2.10777
H -8.57356 7.32267 -1.45233
H -8.65568 6.9292 -3.03508
O 6.56002 -10.7197 -12.3981
H 7.06264 -9.86528 -12.2667
H 6.17357 -11.0168 -11.5249
O 14.4708 -9.64848 -11.5344
H 13.8978 -9.7388 -12.349
H -14.7769 -9.05956 -11.7403
O -12.1736 11.3051 -6.54441
H -11.5796 12.0362 -6.20867
H -13.0895 11.4164 -6.15894
O -2.89461 8.97212 -13.9484
H -2.62767 9.61221 -14.6689
H -2.96774 8.05114 -14.3312
O -12.3721 11.5966 14.3086
H -12.6762 12.3083 13.6754
H -12.1531 10.7661 13.7963
O 7.9473 -5.78783 -4.80974
H 8.54992 -5.03091 -5.06259
H 7.7492 -6.34083 -5.61903
O -8.21677 2.82306 -13.5778
H -8.42243 3.30798 -12.7277
H -8.79023 3.18274 -14.3138
O -10.4265 8.61874 -12.1743
H -10.9457 9.46203 -12.0355
H -9.97797 8.64668 -13.0676
O -3.74839 -1.33206 11.803
H -3.14442 -1.8068 11.1628
H -4.55514 -0.998528 11.3152
O -3.58204 -5.01108 0.035391
H -3.50073 -4.6192 -0.881032
H -2.71127 -5.42628 0.298812
O 12.289 -13.1043 -4.60289
H 11.9906 -13.6886 -3.8482
H 13.0457 -13.5445 -5.08625
O 4.19068 -11.9233 0.674097
H 5.18412 -11.8208 0.724884
H 3.93724 -12.8523 0.94376
O -9.48296 12.9904 2.64862
H -9.98648 12.1285 2.70796
H -8.6841 12.9518 3.24891
O 4.94676 -8.0442 -11.7025
H 4.87405 -8.95762 -11.302
H 5.02266 -7.36517 -10.9723
O 2.25367 -7.90258 5.42293
H 3.22764 -7.7186 5.55538
H 1.75448 -7.67318 6.25852
O 10.7194 8.34197 0.802075
H 11.6096 8.40627 1.25316
H 10.8045 8.64344 -0.147609
O -11.3024 -1.81087 11.0395
H -11.4156 -2.80186 10.9678
H -11.3801 -1.39999 10.1311
O 3.59312 -3.62642 7.97926
H 3.11373 -3.12395 7.25974
H 4.2263 -4.27983 7.56433
O -12.2944 6.92548 9.56446
H -12.1819 6.77143 10.5461
H -12.7996 6.16159 9.1629
O 6.73384 9.26474 2.88911
H 6.69912 8.82994 3.78897
H 7.61162 9.7307 2.77771
O 12.4974 -2.60598 -9.18781
H 11.6542 -2.07018 -9.23113
H 12.2772 -3.55717 -8.97159
O -6.70543 -9.41294 -8.34975
H -6.32418 -8.8003 -7.65742
H -6.64023 -10.3584 -8.03048
O 2.95216 5.8762 -7.00071
H 3.58437 6.62898 -7.18412
H 3.38742 5.00896 -7.24251
O -8.40341 -14.4892 -2.13819
H -8.32628 -14.9658 -1.26245
H -9.36858 -14.3933 -2.38162
O -7.1921 -11.4702 4.334
H -6.85215 -11.4384 5.27392
H -7.22582 -12.4203 4.02379
O -6.27574 -1.69373 10.5575
H -6.76134 -0.873119 10.2562
H -6.875 -2.23942 11.1433
O 10.6868 -14.8121 7.46921
H 11.466 14.8784 6.94175
H 11.0094 -14.4439 8.3412
O -8.87803 3.92149 -4.97148
H -7.92746 4.21107 -4.8594
H -9.28927 4.41658 -5.73684
O 1.67712 -10.8778 -3.12208
H 1.68601 -9.92001 -2.83482
H 1.56598 -10.9271 -4.11467
O 4.49144 2.82183 -13.4927
H 3.49163 2.80463 -13.5031
H 4.84323 2.1422 -14.1364
O -4.8413 -3.82218 -5.86274
H -4.83809 -4.77042 -5.5452
H -5.48411 -3.7274 -6.62289
O 8.66436 9.13142 -11.0812
H 7.7582 8.86639 -11.4109
H 9.16325 9.59449 -11.8138
O 0.216945 -10.8404 11.8808
H 0.0128021 -11.6151 11.2823
H 0.801726 -11.145 12.6326
O -13.4607 -7.26149 7.44588
H -12.5482 -7.66374 7.51983
H -13.3835 -6.31544 7.13119
O 10.8033 -14.3573 -0.155038
H 11.7627 -14.2098 -0.395283
H 10.7368 14.9278 0.509776
O 0.0024037 -12.7559 -13.8317
H 0.108694 -13.5839 -13.281
H -0.970159 -12.5776 -13.9811
O 14.7331 1.10723 13.0292
H -14.4743 0.556505 12.8832
H 13.9314 0.509911 13.0528
O -0.415041 -3.68496 -6.0854
H -0.0353602 -4.12173 -6.90093
H -0.626899 -2.72876 -6.28743
O 0.418682 -6.4861 -5.13357
H -0.0812223 -6.15152 -5.93242
H 0.0317016 -6.0818 -4.30483
O -6.72057 -0.663973 0.691693
H -6.38978 -1.60179 0.586409
H -6.78531 -0.440578 1.66428
O -1.5342 6.82375 -2.0786
H -1.16237 6.33974 -2.87074
H -1.55456 6.20784 -1.29104
O -2.15585 5.70829 -10.5485
H -1.46052 6.11633 -9.95688
H -3.05704 5.81974 -10.1296
O -0.154174 4.38493 1.54952
H -0.399202 3.43388 1.73784
H 0.656445 4.41072 0.964506
O -4.30855 0.406034 -9.95009
H -4.78558 1.28304 -10.0076
H -3.35677 0.525118 -10.2328
O -5.58125 -2.90738 0.108574
H -5.78491 -2.77323 -0.86124
H -4.90566 -3.63775 0.209361
O -6.42442 -3.81918 8.07195
H -7.05977 -3.04699 8.07992
H -6.84225 -4.59942 8.53742
O -9.72657 -9.46188 -8.81066
H -8.74159 -9.62376 -8.75033
H -9.91759 -8.49731 -8.62867
O 3.18161 12.4265 -6.02056
H 2.85439 12.3877 -5.07641
H 2.42486 12.6738 -6.6257
O 1.56784 -1.37627 -4.73365
H 1.32329 -1.8204 -3.8717
H 0.777472 -0.875499 -5.08656
O -12.7327 6.72548 -9.1068
H -13.6729 6.82848 -9.43155
H -12.2598 6.04407 -9.66547
O 8.1983 2.26818 -9.37671
H 7.49569 2.02837 -10.0467
H 8.95001 1.61102 -9.43231
O 7.50907 -2.29836 8.31029
H 7.88246 -1.65956 8.98299
H 8.10014 -2.31642 7.50386
O -5.6549 4.84776 7.84822
H -6.04632 3.94436 7.67312
H -6.13494 5.27635 8.61365
O 2.23737 -5.49676 10.0263
H 2.76322 -5.39083 10.8703
H 2.28356 -4.65 9.49634
O -8.80879 8.57008 -9.62371
H -8.79857 9.04454 -8.74348
H -9.58114 8.89585 -10.169
O -5.79518 -13.0995 -14.9497
H -5.18359 -12.7989 -14.2178
H -5.96753 -12.3376 14.4552
O 4.58874 5.25336 -2.59008
H 4.78221 4.29045 -2.77818
H 4.57407 5.40346 -1.60151
O -5.49524 2.60211 -10.3958
H -5.54768 3.13326 -11.2415
H -5.73539 3.18581 -9.62016
O 13.386 -3.30112 11.092
H 12.46 -3.62469 11.2867
H 13.7512 -3.79206 10.301
O 12.977 -1.57384 -6.418
H 13.103 -1.2736 -7.36351
H 13.341 -2.49906 -6.31075
O -8.43808 11.524 -14.0674
H -8.55629 12.3879 -13.5779
H -7.49359 11.4486 -14.3872
O -5.76112 -10.5314 2.10158
H -6.35327 -10.5294 2.90742
H -5.80168 -9.63718 1.65586
O -6.75457 10.2479 -11.0947
H -7.02557 9.74043 -11.9126
H -6.4184 9.60943 -10.4024
O -7.29582 -7.21936 -12.6204
H -6.79629 -6.6784 -11.9438
H -8.14228 -6.74685 -12.8659
O -4.85646 2.59639 2.17763
H -5.54511 3.31667 2.26111
H -4.40343 2.66973 1.28915
O 13.9869 4.97153 -2.14044
H 13.2731 5.55657 -2.52544
H 14.8479 5.4786 -2.10042
O 0.508855 14.9506 10.3073
H 0.473728 -14.9467 9.31668
H -0.0176634 14.137 10.5541
O 6.90777 13.3501 5.13254
H 7.73664 13.1213 4.622
H 7.13779 13.4918 6.09535
O -10.1373 -6.27251 -13.0354
H -10.8428 -6.51604 -12.3698
H -10.3682 -6.66629 -13.9251
O -8.63188 -10.0893 -1.00967
H -8.75882 -10.067 -2.00133
H -8.91788 -9.21509 -0.617285
O 6.43363 2.42155 -0.171981
H 6.81614 2.27929 -1.08492
H 6.12716 3.36927 -0.0829698
O -6.49919 -1.19093 -9.88113
H -5.7354 -0.54736 -9.93072
H -7.31114 -0.77694 -10.2927
O 8.67849 6.43811 7.30873
H 8.4563 5.78961 6.58065
H 9.64281 6.34387 7.55618
O 12.0743 -7.65685 -0.227759
H 12.5713 -8.10781 -0.969126
H 11.4639 -6.96285 -0.609542
O -1.48661 2.18892 13.6304
H -2.37188 1.82914 13.9252
H -0.787728 1.48135 13.735
O 5.46332 -10.7896 8.07461
H 6.39585 -11.0936 7.87956
H 4.98223 -11.4994 8.58924
O 6.78421 14.1266 14.8258
H 6.55071 13.1617 14.946
H 6.57398 14.6275 -14.3638
O 5.07861 -8.47252 3.04917
H 5.07785 -7.49369 3.2539
H 4.20289 -8.72803 2.63948
O -4.73805 7.67125 10.2929
H -4.3076 8.41299 9.7786
H -4.27785 6.80877 10.0823
O 6.10623 -4.92288 9.68899
H 6.02514 -5.41113 8.82005
H 6.03204 -3.93894 9.52663
O -14.7878 1.13878 -9.30493
H -14.7317 0.629227 -10.1635
H -14.9335 2.10836 -9.50165
O 9.21974 12.6194 -14.9227
H 9.97831 12.6787 14.4576
H 8.47174 13.2078 14.7995
O -0.824129 5.69245 3.72257
H -0.537852 5.00933 3.05071
H -1.63977 5.36765 4.20138
O -12.7598 -13.8246 10.1363
H -12.654 -14.5303 9.43574
H -11.877 -13.3856 10.3032
O 14.1853 7.72251 -5.23003
H 13.5835 6.97838 -4.94006
H 14.8286 7.93665 -4.49493
O 12.6822 -0.0940383 -3.53294
H 13.1504 -0.867858 -3.95956
H 12.6635 0.676574 -4.16998
O 14.7891 6.09753 7.68636
H -14.7766 5.51709 8.35587
H 14.0326 6.5786 8.12935
O -5.47221 6.54731 1.01436
H -4.63083 6.3749 0.502138
H -6.18439 5.91577 0.70782
O 9.83149 1.97523 10.9034
H 10.5923 2.53018 11.2398
H 9.2904 2.50992 10.2543
O 9.08674 -4.93887 -7.9402
H 8.71301 -5.86396 -7.87274
H 10.024 -4.98243 -8.28623
O -1.0773 -8.83001 -2.33507
H -0.0983357 -8.627 -2.35595
H -1.58489 -8.06491 -2.7313
O -12.8133 -1.7518 3.10938
H -13.6668 -1.51893 3.57556
H -13.003 -2.39722 2.36947
O 1.37027 1.96864 5.17278
H 0.973894 2.48096 5.93464
H 0.638864 1.64385 4.57315
O -9.92512 -14.9941 11.8293
H -9.26658 -14.2457 11.9085
H -10.1608 14.899 10.867
O 12.6569 0.906667 -8.03622
H 11.8981 0.445726 -8.49653
H 13.4361 0.969783 -8.65975
O 11.6831 14.6246 -8.99202
H 11.082 14.1669 -8.33683
H 11.1586 14.8779 -9.80492
O 4.54207 0.319789 -11.6261
H 4.51464 -0.273267 -10.8214
H 4.30123 1.25332 -11.3605
O -13.9312 -8.23551 14.6929
H -13.373 -8.48961 13.9031
H -13.992 -7.23907 14.7514
O -4.14732 -7.76968 4.44548
H -3.83565 -6.84511 4.22631
H -5.09131 -7.88524 4.13638
O -14.9846 3.9297 -10.3411
H 14.6173 4.32471 -9.52786
H 14.7109 4.40313 -11.1563
O -0.839418 -0.932098 -6.14779
H -0.453885 -0.46432 -6.94313
H -1.83101 -0.803392 -6.13367
O -6.37844 -10.1964 14.502
H -5.88834 -9.66521 -14.836
H -6.10834 -9.88679 13.5903
O 2.16964 -5.16288 -9.2279
H 2.2334 -4.16559 -9.26482
H 3.04826 -5.54255 -8.93827
O 7.42023 7.62897 12.792
H 7.86631 7.96911 13.6198
H 7.92966 6.84512 12.4369
O 13.2513 4.90716 5.5827
H 14.069 4.72856 6.12996
H 12.9458 5.84678 5.73685
O -9.00442 0.247395 -13.9735
H -9.20856 0.136289 -14.9462
H -8.66617 1.17372 -13.8077
O -5.91092 -14.7153 -3.77759
H -5.71727 -13.7928 -4.11156
H -6.64271 -14.6767 -3.09714
O -0.462822 8.94558 -3.62227
H 0.528565 8.84841 -3.53439
H -0.898312 8.72118 -2.75049
O 14.8125 -13.9189 -5.49428
H -14.3999 -14.4504 -5.27019
H -14.9823 -13.2136 -6.1633
O -4.13842 -8.19076 13.3278
H -4.28896 -7.9146 14.2771
H -4.63693 -7.57432 12.7183
O 1.85808 11.1008 14.3276
H 2.18255 10.2771 14.7926
H 2.37097 11.8935 14.6571
O 14.7928 -5.21913 -1.41222
H 14.1986 -4.91595 -0.667161
H -14.4896 -4.56468 -1.53036
O 7.47585 3.74429 14.5873
H 6.49117 3.90972 14.5321
H 7.93442 4.20545 13.8277
O -6.34638 -13.9179 -11.0694
H -5.42977 -13.9889 -10.676
H -6.66315 -12.9714 -11.0079
O -12.1659 -5.87396 -1.652
H -12.5856 -6.13783 -0.783573
H -11.4451 -5.20158 -1.48315
O -13.0076 -4.42794 -9.58725
H -12.3596 -4.03397 -8.9354
H -12.7039 -5.34483 -9.84631
O 0.156379 14.5547 14.4372
H 0.320824 13.8117 13.7884
H -0.682492 14.3703 14.9494
O -11.0772 6.80217 6.80594
H -11.2418 6.95791 7.77994
H -10.3216 7.38077 6.49889
O 6.5208 -13.8743 -13.2866
H 6.21295 -13.2974 -14.0432
H 5.82267 -13.8857 -12.5707
O -14.4519 -10.3532 -1.65149
H -14.8301 -10.9651 -0.956818
H 14.9931 -9.54626 -1.73852
O 13.9078 12.0838 10.0303
H 14.8963 12.1547 9.89682
H 13.635 12.6509 10.8075
O 12.938 6.99075 9.90237
H 12.9046 7.98985 9.92901
H 13.7904 6.67455 10.319
O 11.3186 6.06093 8.02743
H 11.8804 5.45737 7.4616
H 11.9025 6.54709 8.67761
O -12.4986 7.73413 14.6871
H -12.8902 6.98429 -14.8088
H -12.9464 8.59193 14.9394
O -13.7305 -9.7411 10.9691
H -14.2664 -8.93268 11.2125
H -14.1043 -10.5421 11.4368
O 14.3348 5.72477 -12.4334
H 14.0134 6.34779 -11.7203
H 13.9538 6.00261 -13.3153
O -6.60196 -12.2926 -1.64048
H -7.26949 -12.906 -2.06266
H -7.0765 -11.5099 -1.23782
O -12.304 -9.84355 -9.69054
H -12.3658 -10.6338 -10.3002
H -11.3425 -9.61787 -9.53381
O -10.4162 12.8994 -2.86225
H -9.5776 12.7055 -2.35323
H -11.1842 12.9683 -2.22551
O 2.73799 0.360998 13.2233
H 3.66282 0.610135 13.5107
H 2.65621 0.469815 12.2326
O -1.05113 9.95399 7.3387
H -0.255683 10.4741 7.02757
H -1.08198 9.07528 6.86231
O -8.62308 -6.40929 8.42769
H -8.57359 -5.91355 7.56062
H -9.34281 -7.10157 8.37522
O 4.02237 8.97082 3.10349
H 3.64563 8.12905 3.49014
H 5.02119 8.93478 3.13615
O -3.54938 12.7982 0.73919
H -3.88632 12.7605 -0.20159
H -3.51258 11.8732 1.11737
O 13.5323 13.4718 -1.15096
H 13.8307 12.5977 -1.53437
H 14.3026 14.1094 -1.13569
O -3.13501 10.1583 1.46953
H -2.99504 9.40865 0.822705
H -2.60564 9.98522 2.30007
O -7.80997 1.23765 -3.28668
H -8.70702 0.915715 -3.58946
H -7.35927 1.72225 -4.03637
O 9.87833 12.7465 -7.68591
H 9.00519 12.5912 -7.22382
H 9.86034 12.313 -8.58688
O 12.6824 -11.4541 -1.55825
H 11.7784 -11.1766 -1.8835
H 13.3867 -10.975 -2.08205
O 5.23237 -11.8706 11.563
H 5.70814 -12.6451 11.1462
H 4.25057 -12.0584 11.5911
O 8.98435 -8.55613 8.13734
H 9.71463 -7.87821 8.05293
H 9.09812 -9.06406 8.99119
O -8.22317 -9.7189 -13.2691
H -8.06705 -9.75196 -14.2563
H -7.83507 -8.87515 -12.8983
O -10.5811 11.5709 -10.2305
H -9.67931 11.9738 -10.074
H -10.7884 11.5876 -11.2086
O -8.56263 -0.69288 6.90354
H -9.01606 -1.53658 7.19092
H -8.78704 -0.502756 5.94777
O 14.9478 2.01601 6.40387
H -14.8609 2.5447 5.5842
H 14.2443 1.33982 6.1851
O -3.37451 9.95223 -11.5471
H -3.18355 9.5164 -12.4266
H -3.85126 10.8178 -11.7005
O 7.70004 5.36352 -10.9044
H 7.27046 4.47944 -10.7204
H 7.21667 5.81987 -11.6515
O 5.23543 14.3193 -5.31345
H 4.62208 13.6241 -5.68834
H 5.93041 14.5524 -5.99365
O 2.55258 9.07312 5.99698
H 2.1918 8.52347 6.75046
H 2.00531 9.90431 5.8989
O 1.08318 -13.1123 6.72772
H 1.43444 -12.2865 7.16909
H 0.48529 -12.8557 5.96831
O -8.84385 8.91824 -14.9636
H -7.89505 8.66897 14.8716
H -8.89867 9.89839 -14.7731
O 7.75178 -10.5996 11.8751
H 7.19797 -11.4307 11.8249
H 8.67713 -10.8331 12.1737
O 7.84933 -5.48747 -10.9118
H 8.16827 -6.31719 -10.4537
H 8.59906 -5.08948 -11.4405
O 7.95094 12.6132 -12.5617
H 8.54044 12.5208 -13.3642
H 6.99595 12.4965 -12.8344
O -14.7857 14.646 13.9786
H -14.8608 -14.4528 14.3374
H -14.0372 14.6034 13.3168
O 11.6179 12.3456 13.7156
H 11.8996 12.8016 14.5598
H 12.2345 12.6078 12.9733
O 4.54363 -8.8093 11.6344
H 3.78811 -8.97536 11.0007
H 5.18559 -9.57507 11.5957
O 14.6923 -1.12093 4.3468
H 14.238 -1.04492 5.2344
H 14.19 -0.584966 3.66826
O -2.91878 -13.0766 8.14545
H -2.06282 -12.7289 8.52811
H -3.49154 -12.3089 7.85799
O 13.2646 -13.1061 0.48111
H 14.1764 -12.9127 0.84332
H 13.1118 -12.5631 -0.344604
O 2.15335 13.2429 -9.9652
H 2.13879 14.1533 -9.55175
H 1.67313 12.5987 -9.36984
O 11.2891 -9.17039 -8.1356
H 11.3717 -9.14838 -7.13925
H 12.1685 -9.42578 -8.53737
O 2.56965 -2.49432 -1.36097
H 2.06886 -3.25142 -1.78053
H 1.97409 -2.01904 -0.713329
O -0.599827 -8.24597 -9.35235
H -0.656669 -8.79579 -8.51899
H -0.0467143 -8.72744 -10.0323
O -13.6806 13.3409 9.21946
H -14.2387 14.1544 9.05592
H -13.0384 13.2196 8.46251
O 4.34387 -11.6872 -2.4746
H 3.45048 -11.8081 -2.90731
H 4.22214 -11.2967 -1.56209
O -6.25054 -2.72121 -2.51406
H -6.60502 -3.60682 -2.81414
H -6.67287 -1.99293 -3.05376
O 12.1096 4.54004 3.0887
H 12.7266 4.50497 3.87493
H 11.24 4.94885 3.36542
O -3.23486 -2.22746 7.81086
H -3.06269 -2.54006 6.8767
H -3.00103 -2.95611 8.4546
O -5.26474 -11.9831 -3.92871
H -4.32498 -12.2273 -3.68954
H -5.81407 -11.9164 -3.09576
O 6.64619 -0.92128 5.91263
H 6.45869 -0.0600022 6.38492
H 7.49603 -1.31526 6.26275
O -0.413981 -5.10312 11.2556
H -0.991986 -5.86207 10.9557
H 0.495989 -5.1974 10.8518
O 7.36851 5.88649 -6.23975
H 7.76769 6.16224 -7.11418
H 6.86641 6.65601 -5.84511
O -1.65756 -7.05915 -12.9644
H -0.95046 -6.35797 -13.0559
H -1.30987 -7.93037 -13.3109
O -9.35751 -12.4339 0.0857671
H -8.63171 -12.9469 0.54409
H -9.02077 -11.5239 -0.156244
O 10.4639 7.22328 -10.7668
H 9.74397 7.91734 -10.7644
H 10.5984 6.88586 -11.6985
O 7.92444 -1.48937 -6.46217
H 7.29866 -1.28933 -5.70825
H 8.86662 -1.46886 -6.12768
O 12.8104 -1.99169 -14.625
H 13.5811 -1.38973 -14.4161
H 11.9818 -1.44409 -14.7415
O 0.228468 -9.09655 1.04256
H -0.443303 -8.63188 0.465655
H 0.443522 -9.99067 0.649747
O -13.0481 -6.46987 0.956855
H -14.0042 -6.74767 1.05012
H -12.4737 -7.0545 1.52984
O 11.9657 -7.13833 -14.5467
H 12.3634 -6.55207 -13.8408
H 12.0419 -6.68765 14.5931
O -2.42878 -12.5708 2.91796
H -3.17807 -12.9344 3.47151
H -2.80048 -11.9875 2.19581
O 8.69235 4.03362 -4.8103
H 8.55935 3.21338 -5.36665
H 8.28465 4.82042 -5.2737
O -10.0851 -2.055 3.87359
H -10.9433 -1.83317 3.41076
H -9.55535 -1.21827 4.01252
O -8.04041 -5.69215 -0.115632
H -7.88613 -5.28731 0.785655
H -8.60609 -6.5113 -0.0206818
O 5.07262 13.5767 -12.693
H 4.57326 14.4431 -12.6868
H 5.18032 13.2607 -13.6356
O 3.43117 -11.2745 -12.727
H 4.19046 -10.8144 -12.2668
H 3.24447 -10.8197 -13.5978
O -14.8278 3.50926 14.8073
H 14.499 4.21489 14.9003
H -14.9593 3.01955 13.9454
O 13.0262 0.132148 5.91234
H 12.2632 0.481893 5.36871
H 12.6756 -0.467391 6.63182
O -11.0099 -10.1985 -12.9527
H -11.2988 -11.0331 -12.4837
H -10.0642 -9.98743 -12.7053
O -12.3054 -1.61792 -3.31796
H -13.1116 -1.45656 -3.88718
H -12.5672 -1.58827 -2.35327
O 6.81015 9.07982 -8.35606
H 6.51036 9.24697 -9.29531
H 7.45733 8.31758 -8.3434
O -8.80844 14.7736 14.293
H -9.48729 14.4867 14.9689
H -9.19193 14.6785 13.3744
O 1.69919 -11.8299 14.2448
H 1.97025 -11.0319 14.7831
H 1.0444 -12.377 14.7662
O -9.62117 14.5381 9.08278
H -9.65315 -14.5698 8.69508
H -8.67133 14.2887 9.27147
O 3.60998 -12.7636 9.01122
H 3.25419 -13.1686 9.85349
H 2.92369 -12.1501 8.62057
O -4.34227 5.88592 -8.88128
H -5.18574 6.31654 -9.20246
H -4.55424 5.25048 -8.13879
O 7.21622 11.4568 8.44966
H 7.89469 12.1242 8.14249
H 6.29749 11.8113 8.27567
O -1.27435 10.9765 -8.01333
H -0.575151 11.6696 -7.83786
H -1.12107 10.1896 -7.41558
O -0.369651 -0.789359 -12.9629
H 0.623125 -0.893555 -13.0225
H -0.803288 -1.68854 -13.0215
O -7.57121 -5.17531 -5.6891
H -7.7288 -4.82985 -4.76399
H -8.2274 -4.75723 -6.3173
O 4.01162 -14.5447 1.71199
H 3.61979 -14.3683 2.61495
H 4.07131 14.4977 1.5616
O 11.2558 -3.33132 7.51385
H 11.208 -2.35578 7.72843
H 12.2109 -3.62778 7.52131
O 7.55972 -9.28475 14.9804
H 8.29424 -8.6117 -14.9622
H 6.70072 -8.88344 -14.7309
O 8.3793 9.83553 -1.14281
H 7.8723 10.5501 -0.660715
H 7.97465 8.94414 -0.938606
O -11.8162 -5.09028 -5.94124
H -11.025 -4.86845 -5.37138
H -12.1649 -4.25533 -6.36704
O -6.79032 -11.4884 -6.03784
H -6.14023 -11.4571 -5.27861
H -7.60515 -11.9962 -5.75828
O 3.18815 -13.6414 -5.46341
H 2.4983 -14.1954 -4.99741
H 4.08237 -14.0806 -5.37713
O -4.79708 2.9087 12.0227
H -5.54421 2.85354 11.3603
H -4.87111 3.76233 12.5383
O 8.88011 -11.1232 -8.69145
H 8.85169 -10.1692 -8.98998
H 9.5203 -11.2148 -7.92871
O 10.4517 -1.25167 -5.63873
H 11.2338 -1.44011 -6.2328
H 10.6903 -0.525484 -4.99395
O 13.414 12.6357 -8.55077
H 12.8708 13.4158 -8.86113
H 13.0655 12.3164 -7.66952
O 5.17163 13.7745 -8.94139
H 5.41642 12.8999 -9.36002
H 5.90245 14.0643 -8.32342
O -3.87591 9.97038 5.49751
H -3.81968 10.8516 5.96694
H -3.03653 9.81624 4.97627
O -14.3521 -3.19313 12.8497
H -14.446 -2.39392 13.4434
H 14.8412 -3.30991 12.3133
O 0.273591 -3.32889 13.2448
H -0.456867 -2.73015 13.5733
H -0.086907 -3.9375 12.5379
O 6.84741 11.6109 0.531322
H 6.084 11.3392 1.11734
H 6.81874 12.5995 0.383511
O -14.8014 10.0205 4.83133
H -13.8536 9.84272 5.09606
H 14.872 10.7895 5.3625
O -5.21646 7.68656 5.75457
H -4.95726 8.65195 5.72517
H -4.64006 7.20668 6.416
O -1.69944 -9.3671 10.4031
H -1.06151 -9.82239 11.0242
H -1.42 -9.5335 9.45744
O -10.6776 -12.7675 -2.54341
H -10.0127 -12.0695 -2.2775
H -10.4945 -13.0621 -3.48135
O -0.670501 -11.804 4.72893
H -1.38927 -11.1621 4.99607
H -1.07808 -12.578 4.24435
O 3.24112 -12.6001 4.24749
H 3.9976 -12.8723 4.84218
H 3.02761 -11.6352 4.40029
O 5.44831 4.78837 0.693945
H 5.95744 5.29553 1.38935
H 4.52997 5.1742 0.605601
O 0.174432 0.12396 14.4489
H 1.17124 0.203815 14.4469
H -0.139879 -0.10268 -14.6584
O 5.41736 -8.46872 -5.80612
H 4.49987 -8.71431 -6.11903
H 5.68452 -9.06956 -5.05271
O 12.0179 2.16648 -10.8706
H 12.7766 2.42229 -11.4698
H 11.4688 2.97629 -10.6638
O 1.48334 -5.63432 0.391734
H 1.55114 -5.09542 -0.447907
H 1.85826 -6.54766 0.232783
O 0.105385 -12.1246 1.75381
H 0.510356 -11.4896 2.41169
H -0.747807 -12.4905 2.12553
O 8.45047 -1.06919 -11.0672
H 7.88181 -1.43696 -11.803
H 8.44825 -1.7045 -10.295
O 4.52892 -2.33766 -7.05923
H 5.19496 -3.07881 -6.97504
H 4.48564 -1.82914 -6.19926
O 1.86016 11.8701 8.97861
H 1.23824 12.541 9.38261
H 2.52258 11.5732 9.66638
O 10.9925 -4.63912 11.844
H 10.4033 -5.11423 11.1904
H 10.5502 -4.62274 12.7407
O 7.20378 -6.86849 -7.43396
H 6.73581 -7.54193 -6.86169
H 6.53028 -6.25152 -7.8411
O -12.5562 13.8727 12.514
H -11.683 14.3549 12.4438
H -12.6988 13.32 11.6929
O -11.993 -9.5447 -4.79999
H -11.3361 -9.58157 -4.04687
H -12.3491 -8.61425 -4.88646
O 12.2843 -7.43335 8.9608
H 12.8853 -7.83833 8.27179
H 12.3201 -6.4365 8.88992
O 7.06995 3.75233 4.03198
H 6.57648 3.00815 3.58176
H 6.71325 4.63016 3.7123
O 13.3748 -10.5783 -4.40768
H 13.1079 -11.4406 -3.97725
H 14.2169 -10.7132 -4.9299
O -9.07514 -3.68549 1.70866
H -9.21598 -3.32277 2.62986
H -9.61697 -3.15633 1.05564
O -5.86815 8.57613 -4.79613
H -5.50037 8.47196 -3.87206
H -5.40037 9.32966 -5.25807
O 1.33834 -4.92705 -2.20457
H 0.412451 -4.88935 -2.58051
H 1.97707 -5.21135 -2.91956
O 5.09871 14.2639 11.9178
H 4.67317 13.4289 11.5689
H 5.00265 14.2963 12.9127
O -14.3327 -8.1999 -8.32656
H -13.4273 -8.45806 -8.6635
H -14.904 -9.01678 -8.24653
O -5.58072 11.8812 14.4134
H -6.08257 11.9883 13.5551
H -5.30271 12.7804 14.7514
O -14.4584 -3.64422 4.31437
H -14.8548 -2.72626 4.32958
H 14.9011 -4.29047 3.9485
O -9.4475 13.9887 0.161593
H -9.16335 13.5351 1.0063
H -10.1786 14.6406 0.362987
O -1.9795 -1.76537 -9.85292
H -2.89047 -2.0457 -9.55031
H -1.55948 -1.18666 -9.15386
O -14.4527 11.8415 -5.08263
H -14.4048 11.2273 -4.29496
H 14.6446 11.8466 -5.44526
O -2.88646 11.3875 14.9433
H -2.80968 11.8236 -14.1893
H -3.8485 11.1996 14.7453
O 4.98447 11.953 -3.53765
H 4.71367 11.6637 -2.61949
H 4.92905 12.9493 -3.60313
O -10.0791 -3.97591 -1.45649
H -9.89648 -3.02445 -1.20872
H -9.35613 -4.56076 -1.08865
O 11.2217 1.89318 -14.5089
H 10.6617 2.63759 -14.1453
H 12.0687 1.8252 -13.9817
O 9.99993 14.2528 -5.26091
H 10.6625 14.0058 -4.55381
H 10.3401 13.9583 -6.15395
O -2.81389 -10.1083 5.49238
H -3.26391 -9.24429 5.26652
H -3.44746 -10.691 6.00129
O 12.1624 -9.6682 10.3723
H 11.4957 -10.2899 9.96101
H 12.1651 -8.80311 9.87064
O -8.72088 0.168978 4.24963
H -7.85165 0.455671 3.84682
H -9.31566 0.965215 4.36033
O -7.73411 14.3068 -12.9418
H -7.14725 14.8727 -12.3627
H -7.3679 14.29 -13.8722
O 13.7739 -5.54429 3.60635
H 14.2178 -6.1939 2.98915
H 12.9593 -5.96619 4.00457
O -2.38034 -10.3754 -5.39178
H -1.45873 -10.1049 -5.67013
H -2.36222 -10.6943 -4.44417
O 10.0186 -11.0325 9.55207
H 9.83442 -11.4422 10.4455
H 9.45113 -11.4763 8.85852
O 8.88345 -0.597155 10.1197
H 9.34735 0.251395 10.3742
H 9.23698 -1.34983 10.6751
O -14.48 -12.613 14.7998
H -13.8093 -11.9004 15.0058
H 14.8193 -12.5914 -14.5462
O 2.81869 10.4293 1.15508
H 2.05971 9.91707 0.753084
H 3.20078 9.91255 1.92124
O -6.75776 -11.1748 10.1899
H -5.77182 -11.0407 10.2896
H -7.06624 -11.8727 10.8362
O 3.65279 3.16252 4.16523
H 4.27037 2.81625 3.45904
H 3.04737 2.42668 4.46858
O 6.96638 10.0847 12.1875
H 6.18404 10.1276 11.5662
H 7.18912 9.12843 12.3774
O 11.7762 12.0009 -3.42563
H 12.1188 11.3011 -2.79883
H 10.849 12.263 -3.15808
O -11.4279 10.5703 6.12598
H -12.1541 9.98821 6.49172
H -11.5713 11.5124 6.42932
O -14.5259 9.47395 -14.8213
H -14.5255 10.453 -14.6175
H 14.5701 9.12046 -14.7571
O 8.20243 12.2216 10.9693
H 7.74598 11.5681 11.5731
H 7.93453 12.0439 10.0223
O -11.3782 3.31814 -3.71741
H -10.4891 3.66573 -4.01519
H -11.5808 3.66272 -2.80077
O -7.19738 10.8102 7.04571
H -7.14056 9.83804 6.81826
H -6.31537 11.2463 6.86731
O 0.869691 5.498 10.4979
H 1.39667 5.206 9.69973
H 0.439671 4.7015 10.923
O 10.5537 -0.570825 14.4029
H 9.65239 -0.641387 13.9755
H 10.6626 0.339243 14.8028
O -10.1786 5.78573 -6.51968
H -10.1135 6.16758 -7.44162
H -11.1315 5.80638 -6.21688
O 9.59085 10.4779 12.7956
H 8.72562 10.2054 12.3747
H 9.69215 11.471 12.7365
O -4.37471 5.14749 13.7054
H -4.56504 5.21099 14.6851
H -3.38939 5.22192 13.5518
O 13.5528 1.97796 -5.20702
H 14.4623 2.12951 -4.82014
H 13.6413 1.59978 -6.12852
O 1.27624 12.3681 -2.66583
H 0.561241 12.2747 -1.97297
H 1.96286 11.653 -2.53482
O 10.0659 -10.287 3.31689
H 10.3507 -10.6214 2.41855
H 9.06762 -10.2409 3.35428
O 9.01991 -11.6308 -14.7144
H 8.98742 -12.1103 -13.8374
H 8.49412 -10.7826 -14.6501
O -4.85747 -11.0011 -12.9946
H -5.85237 -11.0689 -13.0693
H -4.62066 -10.4098 -12.2236
O -1.59891 12.7812 -5.63718
H -1.39298 12.0883 -4.94614
H -1.58863 13.6872 -5.21413
O 0.147995 8.20275 3.97407
H 1.06182 8.15783 4.3777
H -0.0858857 7.3144 3.57892
O 4.85426 8.99393 8.15148
H 4.82767 9.73296 7.47833
H 3.92296 8.68453 8.34376
O 9.84483 10.4015 -13.1772
H 9.42383 11.1479 -13.6927
H 10.8403 10.4715 -13.2422
O 10.8338 -0.20922 -10.0151
H 9.9436 -0.225829 -10.4704
H 11.3293 0.617435 -10.2819
O -2.52602 1.84187 10.9246
H -3.40082 2.24347 11.1956
H -1.93546 1.75673 11.7271
O 7.55432 4.90897 -2.50568
H 8.15081 4.54108 -3.21904
H 6.60308 4.86456 -2.81093
O 6.35246 -1.01329 11.8846
H 6.80289 -0.333142 11.3062
H 5.65011 -1.48874 11.3548
O -11.0486 -11.4278 6.08791
H -11.3833 -10.6378 6.60154
H -11.2339 -11.2952 5.11422
O -4.81168 4.33799 -3.54693
H -5.37675 4.68796 -4.29407
H -4.46444 3.4317 -3.78794
O 4.93196 -5.73727 3.7698
H 3.94554 -5.7363 3.93406
H 5.37917 -5.12579 4.42258
O 1.16776 11.5474 6.34552
H 1.65345 12.3388 5.97424
H 1.23821 11.551 7.34304
O -3.91748 12.1669 7.16443
H -3.41347 12.876 6.67127
H -3.67425 12.1982 8.1339
O 5.65007 -0.365573 3.49199
H 5.96934 -0.59317 4.41193
H 5.88582 -1.10748 2.86429
O -7.01271 7.40161 -7.13847
H -7.06139 7.21595 -8.11989
H -6.61083 8.30514 -6.9897
O 2.45455 -7.16236 -6.76454
H 3.28736 -6.76919 -6.37484
H 1.67612 -6.94495 -6.17566
O 6.3767 -1.36161 -13.2198
H 6.98642 -0.621925 -13.5047
H 5.73436 -1.0188 -12.5343
O 5.14413 -8.30706 6.3521
H 5.00422 -9.23798 6.68947
H 5.96795 -8.278 5.78598
O -7.74487 1.02045 -7.70461
H -8.45018 1.72611 -7.77237
H -8.10137 0.157408 -8.06249
O -7.41811 8.46046 4.04167
H -6.61152 8.1143 4.52083
H -7.15004 8.80003 3.1401
O -13.0505 14.2026 -4.67988
H -13.5169 13.3711 -4.98197
H -12.0772 14.1374 -4.89963
O -13.1817 5.43327 -14.0089
H -13.4451 4.83073 -14.7622
H -13.8382 5.33787 -13.2606
O 1.9734 12.5928 -12.5886
H 1.89043 12.4681 -11.5999
H 2.43134 13.4614 -12.7777
O -14.0422 3.97981 -6.59851
H -14.2421 3.62055 -5.68693
H -14.8916 4.28111 -7.03169
O -12.921 -6.70436 -4.11038
H -12.9347 -6.37379 -3.16669
H -12.6627 -5.95644 -4.72185
O 5.78233 -5.31639 -2.71034
H 5.83204 -4.37536 -2.37566
H 6.53433 -5.48355 -3.34796
O 12.6766 -0.889546 12.5308
H 12.9518 -1.84157 12.3969
H 11.9575 -0.84482 13.2243
O 13.9953 -6.49769 -7.00495
H 14.6406 -7.03196 -7.55101
H 13.7254 -7.02395 -6.19859
O 12.7876 -5.37853 -3.68602
H 12.2785 -6.23811 -3.64205
H 13.6041 -5.44499 -3.11242
O 4.07332 12.8101 1.2622
H 3.8767 13.2912 0.407837
H 3.62347 11.917 1.25301
O -7.90663 -6.95715 13.9466
H -7.76534 -7.36489 13.0444
H -8.84187 -6.60927 14.0123
O 3.69317 -14.0936 -12.2884
H 3.88302 -13.9221 -11.3217
H 3.36644 -13.2519 -12.7184
O 4.66765 9.64027 10.8839
H 4.90575 9.47835 9.92621
H 3.79279 9.20127 11.0886
O -6.42536 -4.84278 4.45566
H -6.08433 -4.00378 4.03164
H -5.86793 -5.06193 5.25645
O 14.1926 -8.101 11.5605
H 13.3678 -8.64889 11.4207
H 14.0023 -7.37455 12.2208
O 9.69675 14.6023 11.4526
H 9.12847 13.7795 11.4439
H 9.25301 -14.7212 12.0049
O 6.40338 -3.77246 -5.46382
H 7.02062 -3.23547 -6.03885
H 6.80486 -4.67238 -5.29359
O 4.59982 -1.70293 9.52671
H 5.23644 -1.51442 8.77892
H 3.95679 -2.41526 9.24544
O -10.2035 10.3363 -0.578554
H -10.8519 11.0692 -0.784343
H -10.6804 9.58998 -0.11427
O 5.45771 4.31537 -7.68703
H 6.24239 3.87649 -8.12483
H 5.74914 4.74165 -6.83066
O 11.0167 6.61568 -13.3519
H 11.7772 6.66778 -13.9992
H 10.5082 5.76796 -13.5027
O -4.70849 -11.0518 7.86864
H -5.32211 -11.8117 7.6541
H -4.39123 -11.1361 8.81324
O 7.75493 -14.7782 -2.92023
H 8.29091 -14.1073 -2.40771
H 8.372 14.6119 -3.37937
O 8.27155 13.6992 7.70389
H 7.66216 14.4878 7.78642
H 9.22181 14.0107 7.70546
O 2.7195 -13.5636 11.3531
H 3.14656 -13.7758 12.2321
H 1.97457 -14.2081 11.1803
O -0.946309 12.6118 10.3819
H -1.4417 11.8878 9.90183
H -0.731867 12.3095 11.3107
O -3.7692 12.9333 -7.54342
H -3.80858 12.0392 -7.98959
H -2.95246 12.9832 -6.96859
O 9.3434 10.2321 3.72658
H 8.92757 10.0827 4.62367
H 9.71443 11.1596 3.68152
O 6.21146 3.03819 -11.1644