LAMMPS data file via write_data, version 15 May 2015, timestep = 18500000

2593 atoms
6 atom types
1728 bonds
4 bond types
864 angles
3 angle types
0 dihedrals
3 dihedral types
0 impropers
1 improper types

-1.5023820509087383e+01 1.5023820509087383e+01 xlo xhi
-1.5023820509087383e+01 1.5023820509087383e+01 ylo yhi
-1.5023820509087383e+01 1.5023820509087383e+01 zlo zhi

Masses

1 15.9994
2 1.00794
3 12.0107
4 1.00794
5 12.0107
6 12.0107

Bond Coeffs # harmonic

1 1000 1
2 469 1.4
3 367 1.08
4 469 0.7

Angle Coeffs # harmonic

1 100 109.47
2 35 120
3 63 120

Dihedral Coeffs # opls

1 0 7.25 0 0
2 0 7.25 0 0
3 0 7.25 0 0

Improper Coeffs # cvff

1 2.5 -1 2

Atoms # full

1549 517 1 -8.1999999999999995e-01 -1.0506259735384253e+01 -8.9340968962066771e+00 -1.0423966047883443e+01 -5 8 2
1241 414 2 4.0999999999999998e-01 -1.0355449321814916e+01 -8.7954523531459063e+00 -1.3310334180254213e+01 -2 11 3
1242 414 2 4.0999999999999998e-01 -9.6151787326091949e+00 -7.4140643833635007e+00 -1.3768887343321691e+01 -2 11 3
1240 414 1 -8.1999999999999995e-01 -9.8634812518607049e+00 -8.3402870283920656e+00 -1.4052456891103114e+01 -2 11 3
182 61 2 4.0999999999999998e-01 -8.1874514944419197e+00 -6.3980622123992887e+00 -1.1547792630947532e+01 0 3 -5
2564 855 2 4.0999999999999998e-01 -1.0805178593107392e+01 -1.2433768089996711e+01 -1.0542913030411096e+01 2 8 -1
2563 855 1 -8.1999999999999995e-01 -1.1356698318969556e+01 -1.2370567190411840e+01 -9.7111763644139781e+00 2 8 -1
1551 517 2 4.0999999999999998e-01 -9.5508895115032892e+00 -9.2263590816245351e+00 -1.0466449205254770e+01 -5 8 2
1550 517 2 4.0999999999999998e-01 -1.0548231137318149e+01 -7.9355060892481362e+00 -1.0392200804481160e+01 -5 8 2
767 256 2 4.0999999999999998e-01 -1.2179640721480753e+01 -9.4738570567709850e+00 -9.6933761485808354e+00 4 6 2
1816 606 1 -8.1999999999999995e-01 -9.9618425664446075e+00 -1.2493556974927511e+01 -1.2122531458228753e+01 1 10 -1
1675 559 1 -8.1999999999999995e-01 -1.2983890415881602e+01 -1.4812789230548111e+01 -1.3943625256386815e+01 -1 4 3
766 256 1 -8.1999999999999995e-01 -1.2897101143412593e+01 -1.0168770827415120e+01 -9.7413313309947682e+00 4 6 2
2031 677 2 4.0999999999999998e-01 -1.1294534887095661e+01 -1.1379821990974756e+01 -1.2351142897554023e+01 1 6 2
1676 559 2 4.0999999999999998e-01 -1.3745272129484011e+01 -1.4409078094862403e+01 -1.3436407851223972e+01 -1 4 3
1817 606 2 4.0999999999999998e-01 -9.8410598085277385e+00 -1.3325632582374556e+01 -1.2663841015675283e+01 1 10 -1
278 93 2 4.0999999999999998e-01 -9.1335145645715130e+00 -5.3870082913059889e+00 -9.5276672287612989e+00 4 8 0
989 330 2 4.0999999999999998e-01 -1.2858883199669521e+01 -1.0511773985663069e+01 -1.4087619982100465e+01 -2 8 1
2029 677 1 -8.1999999999999995e-01 -1.1950678140372970e+01 -1.0646968490105611e+01 -1.2531020862309827e+01 1 6 2
1818 606 2 4.0999999999999998e-01 -9.1708356038916286e+00 -1.1895222669722003e+01 -1.2250039586847635e+01 1 10 -1
279 93 2 4.0999999999999998e-01 -8.1487455855174229e+00 -6.5536569827928961e+00 -8.9483008612332391e+00 4 8 0
2030 677 2 4.0999999999999998e-01 -1.2171509090295963e+01 -1.0179761067004227e+01 -1.1674922024885699e+01 1 6 2
285 95 2 4.0999999999999998e-01 -1.1337300234520391e+01 -1.3850118972492936e+01 -8.6882010299841692e+00 4 10 2
988 330 1 -8.1999999999999995e-01 -1.3185252180762415e+01 -1.0096289726055925e+01 -1.4936625535960612e+01 -2 8 1
2312 771 2 4.0999999999999998e-01 -9.9861809095848812e+00 -1.1946569751734000e+01 -8.0446957059839690e+00 0 5 -4
2203 735 1 -8.1999999999999995e-01 -1.0225616534280853e+01 -1.4809840915016030e+01 -1.3580422662792571e+01 -3 5 5
2565 855 2 4.0999999999999998e-01 -1.1878748773627649e+01 -1.1517740963224510e+01 -9.7214230257813163e+00 2 8 -1
990 330 2 4.0999999999999998e-01 -1.3268333737576670e+01 -9.1074261886250802e+00 -1.4813334811800015e+01 -2 8 1
252 84 2 4.0999999999999998e-01 -8.7878505890638898e+00 -1.0116159072710330e+01 -1.4270527646529318e+01 0 6 2
768 256 2 4.0999999999999998e-01 -1.3554102108312902e+01 -1.0021093278613645e+01 -9.0020780839115933e+00 4 6 2
1253 418 2 4.0999999999999998e-01 -1.4420069766993025e+01 -1.0581033073739317e+01 -1.1127032469377344e+01 4 5 -2
420 140 2 4.0999999999999998e-01 -1.0103632715925109e+01 -5.1097508337022077e+00 -1.4206323061173883e+01 5 2 -2
1760 587 2 4.0999999999999998e-01 -1.2125478533910583e+01 -7.0286083978839073e+00 -9.0833691544917876e+00 4 9 4
277 93 1 -8.1999999999999995e-01 -8.3656836021194607e+00 -5.9896257368283319e+00 -9.7450197179575877e+00 4 8 0
250 84 1 -8.1999999999999995e-01 -8.1694680972478722e+00 -1.0581042293154104e+01 -1.3636933969870560e+01 0 6 2
227 76 2 4.0999999999999998e-01 -7.8594498631830323e+00 -1.2636907584813583e+01 -1.0498437406149614e+01 6 9 -4
1750 584 1 -8.1999999999999995e-01 -1.2960919104085328e+01 -5.7673161264772617e+00 -1.1960826991368682e+01 4 5 2
1761 587 2 4.0999999999999998e-01 -1.1545406601542854e+01 -5.5302498740372847e+00 -9.3748188677941773e+00 4 9 4
2145 715 2 4.0999999999999998e-01 -1.3453039676391677e+01 -6.8128590292804354e+00 -7.8953746343450337e+00 -2 9 2
181 61 1 -8.1999999999999995e-01 -8.1769684018385416e+00 -6.4079538942863081e+00 -1.2547665908415039e+01 0 3 -5
418 140 1 -8.1999999999999995e-01 -1.0407708008412609e+01 -5.0694352160438054e+00 -1.3254552524748515e+01 5 2 -2
1883 628 2 4.0999999999999998e-01 -8.8743496937999637e+00 -1.4242617343608694e+01 -1.4310549286539391e+01 -2 8 2
1552 518 1 -8.1999999999999995e-01 -8.0782057779713785e+00 -1.0011045318624793e+01 -1.0862463835554081e+01 4 0 5
367 123 1 -8.1999999999999995e-01 -7.6985607308376940e+00 -7.4484925212482009e+00 -7.5701945583833039e+00 6 8 2
1751 584 2 4.0999999999999998e-01 -1.2685807503649476e+01 -6.0514676629960764e+00 -1.1042390379968378e+01 4 5 2
283 95 1 -8.1999999999999995e-01 -1.1366103682335531e+01 -1.4364721944318285e+01 -7.8312830567476945e+00 4 10 2
1882 628 1 -8.1999999999999995e-01 -7.9191747210280559e+00 -1.3981866387892513e+01 -1.4450563729820450e+01 -2 8 2
1553 518 2 4.0999999999999998e-01 -8.2929907544375840e+00 -1.0174336706953362e+01 -1.1825354069091256e+01 4 0 5
1759 587 1 -8.1999999999999995e-01 -1.1625043486097141e+01 -6.4594262244521481e+00 -9.7357116339118779e+00 4 9 4
970 324 1 -8.1999999999999995e-01 -1.4403370003803179e+01 -5.4111686550179741e+00 -7.9995386283322416e+00 2 7 0
1752 584 2 4.0999999999999998e-01 -1.2172117238590225e+01 -5.8119525123212110e+00 -1.2573814331670794e+01 4 5 2
1230 410 2 4.0999999999999998e-01 -1.4827361882011374e+01 -1.2749042284189997e+01 -9.9311768770200644e+00 2 6 5
2205 735 2 4.0999999999999998e-01 -1.1214784061654093e+01 -1.4736907698814376e+01 -1.3707633774507466e+01 -3 5 5
419 140 2 4.0999999999999998e-01 -9.7087934126976094e+00 -5.4728025231614055e+00 -1.2663987168253827e+01 5 2 -2
2143 715 1 -8.1999999999999995e-01 -1.2876322531183991e+01 -7.6007578815807424e+00 -7.6795806974542948e+00 -2 9 2
2311 771 1 -8.1999999999999995e-01 -9.6009602799828784e+00 -1.1157279422715462e+01 -7.5665951681553416e+00 0 5 -4
2144 715 2 4.0999999999999998e-01 -1.3453168492734338e+01 -8.4005057938049639e+00 -7.5134294554699750e+00 -2 9 2
228 76 2 4.0999999999999998e-01 -7.3737536238178043e+00 -1.2591102029530772e+01 -8.9400711178423879e+00 6 9 -4
2585 862 2 4.0999999999999998e-01 -4.9295555680754415e+00 -1.4116386838115035e+01 -1.1803801422917477e+01 2 11 3
2552 851 2 4.0999999999999998e-01 -3.5892245308117836e+00 -1.4808967842721325e+01 -1.3860357625265836e+01 8 11 0
1505 502 2 4.0999999999999998e-01 -1.8617529028204398e+00 -6.4121003647116428e+00 -1.4331922139992166e+01 3 3 1
2586 862 2 4.0999999999999998e-01 -4.9919261869938314e+00 -1.3243376487391149e+01 -1.3182375755876009e+01 2 11 3
1504 502 1 -8.1999999999999995e-01 -9.3583617265655583e-01 -6.1838906954163964e+00 -1.4632842134423177e+01 3 3 1
516 172 2 4.0999999999999998e-01 -2.5352742128851027e+00 -1.0618680672548258e+01 -9.7305210869108585e+00 -3 9 4
1747 583 1 -8.1999999999999995e-01 -5.8323306823460097e+00 -1.4696526906866881e+01 -1.0200104743760217e+01 1 -1 -2
226 76 1 -8.1999999999999995e-01 -7.1473016067796387e+00 -1.2315594503818938e+01 -9.8742923732648382e+00 6 9 -4
251 84 2 4.0999999999999998e-01 -7.2506242136964101e+00 -1.0611866888947125e+01 -1.4030291395684426e+01 0 6 2
868 290 1 -8.1999999999999995e-01 -2.7331263048394536e+00 -7.2328416151418775e+00 -9.1860182723110064e+00 5 1 6
2327 776 2 4.0999999999999998e-01 -3.6722172590105497e+00 -5.2370057739854285e+00 -1.3913218938681633e+01 -2 8 4
1506 502 2 4.0999999999999998e-01 -2.8543209062632080e-01 -6.4035052292521222e+00 -1.3905725701124545e+01 3 3 1
1152 384 2 4.0999999999999998e-01 -1.4229430726486960e+00 -1.4150592010326443e+01 -8.1894045159808293e+00 -1 5 3
1118 373 2 4.0999999999999998e-01 -4.2433280874037393e-01 -7.0753501690700125e+00 -9.3084864901442721e+00 0 9 2
151 51 1 -8.1999999999999995e-01 -2.1131759671427677e+00 -5.1617093594895120e+00 -1.1073127983046618e+01 -6 14 -3
2584 862 1 -8.1999999999999995e-01 -4.4177411653314156e+00 -1.3833573014418672e+01 -1.2614983601768419e+01 2 11 3
1613 538 2 4.0999999999999998e-01 -3.8530969080544040e+00 -1.1156104688208767e+01 -1.3635240515395395e+01 3 9 -4
2326 776 1 -8.1999999999999995e-01 -3.3890248386905277e+00 -6.0050830619547231e+00 -1.3338924903722909e+01 -2 8 4
1371 457 2 4.0999999999999998e-01 -4.5979552779703869e+00 -1.3317465600261706e+01 -8.7154488766463949e+00 2 1 -5
1554 518 2 4.0999999999999998e-01 -7.4042497825834070e+00 -1.0681799504956214e+01 -1.0552905448839791e+01 4 0 5
153 51 2 4.0999999999999998e-01 -2.4034250642806168e+00 -5.6997566116016554e+00 -1.0281790593261203e+01 -6 14 -3
183 61 2 4.0999999999999998e-01 -7.2308502945724067e+00 -6.4261194230168659e+00 -1.2870906966933735e+01 0 3 -5
1369 457 1 -8.1999999999999995e-01 -4.6919569924454834e+00 -1.3274617010989456e+01 -7.7208223254939918e+00 2 1 -5
2328 776 2 4.0999999999999998e-01 -4.1253185851851573e+00 -6.6805228303017561e+00 -1.3298839494794915e+01 -2 8 4
870 290 2 4.0999999999999998e-01 -2.9555992429659526e+00 -7.0960462637718322e+00 -8.2207478095807716e+00 5 1 6
2407 803 1 -8.1999999999999995e-01 -6.0284300403445865e+00 -7.8002921512808108e+00 -1.1161065572659229e+01 2 4 3
2547 849 2 4.0999999999999998e-01 -2.2498626110583508e-01 -1.0527720824538143e+01 -9.4159756164378443e+00 3 4 7
514 172 1 -8.1999999999999995e-01 -2.2129926301549485e+00 -1.0014827415931732e+01 -9.0015148590132625e+00 -3 9 4
1151 384 2 4.0999999999999998e-01 -8.4487027937166737e-01 -1.4335127575197433e+01 -9.7054133007681429e+00 -1 5 3
82 28 1 -8.1999999999999995e-01 -6.1044001785053936e+00 -1.2087546615133217e+01 -1.4798683634679387e+01 5 9 0
1083 361 2 4.0999999999999998e-01 -2.2970872864472032e+00 -1.2802220061778595e+01 -1.0116173790532713e+01 -3 5 4
1614 538 2 4.0999999999999998e-01 -3.0482456899792787e+00 -1.1022420825341733e+01 -1.2220727393833679e+01 3 9 -4
2409 803 2 4.0999999999999998e-01 -6.6558683826914606e+00 -8.5462767501059211e+00 -1.0937946284597313e+01 2 4 3
1082 361 2 4.0999999999999998e-01 -3.2835780841691502e+00 -1.3034160180626330e+01 -1.1396620702310340e+01 -3 5 4
869 290 2 4.0999999999999998e-01 -2.5699413977974768e+00 -8.2046646890701034e+00 -9.3559736709574679e+00 5 1 6
515 172 2 4.0999999999999998e-01 -2.3269190662904240e+00 -1.0468859631412439e+01 -8.1178691317554730e+00 -3 9 4
1052 351 2 4.0999999999999998e-01 -1.2632442980157137e+00 -1.4706487311265288e+01 -1.4773959184799285e+01 -2 2 -5
1143 381 2 4.0999999999999998e-01 -4.2956513018695315e+00 -9.0282502137301819e+00 -1.3853037100571411e+01 1 1 -1
1150 384 1 -8.1999999999999995e-01 -1.3034675309398054e+00 -1.3706490907428186e+01 -9.0773537952120478e+00 -1 5 3
1141 381 1 -8.1999999999999995e-01 -5.0839745043773839e+00 -8.4326708280780611e+00 -1.3698809863776038e+01 1 1 -1
1612 538 1 -8.1999999999999995e-01 -3.2940754056401040e+00 -1.0551465602051437e+01 -1.3067912740318132e+01 3 9 -4
2408 803 2 4.0999999999999998e-01 -6.2356781469031510e+00 -7.0076895458024158e+00 -1.0587669177080841e+01 2 4 3
1081 361 1 -8.1999999999999995e-01 -2.7913934288131532e+00 -1.2349947460667984e+01 -1.0858511490172443e+01 -3 5 4
84 28 2 4.0999999999999998e-01 -6.8735608073754424e+00 -1.2690265067731431e+01 -1.4586371177547150e+01 5 9 0
38 13 2 4.0999999999999998e-01 -7.9954723530116922e-01 -1.0225796246614802e+01 -1.3825612152530056e+01 1 5 -5
1142 381 2 4.0999999999999998e-01 -5.2286156005219642e+00 -8.3190301840271790e+00 -1.2715896298132515e+01 1 1 -1
582 194 2 4.0999999999999998e-01 -6.5158835351866600e+00 -1.0320699313662290e+01 -8.3703991899362364e+00 6 0 -4
1749 583 2 4.0999999999999998e-01 -6.7511537428665793e+00 -1.4365182652181206e+01 -9.9857935105423010e+00 1 -1 -2
152 51 2 4.0999999999999998e-01 -2.6120723961520920e+00 -5.4663734981026355e+00 -1.1884445659364104e+01 -6 14 -3
2478 826 2 4.0999999999999998e-01 -4.5589561087685535e+00 -5.3271503438372250e+00 -7.6939548848472787e+00 5 6 -2
1884 628 2 4.0999999999999998e-01 -7.3726361389030428e+00 -1.4800466933337516e+01 -1.4627037567173602e+01 -2 8 2
368 123 2 4.0999999999999998e-01 -7.1811984198019907e+00 -8.3030037663771559e+00 -7.5243573003343469e+00 6 8 2
910 304 1 -8.1999999999999995e-01 -9.3055636313046968e+00 -1.0351265248674498e+01 -1.5561135145666931e+00 4 6 -3
912 304 2 4.0999999999999998e-01 -9.9403891454354252e+00 -9.9995696020339544e+00 -2.2440532192051634e+00 4 6 -3
1319 440 2 4.0999999999999998e-01 -1.0379314170299583e+01 -1.4957627526013532e+01 -3.4631368530172768e+00 5 0 7
2209 737 1 -8.1999999999999995e-01 -1.0390544247392906e+01 -8.8337763855636577e+00 -3.6185110045184636e+00 3 9 0
2313 771 2 4.0999999999999998e-01 -1.0290313383214704e+01 -1.0768986675962850e+01 -6.9550599492042373e+00 0 5 -4
584 195 2 4.0999999999999998e-01 -1.2477554554238884e+01 -1.0484633393486831e+01 -6.1398803613386796e+00 -2 5 -2
2211 737 2 4.0999999999999998e-01 -9.4965048673908505e+00 -8.8673051306399095e+00 -4.0651917692490009e+00 3 9 0
241 81 1 -8.1999999999999995e-01 -1.1745843909051064e+01 -6.9354970078300706e+00 -4.9422221293787061e+00 4 4 -2
2210 737 2 4.0999999999999998e-01 -1.0997089836893565e+01 -8.2267611768885143e+00 -4.1319204655475605e+00 3 9 0
585 195 2 4.0999999999999998e-01 -1.1512872301632196e+01 -1.0034311916488464e+01 -4.9016948471012931e+00 -2 5 -2
583 195 1 -8.1999999999999995e-01 -1.1529469408864520e+01 -1.0386374825739729e+01 -5.8374996091483666e+00 -2 5 -2
242 81 2 4.0999999999999998e-01 -1.1935228859285131e+01 -7.0626356959944321e+00 -5.9158355843015364e+00 4 4 -2
1569 523 2 4.0999999999999998e-01 -1.1540088714065204e+01 -1.3480652697993532e+01 -4.9321394882883158e+00 -1 5 -1
1568 523 2 4.0999999999999998e-01 -1.0630352483829810e+01 -1.2127102530083855e+01 -4.8497620568462843e+00 -1 5 -1
1567 523 1 -8.1999999999999995e-01 -1.0778275163791864e+01 -1.3036360646067266e+01 -4.4607597942245132e+00 -1 5 -1
1374 458 2 4.0999999999999998e-01 -8.9750324405805060e+00 -1.3254326234909810e+01 -6.7626601525593522e-01 3 5 0
2160 720 2 4.0999999999999998e-01 -1.4199155344998026e+01 -1.4061505084822601e+01 -6.1493834390138975e+00 8 5 2
2127 709 2 4.0999999999999998e-01 -9.5630609853740296e+00 -1.2960538085933109e+01 -3.0902117537413023e+00 12 13 -2
1292 431 2 4.0999999999999998e-01 -1.4408141028404740e+01 -1.3399744797928841e+01 -9.8524123360517102e-01 5 -1 0
2158 720 1 -8.1999999999999995e-01 -1.3276523675398803e+01 -1.3851976308903936e+01 -5.8256509646593475e+00 8 5 2
199 67 1 -8.1999999999999995e-01 -1.4233475889041477e+01 -1.4249312284981832e+01 -2.9366606171466980e+00 1 -3 -2
2530 844 1 -8.1999999999999995e-01 -7.8737238797333422e+00 -8.5765258877214166e+00 -4.8306706294859367e+00 -4 4 2
559 187 1 -8.1999999999999995e-01 -9.0585725438486833e+00 -6.0070104151365804e+00 -3.9194247667513284e+00 4 5 1
2532 844 2 4.0999999999999998e-01 -7.8174727235466817e+00 -8.3875586411152732e+00 -5.8110182245286133e+00 -4 4 2
2126 709 2 4.0999999999999998e-01 -8.0790757552391845e+00 -1.3459779662672126e+01 -2.6264765674811503e+00 12 13 -2
911 304 2 4.0999999999999998e-01 -9.1694371377607542e+00 -1.1331655334368261e+01 -1.6984479607836711e+00 4 6 -3
2125 709 1 -8.1999999999999995e-01 -8.8972682411980237e+00 -1.2958997368091183e+01 -2.3441072674413963e+00 12 13 -2
200 67 2 4.0999999999999998e-01 -1.3912249344858434e+01 -1.4451664441382658e+01 -3.8617667518814134e+00 1 -3 -2
561 187 2 4.0999999999999998e-01 -9.9269815182502583e+00 -6.3933261737006220e+00 -4.2301983160358407e+00 4 5 1
1701 567 2 4.0999999999999998e-01 -7.8068037506199497e+00 -1.3416601567569142e+01 -6.4854900972235789e+00 -2 6 3
2159 720 2 4.0999999999999998e-01 -1.2645643392242683e+01 -1.3840668770324516e+01 -6.6014192913648593e+00 8 5 2
544 182 1 -8.1999999999999995e-01 -1.4776679428476351e+01 -9.5690553651405281e+00 -7.0975876044382211e+00 4 3 0
1353 451 2 4.0999999999999998e-01 -7.9534473389127633e+00 -9.4407271337073730e+00 -1.2191655371587178e+00 6 8 -3
243 81 2 4.0999999999999998e-01 -1.2486953016095798e+01 -6.4100523772925708e+00 -4.5243473380388970e+00 4 4 -2
1049 350 2 4.0999999999999998e-01 -1.4703441217900220e+01 -7.7782645492582221e+00 -1.9578612851514166e-01 -4 4 -1
1291 431 1 -8.1999999999999995e-01 -1.4458723604719054e+01 -1.3086187030194209e+01 -3.7044440361045261e-02 5 -1 0
924 308 2 4.0999999999999998e-01 -1.3814679280573701e+01 -1.1453841401143285e+01 -3.8858350193150493e-01 4 10 -1
581 194 2 4.0999999999999998e-01 -7.8841849355098637e+00 -1.0224010199864122e+01 -7.4844494989282957e+00 6 0 -4
664 222 1 -8.1999999999999995e-01 -1.4276472182636775e+01 -5.7114980808850007e+00 -3.5849721776261188e+00 8 5 1
666 222 2 4.0999999999999998e-01 -1.4115077191882422e+01 -6.2025312461931783e+00 -2.7289394241124896e+00 8 5 1
560 187 2 4.0999999999999998e-01 -9.2206109812329515e+00 -5.4151796168033535e+00 -3.1298464668202577e+00 4 5 1
923 308 2 4.0999999999999998e-01 -1.2538251252495771e+01 -1.0505866023339880e+01 -1.6321841299276940e-02 4 10 -1
972 324 2 4.0999999999999998e-01 -1.4813370289237108e+01 -5.7543174135577502e+00 -7.1544925763187814e+00 2 7 0
195 65 2 4.0999999999999998e-01 -2.6546140774627709e+00 -5.2379543166851938e+00 -1.2789931954082370e+00 2 3 -6
2364 788 2 4.0999999999999998e-01 -4.7867983814135560e+00 -1.4761079714701486e+01 -4.9142169364173540e+00 3 12 0
619 207 1 -8.1999999999999995e-01 -1.4477113668834711e+00 -8.0469186148207239e+00 -9.8264002567857389e-02 -3 9 2
1290 430 2 4.0999999999999998e-01 -7.4579050635678454e+00 -5.7582380992968272e+00 -1.2251410446743094e-01 3 9 1
856 286 1 -8.1999999999999995e-01 -7.0109233703242086e+00 -6.3636027027256805e+00 -1.8435843551173914e+00 0 3 1
858 286 2 4.0999999999999998e-01 -7.5000024859900112e+00 -6.2122852572091372e+00 -2.7025715271526085e+00 0 3 1
2531 844 2 4.0999999999999998e-01 -7.4686070392660735e+00 -7.8174460659388263e+00 -4.3211293863657385e+00 -4 4 2
1976 659 2 4.0999999999999998e-01 -3.5138793567028870e-01 -5.8438107229882199e+00 -6.0883214754450670e+00 -4 6 2
193 65 1 -8.1999999999999995e-01 -3.6522098347868113e+00 -5.2822996919417644e+00 -1.2261690644422103e+00 2 3 -6
1044 348 2 4.0999999999999998e-01 -2.3824544197320510e+00 -5.3791030017877404e+00 -4.1656591425934870e+00 2 7 -6
1365 455 2 4.0999999999999998e-01 -3.3604264782785798e-01 -1.4006322426626911e+01 -6.4549793609954751e+00 -1 5 -2
580 194 1 -8.1999999999999995e-01 -6.8852119844403585e+00 -1.0195929987439285e+01 -7.4495390541967890e+00 6 0 -4
369 123 2 4.0999999999999998e-01 -7.1397622938165641e+00 -6.7008750322339967e+00 -7.2113537815530302e+00 6 8 2
938 313 2 4.0999999999999998e-01 -3.0703264861941992e+00 -1.2356599680295735e+01 -7.3467898330006056e+00 2 4 3
355 119 1 -8.1999999999999995e-01 -3.8910635164427934e+00 -6.6905279146158030e+00 -6.6970480292463730e+00 4 5 -5
1087 363 1 -8.1999999999999995e-01 -7.0516848710398046e+00 -5.0084122456092892e+00 -6.3030084509783251e+00 5 3 2
1664 555 2 4.0999999999999998e-01 -5.1335862335658256e-01 -6.6316246488810258e+00 -2.8008555228332828e+00 10 4 5
1699 567 1 -8.1999999999999995e-01 -7.3615564457285148e+00 -1.2968694177422641e+01 -7.2607888127834199e+00 -2 6 3
1042 348 1 -8.1999999999999995e-01 -3.3295662508904176e+00 -5.6885550704524235e+00 -4.0809662832395990e+00 2 7 -6
937 313 1 -8.1999999999999995e-01 -2.4562610750090457e+00 -1.1804408396749860e+01 -6.7829079993988355e+00 2 4 3
857 286 2 4.0999999999999998e-01 -6.0299412237734131e+00 -6.2388608557540479e+00 -1.9921363401894148e+00 0 3 1
1914 638 2 4.0999999999999998e-01 -4.0008995505426146e+00 -1.0868532108165734e+01 -6.3335865213584697e-02 3 3 1
1665 555 2 4.0999999999999998e-01 -1.2307145338900938e-01 -8.1308720782981183e+00 -3.3170311921590532e+00 10 4 5
1236 412 2 4.0999999999999998e-01 -3.7703111705533594e+00 -1.0288275877829216e+01 -6.4530343506219712e+00 1 9 0
356 119 2 4.0999999999999998e-01 -4.3779857684591850e+00 -7.5484242121619891e+00 -6.8609838926409754e+00 4 5 -5
6 2 2 4.0999999999999998e-01 -5.0446149890602037e+00 -6.7587164390500138e+00 -4.4521860558040540e+00 4 6 -3
1185 395 2 4.0999999999999998e-01 -1.2296746265632024e+00 -1.1476797056745045e+01 -3.4731012674481985e+00 4 2 -3
562 188 1 -8.1999999999999995e-01 -4.5699730770998048e+00 -1.0003672737426720e+01 -1.4303617714226071e+00 3 7 3
1352 451 2 4.0999999999999998e-01 -7.2331805373194866e+00 -7.9872679613244495e+00 -1.4067204463766654e+00 6 8 -3
357 119 2 4.0999999999999998e-01 -3.5452897742173342e+00 -6.6775568562320871e+00 -5.7588441313854020e+00 4 5 -5
1235 412 2 4.0999999999999998e-01 -5.0818005560391555e+00 -9.7636957632822607e+00 -5.6336956780641660e+00 1 9 0
1351 451 1 -8.1999999999999995e-01 -7.1327860728802861e+00 -8.9046126741046798e+00 -1.0215530057360027e+00 6 8 -3
428 143 2 4.0999999999999998e-01 -3.6463287301911684e+00 -1.2665379226004047e+01 -3.4251377950526827e+00 5 5 1
939 313 2 4.0999999999999998e-01 -1.8048538819327202e+00 -1.2402242558741769e+01 -6.3157707987159881e+00 2 4 3
1043 348 2 4.0999999999999998e-01 -3.5924026499294897e+00 -5.6971273272164140e+00 -3.1161876900277363e+00 2 7 -6
1606 536 1 -8.1999999999999995e-01 -6.0324753273704044e+00 -1.0558594604660996e+01 -4.0370359603317176e+00 -1 5 -1
429 143 2 4.0999999999999998e-01 -5.0722733100598916e+00 -1.2181210029023886e+01 -4.0566176810600947e+00 5 5 1
5 2 2 4.0999999999999998e-01 -6.4206364132901790e+00 -6.1386933227551204e+00 -5.0755966012195728e+00 4 6 -3
1234 412 1 -8.1999999999999995e-01 -4.2163971832418063e+00 -9.4881248467936885e+00 -6.0521354833299501e+00 1 9 0
1184 395 2 4.0999999999999998e-01 -2.5594051259511588e+00 -1.0537176551977520e+01 -3.5973375515982937e+00 4 2 -3
1608 536 2 4.0999999999999998e-01 -5.8112171782188522e+00 -1.0424625731772556e+01 -3.0710900793895011e+00 -1 5 -1
1008 336 2 4.0999999999999998e-01 -5.7732989085413156e+00 -1.4410011092353042e+01 -3.0683355871308997e+00 5 8 -2
1832 611 2 4.0999999999999998e-01 -1.6115737660485987e+00 -1.3957781717849034e+01 -9.2391206712183660e-01 -4 6 3
2363 788 2 4.0999999999999998e-01 -4.4916163508257050e+00 -1.4665460063059438e+01 -6.5174101522211529e+00 3 12 0
1831 611 1 -8.1999999999999995e-01 -1.6828374432181281e+00 -1.4079401446209765e+01 -1.9139041114502024e+00 -4 6 3
564 188 2 4.0999999999999998e-01 -4.0391467762473887e+00 -9.3334370333821255e+00 -1.9489769558818981e+00 3 7 3
1183 395 1 -8.1999999999999995e-01 -2.2061425372286614e+00 -1.1412541773507376e+01 -3.2673442654416736e+00 4 2 -3
1833 611 2 4.0999999999999998e-01 -1.6973979915596722e+00 -1.3184303977278461e+01 -2.3594853437256145e+00 -4 6 3
1317 439 2 4.0999999999999998e-01 -2.3374888291759426e+00 -8.2483746908030575e+00 -3.3880805437884831e+00 3 5 -4
1316 439 2 4.0999999999999998e-01 -3.5796328296164877e+00 -8.6129520741587804e+00 -4.3834027128122592e+00 3 5 -4
1006 336 1 -8.1999999999999995e-01 -6.7538893190266140e+00 -1.4581616897245079e+01 -2.9737411354394183e+00 5 8 -2
563 188 2 4.0999999999999998e-01 -5.4706859053941770e+00 -9.6241376215440102e+00 -1.2191186599077302e+00 3 7 3
1663 555 1 -8.1999999999999995e-01 -8.6298275920454337e-01 -7.5524033940770137e+00 -2.9737245953115750e+00 10 4 5
1700 567 2 4.0999999999999998e-01 -7.1651415072953988e+00 -1.2016311653932656e+01 -7.0276730411359019e+00 -2 6 3
427 143 1 -8.1999999999999995e-01 -4.5063902541281902e+00 -1.2974241290575311e+01 -3.8311582391671894e+00 5 5 1
4 2 1 -8.1999999999999995e-01 -6.0432399366385656e+00 -6.7750084938437940e+00 -4.4028194635962770e+00 4 6 -3
1315 439 1 -8.1999999999999995e-01 -3.1913806138537524e+00 -8.7616479876130171e+00 -3.4739501064422562e+00 3 5 -4
620 207 2 4.0999999999999998e-01 -1.5408832048091767e+00 -8.0999461452352808e+00 -1.0924778669774096e+00 -3 9 2
1607 536 2 4.0999999999999998e-01 -6.5569099271064015e+00 -9.7752332467141478e+00 -4.3706039370554652e+00 -1 5 -1
1370 457 2 4.0999999999999998e-01 -5.6613435516267412e+00 -1.3231465118360084e+01 -7.4791989514144026e+00 2 1 -5
318 106 2 4.0999999999999998e-01 -1.0063363357842967e+01 -1.1197338875721551e+01 3.8407290866415771e+00 1 10 0
775 259 1 -8.1999999999999995e-01 -1.2509385648945994e+01 -9.9350400986472671e+00 5.6859284231992788e+00 2 3 -2
779 260 2 4.0999999999999998e-01 -8.7057130554153499e+00 -9.2430366734246263e+00 6.0238073148131548e+00 9 11 0
777 259 2 4.0999999999999998e-01 -1.1937471739818584e+01 -1.0270256259205643e+01 4.9372639254088000e+00 2 3 -2
776 259 2 4.0999999999999998e-01 -1.2697294044408725e+01 -1.0683004856003564e+01 6.3224762654036155e+00 2 3 -2
2212 738 1 -8.1999999999999995e-01 -7.8939076668678929e+00 -1.2293712002293500e+01 4.3604737834725960e+00 2 5 4
2214 738 2 4.0999999999999998e-01 -8.2616053099860096e+00 -1.3020550727231720e+01 4.9405239679053707e+00 2 5 4
1288 430 1 -8.1999999999999995e-01 -7.9528489766550523e+00 -5.6588953811626848e+00 7.4068681557201899e-01 3 9 1
780 260 2 4.0999999999999998e-01 -8.0971948316382019e+00 -1.0494752833971866e+01 5.1697482914706576e+00 9 11 0
1906 636 1 -8.1999999999999995e-01 -1.1574753541548152e+01 -5.7065216156034300e+00 5.4532080108993171e+00 2 0 3
778 260 1 -8.1999999999999995e-01 -8.3388631193896394e+00 -9.5249601572150286e+00 5.1373003584280035e+00 9 11 0
2 1 2 4.0999999999999998e-01 -1.2919824447212688e+01 -1.1773940196501492e+01 3.9653215886334543e+00 6 9 -4
316 106 1 -8.1999999999999995e-01 -1.0937088432206007e+01 -1.0829043208518375e+01 3.5230546098285949e+00 1 10 0
2351 784 2 4.0999999999999998e-01 -1.1620458121133597e+01 -8.4993008933725100e+00 6.7334862104278379e+00 5 10 1
2072 691 2 4.0999999999999998e-01 -1.1053343174169983e+01 -7.1151720604851363e+00 1.6007712927572975e+00 3 4 0
2350 784 1 -8.1999999999999995e-01 -1.1558542545202698e+01 -7.7882048030276980e+00 7.4338169115315758e+00 5 10 1
1794 598 2 4.0999999999999998e-01 -1.3305323600796147e+01 -8.4475010141291840e+00 4.7351582491828346e+00 -1 6 0
317 106 2 4.0999999999999998e-01 -1.0872357588869139e+01 -1.0610293759114839e+01 2.5494464237653176e+00 1 10 0
1 1 1 -8.1999999999999995e-01 -1.3382196226255473e+01 -1.2468177482720435e+01 4.5168659534092583e+00 6 9 -4
2071 691 1 -8.1999999999999995e-01 -1.1768313884841714e+01 -6.5791661736615694e+00 2.0496241182853367e+00 3 4 0
2073 691 2 4.0999999999999998e-01 -1.1767298956446297e+01 -6.7768516947821471e+00 3.0298657449835922e+00 3 4 0
1792 598 1 -8.1999999999999995e-01 -1.3437974332250036e+01 -7.4858162523121674e+00 4.4953242183064219e+00 -1 6 0
406 136 1 -8.1999999999999995e-01 -9.0421955028832350e+00 -5.4187315494620822e+00 4.2021348232177971e+00 -1 10 1
1289 430 2 4.0999999999999998e-01 -7.5867584775108821e+00 -6.3043520184832751e+00 1.4109985128348406e+00 3 9 1
557 186 2 4.0999999999999998e-01 -8.6715430634878565e+00 -8.6239917507750334e+00 3.4404418962371288e+00 0 3 0
1793 598 2 4.0999999999999998e-01 -1.4411094179000992e+01 -7.2610581581376330e+00 4.5450814128472885e+00 -1 6 0
1908 636 2 4.0999999999999998e-01 -1.2356752143358225e+01 -6.1026737943104337e+00 4.9720677416058834e+00 2 0 3
556 186 1 -8.1999999999999995e-01 -8.7990334746110896e+00 -7.9348680672861072e+00 2.7271333793647976e+00 0 3 0
1731 577 2 4.0999999999999998e-01 -1.1359942263510952e+01 -1.4644743804676374e+01 7.5037313098597878e+00 3 5 1
1293 431 2 4.0999999999999998e-01 -1.4033989231305849e+01 -1.3765226425315010e+01 5.6167124699988591e-01 5 -1 0
1372 458 1 -8.1999999999999995e-01 -9.2006499078307478e+00 -1.3240408029144348e+01 2.9782706672829917e-01 3 5 0
691 231 1 -8.1999999999999995e-01 -1.3938204921831545e+01 -1.2930981196899396e+01 7.1584308156855521e+00 0 7 0
558 186 2 4.0999999999999998e-01 -8.0355214229431748e+00 -7.9769603028883704e+00 2.0827485076834655e+00 0 3 0
3 1 2 4.0999999999999998e-01 -1.2967150517666919e+01 -1.3361506268318932e+01 4.3446607620744686e+00 6 9 -4
117 39 2 4.0999999999999998e-01 -1.0265479792289350e+01 -1.4733121597941423e+01 1.9123884049968076e-01 5 6 0
1730 577 2 4.0999999999999998e-01 -1.2145556666977555e+01 -1.3271296905404881e+01 7.1000504569596075e+00 3 5 1
2284 762 1 -8.1999999999999995e-01 -8.4917746480170688e+00 -1.2432765744184415e+01 7.3635943757945519e+00 3 6 1
2398 800 1 -8.1999999999999995e-01 -1.0766238124690869e+01 -1.1003715782348863e+01 6.9413214681447677e-01 5 10 -1
2399 800 2 4.0999999999999998e-01 -1.0410508768288958e+01 -1.1937108135944808e+01 7.4092601830427718e-01 5 10 -1
2253 751 2 4.0999999999999998e-01 -1.1099495588161894e+01 -1.4895357921470914e+01 4.0459241330815559e+00 0 6 4
1907 636 2 4.0999999999999998e-01 -1.1310798935809634e+01 -6.3049343102865922e+00 6.2096368118995642e+00 2 0 3
1729 577 1 -8.1999999999999995e-01 -1.1247100170229810e+01 -1.3698941557000584e+01 7.1992989540230319e+00 3 5 1
1373 458 2 4.0999999999999998e-01 -8.4054955882403490e+00 -1.3534043127576524e+01 8.2835703707112529e-01 3 5 0
693 231 2 4.0999999999999998e-01 -1.3734371542520043e+01 -1.2772621854942948e+01 6.1923414866809772e+00 0 7 0
408 136 2 4.0999999999999998e-01 -9.9188730569371124e+00 -5.2293994408176818e+00 4.6443385298087243e+00 -1 10 1
334 112 1 -8.1999999999999995e-01 -9.0361265218061462e+00 -1.4932347309010421e+01 4.3594463627892281e+00 -1 4 -3
922 308 1 -8.1999999999999995e-01 -1.3534402409955035e+01 -1.0585299008139792e+01 2.0113331445269722e-02 4 10 -1
407 136 2 4.0999999999999998e-01 -8.8740412248751674e+00 -6.4044675992710349e+00 4.2038321511864964e+00 -1 10 1