LAMMPS data file via write_data, version 15 May 2015, timestep = 1009000

2593 atoms
6 atom types
1728 bonds
4 bond types
864 angles
3 angle types
0 dihedrals
3 dihedral types
0 impropers
1 improper types

-1.4938003946277206e+01 1.4938003946277206e+01 xlo xhi
-1.4938003946277206e+01 1.4938003946277206e+01 ylo yhi
-1.4938003946277206e+01 1.4938003946277206e+01 zlo zhi

Masses

1 15.9994
2 1.00794
3 12.0107
4 1.00794
5 12.0107
6 12.0107

Bond Coeffs # harmonic

1 1000 1
2 469 1.4
3 367 1.08
4 469 0.7

Angle Coeffs # harmonic

1 100 109.47
2 35 120
3 63 120

Dihedral Coeffs # opls

1 0 7.25 0 0
2 0 7.25 0 0
3 0 7.25 0 0

Improper Coeffs # cvff

1 2.5 -1 2

Atoms # full

1655 552 2 4.0999999999999998e-01 -1.2699932742969326e+01 -1.2686824349188960e+01 -1.3414868121697797e+01 -2 3 0
912 304 2 4.0999999999999998e-01 -1.0944258114528790e+01 -1.4407042605301951e+01 -1.3042674038353324e+01 -2 0 0
910 304 1 -8.1999999999999995e-01 -1.0362525044422945e+01 -1.3868694776242380e+01 -1.3652354029725974e+01 -2 0 0
952 318 1 -8.1999999999999995e-01 -1.1142578111316965e+01 -9.6848618083693605e+00 -1.2450743298557155e+01 0 -1 0
954 318 2 4.0999999999999998e-01 -1.0833500199443154e+01 -9.6663710863349479e+00 -1.3401569458908767e+01 0 -1 0
742 248 1 -8.1999999999999995e-01 -5.0618709323751396e+00 -1.4822040094557213e+01 -1.1771389973926878e+01 -1 2 1
1441 481 1 -8.1999999999999995e-01 -1.0755308694178982e+01 -1.3123536505347134e+01 -9.3363308764271693e+00 -1 2 1
2248 750 1 -8.1999999999999995e-01 -8.0622590304650465e+00 -1.1662439873902898e+01 -8.1691051612323733e+00 1 -1 -1
1656 552 2 4.0999999999999998e-01 -1.3542906710406296e+01 -1.1288382053357314e+01 -1.3429846642573143e+01 -2 3 0
388 130 1 -8.1999999999999995e-01 -1.4869054156265186e+01 -1.4334824506476789e+01 -1.3238494803693717e+01 -2 1 -1
169 57 1 -8.1999999999999995e-01 -6.6176411396151469e+00 -1.1553394960321798e+01 -1.0494081875147677e+01 0 0 -1
27 9 2 4.0999999999999998e-01 -1.0057828977069867e+01 -1.0969528296316215e+01 -1.1880251712249468e+01 0 1 -1
911 304 2 4.0999999999999998e-01 -9.4160469293816149e+00 -1.4181166843794545e+01 -1.3571844189100675e+01 -2 0 0
25 9 1 -8.1999999999999995e-01 -9.6526552869290789e+00 -1.1852354805619067e+01 -1.1642779418698881e+01 0 1 -1
1105 369 1 -8.1999999999999995e-01 -5.2762057419160264e+00 -8.9005273276799937e+00 -9.8819459502081450e+00 -1 1 0
450 150 2 4.0999999999999998e-01 -5.5155226194176610e+00 -1.1627022510626960e+01 -8.8864748884727387e+00 -1 2 -2
737 246 2 4.0999999999999998e-01 -6.8598512970155969e+00 -1.1512640512602941e+01 -1.3843502700988788e+01 -1 1 0
26 9 2 4.0999999999999998e-01 -9.8003128487033280e+00 -1.2498955291533264e+01 -1.2391141947727625e+01 0 1 -1
736 246 1 -8.1999999999999995e-01 -6.8003365078943272e+00 -1.2510803625771315e+01 -1.3835144693367457e+01 -1 1 0
1654 552 1 -8.1999999999999995e-01 -1.3017857772675288e+01 -1.1919137401987310e+01 -1.2858521228470325e+01 -2 3 0
2323 775 1 -8.1999999999999995e-01 -1.2731352419636700e+01 -4.5326863306574250e+00 -1.0434987213978184e+01 1 1 1
738 246 2 4.0999999999999998e-01 -5.9358154251468100e+00 -1.2789663557457589e+01 -1.3417075462811189e+01 -1 1 0
1516 506 1 -8.1999999999999995e-01 -1.3901080796107372e+01 -1.2575260716996350e+01 -1.0260620578558758e+01 -1 0 1
953 318 2 4.0999999999999998e-01 -1.2116407947407644e+01 -9.9100750452930946e+00 -1.2421147905759922e+01 0 -1 0
1760 587 2 4.0999999999999998e-01 -1.3985634270187044e+01 -1.3957215642622977e+01 -9.2983689989767697e+00 1 2 0
1286 429 2 4.0999999999999998e-01 -6.2596101485363178e+00 -2.4635440423955171e+00 -1.4063345010524316e+01 -2 0 2
1631 544 2 4.0999999999999998e-01 -6.9273283951826841e+00 -9.2979230673441258e+00 -1.2790305167993889e+01 0 3 0
1517 506 2 4.0999999999999998e-01 -1.3512468505812532e+01 -1.2538554507927765e+01 -1.1181258724012228e+01 -1 0 1
1630 544 1 -8.1999999999999995e-01 -7.1271307134844522e+00 -9.7863518522939046e+00 -1.3639691885439692e+01 0 3 0
1475 492 2 4.0999999999999998e-01 -1.3403054894588655e+01 -1.0104739671649781e+01 -8.6092330000593851e+00 -1 -1 1
490 164 1 -8.1999999999999995e-01 -1.4730721531338906e+01 -5.0913648820780910e+00 -1.3897115621874129e+01 -1 1 -2
1050 350 2 4.0999999999999998e-01 -1.4111277306483061e+01 -9.2093694329852411e+00 -1.3129160435713725e+01 -1 -1 0
138 46 2 4.0999999999999998e-01 -5.0092604624275392e+00 -6.8171594135395246e+00 -1.3914911203520029e+01 -1 1 0
1442 481 2 4.0999999999999998e-01 -1.0490019728530282e+01 -1.2423320126365535e+01 -9.9990979402796825e+00 -1 2 1
1476 492 2 4.0999999999999998e-01 -1.2405454780731944e+01 -1.1395362477482010e+01 -8.5346870365437901e+00 -1 -1 1
1474 492 1 -8.1999999999999995e-01 -1.2533691673077547e+01 -1.0445083185944238e+01 -8.2510217254102542e+00 -1 -1 1
170 57 2 4.0999999999999998e-01 -7.4853910205672705e+00 -1.1479615738312200e+01 -1.0985516716452214e+01 0 0 -1
894 298 2 4.0999999999999998e-01 -1.0436673727926408e+01 -5.6261823940928775e+00 -8.3205125218663269e+00 -1 -1 -1
1759 587 1 -8.1999999999999995e-01 -1.4290692954542521e+01 -1.4467329740229006e+01 -8.4942146473299882e+00 1 2 0
2075 692 2 4.0999999999999998e-01 -1.0939926319853109e+01 -7.7776076254631903e+00 -7.9810194329906556e+00 0 1 -1
2290 764 1 -8.1999999999999995e-01 -1.0429955900924622e+01 -1.9262609006405285e-01 -1.1673277144226716e+01 1 0 1
1518 506 2 4.0999999999999998e-01 -1.4882859963676868e+01 -1.2390809293422706e+01 -1.0305662398807844e+01 -1 0 1
171 57 2 4.0999999999999998e-01 -6.0038360071584282e+00 -1.0821461980809103e+01 -1.0789816228082517e+01 0 0 -1
2076 692 2 4.0999999999999998e-01 -1.1309295774176254e+01 -9.3670654880499740e+00 -7.9205196652015415e+00 0 1 -1
1632 544 2 4.0999999999999998e-01 -7.0462955322010297e+00 -9.1573181831917054e+00 -1.4412817853224302e+01 0 3 0
2292 764 2 4.0999999999999998e-01 -1.0644551873880266e+01 -3.0777853699470725e-01 -1.2643137914299739e+01 1 0 1
1222 408 1 -8.1999999999999995e-01 -1.4034150760200690e+01 -1.0120988346233718e+01 -1.4699932458247238e+01 1 1 0
2249 750 2 4.0999999999999998e-01 -7.5752957776246763e+00 -1.1344273396019130e+01 -8.9824798117427314e+00 1 -1 -1
1160 387 2 4.0999999999999998e-01 -1.0219596045017173e+01 -8.6127162263972998e+00 -1.0898391794533229e+01 -1 3 2
503 168 2 4.0999999999999998e-01 -5.4345056908066880e+00 -1.7391926332660788e+00 -1.1268818720405701e+01 -2 3 1
1161 387 2 4.0999999999999998e-01 -9.6447217702010093e+00 -7.3956449881636059e+00 -9.9738770621355179e+00 -1 3 2
1048 350 1 -8.1999999999999995e-01 -1.4068650531374413e+01 -8.9256814445008565e+00 -1.2171222267791290e+01 -1 -1 0
136 46 1 -8.1999999999999995e-01 -5.8688841417158457e+00 -6.3313685466544136e+00 -1.3756810637495992e+01 -1 1 0
1159 387 1 -8.1999999999999995e-01 -9.4231279674301156e+00 -8.0394217534073427e+00 -1.0706262959119995e+01 -1 3 2
1287 429 2 4.0999999999999998e-01 -7.6663731340950445e+00 -1.7017575450395110e+00 -1.4390712641740544e+01 -2 0 2
2364 788 2 4.0999999999999998e-01 -7.2099125611288093e+00 -1.4156960948747120e+01 -1.3580953286922327e+01 1 3 0
88 30 1 -8.1999999999999995e-01 -1.4659907917574575e+01 -5.2182929771416227e+00 -8.2984709886747794e+00 0 1 1
1131 377 2 4.0999999999999998e-01 -7.5335519008105258e+00 -1.3585552341782423e+01 -8.0628340903161924e+00 3 3 0
750 250 2 4.0999999999999998e-01 -9.4058297763441630e+00 -6.0776755177470640e+00 -1.2718191651322503e+01 -1 1 -1
2285 762 2 4.0999999999999998e-01 -1.0889571524016230e+01 -6.5023372435477285e+00 -1.4787142820656372e+01 1 1 2
2078 693 2 4.0999999999999998e-01 -6.8932715087491836e+00 -5.0529095581485777e+00 -8.8097261240980060e+00 1 0 0
602 201 2 4.0999999999999998e-01 -7.7609533567236184e+00 -7.8789634184274364e+00 -1.1074948221774470e+01 0 1 0
748 250 1 -8.1999999999999995e-01 -9.8298724375974764e+00 -6.7423976927745723e+00 -1.3333231229140576e+01 -1 1 -1
444 148 2 4.0999999999999998e-01 -7.8922984197907260e+00 -2.1745815351313915e+00 -9.5273016244777740e+00 -1 0 -1
393 131 2 4.0999999999999998e-01 -1.3164911432663803e+01 -3.0809670941203748e-01 -1.2770078843014376e+01 1 0 0
90 30 2 4.0999999999999998e-01 -1.4081111703385819e+01 -4.9912885188222162e+00 -9.0816729498993780e+00 0 1 1
491 164 2 4.0999999999999998e-01 -1.4024552807364234e+01 -5.5705943773390505e+00 -1.3375957025914236e+01 -1 1 -2
2337 779 2 4.0999999999999998e-01 -1.3308162875701223e+01 -7.0793454986209223e+00 -1.2294275335205981e+01 0 1 0
749 250 2 4.0999999999999998e-01 -9.7068929094792757e+00 -7.6636381310578887e+00 -1.2964268559054586e+01 -1 1 -1
391 131 1 -8.1999999999999995e-01 -1.2580740929437086e+01 -2.2004853526684442e-01 -1.3576883492809708e+01 1 0 0
61 21 1 -8.1999999999999995e-01 -9.5967813071814838e+00 -1.8777475570791999e+00 -9.8081997325638568e+00 1 1 1
1829 610 2 4.0999999999999998e-01 -6.7850503157316737e+00 -5.8026592633824219e+00 -1.0662747558499397e+01 0 1 2
443 148 2 4.0999999999999998e-01 -6.5478111431791604e+00 -3.0747765890881116e+00 -9.7474677546632478e+00 -1 0 -1
392 131 2 4.0999999999999998e-01 -1.2902360756372969e+01 -8.4207063822843153e-01 -1.4290739650908058e+01 1 0 0
62 21 2 4.0999999999999998e-01 -9.8062974836957260e+00 -1.1842278962026800e+00 -1.0497456486163994e+01 1 1 1
1285 429 1 -8.1999999999999995e-01 -6.8094395513078290e+00 -1.6491176272153680e+00 -1.3878037992434235e+01 -2 0 2
137 46 2 4.0999999999999998e-01 -6.3244978988691471e+00 -6.7131993723310046e+00 -1.2952719382069224e+01 -1 1 0
1706 569 2 4.0999999999999998e-01 -1.4261969013634648e+01 -1.7145809173151232e+00 -9.3033329024407863e+00 0 3 0
1703 568 2 4.0999999999999998e-01 -1.1276211415639828e+01 -2.9067269871645092e+00 -1.4204057110713366e+01 0 2 0
892 298 1 -8.1999999999999995e-01 -1.1119734608476652e+01 -6.2215048325351834e+00 -8.7435497398585049e+00 -1 -1 -1
1625 542 2 4.0999999999999998e-01 -5.7331436619244069e+00 -4.7291532056074725e+00 -1.4165675375896370e+01 0 0 -1
1704 568 2 4.0999999999999998e-01 -1.2162011673621238e+01 -4.1406072509818816e+00 -1.3604584307909647e+01 0 2 0
442 148 1 -8.1999999999999995e-01 -6.9504840417818343e+00 -2.3227531079370483e+00 -9.2256855751291766e+00 -1 0 -1
2067 689 2 4.0999999999999998e-01 -9.7965583794117350e+00 -3.9224600437496431e+00 -1.2667622241576035e+01 2 1 1
1107 369 2 4.0999999999999998e-01 -5.7982359328111492e+00 -8.7836054174288396e+00 -9.0371056324327466e+00 -1 1 0
2065 689 1 -8.1999999999999995e-01 -9.0296878750785137e+00 -3.9773168984937968e+00 -1.2028214846324648e+01 2 1 1
603 201 2 4.0999999999999998e-01 -6.1410342112586704e+00 -8.0588654973081404e+00 -1.0975110596926879e+01 0 1 0
2336 779 2 4.0999999999999998e-01 -1.1827081490229471e+01 -6.8105499930775952e+00 -1.2927218649744759e+01 0 1 0
2066 689 2 4.0999999999999998e-01 -9.1826871779932926e+00 -3.3445524499591972e+00 -1.1269174789959806e+01 2 1 1
1705 569 1 -8.1999999999999995e-01 -1.3991269589749356e+01 -1.9752411748058183e+00 -1.0230004086317042e+01 0 3 0
1624 542 1 -8.1999999999999995e-01 -5.5472766223394014e+00 -3.8729852775676257e+00 -1.4647724483674800e+01 0 0 -1
2074 692 1 -8.1999999999999995e-01 -1.0775743756559059e+01 -8.6360679672199190e+00 -7.4951888294583187e+00 0 1 -1
1828 610 1 -8.1999999999999995e-01 -6.8964767936799252e+00 -4.8184062379629236e+00 -1.0799756909984731e+01 0 1 2
1707 569 2 4.0999999999999998e-01 -1.3748438094414345e+01 -1.1558563992765869e+00 -1.0749217817500426e+01 0 3 0
2325 775 2 4.0999999999999998e-01 -1.2541783318894121e+01 -4.8127755625967445e+00 -1.1376026533889702e+01 1 1 1
1702 568 1 -8.1999999999999995e-01 -1.1308001776172938e+01 -3.6285724159196509e+00 -1.3512775723909723e+01 0 2 0
2324 775 2 4.0999999999999998e-01 -1.2790910544031084e+01 -3.5355231043098723e+00 -1.0389602649061924e+01 1 1 1
2335 779 1 -8.1999999999999995e-01 -1.2703691197518431e+01 -6.3900016914199895e+00 -1.2693475234900310e+01 0 1 0
601 201 1 -8.1999999999999995e-01 -6.8842996449183200e+00 -7.6216348936810387e+00 -1.1481398420139396e+01 0 1 0
893 298 2 4.0999999999999998e-01 -1.1804968277283963e+01 -5.6629978340603113e+00 -9.2109534036660250e+00 -1 -1 -1
1830 610 2 4.0999999999999998e-01 -7.6682544024151307e+00 -4.6526009700015418e+00 -1.1413604937077384e+01 0 1 2
162 54 2 4.0999999999999998e-01 -5.6768099884222192e+00 -8.3892181728630710e-01 -9.1610279181857752e+00 -1 0 0
63 21 2 4.0999999999999998e-01 -9.8908112881387851e+00 -1.5535746894130718e+00 -8.9090891859906058e+00 1 1 1
1443 481 2 4.0999999999999998e-01 -1.0991723574745988e+01 -1.3966798148590547e+01 -9.8189893975386440e+00 -1 2 1
1040 347 2 4.0999999999999998e-01 -1.1248839482234175e+01 -1.3725941119224697e+01 -7.9467107134713064e+00 -1 2 0
2077 693 1 -8.1999999999999995e-01 -6.8520182262170479e+00 -5.7537843023775928e+00 -8.0976768283963381e+00 1 0 0
1129 377 1 -8.1999999999999995e-01 -7.0322375221091526e+00 -1.4384787107382422e+01 -7.7313991541150653e+00 3 3 0
2250 750 2 4.0999999999999998e-01 -9.0479334330090193e+00 -1.1588858940066556e+01 -8.3206743080828431e+00 1 -1 -1
743 248 2 4.0999999999999998e-01 -5.0791280560787921e+00 -1.4902321166168434e+01 -1.0774796478361733e+01 -1 2 1
1255 419 1 -8.1999999999999995e-01 -7.3936383605832612e+00 -8.4317785480794996e+00 -8.0358675601191827e+00 1 0 1
1256 419 2 4.0999999999999998e-01 -7.3734250520713234e+00 -7.4320420719204261e+00 -8.0281318816506158e+00 1 0 1
1049 350 2 4.0999999999999998e-01 -1.4936454581520643e+01 -9.1377090117033735e+00 -1.1721887334660664e+01 -1 -1 0
2079 693 2 4.0999999999999998e-01 -6.0490608507204247e+00 -5.5977045493272666e+00 -7.5224898946234706e+00 1 0 0
2138 713 2 4.0999999999999998e-01 -6.8080142393941454e+00 -2.0772693612077529e+00 -7.4700414550639636e+00 -1 3 0
1257 419 2 4.0999999999999998e-01 -8.2401949182593803e+00 -8.7513373615191608e+00 -7.6102320910630610e+00 1 0 1
1223 408 2 4.0999999999999998e-01 -1.4847198181930729e+01 -1.0680229983635435e+01 -1.4861623950726848e+01 1 1 0
1398 466 2 4.0999999999999998e-01 -8.3733897277831986e+00 -5.5690692003697464e+00 -1.4923809116970876e+01 1 1 1
848 283 2 4.0999999999999998e-01 -1.0037818403273768e+01 -9.7586622434080628e+00 -1.5491699482189976e+00 0 1 0
847 283 1 -8.1999999999999995e-01 -9.2767527819217648e+00 -9.3075863392063116e+00 -1.0830679264216148e+00 0 1 0
512 171 2 4.0999999999999998e-01 -1.2373448258665336e+01 -1.1079615426578943e+01 -1.5886575454456544e+00 -1 -2 -1
2023 675 1 -8.1999999999999995e-01 -9.5352778410058008e+00 -1.2739043922025886e+01 -2.7031833147812634e+00 1 0 1
511 171 1 -8.1999999999999995e-01 -1.1573002036854493e+01 -1.0747046153859952e+01 -2.0872806027760564e+00 -1 -2 -1
513 171 2 4.0999999999999998e-01 -1.1022039338105168e+01 -1.1524724132473875e+01 -2.3899330796403522e+00 -1 -2 -1
2461 821 1 -8.1999999999999995e-01 -1.3552184654879694e+01 -1.3398621852289667e+01 -5.5840414196643415e+00 0 0 0
2095 699 1 -8.1999999999999995e-01 -8.8461122200863453e+00 -5.8492540331914888e-01 -3.7126627344128469e+00 0 1 1
1284 428 2 4.0999999999999998e-01 -1.0242120222454844e+01 -1.4896250175977139e+01 -7.4674746750841159e-01 0 2 -1
1162 388 1 -8.1999999999999995e-01 -1.0076669747851767e+01 -1.0685126731586383e+00 -7.1782212141794588e+00 -1 1 1
1130 377 2 4.0999999999999998e-01 -7.4573990332613782e+00 -1.4719813014161799e+01 -6.8906038272191950e+00 3 3 0
2025 675 2 4.0999999999999998e-01 -8.7295790045420816e+00 -1.2223901030858825e+01 -2.4109187080092642e+00 1 0 1
330 110 2 4.0999999999999998e-01 -6.0971291588245808e+00 -1.0336428700454162e+01 -5.5063285707243672e+00 -1 0 1
2462 821 2 4.0999999999999998e-01 -1.2768762764421439e+01 -1.3554860805552767e+01 -6.1855237393291613e+00 0 0 0
1661 554 2 4.0999999999999998e-01 -5.5019385066907383e+00 -7.0528258259490961e+00 -5.4788034812721875e-01 -1 0 -1
329 110 2 4.0999999999999998e-01 -7.1560590798343275e+00 -1.1359779896023888e+01 -6.2119418369754467e+00 -1 0 1
4 2 1 -8.1999999999999995e-01 -1.0459164592385697e+01 -1.4489392925709712e+01 -4.6228181899894132e+00 0 3 -1
328 110 1 -8.1999999999999995e-01 -6.5509966427644422e+00 -1.1223968592285788e+01 -5.4274699288161656e+00 -1 0 1
5 2 2 4.0999999999999998e-01 -1.0132565783662359e+01 -1.3678702378647772e+01 -4.1369627564389333e+00 0 3 -1
416 139 2 4.0999999999999998e-01 -1.4905481932227644e+01 -1.3053242481384913e+01 -2.5186147905780025e+00 0 3 0
2360 787 2 4.0999999999999998e-01 -5.3123214971881332e+00 -1.4939557039390721e+00 -5.2505845319324447e+00 0 -1 1
2024 675 2 4.0999999999999998e-01 -9.6616692822204495e+00 -1.3528848016744554e+01 -2.1030365719018711e+00 1 0 1
1039 347 1 -8.1999999999999995e-01 -1.1599856791301768e+01 -1.4171599455839452e+01 -7.1232321342817446e+00 -1 2 0
2022 674 2 4.0999999999999998e-01 -1.2826266510608530e+01 -9.4849886377191286e+00 -2.9552398813472589e+00 0 0 0
2020 674 1 -8.1999999999999995e-01 -1.3656814731975750e+01 -9.0129910499720207e+00 -3.2507891526314019e+00 0 0 0
1916 639 2 4.0999999999999998e-01 -6.4096667057725654e+00 -1.4097915332657633e+01 -2.5876039458874516e+00 -1 0 0
2021 674 2 4.0999999999999998e-01 -1.4442214858361249e+01 -9.3741359614443240e+00 -2.7481337603711289e+00 0 0 0
585 195 2 4.0999999999999998e-01 -1.3922644292522838e+01 -1.0008042840876737e+01 -5.0248692783085804e+00 -1 0 -2
1163 388 2 4.0999999999999998e-01 -9.4256777814991004e+00 -1.3443847661488828e+00 -6.4710822784969864e+00 -1 1 1
2198 733 2 4.0999999999999998e-01 -6.8393589055447475e+00 -1.2092693991998337e+01 -3.7043792214021849e+00 1 1 3
2197 733 1 -8.1999999999999995e-01 -6.7844998400093104e+00 -1.2391830709338780e+01 -2.7517779622977887e+00 1 1 3
2222 741 2 4.0999999999999998e-01 -1.2232764616277230e+01 -1.4040071939367792e+01 -1.4168937992978563e+00 -1 1 1
1903 635 1 -8.1999999999999995e-01 -6.9224759824298197e+00 -8.0485528939904434e+00 -1.7990409275280221e+00 0 0 1
583 195 1 -8.1999999999999995e-01 -1.4078441281854474e+01 -1.0634546611720250e+01 -5.7885195566849159e+00 -1 0 -2
2221 741 1 -8.1999999999999995e-01 -1.2748718632857020e+01 -1.3198931645262881e+01 -1.2549805746927287e+00 -1 1 1
2414 805 2 4.0999999999999998e-01 -1.4153025929026571e+01 -5.5280612779766418e+00 -6.4440853934542321e+00 0 0 1
2199 733 2 4.0999999999999998e-01 -6.1656384026281597e+00 -1.1789003224702077e+01 -2.2482394902737948e+00 1 1 3
6 2 2 4.0999999999999998e-01 -1.0696342560155511e+01 -1.4241973340994344e+01 -5.5622177923321789e+00 0 3 -1
288 96 2 4.0999999999999998e-01 -1.2770779394498909e+01 -7.4722979554894584e+00 -3.9353474615231043e+00 0 1 2
1002 334 2 4.0999999999999998e-01 -5.6665335854911536e+00 -1.7955319123260924e+00 -1.2448257098220044e+00 -2 1 0
1905 635 2 4.0999999999999998e-01 -7.0210632633858872e+00 -7.9092895536525747e+00 -2.7843468265021407e+00 0 0 1
94 32 1 -8.1999999999999995e-01 -6.8165048424072712e+00 -7.7923588805102701e+00 -4.4948533340670682e+00 -1 0 -2
2463 821 2 4.0999999999999998e-01 -1.3728462555267074e+01 -1.2416766275158071e+01 -5.5145636187715912e+00 0 0 0
95 32 2 4.0999999999999998e-01 -7.7633893175744078e+00 -7.9984522507727904e+00 -4.7415855068841335e+00 -1 0 -2
1904 635 2 4.0999999999999998e-01 -7.7888302617096263e+00 -8.3737281309811991e+00 -1.4200517765665914e+00 0 0 1
584 195 2 4.0999999999999998e-01 -1.3358528266086019e+01 -1.0512743486915284e+01 -6.4717696273594996e+00 -1 0 -2
2135 712 2 4.0999999999999998e-01 -9.3543651004352775e+00 -5.9960642958211210e+00 -2.8409549811594719e+00 0 4 -1
2385 795 2 4.0999999999999998e-01 -1.0036430782456359e+01 -8.6138619832064620e+00 -4.2829894661754029e+00 1 2 1
2384 795 2 4.0999999999999998e-01 -1.0150430631786620e+01 -8.3189171628142020e+00 -5.8850137872352821e+00 1 2 1
286 96 1 -8.1999999999999995e-01 -1.2323129601744366e+01 -6.5784017209714136e+00 -3.9129733592526428e+00 0 1 2
440 147 2 4.0999999999999998e-01 -1.4133151762465237e+01 -5.1758557401701211e-01 -6.8433119215446183e+00 0 -1 0
1782 594 2 4.0999999999999998e-01 -5.2750835023237901e+00 -1.3931712383046909e+01 -6.6187239666526718e+00 -1 3 0
972 324 2 4.0999999999999998e-01 -6.0981292749545215e+00 -8.9506380405763935e+00 -7.0005013903788500e+00 0 1 -1
865 289 1 -8.1999999999999995e-01 -5.2801317994472861e+00 -1.0280170723331869e+01 -1.6305710201031580e+00 -2 1 3
2223 741 2 4.0999999999999998e-01 -1.2531320960327363e+01 -1.2844389605383476e+01 -3.4559636667762383e-01 -1 1 1
1927 643 1 -8.1999999999999995e-01 -1.1267757462038524e+01 -3.7303632009789585e+00 -2.5445707542853899e+00 -1 -1 0
212 71 2 4.0999999999999998e-01 -1.2156973641542432e+01 -2.5399770231322059e+00 -5.9497591523035620e+00 0 1 1
2413 805 1 -8.1999999999999995e-01 -1.3506803643771951e+01 -5.2541784999141061e+00 -5.7318168927558002e+00 0 0 1
786 262 2 4.0999999999999998e-01 -1.2510996097588475e+01 -3.6594522429062692e-01 -1.2817703641482936e+00 0 1 1
1529 510 2 4.0999999999999998e-01 -1.2174177300776760e+01 -3.4118601898768244e+00 -1.0426935667265234e+00 0 -1 1
229 77 1 -8.1999999999999995e-01 -8.7078873113784958e+00 -3.0269810652312419e+00 -5.0389318691348723e+00 0 -1 -1
746 249 2 4.0999999999999998e-01 -7.2322637417903177e+00 -4.2749539102129042e+00 -2.6440176084825762e+00 -1 2 -2
784 262 1 -8.1999999999999995e-01 -1.3479865097643756e+01 -5.6036160321967010e-01 -1.1286802620672365e+00 0 1 1
2139 713 2 4.0999999999999998e-01 -6.9640958778836026e+00 -2.5241642407509666e+00 -5.9072254734480243e+00 -1 3 0
1264 422 1 -8.1999999999999995e-01 -1.2654883117021761e+01 -6.4335278710829495e+00 -1.0985305533854657e+00 -2 1 -2
96 32 2 4.0999999999999998e-01 -6.4387157228410423e+00 -7.1328895647461650e+00 -5.1447125759030907e+00 -1 0 -2
1494 498 2 4.0999999999999998e-01 -7.0773823657183268e+00 -4.9602136484517114e+00 -1.2610459193782475e-01 1 1 1
1314 438 2 4.0999999999999998e-01 -1.0251135067001016e+01 -2.9833817413455286e+00 -1.1754374172178288e+00 2 0 1
231 77 2 4.0999999999999998e-01 -8.6359478177523208e+00 -2.3245514161926284e+00 -4.3308649591748694e+00 0 -1 -1
785 262 2 4.0999999999999998e-01 -1.3576528539195628e+01 -1.1790880287112788e+00 -3.4908086265162019e-01 0 1 1
2156 719 2 4.0999999999999998e-01 -1.0269227079418037e+01 -1.0510372766477794e+00 -1.4985653289801029e+00 -1 0 0
1709 570 2 4.0999999999999998e-01 -9.6690023882239959e+00 -7.4537727193052969e+00 -7.1858143430395671e-01 -1 1 0
1313 438 2 4.0999999999999998e-01 -8.6961705276916916e+00 -2.5869947187427389e+00 -1.4778162092205029e+00 2 0 1
1592 531 2 4.0999999999999998e-01 -1.1692172831617956e+01 -1.0059449580131794e+00 -4.3472323802748747e+00 1 -1 1
1598 533 2 4.0999999999999998e-01 -9.4497738330087913e+00 -3.8396463982327411e+00 -6.6437055558835052e+00 -2 2 1
441 147 2 4.0999999999999998e-01 -1.3493303656689310e+01 -1.9938944661857985e+00 -7.1218379879671589e+00 0 -1 0
213 71 2 4.0999999999999998e-01 -1.1392859785117643e+01 -3.2120181951896818e+00 -7.2268499821530376e+00 0 1 1
1708 570 1 -8.1999999999999995e-01 -9.8144489751211950e+00 -6.4646170585684306e+00 -7.3749682411999906e-01 -1 1 0
1312 438 1 -8.1999999999999995e-01 -9.5128512272864540e+00 -2.3465869697226172e+00 -9.5324191478706410e-01 2 0 1
1593 531 2 4.0999999999999998e-01 -1.3102439599216341e+01 -1.7134250350023272e+00 -3.9264119345338742e+00 1 -1 1
719 240 2 4.0999999999999998e-01 -1.4730592360174510e+01 -1.4862825481677010e+01 -5.3287060293813280e+00 2 0 2
2383 795 1 -8.1999999999999995e-01 -9.5479974358967468e+00 -8.2771526278040035e+00 -5.0879746242407347e+00 1 2 1
1266 422 2 4.0999999999999998e-01 -1.2486881934010928e+01 -6.2715185926814474e+00 -2.0708833973725405e+00 -2 1 -2
1597 533 1 -8.1999999999999995e-01 -9.6110479509343172e+00 -4.6178001289174482e+00 -7.2506724852047642e+00 -2 2 1
1929 643 2 4.0999999999999998e-01 -1.1756523623103513e+01 -3.0312098036212340e+00 -3.0663308578431820e+00 -1 -1 0
1710 570 2 4.0999999999999998e-01 -1.0770939002779581e+01 -6.2642595775848555e+00 -5.2554132511397000e-01 -1 1 0
2187 729 2 4.0999999999999998e-01 -1.4782231581861730e+01 -1.0075784661532747e+00 -2.4650330047275979e+00 -1 -1 1
2415 805 2 4.0999999999999998e-01 -1.2911645350949549e+01 -4.5309071465652639e+00 -6.0819691045963697e+00 0 0 1
747 249 2 4.0999999999999998e-01 -5.8096075775688956e+00 -4.0589231658279399e+00 -1.8721040957862485e+00 -1 2 -2
1917 639 2 4.0999999999999998e-01 -5.0630808275130068e+00 -1.4932446775308950e+01 -2.1917074012906674e+00 -1 0 0
745 249 1 -8.1999999999999995e-01 -6.7954285461348309e+00 -3.8973064909972361e+00 -1.8276237874241836e+00 -1 2 -2
1265 422 2 4.0999999999999998e-01 -1.3577351585291204e+01 -6.1269098334968231e+00 -8.6405508902140227e-01 -2 1 -2
1928 643 2 4.0999999999999998e-01 -1.0675028029720943e+01 -4.2511567492938145e+00 -3.1588893337409214e+00 -1 -1 0
2137 713 1 -8.1999999999999995e-01 -6.3618802053388386e+00 -2.0869681642730722e+00 -6.5751605877913484e+00 -1 3 0
2155 719 1 -8.1999999999999995e-01 -1.0705683122178751e+01 -1.6392473363780447e-01 -1.6484949437411522e+00 -1 0 0
2136 712 2 4.0999999999999998e-01 -1.0025555957573292e+01 -5.9426919626203887e+00 -4.3286123870649504e+00 0 4 -1
2134 712 1 -8.1999999999999995e-01 -9.5043572856122207e+00 -5.4264732057663281e+00 -3.6490451840540814e+00 0 4 -1
1164 388 2 4.0999999999999998e-01 -1.0232501697418925e+01 -8.2395512241912883e-02 -7.1213811384435335e+00 -1 1 1
287 96 2 4.0999999999999998e-01 -1.2776856211488179e+01 -5.9622147505352245e+00 -4.5567024967997103e+00 0 1 2
867 289 2 4.0999999999999998e-01 -5.1064537670174417e+00 -1.0157112301694820e+01 -6.5351729147262283e-01 -2 1 3
230 77 2 4.0999999999999998e-01 -8.9632894992262777e+00 -3.8980795356245217e+00 -4.6195291707617034e+00 0 -1 -1
1591 531 1 -8.1999999999999995e-01 -1.2162476253884499e+01 -1.8798095392162644e+00 -4.2242818794221559e+00 1 -1 1
211 71 1 -8.1999999999999995e-01 -1.2274713881497425e+01 -3.1020355599479963e+00 -6.7683975794950566e+00 0 1 1
866 289 2 4.0999999999999998e-01 -5.5353292252214459e+00 -9.4028065302044297e+00 -2.0368317493987238e+00 -2 1 3
849 283 2 4.0999999999999998e-01 -8.9245343749786734e+00 -9.9062764212038807e+00 -3.6372528148540972e-01 0 1 0
2096 699 2 4.0999999999999998e-01 -9.6320343840571123e+00 -2.5058910961353931e-01 -3.1925790476952898e+00 0 1 1
970 324 1 -8.1999999999999995e-01 -5.1400385046221562e+00 -9.0799871086904922e+00 -6.7450168656777887e+00 0 1 -1
1226 409 2 4.0999999999999998e-01 -1.4752072091012376e+01 -4.1504502265965897e+00 -5.2349927764832564e+00 -1 1 2
1528 510 1 -8.1999999999999995e-01 -1.2532645114290894e+01 -3.1194417841387576e+00 -1.5616451774858398e-01 0 -1 1
2591 864 2 4.0999999999999998e-01 -1.2538096198461368e+01 -8.0969671176067948e+00 -1.1955923704566374e-01 1 1 1
439 147 1 -8.1999999999999995e-01 -1.4223691244648382e+01 -1.3595880739551518e+00 -7.3750786200061844e+00 0 -1 0
1000 334 1 -8.1999999999999995e-01 -5.0019166718228369e+00 -1.1610787893908086e+00 -1.6394078044977203e+00 -2 1 0
1001 334 2 4.0999999999999998e-01 -5.1005778058107349e+00 -1.1512444595225659e+00 -2.6344508580919417e+00 -2 1 0
1282 428 1 -8.1999999999999995e-01 -9.6562743595883056e+00 -1.4523678298541885e+01 -2.7083491031000051e-02 0 2 -1
1599 533 2 4.0999999999999998e-01 -8.7532013498280854e+00 -5.1107440753216746e+00 -7.3957479681021772e+00 -2 2 1
1041 347 2 4.0999999999999998e-01 -1.2188095467167226e+01 -1.4937197533979237e+01 -7.3835709230887980e+00 -1 2 0
1465 489 1 -8.1999999999999995e-01 -1.2994051479914511e+01 -1.0297055816340396e+01 5.3089321037018884e+00 1 2 0
1466 489 2 4.0999999999999998e-01 -1.3703290296031925e+01 -9.7859055856240609e+00 5.7943671480610881e+00 1 2 0
1099 367 1 -8.1999999999999995e-01 -1.3870492430450025e+01 -8.9958714630181955e+00 2.9906547704015765e+00 1 0 0
2035 679 1 -8.1999999999999995e-01 -1.0764715514410986e+01 -9.9403222218471434e+00 6.7845558703278250e+00 1 2 0
2013 671 2 4.0999999999999998e-01 -1.2438303155634507e+01 -1.2293355624064475e+01 4.2308235190124712e+00 -1 1 -2
1467 489 2 4.0999999999999998e-01 -1.2152139996699184e+01 -1.0293325321822266e+01 5.8484806251970554e+00 1 2 0
2012 671 2 4.0999999999999998e-01 -1.3580680330488851e+01 -1.3367410403444794e+01 4.6867303373265052e+00 -1 1 -2
2011 671 1 -8.1999999999999995e-01 -1.2736113137618631e+01 -1.3245702301263126e+01 4.1653525087153511e+00 -1 1 -2
1535 512 2 4.0999999999999998e-01 -9.6065329180001626e+00 -1.0947153394697381e+01 3.7045775956008455e+00 1 0 0
1534 512 1 -8.1999999999999995e-01 -1.0540065794451834e+01 -1.1094180047119419e+01 3.3777121995614827e+00 1 0 0
1854 618 2 4.0999999999999998e-01 -7.9239282912097337e+00 -1.1327755772303526e+01 4.8736532316976486e+00 0 -1 1
2592 864 2 4.0999999999999998e-01 -1.2837416815828497e+01 -8.5189333389457218e+00 1.4292538594124409e+00 1 1 1
1852 618 1 -8.1999999999999995e-01 -8.0748799756596625e+00 -1.0491779564208709e+01 4.3461128895063403e+00 0 -1 1
2590 864 1 -8.1999999999999995e-01 -1.2254813860624122e+01 -8.6893616959927407e+00 6.3460336151584151e-01 1 1 1
1100 367 2 4.0999999999999998e-01 -1.3270719542531538e+01 -9.3151612732404807e+00 3.7243222380015055e+00 1 0 0
1664 555 2 4.0999999999999998e-01 -8.9027213672443573e+00 -1.0704529148212481e+01 1.8439613152066450e+00 0 1 0
1978 660 1 -8.1999999999999995e-01 -1.0663475738964266e+01 -1.4382684967185696e+01 2.3687723389916542e+00 0 0 2
1483 495 1 -8.1999999999999995e-01 -6.7399357531540911e+00 -1.2911899615960866e+01 3.1234030713632848e+00 -1 0 2
2478 826 2 4.0999999999999998e-01 -9.1044858582179984e+00 -8.9002086926270607e+00 1.8679682082146023e+00 2 1 1
1484 495 2 4.0999999999999998e-01 -7.0973281841936906e+00 -1.2569735708428578e+01 2.2544174889135107e+00 -1 0 2
1665 555 2 4.0999999999999998e-01 -7.8138082501342367e+00 -1.1445610058272329e+01 8.7879934062043930e-01 0 1 0
1853 618 2 4.0999999999999998e-01 -7.2010634447621467e+00 -1.0158974816475784e+01 3.9916737451862367e+00 0 -1 1
2588 863 2 4.0999999999999998e-01 -5.7083466543307519e+00 -1.4657656051788628e+00 5.3060753298192722e+00 1 2 1
2366 789 2 4.0999999999999998e-01 -1.2100856952850823e+01 -1.0577209304637293e+01 7.2989182690177934e-01 0 1 0
1230 410 2 4.0999999999999998e-01 -7.5623611261865271e+00 -1.3274112700791136e+01 4.7142393660876110e+00 1 0 1
2477 826 2 4.0999999999999998e-01 -1.0657206186209066e+01 -8.6001075953919806e+00 1.4611891111851705e+00 2 1 1
1283 428 2 4.0999999999999998e-01 -1.0164109978998439e+01 -1.4493467833396958e+01 8.3380658243608252e-01 0 2 -1