2593
Atoms. Timestep: 18495000
O -14.7727 -13.3409 6.58182
H -14.4532 -12.9597 5.71428
H -14.4522 -12.7677 7.33594
O -5.28793 -5.1141 -5.4874
H -5.9464 -4.58085 -6.01851
H -4.38308 -5.03926 -5.90651
O -14.1645 5.93508 -12.8063
H -13.4988 5.83079 -13.5452
H 14.8397 6.30869 -13.1748
O -6.23206 -5.43334 2.38748
H -5.33028 -5.49924 1.96032
H -6.90488 -5.90886 1.82074
O 5.36762 -6.9884 10.8578
H 4.56833 -6.54684 10.4502
H 5.53088 -6.60752 11.7679
O 10.6017 -5.1055 11.5834
H 10.0155 -4.31573 11.4027
H 10.7135 -5.21879 12.5706
O -8.37707 0.469775 -3.16093
H -8.22838 -0.477028 -3.44635
H -8.24427 1.07848 -3.94314
O 13.5604 -0.906571 12.0037
H 12.9589 -1.55473 12.4706
H 13.7348 -0.123802 12.6011
O 11.489 6.4168 -4.1619
H 11.1939 7.19035 -4.72275
H 10.8709 5.64432 -4.30782
O 11.7807 -2.4294 13.3877
H 11.6201 -2.99818 12.5811
H 10.9168 -2.28247 13.8694
O 3.17877 7.99733 -8.63237
H 3.59684 8.75769 -8.1353
H 3.44712 8.04054 -9.59473
O 2.08342 7.67923 -13.8961
H 1.49767 6.94569 -14.2408
H 1.77999 8.55373 -14.2746
O 0.309413 -10.3445 -13.8339
H -0.39415 -9.63923 -13.9211
H 0.710755 -10.3037 -12.9189
O 3.65981 -5.75031 -4.65981
H 3.85701 -6.62521 -5.10216
H 2.85064 -5.84494 -4.07989
O -11.7055 8.10027 5.91907
H -12.1365 7.89024 5.04145
H -11.2703 8.99923 5.87
O 2.97141 -5.62392 -13.1301
H 3.93162 -5.78782 -13.3562
H 2.38997 -6.00379 -13.8495
O 9.71563 -0.477028 7.64038
H 10.226 -0.211923 6.82229
H 8.92897 0.129868 7.75375
O 10.1044 -13.9558 -13.3954
H 9.1306 -13.7384 -13.462
H 10.2156 14.9266 -13.1933
O 2.09413 -1.99407 -5.22898
H 2.88419 -1.38531 -5.15664
H 1.37792 -1.54828 -5.76594
O -10.3396 10.0793 0.544579
H -10.3515 11.058 0.339831
H -11.1443 9.64439 0.140613
O -7.2969 -7.7757 4.12995
H -7.86479 -8.26231 3.46608
H -7.11563 -6.84986 3.79835
O -9.26348 6.98085 10.7779
H -9.07303 7.61231 11.5296
H -9.63595 6.12846 11.1449
O -11.9783 3.8825 -11.3892
H -11.623 2.9591 -11.2437
H -12.9739 3.87507 -11.2962
O 3.72228 -5.01693 1.20956
H 3.89298 -4.28818 1.87274
H 4.26012 -4.84856 0.383493
O -1.10742 8.37964 -11.296
H -1.49135 8.37632 -12.2194
H -1.82779 8.59366 -10.6362
O -8.56037 1.24521 9.53802
H -8.99346 0.374053 9.76939
H -8.4146 1.29291 8.54985
O 6.98889 2.77287 4.95191
H 6.99638 2.82892 5.95032
H 7.92501 2.84234 4.60714
O -4.00758 -13.3978 -13.6661
H -3.26145 -13.878 -14.1273
H -4.84171 -13.9465 -13.7214
O 5.03638 -5.17685 -1.56745
H 4.88636 -4.84911 -2.50023
H 5.58849 -6.01028 -1.59174
O 14.2807 -4.52755 6.23246
H 13.806 -4.33783 7.09197
H 14.2074 -5.50182 6.01927
O 14.1317 5.59966 -4.03997
H 13.2182 6.00649 -4.02785
H 14.2995 5.18385 -4.9338
O 3.58661 -4.00002 -9.8197
H 2.83005 -3.69959 -10.4005
H 3.26393 -4.10303 -8.87881
O 5.71367 9.6904 3.27519
H 6.16738 8.83236 3.51587
H 4.72246 9.57036 3.33089
O -6.61758 6.31606 14.5
H -5.8449 6.94353 14.4038
H -6.53141 5.81024 -14.4971
O 3.89316 2.27015 -5.22357
H 4.8525 2.47997 -5.03475
H 3.80826 1.31028 -5.49088
O 4.73299 -12.5378 4.75235
H 4.40517 -13.4167 5.09891
H 4.9777 -12.6305 3.78718
O 7.98244 11.0754 -5.85927
H 8.30839 11.8965 -5.39064
H 7.72061 11.308 -6.79594
O -4.99228 -1.60492 -3.46862
H -4.96689 -0.767443 -4.01451
H -5.80963 -2.13111 -3.7033
O -10.0462 12.9684 0.225469
H -10.3538 13.2138 -0.693851
H -9.98375 13.7932 0.787362
O -6.08617 3.78021 -1.81707
H -5.87003 2.83438 -1.57476
H -6.28052 4.30114 -0.985885
O 5.48169 8.12154 -4.4024
H 5.75945 7.67068 -3.55412
H 5.87723 7.63676 -5.1825
O -3.73784 -0.517685 -7.32615
H -3.13746 -0.146484 -6.6178
H -4.67583 -0.555987 -6.98162
O -4.32076 -14.5447 8.06775
H -3.84078 -13.6829 8.23182
H -4.56303 14.8922 8.94308
O -12.7765 4.52771 11.6448
H -11.8475 4.81075 11.8834
H -13.334 4.48145 12.4737
O -4.64924 13.169 -5.62796
H -5.00452 12.4406 -5.04208
H -4.93979 14.0563 -5.26991
O -7.6005 -14.2645 8.04945
H -8.12134 -14.0532 8.87654
H -6.62724 -14.3177 8.27294
O 8.56833 8.08725 12.5905
H 8.49447 9.07879 12.6973
H 8.08558 7.63438 13.3401
O 11.2433 -7.44164 -4.7718
H 10.3396 -7.44866 -5.19993
H 11.4324 -8.34102 -4.3776
O -1.00611 -2.08202 -8.867
H -1.9275 -1.69761 -8.80984
H -0.795917 -2.3037 -9.8192
O 4.6259 8.57158 11.8609
H 5.40604 8.50947 11.2383
H 4.57632 9.49474 12.2421
O -2.41235 -6.12069 -12.9617
H -3.35333 -6.35458 -13.2064
H -2.24699 -6.36148 -12.0053
O -14.312 -5.89729 12.3151
H -14.0638 -5.87553 13.2835
H -14.1699 -4.99228 11.9141
O -10.2445 -4.35605 -13.7887
H -9.36715 -4.27352 -14.2614
H -10.6628 -3.45188 -13.7021
O -2.47579 14.025 10.1919
H -1.51718 14.0336 9.90729
H -2.52741 14.0549 11.1901
O 1.18767 -7.56341 -7.75632
H 1.39512 -8.51055 -8.00109
H 1.30502 -7.44047 -6.77086
O 8.72876 12.9394 -8.58792
H 7.8313 13.28 -8.30757
H 8.79048 12.945 -9.586
O 3.88365 5.78361 -7.02605
H 3.62442 6.54121 -7.6251
H 3.18723 5.66498 -6.31829
O 12.1517 5.80322 -11.0039
H 12.1544 6.56983 -11.646
H 12.4712 4.97767 -11.469
O 7.44002 -11.597 -3.01734
H 6.59115 -11.7315 -2.50613
H 8.19268 -11.4393 -2.37809
O 3.05248 3.01397 -2.62597
H 2.06731 2.98025 -2.45769
H 3.24197 2.70739 -3.55877
O -9.70251 -9.41251 -11.3037
H -10.3335 -8.63831 -11.254
H -8.80472 -9.09195 -11.6057
O 11.2226 -9.68316 3.3119
H 12.0802 -10.0997 3.01028
H 11.0853 -8.81728 2.83085
O 2.79303 13.8652 7.64026
H 3.27993 14.6067 8.1018
H 2.05568 14.2467 7.08283
O 0.728145 -5.49392 9.97708
H 0.0709359 -5.02249 10.5652
H 0.815689 -4.99986 9.11207
O -2.85872 -3.04687 -3.55254
H -3.62019 -2.48519 -3.22898
H -2.67776 -3.77549 -2.89196
O 13.0389 -0.337738 -2.49733
H 13.6693 -0.292418 -1.72235
H 12.4986 0.502781 -2.53706
O -14.8169 -13.799 -3.48646
H -14.7785 -14.6574 -3.99799
H 14.7854 -13.9875 -2.53758
O 1.36071 -7.692 11.6648
H 0.725648 -8.27718 11.1606
H 1.66261 -6.94242 11.0757
O 9.63036 13.243 13.661
H 10.0317 13.0989 14.5655
H 9.95517 14.1116 13.2867
O 13.516 -4.83672 -14.2723
H 13.3828 -5.60534 -13.6466
H 12.8615 -4.90271 14.83
O -0.324398 12.6773 12.0478
H -0.834493 13.3737 12.5526
H -0.146723 13.0023 11.1189
O -9.97449 13.4153 -10.3044
H -9.26649 14.0902 -10.5123
H -9.54607 12.5356 -10.0979
O 10.8888 0.231049 1.34295
H 11.4109 -0.577878 1.61311
H 11.249 0.587799 0.48101
O 3.266 -8.84822 -13.5195
H 2.59706 -8.37315 -14.0912
H 2.87609 -9.00737 -12.6125
O 13.4186 0.584457 3.78626
H 13.5252 0.548501 2.7926
H 14.2632 0.924148 4.20003
O -7.09123 -11.3559 -4.34468
H -6.97662 -12.274 -3.96529
H -6.71769 -10.6825 -3.70664
O 10.7852 14.1011 6.9911
H 10.3366 13.8076 6.14697
H 11.0304 -14.7875 6.91951
O -10.5955 -1.19522 -14.2172
H -10.0812 -1.46344 14.8236
H -11.1625 -0.398947 -14.4281
O -13.0367 0.810569 -3.66026
H -13.5785 1.58815 -3.3412
H -12.9296 0.86389 -4.65309
O 8.33127 13.1464 -11.3443
H 9.01652 13.0433 -12.0653
H 7.6277 12.4437 -11.4503
O -13.231 -6.65462 -3.27257
H -14.2115 -6.54528 -3.43598
H -13.0456 -6.57655 -2.29301
O 2.98114 9.05067 3.86011
H 2.69442 9.68471 4.5783
H 2.32378 9.08063 3.10712
O 7.99526 -5.6913 8.78066
H 7.42582 -5.93162 9.56679
H 8.73739 -5.09054 9.07789
O -6.43187 -10.991 -11.1129
H -5.92886 -11.8167 -10.8574
H -7.40161 -11.1126 -10.9011
O 13.7987 -4.17979 9.3483
H 13.1549 -3.41545 9.38466
H 14.5691 -3.99608 9.95892
O 7.11794 -10.3652 -5.61821
H 7.48862 -10.8198 -4.8083
H 6.39139 -10.9277 -6.01291
O 10.1846 6.52396 4.8136
H 10.1127 7.46439 5.14593
H 9.84369 5.89617 5.51336
O 10.8754 -8.30895 14.596
H 10.3121 -8.75626 13.9013
H 10.9648 -8.90993 -14.4652
O -7.17319 7.30886 -10.138
H -7.03187 8.29675 -10.0738
H -7.39533 7.06458 -11.0819
O 10.7113 -1.64154 -3.03354
H 11.618 -1.42984 -2.66893
H 10.4896 -1.00067 -3.7685
O 3.02152 4.28796 5.41169
H 2.1437 4.58333 5.78879
H 2.92724 3.3694 5.0278
O 4.93328 5.11505 2.08965
H 4.2801 5.60415 2.6677
H 4.68309 4.14771 2.0488
O -8.42843 -4.9442 -10.0684
H -8.84643 -4.4207 -9.3259
H -7.79456 -5.61668 -9.68627
O 6.88181 5.26736 0.427574
H 6.23078 5.21366 1.18473
H 7.51241 6.02765 0.583491
O -12.0442 13.9363 -7.9572
H -12.5578 13.0796 -7.91002
H -11.2136 13.7977 -8.49655
O 12.5546 -1.23947 -10.224
H 13.5219 -1.00336 -10.1318
H 12.3191 -1.30797 -11.1935
O 9.73365 10.4962 -13.0953
H 10.3814 9.87698 -12.6514
H 8.8036 10.1501 -12.972
O 12.3374 11.7967 1.11746
H 13.1855 12.2191 1.43732
H 12.1691 12.064 0.168646
O 3.49201 13.2745 -9.41612
H 2.56043 13.3323 -9.77505
H 4.12757 13.0924 -10.1664
O 7.46086 3.31762 7.55705
H 7.62752 2.64585 8.27883
H 7.2006 4.19117 7.96836
O 2.04929 12.0443 -3.16641
H 1.262 11.9807 -2.55311
H 1.74015 11.9696 -4.11449
O 4.90118 13.3325 -11.8742
H 5.42163 12.4906 -12.0167
H 5.53255 14.093 -11.7226
O -4.46825 -3.34923 0.849687
H -4.16991 -2.70219 1.55135
H -3.98525 -4.21666 0.969187
O 13.8484 -6.74941 -4.11829
H 13.523 -6.92019 -3.18823
H 13.0763 -6.78296 -4.75291
O -6.15879 0.62488 11.3206
H -6.74782 1.36973 11.0072
H -5.29858 0.643189 10.811
O -13.4233 -12.6466 4.36954
H -13.9311 -12.4941 3.52168
H -12.7039 -13.3228 4.21018
O -4.85786 -11.6065 6.56999
H -5.62988 -11.6484 7.20421
H -5.17937 -11.3025 5.67318
O -14.2773 -11.6634 8.76171
H -14.1177 -10.685 8.89319
H 14.6957 -11.9136 9.1601
O 9.94405 2.3919 4.4315
H 10.9235 2.44946 4.62493
H 9.75646 1.5627 3.90495
O 10.8362 -5.80668 -1.87628
H 11.6763 -6.34805 -1.84165
H 10.7636 -5.25074 -1.04823
O -4.30792 -13.3271 -0.226312
H -3.53382 -13.8333 0.153893
H -4.93125 -13.0678 0.511393
O -10.2907 13.4103 4.46177
H -9.51543 13.3306 3.83524
H -9.95551 13.6021 5.38418
O 1.80391 6.66858 -3.26919
H 1.52534 5.9971 -3.95587
H 2.6257 6.34466 -2.80042
O 14.4923 2.73275 -3.18718
H 14.4685 3.71321 -3.38244
H 13.5658 2.36 -3.23874
O 1.17316 -7.24173 14.4576
H 1.32448 -7.24395 13.4691
H 0.326974 -7.73204 14.6663
O 3.96991 -7.96648 -6.46757
H 3.85011 -8.75381 -5.86279
H 3.6375 -8.19536 -7.38252
O -13.7417 13.0523 -1.12122
H -14.2592 12.4295 -1.7081
H -12.8508 13.2379 -1.53574
O 5.78133 -2.48456 -10.2897
H 4.99687 -3.00365 -9.9503
H 6.6196 -3.00682 -10.133
O -3.66114 -6.57353 -8.05893
H -3.65495 -7.48399 -7.64536
H -3.26211 -5.91492 -7.42095
O -3.05379 -5.81808 1.32888
H -2.64993 -5.94432 2.23495
H -2.47125 -6.2511 0.64102
O -6.44162 -0.578893 0.970678
H -5.98468 -0.773662 1.83859
H -6.61377 -1.43589 0.484949
O 13.2924 -11.356 1.90821
H 13.182 -11.7234 2.83173
H 14.2658 -11.2971 1.68707
O -6.73282 -6.91305 -9.04163
H -7.08614 -7.34048 -8.20948
H -5.83522 -6.51333 -8.85577
O 3.11989 -4.05006 -6.91162
H 3.35131 -4.85026 -6.35834
H 2.76621 -3.3262 -6.31921
O 8.80231 -8.10382 -6.11765
H 8.22702 -8.89196 -5.89882
H 8.28292 -7.26162 -5.97299
O -8.72119 -14.0781 10.5039
H -8.71524 -13.236 11.0433
H -9.66578 -14.3644 10.3434
O -2.5169 14.9212 0.820019
H -1.70129 14.3526 0.927056
H -3.3158 14.3356 0.682633
O 5.48068 -5.68954 13.3119
H 5.30896 -5.90769 14.2726
H 4.87063 -4.95153 13.0235
O 0.49806 -12.6532 -12.3617
H 1.41801 -12.3999 -12.6608
H -0.172268 -12.3146 -13.022
O -6.62744 5.30222 0.467661
H -7.55768 4.94257 0.540414
H -6.66114 6.2553 0.166796
O 1.47522 4.26207 -10.6881
H 2.13991 4.18945 -9.94451
H 1.11401 5.19392 -10.7225
O -4.00009 7.06754 3.65704
H -4.70177 6.40278 3.40065
H -3.29453 6.61415 4.20169
O 11.8685 4.0907 -8.35225
H 11.844 3.49678 -9.15641
H 11.5448 5.00332 -8.60192
O 8.74348 7.86392 7.63357
H 9.43532 8.39333 8.12458
H 8.6422 8.22607 6.70696
O 9.55294 9.58213 -2.19675
H 9.49221 9.68953 -1.20439
H 8.77146 10.0319 -2.62914
O -11.1375 -3.41197 3.36517
H -12.1317 -3.51952 3.36757
H -10.7973 -3.47835 2.42715
O 10.9324 4.73437 9.43705
H 10.3969 5.15878 10.1672
H 10.4083 4.75265 8.58557
O 4.04008 4.86473 12.4663
H 4.21282 5.61147 13.1086
H 4.17023 5.19298 11.5307
O -5.22753 -1.98264 3.36855
H -4.72427 -1.12377 3.46377
H -5.43687 -2.34859 4.27535
O -7.78333 -3.08724 -11.9818
H -8.00837 -3.72326 -11.2437
H -7.56527 -3.60235 -12.8108
O -5.9165 0.496061 -6.00085
H -5.75666 0.89514 -5.09796
H -6.18673 1.21583 -6.64032
O 10.8206 3.20669 -0.07581
H 11.2682 4.04347 0.239541
H 9.93642 3.10911 0.381109
O -4.16847 -12.9215 -2.97169
H -4.1926 -13.2082 -2.01397
H -3.22482 -12.723 -3.23653
O 7.12492 -2.90717 -0.0880267
H 6.6692 -3.04194 -0.967895
H 7.09669 -3.75852 0.435819
O 12.7608 3.28226 4.90991
H 13.6139 2.79192 4.73164
H 12.8195 4.20378 4.52602
O -5.51029 -5.16628 8.8492
H -5.65637 -5.94051 8.23338
H -5.11859 -5.49364 9.70909
O -5.61488 9.13711 12.0682
H -5.22685 8.66214 12.858
H -5.52028 10.1247 12.1936
O 8.77165 5.2601 -9.16365
H 8.1039 4.76956 -8.60375
H 8.47181 5.25888 -10.1176
O -2.34399 -0.2252 -4.97671
H -2.36909 -1.19408 -4.73042
H -1.64585 0.239241 -4.43182
O 0.188452 -11.1685 2.04059
H -0.550436 -11.7214 1.65541
H 1.06985 -11.5687 1.78971
O -2.98529 12.6492 7.96031
H -2.88978 13.4296 8.57833
H -2.73565 11.8095 8.44263
O 3.96707 -8.51174 -10.1971
H 3.38519 -8.17155 -9.45838
H 3.42029 -9.0681 -10.8228
O 1.54849 -0.48862 -10.4026
H 2.13212 -0.504245 -11.2145
H 0.728655 -1.03595 -10.5709
O -0.679056 1.59496 14.6074
H -0.367742 1.54439 -14.2991
H -0.857679 0.672313 14.2656
O 12.3751 -2.27101 -6.60437
H 11.5732 -1.92708 -7.09303
H 12.1342 -3.11108 -6.1183
O -11.3725 5.07037 -6.26353
H -10.4903 5.06534 -6.73442
H -11.2257 4.96806 -5.27966
O -5.77996 -1.04134 7.94574
H -6.22923 -1.54646 8.68264
H -6.39229 -0.325037 7.61111
O 1.41229 4.36393 12.9325
H 1.09803 4.85696 13.7438
H 2.39912 4.48793 12.8286
O 9.9831 4.85027 2.66271
H 10.2841 5.39286 3.44692
H 9.64462 3.96456 2.98042
O 12.4679 -11.4743 9.43684
H 12.7311 -11.4534 10.4013
H 12.1192 -10.5767 9.16703
O -9.06876 1.16331 13.692
H -9.12845 0.178888 13.5266
H -8.8114 1.32625 14.6445
O 3.73754 -13.7422 8.87875
H 3.92847 -13.0813 9.60455
H 4.35652 -13.5811 8.11003
O 12.9161 -11.5338 12.1837
H 13.4129 -10.7226 12.4923
H 12.2265 -11.7812 12.8643
O 9.45214 11.0267 6.91867
H 8.83981 10.4096 6.42443
H 9.60129 10.6778 7.84389
O 12.7161 -2.10108 1.45079
H 13.1964 -2.62614 0.748232
H 12.8789 -2.51543 2.34622
O -12.8393 9.92748 14.8936
H -12.9268 9.17874 14.2365
H -13.4218 10.6893 14.6103
O 6.50966 2.08335 -4.27344
H 7.34219 2.63579 -4.23188
H 6.21896 1.8483 -3.34594
O 3.48019 13.4311 -0.136838
H 3.0602 12.7999 -0.788841
H 4.09801 12.9258 0.465643
O 6.60208 -12.9708 2.5576
H 6.61616 -11.9894 2.36611
H 7.09193 -13.4585 1.83494
O -14.6452 11.5618 1.93567
H -14.0891 12.2935 1.54138
H 14.8968 11.8346 2.84526
O 6.64386 -14.7604 -10.7318
H 7.43606 14.5566 -11.0191
H 6.2754 14.7184 -9.88185
O -3.26587 -9.41756 -11.6694
H -4.02505 -10.0671 -11.6281
H -2.4106 -9.91353 -11.8194
O 1.78226 7.73622 7.48369
H 1.70175 6.78749 7.17801
H 2.74505 8.0065 7.48166
O 14.7596 -9.69057 13.213
H -14.6852 -8.90412 12.7516
H -14.4075 -10.4069 13.3272
O -14.644 4.39916 13.8141
H 14.2866 4.6881 13.5668
H -14.6941 3.62153 14.4408
O 4.13283 -11.5184 13.323
H 5.11039 -11.4327 13.5155
H 3.76531 -10.6262 13.0605
O -7.82521 4.54847 4.96496
H -7.39789 4.95192 4.15587
H -7.11678 4.18394 5.56932
O -10.5614 -3.84324 -4.90383
H -10.215 -4.64812 -4.42202
H -11.5231 -3.7022 -4.6685
O 2.02772 -0.773312 11.6043
H 1.39047 -1.08969 10.9015
H 1.88555 0.202897 11.768
O -7.57976 1.41949 6.95894
H -7.27166 2.36498 6.85343
H -7.69688 1.00444 6.05671
O -3.53674 4.18687 6.74449
H -3.4585 4.78668 7.5408
H -3.08349 3.31651 6.93696
O -14.2791 -8.97021 -6.13953
H -13.9218 -8.03623 -6.13184
H 14.603 -8.95665 -5.91076
O 1.65918 -11.9158 -0.994158
H 1.96833 -11.7126 -0.0650949
H 0.732703 -11.5618 -1.12204
O 2.02434 10.0445 10.0515
H 2.24461 10.7386 10.7368
H 2.78727 9.95417 9.41135
O 10.2766 -14.3422 12.2973
H 9.89226 -13.5362 12.7474
H 10.9109 -14.0528 11.5803
O -7.91214 -7.06019 1.04061
H -7.57652 -7.98973 1.19338
H -7.80863 -6.823 0.0746748
O -10.4132 -5.50312 -2.77892
H -10.9354 -4.8057 -2.28808
H -10.9303 -6.35893 -2.79216
O -4.66715 -7.15335 -1.42842
H -5.50048 -6.83459 -1.88004
H -3.87224 -6.90553 -1.98225
O 12.1155 -0.588231 5.81724
H 12.6989 -0.294993 5.05977
H 12.1343 0.103267 6.53939
O 7.98682 14.7175 4.81424
H 7.82303 14.9117 5.78145
H 7.7072 -14.3509 4.26429
O 3.0265 -7.78595 0.251708
H 3.26906 -6.88263 0.605519
H 2.03328 -7.85035 0.154954
O 4.30876 -9.84288 4.47329
H 4.262 -10.8169 4.6948
H 5.10263 -9.43602 4.92521
O 6.90165 -10.9965 12.9716
H 7.43942 -10.8424 13.8005
H 7.51708 -11.1196 12.1931
O -7.40715 -8.7733 -6.58027
H -8.28463 -9.04462 -6.18477
H -6.999 -9.55418 -7.0532
O -12.3352 -11.0935 -2.70591
H -13.2378 -11.2557 -3.10449
H -12.001 -10.1954 -2.99203
O 3.10268 6.50692 3.60074
H 3.01453 5.87755 4.37283
H 3.17434 7.44438 3.94139
O -3.84272 4.35193 -3.61417
H -3.185 4.77795 -2.99295
H -4.76345 4.43508 -3.23293
O -9.168 3.84246 0.943445
H -8.98798 2.90649 0.640858
H -9.86321 3.83249 1.6622
O -11.0504 -3.33179 7.20069
H -11.0328 -4.08583 6.54408
H -11.6222 -2.59282 6.84443
O -6.41802 -2.96796 10.2458
H -6.09158 -3.74796 9.71194
H -5.64196 -2.39251 10.5039
O 4.47665 4.19437 9.17101
H 4.73275 3.24432 9.34945
H 5.28547 4.71019 8.88862
O -3.46394 5.39131 12.7489
H -4.24843 5.27108 12.1405
H -3.39586 4.60594 13.3641
O -0.210857 -1.57352 -14.7461
H 0.674279 -1.5672 14.6441
H -0.665744 -2.44942 -14.907
O 13.0809 -11.2296 4.95274
H 12.2333 -11.0405 5.44861
H 13.8358 -10.7333 5.38149
O -3.70328 5.33866 9.2063
H -4.38105 5.93547 9.63579
H -2.80501 5.5087 9.61151
O 9.94219 -3.9196 -7.2943
H 9.45528 -4.78777 -7.39021
H 10.2232 -3.79844 -6.34226
O -1.37878 -7.20553 -0.0821301
H -0.930087 -7.10173 -0.969771
H -0.805576 -7.7636 0.517871
O 7.28659 -2.7121e-05 -14.721
H 7.09534 -0.2223 -13.765
H 7.06432 0.960046 -14.8909
O 1.7359 -4.00596 4.65334
H 0.835329 -4.22461 4.27762
H 2.38751 -4.71858 4.39334
O 11.5416 1.71475 -10.1957
H 12.0184 0.836443 -10.2312
H 11.6558 2.1915 -11.0673
O -2.67864 5.50701 -1.43645
H -3.19503 5.69076 -0.600042
H -1.76629 5.90925 -1.36005
O 3.77122 -11.0495 -6.05635
H 4.6583 -11.4797 -6.22383
H 3.53345 -11.1414 -5.08939
O -14.4317 3.51391 -10.444
H -14.6469 4.34474 -9.93079
H 14.7379 3.37656 -11.1587
O 5.71935 1.48527 11.8963
H 4.99254 1.69682 12.5497
H 5.3384 1.45537 10.9722
O 7.25924 -8.05642 13.3624
H 6.94279 -8.80984 13.9388
H 6.59714 -7.30789 13.399
O 10.956 14.4047 0.195343
H 10.1933 14.55 0.825501
H 10.66 14.606 -0.738371
O 12.8333 13.1386 11.5221
H 13.4155 13.1822 10.7102
H 11.959 13.584 11.3295
O 7.33369 4.20098 11.5452
H 6.63425 3.90474 12.1956
H 7.6153 3.42426 10.9818
O -14.7676 1.95658 -6.90779
H -14.4619 1.38695 -7.67072
H 14.2543 1.56819 -6.51495
O 10.0139 13.3142 -6.29237
H 10.0435 14.2778 -6.0264
H 9.67811 13.2378 -7.2312
O 9.98798 -3.19815 8.1383
H 10.1124 -2.25858 8.45727
H 9.1555 -3.25559 7.58721
O 13.7147 -4.00688 -3.23215
H 13.6106 -4.8955 -3.67882
H 14.6486 -3.67473 -3.3645
O -0.093957 0.966621 -4.27962
H -0.465535 1.87708 -4.4613
H 0.328521 0.606931 -5.11157
O 3.49452 -6.07203 4.67903
H 3.70311 -6.34061 5.61943
H 3.47939 -6.88432 4.09596
O -7.50833 8.80123 6.32196
H -6.54763 8.80885 6.04447
H -7.6645 8.04876 6.96182
O 9.98246 0.115285 13.0389
H 9.71226 -0.758414 13.4434
H 10.1138 0.000261089 12.0542
O 7.52319 -2.0667 -3.10789
H 7.32612 -1.55682 -3.94526
H 8.50944 -2.06777 -2.94261
O -13.1481 -1.32306 -2.03489
H -12.8672 -0.49284 -2.51637
H -13.9643 -1.1321 -1.4896
O 12.7905 1.33124 -5.38292
H 13.4995 0.723415 -5.02529
H 11.896 0.895518 -5.28228
O -13.5455 2.12936 -1.25352
H -14.206 2.84484 -1.48114
H -12.7101 2.26534 -1.78603
O 11.8216 -13.2681 6.41938
H 11.2943 -12.4749 6.7241
H 12.779 -13.0057 6.29912
O -1.69647 9.78875 -7.58896
H -2.11413 9.86905 -6.6839
H -1.35179 8.85862 -7.71565
O -2.31129 11.2398 13.9545
H -1.55368 11.6353 13.4352
H -2.99323 10.8727 13.3219
O -6.02522 -6.57623 13.9839
H -6.93185 -6.83502 13.6507
H -5.96501 -6.76211 -14.8908
O 5.76239 1.5745 1.14595
H 5.18933 2.04042 1.82014
H 5.94071 0.638644 1.44989
O -13.8439 9.87095 -6.84897
H -13.6717 8.96 -6.47407
H -13.1855 10.5189 -6.46588
O 5.57615 -12.2929 -12.0902
H 5.57871 -11.4203 -11.6016
H 5.89449 -13.0178 -11.4794
O 0.987635 12.8169 -5.58809
H 0.967698 12.4771 -6.52837
H 0.126613 13.2826 -5.38366
O 7.41358 -7.03158 -12.2964
H 6.83253 -6.59605 -11.6089
H 8.26951 -6.52146 -12.381
O -2.59006 -7.24124 13.0693
H -2.92572 -8.17717 12.9627
H -3.35539 -6.63539 13.2867
O 7.99915 -3.73561 -10.2644
H 7.94773 -4.5782 -9.72827
H 8.9469 -3.5722 -10.5384
O 4.33692 -0.400063 -5.80324
H 4.48837 -0.725071 -6.73675
H 5.21177 -0.35103 -5.32132
O 10.3168 8.59481 -5.93289
H 9.93461 9.40438 -5.48736
H 11.3083 8.57995 -5.80341
O -9.06133 -11.2347 -14.8546
H -9.54014 -11.4557 -14.005
H -8.40444 -10.4999 -14.6856
O 7.95257 -4.04984 2.25796
H 8.69506 -3.44582 2.54757
H 7.38031 -4.27616 3.04619
O -11.3514 -14.3547 5.87631
H -10.575 -14.6549 6.43049
H -12.0948 14.8367 5.95668
O -13.4124 7.1419 -6.27617
H -12.6638 6.4793 -6.25297
H -14.0366 6.91353 -7.02329
O -3.62827 -8.59253 5.62027
H -4.00964 -9.2621 4.98291
H -3.41369 -9.04225 6.48729
O -8.38664 -8.04629 12.879
H -9.30674 -7.93062 13.2533
H -8.38363 -7.78292 11.9143
O -4.76002 2.99284 10.4582
H -3.76546 3.08731 10.5022
H -5.18823 3.72728 10.9848
O 2.68531 -14.8742 -5.05866
H 3.36402 14.6419 -4.40736
H 1.957 14.3042 -5.16427
O -8.86037 -1.31697 -5.46731
H -9.53771 -2.01711 -5.2414
H -9.31572 -0.541521 -5.90474
O 13.9777 4.41656 -6.82648
H 14.6361 3.6918 -7.02954
H 13.1097 4.21509 -7.28036
O -9.00249 7.42887 -2.00038
H -9.00929 8.04344 -2.78922
H -8.07971 7.38863 -1.61715
O -5.04435 7.79678 9.71638
H -5.98678 7.5545 9.48584
H -4.99866 8.08456 10.673
O -12.0119 -6.93335 -8.89161
H -11.5554 -7.7757 -8.60521
H -12.2337 -6.38392 -8.08602
O -13.2138 -3.10025 -4.06805
H -13.1745 -2.4997 -4.86668
H -13.0724 -2.56074 -3.23803
O 12.9299 -7.30422 -11.8657
H 12.2971 -8.03772 -11.6176
H 13.5548 -7.13143 -11.1043
O -10.7074 -11.0215 3.06517
H -10.5362 -12.0039 3.1401
H -10.274 -10.67 2.23534
O -12.1119 -7.89974 2.8555
H -12.2096 -8.43153 3.69672
H -11.4787 -8.36624 2.23791
O 13.175 -7.4055 -1.60542
H 12.9158 -8.29714 -1.97659
H 13.7381 -7.53516 -0.789253
O 10.1883 9.63903 9.18888
H 11.1664 9.78419 9.04012
H 9.96658 9.8188 10.1473
O -4.42535 1.43344 -3.75964
H -3.56031 1.19871 -4.20306
H -4.46333 2.42063 -3.60463
O -8.32046 6.95401 -12.4947
H -8.64393 6.33184 -13.2076
H -7.97456 7.79247 -12.9158
O 3.17225 -3.23476 11.7931
H 2.79933 -2.32189 11.627
H 3.6665 -3.23979 12.6624
O -7.95041 0.411737 -13.4762
H -7.3045 1.09405 -13.1338
H -8.2763 -0.149929 -12.7157
O 11.8021 -14.2581 -7.19394
H 12.1023 14.644 -7.22622
H 12.3659 -13.71 -7.81176
O 7.94739 -5.86369 -8.65864
H 7.04151 -5.96307 -9.07035
H 8.28439 -6.76111 -8.37392
O 12.0351 5.41408 1.03854
H 11.7474 5.83025 0.175932
H 11.2328 5.24566 1.6112
O -1.55788 8.57208 4.44971
H -2.41952 9.0714 4.54062
H -1.70649 7.60801 4.66993
O 14.7959 12.8134 9.48239
H 14.5265 13.1623 8.58475
H -14.4821 12.0053 9.36635
O -2.87423 -6.38629 9.60812
H -3.69886 -6.55925 10.1467
H -2.1497 -6.04638 10.2077
O 2.84048 8.25356 -0.100415
H 2.22847 7.94808 0.629056
H 3.54931 7.56448 -0.251212
O 5.64804 2.14969 -1.5851
H 4.66315 2.07253 -1.74018
H 5.8354 2.10578 -0.60379
O 4.17574 -0.588831 -8.93125
H 3.29715 -0.654426 -9.4043
H 4.81469 -1.2518 -9.32142
O -13.246 -1.16104 -6.04452
H -14.1346 -0.754966 -5.83115
H -13.1696 -1.29551 -7.03249
O 2.09066 -14.3989 14.757
H 2.53581 -13.9076 -14.3498
H 2.63755 -14.3052 13.9251
O -9.98952 10.3184 -13.687
H -10.8087 10.1477 -13.1395
H -10.2132 10.231 -14.6578
O -0.637953 -4.53723 3.57954
H -1.20948 -5.30119 3.87912
H -0.0298723 -4.84312 2.84696
O 9.71781 -11.9388 4.05069
H 10.4477 -11.2795 3.87025
H 10.0401 -12.6217 4.70625
O -8.3652 2.85681 11.6866
H -8.55819 2.39716 10.8197
H -8.80381 2.35723 12.4336
O 4.60494 -9.67777 1.62086
H 3.99542 -8.93317 1.34872
H 4.76228 -9.636 2.60753
O -9.51353 -1.1656 -11.7805
H -8.79377 -1.85978 -11.7725
H -9.93292 -1.13077 -12.6876
O -13.9912 6.286 10.0382
H -13.3644 7.04505 9.86212
H -13.5867 5.66963 10.7139
O 4.60826 2.73495 3.48087
H 3.94499 2.07682 3.83716
H 5.41564 2.74708 4.07079
O -6.89789 -3.67711 -3.64869
H -6.15756 -4.34095 -3.75475
H -7.45423 -3.66272 -4.47953
O -0.175446 7.60377 -8.38786
H -0.0152807 7.37274 -9.34753
H 0.684892 7.8895 -7.96574
O 2.17978 1.6768 14.8353
H 2.22832 1.70235 -14.0216
H 1.2274 1.77121 14.5454
O -2.33627 -3.53438 -14.1656
H -2.28372 -4.36603 -13.6128
H -2.88306 -2.84872 -13.6851
O -2.3494 -7.31961 -10.1773
H -2.90099 -7.96589 -10.7046
H -2.87728 -6.99308 -9.39323
O 13.1882 3.21997 -12.3533
H 13.2066 3.62312 -13.2682
H 13.2482 2.22445 -12.4264
O -8.0678 11.194 -1.72822
H -8.13932 12.0024 -1.14389
H -7.99523 10.3758 -1.15787
O 11.5407 3.58841 13.3068
H 11.3692 2.9836 14.0845
H 10.7042 3.68233 12.7669
O 5.3117 -3.18289 -13.0828
H 5.94472 -2.58099 -12.596
H 4.46889 -3.27868 -12.5532
O 6.61125 13.7501 -5.22015
H 7.2352 14.2717 -4.63831
H 5.75447 13.5894 -4.73015
O -5.7187 5.12557 3.20943
H -6.0692 5.05116 2.27582
H -5.69026 4.21788 3.62812
O -10.6893 -7.54246 8.94131
H -11.0899 -8.17713 9.60218
H -10.5765 -8.00445 8.06162
O 12.8785 -6.75475 10.8313
H 12.1266 -6.10535 10.9451
H 13.6902 -6.411 11.3037
O 14.0777 -3.5873 3.28869
H -14.7977 -3.78558 3.29838
H 13.6287 -4.08965 4.02763
O 13.9551 14.0621 7.14625
H 12.9754 14.03 6.94823
H 14.2929 -14.8624 7.00753
O 13.8241 -14.8881 4.05825
H 13.4797 -14.7735 3.12645
H 14.686 -14.391 4.15855
O 11.4771 -4.28952 4.86078
H 11.497 -4.51673 5.83443
H 10.988 -3.42717 4.72967
O 10.3175 1.91164 -7.5187
H 10.8404 2.69667 -7.18656
H 10.653 1.64598 -8.42251
O -9.22345 -9.78619 -1.66442
H -8.24573 -9.6473 -1.82186
H -9.74619 -9.30026 -2.36486
O 8.4221 9.49967 -8.71046
H 9.06116 10.2518 -8.54971
H 8.74508 8.9462 -9.47816
O -8.09839 8.48919 12.7478
H -7.19293 8.72835 12.3971
H -8.01188 7.75452 13.4207
O 9.32898 -7.65432 11.7357
H 9.91329 -6.92412 12.0898
H 8.53941 -7.77113 12.3381
O -13.947 -10.8349 2.50257
H -13.3811 -10.5744 3.28479
H -13.3704 -10.9306 1.69117
O -14.5781 -3.00846 11.3735
H -13.9651 -2.97309 12.1628
H 14.8376 -2.11848 11.2529
O 4.49969 13.1029 -3.56544
H 3.56909 13.0151 -3.21005
H 4.91488 12.1962 -3.64
O -3.29236 3.28044 -9.59135
H -3.5771 3.06992 -8.65614
H -3.53757 4.22498 -9.8098
O -0.980095 1.9299 -10.3486
H -0.427268 2.27379 -9.58955
H -1.93762 2.17887 -10.2031
O -1.05736 -11.1396 -7.70674
H -1.99286 -11.4821 -7.61974
H -0.42473 -11.7862 -7.28045
O -7.35331 8.25418 -5.95432
H -7.56032 8.63186 -5.05181
H -8.03853 8.56739 -6.61188
O -6.53905 -11.2551 8.77971
H -7.3186 -10.8045 9.21468
H -5.74792 -11.2154 9.39007
O 6.71782 -0.891856 -12.1543
H 6.62478 -1.50752 -11.3718
H 6.21819 -0.0447593 -11.9732
O -13.6515 10.6833 9.02595
H -14.4335 10.3235 8.51701
H -12.8298 10.6258 8.45895
O -4.87607 -5.59119 11.8077
H -5.36827 -6.08448 12.5249
H -5.04351 -4.60992 11.9029
O -1.92069 -6.08255 6.99145
H -0.966173 -6.3792 7.02174
H -2.32143 -6.15516 7.90476
O 10.8642 -3.86862 -10.8527
H 11.365 -3.03896 -11.0994
H 11.4101 -4.40946 -10.2127
O -3.14427 7.02123 -5.10641
H -3.02828 6.20026 -4.54734
H -2.85435 6.82965 -6.04409
O 14.2381 -7.36795 4.75697
H 14.394 -8.12637 5.38981
H 13.373 -7.5082 4.27535
O 7.0306 7.41619 3.51593
H 7.66007 6.94522 2.89791
H 6.5896 6.74808 4.11523
O 12.1387 -5.03409 -8.42551
H 12.8626 -4.98557 -7.73734
H 11.4303 -4.36129 -8.21211
O 11.623 11.512 -4.92905
H 10.933 11.763 -5.60793
H 11.8604 12.3151 -4.38247
O -8.58289 13.1227 12.1721
H -8.02075 12.4916 11.6376
H -8.5874 14.0202 11.7311
O 12.8274 -10.0407 -2.5145
H 12.0881 -10.4164 -3.07337
H 13.702 -10.4132 -2.82472
O -14.7664 -9.79186 6.08096
H -14.4384 -9.4776 6.97186
H -14.007 -10.1934 5.56893
O 7.01228 -6.15505 -5.54671
H 6.39133 -6.78519 -5.0805
H 7.30097 -5.43974 -4.91032
O -11.2343 -8.12815 12.4163
H -11.4669 -8.4743 13.3252
H -12.0736 -7.92769 11.9111
O -3.32399 12.389 4.13197
H -3.61363 13.3441 4.19394
H -3.51087 11.9271 4.999
O 9.44704 -8.32102 9.13129
H 9.23818 -7.51546 8.57679
H 9.30841 -8.10539 10.0979
O -13.3813 14.3874 11.4493
H -13.8667 13.653 10.9748
H -13.9119 -14.6227 11.3862
O -0.823434 -11.0785 13.2765
H -0.400539 -11.9239 12.9503
H -0.586407 -10.9366 14.2376
O 13.1619 8.22882 -0.811805
H 12.2683 7.7923 -0.916074
H 13.5363 8.01065 0.0894383
O -5.97131 -9.90306 -2.04784
H -5.99208 -10.5546 -1.28949
H -5.36451 -9.14239 -1.81724
O 6.7205 14.8687 -0.606133
H 5.90105 -14.453 -0.814878
H 7.40029 -14.3971 -0.170051
O 3.52925 -9.23281 11.9792
H 2.67323 -8.72504 11.8823
H 4.30039 -8.59767 11.935
O 5.61944 8.90049 -13.1527
H 5.19744 8.17678 -12.6067
H 6.25505 8.49483 -13.8096
O -2.64185 9.71938 -5.06653
H -2.70607 8.73119 -5.20571
H -2.16975 9.90461 -4.20467
O -0.875977 12.5935 0.244854
H 0.0148714 12.8165 0.640668
H -1.20857 11.7349 0.63503
O -13.0195 10.0401 -12.011
H -13.1485 9.30115 -11.3497
H -13.2928 9.72546 -12.92
O 8.23059 4.29371 -14.8336
H 9.14441 4.54939 -14.5181
H 8.29503 3.4903 14.4299
O 8.5158 10.9091 12.3004
H 8.75961 11.6347 12.9439
H 8.17035 11.3158 11.4547
O 7.04315 -2.43437 9.18152
H 7.76071 -2.43573 9.87803
H 7.37052 -2.90953 8.36478
O -0.657057 -9.56512 4.21433
H -0.294999 -10.1299 3.47272
H -1.56718 -9.23302 3.96656
O -1.39257 3.21288 -4.94095
H -2.07661 3.78796 -4.49218
H -0.904398 3.75047 -5.62848
O -2.82684 -4.43598 -6.02147
H -2.82188 -3.83026 -5.2258
H -1.91904 -4.44281 -6.44083
O -10.8442 0.558173 -6.67276
H -11.3595 1.39331 -6.4805
H -11.3194 -0.226052 -6.27384
O -14.7813 -7.48786 0.43923
H -14.0106 -7.12809 -0.0866598
H -14.4383 -8.06034 1.18399
O -0.483547 -14.918 14.7028
H -0.870791 14.4604 -14.3637
H 0.469763 -14.6818 14.891
O 1.28703 1.54139 -8.62392
H 1.34663 1.05984 -9.49832
H 2.17007 1.96091 -8.41358
O -1.9679 3.55316 10.8737
H -1.37398 4.35759 10.8865
H -2.00476 3.1515 11.7888
O -7.01657 4.40691 -10.371
H -7.65891 4.32104 -11.1326
H -6.8874 5.37389 -10.1513
O 5.80773 4.12445 -13.5513
H 6.68927 4.01236 -14.0099
H 5.08184 3.75007 -14.1283
O -14.8942 -8.83445 8.57611
H 14.0353 -8.67515 8.91838
H -14.4645 -7.95844 8.35696
O -7.94689 11.0456 10.5678
H -7.87014 10.1537 11.0134
H -7.11565 11.2285 10.0428
O -12.2459 -10.5398 -6.01003
H -12.8988 -9.82706 -6.26648
H -12.6571 -11.4387 -6.16175
O -7.72797 -4.22613 -14.845
H -6.74684 -4.30011 -14.6664
H -7.88289 -4.155 14.025
O 1.54881 -11.179 9.72955
H 0.783627 -10.799 10.2492
H 1.88424 -12.0036 10.1851
O -1.98201 14.7048 -10.0546
H -2.72009 14.0979 -9.75963
H -1.40821 -14.9177 -9.26939
O 11.0376 6.57356 -1.35287
H 11.6161 6.5532 -2.16826
H 10.0925 6.76295 -1.61939
O -5.5191 -2.90891 -8.90495
H -5.07045 -3.04683 -8.02194
H -6.05286 -2.06366 -8.8792
O 11.145 -9.99289 -12.9832
H 10.2785 -9.67692 -12.5968
H 11.2499 -10.9722 -12.81
O -7.4665 -3.45419 -6.3929
H -7.83428 -2.63129 -5.95979
H -8.06274 -3.72863 -7.14734
O 11.2019 2.0374 9.64646