2593
Atoms. Timestep: 1000000
O 7.56968 -2.54509 5.75245
H 7.6401 -3.1306 6.56006
H 8.24367 -2.8331 5.07216
O -8.41072 14.826 -3.59093
H -9.11606 14.9612 -2.89509
H -8.7577 -14.9036 -4.47982
O 4.90149 6.75088 10.8014
H 5.61898 7.37052 11.1196
H 4.73379 6.05074 11.4954
O 11.8751 10.8503 -14.3382
H 12.5779 11.462 -13.9751
H 12.24 10.3534 14.9031
O -14.6508 -12.9571 -9.65474
H -14.9775 -12.6732 -10.5562
H 14.5977 -13.2059 -9.08066
O -7.21941 -11.9799 -12.0051
H -7.30503 -11.2946 -12.7283
H -6.33145 -11.8812 -11.5559
O -3.36693 4.59279 -2.11142
H -2.60277 5.23718 -2.14002
H -4.11933 4.94303 -2.66931
O -1.50235 14.64 -6.41788
H -2.09797 -14.7325 -5.95466
H -2.0491 14.0663 -7.02782
O -10.6729 -10.5849 -8.89825
H -10.9433 -10.0445 -8.10152
H -10.5719 -9.98315 -9.69053
O -0.178704 -5.48725 -13.2497
H 0.126905 -4.96858 -14.0482
H 0.576708 -5.5754 -12.6004
O 10.1809 -11.5378 -0.394956
H 9.38247 -10.9357 -0.400511
H 9.98799 -12.3421 0.167058
O -9.83045 9.62105 11.589
H -9.16801 10.3698 11.6121
H -9.50664 8.90855 10.9665
O 7.38412 9.77216 -5.808
H 6.56026 9.32819 -5.45564
H 7.20717 10.7477 -5.93852
O -1.44009 -8.15437 -8.99048
H -0.496699 -7.91537 -8.76047
H -1.44343 -8.80479 -9.75005
O 0.994985 2.55788 -6.055
H -0.00309066 2.50945 -6.0162
H 1.34502 1.79316 -6.59599
O 14.4854 -3.60571 -14.1728
H 14.3123 -4.30264 -13.4769
H 13.6425 -3.09904 -14.354
O -9.02491 4.70775 8.27788
H -9.86641 4.7765 8.81374
H -9.13094 3.99917 7.58026
O -11.0525 11.6763 3.44682
H -10.2676 12.2884 3.35122
H -11.6596 11.7874 2.65997
O 5.20612 -6.12957 3.32599
H 4.50637 -5.60667 3.81274
H 6.10346 -5.72058 3.49187
O -11.3755 4.41702 9.79323
H -10.8678 4.44049 10.6545
H -11.84 3.53598 9.70405
O -8.18297 0.209149 -8.78862
H -8.67431 0.615938 -9.55876
H -8.29596 -0.784252 -8.80845
O -9.94773 11.5927 -12.2547
H -10.4663 12.0088 -11.5078
H -9.15658 11.108 -11.8816
O -5.11362 -12.6725 6.97605
H -5.30871 -12.2072 6.11269
H -5.65358 -13.5124 7.03142
O 14.5255 5.10015 -1.90586
H 13.9771 4.2652 -1.95197
H 13.9209 5.89151 -1.81564
O 1.03542 1.54762 9.07369
H 0.633758 0.631915 9.06082
H 0.371776 2.20766 8.72164
O -1.54192 -9.06713 11.346
H -1.84164 -8.21028 10.9265
H -2.34133 -9.5984 11.6266
O 11.547 0.627474 5.46909
H 11.1635 0.225283 6.30049
H 12.5279 0.437523 5.42871
O -1.35389 -9.23002 -1.43405
H -1.81244 -8.89181 -0.612254
H -0.909271 -8.46815 -1.90509
O 3.75377 -6.0183 -4.5119
H 3.18586 -5.30828 -4.09554
H 3.39101 -6.91871 -4.27177
O -14.3187 -0.0507239 -7.58546
H -14.9933 0.520978 -8.05241
H -13.399 0.284329 -7.79016
O 10.4203 -0.147039 7.84369
H 9.42312 -0.162737 7.77036
H 10.7355 -0.988399 8.28274
O -4.00214 -7.18877 -1.74759
H -4.15282 -7.32694 -2.72647
H -4.68781 -7.69996 -1.22937
O 13.768 5.07219 -9.02995
H 13.4816 5.10893 -8.07255
H 14.7662 5.03509 -9.07803
O -9.7542 10.9771 -5.4142
H -10.3256 10.7121 -4.63752
H -8.80436 11.0658 -5.11428
O 11.6088 -4.98915 -6.93427
H 11.5598 -5.70859 -6.24145
H 12.5652 -4.82074 -7.17278
O 9.88581 12.0643 -5.54357
H 10.7233 12.2405 -6.06089
H 9.6979 11.0821 -5.53808
O 13.6597 10.0897 -7.31267
H 14.3995 10.3984 -7.9105
H 13.015 10.8398 -7.16556
O 8.42336 9.96393 2.15831
H 8.86663 10.2127 3.01948
H 7.44148 10.1411 2.22547
O 12.8163 12.3718 -6.07317
H 13.395 12.9314 -6.6664
H 13.1548 12.4222 -5.13354
O 8.25778 4.0998 -2.26033
H 8.3053 5.01421 -1.85833
H 7.40051 4.00207 -2.76584
O 13.3336 1.98515 -5.39174
H 14.2084 2.4697 -5.38995
H 13.4014 1.17263 -4.81277
O -13.8853 3.73131 -8.41936
H -13.8382 3.38987 -7.48064
H -13.1822 4.42918 -8.55593
O -8.85651 0.156103 3.09405
H -8.50103 0.964234 2.62441
H -8.67928 0.235768 4.075
O -0.724415 10.4579 -11.7944
H -0.157106 11.1111 -12.2959
H -1.67811 10.5582 -12.078
O 1.94248 14.618 6.00053
H 1.3922 14.0626 5.37708
H 1.33883 -14.8949 6.60844
O -4.81135 -5.40962 -13.6297
H -4.07458 -6.0558 -13.8287
H -4.4504 -4.47718 -13.6461
O 9.64551 -6.67093 7.24425
H 9.14366 -7.53466 7.29028
H 10.3274 -6.72014 6.51449
O 2.63253 -7.79969 -13.083
H 3.24232 -7.18732 -13.5862
H 2.22594 -7.30696 -12.3137
O -11.8109 2.01958 1.51246
H -12.4617 2.52008 2.08341
H -10.9331 2.49855 1.50937
O 13.5434 -2.66822 10.8863
H 12.6695 -2.89486 10.4563
H 13.5218 -1.72096 11.2061
O 13.0306 4.47435 1.05873
H 13.6591 4.9774 1.65191
H 13.4393 3.59687 0.807829
O -14.2957 10.7928 -8.99653
H -15.0136 11.177 -9.57708
H -13.4145 11.1939 -9.24652
O -7.01878 -13.4951 3.18422
H -6.52945 -12.7836 2.67993
H -7.44173 -13.096 3.99779
O -6.0897 0.850038 -5.75822
H -5.13658 0.556807 -5.833
H -6.67439 0.215015 -6.26309
O -5.779 -14.1757 -5.13839
H -6.32304 -14.9998 -4.9807
H -5.92463 -13.5314 -4.38758
O 2.3651 9.06322 13.7233
H 2.25841 8.15331 14.1242
H 2.59147 9.71991 14.4427
O -12.495 -8.91659 -4.08447
H -12.151 -9.41116 -3.28629
H -13.4289 -9.21365 -4.2837
O 8.7397 6.9389 -13.7029
H 8.42471 7.43381 -12.893
H 8.24642 7.26865 -14.5078
O 14.8775 -9.63413 -5.05658
H -14.9761 -9.63151 -6.04113
H 14.0278 -10.1274 -4.87046
O -10.1457 7.68053 3.43797
H -9.19064 7.41769 3.57511
H -10.3634 8.46241 4.02216
O -4.5086 -9.79112 -14.9752
H -3.84202 -10.477 14.7616
H -4.51213 -9.03174 14.4028
O 10.6663 0.253555 -10.4866
H 11.24 1.06294 -10.3614
H 10.7297 -0.328621 -9.67602
O 11.0999 6.7806 14.235
H 10.4688 6.92583 14.997
H 11.5159 5.87476 14.3147
O -0.401892 -2.39255 5.23621
H -1.11591 -1.81107 4.84625
H 0.448652 -1.87185 5.31005
O -13.424 -5.61873 0.269261
H -13.4903 -4.65626 0.00604821
H -14.2515 -5.88711 0.762557
O 14.7546 -6.07348 6.07457
H -14.4646 -5.83739 6.61232
H 14.5093 -7.02813 6.24321
O 13.7756 -9.00824 6.06288
H 13.9266 -9.93459 5.71776
H 12.9703 -9.0005 6.65567
O 5.34571 6.32596 3.81438
H 5.06372 5.36716 3.84898
H 4.75436 6.82465 3.18065
O 9.94844 2.68652 -7.16803
H 9.81171 3.24795 -7.98418
H 10.5867 3.14609 -6.55043
O -0.645564 13.873 11.5548
H -0.205736 12.9752 11.5794
H -0.958714 14.116 12.4729
O -10.5748 -2.45595 -5.6138
H -10.2972 -1.49547 -5.59327
H -10.6173 -2.81067 -4.67979
O -8.14464 -4.20023 8.55987
H -7.80342 -4.33342 9.49037
H -9.14021 -4.29413 8.5533
O 6.75529 -2.55333 -10.069
H 7.13925 -3.46345 -9.91324
H 5.83793 -2.50646 -9.67369
O -5.115 -7.04105 13.8347
H -5.37047 -6.53038 14.6556
H -5.84183 -6.96078 13.1525
O 11.7949 -2.77893 4.82292
H 12.0544 -3.12478 5.7246
H 12.3032 -1.93998 4.62869
O 11.1897 -11.1866 13.7269
H 10.2483 -10.8495 13.7116
H 11.347 -11.6976 14.5719
O -9.34747 0.168462 -3.75824
H -8.5759 0.498085 -3.21414
H -9.20808 0.414333 -4.71747
O 2.05859 -0.935519 5.7539
H 2.49845 -0.335023 6.42169
H 2.70727 -1.63673 5.45805
O 1.01172 -7.74297 5.75572
H 0.41818 -7.21063 5.15212
H 0.576202 -7.83992 6.65067
O -13.402 14.7879 13.8846
H -14.1336 14.4963 13.2684
H -13.0983 14.0091 14.4335
O 11.3505 6.74492 0.171095
H 10.7018 7.08012 0.854318
H 11.8203 5.93661 0.525918
O -2.78183 10.6251 -14.3165
H -2.56745 11.1252 14.8731
H -3.15349 11.2578 -13.6372
O 7.52364 -0.685616 2.21285
H 8.50424 -0.513009 2.30572
H 7.04081 0.183611 2.10642
O -9.3944 5.91448 12.0675
H -9.55752 6.09698 13.037
H -9.34637 4.92693 11.9176
O 4.87129 -0.78405 -1.9743
H 5.31741 -1.5713 -1.54859
H 5.5315 -0.0393359 -2.07195
O -7.50945 0.764924 8.35928
H -7.27468 1.18528 9.23575
H -8.01898 1.41995 7.80132
O -5.63083 9.25012 -9.00616
H -4.71048 8.88271 -8.87211
H -6.08256 9.34924 -8.11953
O 5.23734 4.51864 12.8182
H 4.82429 3.65623 12.5256
H 6.22517 4.48341 12.6667
O -13.4479 -11.674 7.24157
H -13.1373 -11.3356 6.35326
H -12.7711 -12.3108 7.61084
O -0.127231 3.46407 7.60847
H -0.0171496 4.31411 7.09337
H -1.0333 3.08072 7.42932
O 2.35144 -13.2723 2.1814
H 2.51766 -12.7597 3.02379
H 1.48538 -13.7665 2.2573
O -10.0671 1.44476 9.80681
H -10.5499 1.67862 8.96289
H -9.38074 0.743292 9.61472
O -4.89833 -1.01511 14.8978
H -5.29245 -0.104092 -15.0096
H -5.55972 -1.60551 14.4352
O 7.52424 -6.70957 14.2356
H 8.00402 -7.46539 14.6812
H 7.85486 -6.61213 13.2969
O -1.11449 1.945 -7.90367
H -0.997497 1.05556 -7.46182
H -1.24609 1.81428 -8.88632
O -12.2437 -4.7509 -5.66107
H -11.542 -4.69301 -6.37122
H -12.9018 -5.46485 -5.90017
O -11.3978 -12.8196 -13.7086
H -11.7033 -13.6163 -13.1871
H -10.4006 -12.7569 -13.6679
O 9.4961 10.4879 4.70391
H 9.73482 9.52275 4.81105
H 9.75348 10.9887 5.53036
O -1.99344 9.06757 1.01209
H -1.16151 8.59756 1.30702
H -2.79389 8.56009 1.33108
O 7.2624 6.8608 5.81951
H 6.52431 6.60224 5.19631
H 6.95261 7.60356 6.41309
O 10.1857 -1.16299 -8.22248
H 10.1758 -1.6156 -7.33083
H 9.2693 -0.823268 -8.43406
O 14.229 -0.735633 2.90412
H -14.8616 -1.07455 2.83267
H 13.8021 -0.743034 1.99983
O 9.67613 7.48833 2.31343
H 9.0463 8.26403 2.27336
H 9.15409 6.6385 2.38598
O -12.7498 -3.20204 -14.4041
H -12.3895 -3.95986 -14.9481
H -13.7349 -3.3202 -14.2792
O -11.7452 -14.2067 12.271
H -12.1984 -14.6698 13.0326
H -12.2591 -14.3692 11.4287
O 0.96492 -14.1449 -6.57863
H 0.13181 -14.6958 -6.62862
H 0.90552 -13.3906 -7.2325
O -1.64498 -14.9553 -9.87296
H -2.33284 14.7802 -10.537
H -1.31279 14.279 -9.36438
O 1.97836 -3.86365 8.32371
H 2.60205 -3.30913 7.77278
H 1.04456 -3.75227 7.98369
O -3.84937 -14.2547 14.4179
H -4.50118 -14.087 -14.8712
H -4.34271 -14.3436 13.5526
O -4.5648 -9.79428 -4.63922
H -4.85205 -8.84732 -4.7833
H -5.35741 -10.3988 -4.7188
O -7.645 15.0041 1.06367
H -7.17487 -14.5794 1.82579
H -6.99427 14.8357 0.323273
O -5.38319 6.20937 -3.37661
H -6.38199 6.17019 -3.34706
H -5.08299 6.35243 -4.3197
O 8.29061 -12.4722 13.6544
H 7.8641 -11.7698 13.0846
H 8.37364 -12.1355 14.5924
O -4.52444 -0.0249387 10.4245
H -4.42251 -0.876704 10.9384
H -3.62604 0.39362 10.2915
O -5.83776 7.23323 -14.5833
H -4.98731 7.69572 -14.834
H -5.89213 7.15196 -13.5881
O -1.54988 12.4458 -8.77154
H -1.19769 11.5133 -8.85218
H -2.48199 12.4199 -8.41027
O -12.8151 9.02321 -12.869
H -12.6364 8.40771 -12.1014
H -13.414 8.56859 -13.5283
O 3.15072 2.19744 -11.9617
H 2.36807 1.81586 -12.4535
H 3.98171 1.70849 -12.227
O 6.01685 -7.51111 -13.4398
H 6.6111 -7.46775 -14.2429
H 5.19469 -6.96595 -13.6037
O -14.4701 0.985632 9.62642
H -14.4194 1.84835 10.1296
H -14.9984 1.11928 8.78798
O -13.9379 -5.94221 14.6651
H -14.5327 -5.27175 -14.9201
H -13.9905 -6.81134 -14.8718
O 11.7708 -8.99242 8.08526
H 12.0227 -9.53232 8.88843
H 10.7747 -8.92799 8.02596
O 7.90297 -5.23597 0.342473
H 7.15348 -4.72056 -0.0730114
H 7.88381 -5.11088 1.33444
O 11.22 -7.61848 2.01615
H 11.2158 -8.13481 2.87253
H 11.5836 -8.19262 1.28255
O 8.25439 13.0572 -14.1287
H 8.39848 12.2137 -14.6462
H 7.29906 13.1109 -13.8381
O 11.194 6.90792 -8.37083
H 11.8738 6.59726 -7.70657
H 11.5363 7.72016 -8.84315
O -3.69218 -2.808 -13.467
H -4.22732 -2.18841 -14.0412
H -2.76557 -2.44727 -13.3608
O -3.16808 9.64901 6.48411
H -2.38815 9.17932 6.07046
H -3.21633 9.42189 7.45679
O -2.83368 -0.0268233 4.11823
H -3.38523 -0.116177 3.28888
H -2.90654 0.907199 4.46794
O -11.9376 -12.9864 -9.33307
H -12.8744 -12.8116 -9.63595
H -11.467 -12.1163 -9.18618
O 14.512 1.35112 -11.6369
H 15.0127 2.19042 -11.8486
H -14.9301 0.73722 -11.1087
O 12.7662 2.80249 -1.64914
H 11.8915 2.32954 -1.54269
H 13.4623 2.34417 -1.0966
O 7.44014 11.7929 -3.18703
H 7.58639 12.7258 -2.85783
H 8.0649 11.171 -2.71485
O 7.56262 -0.226771 -8.70537
H 7.27742 -0.940794 -9.34477
H 7.26352 0.664573 -9.04603
O -7.47405 -4.34642 2.42556
H -8.19951 -3.79011 2.0203
H -7.85168 -5.22501 2.71795
O -3.58487 12.4712 3.72619
H -3.85663 12.4901 4.68837
H -3.73714 13.3717 3.31903
O 4.27489 6.63189 -1.43469
H 3.27595 6.60141 -1.40006
H 4.57896 6.52606 -2.38145
O 10.4852 12.2259 13.8212
H 10.7216 11.746 14.666
H 11.1232 12.9825 13.6779
O 11.6516 13.197 -0.711699
H 11.3279 13.1328 -1.65568
H 12.6405 13.3454 -0.707819
O 1.78152 0.438095 -7.6232
H 1.35575 0.221229 -8.50166
H 1.55976 -0.276608 -6.95985
O -2.76874 0.99283 8.66088
H -2.73743 1.97344 8.85437
H -3.50677 0.804326 8.01298
O 4.04807 -10.084 8.99573
H 3.71854 -9.49893 9.73679
H 4.47415 -9.51882 8.28927
O 4.79833 12.1107 -10.3219
H 4.21677 11.6011 -9.68779
H 4.84972 13.0665 -10.0323
O 10.8312 13.7167 -3.33328
H 11.8228 13.8144 -3.41853
H 10.4598 13.3356 -4.17994
O -5.7964 1.44268 -14.9888
H -5.43514 1.75244 -14.1093
H -6.79377 1.38964 -14.9394
O -4.90335 8.28052 4.61065
H -4.39096 7.89193 3.84484
H -4.26724 8.69731 5.26
O -11.7441 0.914691 -2.77418
H -11.7289 1.91457 -2.77869
H -11.0055 0.567496 -3.35204
O -9.35452 0.621083 -6.36196
H -8.98554 0.373884 -7.25792
H -9.69056 1.56257 -6.38809
O -11.9336 2.1866 -11.9968
H -12.4868 1.3925 -12.2485
H -12.5335 2.96329 -11.8045
O -6.30814 -9.96829 -8.06009
H -5.69997 -10.5508 -7.52083
H -6.9646 -10.5386 -8.55389
O 5.20875 5.91716 8.34918
H 4.98676 6.82362 7.98995
H 5.44445 5.99119 9.31819
O -4.60585 -8.96299 5.70546
H -4.78849 -8.07894 5.27523
H -4.13141 -8.81934 6.57396
O -9.81534 9.92924 7.99382
H -9.68615 9.00473 8.35243
H -9.9937 9.88359 7.01092
O 6.99456 -12.1534 -2.25855
H 7.35352 -11.3931 -1.71707
H 7.23016 -12.0176 -3.22087
O -2.70714 6.30384 -12.9595
H -2.73173 6.35827 -11.9613
H -3.13735 5.45173 -13.2576
O -2.18871 -1.82226 11.1551
H -1.61701 -2.64208 11.1227
H -3.13167 -2.08151 11.3639
O -1.46268 3.00164 -3.53167
H -2.21897 3.25029 -2.92652
H -1.51862 2.02787 -3.75226
O -7.16149 6.59842 9.4201
H -7.45603 5.80779 8.8833
H -7.96249 7.12493 9.70505
O 14.5515 -12.1453 -12.0917
H -15.0061 -12.7241 -12.7574
H 14.4125 -11.2347 -12.481
O -11.7395 4.2904 -4.57151
H -11.1835 3.96412 -3.80701
H -12.3483 5.01754 -4.25439
O 10.6234 3.71164 2.47167
H 11.4407 3.95636 1.95003
H 10.8907 3.40243 3.38434
O -11.8373 -6.00918 3.46024
H -12.7931 -5.8899 3.19168
H -11.3352 -6.45218 2.71751
O 11.9465 2.8964 -10.0095
H 12.6537 3.51757 -10.3471
H 11.1214 3.41765 -9.79165
O 14.2886 -5.11348 -11.78
H 14.2925 -4.23053 -11.3105
H 13.8916 -5.80817 -11.1801
O 10.0913 10.8022 -12.1112
H 10.0437 11.7984 -12.1844
H 10.9268 10.4751 -12.5527
O 4.8391 -6.39168 13.0379
H 5.77855 -6.56931 13.331
H 4.6975 -5.40546 12.9522
O -9.12354 -13.7251 -12.1114
H -8.64506 -14.3652 -11.5103
H -8.56631 -12.904 -12.235
O -6.87494 1.2574 -12.0614
H -6.63496 1.33308 -11.0936
H -7.44283 0.44631 -12.2016
O 5.18011 -14.6568 3.228
H 4.27146 -14.2436 3.28825
H 5.3821 14.8854 4.07803
O -5.70845 3.45042 -6.83844
H -5.61101 2.57518 -6.36467
H -6.52132 3.92417 -6.49959
O -11.0914 -12.6894 -3.12058
H -10.4876 -12.7452 -2.32538
H -10.6148 -12.2287 -3.86931
O -8.11102 10.6675 4.69816
H -7.83527 9.97711 5.36702
H -9.10763 10.7497 4.69561
O -12.4053 11.9354 0.834058
H -12.7089 11.0476 1.17973
H -11.8707 11.8031 -0.000621971
O 3.50891 4.93563 -12.1323
H 3.65036 4.94884 -11.1424
H 3.28298 4.00629 -12.4243
O -10.5796 12.8819 9.93916
H -10.086 12.9101 9.06993
H -10.9317 11.9586 10.0927
O 9.17786 -1.26414 10.8948
H 8.41822 -0.625335 11.0168
H 9.89968 -1.0535 11.554
O -7.85698 5.73418 14.5721
H -7.24212 6.48996 14.7974
H -7.46709 5.1994 13.8225
O 10.0181 -14.9325 9.50002
H 10.908 -14.5073 9.33518
H 9.64575 -14.601 10.3669
O -12.1335 6.75835 8.1349
H -12.1004 5.86041 7.69601
H -12.6824 7.38156 7.5779
O 12.1247 -10.401 -4.66652
H 12.3175 -9.92457 -3.80872
H 11.6598 -11.2645 -4.47098
O 12.8938 -9.87102 -13.0744
H 12.2037 -10.474 -13.4747
H 13.0946 -9.12582 -13.7102
O -3.91328 12.5795 -12.5524
H -4.70026 12.909 -13.0741
H -4.16925 12.4785 -11.591
O 5.39822 0.689469 -12.9354
H 6.02753 1.46486 -12.883
H 5.90725 -0.162039 -12.8096
O -6.61493 -6.32402 7.46688
H -5.97968 -6.32361 6.69457
H -7.28749 -5.59397 7.34565
O -9.04764 13.6315 2.93799
H -8.89238 14.3004 3.66495
H -8.42917 13.819 2.17487
O -10.1433 4.66201 4.38015
H -9.61793 5.51285 4.38932
H -10.4027 4.42036 5.31521
O -10.9944 5.36617 14.812
H -10.8291 6.3508 14.7555
H -10.3715 4.96146 -14.5472
O 1.35381 14.869 -2.46326
H 2.22897 14.6358 -2.88722
H 0.9195 -14.4215 -2.97953
O 10.8644 -7.3711 5.00467
H 11.5252 -6.81915 4.49599
H 11.067 -8.34113 4.87055
O 1.87376 -6.25843 -11.1351
H 1.11224 -5.87376 -10.6134
H 2.68916 -5.69586 -10.9985
O 1.14642 2.19784 -13.98
H 1.54872 2.88782 -14.5817
H 0.626063 2.64995 -13.2555
O -4.92489 -14.3973 -9.95707
H -4.52301 -13.5402 -10.2795
H -5.23911 -14.2842 -9.01448
O -5.32786 -14.1178 11.7914
H -4.8755 -13.4822 11.1658
H -6.12335 -13.672 12.2019
O 3.85054 -9.06618 -0.644459
H 4.20661 -9.16295 -1.5739
H 4.33181 -8.32352 -0.17879
O -14.494 -6.32164 -5.0718
H -14.5981 -7.27845 -5.34328
H -14.6414 -6.23684 -4.08637
O -7.75076 -6.82307 3.98033
H -7.6104 -7.76697 3.68138
H -8.32963 -6.81427 4.79571
O 10.8608 -5.1831 9.11925
H 10.9221 -5.56975 10.0394
H 10.2415 -5.73895 8.56469
O 14.0165 11.5881 1.63368
H 14.2594 12.361 1.04748
H 13.0977 11.726 2.00338
O 6.47496 11.9813 8.47679
H 7.33341 12.3116 8.08441
H 5.73391 12.6061 8.231
O -4.70613 1.68928 -0.867243
H -3.87078 1.18143 -1.07768
H -4.55382 2.66397 -1.03095
O -4.74689 -4.57318 -8.81819
H -5.58362 -4.96273 -8.43328
H -3.95346 -4.9477 -8.3384
O -10.401 10.5302 -8.09784
H -10.4894 10.5523 -7.102
H -10.7553 9.66183 -8.44477
O -4.67474 -11.8985 -6.87531
H -4.29816 -12.5052 -6.17528
H -3.93245 -11.5458 -7.44508
O -0.826975 -3.74405 -2.63309
H 0.135975 -3.97395 -2.77407
H -1.12921 -4.10196 -1.74959
O -1.03789 -9.81059 -11.2169
H -0.334899 -10.4017 -11.6123
H -1.71332 -9.58116 -11.9177
O -12.2894 12.5135 14.9412
H -12.5125 12.2685 -14.1439
H -12.9083 12.0359 14.3176
O -13.0901 4.63315 -0.23676
H -12.6837 5.51955 -0.0151082
H -13.9655 4.7741 -0.699162
O -2.1968 6.26049 7.54285
H -1.89804 6.76745 8.3514
H -2.10767 6.84116 6.7336
O 7.04558 0.685798 11.0332
H 7.30473 1.61646 11.2916
H 6.32737 0.720533 10.3383
O -4.18025 0.18373 -10.3908
H -4.88279 0.807211 -10.0477
H -4.41461 -0.754679 -10.1369
O 14.9464 2.45584 0.387908
H -15.0012 1.47335 0.555685
H -14.1753 2.84064 0.216448
O -9.63376 3.69904 1.92296
H -9.76461 4.12438 2.81849
H -8.75043 3.23073 1.90226
O 13.2698 7.46809 -2.45132
H 13.084 8.17441 -3.13439
H 12.4518 7.31781 -1.89616
O 14.2513 0.00869395 11.7876
H 14.044 0.758709 12.4157
H 14.491 0.381305 10.8911
O 13.6155 -4.84064 12.4582
H 14.5491 -5.11216 12.6919
H 13.6399 -4.01798 11.8902
O 12.3963 -10.2477 0.450816
H 11.5679 -10.6242 0.0359996
H 12.701 -10.8478 1.19045
O -3.42747 -5.06321 12.92
H -2.44672 -5.0186 13.1101
H -3.79229 -5.93279 13.2528
O 12.7051 -8.83443 13.7504
H 12.4699 -9.80411 13.8166
H 11.9747 -8.28573 14.1571
O 4.0285 13.3283 7.75145
H 4.02221 13.5409 8.72858
H 3.3285 13.8713 7.28767
O 7.59336 10.1117 -14.3868
H 6.76364 10.1177 -13.8286
H 8.39475 10.0484 -13.792
O 6.19356 -6.91582 -1.78444
H 6.05257 -7.25767 -0.855321
H 5.9253 -7.61921 -2.44269
O -9.87007 4.42894 -10.3519
H -9.86817 3.45406 -10.1291
H -9.72884 4.54651 -11.3349
O 14.3527 -13.2789 6.49796
H 14.4581 -14.264 6.63416
H -14.9982 -12.7919 7.04876
O 14.7931 6.01481 2.56067
H -14.3467 5.70284 2.8962
H 14.9134 6.85183 2.02689
O 5.84367 -10.6854 -13.3437
H 5.4178 -10.8361 -12.4516
H 5.90923 -9.70331 -13.5201
O 5.08091 5.46142 -3.75819
H 5.59946 4.63988 -3.52116
H 5.69725 6.14176 -4.15476
O -2.83249 -13.4214 -5.20309
H -2.54245 -12.7217 -4.55021
H -3.76976 -13.7022 -4.99636
O 5.23316 8.18223 -4.82713
H 4.59613 8.72257 -4.27737
H 6.03908 7.95802 -4.2792
O -2.20803 0.292099 -4.07121
H -1.53494 -0.423936 -4.25631
H -2.64188 0.121092 -3.1866
O -8.9003 -3.39769 11.8909
H -9.52832 -3.41002 12.669
H -9.0299 -2.55315 11.3713
O 5.89974 13.2453 -12.7709
H 5.7733 14.2275 -12.9103
H 5.32627 12.94 -12.0107
O 4.75621 14.2541 -8.85366
H 5.25858 -14.9282 -9.03066
H 3.79633 14.468 -8.67224
O -11.9372 14.6958 -3.77474
H -11.534 -14.5163 -3.36174
H -11.5962 14.5918 -4.70904
O -8.99843 2.54584 6.70491
H -8.10389 2.77213 6.31943
H -9.38689 1.7677 6.21135
O -3.28219 14.4635 1.70623
H -2.76094 -14.7467 1.46463
H -4.12662 14.731 2.17031
O 13.0192 -6.24825 -0.832171
H 13.5343 -6.44854 0.00123802
H 12.2973 -5.58735 -0.627099
O 1.7969 -2.74314 -8.67187
H 1.41661 -2.01806 -9.24602
H 1.57992 -3.63352 -9.07206
O 6.35545 14.5028 6.08813
H 5.55325 14.5974 6.67764
H 7.02804 13.9113 6.53285
O -7.09957 10.3108 -10.9846
H -6.6689 11.1735 -11.2497
H -6.56841 9.88426 -10.2525
O -14.6409 -14.8535 -2.86239
H -14.6391 -13.854 -2.89389
H -13.7229 14.8337 -3.06429
O 13.5306 13.277 -3.46553
H 14.2155 13.9464 -3.17765
H 13.4832 12.5384 -2.79301
O 7.35661 -10.2039 12.3631
H 6.49814 -10.5128 12.7725
H 7.15923 -9.6034 11.5882
O 3.32169 12.6768 0.338743
H 3.12605 12.2861 -0.560776
H 4.16572 13.2112 0.29364
O 4.82357 7.30818 1.3634
H 5.05553 8.27837 1.43367
H 4.75197 7.05155 0.399549
O -3.27635 13.6539 -2.77256
H -3.02964 14.6019 -2.97339
H -2.75698 13.3351 -1.97969
O -3.703 -9.41165 -12.2482
H -4.29415 -8.67531 -11.9191
H -3.70683 -9.42037 -13.2482
O 4.04682 -5.3685 -13.0761
H 3.92465 -4.58573 -13.6863
H 4.27417 -5.04326 -12.1582
O -4.35816 -11.9233 -11.6195
H -4.13948 -10.9594 -11.4674
H -3.67284 -12.3292 -12.2241
O -7.53016 -1.94625 -1.86549
H -7.78082 -2.87072 -2.15278
H -8.3583 -1.42602 -1.65679
O -10.9129 -5.82297 -13.4625
H -10.6299 -5.5873 -12.5328
H -11.9044 -5.72256 -13.5447
O 0.587304 -1.29564 12.5103
H 0.462139 -2.15889 12.0213
H 0.180972 -0.5508 11.981
O -0.405011 -1.74605 -4.4615
H -0.780513 -2.42569 -3.83134
H 0.592855 -1.74636 -4.39616
O -13.7969 -1.96444 9.97367
H -13.9581 -1.02862 9.66021
H -14.6317 -2.32524 10.3894
O 5.45549 12.0886 11.0768
H 4.83471 11.3194 11.228
H 6.07687 11.8725 10.3237
O 5.80086 13.7843 0.867775
H 6.19854 14.3561 0.150238
H 5.32148 14.3628 1.52769
O -0.487405 8.3997 -5.1619
H 0.282518 8.38358 -5.79984
H -0.622503 7.48568 -4.77937
O 3.00851 -10.7833 -4.45662
H 2.95923 -11.76 -4.66539
H 2.18387 -10.3285 -4.79303
O -9.24356 9.29793 0.327332
H -8.39677 8.76612 0.339151
H -9.75054 9.13625 1.17399
O -9.49927 -9.58171 14.9044
H -9.70572 -10.0572 14.0492
H -9.48198 -8.59521 14.7415
O 2.47052 11.7043 -2.22858
H 2.82603 12.4785 -2.75216
H 1.51666 11.5412 -2.48071
O 2.11473 -6.71157 13.5591
H 3.02611 -6.69338 13.1479
H 1.91496 -7.63525 13.8861
O -13.3814 -0.122863 0.174764
H -13.8289 -0.101392 -0.719234
H -12.8349 0.706101 0.293932
O 3.52679 2.0694 -4.48937
H 2.53799 2.20867 -4.54322
H 3.73051 1.09328 -4.56489
O 11.0509 9.4652 -0.250976
H 11.088 8.59411 0.238747
H 10.9896 10.2154 0.407421
O -5.07373 12.9953 -10.1211
H -5.84241 12.8452 -9.49932
H -4.99061 13.972 -10.3188
O -2.24576 -12.7642 -12.825
H -2.10398 -13.754 -12.84
H -2.39484 -12.4347 -13.7573
O 14.7206 -2.3133 6.91739
H -14.3457 -2.57505 6.84361
H 14.1948 -3.07804 7.28981
O -6.42391 -3.36321 4.73911
H -6.71888 -3.30611 3.7853
H -5.46795 -3.07838 4.80998
O 5.02229 1.44742 5.3473
H 4.14156 1.31634 5.80243
H 5.41171 0.55691 5.11204
O 9.19808 9.10042 8.57784
H 9.22658 8.9198 9.56099
H 10.0227 8.73331 8.14747
O 12.8925 5.73862 -6.54881
H 12.5273 5.2564 -5.75249
H 13.6325 6.34607 -6.26018
O 3.35346 11.2499 -14.6429
H 3.57559 12.1308 14.9678
H 4.17722 10.8583 -14.2329
O -12.3708 5.88278 3.26099
H -11.5877 5.41507 3.67092
H -12.1253 6.83136 3.06118
O 12.4738 8.7734 9.24012
H 11.8817 8.12951 8.75551
H 11.991 9.13454 10.0379
O -13.1174 12.287 -3.45023
H -13.3423 12.1747 -4.41813
H -12.5163 13.0781 -3.33731
O -10.7389 10.7389 -2.92558
H -11.5874 11.2652 -2.98076
H -10.195 11.0635 -2.15173
O 8.38348 -11.3675 -13.9341
H 8.81928 -11.5902 -13.0621
H 7.39381 -11.304 -13.8055
O 13.0008 10.9695 -2.2251
H 12.2513 10.5877 -1.68429
H 12.9624 10.6018 -3.15427
O 1.76914 -0.45653 -12.9599
H 2.33054 -1.10846 -13.4696
H 1.57161 0.335882 -13.537
O 7.3745 -3.35699 -14.6882
H 7.28379 -2.66584 -13.9712
H 8.31716 -3.68985 -14.7129
O -3.52059 1.19791 -13.0388
H -4.03153 0.768691 -12.294
H -2.88992 0.53205 -13.4374
O -1.42128 6.80567 10.3068
H -0.457322 6.56057 10.2033
H -1.7316 6.55733 11.2245
O -11.0054 -9.96372 -1.84308
H -11.6942 -9.94495 -1.11832
H -10.3853 -10.7339 -1.69377
O 14.5267 -11.3837 11.8621
H 14.8501 -10.8923 12.6708
H 13.8687 -12.084 12.1387
O 2.21856 -10.2434 -11.6104
H 1.95013 -9.30478 -11.827
H 1.49158 -10.8708 -11.8894
O -7.54701 2.15252 1.50105
H -6.7448 2.74847 1.53739
H -7.28303 1.2602 1.13488
O 6.30813 9.0475 7.34438
H 5.82403 9.76155 6.83863
H 7.15837 9.42034 7.71598
O 12.8748 -13.0474 12.7887
H 12.6684 -13.9251 13.2212
H 12.3578 -12.3221 13.2433
O -2.74968 -8.62523 1.00845
H -2.70966 -7.63021 1.09978
H -2.15312 -9.04689 1.69133
O -13.0424 8.76162 -7.17308
H -13.5632 8.86449 -8.02051
H -13.5976 8.27663 -6.4974
O 2.26341 10.987 -6.12797
H 3.11981 11.5029 -6.14828
H 1.67957 11.3389 -5.39632
O 8.65365 6.57183 -1.06722
H 9.65342 6.57318 -1.04558
H 8.30083 6.89699 -0.189846
O 13.7674 8.71438 6.02711
H 13.3214 7.98058 6.53956
H 13.4048 8.73843 5.09549
O 13.2951 -13.2626 -7.31034
H 12.3444 -13.1008 -7.04582
H 13.8987 -12.7014 -6.74405
O 12.6823 -4.17281 6.9431
H 13.3591 -4.8779 6.73148
H 12.2078 -4.41004 7.79075
O -1.60023 13.9974 -12.6495
H -2.52596 13.6267 -12.5746
H -1.19257 13.7039 -13.5142
O 2.27718 7.73874 6.55361
H 2.35896 7.72067 7.5501
H 2.86325 8.45984 6.1841
O -9.81591 -6.13096 -7.6281
H -10.4061 -6.83531 -8.02255
H -9.35385 -5.63367 -8.36241
O 1.06378 -12.7063 14.8906
H 0.996331 -12.0741 -14.3662
H 0.570803 -12.329 14.1066
O -1.25565 11.3267 2.94151
H -1.54309 10.4323 2.59874
H -2.06063 11.8535 3.21444
O 3.96709 10.0158 2.98772
H 3.10852 10.4697 2.74924
H 4.02198 9.90674 3.98024
O 4.34859 -3.53665 -14.7501
H 4.03128 -2.83955 14.6356
H 5.34807 -3.53057 -14.7184
O -5.16676 -2.27102 -10.0084
H -5.74414 -2.52805 -10.7834
H -5.00379 -3.073 -9.43374
O -8.05298 -11.3728 -9.34131
H -8.14673 -11.7093 -10.2783
H -8.95766 -11.1632 -8.97035
O 3.89924 4.55735 6.45843
H 4.33938 4.36437 5.58148
H 4.58727 4.86307 7.11657
O 3.9049 5.2954 -9.4354
H 4.11969 4.752 -8.62387
H 4.7229 5.78764 -9.73302
O 2.02378 -10.5525 5.86687
H 2.77864 -10.8018 5.26021
H 1.77782 -9.59491 5.71674
O -9.11257 7.36557 -2.0983
H -8.99179 8.17246 -1.52006
H -9.30661 6.57011 -1.52419
O 7.92897 -7.31222 4.82938
H 7.62807 -7.79254 4.00551
H 8.90043 -7.49209 4.984
O -0.771772 9.61086 -8.98245
H -0.13122 9.36401 -8.25529
H -0.276564 9.70064 -9.84657
O 2.21713 4.05857 14.447
H 2.05762 4.99639 14.7553
H 2.7245 4.07272 13.5854
O -2.43189 -6.55515 -14.2776
H -1.69571 -6.17329 -13.7188
H -2.09461 -7.35737 -14.7702
O 10.7764 -9.69884 -8.70261
H 10.9475 -9.10214 -7.91859
H 11.5151 -9.59433 -9.36847
O 11.5585 3.99147 -4.50182
H 11.0568 3.7826 -3.66237
H 12.1932 3.24585 -4.70512
O -2.42227 -11.8432 14.6497
H -3.01066 -12.5706 14.2966
H -1.79803 -11.5403 13.9295
O 6.90731 -12.4163 3.16094
H 6.40461 -13.2477 2.92429
H 6.61535 -12.0953 4.0619
O 11.2373 -8.33756 -6.50233
H 10.3031 -8.13628 -6.20773
H 11.5793 -9.13451 -6.00447
O -9.777 -8.77369 -10.8144
H -10.5294 -8.67378 -11.4655
H -8.97866 -8.27234 -11.1481
O -14.3339 -7.60093 10.2242
H -14.3291 -7.68368 11.2208
H -14.2084 -8.5043 9.81414
O 11.1639 0.13732 12.6887
H 10.9857 1.09424 12.4594
H 12.1509 -0.0141435 12.7432
O -7.28313 -7.44638 12.2146
H -7.12188 -8.39975 12.4697
H -8.21207 -7.18398 12.4757
O 0.109073 -4.81329 -9.65239
H -0.763457 -4.4359 -9.96268
H 0.0535298 -5.02216 -8.67603
O -7.91845 5.0627 -6.68831
H -8.24238 5.81459 -6.11409
H -7.8167 5.38262 -7.63028
O -2.18501 -5.89162 -5.66802
H -1.45958 -5.35386 -6.09763
H -2.72687 -5.30198 -5.06908
O 7.34518 -11.2273 -4.85937
H 6.68001 -11.8434 -5.2813
H 7.75738 -10.6491 -5.56347
O -0.383635 -0.879999 8.94724
H -0.0550144 -1.55207 9.61082
H -1.29892 -0.573509 9.20862
O -13.6905 6.31947 -3.42553
H -14.4536 5.99094 -2.86891
H -13.2614 7.10195 -2.9743
O 8.58039 -3.71037 -4.85674
H 8.55157 -4.26449 -4.0248
H 7.6783 -3.70987 -5.28831
O -14.9117 12.5515 9.36028
H 14.7102 13.2012 8.71804
H -14.2016 12.0231 8.89502
O 14.3664 13.6396 0.0135313
H 14.8496 13.9976 -0.785419
H 13.9341 14.394 0.507377
O -9.52809 3.28617 11.7441
H -8.90788 2.90649 12.4305
H -9.55203 2.68324 10.9466
O -12.1492 -2.76523 12.9047
H -12.9892 -2.58172 13.4152
H -11.8254 -1.9195 12.4805
O 9.99807 0.0128322 3.1051
H 10.3955 0.549584 3.8494
H 10.2032 0.452519 2.23068
O -4.8608 -3.37238 1.71838
H -4.9527 -2.55473 2.28671
H -5.74353 -3.8386 1.6599
O 1.94111 -8.0668 -4.01399
H 0.96956 -8.05995 -4.25072
H 2.04244 -8.01679 -3.02039
O 5.60739 14.3469 -6.17881
H 5.52176 -14.7375 -5.86098
H 5.22742 14.2697 -7.10059
O 7.38831 -1.39188 -12.6291
H 7.06219 -1.74496 -11.7522
H 7.90274 -0.547759 -12.478
O -4.6931 8.94579 -1.8121
H -3.83066 9.44882 -1.75592
H -4.61596 8.22823 -2.50431
O 10.1669 -2.67838 -13.0091
H 10.5379 -2.19164 -13.7999
H 9.54786 -2.07481 -12.5066
O -3.55447 1.33239 -6.7334
H -3.10185 1.94341 -7.38286
H -2.90252 0.645631 -6.41194
O 5.97983 -14.9852 13.4984
H 6.14503 -14.6654 14.4314
H 6.76095 14.5013 13.1887
O -5.84921 -13.3296 -14.3431
H -6.5692 -13.0848 -14.9925
H -5.94166 -12.773 -13.5175
O 1.68833 -13.9803 10.0243
H 2.21315 -14.2989 10.8136
H 1.88894 -13.0148 9.85831
O 7.82317 -0.331648 7.24871
H 7.7525 -1.04191 6.54832
H 7.2265 -0.561252 8.01765
O -6.1169 11.6556 -6.22354
H -6.68069 10.8323 -6.28888
H -6.2263 12.0634 -5.31704
O -13.4681 -5.57264 8.9193
H -13.7849 -6.32104 9.50202
H -13.9534 -4.73272 9.16224
O -8.99113 -14.0366 -6.10697
H -8.1461 -14.156 -6.6282
H -9.74906 -14.4662 -6.59784
O -5.4451 7.65342 -11.7795
H -6.04623 8.35901 -11.4043
H -4.89745 7.25604 -11.0432
O -6.35871 13.1226 -4.09409
H -5.82136 12.7491 -3.33793
H -7.101 13.6849 -3.72965
O -11.9623 -7.54029 -8.86418
H -11.8515 -8.23022 -8.14883
H -12.8038 -7.02482 -8.7026
O 7.77531 8.39358 -8.36692
H 7.9582 9.02058 -7.60967
H 7.64361 7.4689 -8.00965
O 1.21778 7.78487 -1.60895
H 0.723092 8.64567 -1.72854
H 1.51744 7.44596 -2.50078
O -14.2138 -4.16873 3.20899
H -14.2664 -4.13563 4.20706
H -13.8401 -3.30689 2.86614
O 0.137583 12.5989 -4.71003
H -0.576694 13.0654 -5.23176
H 0.446573 13.1904 -3.96529
O 6.14648 -1.6673 -6.3595
H 6.10165 -1.17936 -7.23124
H 6.2595 -2.64602 -6.53078
O -11.7699 -9.79254 12.3948
H -12.663 -9.38192 12.2107
H -11.8908 -10.624 12.937
O 12.0469 -12.7752 9.92403
H 12.1397 -11.7802 9.88559
H 12.6575 -13.1399 10.627
O 9.3832 6.03005 -5.42062
H 10.055 6.76497 -5.32783
H 9.85593 5.14993 -5.46445
O -1.12102 5.46511 -4.69515
H -1.28457 4.76647 -3.99861
H -0.164687 5.42911 -4.98523
O 7.06714 7.4177 14.4027
H 6.70263 7.79177 13.5499
H 6.3168 7.05412 14.9548
O -11.0565 -3.37589 3.48638
H -10.1067 -3.16325 3.2568
H -11.2365 -4.34155 3.29905
O 4.11316 2.12529 12.158
H 4.31787 1.50999 12.9192
H 3.13111 2.3126 12.1356
O 4.03414 1.85434 -7.23399
H 3.18125 1.38342 -7.45944
H 4.07935 2.00766 -6.24685
O -13.7814 4.33026 -14.0861
H -12.8575 4.47394 -14.4408
H -13.7353 4.12957 -13.1076
O 9.36233 -3.14142 3.61594
H 10.2736 -3.23534 4.01679
H 9.26959 -2.2331 3.20807