LAMMPS data file via write_data, version 15 May 2015, timestep = 1190000

4560 atoms
7 atom types
5040 bonds
3 bond types
7200 angles
2 angle types
10560 dihedrals
3 dihedral types
2400 impropers
1 improper types

-1.0763502675555259e-01 4.1387635026745990e+01 xlo xhi
-4.0433884491974936e-02 3.5938433884472119e+01 ylo yhi
-3.5711112484589691e-01 2.9555111124838550e+01 zlo zhi
-6.7234083837551181e-02 -1.7036217651000683e+01 -4.1707816797290791e-02 xy xz yz

Masses

1 12.0107
2 1.008
3 12.0107
4 12.0107
5 12.0107
6 12.0107
7 12.0107

Pair Coeffs # lj/cut/coul/long

1 0 3.55
2 0 2.42
3 0 3.55
4 0 3.55
5 0 3.55
6 0 0
7 0 3.55

Bond Coeffs # harmonic

1 469 1.4
2 367 1.08
3 469 0.7

Angle Coeffs # harmonic

1 35 120
2 63 120

Dihedral Coeffs # opls

1 0 7.25 0 0
2 0 7.25 0 0
3 0 7.25 0 0

Improper Coeffs # cvff

1 2.5 -1 2

Atoms # full

219 13 3 0.0000000000000000e+00 -2.8948385766272966e-01 3.0955900583603455e+00 3.1407601503788318e+00 1 0 0
220 13 4 -1.1140000000000000e-01 2.9732210742897469e-01 4.1193678768534996e+00 2.3798967183879149e+00 1 0 0
224 13 2 1.1140000000000000e-01 4.4978546198513314e-01 5.1073574520721206e+00 2.7732655293241266e+00 1 0 0
580 33 4 -1.1140000000000000e-01 2.6653222497267945e+00 6.7465940527997743e+00 3.9738946410551854e+00 1 0 0
228 13 3 0.0000000000000000e+00 -5.8133235038453868e-01 1.8617254040050810e+00 2.5680638397076949e+00 1 0 0
989 53 4 -1.1140000000000000e-01 -1.3709015368621325e+00 7.0342101095968674e+00 3.5266656012095212e+00 1 0 0
600 34 2 1.1140000000000000e-01 6.6913142036729489e-02 5.8280109810097525e+00 6.9234379368279013e+00 1 0 0
245 14 4 -1.1140000000000000e-01 -4.9261918413365793e+00 1.4167297132235890e+00 9.0561454711831324e+00 1 0 0
227 13 4 -1.1140000000000000e-01 -1.9149467693448730e-01 1.5500646148675752e+00 1.2468387570980073e+00 1 0 0
4390 233 1 -1.1140000000000000e-01 2.2642884836360166e+00 6.9433676684336132e-01 5.4552405076841906e+00 1 1 0
733 13 6 0.0000000000000000e+00 -4.4920328707221713e-01 2.4305139924485237e+00 2.9404548860440674e+00 1 0 0
987 53 4 -1.1140000000000000e-01 -7.7710113010873949e-01 7.9709841279362577e+00 1.3403102555061075e+00 1 0 0
230 13 1 -1.1140000000000000e-01 6.0160985200133976e-01 3.9319441621577824e+00 9.9538632524340409e-01 1 0 0
217 13 7 -1.1140000000000000e-01 -1.1953598881963206e+00 2.3295045996830188e+00 5.2176614602798947e+00 1 0 0
218 13 5 -1.1140000000000000e-01 -6.0363776296581895e-01 3.3757668345301810e+00 4.4908086887511836e+00 1 0 0
221 13 1 -1.1140000000000000e-01 -1.5379412990188985e+00 1.0836747688254216e+00 4.6742721528255915e+00 1 0 0
222 13 2 1.1140000000000000e-01 -1.5464684675406351e+00 2.5113403266186345e+00 6.2306132837318113e+00 1 0 0
223 13 2 1.1140000000000000e-01 -3.9574417528571804e-01 4.4041590240333086e+00 4.7743075491263349e+00 1 0 0
248 14 1 -1.1140000000000000e-01 -3.5659347186091033e+00 3.3637391965816228e+00 8.6624601497688900e+00 1 0 0
4380 233 4 -1.1140000000000000e-01 2.5665752268675233e+00 1.1145305837570139e+00 4.1561246556510927e+00 1 1 0
244 14 1 -1.1140000000000000e-01 -4.2109266702215349e+00 2.2201729541956579e+00 8.1646956258008494e+00 1 0 0
603 34 2 1.1140000000000000e-01 1.0652855792642457e+00 3.6540229454159983e+00 7.5365419526202793e+00 1 0 0
4396 234 5 -1.1140000000000000e-01 -7.3878519768421391e-01 2.2594382518863090e-01 9.2447110064405571e+00 1 1 0
4394 233 2 1.1140000000000000e-01 1.7735058656525902e+00 1.3161049336363635e+00 6.1651732354669804e+00 1 1 0
579 33 3 0.0000000000000000e+00 3.3888208375193161e+00 5.8599358324176825e+00 3.1856523585967329e+00 1 0 0
252 14 2 1.1140000000000000e-01 -2.9840899045558187e+00 3.9348577231289630e+00 7.9155945972283028e+00 1 0 0
581 33 1 -1.1140000000000000e-01 4.7791660235645788e+00 4.0555757660549494e+00 1.5356906181406826e+00 1 0 0
596 34 5 -1.1140000000000000e-01 -5.3543726239057055e-01 6.3394359902867414e+00 8.8900782540534689e+00 1 0 0
577 33 7 -1.1140000000000000e-01 4.2284648609400444e+00 5.2016823981591145e+00 9.7097957293420434e-01 1 0 0
588 33 3 0.0000000000000000e+00 3.8451620128266604e+00 4.6272660216234751e+00 3.7505440066611326e+00 1 0 0
589 33 4 -1.1140000000000000e-01 4.5305661431371265e+00 3.7342152732315217e+00 2.8742272017754580e+00 1 0 0
593 33 2 1.1140000000000000e-01 4.9162795862344009e+00 2.8319978569388247e+00 3.3468195604243065e+00 1 0 0
753 33 6 0.0000000000000000e+00 3.6384230650091700e+00 5.1853460957315178e+00 3.3035889391867577e+00 1 0 0
4383 233 2 1.1140000000000000e-01 2.9907343575488574e+00 1.4039353321000874e+00 1.4789727095201213e+00 1 1 0
4379 233 3 0.0000000000000000e+00 3.3047542705366681e+00 2.5937920577100959e-01 3.2868095075566286e+00 1 1 0
578 33 5 -1.1140000000000000e-01 3.4939883850861322e+00 6.1268673436945242e+00 1.8017479437057062e+00 1 0 0
226 13 1 -1.1140000000000000e-01 3.6091186359607369e-01 2.5870016784631020e+00 4.8553526964570515e-01 1 0 0
4384 233 2 1.1140000000000000e-01 2.2191277035477688e+00 2.0740437457638357e+00 3.9004991857260638e+00 1 1 0
586 33 1 -1.1140000000000000e-01 3.2132020868196829e+00 5.4222192814575996e+00 5.8808442874488911e+00 1 0 0
587 33 4 -1.1140000000000000e-01 3.8001826398019043e+00 4.4331692148413975e+00 5.1799804297755170e+00 1 0 0
585 33 2 1.1140000000000000e-01 5.3564632646947672e+00 3.3753977026403561e+00 8.6962894094869903e-01 1 0 0
591 33 2 1.1140000000000000e-01 3.1842243802413446e+00 5.2673463319203018e+00 6.9366971671654181e+00 1 0 0
592 33 2 1.1140000000000000e-01 4.1906722581727109e+00 3.4776268543126432e+00 5.6097426781171134e+00 1 0 0
590 33 1 -1.1140000000000000e-01 2.5512021139399272e+00 6.5424516148080256e+00 5.2955649337386088e+00 1 0 0
1064 57 2 1.1140000000000000e-01 7.4096857906194451e+00 6.3495246169124888e+00 8.8667485667992363e-01 1 0 0
234 13 2 1.1140000000000000e-01 1.0219887660154421e+00 4.7163432844286826e+00 3.7369612495652860e-01 1 0 0
229 13 4 -1.1140000000000000e-01 -1.2105170173888415e+00 8.4453294643937227e-01 3.3368400684597890e+00 1 0 0
993 53 2 1.1140000000000000e-01 -1.7342033322824688e+00 6.0889446192200127e+00 3.0772575849788555e+00 1 0 0
985 53 2 1.1140000000000000e-01 -1.9962319563001805e+00 6.5303441834858029e+00 5.5250224074074152e+00 1 0 0
599 34 1 -1.1140000000000000e-01 5.6565448176105093e-01 4.1972742400426402e+00 8.2477905939927219e+00 1 0 0
4401 234 2 1.1140000000000000e-01 -1.0885447921083911e+00 1.1728965490161214e+00 8.8758043977267427e+00 1 1 0
225 13 2 1.1140000000000000e-01 -1.9158641668119398e+00 3.1254512003458801e-01 5.3541584833730296e+00 1 0 0
595 34 7 -1.1140000000000000e-01 -1.5712156276164180e-02 5.4442463522498743e+00 7.9131504429315651e+00 1 0 0
981 53 1 -1.1140000000000000e-01 -1.5333960392619610e+00 7.2966464994260933e+00 4.9139497606713363e+00 1 0 0
4378 233 5 -1.1140000000000000e-01 3.4420919265403738e+00 5.1442439654943484e-01 1.8981413872542339e+00 1 1 0
582 33 2 1.1140000000000000e-01 4.3428214467378137e+00 5.4444236639619037e+00 -1.0299797774493058e-01 1 0 0
583 33 2 1.1140000000000000e-01 3.1178238376465588e+00 7.0592195175236361e+00 1.4278076453602888e+00 1 0 0
601 34 2 1.1140000000000000e-01 -1.0156918740821306e+00 7.3018134825092433e+00 8.5639371042578052e+00 1 0 0
232 13 2 1.1140000000000000e-01 -4.3766135523290517e-01 6.3140853371643124e-01 7.8010597273510984e-01 1 0 0
1493 53 6 0.0000000000000000e+00 -5.7329217926729692e-01 8.6699276599356399e+00 2.9772696990989309e+00 1 0 0
1009 54 2 1.1140000000000000e-01 -3.6162921083332078e+00 7.6912314798092210e+00 6.9450622381782487e+00 1 0 0
1005 54 4 -1.1140000000000000e-01 -4.5239057912943768e+00 7.1977616928437582e+00 8.9011264514747808e+00 1 0 0
594 33 2 1.1140000000000000e-01 2.1069357373809003e+00 7.3005544172518206e+00 5.9573475076268849e+00 1 0 0
977 53 7 -1.1140000000000000e-01 -1.0299369816320829e+00 8.4663625541187315e+00 5.4721286739221622e+00 1 0 0
982 53 2 1.1140000000000000e-01 -1.1105081497143261e+00 8.6177976181437401e+00 6.5703918074628147e+00 1 0 0
1004 54 1 -1.1140000000000000e-01 -3.7591845701616742e+00 7.9409510993240255e+00 7.9685500255437720e+00 1 0 0
988 53 3 0.0000000000000000e+00 -7.3318287851024411e-01 8.0171135089686718e+00 2.7395913962140934e+00 1 0 0
584 33 2 1.1140000000000000e-01 2.3698319560944179e+00 7.7194790745460509e+00 3.5602625748909289e+00 1 0 0
1353 73 2 1.1140000000000000e-01 5.0467672387474556e+00 8.8156878710647391e+00 2.8710015000522024e+00 1 0 0
1010 54 2 1.1140000000000000e-01 -4.9979822100469296e+00 6.2850130692329325e+00 8.6163676599685406e+00 1 0 0
249 14 2 1.1140000000000000e-01 -4.0770757528339114e+00 1.9683354429341535e+00 7.1362536850609182e+00 1 0 0
986 53 1 -1.1140000000000000e-01 -7.9475964004507405e-02 8.9369704479591388e+00 5.6405670832294819e-01 1 0 0
235 14 7 -1.1140000000000000e-01 -5.1837057962529567e+00 2.2503169632659947e+00 1.3196406741706108e+01 1 0 0
236 14 5 -1.1140000000000000e-01 -4.5461652753498250e+00 3.1569567442602380e+00 1.2342936690968726e+01 1 0 0
597 34 3 0.0000000000000000e+00 -6.4392941379780400e-01 5.8888002750694088e+00 1.0231891506793067e+01 1 0 0
734 14 6 0.0000000000000000e+00 -4.6165613300086434e+00 2.3469108703280308e+00 1.0492437901484053e+01 1 0 0
239 14 1 -1.1140000000000000e-01 -5.8273835469942199e+00 1.0760920873581592e+00 1.2602758412048651e+01 1 0 0
240 14 2 1.1140000000000000e-01 -5.3292224062669682e+00 2.4231240753181149e+00 1.4257613921309092e+01 1 0 0
243 14 2 1.1140000000000000e-01 -6.4131641801919930e+00 3.3992498723851972e-01 1.3111114219150034e+01 1 0 0
4416 235 4 -1.1140000000000000e-01 -5.8569771057966742e+00 8.9127149586153265e-01 1.9057968611279822e+01 1 1 0
4420 235 2 1.1140000000000000e-01 -6.0920197952941963e+00 1.8793249972388566e+00 1.8673789635759420e+01 1 1 0
237 14 3 0.0000000000000000e+00 -4.4391943830195251e+00 2.9159313392224320e+00 1.0941771372979694e+01 1 0 0
4402 234 2 1.1140000000000000e-01 -1.8247590487485468e+00 1.7589245981024602e+00 1.1058977103341526e+01 1 1 0
1029 55 2 1.1140000000000000e-01 -1.0305870760621147e+01 5.9163280942658139e+00 1.7885903276496393e+01 1 0 0
242 14 2 1.1140000000000000e-01 -3.1683746672459008e+00 4.6058792938672957e+00 1.0342934335642498e+01 1 0 0
255 15 3 0.0000000000000000e+00 -8.7502681560089766e+00 3.1107426996552414e+00 1.8180178290171394e+01 1 0 0
256 15 4 -1.1140000000000000e-01 -8.0516457287866157e+00 3.8993275062636674e+00 1.7193122883514921e+01 1 0 0
260 15 2 1.1140000000000000e-01 -7.6081177797370731e+00 4.8822165890246119e+00 1.7353639057400748e+01 1 0 0
269 15 2 1.1140000000000000e-01 -1.0534316123964306e+01 1.9620670880045765e-01 1.8510178925353131e+01 1 0 0
4414 235 5 -1.1140000000000000e-01 -4.9103334302242025e+00 3.5708477083969620e-01 1.6855317726763495e+01 1 1 0
264 15 3 0.0000000000000000e+00 -9.2981105632627070e+00 1.8680334960953315e+00 1.7807808432065400e+01 1 0 0
262 15 1 -1.1140000000000000e-01 -8.5230186701498436e+00 2.1407548731876789e+00 1.5562789773636311e+01 1 0 0
266 15 1 -1.1140000000000000e-01 -8.0388700133983928e+00 3.4201985759821341e+00 1.5897227247440075e+01 1 0 0
4408 234 1 -1.1140000000000000e-01 -1.7664366742022537e+00 3.6578906211769480e-01 1.2696080323367106e+01 1 1 0
238 14 4 -1.1140000000000000e-01 -3.7136366483359078e+00 3.7506088008355261e+00 1.0031959975076683e+01 1 0 0
263 15 4 -1.1140000000000000e-01 -9.1596760606800309e+00 1.4056734360695746e+00 1.6527657420132350e+01 1 0 0
735 15 6 0.0000000000000000e+00 -8.9341010736051487e+00 2.4231706193244351e+00 1.8048810469021596e+01 1 0 0
246 14 3 0.0000000000000000e+00 -5.0417749745510658e+00 1.7464344557336897e+00 1.0419804529261054e+01 1 0 0
265 15 4 -1.1140000000000000e-01 -1.0043450506574647e+01 1.1264774177382961e+00 1.8747320558311777e+01 1 0 0
604 34 1 -1.1140000000000000e-01 -7.9707609661259493e-01 5.0008213426817889e+00 1.2829859997375410e+01 1 0 0
605 34 4 -1.1140000000000000e-01 -3.8352368422694827e-01 4.1124236375409522e+00 1.1871085214117306e+01 1 0 0
606 34 3 0.0000000000000000e+00 -2.0023852678983012e-01 4.6019022637009952e+00 1.0578590316270306e+01 1 0 0
1022 55 1 -1.1140000000000000e-01 -8.4771557729034459e+00 8.3220500091620178e+00 1.5299815975175239e+01 1 0 0
1007 54 4 -1.1140000000000000e-01 -5.7170846324440543e+00 7.1544908250309236e+00 1.1032518985498072e+01 1 0 0
611 34 2 1.1140000000000000e-01 7.2609644227084758e-01 2.7387178165264769e+00 9.8779102845971938e+00 1 0 0
610 34 2 1.1140000000000000e-01 -1.3171716058122396e-01 3.1335461611457394e+00 1.2168413916082791e+01 1 0 0
241 14 2 1.1140000000000000e-01 -4.2379314281599711e+00 4.0503926202584335e+00 1.2781550561079515e+01 1 0 0
1011 54 2 1.1140000000000000e-01 -6.1188057396715196e+00 6.2534733284983357e+00 1.0643747445664181e+01 1 0 0
598 34 4 -1.1140000000000000e-01 -1.1598842230667863e+00 6.7813625284265742e+00 1.1210529783529465e+01 1 0 0
754 34 6 0.0000000000000000e+00 -4.5201980107129813e-01 5.2799025706608349e+00 1.0473220319143069e+01 1 0 0
609 34 2 1.1140000000000000e-01 -7.4301536120933154e-01 4.6268909679586088e+00 1.3824713439653760e+01 1 0 0
613 35 7 -1.1140000000000000e-01 -4.6931150783126814e+00 5.5810760154301944e+00 1.6092993982857219e+01 1 0 0
618 35 2 1.1140000000000000e-01 -4.8575822266588764e+00 5.8101568559836307e+00 1.5023053566790145e+01 1 0 0
615 35 3 0.0000000000000000e+00 -5.3065948518148627e+00 5.7490913130742323e+00 1.8384976158742553e+01 1 0 0
617 35 1 -1.1140000000000000e-01 -4.0934443948851014e+00 4.3636579158605633e+00 1.6382119635902651e+01 1 0 0
621 35 2 1.1140000000000000e-01 -3.7171861191291997e+00 3.7614616353888821e+00 1.5509946505157423e+01 1 0 0
624 35 3 0.0000000000000000e+00 -4.7284294009068315e+00 4.5123222244658283e+00 1.8683741006382107e+01 1 0 0
625 35 4 -1.1140000000000000e-01 -4.0297152914832477e+00 3.8222517793468533e+00 1.7646087361344918e+01 1 0 0
629 35 2 1.1140000000000000e-01 -3.6582059869224492e+00 2.8227243830974014e+00 1.7698780745545839e+01 1 0 0
755 35 6 0.0000000000000000e+00 -4.9540360494611173e+00 5.1187677513429284e+00 1.8445879666841307e+01 1 0 0
270 15 2 1.1140000000000000e-01 -7.5005465809460112e+00 3.9896571191012025e+00 1.5203081926823582e+01 1 0 0
4398 234 4 -1.1140000000000000e-01 -1.6013738258481869e+00 7.7492538474680539e-01 1.1395404885658067e+01 1 1 0
4412 234 2 1.1140000000000000e-01 -2.2292420142124270e+00 9.9770292712729070e-01 1.3430509311965412e+01 1 1 0
614 35 5 -1.1140000000000000e-01 -5.1880109531783107e+00 6.3284102046093729e+00 1.7110855458536395e+01 1 0 0
247 14 4 -1.1140000000000000e-01 -5.7721215049374202e+00 8.6991823766477927e-01 1.1258407405424451e+01 1 0 0
4419 235 2 1.1140000000000000e-01 -5.4224894039620608e+00 1.2607695166622090e+00 1.6501632159626066e+01 1 1 0
1025 55 4 -1.1140000000000000e-01 -9.7862392217846992e+00 6.7460028331568971e+00 1.8337128191909827e+01 1 0 0
608 34 1 -1.1140000000000000e-01 -1.1780044225971427e+00 6.3038413015524446e+00 1.2523151797059068e+01 1 0 0
616 35 4 -1.1140000000000000e-01 -5.9457911276475039e+00 6.5189140304679531e+00 1.9397059323536979e+01 1 0 0
612 34 2 1.1140000000000000e-01 -1.5591484446707655e+00 6.9151108496213016e+00 1.3336031539874311e+01 1 0 0
4415 235 3 0.0000000000000000e+00 -5.1814576403619412e+00 -4.2074141259195556e-02 1.8195051111724833e+01 1 1 0
620 35 2 1.1140000000000000e-01 -6.4783925640676463e+00 7.4435515415326750e+00 1.9154638921428774e+01 1 0 0
254 15 5 -1.1140000000000000e-01 -8.9463119347048607e+00 3.5882037487654963e+00 1.9498463650984849e+01 1 0 0
1006 54 3 0.0000000000000000e+00 -4.7609159276470594e+00 7.7580875302195400e+00 1.0169553543205332e+01 1 0 0
1023 55 4 -1.1140000000000000e-01 -9.1547071911839524e+00 7.4219425422073080e+00 1.6117363791209442e+01 1 0 0
619 35 2 1.1140000000000000e-01 -5.7447484483789779e+00 7.2606352131810823e+00 1.6874209369754350e+01 1 0 0
1015 55 3 0.0000000000000000e+00 -8.4778716616166410e+00 8.7741956204127582e+00 1.8044072461574185e+01 1 0 0
1494 54 6 0.0000000000000000e+00 -4.5462965538365836e+00 8.4144083389401221e+00 1.0288683291598680e+01 1 0 0
1003 54 2 1.1140000000000000e-01 -6.6744624771441741e+00 7.2022192361365169e+00 1.2969101293223956e+01 1 0 0
1495 55 6 0.0000000000000000e+00 -8.8051188248742260e+00 8.2686185717126612e+00 1.7612210800768334e+01 1 0 0
999 54 1 -1.1140000000000000e-01 -6.0358665610572508e+00 7.7038357109642552e+00 1.2278539341224626e+01 1 0 0
602 34 2 1.1140000000000000e-01 -1.4873790787096137e+00 7.7487174424910128e+00 1.0946027419369964e+01 1 0 0
1024 55 3 0.0000000000000000e+00 -9.1500102865243544e+00 7.6332182016558008e+00 1.7502526646129169e+01 1 0 0
251 14 2 1.1140000000000000e-01 -6.2831324679152694e+00 1.7396074143852011e-02 1.0808442064453205e+01 1 0 0
267 15 2 1.1140000000000000e-01 -8.5269664598738615e+00 1.8783742722342849e+00 1.4535068636966995e+01 1 0 0
607 34 4 -1.1140000000000000e-01 4.2138111396302325e-01 3.7262223354501214e+00 9.6156802586426835e+00 1 0 0
268 15 2 1.1140000000000000e-01 -9.4715810606412774e+00 4.1860663048997337e-01 1.6234315683409964e+01 1 0 0
997 54 3 0.0000000000000000e+00 -4.0989220989724764e+00 8.9286315541303729e+00 1.0551916386086035e+01 1 0 0
1389 75 2 1.1140000000000000e-01 -3.1084269072569048e+00 8.8759233309369030e+00 1.6996495477207848e+01 1 0 0
280 16 1 -1.1140000000000000e-01 -1.2636989435075852e+01 2.3372368532086440e+00 2.3141839651888464e+01 1 0 0
231 13 2 1.1140000000000000e-01 -1.6434627534028589e+01 2.4169552877554792e+00 2.9367705555268458e+01 1 0 -1
258 15 2 1.1140000000000000e-01 -9.5200481306211451e+00 2.9787888668265317e+00 2.1566944878839880e+01 1 0 0
634 36 4 -1.1140000000000000e-01 -1.0224185223716164e+01 6.3882046034683864e+00 2.6154144779111320e+01 1 0 0
4433 236 3 0.0000000000000000e+00 -9.4961897564170616e+00 1.2412941186112922e-01 2.5606979426281029e+01 1 1 0
257 15 1 -1.1140000000000000e-01 -1.0130527807649283e+01 1.4924127976394839e+00 2.0073539500691723e+01 1 0 0
284 16 1 -1.1140000000000000e-01 -1.2187101197084052e+01 3.5776940756650535e+00 2.3618679130060791e+01 1 0 0
279 16 2 1.1140000000000000e-01 -1.4684117750574353e+01 5.4049223091626541e-01 2.8149461238649710e+01 1 0 0
1042 56 3 0.0000000000000000e+00 -1.3638086769250872e+01 7.8106321800475378e+00 2.5275905414743463e+01 1 0 0
288 16 2 1.1140000000000000e-01 -1.1640068623308299e+01 4.1582770416810630e+00 2.2963426803050545e+01 1 0 0
271 16 7 -1.1140000000000000e-01 -1.3819770631233277e+01 2.5230483279496347e+00 2.8049095537233690e+01 1 0 0
272 16 5 -1.1140000000000000e-01 -1.3188065590664152e+01 3.4255106169657092e+00 2.7137960231642442e+01 1 0 0
273 16 3 0.0000000000000000e+00 -1.2974176767730196e+01 3.0753162777283896e+00 2.5736222972688775e+01 1 0 0
274 16 4 -1.1140000000000000e-01 -1.2329632842839366e+01 3.9499325510779846e+00 2.4949236180476433e+01 1 0 0
275 16 1 -1.1140000000000000e-01 -1.4214710662157191e+01 1.2562673075175661e+00 2.7593151918385509e+01 1 0 0
287 16 2 1.1140000000000000e-01 -1.4492275155029994e+01 -1.0891674531257750e-03 2.5828493971930087e+01 1 0 0
277 16 2 1.1140000000000000e-01 -1.2835322869793130e+01 4.3615487946341833e+00 2.7524125569714062e+01 1 0 0
278 16 2 1.1140000000000000e-01 -1.1973634331307711e+01 4.9157549608886395e+00 2.5254305256192080e+01 1 0 0
261 15 2 1.1140000000000000e-01 -1.0678198258524313e+01 8.2331507831529549e-01 2.0746901030420904e+01 1 0 0
282 16 3 0.0000000000000000e+00 -1.3498069964444870e+01 1.8353285700514705e+00 2.5317896953650404e+01 1 0 0
1043 56 4 -1.1140000000000000e-01 -1.4408734380899633e+01 7.1131200611549676e+00 2.6220393067603780e+01 1 0 0
736 16 6 0.0000000000000000e+00 -1.3218379322957146e+01 2.3878874967998609e+00 2.5713313902295596e+01 1 0 0
632 36 5 -1.1140000000000000e-01 -9.2393360943491150e+00 6.1089500970227846e+00 2.3882242158436291e+01 1 0 0
636 36 2 1.1140000000000000e-01 -8.4216231727389026e+00 5.6147541372390082e+00 2.1922202534655163e+01 1 0 0
4438 236 2 1.1140000000000000e-01 -1.0726891820341503e+01 1.7155637551630700e+00 2.6220683987751915e+01 1 1 0
253 15 7 -1.1140000000000000e-01 -9.5323530458414947e+00 2.7094705371957852e+00 2.0494592093671372e+01 1 0 0
623 35 4 -1.1140000000000000e-01 -4.8083941615358299e+00 3.9689101181113831e+00 2.0021982099773098e+01 1 0 0
627 35 2 1.1140000000000000e-01 -5.4819224749891076e+00 4.4248976905779491e+00 2.2041218554719649e+01 1 0 0
644 36 1 -1.1140000000000000e-01 -1.0356829813971331e+01 6.0275473648876137e+00 2.7472864928073239e+01 1 0 0
631 36 7 -1.1140000000000000e-01 -8.4841031621040486e+00 5.2899281164079381e+00 2.2948772113831154e+01 1 0 0
635 36 1 -1.1140000000000000e-01 -7.8796162684908815e+00 4.0926804030215633e+00 2.3396300123849137e+01 1 0 0
628 35 2 1.1140000000000000e-01 -4.2093799294542897e+00 3.0840060950808437e+00 2.0218116755378805e+01 1 0 0
639 36 2 1.1140000000000000e-01 -7.3019335169488917e+00 3.4885625707832215e+00 2.2748244390681762e+01 1 0 0
283 16 4 -1.1140000000000000e-01 -1.4098598641957992e+01 9.4569027071987222e-01 2.6236224739664351e+01 1 0 0
4430 235 2 1.1140000000000000e-01 -6.5207476543603793e+00 1.1268778085993105e+00 2.1169836857352934e+01 1 1 0
4444 236 1 -1.1140000000000000e-01 -1.0209712414778590e+01 3.3407101400844053e-01 2.7922626829576433e+01 1 1 0
638 36 2 1.1140000000000000e-01 -1.0599307891640450e+01 7.3495841462995211e+00 2.5699850186481672e+01 1 0 0
633 36 3 0.0000000000000000e+00 -9.4303557048500224e+00 5.6598471531987675e+00 2.5253637919632361e+01 1 0 0
4437 236 2 1.1140000000000000e-01 -1.0147377245789533e+01 1.3101702832819422e+00 2.3974951325625195e+01 1 1 0
640 36 1 -1.1140000000000000e-01 -9.7864924423473347e+00 4.8013984751304859e+00 2.7920916201679443e+01 1 0 0
641 36 4 -1.1140000000000000e-01 -8.9779059012098337e+00 3.9881773233214082e+00 2.7033947141045054e+01 1 0 0
642 36 3 0.0000000000000000e+00 -8.8811349016151375e+00 4.4332488050087848e+00 2.5653359533363343e+01 1 0 0
643 36 4 -1.1140000000000000e-01 -8.0783033652293454e+00 3.6959452804944806e+00 2.4736850138116615e+01 1 0 0
622 35 1 -1.1140000000000000e-01 -5.4505277870880064e+00 4.7464905786617804e+00 2.1008984783934544e+01 1 0 0
646 36 2 1.1140000000000000e-01 -8.4770820177789581e+00 3.1333179657115444e+00 2.7318694796538345e+01 1 0 0
647 36 2 1.1140000000000000e-01 -7.6126194514551511e+00 2.7767139075939045e+00 2.4954448114383940e+01 1 0 0
756 36 6 0.0000000000000000e+00 -9.3155085777686004e+00 4.9467665750314858e+00 2.5362045360932825e+01 1 0 0
281 16 4 -1.1140000000000000e-01 -1.3365413274855038e+01 1.4532273972655640e+00 2.3977854779423346e+01 1 0 0
4434 236 4 -1.1140000000000000e-01 -1.0211456023977100e+01 8.3531477192326831e-01 2.6576551922469690e+01 1 1 0
1407 76 2 1.1140000000000000e-01 -8.1960115808144209e+00 8.7858732493879490e+00 2.4405136110874157e+01 1 0 0
1013 55 7 -1.1140000000000000e-01 -9.0534479298669304e+00 8.0625183411458572e+00 2.0286976208515696e+01 1 0 0
648 36 2 1.1140000000000000e-01 -1.0970578225402619e+01 6.6170612346669273e+00 2.8102695962937844e+01 1 0 0
4432 236 5 -1.1140000000000000e-01 -9.5626151954705261e+00 4.8506590709984904e-01 2.4290105315136163e+01 1 1 0
1039 56 2 1.1140000000000000e-01 -1.5191397067817414e+01 7.2151632370708594e+00 2.8206680290424831e+01 1 0 0
626 35 1 -1.1140000000000000e-01 -5.9556274001521823e+00 5.9992129032200614e+00 2.0706283373726279e+01 1 0 0
4448 236 2 1.1140000000000000e-01 -1.0734800958012848e+01 9.3316058704914306e-01 2.8670500013625752e+01 1 1 0
4426 235 1 -1.1140000000000000e-01 -6.0768159271961419e+00 4.8000898477824783e-01 2.0395389641892052e+01 1 1 0
276 16 2 1.1140000000000000e-01 -1.4015160099689528e+01 2.9433265910791397e+00 2.9049424644860505e+01 1 0 0
630 35 2 1.1140000000000000e-01 -6.4142249974279366e+00 6.5910149821392716e+00 2.1412092068401627e+01 1 0 0
1021 55 2 1.1140000000000000e-01 -1.0168065674337086e+01 6.2359226215292960e+00 2.0419620975476274e+01 1 0 0
637 36 2 1.1140000000000000e-01 -9.6126351783744877e+00 7.0191807610187595e+00 2.3525651232504249e+01 1 0 0
645 36 2 1.1140000000000000e-01 -9.7523158360836124e+00 4.6135463811924566e+00 2.8962810936079737e+01 1 0 0
4436 236 2 1.1140000000000000e-01 -9.2500419252585306e+00 -1.2627315430212997e-02 2.2333239106579647e+01 1 1 0
1017 55 1 -1.1140000000000000e-01 -9.7582452589818658e+00 7.0042550198906079e+00 1.9717283867974920e+01 1 0 0
1035 56 1 -1.1140000000000000e-01 -1.4564343254805159e+01 7.7222439250153556e+00 2.7490212643378960e+01 1 0 0
1018 55 2 1.1140000000000000e-01 -8.9109848293751828e+00 8.2172684626812451e+00 2.1341308260576906e+01 1 0 0
1496 56 6 0.0000000000000000e+00 -1.3356907201256274e+01 8.4367676536845924e+00 2.5434213286382715e+01 1 0 0
1040 56 1 -1.1140000000000000e-01 -1.2736431101096901e+01 8.0174009821423819e+00 2.2980067148397275e+01 1 0 0
1041 56 4 -1.1140000000000000e-01 -1.3467305332304845e+01 7.2968141228511083e+00 2.3949092468021451e+01 1 0 0
259 15 2 1.1140000000000000e-01 -8.4748903012080241e+00 4.5181637453937125e+00 1.9758990508837453e+01 1 0 0
1045 56 2 1.1140000000000000e-01 -1.2538379478705426e+01 7.6053116240623071e+00 2.2043302453384072e+01 1 0 0
285 16 2 1.1140000000000000e-01 -1.2515526679455448e+01 2.1828757365175782e+00 2.2122473697604807e+01 1 0 0
1047 56 2 1.1140000000000000e-01 -1.4820915543500842e+01 6.1763499813704321e+00 2.5983146041753646e+01 1 0 0
286 16 2 1.1140000000000000e-01 -1.3755741611106954e+01 5.0694571507703678e-01 2.3673030304819171e+01 1 0 0
1406 76 2 1.1140000000000000e-01 -8.9357658806396465e+00 8.9165240197033153e+00 2.6640601526483508e+01 1 0 0
979 53 3 0.0000000000000000e+00 -1.5205900003849848e-01 9.1252038482232969e+00 3.3475051315650548e+00 1 0 0
980 53 4 -1.1140000000000000e-01 5.7126868850905987e-01 1.0025988016670508e+01 2.5175447331985890e+00 1 0 0
984 53 2 1.1140000000000000e-01 1.0416603578486365e+00 1.0838638244166363e+01 3.0422375270098145e+00 1 0 0
1361 74 2 1.1140000000000000e-01 -1.1838914689339726e+00 1.3178891036427702e+01 8.4246510365835832e+00 1 0 0
990 53 1 -1.1140000000000000e-01 6.2197774960241392e-01 9.9601425747095593e+00 1.1470647616136380e+00 1 0 0
2253 93 6 0.0000000000000000e+00 -3.8366996054623037e-01 1.4251559872427178e+01 3.0075463171304437e+00 1 0 0
994 53 2 1.1140000000000000e-01 1.1266519244731472e+00 1.0714106521909486e+01 5.9603266013785039e-01 1 0 0
1741 93 1 -1.1140000000000000e-01 -1.7623305815900823e+00 1.3597953731842040e+01 4.8272313175689661e+00 1 0 0
978 53 5 -1.1140000000000000e-01 -1.6852154124522611e-01 9.2919157353624122e+00 4.7181351178752360e+00 1 0 0
983 53 2 1.1140000000000000e-01 3.6676312844278991e-01 1.0171228909729344e+01 5.1290756995397002e+00 1 0 0
1012 54 2 1.1140000000000000e-01 -2.3658243900229925e+00 9.5556054180916927e+00 7.5935571685560550e+00 1 0 0
1363 74 2 1.1140000000000000e-01 1.0831530744364093e+00 9.7519105157034325e+00 7.6254381709258547e+00 1 0 0
1745 93 2 1.1140000000000000e-01 -2.5265190330989511e+00 1.3164482004004316e+01 5.4533160179195974e+00 1 0 0
2102 113 2 1.1140000000000000e-01 4.2709745924417621e+00 1.7385817153513450e+01 3.8509892823966885e-03 1 0 0
1338 73 5 -1.1140000000000000e-01 3.6433853308730404e+00 1.2277088445297910e+01 1.6499507768129562e+00 1 0 0
1339 73 3 0.0000000000000000e+00 3.4663607650594219e+00 1.1907992377570263e+01 3.0094004751271339e+00 1 0 0
1340 73 4 -1.1140000000000000e-01 2.8346478752699604e+00 1.2788549400318400e+01 3.9143554324003080e+00 1 0 0
1341 73 1 -1.1140000000000000e-01 4.7984083262474826e+00 1.0274090807160668e+01 1.2650255572823645e+00 1 0 0
1337 73 7 -1.1140000000000000e-01 4.2838093522368084e+00 1.1460965846358388e+01 8.0454550096346122e-01 1 0 0
1343 73 2 1.1140000000000000e-01 3.2771401892817935e+00 1.3203224941346651e+01 1.3849995026341904e+00 1 0 0
1348 73 3 0.0000000000000000e+00 3.8137003643485081e+00 1.0626963533516633e+01 3.4741081353879331e+00 1 0 0
1349 73 4 -1.1140000000000000e-01 4.6335519776930543e+00 9.8137411795506626e+00 2.6007030042798256e+00 1 0 0
1513 73 6 0.0000000000000000e+00 3.7301510997346168e+00 1.1256302192528008e+01 3.2419020024910705e+00 1 0 0
1356 74 5 -1.1140000000000000e-01 -6.7806131017686511e-01 1.2359364961008147e+01 8.8387356557500532e+00 1 0 0
1354 73 2 1.1140000000000000e-01 2.1357398932886373e+00 1.3106541367198947e+01 5.9608542266674283e+00 1 0 0
1346 73 1 -1.1140000000000000e-01 3.0982592293384514e+00 1.1152125224139089e+01 5.7138735639496652e+00 1 0 0
1347 73 4 -1.1140000000000000e-01 3.6408284494632208e+00 1.0260007954612457e+01 4.7818399694560458e+00 1 0 0
1350 73 1 -1.1140000000000000e-01 2.6332562682573251e+00 1.2392371589183337e+01 5.2448723177891194e+00 1 0 0
1351 73 2 1.1140000000000000e-01 2.8897125325298934e+00 1.0752214600024683e+01 6.7381041349583768e+00 1 0 0
1352 73 2 1.1140000000000000e-01 3.9282157648195919e+00 9.2556281961874003e+00 5.0385998745083542e+00 1 0 0
1345 73 2 1.1140000000000000e-01 5.2583517535803477e+00 9.5910852735141177e+00 5.8312130744015112e-01 1 0 0
1355 74 7 -1.1140000000000000e-01 -6.9395182352760543e-04 1.1548454383490704e+01 7.9379880410287544e+00 1 0 0
1359 74 1 -1.1140000000000000e-01 6.2978765310972040e-01 1.0386748152962623e+01 8.3724085146166427e+00 1 0 0
1360 74 2 1.1140000000000000e-01 8.5543818608952549e-02 1.2042721051178706e+01 7.0052642922940409e+00 1 0 0
1747 93 4 -1.1140000000000000e-01 -6.0313029625135317e-01 1.3234505678731145e+01 1.3027659118207107e+00 1 0 0
1748 93 3 0.0000000000000000e+00 -7.3887240731781501e-01 1.3757154073306095e+01 2.6168594981526119e+00 1 0 0
1008 54 1 -1.1140000000000000e-01 -2.9847688198715376e+00 9.0632123042547139e+00 8.3481075264639450e+00 1 0 0
1746 93 1 -1.1140000000000000e-01 1.3219753124528777e-01 1.3930766340133916e+01 3.0146875556889974e-01 1 0 0
2123 114 2 1.1140000000000000e-01 9.8176804976332921e-01 1.5106349363548775e+01 7.5601309739526741e+00 1 0 0
1749 93 4 -1.1140000000000000e-01 -1.4711129787623709e+00 1.3032257627855317e+01 3.5495644866953406e+00 1 0 0
1742 93 2 1.1140000000000000e-01 -1.0873698658355946e+00 1.5021878317982599e+01 6.2850672935152909e+00 1 0 0
1344 73 2 1.1140000000000000e-01 2.4922504483476144e+00 1.3829111287846979e+01 3.6967055266269693e+00 1 0 0
1737 93 7 -1.1140000000000000e-01 -1.0239010166878599e+00 1.4713809321818362e+01 5.2193659775189429e+00 1 0 0
1740 93 4 -1.1140000000000000e-01 6.7186554815885269e-01 1.5603919252095366e+01 2.0256778061509282e+00 1 0 0