Created on Fri Jun 03 11:05:09 2022

3 atoms
2 bonds
1 angle
0 dihedrals
0 impropers

  10 atom types
 13 bond types
 25 angle types
  7 dihedral types
  2 improper types
  0.000000  1.500000 xlo xhi
  0.000000  1.500000 ylo yhi
  0.000000  1.500000 zlo zhi
  0.000000   0.000000   0.000000 xy xz yz

Masses

1    12.010700000 # C_R
2     1.007940000 # H_
3    15.999400000 # O_R
4    15.999400000 # O_3
5    65.380000000 # Zn3+2
6    14.006700000 # N_R
7    12.010700000 # C_3
8    65.380000000 # Zn_x
9    14.006700000 # N_x
10   15.999400000 # O_x

Bond Coeffs

1      391.669513        1.458000  # C_R C_R
2      646.680887        1.311940  # C_R O_R
3      462.655054        1.379256  # C_R C_R
4      357.440381        1.081418  # C_R H_
5      160.291409        1.840266  # O_R Zn3+2
6      166.031136        1.818811  # O_3 Zn3+2
7      559.995206        0.990254  # O_3 H_
8       41.823535        2.386000  # Zn3+2 Zn3+2
9      165.837318        1.881712  # Zn3+2 N_R
10      663.718927        1.345073  # C_R N_R
11      529.724731        1.450075  # N_R C_3
12      331.069389        1.109401  # C_3 H_
13      369.943935        1.486000  # C_3 C_R

Angle Coeffs

1              cosine/periodic      131.755710              -1               3 # C_R C_R O_R
2              cosine/periodic      187.136328              -1               3 # O_R C_R O_R
3              cosine/periodic      102.183280              -1               3 # C_R C_R C_R
4              cosine/periodic      111.297508              -1               3 # C_R C_R C_R
5              cosine/periodic       57.289016              -1               3 # C_R C_R H_
6              cosine/periodic       60.877639              -1               3 # C_R O_R Zn3+2
7                      fourier       64.112792        0.300235        0.267331        0.266745 # Zn3+2 O_3 H_
8                      fourier      120.499822        0.300235        0.267331        0.266745 # H_ O_3 H_
9                      fourier      172.607259        0.343737        0.374972        0.281246 # O_R Zn3+2 O_R
10                      fourier      175.650062        0.343737        0.374972        0.281246 # O_R Zn3+2 O_3
11                      fourier       62.839919        0.343737        0.374972        0.281246 # O_R Zn3+2 Zn3+2
12                      fourier       63.625415        0.343737        0.374972        0.281246 # O_3 Zn3+2 Zn3+2
13                      fourier      184.568655        0.343737        0.374972        0.281246 # O_R Zn3+2 N_R
14                      fourier       67.844457        0.343737        0.374972        0.281246 # Zn3+2 Zn3+2 N_R
15              cosine/periodic       79.786967              -1               3 # H_ C_R N_R
16              cosine/periodic      153.699352              -1               3 # N_R C_R C_R
17              cosine/periodic      212.442573              -1               3 # N_R C_R N_R
18              cosine/periodic      120.000516              -1               3 # C_R N_R C_R
19              cosine/periodic      106.782348              -1               3 # C_R N_R C_3
20                      fourier      170.007371        0.343737        0.374972        0.281246 # N_R C_3 H_
21                      fourier      312.548166        0.343737        0.374972        0.281246 # N_R C_3 C_R
22                      fourier       75.498766        0.343737        0.374972        0.281246 # H_ C_3 H_
23                      fourier      121.777217        0.343737        0.374972        0.281246 # H_ C_3 C_R
24              cosine/periodic       99.137149              -1               3 # C_3 C_R C_R
25              cosine/periodic       45.889625              -1               3 # Zn3+2 N_R C_R

Dihedral Coeffs

1        1.250000              -1               2 # O_R C_R C_R C_R
2        6.737110              -1               2 # C_R C_R O_R Zn3+2
3        3.368555              -1               2 # C_R C_R C_R H_
4        0.166667               1               3 # C_R N_R C_3 H_
5        0.833333              -1               2 # N_R C_3 C_R C_R
6        3.368555              -1               2 # H_ C_R N_R C_R
7        6.737110              -1               2 # N_R C_R N_R C_R

Improper Coeffs

1        2.000000        1.000000       -1.000000        0.000000               0 # C_R C_R O_R O_R
2        2.000000        1.000000       -1.000000        0.000000               0 # H_ C_R N_R C_R

Pair Coeffs

1        0.105000        3.430851 # C_R C_R
2        0.044000        2.571134 # H_ H_
3        0.060000        3.118146 # O_R O_R
4        0.060000        3.118146 # O_3 O_3
5        0.124000        2.461553 # Zn3+2 Zn3+2
6        0.069000        3.260689 # N_R N_R
7        0.105000        3.430851 # C_3 C_3
8        0.124000        2.461553 # Zn_x Zn_x
9        0.069000        3.260689 # N_x N_x
10        0.060000        3.118146 # O_x O_x

Atoms

1      444        2     0.00000   0.920   0.053  1.341
2      444        2     0.00000   0.046   0.8402  0.0
3      444        10     0.00000   0.0   0.0  0.722

Bonds

1        7      3      1
2        7      3      2

Angles

1        8      1     3      2

Dihedrals

Impropers
