LAMMPS data file via write_data, version 15 May 2015, timestep = 8008000

2611 atoms
6 atom types
1749 bonds
4 bond types
894 angles
3 angle types
44 dihedrals
3 dihedral types
10 impropers
1 improper types

-1.4938888612486872e+01 1.4938888612486872e+01 xlo xhi
-1.4938888612486872e+01 1.4938888612486872e+01 ylo yhi
-1.4938888612486872e+01 1.4938888612486872e+01 zlo zhi

Masses

1 15.9994
2 1.00794
3 12.0107
4 1.00794
5 12.0107
6 12.0107

Bond Coeffs # harmonic

1 1000 1
2 469 1.4
3 367 1.08
4 469 0.7

Angle Coeffs # harmonic

1 100 109.47
2 35 120
3 63 120

Dihedral Coeffs # opls

1 0 7.25 0 0
2 0 7.25 0 0
3 0 7.25 0 0

Improper Coeffs # cvff

1 2.5 -1 2

Atoms # full

1026 342 2 4.0999999999999998e-01 -8.6752131643280830e+00 -9.3090383414655111e+00 -1.4589726366095435e+01 0 2 1
23 8 2 4.0999999999999998e-01 -1.1175604112368596e+01 -5.8251176293790774e+00 -1.0385683143202296e+01 5 0 1
768 256 2 4.0999999999999998e-01 -1.4267495489417088e+01 -5.8592625774564500e+00 -1.4089368008627048e+01 0 0 1
1980 660 2 4.0999999999999998e-01 -1.1929412789447888e+01 -8.8855862296790242e+00 -1.0027260177744235e+01 5 0 0
409 137 1 -8.1999999999999995e-01 -8.1216438204974075e+00 -1.4551102203697132e+01 -1.1565333744974753e+01 3 1 0
2116 706 1 -8.1999999999999995e-01 -1.3960016405123458e+01 -9.7026400801249686e+00 -1.1816776243823632e+01 2 2 2
1269 423 2 4.0999999999999998e-01 -9.1361554630700894e+00 -7.4333395628627592e+00 -1.3985694994779518e+01 0 -2 -1
2548 850 1 -8.1999999999999995e-01 -1.0068850119241581e+01 -1.0973558885521646e+01 -8.8279658347931083e+00 3 2 1
326 109 2 4.0999999999999998e-01 -1.3476175757515845e+01 -7.9152334466508902e+00 -8.3427907069580609e+00 2 3 2
2550 850 2 4.0999999999999998e-01 -1.0150659833139475e+01 -1.1575707391802448e+01 -8.0337194074348979e+00 3 2 1
2549 850 2 4.0999999999999998e-01 -9.3525024755143811e+00 -1.0296175503399896e+01 -8.6603327153790666e+00 3 2 1
22 8 1 -8.1999999999999995e-01 -1.1107432781744899e+01 -6.7969673909733874e+00 -1.0611434331009258e+01 5 0 1
1997 666 2 4.0999999999999998e-01 -9.7951431151986732e+00 -1.3289679306053426e+01 -9.1895475109023650e+00 0 1 1
1978 660 1 -8.1999999999999995e-01 -1.2074589677639912e+01 -9.3768818046205737e+00 -9.1683915162321092e+00 5 0 0
46 16 1 -8.1999999999999995e-01 -1.3998139259060004e+01 -1.2778218431721807e+01 -1.2474745247791793e+01 1 0 1
1979 660 2 4.0999999999999998e-01 -1.1298435147461340e+01 -9.9835079583444788e+00 -8.9960781638312106e+00 5 0 0
1591 531 1 -8.1999999999999995e-01 -1.4212825299264845e+01 -1.1386494277716102e+01 -9.0350232154524370e+00 0 4 0
24 8 2 4.0999999999999998e-01 -1.0268364717895953e+01 -6.9605679502954088e+00 -1.1130378091909723e+01 5 0 1
1394 465 2 4.0999999999999998e-01 -1.1097723496616291e+01 -1.2050066715200039e+01 -1.2442376017241862e+01 1 0 2
2118 706 2 4.0999999999999998e-01 -1.4487335162679912e+01 -1.0463623510409610e+01 -1.1438699332219992e+01 2 2 2
1393 465 1 -8.1999999999999995e-01 -1.1387856659629037e+01 -1.1112297980316610e+01 -1.2633466589289924e+01 1 0 2
1395 465 2 4.0999999999999998e-01 -1.0702771487316600e+01 -1.0661492896314417e+01 -1.3205774286940976e+01 1 0 2
1592 531 2 4.0999999999999998e-01 -1.3507369828576721e+01 -1.0684607039369691e+01 -8.9360792117545831e+00 0 4 0
620 207 2 4.0999999999999998e-01 -1.0565015835886019e+01 -7.6550839330853329e+00 -8.5110106171542377e+00 2 1 3
1593 531 2 4.0999999999999998e-01 -1.3779694093911246e+01 -1.2280151213962990e+01 -9.1528267580570528e+00 0 4 0
766 256 1 -8.1999999999999995e-01 -1.3650453091257297e+01 -5.1964257153351276e+00 -1.4513642718394355e+01 0 0 1
619 207 1 -8.1999999999999995e-01 -9.8621264542805349e+00 -7.5113418752301788e+00 -7.8143128679818190e+00 2 1 3
48 16 2 4.0999999999999998e-01 -1.3164708966955104e+01 -1.2268007108241559e+01 -1.2687303805954437e+01 1 0 1
47 16 2 4.0999999999999998e-01 -1.3954352184708821e+01 -1.3110570506160865e+01 -1.1532552164512836e+01 1 0 1
1039 347 1 -8.1999999999999995e-01 -1.2780772801541243e+01 -1.3595305008244219e+01 -9.7748538430360625e+00 2 -3 2
1287 429 2 4.0999999999999998e-01 -1.0590884892780068e+01 -1.3451763674821903e+01 -1.3699642697273786e+01 -1 3 4
1267 423 1 -8.1999999999999995e-01 -8.6255862275234758e+00 -7.4993235580232334e+00 -1.4843056135133498e+01 0 -2 -1
1024 342 1 -8.1999999999999995e-01 -9.1675286981903366e+00 -1.0126910820121658e+01 -1.4291711123521861e+01 0 2 1
2117 706 2 4.0999999999999998e-01 -1.2984576333216964e+01 -9.8681111402556692e+00 -1.1671040080625200e+01 2 2 2
2275 759 1 -8.1999999999999995e-01 -8.7796522229969085e+00 -7.0538476475389444e+00 -1.1847391095278629e+01 -1 1 0
1025 342 2 4.0999999999999998e-01 -8.5396779758885835e+00 -1.0735657983103559e+01 -1.3806599362448445e+01 0 2 1
2277 759 2 4.0999999999999998e-01 -8.1966688067444231e+00 -7.4839593864765686e+00 -1.1158016563178039e+01 -1 1 0
410 137 2 4.0999999999999998e-01 -7.5019786424532677e+00 -1.3807314963628617e+01 -1.1314537680245277e+01 3 1 0
387 129 2 4.0999999999999998e-01 -1.4154329409344616e+01 -5.8133476683969452e+00 -8.4969588678457004e+00 -1 1 0
325 109 1 -8.1999999999999995e-01 -1.3583237312238053e+01 -7.2993580115470227e+00 -7.5621894487658530e+00 2 3 2
1468 490 1 -8.1999999999999995e-01 -9.1415241651993195e+00 -5.0054707705580679e+00 -8.4018899139011403e+00 1 0 0
818 273 2 4.0999999999999998e-01 -1.3659645219849779e+01 -9.8289051510207042e+00 -1.3727743845148250e+01 3 -3 -1
1040 347 2 4.0999999999999998e-01 -1.1789387576077335e+01 -1.3682466080519308e+01 -9.8731458558586738e+00 2 -3 2
675 225 2 4.0999999999999998e-01 -1.4508575648264598e+01 -8.0939922282102525e+00 -1.2804878440315804e+01 -3 3 2
411 137 2 4.0999999999999998e-01 -8.8916854798639076e+00 -1.4182193205941642e+01 -1.2085953583488866e+01 3 1 0
817 273 1 -8.1999999999999995e-01 -1.3843820942151753e+01 -9.9275464255255699e+00 -1.4705727545621832e+01 3 -3 -1
1996 666 1 -8.1999999999999995e-01 -9.9655059692950694e+00 -1.4208876615462746e+01 -9.5447317669847003e+00 0 1 1
385 129 1 -8.1999999999999995e-01 -1.4648260374255409e+01 -5.1886358438175524e+00 -9.1018310707567878e+00 -1 1 0
1998 666 2 4.0999999999999998e-01 -9.5582215019000696e+00 -1.4295682690394694e+01 -1.0453955121712784e+01 0 1 1
621 207 2 4.0999999999999998e-01 -9.5684803303542978e+00 -6.5554914171666585e+00 -7.8293108601496009e+00 2 1 3
1286 429 2 4.0999999999999998e-01 -1.1047387397994704e+01 -1.4537805986008385e+01 -1.2568705666008222e+01 -1 3 4
1041 347 2 4.0999999999999998e-01 -1.3214342438185502e+01 -1.4473306167988833e+01 -9.9779162475898531e+00 2 -3 2
2276 759 2 4.0999999999999998e-01 -8.3454405322357363e+00 -6.2144329870246331e+00 -1.2174417514518872e+01 -1 1 0
1285 429 1 -8.1999999999999995e-01 -1.0537103651274698e+01 -1.3693123195167935e+01 -1.2730645210715483e+01 -1 3 4
819 273 2 4.0999999999999998e-01 -1.4226747349874914e+01 -1.0834209738039341e+01 -1.4883018331225664e+01 3 -3 -1
628 210 1 -8.1999999999999995e-01 -6.8066023963915079e-01 -1.2883828993920101e+01 -1.4037666531077061e+01 2 0 3
190 64 1 -8.1999999999999995e-01 -3.0957691726972918e+00 -5.2483736215241077e+00 -1.3214912558906507e+01 0 0 5
1639 547 1 -8.1999999999999995e-01 -6.8810372886637108e+00 -1.1213687629406124e+01 -1.3247413522429230e+01 3 0 0
1641 547 2 4.0999999999999998e-01 -6.5810623401341939e+00 -1.1690404161765192e+01 -1.2421060430531764e+01 3 0 0
192 64 2 4.0999999999999998e-01 -3.8228332306084916e+00 -5.9224570979560429e+00 -1.3084174648356921e+01 0 0 5
191 64 2 4.0999999999999998e-01 -2.9920691491416882e+00 -5.0549345600716311e+00 -1.4190581904242201e+01 0 0 5
525 175 2 4.0999999999999998e-01 -5.7230492619654481e+00 -1.4877631721548118e+01 -1.4349375806156631e+01 3 4 2
1055 352 2 4.0999999999999998e-01 -1.2512374075811614e+00 -1.4471784050188983e+01 -1.0883609949914391e+01 2 2 1
343 115 1 -8.1999999999999995e-01 -6.6723452443145010e+00 -5.3157095658244380e+00 -1.2371158320720461e+01 1 -1 1
1054 352 1 -8.1999999999999995e-01 -2.5888737895119363e-01 -1.4424800128444996e+01 -1.0768993298866940e+01 2 2 1
1384 462 1 -8.1999999999999995e-01 -3.1575049826837205e+00 -1.4899324814368738e+01 -1.0896741416598616e+01 -1 2 1
286 96 1 -8.1999999999999995e-01 -7.1804670676597873e+00 -1.2052682363675380e+01 -7.8713384683279743e+00 -1 1 0
984 328 2 4.0999999999999998e-01 -5.3004110722422659e-01 -6.4286446347959316e+00 -8.1873133840644137e+00 0 -1 3
1640 547 2 4.0999999999999998e-01 -6.5643263847161339e+00 -1.0265542797732255e+01 -1.3218801782851790e+01 3 0 0
345 115 2 4.0999999999999998e-01 -5.9151136437415115e+00 -5.9226943653129709e+00 -1.2612555826953695e+01 1 -1 1
1316 439 2 4.0999999999999998e-01 -3.2298278401278679e-01 -1.1214816119931209e+01 -1.0661295405393357e+01 -1 0 4
630 210 2 4.0999999999999998e-01 -1.1204054435432838e+00 -1.2240438918588424e+01 -1.4664385303532157e+01 2 0 3
2423 808 2 4.0999999999999998e-01 -5.3127752364615972e+00 -7.7187133327242154e+00 -1.3163510517455610e+01 3 4 2
2512 838 1 -8.1999999999999995e-01 -4.2173224487914620e+00 -1.3753682022944508e+01 -1.4244941390198761e+01 4 2 1
2513 838 2 4.0999999999999998e-01 -3.4349725441737426e+00 -1.4343963211903503e+01 -1.4045944584689810e+01 4 2 1
2260 754 1 -8.1999999999999995e-01 -7.0323540682236034e+00 -8.5571258187027084e+00 -1.0384933610727121e+01 0 0 1
2261 754 2 4.0999999999999998e-01 -6.9394490239522595e+00 -9.5525737999737252e+00 -1.0361375277551737e+01 0 0 1
2262 754 2 4.0999999999999998e-01 -7.0063379728811883e+00 -8.1977480611644538e+00 -9.4520489635370417e+00 0 0 1
2514 838 2 4.0999999999999998e-01 -4.1753535225034142e+00 -1.2938534379795470e+01 -1.3667121478037163e+01 4 2 1
143 48 2 4.0999999999999998e-01 -3.7996208918658780e+00 -1.2254754787207425e+01 -9.1725688813947936e+00 -1 0 0
683 228 2 4.0999999999999998e-01 -1.3799699583271448e+00 -1.4411423630021186e+01 -1.3704753186604165e+01 -2 4 1
443 148 2 4.0999999999999998e-01 -1.9956315164533187e+00 -6.3403211828182808e+00 -1.0231576309908830e+01 3 4 -1
2218 740 1 -8.1999999999999995e-01 -3.8412755297682573e+00 -7.9697978607892148e+00 -7.8905287098205887e+00 0 1 -1
761 254 2 4.0999999999999998e-01 -3.7273214731329425e+00 -1.1511402138087497e+01 -1.1855910673737164e+01 0 1 4
2167 723 1 -8.1999999999999995e-01 -6.5620223500547308e+00 -1.2067507276557677e+01 -1.0618619334540695e+01 -1 -1 1
2169 723 2 4.0999999999999998e-01 -5.6066222616784511e+00 -1.2350693229909497e+01 -1.0534242659846260e+01 -1 -1 1
144 48 2 4.0999999999999998e-01 -3.7208940651421383e+00 -1.3356435897509481e+01 -1.0375482877596692e+01 -1 0 0
760 254 1 -8.1999999999999995e-01 -3.4290380749832501e+00 -1.1596877307890804e+01 -1.2806607259483917e+01 0 1 4
2168 723 2 4.0999999999999998e-01 -7.0295725720989273e+00 -1.2207708038736010e+01 -9.7457828040718475e+00 -1 -1 1
2219 740 2 4.0999999999999998e-01 -4.8168556646908005e+00 -7.8670890275591869e+00 -7.6961133814205542e+00 0 1 -1
442 148 1 -8.1999999999999995e-01 -1.9429892171579795e+00 -6.7454605510452250e+00 -9.3187818379404241e+00 3 4 -1
2212 738 1 -8.1999999999999995e-01 -6.1598514487076326e+00 -8.7760843003520517e+00 -1.4213218260793681e+01 1 -5 2
1520 507 2 4.0999999999999998e-01 -1.1579078382000567e+00 -8.9433524373305140e+00 -1.3481750382066606e+01 2 1 1
2291 764 2 4.0999999999999998e-01 -2.0454384029681574e+00 -5.1547609607842553e+00 -1.2079205400805456e+01 3 3 1
1264 422 1 -8.1999999999999995e-01 -6.6832195099174374e+00 -7.5608504327459913e+00 -7.5926971637370322e+00 -1 0 3
2456 819 2 4.0999999999999998e-01 -4.2747735863739322e-01 -9.7994962561151127e+00 -9.7601989865534264e+00 -1 1 0
1521 507 2 4.0999999999999998e-01 -1.7649894352854840e+00 -9.1937481568451922e+00 -1.1986539736502854e+01 2 1 1
1519 507 1 -8.1999999999999995e-01 -1.9895891292113017e+00 -9.1308440378444082e+00 -1.2959011328907188e+01 2 1 1
444 148 2 4.0999999999999998e-01 -2.8545340006358035e+00 -7.0401394970644677e+00 -9.0318088585428029e+00 3 4 -1
2214 738 2 4.0999999999999998e-01 -6.9274144527663069e+00 -8.3381961141450027e+00 -1.4681410524784290e+01 1 -5 2
2457 819 2 4.0999999999999998e-01 -1.5332000771212435e+00 -8.6125203378846553e+00 -9.5721393400957009e+00 -1 1 0
2422 808 1 -8.1999999999999995e-01 -4.6725367368921926e+00 -7.1910777790865321e+00 -1.2605121404664519e+01 3 4 2
1066 356 1 -8.1999999999999995e-01 -3.0891990769027586e+00 -1.2336810354410078e+01 -7.5285974015319752e+00 0 6 1
142 48 1 -8.1999999999999995e-01 -3.9676481774108154e+00 -1.2415040871398460e+01 -1.0145285804283862e+01 -1 0 0
2455 819 1 -8.1999999999999995e-01 -1.2149800352406039e+00 -9.3439087800170491e+00 -1.0175388755164835e+01 -1 1 0
2424 808 2 4.0999999999999998e-01 -4.4724355253595238e+00 -7.6927932278796733e+00 -1.1763489576408242e+01 3 4 2
762 254 2 4.0999999999999998e-01 -2.9143031958473404e+00 -1.0780646007517687e+01 -1.3069128696620574e+01 0 1 4
344 115 2 4.0999999999999998e-01 -6.5779698905521542e+00 -5.0278170315027655e+00 -1.1418103105324487e+01 1 -1 1
629 210 2 4.0999999999999998e-01 -5.4707144791655615e-01 -1.2445012159905197e+01 -1.3149017636470443e+01 2 0 3
2213 738 2 4.0999999999999998e-01 -5.4527082673199150e+00 -9.0109669213189889e+00 -1.4880212775055545e+01 1 -5 2
2290 764 1 -8.1999999999999995e-01 -1.4312091995539742e+00 -4.9877363671921042e+00 -1.1307889478982354e+01 3 3 1
1656 552 2 4.0999999999999998e-01 -3.1204089677080589e+00 -9.2128274342197791e+00 -1.4920911165383574e+01 0 -1 2
2508 836 2 4.0999999999999998e-01 -9.9036364071750551e+00 -1.0999409191624821e+01 -8.3089290346508449e-01 2 2 -1
103 35 1 -8.1999999999999995e-01 -9.4923614459365488e+00 -1.3891758390878451e+01 -3.6213212099787153e+00 1 -2 2
327 109 2 4.0999999999999998e-01 -1.2782793831406453e+01 -7.3730323382136289e+00 -6.9672396675907882e+00 2 3 2
2532 844 2 4.0999999999999998e-01 -8.9753620439265394e+00 -8.7946689925352892e+00 -6.7878443120498488e+00 -2 1 1
989 330 2 4.0999999999999998e-01 -1.2418921289610005e+01 -5.9389051467596286e+00 -1.6826733451380722e+00 1 0 -2
988 330 1 -8.1999999999999995e-01 -1.1603864375900105e+01 -6.3563904460817024e+00 -2.0845331420406676e+00 1 0 -2
1479 493 2 4.0999999999999998e-01 -1.1033656596554138e+01 -7.8924348365112724e+00 -6.3413128808564174e+00 0 3 4
2009 670 2 4.0999999999999998e-01 -7.7830915757507970e+00 -1.1331450461993668e+01 -3.7356920008671501e+00 1 1 3
105 35 2 4.0999999999999998e-01 -1.0069877451381878e+01 -1.3076115490447863e+01 -3.6574442547809483e+00 1 -2 2
2008 670 1 -8.1999999999999995e-01 -8.6698975320807570e+00 -1.0997607542662127e+01 -4.0554217552874636e+00 1 1 3
104 35 2 4.0999999999999998e-01 -8.7844705557524065e+00 -1.3830395482043926e+01 -4.3250454480999831e+00 1 -2 2
1584 528 2 4.0999999999999998e-01 -1.2580466640836066e+01 -1.1319867027481950e+01 -4.5884283258976843e+00 1 -4 3
2010 670 2 4.0999999999999998e-01 -9.3432371292714755e+00 -1.1084481398800181e+01 -3.3211399357800317e+00 1 1 3
2506 836 1 -8.1999999999999995e-01 -1.0154886816686824e+01 -1.1059263354898832e+01 -1.7970158732510519e+00 2 2 -1
2531 844 2 4.0999999999999998e-01 -8.7825415931214472e+00 -9.7421293704115683e+00 -5.4717743262430787e+00 -2 1 1
2507 836 2 4.0999999999999998e-01 -1.0880194726348041e+01 -1.0399632721347988e+01 -1.9942944121491930e+00 2 2 -1
2437 813 1 -8.1999999999999995e-01 -1.2080590675910575e+01 -9.1025667040959561e+00 -1.5333882129947476e+00 0 1 0
2343 781 2 4.0999999999999998e-01 -1.3615047630144440e+01 -1.2801882506241199e+01 -2.7896899655146896e+00 -1 5 2
754 252 1 -8.1999999999999995e-01 -1.4873024088601595e+01 -8.9955624995695747e+00 -1.3700321408622269e+00 -1 2 4
1372 458 1 -8.1999999999999995e-01 -1.4434782530498047e+01 -7.2294856057050438e+00 -3.8687805935584372e+00 2 -2 -2
1775 592 2 4.0999999999999998e-01 -9.7676831928438403e+00 -1.3282210856312908e+01 -1.3460680808378935e+00 1 0 2
2419 807 1 -8.1999999999999995e-01 -1.0264300776740102e+01 -1.2548724036692480e+01 -6.4653667666931565e+00 3 4 0
990 330 2 4.0999999999999998e-01 -1.0820627338785455e+01 -6.2066638822010791e+00 -1.4810227865282002e+00 1 0 -2
1373 458 2 4.0999999999999998e-01 -1.3516888550560898e+01 -7.6236149759020142e+00 -3.8214985486244029e+00 2 -2 -2
1477 493 1 -8.1999999999999995e-01 -1.1703880351508346e+01 -7.9054497606964542e+00 -5.5991984766586107e+00 0 3 4
2420 807 2 4.0999999999999998e-01 -9.4208585653006054e+00 -1.2502738048883058e+01 -5.9300224964505901e+00 3 4 0
1774 592 1 -8.1999999999999995e-01 -9.7845207172019748e+00 -1.3840413339836461e+01 -5.1647208331551475e-01 1 0 2
1583 528 2 4.0999999999999998e-01 -1.1335531190174724e+01 -1.1126724127395356e+01 -5.6275301201889398e+00 1 -4 3
1582 528 1 -8.1999999999999995e-01 -1.2068345922947461e+01 -1.0657192040270296e+01 -5.1349603505431052e+00 1 -4 3
1478 493 2 4.0999999999999998e-01 -1.1934633110908724e+01 -8.8523389526481697e+00 -5.3750175237080402e+00 0 3 4
2439 813 2 4.0999999999999998e-01 -1.1669557049798575e+01 -8.2035142861371639e+00 -1.6845807213044637e+00 0 1 0
2438 813 2 4.0999999999999998e-01 -1.3077064641055415e+01 -9.0180713899115492e+00 -1.5351806455446440e+00 0 1 0
2421 807 2 4.0999999999999998e-01 -1.0777672856267266e+01 -1.3367723923079863e+01 -6.2088689393505234e+00 3 4 0
2530 844 1 -8.1999999999999995e-01 -8.3647556369145377e+00 -9.4399715847584655e+00 -6.3286630878499004e+00 -2 1 1
1776 592 2 4.0999999999999998e-01 -1.0389224051541710e+01 -1.4624837081402935e+01 -6.5473379571476009e-01 1 0 2
1523 508 2 4.0999999999999998e-01 -1.4470392240240322e+01 -1.4577829476338875e+01 -1.1019965160615985e+00 -2 4 -1
2341 781 1 -8.1999999999999995e-01 -1.3712106588331190e+01 -1.2141692738596431e+01 -3.5345604727753059e+00 -1 5 2
165 55 2 4.0999999999999998e-01 -1.2387731030341920e+01 -6.1792652909978774e+00 -5.0298919365616328e+00 1 1 3
402 134 2 4.0999999999999998e-01 -8.1038144166124741e+00 -8.6702861697172899e+00 -4.0152112285330031e+00 -1 2 -1
1007 336 2 4.0999999999999998e-01 -9.5096890484902286e+00 -6.6916652911609056e+00 -3.9914400768113278e+00 -1 3 -1
1522 508 1 -8.1999999999999995e-01 -1.4181020161768073e+01 -1.4457160800476435e+01 -2.0516311401998184e+00 -2 4 -1
2375 792 2 4.0999999999999998e-01 -1.1488307054225031e+01 -1.4916093880682590e+01 -4.2781937308378399e+00 3 1 4
2342 781 2 4.0999999999999998e-01 -1.4595087410637367e+01 -1.1678682287435240e+01 -3.4566564187723046e+00 -1 5 2
1006 336 1 -8.1999999999999995e-01 -9.1541307163032020e+00 -5.7597565463519977e+00 -4.0637409386365153e+00 -1 3 -1
379 127 1 -8.1999999999999995e-01 -1.4188391279309888e+01 -1.4783070948142081e+01 -5.8787587812678144e+00 -3 3 1
2101 701 1 -8.1999999999999995e-01 -7.4870490411377615e+00 -6.7861033242407505e+00 -1.1125273519808445e+00 1 3 6
2102 701 2 4.0999999999999998e-01 -8.2974119109979352e+00 -6.6202734150889082e+00 -5.5046374180618507e-01 1 3 6
816 272 2 4.0999999999999998e-01 -1.4629053356051189e+01 -5.4988502921540849e+00 -3.2225925588775581e+00 1 0 3
380 127 2 4.0999999999999998e-01 -1.4449368129282689e+01 -1.4237049858008010e+01 -5.0826086731375906e+00 -3 3 1
164 55 2 4.0999999999999998e-01 -1.2158849180135080e+01 -5.3983204150730870e+00 -3.6140390462752343e+00 1 1 3
2289 763 2 4.0999999999999998e-01 -7.7586828720687091e+00 -1.4854217553228970e+01 -6.1320266833181840e+00 3 2 3
1734 578 2 4.0999999999999998e-01 -7.8993165125120663e+00 -5.4602452496161167e+00 -5.3097525577535443e+00 0 -1 2
163 55 1 -8.1999999999999995e-01 -1.2402737623302922e+01 -5.2874930415622661e+00 -4.5775424215574194e+00 1 1 3
1732 578 1 -8.1999999999999995e-01 -7.5306518655812997e+00 -5.3010653199175426e+00 -6.2256407147107193e+00 0 -1 2
1374 458 2 4.0999999999999998e-01 -1.4918823647962778e+01 -7.6057759261601170e+00 -4.6588519269912663e+00 2 -2 -2
381 127 2 4.0999999999999998e-01 -1.4811066269218164e+01 -1.4586679377580360e+01 -6.6362607593151370e+00 -3 3 1
1008 336 2 4.0999999999999998e-01 -9.6698090365195277e+00 -5.1579793154756981e+00 -3.4537875872923998e+00 -1 3 -1
425 142 2 4.0999999999999998e-01 -7.5292681547583973e+00 -4.9944834981687283e+00 -3.4367725366679238e+00 -1 2 3
884 295 2 4.0999999999999998e-01 -1.1528010972886294e+01 -9.9062918694368456e+00 -4.1879596536098518e-02 -1 1 3
2376 792 2 4.0999999999999998e-01 -1.2496408001935514e+01 -1.4918403715157629e+01 -5.5629613697507594e+00 3 1 4
771 257 2 4.0999999999999998e-01 -2.5913121735989080e+00 -7.1248438605187623e+00 -3.4936122705196304e+00 4 2 -2
1336 446 1 -8.1999999999999995e-01 -8.7792384648799171e-01 -9.1550049967218854e+00 -4.2429287229632209e+00 2 0 0
250 84 1 -8.1999999999999995e-01 -3.6424093549706704e-01 -8.6257085786035557e+00 -1.5737367274406964e+00 3 1 3
2303 768 2 4.0999999999999998e-01 -1.2140026765957472e+00 -9.8558314775231803e+00 -7.2299795190295955e+00 1 3 4
2287 763 1 -8.1999999999999995e-01 -7.4532575051922816e+00 -1.4080315870704654e+01 -5.5771442672247016e+00 3 2 3
294 98 2 4.0999999999999998e-01 -3.7785633805445293e+00 -5.2860192549134410e+00 -4.4304375633628119e+00 -6 1 5
376 126 1 -8.1999999999999995e-01 -5.8852256030673988e+00 -1.4779944325255045e+01 -2.3287185799204337e+00 -1 2 3
401 134 2 4.0999999999999998e-01 -7.3939315893072743e+00 -7.8426274966906906e+00 -2.7995020762914180e+00 -1 2 -1
197 66 2 4.0999999999999998e-01 -4.9080042220158582e+00 -1.0415161712910679e+01 -5.9594769852376235e+00 -1 1 0
400 134 1 -8.1999999999999995e-01 -7.2932088648196531e+00 -8.1502986078395878e+00 -3.7457031415165076e+00 -1 2 -1
198 66 2 4.0999999999999998e-01 -4.1667271035098317e+00 -1.1854229731644018e+01 -6.1750988169975916e+00 -1 1 0
1266 422 2 4.0999999999999998e-01 -7.0136322151808486e+00 -6.6575356880980010e+00 -7.3189217731872764e+00 -1 0 3
2336 779 2 4.0999999999999998e-01 -4.2581622448327643e+00 -8.6467839531732533e+00 -3.5711115296386637e+00 -1 -1 1
2337 779 2 4.0999999999999998e-01 -5.7736734169016621e+00 -8.6882587382723209e+00 -4.1780768877009535e+00 -1 -1 1
92 31 2 4.0999999999999998e-01 -4.0037050586721161e+00 -1.4653703107117428e+01 -5.5838632300743996e+00 0 -4 0
1721 574 2 4.0999999999999998e-01 -4.5839804059214018e+00 -1.1513592382432627e+01 -4.2777147615967870e-01 1 1 2
813 271 2 4.0999999999999998e-01 -9.1577983581346167e-01 -1.1033361208050007e+01 -1.3734708377609390e+00 0 1 0
377 126 2 4.0999999999999998e-01 -5.7510499240484130e+00 -1.3945678800353519e+01 -2.8636026679598583e+00 -1 2 3
811 271 1 -8.1999999999999995e-01 -1.2794405644047888e+00 -1.1475852977287030e+01 -5.5368126901311854e-01 0 1 0
820 274 1 -8.1999999999999995e-01 -4.9509539863346959e+00 -8.2107951988587438e+00 -1.4000603587518583e+00 1 -2 3
1720 574 1 -8.1999999999999995e-01 -4.6369737799251336e+00 -1.1132942763544746e+01 -1.3510269285887446e+00 1 1 2
183 61 2 4.0999999999999998e-01 -1.5588975841891148e+00 -6.2695949956628834e+00 -5.4198257232705664e+00 -1 0 0
821 274 2 4.0999999999999998e-01 -5.8151620675776527e+00 -7.7499302487386021e+00 -1.1979442160425862e+00 1 -2 3
866 289 2 4.0999999999999998e-01 -5.5563021175873235e+00 -1.1848084355920708e+01 -2.6510799800532787e+00 -1 -2 -2
2103 701 2 4.0999999999999998e-01 -7.1705036552042207e+00 -5.9220777435579723e+00 -1.5041418212434969e+00 1 3 6
2171 724 2 4.0999999999999998e-01 -3.3520538631545627e+00 -5.4180597936736703e+00 -1.6327323074040407e+00 4 3 1
822 274 2 4.0999999999999998e-01 -4.3376691869961572e+00 -7.5771955383193461e+00 -1.8717978038392022e+00 1 -2 3
2302 768 1 -8.1999999999999995e-01 -2.0240124991185695e+00 -9.8649901057548632e+00 -6.6435468831237117e+00 1 3 4
812 271 2 4.0999999999999998e-01 -1.9234381840525696e+00 -1.2193138520349098e+01 -8.1989837446722369e-01 0 1 0
228 76 2 4.0999999999999998e-01 -2.3295230326360290e+00 -1.3415026054960528e+01 -4.5569624391837369e+00 -2 0 -1
769 257 1 -8.1999999999999995e-01 -2.8630282984045206e+00 -6.9930373536908101e+00 -2.5402496046061795e+00 4 2 -2
182 61 2 4.0999999999999998e-01 -2.8319940594857886e+00 -7.0632261843299480e+00 -6.0650201945561797e+00 -1 0 0
2304 768 2 4.0999999999999998e-01 -1.7507184520199619e+00 -9.7040916357940148e+00 -5.6951139188411180e+00 1 3 4
770 257 2 4.0999999999999998e-01 -2.3055930237629045e+00 -7.5778448818002841e+00 -1.9508693405021091e+00 4 2 -2
1722 574 2 4.0999999999999998e-01 -4.5411352053805025e+00 -1.0138443480585231e+01 -1.3075618493261647e+00 1 1 2
781 261 1 -8.1999999999999995e-01 -2.7364698647470735e+00 -1.2843830742256465e+01 -2.9338148344745534e+00 1 3 0
181 61 1 -8.1999999999999995e-01 -2.5422279981621436e+00 -6.4347558080672549e+00 -5.3431038143528991e+00 -1 0 0
782 261 2 4.0999999999999998e-01 -3.4267075567874450e+00 -1.2131245453689186e+01 -2.8077310779769284e+00 1 3 0
1265 422 2 4.0999999999999998e-01 -6.9636225505172140e+00 -8.2385052676338439e+00 -6.9127992995908354e+00 -1 0 3
2335 779 1 -8.1999999999999995e-01 -4.8008218950696193e+00 -8.7005474176850210e+00 -4.4094032721642833e+00 -1 -1 1
783 261 2 4.0999999999999998e-01 -2.8092860613803836e+00 -1.3513024124784106e+01 -2.1942331413703418e+00 1 3 0
196 66 1 -8.1999999999999995e-01 -4.7877762757460509e+00 -1.1335591464876250e+01 -5.5873783883418611e+00 -1 1 0
227 76 2 4.0999999999999998e-01 -1.8795239456403063e+00 -1.4896764574648516e+01 -5.0754727100168484e+00 -2 0 -1
865 289 1 -8.1999999999999995e-01 -6.0948443945793240e+00 -1.2225480386459905e+01 -3.4045038458377253e+00 -1 -2 -2
867 289 2 4.0999999999999998e-01 -5.6331261806635116e+00 -1.2037080536469308e+01 -4.2713515035908358e+00 -1 -2 -2
2288 763 2 4.0999999999999998e-01 -6.5167296126389331e+00 -1.4242255606357190e+01 -5.2660267683999216e+00 3 2 3
226 76 1 -8.1999999999999995e-01 -2.1796084743328841e+00 -1.3987255365213883e+01 -5.3633012492267493e+00 -2 0 -1
1338 446 2 4.0999999999999998e-01 -8.1599516775160730e-01 -9.1351762874752431e+00 -3.2449935526706124e+00 2 0 0
1068 356 2 4.0999999999999998e-01 -2.5766783414742918e+00 -1.3074079017446772e+01 -7.0883015556118121e+00 0 6 1
288 96 2 4.0999999999999998e-01 -7.2460062313963380e+00 -1.2891182357175900e+01 -7.3302974310500453e+00 -1 1 0
1337 446 2 4.0999999999999998e-01 -2.5940446862395916e-01 -8.4705166135354393e+00 -4.6289500218602662e+00 2 0 0
252 84 2 4.0999999999999998e-01 -3.8979931777330634e-01 -8.7624944065073791e+00 -5.8341385222437836e-01 3 1 3
1945 649 1 -8.1999999999999995e-01 -2.9609986428012913e+00 -1.4584657272551592e+01 -1.0470216922190723e+00 1 -3 3
287 96 2 4.0999999999999998e-01 -7.1455300766988135e+00 -1.1262770010285337e+01 -7.2590306772429303e+00 -1 1 0
2220 740 2 4.0999999999999998e-01 -3.4489764120314543e+00 -8.6536738696370357e+00 -7.2752904898654691e+00 0 1 -1
1067 356 2 4.0999999999999998e-01 -2.7531676910301606e+00 -1.1454372338631972e+01 -7.1992205269965384e+00 0 6 1
1230 410 2 4.0999999999999998e-01 -1.3650885371785131e+01 -1.1752718912327401e+01 5.9083696994705637e+00 2 1 0
758 253 2 4.0999999999999998e-01 -1.1158229588157161e+01 -1.2297505591208523e+01 5.4265346574669291e+00 1 0 1
757 253 1 -8.1999999999999995e-01 -1.1759633507908397e+01 -1.3095980079111213e+01 5.4557713538787826e+00 1 0 1
759 253 2 4.0999999999999998e-01 -1.1602988054940170e+01 -1.3661105558192343e+01 4.6457105817241615e+00 1 0 1
2138 713 2 4.0999999999999998e-01 -1.0940570669998305e+01 -1.0737119802805198e+01 6.7146152749300168e+00 1 2 3
2137 713 1 -8.1999999999999995e-01 -1.0345840052310468e+01 -1.0670551236164052e+01 5.9133867310163328e+00 1 2 3
2139 713 2 4.0999999999999998e-01 -9.3991966867206536e+00 -1.0843287352539502e+01 6.1856578509118929e+00 1 2 3
242 81 2 4.0999999999999998e-01 -8.1899732743422344e+00 -6.3421079392124167e+00 3.9913500714036463e+00 0 -1 0
219 73 2 4.0999999999999998e-01 -8.7352946438746333e+00 -1.4435951913140421e+01 2.3009104716057411e+00 -5 2 3
2587 863 1 -8.1999999999999995e-01 -1.1422426890165388e+01 -1.4550966039098084e+01 3.1686472894832551e+00 2 -3 0
359 120 2 4.0999999999999998e-01 -1.3350425731712445e+01 -1.1424221235369405e+01 1.9374972325491715e+00 0 1 -1
1195 399 1 -8.1999999999999995e-01 -1.3752521316042257e+01 -8.3353769412583176e+00 1.7580826653095070e+00 3 -1 1
1746 582 2 4.0999999999999998e-01 -8.5644440420404067e+00 -8.2846631102360568e+00 3.4466106534902785e-01 -1 0 -4
312 104 2 4.0999999999999998e-01 -9.5297339981913858e+00 -7.7714425412712194e+00 2.2619438917063501e+00 2 -1 2
311 104 2 4.0999999999999998e-01 -1.1012507332496696e+01 -7.6644750614299957e+00 2.9378450417730289e+00 2 -1 2
2588 863 2 4.0999999999999998e-01 -1.0479767721570614e+01 -1.4308214231989558e+01 2.9393697308208377e+00 2 -3 0
310 104 1 -8.1999999999999995e-01 -1.0225772173104875e+01 -7.1424150155641444e+00 2.6082936210519332e+00 2 -1 2
1196 399 2 4.0999999999999998e-01 -1.2908517445901367e+01 -8.6651177304146714e+00 2.1812038504353044e+00 3 -1 1
843 281 2 4.0999999999999998e-01 -9.8394917640412007e+00 -6.2325781747967266e+00 9.3934939663934358e-01 0 2 2
1675 559 1 -8.1999999999999995e-01 -1.4497509986144321e+01 -1.4400422632211434e+01 5.8373396399712618e-01 2 2 0
616 206 1 -8.1999999999999995e-01 -1.2962598742027261e+01 -7.5233540605514975e+00 5.5188244383488847e+00 3 3 2
1676 559 2 4.0999999999999998e-01 -1.4460293579090985e+01 -1.3401324296293469e+01 5.6092119146820174e-01 2 2 0
618 206 2 4.0999999999999998e-01 -1.2664455125210200e+01 -8.1344947988819456e+00 4.7855302234491202e+00 3 3 2
1886 629 2 4.0999999999999998e-01 -1.1922647367057690e+01 -1.0284216491750282e+01 3.3606468040738573e+00 1 -1 1
1685 562 2 4.0999999999999998e-01 -1.1067613945022119e+01 -5.2024470507480949e+00 6.8919004281223000e+00 0 2 2
617 206 2 4.0999999999999998e-01 -1.3334103048976234e+01 -8.0644628065418527e+00 6.2733367557694013e+00 3 3 2
666 222 2 4.0999999999999998e-01 -1.3981931328822933e+01 -5.8469224203046757e+00 3.9655633599973026e+00 0 -4 2
1885 629 1 -8.1999999999999995e-01 -1.1766194603995476e+01 -9.4250544540189942e+00 3.8479518432426421e+00 1 -1 1
1745 582 2 4.0999999999999998e-01 -7.8717815076559070e+00 -9.2463388630289103e+00 1.4681821273025779e+00 -1 0 -4
1686 562 2 4.0999999999999998e-01 -1.1827059429087329e+01 -6.0363468456269693e+00 5.7109030688934812e+00 0 2 2
664 222 1 -8.1999999999999995e-01 -1.4556403345648599e+01 -5.7626558647652129e+00 3.1513250607585537e+00 0 -4 2
1887 629 2 4.0999999999999998e-01 -1.1046778475333777e+01 -9.5551002004841479e+00 4.5303238119682501e+00 1 -1 1
218 73 2 4.0999999999999998e-01 -9.1857325150048741e+00 -1.3579135679781636e+01 9.8566414082293541e-01 -5 2 3