LAMMPS data file via write_data, version 15 May 2015, timestep = 23005000

2611 atoms
6 atom types
1749 bonds
4 bond types
894 angles
3 angle types
44 dihedrals
3 dihedral types
10 impropers
1 improper types

-1.4981342719018254e+01 1.4981342719018254e+01 xlo xhi
-1.4981342719018254e+01 1.4981342719018254e+01 ylo yhi
-1.4981342719018254e+01 1.4981342719018254e+01 zlo zhi

Masses

1 15.9994
2 1.00794
3 12.0107
4 1.00794
5 12.0107
6 12.0107

Bond Coeffs # harmonic

1 1000 1
2 469 1.4
3 367 1.08
4 469 0.7

Angle Coeffs # harmonic

1 100 109.47
2 35 120
3 63 120

Dihedral Coeffs # opls

1 0 7.25 0 0
2 0 7.25 0 0
3 0 7.25 0 0

Improper Coeffs # cvff

1 2.5 -1 2

Atoms # full

1648 550 1 -8.1999999999999995e-01 -1.2026847935958843e+01 -1.3005838799258443e+01 -1.3519304587294613e+01 2 5 1
1636 546 1 -8.1999999999999995e-01 -1.0693538085003430e+01 -8.3069115722033189e+00 -1.1018021013453085e+01 3 3 2
1637 546 2 4.0999999999999998e-01 -1.1527415121093554e+01 -8.2458012642859799e+00 -1.0469372462564507e+01 3 3 2
1650 550 2 4.0999999999999998e-01 -1.2762930966022939e+01 -1.3240835924206188e+01 -1.2884435510207744e+01 2 5 1
1396 466 1 -8.1999999999999995e-01 -1.4063244739815204e+01 -1.3383906189891958e+01 -1.1433024416774986e+01 1 -2 4
1649 550 2 4.0999999999999998e-01 -1.1300430046506506e+01 -1.2527987358526039e+01 -1.3025264427805704e+01 2 5 1
1102 368 1 -8.1999999999999995e-01 -7.6315102973581279e+00 -1.0385749123808171e+01 -8.4867691795284657e+00 1 2 -1
1217 406 2 4.0999999999999998e-01 -8.8120613481244607e+00 -8.0544966707239070e+00 -1.0115238473209956e+01 0 2 -1
988 330 1 -8.1999999999999995e-01 -8.7492533496735483e+00 -9.1693447759045430e+00 -1.3394444465156413e+01 6 2 -3
1825 609 1 -8.1999999999999995e-01 -1.0342846901731885e+01 -1.1104093063048017e+01 -8.1921624650556772e+00 8 8 3
2067 689 2 4.0999999999999998e-01 -1.2999888489532712e+01 -6.9475898988692570e+00 -1.2403365441955387e+01 -2 2 -2
1638 546 2 4.0999999999999998e-01 -1.0854102391372903e+01 -8.9053790497677028e+00 -1.1802977315110532e+01 3 3 2
2066 689 2 4.0999999999999998e-01 -1.4421352165887935e+01 -7.7500396045325282e+00 -1.2452460881489451e+01 -2 2 -2
2065 689 1 -8.1999999999999995e-01 -1.3616179281716716e+01 -7.5487409498992584e+00 -1.1894539612586321e+01 -2 2 -2
1087 363 1 -8.1999999999999995e-01 -1.1853611191949909e+01 -1.1835346756794316e+01 -1.0517141613241119e+01 -1 7 2
9 3 2 4.0999999999999998e-01 -1.1332044458942303e+01 -1.4386381754020457e+01 -1.4197494637608322e+01 1 2 -3
1267 423 1 -8.1999999999999995e-01 -1.1511381231226309e+01 -5.7824587328068286e+00 -1.2794934474823183e+01 2 0 0
1089 363 2 4.0999999999999998e-01 -1.2499924860283819e+01 -1.2587012448789546e+01 -1.0648967293673589e+01 -1 7 2
1088 363 2 4.0999999999999998e-01 -1.2346931372770106e+01 -1.0965528590678129e+01 -1.0529476927273290e+01 -1 7 2
252 84 2 4.0999999999999998e-01 -1.0196412858254348e+01 -1.2073053677717905e+01 -1.1338246553139658e+01 9 0 7
250 84 1 -8.1999999999999995e-01 -9.4448644932892911e+00 -1.2028383933902800e+01 -1.1996486863242009e+01 9 0 7
1269 423 2 4.0999999999999998e-01 -1.1109102635004955e+01 -6.6479926100351108e+00 -1.2496398541804721e+01 2 0 0
1218 406 2 4.0999999999999998e-01 -7.6750029201499794e+00 -8.8744086664474029e+00 -9.2775408845567711e+00 0 2 -1
251 84 2 4.0999999999999998e-01 -8.6717542839730939e+00 -1.2563963641093089e+01 -1.1656552151145574e+01 9 0 7
1113 371 2 4.0999999999999998e-01 -1.3446423191850993e+01 -8.8126038700551046e+00 -1.0729964731531723e+01 0 1 0
1398 466 2 4.0999999999999998e-01 -1.4197619385698900e+01 -1.4372997284055627e+01 -1.1371844311107361e+01 1 -2 4
1111 371 1 -8.1999999999999995e-01 -1.3369985690285292e+01 -9.6712560721481289e+00 -1.0223038298487181e+01 0 1 0
1827 609 2 4.0999999999999998e-01 -1.0699545992429231e+01 -1.1456548581506929e+01 -9.0574031850378915e+00 8 8 3
989 330 2 4.0999999999999998e-01 -7.9370187776345364e+00 -8.7285244836317304e+00 -1.3012274932481995e+01 6 2 -3
990 330 2 4.0999999999999998e-01 -8.9784020139156517e+00 -9.9758732006663244e+00 -1.2849372230720071e+01 6 2 -3
1112 371 2 4.0999999999999998e-01 -1.4083726653925588e+01 -9.7101044759998807e+00 -9.5236347605902090e+00 0 1 0
575 192 2 4.0999999999999998e-01 -8.7626664027474330e+00 -1.2081344688783393e+01 -1.3973386600060657e+01 7 6 -4
500 167 2 4.0999999999999998e-01 -1.4616005897474322e+01 -1.1670337543803068e+01 -8.7314453939892562e+00 1 -3 2
574 192 1 -8.1999999999999995e-01 -8.4970722326892627e+00 -1.2086744004983759e+01 -1.4937508671744338e+01 7 6 -4
2018 673 2 4.0999999999999998e-01 -1.4616991250743721e+01 -1.4843097554254681e+01 -1.4806453419814940e+01 10 3 -5
1216 406 1 -8.1999999999999995e-01 -7.9048961620955502e+00 -7.9968000875740577e+00 -9.6983174901025944e+00 0 2 -1
1797 599 2 4.0999999999999998e-01 -7.8405085736233264e+00 -1.4672883629387414e+01 -1.2111920459996481e+01 3 -3 0
1225 409 1 -8.1999999999999995e-01 -1.2156134984044993e+01 -1.4744498726738748e+01 -9.2355187525666196e+00 6 -1 2
148 50 1 -8.1999999999999995e-01 -1.4466932037051677e+01 -5.8262387968292568e+00 -1.0029176483120269e+01 3 1 3
1826 609 2 4.0999999999999998e-01 -9.4045352829763953e+00 -1.0784264460218090e+01 -8.3240025858465785e+00 8 8 3
1226 409 2 4.0999999999999998e-01 -1.2645090362358985e+01 -1.4107628836556282e+01 -8.6393475042732391e+00 6 -1 2
2151 717 2 4.0999999999999998e-01 -1.2158988115380637e+01 -1.1757682347407703e+01 -1.4745234922554825e+01 4 2 4
149 50 2 4.0999999999999998e-01 -1.4025691387425447e+01 -6.5076194186214256e+00 -1.0613238060467605e+01 3 1 3
1268 423 2 4.0999999999999998e-01 -1.0865402306503292e+01 -5.3016086530159043e+00 -1.3387889002985025e+01 2 0 0
1397 466 2 4.0999999999999998e-01 -1.4938060360091535e+01 -1.2919482547348270e+01 -1.1294788438365012e+01 1 -2 4
1078 360 1 -8.1999999999999995e-01 -1.3078081432417623e+01 -1.2661468231403440e+01 -7.6550351780394799e+00 6 3 5
1019 340 2 4.0999999999999998e-01 -9.5912983687665356e+00 -5.4608521630410536e+00 -8.5043936713639230e+00 3 5 2
1018 340 1 -8.1999999999999995e-01 -9.6538765468655949e+00 -5.6156893143103108e+00 -7.5183864833961591e+00 3 5 2
855 285 2 4.0999999999999998e-01 -1.1711902915115857e-01 -1.4188267654648456e+01 -1.3345665078964892e+01 4 3 3
255 85 2 4.0999999999999998e-01 -1.0863037646863472e+00 -5.6122325359096674e+00 -7.7223305594785199e+00 5 8 -2
1795 599 1 -8.1999999999999995e-01 -7.4226995261591631e+00 -1.4010389489027318e+01 -1.1490118111247423e+01 3 -3 0
1104 368 2 4.0999999999999998e-01 -7.4642368463587561e+00 -9.8866133645643828e+00 -7.6364846199529701e+00 1 2 -1
1796 599 2 4.0999999999999998e-01 -7.2130684859459624e+00 -1.4456242973699863e+01 -1.0619847818549903e+01 3 -3 0
1135 379 1 -8.1999999999999995e-01 -6.7571833636975818e+00 -6.3748548164152670e+00 -1.4213150645977986e+01 7 2 0
407 136 2 4.0999999999999998e-01 -2.8103702865975499e-01 -1.2591727640523599e+01 -9.9915986815209727e+00 2 -1 3
1967 656 2 4.0999999999999998e-01 -5.2095822245029719e+00 -1.1469175315982021e+01 -1.4803120185536427e+01 7 -1 4
2034 678 2 4.0999999999999998e-01 -7.0853039234847150e+00 -6.1660671463855241e+00 -9.3719749510472337e+00 3 5 9
254 85 2 4.0999999999999998e-01 -1.2738650190273688e+00 -7.2016001556632272e+00 -8.0473322942114471e+00 5 8 -2
674 225 2 4.0999999999999998e-01 -5.1732433713764507e+00 -1.3829853710963228e+01 -1.4773549919259191e+01 0 5 6
1086 362 2 4.0999999999999998e-01 -5.1036361887994772e+00 -5.6685823486953240e+00 -1.1276269486722546e+01 3 1 5
192 64 2 4.0999999999999998e-01 -2.6794390805834798e+00 -1.4844165107473678e+01 -8.3605476500845448e+00 -2 0 5
780 260 2 4.0999999999999998e-01 -3.7898512482541253e+00 -9.4764311561750088e+00 -1.1050655707617500e+01 4 5 3
852 284 2 4.0999999999999998e-01 -1.4425384658181244e+00 -9.2583596387287788e+00 -7.7243954662981702e+00 2 4 4
854 285 2 4.0999999999999998e-01 -1.1093397341726909e+00 -1.4512456488795424e+01 -1.4601569132969393e+01 4 3 3
2530 844 1 -8.1999999999999995e-01 -1.0022295517791893e+00 -8.5457049512865417e+00 -9.2133918987213477e+00 -2 2 2
2162 721 2 4.0999999999999998e-01 -4.9772946195766288e-01 -6.2669385671996007e+00 -1.1890870963998271e+01 5 2 2
2032 678 1 -8.1999999999999995e-01 -6.4494245615707886e+00 -5.3981033114477945e+00 -9.2945811308500268e+00 3 5 9
41 14 2 4.0999999999999998e-01 -4.6487174720860018e+00 -6.6682603939799208e+00 -1.4419753027222120e+01 5 2 3
1103 368 2 4.0999999999999998e-01 -7.0306167596237437e+00 -1.1184056627807552e+01 -8.5283979513851556e+00 1 2 -1
256 86 1 -8.1999999999999995e-01 -2.8150092490220651e+00 -1.2376856494627514e+01 -1.2677968555887357e+01 1 7 1
853 285 1 -8.1999999999999995e-01 -1.0708317707775699e+00 -1.4299619041242813e+01 -1.3625188974379480e+01 4 3 3
815 272 2 4.0999999999999998e-01 -5.8764562588601539e+00 -1.2796858764251050e+01 -1.0998618309339276e+01 6 2 4
581 194 2 4.0999999999999998e-01 -9.8132578192543107e-01 -1.0486727827847048e+01 -1.4323535996371120e+01 2 5 -1
778 260 1 -8.1999999999999995e-01 -4.6468938930658901e+00 -9.6389700528565641e+00 -1.1539695273274406e+01 4 5 3
582 194 2 4.0999999999999998e-01 -1.9854605217570285e+00 -1.0895100007011152e+01 -1.3102126717318161e+01 2 5 -1
1968 656 2 4.0999999999999998e-01 -3.7704745119001117e+00 -1.0846122718160533e+01 -1.4347412646812920e+01 7 -1 4
1136 379 2 4.0999999999999998e-01 -6.9763414792104008e+00 -6.7764005630208644e+00 -1.3323863646460307e+01 7 2 0
1137 379 2 4.0999999999999998e-01 -6.2932168397052539e+00 -7.0550264432879839e+00 -1.4780779293053259e+01 7 2 0
580 194 1 -8.1999999999999995e-01 -1.5364974480950728e+00 -1.0133929686734636e+01 -1.3570264028324379e+01 2 5 -1
861 287 2 4.0999999999999998e-01 -2.6480062937499014e+00 -7.3297640813564451e+00 -1.2757408829406652e+01 2 5 0
2125 709 1 -8.1999999999999995e-01 -6.4718377254946091e+00 -7.6624398211510130e+00 -1.1823448019576187e+01 2 9 -4
2531 844 2 4.0999999999999998e-01 -1.2969470873137681e+00 -8.7143162888707657e+00 -1.0154036572166184e+01 -2 2 2
2126 709 2 4.0999999999999998e-01 -5.9487002219797454e+00 -8.5078605296112393e+00 -1.1715319805205342e+01 2 9 -4
40 14 1 -8.1999999999999995e-01 -3.7967415402442910e+00 -6.3575376668471808e+00 -1.3998221285338087e+01 5 2 3
816 272 2 4.0999999999999998e-01 -4.8790081177858848e+00 -1.2456431618395257e+01 -9.7511803909067751e+00 6 2 4
779 260 2 4.0999999999999998e-01 -4.6836070203625351e+00 -1.0592094026344054e+01 -1.1840207325246871e+01 4 5 3
2532 844 2 4.0999999999999998e-01 -1.4625325006016077e-01 -8.0286333636424896e+00 -9.2198859465423411e+00 -2 2 2
257 86 2 4.0999999999999998e-01 -2.3282236164379544e+00 -1.3149352003887660e+01 -1.3085879270431450e+01 1 7 1
859 287 1 -8.1999999999999995e-01 -2.0276456651559798e+00 -7.8526300243663769e+00 -1.2172717021770849e+01 2 5 0
2337 779 2 4.0999999999999998e-01 -4.6869422053543079e+00 -1.0831669799305821e+01 -7.8665570482537257e+00 0 -3 1
860 287 2 4.0999999999999998e-01 -1.8709013081382064e+00 -8.7545018921183857e+00 -1.2575406683844538e+01 2 5 0
42 14 2 4.0999999999999998e-01 -4.0040830955663456e+00 -5.8546602333646618e+00 -1.3159040501755381e+01 5 2 3
2335 779 1 -8.1999999999999995e-01 -4.6362826875695635e+00 -1.1759470731446367e+01 -8.2363134454035922e+00 0 -3 1
2127 709 2 4.0999999999999998e-01 -7.1101917120022700e+00 -7.5654763276033119e+00 -1.1059770610193091e+01 2 9 -4
258 86 2 4.0999999999999998e-01 -3.2844168657354302e+00 -1.2679226768373734e+01 -1.1848312345633595e+01 1 7 1
880 294 1 -8.1999999999999995e-01 -4.6784487463895363e+00 -8.8761728360074947e+00 -7.7225515678510455e+00 -1 0 0
2033 678 2 4.0999999999999998e-01 -5.6042540787365311e+00 -5.7077610066769235e+00 -8.8588061677721761e+00 3 5 9
814 272 1 -8.1999999999999995e-01 -4.9450473409883973e+00 -1.2534655626590132e+01 -1.0745977082093297e+01 6 2 4
882 294 2 4.0999999999999998e-01 -5.0603077883518939e+00 -7.9602557481716412e+00 -7.5985341119640015e+00 -1 0 0
2336 779 2 4.0999999999999998e-01 -4.1379312392672709e+00 -1.2346016929987691e+01 -7.5977916090283699e+00 0 -3 1
847 283 1 -8.1999999999999995e-01 -8.3626842858453188e+00 -6.1709174984333668e+00 -4.3106554860747970e+00 -1 4 2
1508 503 2 4.0999999999999998e-01 -1.1117702878166501e+01 -8.6732939910480216e+00 -1.2564397466739585e+00 -2 9 3
1507 503 1 -8.1999999999999995e-01 -1.0861950912902849e+01 -9.1352351019218148e+00 -2.1057347408691403e+00 -2 9 3
1509 503 2 4.0999999999999998e-01 -1.1528787136527191e+01 -8.9162979390412005e+00 -2.8181227196020728e+00 -2 9 3
848 283 2 4.0999999999999998e-01 -8.7459776877966409e+00 -7.0412706212411136e+00 -4.6199649586058023e+00 -1 4 2
2386 796 1 -8.1999999999999995e-01 -1.2567057942404748e+01 -8.7150912056084824e+00 -4.2272758264648953e+00 1 5 0
2388 796 2 4.0999999999999998e-01 -1.3541281915298535e+01 -8.8311623057696469e+00 -4.0335857587495472e+00 1 5 0
2554 852 1 -8.1999999999999995e-01 -8.2766562577672911e+00 -9.8750164640439806e+00 -1.7053963101003102e+00 7 4 -4
2556 852 2 4.0999999999999998e-01 -8.0742299397409489e+00 -1.0032813525931626e+01 -7.3884352285206134e-01 7 4 -4
1817 606 2 4.0999999999999998e-01 -1.2143699994891790e+01 -6.6280159440266395e+00 -3.8113271666169819e+00 1 -1 -3
1080 360 2 4.0999999999999998e-01 -1.2934874070019347e+01 -1.3351581051598176e+01 -6.9455729382442488e+00 6 3 5
820 274 1 -8.1999999999999995e-01 -8.6539302637867941e+00 -1.0753392615754127e+01 -4.4432938076380069e+00 3 -1 1
2325 775 2 4.0999999999999998e-01 -1.2904280230409698e+01 -5.9130046389935096e+00 -7.2236768532254789e+00 -3 0 -6
2555 852 2 4.0999999999999998e-01 -9.1972862188634004e+00 -9.4949689643555004e+00 -1.7954241610090982e+00 7 4 -4
2323 775 1 -8.1999999999999995e-01 -1.2260357698714552e+01 -6.6761830218510276e+00 -7.2786605732747072e+00 -3 0 -6
1641 547 2 4.0999999999999998e-01 -8.6214079988916925e+00 -6.2344017759340868e+00 -6.5802077694233496e-01 5 3 -2
2387 796 2 4.0999999999999998e-01 -1.2349311122952152e+01 -9.1384061958402825e+00 -5.1067594299554084e+00 1 5 0
1025 342 2 4.0999999999999998e-01 -1.1061172964580690e+01 -1.3633638828221329e+01 -4.4191212983167674e+00 2 2 -3
822 274 2 4.0999999999999998e-01 -8.5368644743874675e+00 -1.0680577562195531e+01 -3.4527918171735887e+00 3 -1 1
204 68 2 4.0999999999999998e-01 -9.9465932991989519e+00 -1.1675445252546730e+01 -5.1808474677451350e+00 -4 7 1
203 68 2 4.0999999999999998e-01 -1.0845579845938412e+01 -1.1648167378987601e+01 -6.5439226424909371e+00 -4 7 1
1026 342 2 4.0999999999999998e-01 -1.0984797215355304e+01 -1.3230158950504785e+01 -2.8385310488550815e+00 2 2 -3
821 274 2 4.0999999999999998e-01 -8.4519137797364330e+00 -9.8711070209513512e+00 -4.8685727579400755e+00 3 -1 1
829 277 1 -8.1999999999999995e-01 -7.6130492254694371e+00 -8.4231672313787413e+00 -6.3671664032476016e+00 6 1 0
1460 487 2 4.0999999999999998e-01 -1.2312644172047914e+01 -1.4914317269807754e+01 -2.9513657654707259e+00 2 -3 -2
1598 533 2 4.0999999999999998e-01 -1.2101044909356926e+01 -8.4116207714578159e+00 -7.1255463324582795e+00 7 2 -3
202 68 1 -8.1999999999999995e-01 -1.0748063571343838e+01 -1.2060860991928498e+01 -5.6382322027880249e+00 -4 7 1
1777 593 1 -8.1999999999999995e-01 -1.4722020353778957e+01 -6.2770837557746795e+00 -2.7404417744427079e-01 3 1 -4
222 74 2 4.0999999999999998e-01 -1.4009499931245378e+01 -9.1528735551700358e+00 -6.7085752689542844e+00 1 2 -5
1597 533 1 -8.1999999999999995e-01 -1.2294517115312015e+01 -9.3908755510230932e+00 -7.0644785816420610e+00 7 2 -3
2418 806 2 4.0999999999999998e-01 -9.3205599356110440e+00 -1.4520757644962430e+01 -3.3846493273653486e+00 8 3 1
1024 342 1 -8.1999999999999995e-01 -1.0869175087909626e+01 -1.3972867419332168e+01 -3.4981645036788027e+00 2 2 -3
2416 806 1 -8.1999999999999995e-01 -8.4080538491603551e+00 -1.4856765652712049e+01 -3.1511281129465036e+00 8 3 1
1816 606 1 -8.1999999999999995e-01 -1.2379092627564477e+01 -5.6570565217341144e+00 -3.7674095016712901e+00 1 -1 -3
1599 533 2 4.0999999999999998e-01 -1.1549238189803187e+01 -9.9050110747196776e+00 -7.4891253150539008e+00 7 2 -3
2417 806 2 4.0999999999999998e-01 -8.2112605932776628e+00 -1.4648523032354593e+01 -2.1930006907118855e+00 8 3 1
1818 606 2 4.0999999999999998e-01 -1.2945994009764094e+01 -5.4155487377281517e+00 -4.5550626674113133e+00 1 -1 -3
2553 851 2 4.0999999999999998e-01 -1.1063070231732890e+01 -1.1048800714874005e+01 -1.8925070769973562e+00 3 2 4
2551 851 1 -8.1999999999999995e-01 -1.0614446210398301e+01 -1.1910672960242005e+01 -1.6558351314667625e+00 3 2 4
1510 504 1 -8.1999999999999995e-01 -1.4841151583022693e+01 -5.5881748547865531e+00 -5.7320802019987909e+00 -1 0 3
1079 360 2 4.0999999999999998e-01 -1.2964256055965581e+01 -1.1749493704009943e+01 -7.2607676893439432e+00 6 3 5
1639 547 1 -8.1999999999999995e-01 -8.8189054424802826e+00 -5.6514669048325885e+00 -1.4462354277776193e+00 5 3 -2
1778 593 2 4.0999999999999998e-01 -1.3970576239258223e+01 -5.7554975308449219e+00 -6.7824731787277948e-01 3 1 -4
2552 851 2 4.0999999999999998e-01 -1.0044372416113351e+01 -1.1778038113857791e+01 -8.4495610906485830e-01 3 2 4
1988 663 2 4.0999999999999998e-01 -1.3964198183221798e+01 -1.2681631182137480e+01 -4.0685140998698852e+00 1 1 8
846 282 2 4.0999999999999998e-01 -1.3454376113710069e+01 -1.4702103175857662e+01 -4.4631418366239561e+00 4 2 3
1989 663 2 4.0999999999999998e-01 -1.4365053146382243e+01 -1.1674648872588611e+01 -2.8469590597104144e+00 1 1 8
1322 441 2 4.0999999999999998e-01 -9.4562447011306840e+00 -1.4777750632407299e+01 -1.7248262288948624e-01 3 -3 6
849 283 2 4.0999999999999998e-01 -8.6917674601959973e+00 -5.9709925115168030e+00 -3.3877064219794768e+00 -1 4 2
844 282 1 -8.1999999999999995e-01 -1.3435652199724171e+01 -1.4604568129303976e+01 -5.4582484888580964e+00 4 2 3
1987 663 1 -8.1999999999999995e-01 -1.4721137784400682e+01 -1.2220116030753948e+01 -3.6057541097171200e+00 1 1 8
1020 340 2 4.0999999999999998e-01 -8.9182476571192559e+00 -5.1206696834011058e+00 -7.0558862009550669e+00 3 5 2
831 277 2 4.0999999999999998e-01 -8.3164923547626906e+00 -7.7273272600310152e+00 -6.5123391349411897e+00 6 1 0
2324 775 2 4.0999999999999998e-01 -1.1326239181776179e+01 -6.3217049870834021e+00 -7.3218894166650665e+00 -3 0 -6
1593 531 2 4.0999999999999998e-01 -3.2604390140820012e+00 -9.6351309741676019e+00 -2.2215974707325277e+00 1 5 0
1336 446 1 -8.1999999999999995e-01 -4.8467139411713891e+00 -1.4450331192584352e+01 -4.4438065723475439e-01 6 2 -5
830 277 2 4.0999999999999998e-01 -6.7147835122300368e+00 -7.9855390019387631e+00 -6.3259249085015217e+00 6 1 0
456 152 2 4.0999999999999998e-01 -1.8509215849283223e-02 -1.1179450373673507e+01 -3.7810718115596718e+00 4 2 5
1475 492 2 4.0999999999999998e-01 -4.8793563508213396e+00 -7.9108351143848346e+00 -1.0897388494017370e+00 3 -1 -3
190 64 1 -8.1999999999999995e-01 -2.5872848878830137e+00 -1.4685949554258301e+01 -7.3774016448552393e+00 -2 0 5
51 17 2 4.0999999999999998e-01 -3.5703817015937478e+00 -6.4377049507523143e+00 -9.2351209985186955e-01 -1 6 0
2056 686 1 -8.1999999999999995e-01 -5.3136996312624589e+00 -6.3177020723180952e+00 -6.6407162050790305e+00 5 3 2
881 294 2 4.0999999999999998e-01 -3.7936479678755575e+00 -8.9338581428699122e+00 -7.2600576604183722e+00 -1 0 0
2058 686 2 4.0999999999999998e-01 -5.9039653628768463e+00 -5.5203156314868007e+00 -6.5147723041359367e+00 5 3 2
850 284 1 -8.1999999999999995e-01 -1.6269749443485484e+00 -9.6265948159030899e+00 -6.8130850427854792e+00 2 4 4
1928 643 2 4.0999999999999998e-01 -6.0337399464938102e-03 -6.4536757032995400e+00 -5.5585564631727085e+00 6 5 3
601 201 1 -8.1999999999999995e-01 -6.8334042538397810e-01 -1.2243314854503007e+01 -6.4244323114151225e+00 0 4 3
972 324 2 4.0999999999999998e-01 -3.0389309865341332e+00 -7.1694044847121630e+00 -4.2471082476114432e+00 2 5 -2
191 64 2 4.0999999999999998e-01 -3.4932629849090446e+00 -1.4556368170093764e+01 -6.9742726558570780e+00 -2 0 5
476 159 2 4.0999999999999998e-01 -1.7717128179554607e+00 -1.1503732229656737e+01 -1.0580021912456381e+00 0 7 4
851 284 2 4.0999999999999998e-01 -1.3789530432746062e+00 -1.0595087732528453e+01 -6.7884415321657396e+00 2 4 4
1474 492 1 -8.1999999999999995e-01 -4.8514991150123876e+00 -7.3599040867706309e+00 -2.5559271932992367e-01 3 -1 -3
1917 639 2 4.0999999999999998e-01 -5.4295530427363410e+00 -1.3597686511646710e+01 -5.8843923541938263e+00 3 2 1
892 298 1 -8.1999999999999995e-01 -1.7103659828822781e+00 -8.2905848626714302e+00 -4.3751307039396021e+00 2 5 6
928 310 1 -8.1999999999999995e-01 -4.3970954192489007e+00 -1.0340004341537959e+01 -4.7232113817152985e+00 4 1 -2
970 324 1 -8.1999999999999995e-01 -3.7585599139054686e+00 -6.4827050761674361e+00 -4.1437699714919525e+00 2 5 -2
2057 686 2 4.0999999999999998e-01 -4.7538738116262156e+00 -6.4505326484899417e+00 -5.8227603872473548e+00 5 3 2
1591 531 1 -8.1999999999999995e-01 -2.9449099046537484e+00 -1.0443602177503191e+01 -1.7246906600971972e+00 1 5 0
868 290 1 -8.1999999999999995e-01 -4.4575544558480082e+00 -1.3039409755200673e+01 -2.7113992032770895e+00 -1 2 0
50 17 2 4.0999999999999998e-01 -2.0913661803868013e+00 -5.7519191781919101e+00 -1.0189363844753050e+00 -1 6 0
253 85 1 -8.1999999999999995e-01 -1.0876207670681257e+00 -6.5315505951674258e+00 -7.3286896296433275e+00 5 8 -2
1915 639 1 -8.1999999999999995e-01 -5.1047878607609292e+00 -1.4351665467548303e+01 -6.4554829928144422e+00 3 2 1
870 290 2 4.0999999999999998e-01 -3.8015204163673033e+00 -1.3629779932748059e+01 -3.1817001944572922e+00 -1 2 0
1633 545 1 -8.1999999999999995e-01 -5.3694297977965437e+00 -9.0414656083763347e+00 -2.5477451993122457e+00 6 -3 0
1634 545 2 4.0999999999999998e-01 -6.2356406847642383e+00 -9.2702408708121489e+00 -2.1034016038343974e+00 6 -3 0
894 298 2 4.0999999999999998e-01 -1.4128204572576166e+00 -8.5017907118931220e+00 -5.3062373368608959e+00 2 5 6
930 310 2 4.0999999999999998e-01 -4.6762703320411720e+00 -1.0021715786274640e+01 -3.8172012359189118e+00 4 1 -2
2494 832 1 -8.1999999999999995e-01 -1.3086971518810433e+00 -1.4959812933443157e+01 -1.1460355545035323e+00 3 3 4
477 159 2 4.0999999999999998e-01 -1.5352646887557118e+00 -1.3034517622336661e+01 -5.4062079413143493e-01 0 7 4
1592 531 2 4.0999999999999998e-01 -3.6451718724168032e+00 -1.1156206953575433e+01 -1.7686037485963588e+00 1 5 0
869 290 2 4.0999999999999998e-01 -5.1938865038593178e+00 -1.2791431101935997e+01 -3.3410201838774451e+00 -1 2 0
893 298 2 4.0999999999999998e-01 -9.1054005746387645e-01 -8.2049103323262162e+00 -3.7809598095631411e+00 2 5 6
971 324 2 4.0999999999999998e-01 -3.7270699260965348e+00 -6.1034417511596466e+00 -3.2189627641049512e+00 2 5 -2
49 17 1 -8.1999999999999995e-01 -2.9381392006608031e+00 -5.9393988899610477e+00 -1.5168595067946633e+00 -1 6 0
1635 545 2 4.0999999999999998e-01 -5.5320639547631103e+00 -8.3663963764138884e+00 -3.2674203710813696e+00 6 -3 0
929 310 2 4.0999999999999998e-01 -3.5007335525136440e+00 -9.9583626855623884e+00 -4.9490115163456654e+00 4 1 -2
1338 446 2 4.0999999999999998e-01 -4.8492967916928151e+00 -1.4152848522537745e+01 -1.3991571694524296e+00 6 2 -5
454 152 1 -8.1999999999999995e-01 -7.9770964728146332e-01 -1.1794830464545596e+01 -3.6616789816575182e+00 4 2 5
1958 653 2 4.0999999999999998e-01 -7.4309038659171689e+00 -1.3667970939036573e+01 -4.3270023822275885e+00 8 7 -5
475 159 1 -8.1999999999999995e-01 -1.1557205579818248e+00 -1.2109388897921914e+01 -5.5418259345617749e-01 0 7 4
455 152 2 4.0999999999999998e-01 -1.5902713081913884e+00 -1.1272040158603476e+01 -3.3476137727324904e+00 4 2 5
144 48 2 4.0999999999999998e-01 -2.0014516305274199e-01 -8.9695675814781701e+00 -2.2722702455189570e-01 5 2 -1
1957 653 1 -8.1999999999999995e-01 -6.8015693325051174e+00 -1.2891603220533099e+01 -4.3629452680473513e+00 8 7 -5
1959 653 2 4.0999999999999998e-01 -7.3191384914468101e+00 -1.2049797250689151e+01 -4.5165212324703141e+00 8 7 -5
603 201 2 4.0999999999999998e-01 -7.2831066769809638e-01 -1.2216138241638046e+01 -5.4257632783780601e+00 0 4 3
2513 838 2 4.0999999999999998e-01 -4.6539677390242851e-01 -1.3795000848890778e+01 -3.2875836361601536e+00 9 5 4
602 201 2 4.0999999999999998e-01 -1.0969535627742744e+00 -1.3092182230671941e+01 -6.7537483871787387e+00 0 4 3
1779 593 2 4.0999999999999998e-01 -1.4555260059444430e+01 -6.3980713628503221e+00 7.0455365835313977e-01 3 1 -4
1964 655 2 4.0999999999999998e-01 -1.1263947927739901e+01 -6.8425473530160712e+00 5.9449499144983236e+00 4 2 5
2213 738 2 4.0999999999999998e-01 -1.1484726612865064e+01 -6.1897174883783936e+00 3.6034610896577419e+00 4 -6 1
573 191 2 4.0999999999999998e-01 -9.9755571164212782e+00 -9.4058833860144180e+00 7.0022205223176748e+00 6 3 -2
998 333 2 4.0999999999999998e-01 -1.4689432789039509e+01 -8.0041690478043641e+00 3.6823941733143144e+00 4 1 3
415 139 1 -8.1999999999999995e-01 -9.4526098645916399e+00 -1.3699231476988318e+01 3.0352710743466993e+00 7 6 3
1963 655 1 -8.1999999999999995e-01 -1.1235622710325677e+01 -6.6717734536724294e+00 6.9299040131968681e+00 4 2 5
76 26 1 -8.1999999999999995e-01 -1.2058952369630337e+01 -1.2087839968603195e+01 6.2478285613596753e+00 4 2 0
77 26 2 4.0999999999999998e-01 -1.1636326187531704e+01 -1.1897268529801412e+01 5.3617301687958268e+00 4 2 0
2212 738 1 -8.1999999999999995e-01 -1.0652418925491659e+01 -6.1050763704555635e+00 4.1513666034953260e+00 4 -6 1
366 122 2 4.0999999999999998e-01 -9.8402119699438444e+00 -1.0902624173795378e+01 1.7774783530856020e+00 0 8 0
1031 344 2 4.0999999999999998e-01 -1.4614784271421366e+01 -9.7829524373470917e+00 5.1756762431955110e+00 1 2 -3
2214 738 2 4.0999999999999998e-01 -1.0357303569408803e+01 -5.1496438839183991e+00 4.1638708709631373e+00 4 -6 1
843 281 2 4.0999999999999998e-01 -1.4645815328916344e+01 -8.8206443239418917e+00 1.1288952645689072e+00 0 4 1
364 122 1 -8.1999999999999995e-01 -9.4665730982040834e+00 -1.0942583093110791e+01 8.5071049281043187e-01 0 8 0
365 122 2 4.0999999999999998e-01 -8.4857362132995018e+00 -1.0749431205749888e+01 8.7813255955890135e-01 0 8 0
1539 513 2 4.0999999999999998e-01 -1.4108934405965700e+01 -1.1632783303030440e+01 3.0403669043906270e+00 3 -1 6
1965 655 2 4.0999999999999998e-01 -1.2165387824013530e+01 -6.5328787143713676e+00 7.2709990467095196e+00 4 2 5
604 202 1 -8.1999999999999995e-01 -9.5462914410577255e+00 -8.5617334393045770e+00 3.9834240260855260e+00 3 7 5
605 202 2 4.0999999999999998e-01 -9.9828759004613659e+00 -7.6720572816990869e+00 3.8493671324872700e+00 3 7 5
663 221 2 4.0999999999999998e-01 -1.0376592986648266e+01 -1.4097098793925921e+01 1.5919872990754769e+00 2 5 4
1032 344 2 4.0999999999999998e-01 -1.3083696582314124e+01 -9.3464042658344759e+00 5.5391201399466468e+00 1 2 -3
685 229 1 -8.1999999999999995e-01 -1.0680416220021408e+01 -1.1212571483999984e+01 3.3886349739776449e+00 6 1 -1
1537 513 1 -8.1999999999999995e-01 -1.3314964969426594e+01 -1.1683027400123684e+01 3.6463278633553067e+00 3 -1 6
686 229 2 4.0999999999999998e-01 -1.1647106749981534e+01 -1.1255001716663699e+01 3.1360288043663935e+00 6 1 -1
937 313 1 -8.1999999999999995e-01 -8.6175726233794645e+00 -6.9804078943335650e+00 7.7626443315240046e-01 3 0 -4
572 191 2 4.0999999999999998e-01 -8.7603963927423862e+00 -1.0466943453899070e+01 6.7483880486486534e+00 6 3 -2
687 229 2 4.0999999999999998e-01 -1.0380905776653332e+01 -1.0258516679716998e+01 3.4018251830299882e+00 6 1 -1
606 202 2 4.0999999999999998e-01 -9.7018670148144714e+00 -8.8714103816886993e+00 4.9215056527870402e+00 3 7 5
416 139 2 4.0999999999999998e-01 -8.5188677371558583e+00 -1.3885840713498704e+01 2.7296514185947345e+00 7 6 3
541 181 1 -8.1999999999999995e-01 -1.2795496271872521e+01 -6.5487899538553247e+00 2.2709692001894695e+00 -4 1 -2
1601 534 2 4.0999999999999998e-01 -7.6706204328605594e+00 -8.7921284439138159e+00 5.6983255281110594e+00 5 3 -1
417 139 2 4.0999999999999998e-01 -9.5858042210174190e+00 -1.2711373756067026e+01 3.1158751443569059e+00 7 6 3
1030 344 1 -8.1999999999999995e-01 -1.3929580926891779e+01 -9.0596746074211403e+00 5.0892684802127128e+00 1 2 -3
83 28 2 4.0999999999999998e-01 -1.4072780613914560e+01 -8.0658955361219071e+00 6.6008427152587537e+00 3 2 0
571 191 1 -8.1999999999999995e-01 -9.4259633912228118e+00 -9.8664180531311967e+00 6.3051156144713509e+00 6 3 -2
543 181 2 4.0999999999999998e-01 -1.3129718687730444e+01 -5.6157967820709445e+00 2.4048349206683497e+00 -4 1 -2
1538 513 2 4.0999999999999998e-01 -1.3619365645712410e+01 -1.1647249241424364e+01 4.5982526444437752e+00 3 -1 6
938 313 2 4.0999999999999998e-01 -8.5794220243304409e+00 -6.4332179263936009e+00 1.6124631736004460e+00 3 0 -4
542 181 2 4.0999999999999998e-01 -1.3535524768092692e+01 -7.1969698760093888e+00 2.4507502941276442e+00 -4 1 -2
661 221 1 -8.1999999999999995e-01 -1.0868950045624583e+01 -1.4012193905312486e+01 7.2568693066623169e-01 2 5 4
2219 740 2 4.0999999999999998e-01 -1.1708041511512508e+01 -7.4523835652363655e+00 6.9492368388013404e-01 0 1 -5
82 28 1 -8.1999999999999995e-01 -1.3763513972157893e+01 -7.3988140011201313e+00 7.2786753306567817e+00 3 2 0
2220 740 2 4.0999999999999998e-01 -1.0207200448179936e+01 -8.0926299130404971e+00 7.6167350759924624e-01 0 1 -5
1602 534 2 4.0999999999999998e-01 -7.5186883966080913e+00 -8.0220092060110293e+00 7.1303618254404348e+00 5 3 -1
789 263 2 4.0999999999999998e-01 -8.9973080915920853e+00 -1.2618691628435283e+01 7.2226054178772330e+00 6 10 1
939 313 2 4.0999999999999998e-01 -7.8395513310092415e+00 -7.6082949711808352e+00 7.5299810329562256e-01 3 0 -4
2218 740 1 -8.1999999999999995e-01 -1.1138076480024434e+01 -8.2274593205204987e+00 4.2198026299241498e-01 0 1 -5
841 281 1 -8.1999999999999995e-01 -1.4141171348275360e+01 -9.4229184170987175e+00 5.1026691972327498e-01 0 4 1
1240 414 1 -8.1999999999999995e-01 -1.1465350477906545e+01 -1.4901423379986003e+01 4.4014486083881295e+00 1 4 0
842 281 2 4.0999999999999998e-01 -1.3197809519997980e+01 -9.1013776381212423e+00 4.2792253138955516e-01 0 4 1
78 26 2 4.0999999999999998e-01 -1.1346949975297992e+01 -1.2177528078550429e+01 6.9443264046646540e+00 4 2 0
600 200 2 4.0999999999999998e-01 -1.4846789956092806e+01 -1.0656239034727989e+01 1.2908965212435497e+00 5 1 -3
75 25 2 4.0999999999999998e-01 -7.5164028863830907e+00 -1.2156980810388848e+01 5.6576251363377139e+00 1 0 0