2611
Atoms. Timestep: 8000000
O -1.84573 2.01332 -1.09045
H -1.85476 2.4891 -0.21096
H -0.955518 1.5781 -1.22484
O 12.1953 6.45577 -5.28718
H 12.3525 7.37835 -4.9349
H 12.0633 6.49519 -6.27762
O 4.7886 10.0367 -1.59423
H 4.59779 9.20419 -2.11425
H 5.7526 10.2812 -1.69846
O -14.433 -0.602763 6.47262
H -14.7497 0.333414 6.62504
H -14.36 -1.07694 7.35
O -3.72946 0.215969 -1.89944
H -2.99809 0.799945 -1.54726
H -4.29526 -0.104349 -1.1397
O -3.52258 -9.69808 0.632797
H -3.75121 -8.72524 0.668397
H -4.32025 -10.238 0.901481
O -13.9385 11.185 -5.00551
H -14.5496 10.4018 -4.89109
H -13.2675 10.9828 -5.71883
O -10.6541 -6.90735 -10.3291
H -10.7242 -7.38176 -9.45166
H -11.0596 -5.99678 -10.2491
O -3.9716 -11.2343 11.3456
H -3.50305 -12.0229 10.9476
H -4.6433 -11.5491 12.0162
O -1.80424 -14.258 2.03673
H -2.76238 -14.1294 1.78105
H -1.30702 -13.3999 1.90863
O 12.797 -12.5858 -1.2011
H 12.961 -13.5712 -1.24576
H 11.8445 -12.4176 -0.947461
O -9.77267 1.12643 -0.605592
H -9.5372 0.161306 -0.491368
H -9.53975 1.62726 0.227995
O 6.32442 -8.73157 -0.627991
H 6.61949 -9.6853 -0.685457
H 5.78225 -8.50116 -1.43602
O -14.0283 4.88852 -3.58855
H -14.4314 5.74327 -3.26171
H -14.6564 4.13229 -3.40531
O 5.1345 -0.847533 11.4153
H 5.44012 -1.63172 10.8753
H 4.42294 -0.354884 10.9144
O 12.7144 -11.1066 -10.6104
H 13.467 -10.5191 -10.9076
H 13.0771 -11.9925 -10.3214
O -3.91458 -2.23083 -11.5155
H -3.66041 -1.34602 -11.906
H -3.298 -2.4511 -10.7597
O -2.15231 -7.06288 12.8515
H -1.2826 -7.31316 12.4262
H -2.9002 -7.2456 12.2134
O 5.57356 10.8977 -5.26701
H 6.41598 10.5645 -4.84361
H 5.74744 11.118 -6.2268
O -3.07855 0.8221 12.6575
H -3.07001 0.530355 11.7011
H -2.49439 0.215165 13.1963
O 10.7982 2.31942 8.0382
H 10.9158 2.82654 7.18441
H 10.5364 2.9512 8.76776
O 2.68257 -3.19869 -13.7578
H 2.01854 -2.71385 -13.1886
H 2.48496 -4.17877 -13.739
O 13.1538 2.2246 -0.27725
H 12.2261 2.51947 -0.506172
H 13.2353 2.12 0.713899
O 13.0158 -4.35896 1.42127
H 13.0235 -4.23842 2.41393
H 12.3724 -3.71214 1.01197
O -7.39616 -3.45994 5.74267
H -7.1456 -4.18916 5.10595
H -7.76986 -2.68554 5.23219
O 8.02039 -8.34311 7.77922
H 7.05217 -8.37342 8.02739
H 8.35655 -9.27364 7.63407
O 2.67975 -11.8109 10.799
H 3.12254 -12.6659 11.069
H 1.69096 -11.9501 10.7455
O -2.95204 9.78888 -0.118286
H -2.60118 9.58282 -1.03173
H -2.24098 10.2449 0.416842
O 10.4096 -14.6653 11.2969
H 10.6029 -14.1717 12.1448
H 9.70331 14.565 11.4651
O 14.0528 11.4276 -12.6595
H 14.8576 11.55 -12.0787
H 13.3423 10.9451 -12.1472
O -2.63984 -14.5093 -4.13409
H -2.76034 -13.9654 -3.30366
H -3.4952 14.9385 -4.35168
O 14.231 -1.63213 11.0432
H 13.7104 -2.42802 10.7342
H -14.7521 -1.68894 10.6929
O -0.973875 11.3643 0.992424
H -0.388074 11.3578 1.80282
H -0.542816 11.9101 0.273935
O 8.77936 7.27779 -6.15867
H 8.91832 6.40188 -6.62066
H 8.96236 8.02456 -6.79804
O -10.5865 -12.9839 -4.87648
H -9.64986 -12.7309 -5.11848
H -10.8357 -12.5503 -4.01054
O -4.42058 8.94576 9.11468
H -4.17627 9.82603 8.70799
H -3.7279 8.68566 9.78735
O 12.8717 -6.94146 10.6705
H 13.8671 -7.02337 10.7185
H 12.5272 -7.50119 9.9168
O -11.0443 -2.9489 2.96655
H -10.376 -2.60185 2.30862
H -11.86 -2.37076 2.9495
O 3.58049 -2.22806 4.09314
H 3.14759 -1.52698 4.65974
H 2.88621 -2.67868 3.53201
O -12.3242 1.12795 12.0611
H -13.1937 1.11239 12.5546
H -12.4392 1.62058 11.1985
O -1.84996 5.91305 2.52725
H -2.69909 5.59537 2.10532
H -1.20153 5.15392 2.58381
O 13.288 -0.00493326 -4.60591
H 13.4649 -0.83066 -4.07035
H 12.9697 -0.261405 -5.51853
O -5.01154 8.63026 -8.30858
H -5.60379 8.01101 -7.79309
H -4.44894 8.10144 -8.94402
O 10.2739 -0.162083 8.73771
H 10.4639 0.74857 8.37086
H 10.4711 -0.850412 8.03964
O -14.416 7.74268 10.3364
H -14.0005 8.62571 10.5546
H -13.9329 7.01693 10.8261
O 3.70501 -0.400864 -4.22053
H 3.29785 -1.12789 -3.66771
H 4.58348 -0.133386 -3.82466
O -6.3607 14.6385 2.84966
H -6.52074 14.3439 3.79178
H -7.20576 -14.903 2.47005
O -4.82729 -14.001 -11.8235
H -4.76154 -14.4639 -12.7074
H -5.68163 -13.483 -11.7812
O -10.0897 13.8876 -4.30029
H -9.14176 13.9206 -4.61694
H -10.5168 14.782 -4.43309
O 6.917 -13.7517 1.88367
H 6.77997 -13.2781 2.75363
H 7.89621 -13.8708 1.7196
O -4.75844 2.69816 -2.3945
H -4.61211 1.71394 -2.29529
H -4.46423 3.16463 -1.56035
O 0.492922 14.0413 8.61094
H 1.21502 14.1537 9.29349
H 0.401215 14.8841 8.08077
O -7.98234 6.80072 11.2962
H -7.10291 6.45571 10.9683
H -8.07482 6.60345 12.2722
O -11.2509 4.26656 -12.3779
H -11.6703 3.81358 -13.1646
H -11.9354 4.38762 -11.659
O -14.1926 -7.52369 -8.43518
H -14.2842 -7.58302 -7.44118
H -13.6991 -6.68771 -8.67512
O -4.09417 7.32975 1.13569
H -4.81644 7.76181 1.6757
H -3.40756 8.0138 0.889533
O -13.2937 -5.08561 -8.94105
H -12.4643 -4.68881 -9.33439
H -13.2308 -5.06785 -7.94322
O -10.0429 -4.18558 5.12354
H -9.3137 -4.85598 4.98625
H -10.2552 -3.74118 4.25328
O -8.54791 -0.965201 6.87966
H -9.16042 -1.75253 6.80976
H -8.60504 -0.579166 7.80035
O 1.19931 -14.4926 -5.92811
H 2.1558 -14.2141 -6.01508
H 1.10471 14.7937 -5.15874
O -5.00325 -11.2531 -6.57245
H -4.12948 -11.3707 -7.04431
H -4.83758 -11.0906 -5.59977
O 4.28113 9.2803 13.2271
H 5.23852 9.44095 12.9872
H 3.77989 10.145 13.1951
O 0.00759495 0.994644 -9.45522
H 0.336341 1.54374 -10.2236
H -0.966413 1.17044 -9.31255
O -4.00499 -4.75216 -12.4564
H -4.0882 -3.80361 -12.151
H -4.83315 -5.01718 -12.9503
O 12.6245 9.58917 12.7338
H 12.4734 10.2923 12.039
H 12.6619 8.69078 12.2963
O -6.34268 -14.0425 -7.87997
H -6.66137 -13.335 -8.51065
H -5.95878 -14.8049 -8.40083
O -1.35311 -3.48054 6.97778
H -1.76368 -3.9677 7.74854
H -1.82067 -2.60604 6.84902
O -11.1605 7.06732 -2.92815
H -11.0163 6.0939 -3.10598
H -12.0949 7.21183 -2.60253
O 8.30607 0.431967 -4.68637
H 8.15539 -0.477306 -4.29847
H 9.2218 0.750947 -4.44217
O 7.40432 4.91512 -10.0988
H 6.96254 5.63427 -10.6351
H 6.70686 4.3134 -9.70967
O 0.327066 4.48103 -0.822096
H -0.537607 4.48089 -1.32438
H 0.316021 5.21192 -0.139727
O 1.70381 2.31482 -11.8669
H 1.16525 3.03295 -12.3076
H 1.637 1.47247 -12.4016
O -7.85315 14.6867 -1.09634
H -8.47981 13.9761 -1.41623
H -7.08125 14.262 -0.623279
O -5.82167 -8.81846 4.97492
H -4.88947 -8.79046 4.61415
H -5.79536 -8.74908 5.97214
O 9.96829 -4.96761 -10.6749
H 10.4303 -4.87011 -11.5564
H 9.19093 -4.33987 -10.6348
O -1.03234 -12.8636 -5.96441
H -0.1251 -13.2766 -5.88484
H -1.65711 -13.305 -5.32035
O -7.03622 1.2214 -12.705
H -6.32428 0.945689 -13.3508
H -6.62974 1.77184 -11.9758
O 0.585196 10.0175 11.3197
H -0.16392 9.99665 11.9818
H 0.220326 9.87873 10.3991
O 3.21908 9.32911 0.623856
H 3.72095 9.4967 -0.224663
H 2.24912 9.52658 0.481952
O 3.83822 11.3674 10.131
H 3.55779 11.8374 9.29414
H 3.71125 10.3819 10.0183
O -12.5539 -8.78211 2.7273
H -12.8315 -9.63664 2.28837
H -11.5905 -8.83962 2.98929
O -6.49742 6.65313 -7.25656
H -6.98765 6.17018 -7.98208
H -7.02717 6.60864 -6.4096
O 9.21116 -6.45373 5.69413
H 8.55641 -6.94306 6.27016
H 9.36624 -6.97091 4.85245
O 0.29855 -8.76459 -1.9703
H 0.875211 -7.97476 -1.76152
H -0.610493 -8.62681 -1.5771
O -1.86025 -11.2942 5.04116
H -1.24568 -11.0175 5.77986
H -2.53713 -11.9397 5.39491
O 5.59799 3.45747 -9.18761
H 4.73915 3.36603 -9.69158
H 5.55374 2.91056 -8.35162
O -4.20065 6.80934 13.5792
H -4.18733 7.023 14.556
H -4.31252 7.65345 13.0549
O -3.4766 -2.45952 11.7966
H -3.76802 -2.2271 12.7245
H -3.35578 -1.62102 11.2653
O 8.81957 12.2885 -12.8856
H 7.90988 12.1661 -12.4888
H 9.16799 13.195 -12.6471
O 14.8179 0.438843 13.219
H 13.9953 0.252792 13.7562
H 14.9034 -0.243559 12.4931
O -6.64251 -2.59499 -11.269
H -6.80045 -3.31624 -11.9434
H -5.69405 -2.284 -11.3295
O 2.9228 11.8931 -1.24402
H 3.74848 11.3661 -1.44506
H 2.16618 11.5532 -1.80254
O -7.25737 0.910727 -8.91752
H -7.8965 0.595631 -8.21596
H -7.51887 0.52704 -9.80316
O 1.127 -0.33187 9.31022
H 1.13682 -0.870164 10.1529
H 1.62581 -0.822271 8.59562
O 8.4094 -11.9963 3.99087
H 8.64008 -12.7351 4.624
H 7.61606 -11.4958 4.33747
O -10.6582 -11.4436 -9.32361
H -11.4974 -10.952 -9.09111
H -10.4816 -12.1462 -8.63432
O -8.4376 -9.43386 10.3617
H -8.15188 -9.07824 11.2516
H -9.08578 -10.1836 10.4949
O -5.33361 -8.55357 -7.58315
H -4.94241 -8.34181 -8.47873
H -5.10437 -9.4943 -7.33329
O -0.856306 2.26588 5.6224
H 0.143295 2.2452 5.64036
H -1.1663 3.18367 5.37438
O 4.06091 5.74015 11.3933
H 4.72263 5.65337 12.138
H 3.23365 6.18761 11.733
O 0.9346 7.04212 10.2009
H 1.93426 7.06232 10.2156
H 0.587147 7.053 11.1385
O 12.2467 -3.63481 12.8835
H 12.4151 -2.80537 12.3509
H 12.7137 -4.40748 12.4535
O 5.03643 -7.24761 2.36668
H 5.65355 -6.62672 1.88336
H 4.6771 -7.92604 1.72593
O -8.08719 -6.07595 4.6712
H -8.37017 -6.7769 5.32583
H -8.13296 -6.44783 3.74407
O 8.70064 4.0239 -0.590135
H 8.09367 3.97432 0.203014
H 9.56775 4.44272 -0.320606
O -6.37946 11.3834 7.43894
H -6.73428 12.129 6.87489
H -6.4617 10.5203 6.94068
O 9.38504 -13.9707 -14.7599
H 8.5656 -14.3711 14.748
H 10.0429 -13.7478 14.4387
O -7.85859 1.6605 11.139
H -7.17613 1.54276 11.8603
H -8.60387 2.23579 11.4759
O -14.9495 -11.7393 -8.15168
H 14.7929 -12.7111 -8.30888
H 14.2254 -11.3501 -7.60734
O 10.1615 -11.7871 -0.749562
H 10.2517 -10.826 -0.488886
H 10.0165 -12.3424 0.0693513
O -9.5982 8.66217 -9.14655
H -9.44537 9.57231 -9.53158
H -9.31633 8.6545 -8.18716
O -5.45937 13.8868 -9.63272
H -4.62602 13.5243 -9.21543
H -5.2162 14.5045 -10.3806
O 0.417315 -7.39219 11.871
H 0.791145 -7.94425 11.1258
H 0.807647 -6.47234 11.8327
O -3.67014 11.9234 -4.30172
H -4.33347 12.5781 -4.66409
H -3.60719 12.0274 -3.30917
O -6.25033 -4.07134 -8.89862
H -6.66179 -3.59084 -9.67307
H -6.17376 -5.04505 -9.11306
O 0.192476 12.8921 12.8311
H -0.222983 13.1542 13.7021
H -0.41739 12.2653 12.3462
O 14.559 13.1555 -6.0798
H 13.6935 13.4108 -5.64891
H -14.8942 12.4733 -5.51539
O -4.18403 0.883096 3.61733
H -4.02653 0.895625 4.60474
H -4.66744 0.0441277 3.36754
O -3.1007 -1.23797 -4.18588
H -3.28139 -0.777914 -3.3166
H -2.78583 -0.568178 -4.85833
O -12.2828 -12.6537 -2.10175
H -13.0743 -12.051 -2.00091
H -12.5947 -13.5956 -2.22611
O 10.5501 -7.92927 9.04447
H 10.4054 -8.44576 9.88843
H 9.67551 -7.80463 8.57593
O 9.70862 -13.0598 1.80163
H 10.4582 -13.6614 2.07774
H 9.50516 -12.4194 2.54218
O -13.601 14.4636 2.02229
H -12.9927 14.8177 2.73257
H -14.115 13.6846 2.38155
O 10.6504 10.3998 -1.78129
H 10.9764 10.0548 -0.901157
H 10.4842 11.3835 -1.71288
O 6.11772 -5.84335 11.5156
H 7.02525 -6.13771 11.2161
H 6.08134 -5.83991 12.5149
O -4.93095 14.4399 -5.20137
H -5.10058 -14.8382 -5.95089
H -5.77098 14.3146 -4.67354
O -13.524 14.5298 -7.66431
H -14.1813 14.1088 -7.03929
H -13.3998 -14.4266 -7.41938
O -13.0917 -6.41015 -13.7478
H -13.1371 -6.64316 -14.7192
H -13.9873 -6.55641 -13.3277
O 14.4106 -3.26057 -12.5747
H -14.7612 -3.43677 -13.2167
H 14.4755 -3.89637 -11.8056
O -2.38329 14.1316 9.11845
H -1.52947 13.6112 9.12473
H -2.8968 13.9196 8.28701
O -0.727197 -9.85395 -12.8863
H -0.967856 -9.18318 -12.1848
H -0.924913 -9.47592 -13.7907
O 14.2645 -5.41729 -4.10073
H 14.4009 -5.50751 -3.11422
H 14.0125 -4.47417 -4.31748
O -2.24901 9.32261 6.02459
H -2.0972 9.94691 6.79085
H -2.88965 9.7375 5.37852
O -8.56689 -7.8493 -5.76397
H -8.64877 -8.83727 -5.89497
H -7.71312 -7.64627 -5.2846
O -12.528 12.95 9.66063
H -13.4649 13.2924 9.59041
H -12.4163 12.4592 10.5247
O 0.719854 1.86423 14.4247
H 1.27485 2.63895 14.1218
H -0.190597 2.18722 14.683
O -8.74567 13.8477 -13.6285
H -8.0531 14.4992 -13.9381
H -8.7645 13.0623 -14.2472
O -1.93081 12.7807 6.16832
H -1.88671 12.3127 5.28576
H -1.76645 13.7582 6.03579
O 6.88963 5.049 -2.46671
H 7.30093 5.82307 -2.94795
H 7.60325 4.53542 -1.99032
O 14.3222 -8.82515 -1.18825
H 14.1752 -8.13526 -0.47945
H 14.0116 -8.46901 -2.06952
O 11.5771 6.29591 -8.10355
H 10.5945 6.11982 -8.16336
H 12.0532 5.7718 -8.80963
O -5.77306 -7.22631 -5.18625
H -5.62347 -7.52798 -6.12783
H -5.36265 -6.32375 -5.05623
O -10.3721 12.502 7.61761
H -9.54787 13.0228 7.39565
H -10.9419 13.0315 8.24602
O -3.17938 -8.87267 4.27933
H -3.06071 -9.69379 4.83758
H -2.33434 -8.33809 4.28896
O 14.7508 -9.94373 2.22562
H 13.7606 -10.036 2.33037
H 14.9521 -9.16099 1.63677
O 7.26757 -5.83183 -7.15325
H 7.04479 -5.98717 -8.11564
H 6.45579 -5.99519 -6.59264
O -14.6325 -10.7593 10.2493
H -14.164 -11.2357 10.9932
H 14.5632 -11.3447 9.88127
O -2.43717 -7.75856 -8.16076
H -2.63457 -8.71297 -7.93694
H -3.15773 -7.3994 -8.75384
O -11.1867 13.3696 12.5445
H -10.2107 13.4588 12.3461
H -11.5206 12.4964 12.1893
O 7.18743 -0.41659 8.63033
H 8.18694 -0.438329 8.60908
H 6.87316 0.530416 8.56424
O -14.4667 -7.72758 10.675
H -13.9801 -7.0164 10.1677
H -14.0161 -8.60834 10.5295
O 3.80796 -4.98941 8.76285
H 3.6527 -5.6879 9.46138
H 2.93341 -4.72307 8.35765
O -13.0851 3.00444 5.72339
H -13.9307 3.22513 6.20932
H -12.4363 2.58383 6.35754
O -11.2998 -2.2443 -0.55738
H -11.5772 -1.55655 -1.22822
H -10.3913 -2.01926 -0.205448
O -10.2365 8.94767 14.252
H -11.0888 8.65831 13.8163
H -10.4446 9.44065 -14.8212
O -5.69175 -12.4314 13.2116
H -5.68198 -11.5237 13.6312
H -5.89149 -13.1191 13.9096
O -10.5787 3.46354 3.63522
H -10.8766 4.20567 3.03486
H -11.2897 3.27748 4.31326
O 7.22165 4.66901 8.09148
H 7.83973 4.58245 7.31017
H 6.97671 5.63026 8.2178
O 4.10454 -11.5923 4.06617
H 3.90362 -12.5696 3.99949
H 3.25645 -11.0706 3.9738
O -10.6414 0.0694497 3.48324
H -11.1685 0.0684568 4.33302
H -10.7255 0.961833 3.03992
O 10.9617 -5.34887 -13.1059
H 11.3744 -6.24969 -13.2406
H 10.6821 -4.97483 -13.9901
O 10.3333 -9.40535 -3.32406
H 9.77876 -8.78257 -2.77215
H 10.866 -8.87898 -3.98671
O -8.47013 3.65131 7.56574
H -8.30218 3.89885 6.61156
H -7.74617 3.03914 7.88366
O 10.4391 -13.6124 6.11139
H 9.98088 -12.8015 6.47511
H 11.108 -13.9439 6.77676
O 2.68491 10.1246 -4.92599
H 2.37585 10.6158 -5.74035
H 3.66605 10.2714 -4.8005
O -5.45142 -3.90025 3.40429
H -5.62286 -4.61874 2.73024
H -4.77956 -4.22236 4.07123
O -5.94172 8.63196 2.69194
H -6.52411 8.16641 3.3583
H -6.47978 9.31591 2.19935
O 1.11307 -1.79548 11.5257
H 0.342958 -1.53087 12.1061
H 1.82182 -2.22305 12.0868
O -7.40232 3.10112 -6.52301
H -7.2565 2.31859 -5.91775
H -6.64659 3.16369 -7.17485
O -4.54029 0.367128 -9.07075
H -5.53508 0.44166 -9.00153
H -4.25931 -0.565296 -8.84362
O -12.6405 8.24701 13.0709
H -12.5862 7.43118 12.4952
H -13.4952 8.23245 13.5899
O -0.498433 -12.2521 -2.84666
H -0.284577 -11.76 -3.69051
H -1.34911 -11.8963 -2.45978
O -7.35006 4.40343 -3.39855
H -6.44092 4.28963 -2.99796
H -7.88647 3.57283 -3.24913
O -5.70265 -1.33832 3.05193
H -5.64104 -2.30083 3.31597
H -6.51641 -0.93054 3.46602
O -2.02156 14.5404 14.0943
H -2.73746 13.9485 13.7241
H -1.46339 14.8971 13.3452
O 6.72983 2.11233 3.94408
H 6.61931 1.7948 4.88584
H 6.45061 1.38837 3.31331
O -7.5172 12.2517 -11.0832
H -7.51183 12.5672 -12.0321
H -6.9671 12.871 -10.523
O 3.32898 -12.9688 -0.733507
H 3.85579 -12.2908 -0.220878
H 2.45531 -13.1289 -0.274141
O 3.10165 -12.8352 -3.60974
H 3.01112 -12.9728 -2.62342
H 3.09163 -13.7217 -4.07225
O 12.5203 0.752532 -11.8501
H 11.6763 0.257558 -12.0565
H 12.3293 1.47435 -11.185
O 1.79971 0.0559907 -13.3201
H 2.68863 -0.398358 -13.2622
H 1.56359 0.205354 -14.2802
O 3.60973 -4.32436 -7.13012
H 3.46414 -4.55671 -8.09177
H 2.73788 -4.36388 -6.64198
O 1.13672 10.2109 -2.75582
H 0.335246 10.7402 -3.03398
H 1.85967 10.3171 -3.43847
O -10.0026 -12.926 3.89432
H -9.00627 -12.9012 3.97619
H -10.258 -12.912 2.92763
O 7.13109 -11.681 -0.872735
H 8.06019 -12.0218 -0.72938
H 6.75983 -12.0698 -1.71592
O -12.4432 5.55144 3.22748
H -12.4457 5.75084 4.20737
H -12.7854 6.34537 2.72493
O 5.70309 -10.6583 -5.77871
H 6.4057 -10.7445 -5.07241
H 6.04105 -11.0497 -6.6346
O 12.9641 14.6934 -1.57687
H 13.232 14.0992 -0.818442
H 13.128 14.222 -2.44344
O 7.71889 12.8014 -9.14466
H 7.63496 12.0163 -8.53108
H 7.29625 12.5836 -10.0244
O 14.0355 9.23103 -5.1166
H 13.2351 9.18917 -4.51875
H 13.7473 9.12124 -6.0678
O 11.8051 -10.8111 13.3169
H 11.4573 -10.0037 13.7935
H 12.6593 -10.5809 12.8507
O -11.6356 6.35747 8.24011
H -11.1124 7.18054 8.01931
H -11.0763 5.74753 8.8014
O -1.9999 11.5245 -9.98623
H -2.39546 12.1142 -9.28215
H -1.8501 10.6103 -9.60975
O 7.91689 -2.07973 -3.55332
H 7.85609 -2.61645 -4.39486
H 7.20075 -2.37161 -2.91936
O 6.67145 1.15479 0.931764
H 7.18426 0.316749 0.745595
H 6.00517 1.30696 0.201785
O -11.8281 -0.473191 5.95194
H -11.67 -1.4471 6.11458
H -12.8107 -0.288286 5.96524
O -11.7177 14.8497 4.03202
H -11.3286 14.0373 4.4663
H -10.9918 -14.4025 3.85944
O 12.2653 13.4142 -4.58082
H 11.5555 12.76 -4.84207
H 11.9178 14.3452 -4.69238
O -10.0542 11.0283 -4.78011
H -9.97749 11.9434 -4.38433
H -9.72382 11.0445 -5.72381
O 1.80345 -5.07354 11.4318
H 2.74134 -4.75222 11.5624
H 1.16463 -4.38883 11.7825
O -12.8399 5.80026 5.9117
H -12.8699 4.80483 5.82132
H -12.3724 6.04384 6.76148
O -8.3985 4.32185 -11.6908
H -9.32534 4.06152 -11.9612
H -8.4386 4.89376 -10.8714
O -12.0178 -5.69095 13.6229
H -12.81 -5.41724 13.0776
H -11.1883 -5.6085 13.0704
O 11.0233 -2.82324 0.556262
H 11.4718 -2.12075 1.1088
H 10.0716 -2.91958 0.847981
O 10.4561 -9.71813 -11.8369
H 10.9656 -9.16319 -12.4944
H 11.0957 -10.2592 -11.291
O -13.664 -7.34972 5.05914
H -13.6152 -7.75416 4.1459
H -14.5974 -7.42863 5.4092
O -12.4381 -4.78005 -6.25218
H -12.3646 -4.01058 -5.61778
H -11.5226 -5.10408 -6.49057
O -14.5723 8.32527 3.41195
H -14.1738 8.09594 2.52396
H -13.8556 8.66402 4.02147
O -2.10688 5.45385 -3.70255
H -1.28152 5.35256 -4.25795
H -2.75284 6.05566 -4.17213
O -0.0590878 -10.7293 13.2619
H -0.0372068 -11.2167 12.389
H -0.234874 -11.3786 14.0019
O -4.91159 -4.29964 10.5014
H -5.78984 -4.01043 10.8822
H -4.16806 -3.90191 11.0389
O -14.658 -0.510762 -7.18901
H -14.8249 -1.33511 -7.72989
H -14.593 -0.754498 -6.22137
O 0.664357 -10.1377 -8.254
H 1.24128 -10.215 -7.4409
H 1.03457 -10.7154 -8.98144
O -6.11092 -6.69289 0.695812
H -6.4479 -6.84497 -0.233314
H -6.57505 -5.90135 1.0933
O -9.97677 4.7277 0.507862
H -9.1648 5.30692 0.436051
H -9.75597 3.90835 1.03688
O 14.4012 -5.28139 -10.5447
H 13.6091 -4.98342 -10.0122
H -14.7232 -5.36693 -9.9423
O 6.24564 -5.23787 0.648434
H 6.2037 -4.55965 1.38206
H 7.14825 -5.20896 0.219002
O -2.55027 -4.69714 14.004
H -2.20251 -5.55623 13.6285
H -3.54993 -4.70299 13.9792
O 10.0857 4.64241 -14.0247
H 9.29604 4.78206 -14.622
H 10.4091 3.70044 -14.1145
O 10.19 5.46997 1.88207
H 9.36631 5.93402 1.55625
H 10.7131 5.13123 1.10006
O -9.68231 2.23868 -3.01362
H -10.4663 2.85897 -2.99096
H -9.73975 1.60071 -2.24575
O -14.1536 -4.36076 2.94079
H -13.3649 -4.71694 3.44178
H 14.9229 -4.62756 3.41058
O -11.7637 10.3749 -2.75418
H -12.6261 9.87978 -2.64945
H -11.6764 10.6966 -3.69696
O 10.8141 1.50229 -4.00302
H 11.1492 2.40907 -4.25887
H 11.5676 0.845866 -4.04013
O 7.76741 -3.44897 -13.9428
H 8.39436 -3.76613 -14.6544
H 8.15618 -2.647 -13.4893
O 0.00872307 -13.1813 7.52002
H -0.272082 -13.6601 6.68825
H 0.0868179 -12.2025 7.3309
O 10.9503 6.20206 9.08174
H 10.651 6.81352 9.81419
H 11.9399 6.28317 8.96337
O 1.37624 -14.4244 12.434
H 2.0152 -14.1114 13.1367
H 1.10997 14.5484 12.6228
O -9.78252 -1.16346 13.5451
H -9.59025 -0.254833 13.9157
H -9.71471 -1.84271 14.2758
O 10.8802 2.11655 12.4205
H 10.3154 2.62151 11.7679
H 10.8386 1.13958 12.2114
O -3.64064 -6.49154 1.97193
H -3.53968 -6.92601 2.86691
H -4.58067 -6.60519 1.65039
O 13.0125 -2.3163 -14.6915
H 12.7986 -2.98299 14.5125
H 13.3042 -2.79608 -13.8641
O 13.0217 -10.5566 -5.94662
H 12.5637 -11.0967 -5.2406
H 12.3389 -10.1745 -6.56934
O 5.85091 -4.94332 -3.42065
H 6.84388 -5.05668 -3.45396
H 5.46851 -5.08451 -4.33377
O -0.695949 11.5215 9.1218
H -0.503581 10.6627 8.64706
H -0.0492856 12.2217 8.81925
O 8.51598 -7.75515 0.941614
H 8.40095 -6.90019 0.435891
H 7.95448 -8.46853 0.522373
O 13.3617 1.49303 6.89905
H 12.7067 1.50479 7.65463
H 12.9106 1.15701 6.07224
O -8.66497 5.84011 -9.35916
H -8.77528 5.25321 -8.55708
H -9.26145 6.63805 -9.27288
O 11.8583 -10.1852 2.56992
H 11.7101 -10.0811 3.55337
H 12.2878 -11.07 2.38937
O -7.02464 -1.3931 12.9469
H -6.72943 -0.465706 12.7172
H -7.95745 -1.36657 13.3062
O -6.8997 9.59708 12.7127
H -7.5947 8.97243 13.0687
H -7.202 9.96612 11.8339
O -3.98718 5.46364 9.43066
H -4.6763 6.01808 8.96412
H -3.19771 6.03415 9.65695
O 5.89822 -13.5158 -2.99482
H 5.17068 -12.8383 -2.88682
H 5.49823 -14.3973 -3.24558
O 11.9153 -0.184558 -7.23732
H 12.5385 -0.251455 -8.01644
H 11.4635 -1.0653 -7.09528
O -4.96385 2.77726 -7.6082
H -5.1135 1.83297 -7.90124
H -4.58317 2.78293 -6.68354
O 4.88632 7.71226 -2.79904
H 4.89083 6.80899 -2.37004
H 5.24094 7.64028 -3.73125
O 4.35611 -1.00642 -12.7148
H 5.32984 -0.796837 -12.8036
H 4.16346 -1.88587 -13.1501
O 3.80261 -14.9226 3.15186
H 4.28976 14.6552 3.95619
H 3.88795 14.3344 2.40631
O -8.59316 12.3647 3.61005
H -7.7894 11.827 3.35555
H -8.95775 12.8231 2.79959
O 10.4241 11.8146 1.28809
H 10.749 11.2983 2.08045
H 9.42657 11.7618 1.2421
O -5.56807 -9.99914 14.3842
H -5.3825 -9.14576 13.8971
H -4.73298 -10.3137 14.8354
O 13.9571 -7.12218 1.34514
H 13.7515 -7.52844 2.23544
H 13.3489 -6.34475 1.18507
O -11.4782 -11.795 6.01671
H -11.3349 -12.332 6.84797
H -10.9876 -12.2204 5.25629
O -3.70608 -11.1836 -13.8423
H -4.50984 -11.3335 -13.2666
H -2.99553 -10.7239 -13.3096
O 7.90847 5.66103 14.1716
H 8.39574 6.49283 14.4374
H 7.00675 5.90303 13.8134
O -12.0245 -9.45109 -12.0559
H -12.9312 -9.48767 -11.6357
H -11.7551 -8.49674 -12.1847
O -2.31619 -7.77764 -1.60036
H -3.21758 -8.10192 -1.88723
H -2.00203 -7.06661 -2.2294
O 2.72794 7.6612 -7.13608
H 2.10755 7.95485 -6.40887
H 2.97992 6.70414 -6.99298
O 10.7348 -8.5213 14.0536
H 10.7148 -7.81771 13.3433
H 9.802 -8.71493 14.3574
O -7.73181 -9.53189 7.707
H -7.53886 -10.4889 7.49069
H -8.04692 -9.46107 8.65339
O -3.17901 -13.416 -1.62382
H -3.66036 -13.5286 -0.754581
H -2.84442 -12.4767 -1.70029
O 3.90782 -14.5606 -6.16148
H 4.03464 14.7682 -5.36347
H 4.73362 -14.0162 -6.30846
O 2.32294 4.81029 7.66275
H 3.16319 4.59915 8.1621
H 2.14677 4.09314 6.98851
O -0.205704 12.3356 -3.69661
H -0.982276 12.4808 -4.30963
H -0.484806 12.5232 -2.75489
O -8.70845 7.95962 -12.0677
H -9.61223 7.65723 -12.3705
H -8.74037 8.18138 -11.0932
O -5.55345 -3.33873 -0.40635
H -5.42548 -2.43609 -0.81722
H -4.71017 -3.86855 -0.49648
O 1.91385 13.9746 -3.38514
H 1.25724 13.2282 -3.49306
H 1.58571 14.6085 -2.68484
O 9.7777 11.876 -5.55145
H 8.89961 12.3041 -5.33776
H 9.96868 11.9766 -6.52785
O -6.18908 12.9961 -0.140468
H -6.19513 12.0481 0.177759
H -5.76049 13.5772 0.551336
O -4.80222 4.10127 14.0232
H -4.61006 5.03566 13.7233
H -5.17802 4.11922 14.9497
O 0.997071 -8.24289 2.40098
H 0.221014 -8.19616 1.77209
H 1.81831 -8.51144 1.89758
O 14.0344 -5.63622 -1.38825
H 14.3194 -5.24594 -0.512809
H 13.1097 -6.00703 -1.3026
O -12.5904 -11.3725 12.1994
H -12.8842 -11.3698 13.1552
H -12.6989 -12.2913 11.82
O -4.9104 -8.73745 -3.05241
H -5.27248 -8.19305 -3.80903
H -5.61571 -8.84496 -2.35173
O 4.98857 14.4166 5.90158
H 5.43818 13.5478 5.69417
H 4.35287 14.2895 6.66295
O -14.2398 11.0584 -0.935296
H -13.5964 11.7581 -0.624881
H -14.6163 11.3222 -1.82335
O -5.84529 -2.26987 -3.87145
H -4.91717 -1.90401 -3.94
H -5.94711 -3.04045 -4.50056
O -10.9428 -4.17517 -10.1518
H -10.9885 -3.53948 -10.9224
H -10.4414 -3.75004 -9.39827
O 14.4105 -2.96464 -8.5232
H 13.5076 -3.37412 -8.39249
H 14.8973 -3.45474 -9.24626
O 11.8764 -14.5437 8.59388
H 12.7484 14.8903 8.52064
H 11.3866 -14.8604 9.40607
O -10.2646 -6.92347 0.549446
H -11.187 -6.74734 0.893248
H -9.84039 -7.64982 1.0902
O 10.8734 -2.5085 -6.92169
H 10.246 -2.91876 -6.25987
H 11.1382 -3.19439 -7.59948
O 9.99423 0.158859 -12.6004
H 9.64302 -0.0406442 -11.6856
H 9.48987 0.929243 -12.9903
O -10.1919 4.73882 10.1909
H -9.58956 5.31719 10.741
H -9.69406 4.40588 9.39008
O 2.82022 -3.4364 0.526039
H 3.42261 -2.66152 0.334634
H 3.24271 -4.27804 0.189734
O 0.224397 6.78007 -10.9695
H -0.626405 6.96125 -11.4627
H 0.613095 5.91355 -11.2826
O 6.94718 3.79962 1.56961
H 6.65527 2.84873 1.67229
H 6.90533 4.2588 2.45694
O 1.77385 -13.7975 1.31825
H 1.4651 -13.1222 1.98799
H 2.49465 -14.3613 1.7214
O -7.93528 -13.262 -5.4808
H -7.36485 -13.0843 -4.67894
H -7.3609 -13.5824 -6.23406
O 1.88255 -6.72982 -1.31374
H 2.84376 -6.46254 -1.3814
H 1.36702 -6.00653 -0.854351
O -9.57904 11.1846 -9.94894
H -8.75605 11.6613 -10.2577
H -10.0537 11.7447 -9.27002
O 6.87888 13.0159 -2.22896
H 6.18013 12.5254 -1.70822
H 7.03731 13.9113 -1.81306
O -5.2427 0.308032 -14.3969
H -4.57366 -0.407027 -14.5995
H -5.49354 0.779038 14.6754
O 3.22137 4.16637 -10.4779
H 2.43229 3.73667 -10.9169
H 3.8538 4.49645 -11.1787
O -10.2323 -10.8314 -1.467
H -10.4053 -10.0114 -2.01242
H -10.9423 -11.5108 -1.6522
O -12.9856 -2.01721 8.54709
H -12.1137 -2.3788 8.21685
H -13.0625 -2.17934 9.53084
O 1.90219 9.41959 -14.7448
H 1.6013 9.33396 -13.795
H 2.28283 10.3324 -14.8929
O 8.77283 -1.6509 -8.73829
H 9.12487 -1.78777 -7.81239
H 8.32308 -0.759605 -8.7955
O -3.70626 -13.0168 6.18286
H -3.7809 -12.5863 7.08232
H -3.77363 -14.0096 6.28189
O 12.9499 -4.25493 4.04957
H 12.7098 -4.66539 4.92925
H 13.3708 -3.36086 4.20274
O 3.30358 9.60622 3.29854
H 3.08995 9.14109 2.43949
H 3.99287 10.3116 3.1332
O -4.39771 3.0323 0.56396
H -3.52015 2.99093 1.04159
H -5.14213 2.95597 1.22726
O 1.66943 -9.66367 5.31867
H 1.28462 -9.30111 4.46989
H 2.44634 -9.10033 5.59975
O -3.23705 -1.76428 6.39983
H -4.04031 -2.00552 6.94439
H -3.28883 -0.800489 6.13835
O -8.00955 4.02355 4.80325
H -8.8499 3.65421 4.40658
H -7.21874 3.58341 4.37798
O 8.51642 -5.48784 9.75525
H 8.39278 -4.73401 10.4005
H 9.41042 -5.40623 9.31472
O 5.15537 12.8219 -7.51899
H 4.43416 13.3768 -7.1043
H 5.45098 13.2454 -8.37525
O 10.8743 6.6224 -2.58897
H 11.3164 6.45868 -3.47084
H 9.89983 6.7958 -2.73174
O 5.06399 2.47845 13.0855
H 5.40576 1.54136 13.1562
H 5.40072 3.01529 13.859
O 13.2097 -3.87403 10.0152
H 12.2287 -3.68476 9.9739
H 13.6121 -3.74729 9.10856
O -0.442832 2.54542 -3.89325
H -0.548528 2.86898 -4.83351
H -1.13442 2.97553 -3.31303
O -12.0707 -14.7729 7.63491
H -12.6966 14.475 8.034
H -12.5192 -14.313 6.86857
O 11.1316 8.32615 -12.5209
H 11.6281 7.47482 -12.6903
H 11.7844 9.06672 -12.3617
O 11.568 13.7391 -13.9655
H 11.8719 12.8712 -13.5726
H 12.3087 14.1378 -14.5061
O -14.1365 7.83222 -2.96429
H -14.6141 8.23298 -3.74614
H -14.721 7.88372 -2.15458
O 11.711 4.87597 -0.409613
H 11.3925 5.35739 -1.22616
H 12.7108 4.87099 -0.394356
O 4.27758 -5.49576 -1.21854
H 4.72649 -5.33676 -2.09783
H 4.9396 -5.37277 -0.47925
O -10.6814 8.29891 2.94384
H -11.1403 8.45972 2.07004
H -11.3454 8.3741 3.68778
O -12.2883 10.8214 11.3912
H -11.7908 10.4511 10.6068
H -12.4537 10.0923 12.0553
O 6.24471 7.82543 8.33156
H 6.35375 7.92539 7.34258
H 5.28427 7.95841 8.57612
O -7.93545 -12.0282 -0.971034
H -8.86645 -11.6834 -1.09047
H -7.96871 -12.9879 -0.691787
O -8.26565 9.99069 2.24296
H -9.07055 9.42361 2.41759
H -8.42384 10.553 1.43136
O 11.8823 8.0323 2.4788
H 12.7894 7.96277 2.8939
H 11.4356 8.8702 2.79238
O -2.23811 9.52543 -2.79642
H -2.23953 8.79691 -3.48142
H -2.49419 10.39 -3.22879
O -7.47594 13.5241 5.80871
H -8.03819 13.0802 5.111
H -7.98418 14.2851 6.21179
O 2.70304 -10.5043 13.3735
H 1.71368 -10.583 13.4956
H 2.95712 -10.8589 12.4737
O 8.54363 -10.9681 -4.74161
H 8.82329 -10.8428 -5.69348
H 8.93895 -10.2415 -4.17971
O -0.392709 -6.03791 -7.43136
H -0.511205 -5.2521 -8.03834
H -1.09013 -6.72486 -7.63545
O -5.0283 9.95683 -12.7152
H -5.90613 10.1957 -13.1303
H -5.13861 9.87796 -11.7245
O -10.3618 -6.00837 -4.0396
H -9.56014 -6.34713 -4.532
H -10.4477 -6.49298 -3.16911
O -11.7415 0.5808 -13.655
H -12.3227 0.455273 -14.459
H -12.2176 1.15053 -12.9852
O -4.22872 10.9875 -6.9689
H -3.95972 11.0793 -6.01017
H -4.42566 10.0279 -7.16946
O -1.01898 5.79802 -8.46244
H -0.904587 6.63619 -7.9292
H -0.29656 5.7401 -9.15142
O 9.85028 -14.9293 -12.3246
H 9.26789 -14.2446 -12.7628
H 10.5277 14.6577 -12.9815
O -2.96541 3.39554 -12.233
H -3.93006 3.46617 -11.9792
H -2.39562 3.64431 -11.4498
O -8.2088 -1.33998 -2.93962
H -7.31722 -1.67796 -3.24095
H -8.91511 -2.00782 -3.17428
O -11.3473 0.0308001 -6.17831
H -12.262 -0.191508 -6.51578
H -11.2472 -0.304125 -5.24142
O 7.67546 -3.21682 -6.05485
H 7.00196 -2.61353 -6.48192
H 7.53267 -4.15398 -6.3731
O 3.17565 8.31655 -11.2631
H 2.83778 9.18463 -10.8994
H 2.74022 7.55925 -10.7764
O 10.1367 -7.68542 -9.77167
H 10.0306 -6.6922 -9.81841
H 9.86919 -8.09072 -10.6458
O -7.51738 -8.16367 2.76747
H -6.86102 -8.54901 3.41606
H -7.03261 -7.84183 1.95422
O -10.8554 14.6905 14.8168
H -10.8639 14.1668 13.965
H -10.0485 14.4423 -14.5653
O -14.394 8.56413 -8.86959
H -13.7813 8.55595 -9.65987
H -14.2942 7.70859 -8.36162
O 5.70108 12.6786 11.5155
H 5.06566 12.157 10.9461
H 5.73374 12.2782 12.4312
O 7.31379 -14.2987 13.1179
H 6.99693 -13.4942 12.6156
H 7.67366 14.9445 12.4737
O -3.59852 -5.56041 -5.99012
H -2.79657 -5.06461 -5.65696
H -3.31334 -6.4433 -6.36311
O -14.5158 -14.8974 -12.2078
H -13.6783 -14.9087 -11.6616
H -14.4348 14.3618 -12.9558
O 10.426 12.1954 -8.52913
H 10.5104 11.4105 -9.14295
H 9.54858 12.6486 -8.68636
O -8.67062 -0.066626 -6.87027
H -9.55603 -0.148053 -6.4127
H -8.02559 0.402453 -6.26707
O -11.1377 -9.05379 -3.2639
H -10.9573 -9.03656 -4.24731
H -11.9074 -8.45043 -3.05561
O -12.6124 -2.53975 11.3358
H -11.7851 -2.00327 11.1694
H -12.7735 -2.60703 12.3205
O 0.990849 -14.5348 -13.2773
H 1.16739 -14.5287 -14.2616
H 0.71963 -13.6189 -12.9816
O -10.1556 8.58031 7.09212
H -9.58392 9.34457 6.79368
H -9.57291 7.83372 7.41312
O 3.79267 11.6349 -13.0408
H 3.41314 11.3176 -12.1717
H 3.56501 12.5998 -13.1714
O 0.914644 9.19621 -9.23677
H 1.33017 8.54088 -8.60603
H -0.0410075 8.94739 -9.39414
O -2.97413 13.7251 -8.20361
H -2.10079 14.013 -8.59644
H -2.85187 13.5221 -7.23212
O 5.66885 12.1829 14.3889
H 4.93841 11.7639 14.9282
H 5.81573 13.1221 14.6995
O 10.8472 -14.1607 -4.06823
H 11.0527 -13.2072 -3.84806
H 9.88097 -14.2459 -4.31117
O 10.6462 13.301 13.4682
H 11.1151 13.5451 14.317
H 9.91164 12.6525 13.6677
O 14.1957 -10.7631 6.93633
H 13.7951 -9.86662 6.74691
H 14.6845 -11.0876 6.12657
O -11.3787 10.9784 -13.7406
H -11.3183 11.1106 -12.7513
H -12.33 11.0768 -14.0326
O -14.5511 5.27878 13.7612
H -14.8708 6.00947 14.3644
H 14.582 4.84168 13.3221
O 6.01287 14.7068 -14.6647
H 6.47335 -14.7646 14.4862
H 6.01413 -14.5996 -13.8735
O 0.583294 9.50593 -12.3418
H 0.07448 10.2646 -11.935
H 0.77421 8.81885 -11.6407
O 4.5926 5.04536 -12.7351