2611
Atoms. Timestep: 23000000
O -1.23084 -5.95737 -1.29193
H -1.38386 -6.3204 -2.21109
H -0.291078 -5.62364 -1.21754
O 2.96452 7.75754 -6.32618
H 2.86351 7.39322 -7.25199
H 2.06034 7.93057 -5.93556
O -13.3536 -13.6575 -12.477
H -13.8736 -13.0127 -11.9169
H -12.3899 -13.3903 -12.4851
O 12.3481 14.2124 -10.2018
H 11.5085 14.647 -10.5277
H 12.1202 13.3666 -9.71944
O 2.24419 -11.8464 -10.8234
H 2.31293 -12.3814 -9.98128
H 2.6023 -12.3816 -11.5885
O 7.90816 -8.8082 11.1811
H 7.89354 -9.72612 10.7845
H 8.64391 -8.27585 10.7624
O -4.5613 -14.2365 -13.4955
H -4.90942 14.8038 -13.3258
H -3.83378 -14.2758 -14.1805
O -9.48282 -7.9432 13.7275
H -9.48177 -8.88074 13.3795
H -9.17664 -7.94065 14.6795
O 7.71827 -0.244073 -2.82272
H 7.44511 0.555408 -3.35777
H 6.90631 -0.674526 -2.42839
O -12.235 8.02814 14.4863
H -11.6419 8.35476 13.7503
H -13.0759 7.65375 14.0954
O -9.73237 9.52508 -12.5946
H -9.41826 8.75042 -13.1435
H -10.7188 9.45116 -12.4474
O 7.87698 2.16175 -7.34654
H 8.74894 2.11815 -6.85884
H 7.94093 2.83386 -8.08427
O 0.819837 -5.90931 11.3471
H -0.0433124 -5.71296 11.8123
H 1.32746 -5.05816 11.2132
O -2.79906 -4.54111 -13.4546
H -3.50872 -4.18087 -14.0601
H -2.49684 -3.82105 -12.8299
O -1.15229 11.1963 11.4567
H -0.542985 10.6799 12.0585
H -1.992 10.6747 11.3054
O -0.574306 -2.07567 14.4278
H -0.511505 -2.12098 13.4308
H -1.52074 -1.89306 14.6942
O -5.49805 -7.23324 -0.433487
H -5.69634 -7.85384 -1.19217
H -6.34896 -6.81848 -0.111002
O 6.40791 -5.68222 -0.471974
H 5.82172 -6.4756 -0.63624
H 7.17984 -5.95164 0.103868
O -0.536468 -14.2283 10.9613
H 0.0263283 -13.9278 10.1912
H -0.418927 -13.5957 11.7269
O 0.609546 4.28994 2.47076
H 1.48439 4.1038 2.91803
H 0.757004 4.4166 1.4898
O 4.53372 -7.1733 -5.98756
H 5.22712 -6.45297 -5.96788
H 4.93744 -8.03323 -5.67517
O 8.56666 3.18328 -12.0895
H 8.95198 2.70793 -12.8804
H 8.83824 2.7101 -11.2514
O -13.0168 5.18472 12.0548
H -13.609 5.96459 12.2576
H -12.5242 5.35341 11.2011
O 10.0898 -4.07315 -14.6995
H 10.2056 -4.66528 14.4653
H 9.13143 -4.08231 -14.4139
O -4.97705 -9.85532 7.44001
H -4.2344 -10.2529 7.97894
H -4.93839 -10.2107 6.50605
O -9.28245 -10.6956 7.20831
H -8.58843 -10.4574 6.52886
H -9.01622 -11.539 7.67518
O 4.71321 -1.15007 -3.07433
H 3.92013 -0.749165 -3.53298
H 4.47101 -1.38313 -2.13248
O -13.8014 -6.90025 8.14964
H -13.7925 -7.81086 7.73639
H -14.7119 -6.4985 8.05135
O -14.5516 -6.91748 13.3025
H -14.5846 -6.34152 14.1193
H -13.6004 -7.14381 13.0924
O -4.50808 -3.96806 14.6573
H -5.01561 -3.17923 -14.9582
H -5.10372 -4.51544 14.0694
O 13.2367 -9.9298 -11.8247
H 12.6188 -9.65745 -11.0871
H 12.9814 -10.8386 -12.1549
O -10.2164 5.98282 -14.896
H -10.7361 5.16987 -14.6331
H -10.842 6.67823 14.7124
O 1.83046 -11.9483 -2.93403
H 2.41107 -11.2117 -2.58713
H 1.31035 -12.3467 -2.17849
O 0.0990217 -12.1475 1.02194
H -0.419956 -12.9733 1.24288
H 1.07425 -12.3661 0.987092
O -0.804401 -6.11041 8.268
H -1.67749 -6.58984 8.35704
H -0.39326 -5.99593 9.17239
O -8.48337 11.9778 10.6291
H -8.05189 12.8795 10.6595
H -9.47759 12.0832 10.6512
O 8.05676 13.9646 -12.9073
H 7.59199 14.1417 -13.7748
H 8.72803 13.2339 -13.0318
O -14.9656 2.75122 14.1299
H 14.4323 1.97582 14.4134
H 14.7753 3.5478 14.6926
O 0.100545 -0.598165 -10.9157
H -0.381002 -0.314374 -10.0865
H -0.546392 -0.646727 -11.6768
O 6.90346 -8.88174 -0.279143
H 7.83855 -8.59168 -0.0753439
H 6.85515 -9.21312 -1.22144
O -2.16772 -3.0528 -11.0758
H -1.70399 -3.71309 -10.4851
H -2.42371 -2.24824 -10.5399
O 13.9765 -0.187214 13.6381
H 14.7117 -0.527506 14.2245
H 13.0936 -0.473159 14.0107
O 6.8186 -3.406 2.79275
H 6.55802 -3.78948 3.67881
H 6.16605 -3.70362 2.09585
O 10.6877 1.4699 -7.38356
H 10.5311 0.489854 -7.2608
H 11.6537 1.67542 -7.22626
O 5.14276 -11.3974 10.8611
H 5.97499 -10.8449 10.9075
H 4.66343 -11.2067 10.0044
O -11.8012 -7.3687 12.7141
H -10.8644 -7.51067 13.034
H -11.8922 -7.72031 11.7824
O -6.93149 6.10652 -10.7432
H -7.02545 7.10178 -10.717
H -6.27744 5.85211 -11.4557
O 0.962496 -10.2052 2.73856
H 0.619125 -11.0106 2.25535
H 0.301668 -9.45932 2.65477
O 9.50584 11.6665 -13.5181
H 9.64127 11.0809 -14.3173
H 10.3544 11.7126 -12.991
O 14.7346 -6.21963 -10.3237
H -14.3348 -6.47269 -10.6963
H 14.8071 -5.34072 -9.85223
O -0.466542 -3.02427 -7.31674
H -0.716645 -3.72447 -7.9855
H 0.307922 -2.49451 -7.66261
O 10.2291 -10.1413 4.59302
H 10.3123 -9.14502 4.57056
H 9.30481 -10.4049 4.31675
O 4.72451 8.15336 13.9785
H 5.22017 8.72243 13.3224
H 4.63812 8.64319 14.8461
O 1.13111 -12.7431 9.34954
H 1.11185 -11.956 9.96612
H 0.74526 -12.4827 8.46446
O -8.67022 2.03082 -7.56059
H -9.59702 2.15528 -7.20617
H -8.02547 1.98138 -6.79775
O 5.18602 6.39885 -8.20977
H 4.70047 5.86057 -8.89865
H 6.13587 6.09092 -8.15478
O 1.80629 -2.13141 -8.41702
H 1.6639 -1.1725 -8.1715
H 2.38268 -2.18465 -9.23249
O -11.9238 1.39008 5.7295
H -11.5421 0.745926 6.39241
H -11.5225 1.21923 4.8296
O -13.3714 10.8534 -2.65972
H -13.2016 11.3664 -1.81826
H -12.6817 11.0951 -3.3424
O -8.82394 12.7134 -13.0702
H -9.09066 12.1258 -13.8341
H -7.98625 12.3596 -12.6541
O 0.30596 -9.38757 7.52532
H 1.18639 -9.6743 7.14758
H 0.43915 -8.58847 8.11163
O 13.9399 13.2339 1.20783
H 13.0244 13.0673 1.57408
H 14.0904 12.6516 0.408854
O 13.1276 -7.71393 5.77544
H 12.748 -7.39742 4.90606
H 14.0605 -7.36847 5.87732
O -2.55369 -12.8311 -10.5462
H -2.59635 -13.5982 -11.1864
H -1.59794 -12.5874 -10.3812
O 5.92791 8.50022 -3.57894
H 6.55818 9.11158 -3.10032
H 5.9513 7.59637 -3.15166
O 8.26169 -11.9772 0.762481
H 7.41376 -12.25 0.307896
H 8.95665 -11.7686 0.0742943
O 3.69106 12.9158 5.63129
H 2.94074 12.3211 5.92022
H 4.56264 12.5111 5.90813
O -9.07829 -12.8327 -4.3637
H -8.29319 -12.8956 -4.97992
H -9.742 -12.1831 -4.73464
O -10.2271 -12.8927 11.1512
H -10.7838 -13.141 11.944
H -9.52603 -12.2357 11.4287
O -11.2494 3.95055 5.87612
H -10.3899 4.09054 5.38454
H -11.2621 3.03159 6.27037
O -2.15011 -8.90978 14.7707
H -2.26685 -9.25087 -14.2587
H -1.20549 -8.60777 14.642
O 12.923 4.2701 4.34722
H 13.2429 4.20957 5.29279
H 13.4689 4.94696 3.85336
O -12.5613 9.09449 -12.6776
H -12.6618 8.96657 -13.6643
H -13.411 9.46339 -12.301
O 14.6974 -9.56775 -5.62554
H 14.0127 -10.2747 -5.44785
H 14.579 -9.21483 -6.5537
O -14.1323 1.23411 -9.5393
H -13.5125 2.0121 -9.43622
H 14.949 1.55376 -9.88826
O 9.48544 9.4917 -10.7826
H 9.56247 10.4722 -10.9636
H 9.00491 9.34918 -9.91726
O -11.4434 -5.26291 7.81158
H -10.669 -5.06331 8.41194
H -12.0331 -5.94516 8.24388
O -0.188546 9.09753 8.32075
H 0.0875759 8.29099 7.79795
H -1.15561 9.02208 8.56397
O 9.17402 1.6612 -10.0124
H 9.72106 1.62539 -9.17602
H 8.91387 0.733573 -10.2805
O 11.8121 7.84142 10.0471
H 11.201 7.60549 9.2914
H 12.0879 8.79924 9.96608
O -4.05169 13.7322 -10.3749
H -3.34333 14.2026 -10.9011
H -3.90526 12.7443 -10.4275
O 8.7021 -4.54375 6.47076
H 8.40158 -5.35636 6.97017
H 8.56142 -4.68388 5.49064
O -11.0175 11.6714 10.6543
H -11.5282 12.1622 9.9483
H -11.455 10.7895 10.83
O -10.575 -13.3394 -12.1471
H -9.82585 -13.5076 -12.7878
H -10.3873 -13.8086 -11.2841
O -1.18548 -6.80823 -6.02241
H -0.22307 -6.55217 -5.9315
H -1.32629 -7.26978 -6.89832
O -4.71016 -11.4112 -13.8315
H -4.21662 -12.2693 -13.6893
H -5.66829 -11.5307 -13.5711
O -0.512945 -1.47128 11.8073
H -0.620848 -1.69751 10.8392
H 0.369221 -1.02187 11.9483
O 0.640415 4.55923 -10.1327
H 1.06274 4.4436 -11.0318
H 1.05894 3.92392 -9.48363
O 11.6342 -2.35083 -12.9259
H 11.1023 -3.07847 -13.359
H 12.209 -2.74112 -12.2065
O 5.7634 -2.53157 -13.1242
H 5.12629 -2.48187 -12.355
H 5.35273 -2.09696 -13.9258
O 7.97032 -1.10308 3.62581
H 7.36843 -0.342071 3.86804
H 7.54489 -1.64743 2.9028
O 7.87653 -11.1131 9.77188
H 7.93477 -10.6149 8.90674
H 8.60102 -11.8015 9.80957
O -5.59381 2.75505 -8.32175
H -5.81152 1.81541 -8.05764
H -5.55387 3.33021 -7.50465
O -4.33169 6.76687 -0.300248
H -4.25662 7.26515 0.563547
H -5.27592 6.80691 -0.627184
O 14.586 -13.9411 1.03249
H 14.5287 -14.847 1.45218
H 14.4388 -13.2404 1.73062
O -11.1682 -1.84077 9.67576
H -10.6395 -2.68854 9.71745
H -11.3796 -1.53374 10.6037
O 9.98733 -2.33057 11.2863
H 10.5578 -3.15172 11.2673
H 9.29072 -2.392 10.5714
O -11.6257 -4.57887 -0.877468
H -12.2615 -4.67721 -1.64307
H -10.7733 -5.05749 -1.08843
O 1.34215 -3.20968 4.11978
H 1.48912 -2.23099 3.97612
H 0.36469 -3.41228 4.05985
O 9.0336 1.83664 8.70975
H 8.03578 1.8521 8.77434
H 9.39492 1.11727 9.30307
O 9.57373 -5.23961 -9.23081
H 9.25746 -4.30801 -9.4101
H 9.84067 -5.67251 -10.0919
O 11.955 11.716 -12.4057
H 12.7808 11.8462 -12.9544
H 12.1896 11.2398 -11.5582
O 10.8716 6.17618 5.24472
H 11.5256 5.47951 5.53963
H 10.7569 6.12692 4.25252
O -5.52591 -3.96031 -6.05311
H -5.75135 -3.23906 -5.39811
H -4.58102 -4.25564 -5.91161
O -5.23115 4.439 8.62179
H -5.28216 3.75016 7.89863
H -5.57577 4.05099 9.47663
O -4.29666 -6.79201 -12.1988
H -3.81905 -6.063 -12.6892
H -3.62865 -7.43604 -11.8259
O 8.50685 -4.53289 -1.97048
H 7.72867 -4.83802 -1.42148
H 9.34995 -4.64372 -1.44421
O 8.47895 2.9698 -2.52323
H 7.71338 3.17698 -1.9141
H 8.15772 2.40172 -3.28096
O -5.63535 12.5479 0.47679
H -5.36718 13.3281 1.04194
H -4.84792 11.9458 0.344604
O 8.36818 -3.19976 -10.6887
H 7.68331 -2.90592 -10.0219
H 7.90946 -3.5489 -11.5059
O -0.63496 12.6311 9.02402
H -0.562383 12.2473 9.94461
H -1.59948 12.7253 8.77726
O -13.3813 10.6969 2.85041
H -12.7533 10.9777 2.12462
H -13.9575 11.4716 3.11085
O 5.76543 10.2201 7.96681
H 5.76306 10.8687 8.72804
H 5.98168 10.703 7.1182
O -6.9999 9.14215 -6.49073
H -6.75175 10.0226 -6.08656
H -7.4371 9.29375 -7.37727
O 6.22537 2.45562 2.83419
H 6.91303 3.16196 3.00235
H 6.39349 2.03193 1.94409
O -11.7238 -3.22834 -9.96522
H -11.4654 -3.49956 -9.03801
H -12.7076 -3.35893 -10.0888
O 6.65715 11.2221 -11.2622
H 6.05019 10.439 -11.3985
H 7.19916 11.3716 -12.0892
O -3.35008 -1.19068 -14.9506
H -3.27149 -1.13538 14.0162
H -4.30345 -1.35967 -14.7004
O 4.13129 -10.0621 14.7646
H 4.90106 -10.636 -14.9181
H 3.56149 -10.5629 14.113
O 5.84931 -6.9368 -14.3918
H 6.04943 -7.37239 14.6927
H 6.31468 -7.43368 -13.6593
O 2.01563 8.37751 2.30658
H 1.24708 7.73791 2.289
H 2.17839 8.72844 1.38439
O -9.54509 -12.2274 4.1107
H -9.99098 -12.956 4.63068
H -8.87088 -12.6262 3.48902
O -4.32068 1.87962 -0.720737
H -4.16803 2.67556 -1.30661
H -3.71643 1.13538 -1.00544
O -14.6801 -0.745327 1.69193
H 14.3643 -0.371121 1.55919
H -14.5333 -0.93128 2.66348
O -1.30882 2.02879 10.5506
H -1.98259 2.58962 11.0318
H -1.71083 1.13982 10.3311
O 8.02657 4.77625 1.05368
H 7.55842 5.19165 1.83364
H 7.37221 4.24284 0.517632
O -5.54928 -2.30281 -8.2407
H -6.45222 -2.27221 -8.66945
H -5.5283 -3.0348 -7.55966
O 7.63038 9.29346 -1.01838
H 8.56993 9.48488 -1.30241
H 7.40727 9.84244 -0.212829
O -14.9225 -3.92502 10.6911
H 14.6209 -3.4432 11.4608
H -14.5366 -3.25994 10.0517
O -8.56693 -2.52833 -6.79881
H -8.15334 -3.12751 -7.48436
H -8.77508 -1.6421 -7.21274
O -9.25714 7.09896 5.86568
H -8.86991 6.93185 4.95893
H -8.84744 6.468 6.52454
O -14.7833 4.22648 -2.42215
H -14.2352 3.47841 -2.048
H 14.5412 4.55357 -1.72475
O 2.91086 5.73877 1.028
H 3.21862 4.91578 1.50552
H 2.15015 5.50742 0.421491
O 11.4998 8.18718 12.6955
H 11.8767 8.10938 11.7725
H 10.9538 7.37525 12.9021
O 14.7444 7.15037 -11.8136
H -14.5886 6.43447 -12.1163
H -14.9795 7.43243 -10.8842
O 2.30767 -12.7681 -8.20717
H 1.51891 -12.2123 -7.94452
H 2.19834 -13.694 -7.84534
O 2.09415 7.98884 5.32968
H 2.43333 7.86361 4.39729
H 2.82065 8.3723 5.89996
O 12.7046 -7.6973 -3.64348
H 13.6599 -7.81844 -3.37372
H 12.2216 -8.56894 -3.55996
O -5.92453 -13.4795 3.56734
H -5.55929 -14.2803 3.09252
H -5.41747 -13.3359 4.41724
O 3.09179 6.53544 -14.5461
H 3.55875 6.98576 14.6551
H 2.11158 6.48699 -14.7382
O 7.07719 10.3044 1.56718
H 7.89618 9.88073 1.95423
H 6.41569 10.4788 2.2966
O -2.50141 -12.6887 2.65385
H -2.46364 -11.6893 2.65384
H -3.31874 -12.9913 2.16353
O 2.05848 14.2987 -4.07487
H 3.03179 14.528 -4.06161
H 1.93841 13.3756 -4.44029
O -12.9621 -1.58313 -2.73753
H -12.34 -0.957842 -3.20884
H -13.1824 -2.35071 -3.33948
O -11.3228 -2.82401 1.50069
H -10.9723 -3.28099 2.31824
H -11.5573 -3.50884 0.810687
O 6.2588 3.3235 -0.531448
H 5.98571 2.41798 -0.206614
H 5.47187 3.77999 -0.946686
O 14.7928 0.470294 -1.63685
H 14.6147 -0.450311 -1.28928
H -14.3621 0.453401 -2.22678
O 11.2037 -8.68691 7.3515
H 11.7329 -8.30189 6.59536
H 11.7871 -9.29335 7.89185
O 5.65306 5.27481 14.0907
H 5.4039 4.65547 14.8352
H 5.0562 6.07695 14.1105
O -9.64557 8.38513 -0.534246
H -9.63796 8.51757 -1.52544
H -10.4781 7.8986 -0.26935
O -13.4752 -0.696546 14.6304
H -13.1034 -1.41896 -14.7488
H -12.7426 -0.310864 14.0695
O -0.602505 -13.044 -6.2014
H -1.3675 -12.9237 -6.83415
H -0.0457436 -12.2134 -6.18979
O -2.55059 9.28881 -9.42517
H -2.88071 8.34902 -9.51395
H -2.20647 9.435 -8.49766
O 0.622884 4.65382 12.4924
H -0.0233933 3.93341 12.7441
H 0.161846 5.54071 12.5227
O 4.45808 5.80917 -4.47493
H 4.33162 6.49083 -5.19563
H 5.43106 5.73019 -4.25783
O 3.38432 -0.095887 -7.00607
H 3.98788 -0.628032 -6.41226
H 3.8123 0.783644 -7.21422
O 7.53498 7.80222 12.5724
H 8.14327 7.49492 13.3042
H 7.62566 7.192 11.7853
O -4.80859 3.47768 1.38146
H -4.6295 2.79001 0.677822
H -3.98238 3.61969 1.92669
O -1.50152 -10.8535 -0.797108
H -2.48922 -10.9956 -0.731543
H -1.03564 -11.4398 -0.134343
O -3.79764 -2.82018 0.0714753
H -3.84023 -3.77119 0.377781
H -4.0644 -2.2159 0.822304
O 12.4315 -7.4508 13.9816
H 12.3718 -8.36087 14.3918
H 11.5417 -6.99839 14.0432
O -5.3054 11.3865 13.8213
H -4.74491 10.844 14.4471
H -6.27086 11.1687 13.9645
O 13.3546 1.63559 -6.72309
H 14.1842 1.19488 -6.3802
H 13.6008 2.46399 -7.22627
O -11.0544 5.3031 -2.43147
H -11.0653 6.25868 -2.72609
H -11.7147 5.17486 -1.6915
O -6.22654 -1.15083 6.8722
H -5.61675 -1.83896 6.47889
H -5.72962 -0.617273 7.55663
O 8.22992 -14.2602 4.89114
H 8.12356 -13.3254 5.22996
H 7.83118 -14.3307 3.97675
O 12.3908 14.205 -6.14135
H 12.4461 14.3594 -5.15486
H 13.0527 13.5038 -6.40659
O -3.69615 -7.48849 4.77498
H -3.73624 -6.74398 4.10853
H -3.84034 -8.36135 4.30872
O 9.89358 13.3098 8.10884
H 10.3754 12.9131 7.32747
H 9.07549 13.7875 7.78849
O -13.7132 -3.90222 6.82649
H -14.0166 -3.30981 7.57287
H -12.8489 -4.33819 7.07723
O -3.57677 9.45307 -6.73179
H -4.20919 8.90149 -7.27574
H -4.06592 9.85464 -5.95749
O -2.67938 14.0388 6.15367
H -3.58947 13.7448 6.44583
H -2.63032 14.0283 5.1549
O -12.9684 12.4859 14.4976
H -13.733 11.8677 14.3153
H -13.0438 13.2917 13.9102
O 10.4387 -13.4764 12.1849
H 10.2343 -12.5385 12.4651
H 11.2832 -13.4877 11.6492
O 6.0451 -11.5006 -13.6846
H 5.87481 -12.3907 -13.2618
H 6.2701 -10.8323 -12.9755
O -13.1921 10.0639 -9.19245
H -13.2113 10.1546 -8.19673
H -13.3023 10.9653 -9.61142
O 5.41392 -14.1217 -12.7011
H 5.49785 -14.374 -11.7371
H 5.71735 -14.884 -13.2728
O 7.79287 -10.3549 3.26384
H 6.84878 -10.5675 3.51592
H 7.98778 -10.728 2.35672
O 4.15993 3.02719 -4.69423
H 4.26005 4.00678 -4.51976
H 3.19313 2.80967 -4.82861
O 1.6314 -14.0058 13.0956
H 1.96786 -14.8085 12.6031
H 2.30376 -13.2684 13.0299
O -14.2759 -5.86813 -0.867193
H -13.4407 -5.87392 -0.317141
H -14.8969 -6.57937 -0.537773
O -1.3908 2.95727 -9.08156
H -0.989067 3.55346 -9.77671
H -1.72119 3.51157 -8.31758
O 7.89089 -2.80675 -6.11756
H 8.42213 -2.44368 -5.35205
H 7.53628 -3.71065 -5.87821
O -2.86008 3.6116 5.11964
H -2.36612 3.15558 5.86
H -2.9076 4.59303 5.30562
O 4.39373 -2.00989 8.82702
H 3.95491 -1.61918 8.01779
H 5.38085 -1.85762 8.77717
O 5.42889 11.3217 -7.92519
H 5.93907 11.8742 -8.58438
H 6.03966 11.0351 -7.18704
O 3.71326 -10.404 8.54939
H 3.57799 -9.53769 8.06856
H 4.00059 -11.1058 7.89741
O -6.06447 -14.2328 8.5566
H -6.59576 -14.6409 9.29903
H -6.23307 -13.2475 8.52865
O 6.24589 -7.93647 13.1308
H 6.85311 -8.35317 12.4542
H 5.3003 -7.99451 12.8105
O -2.93202 14.4503 10.7287
H -2.0572 14.8988 10.5454
H -3.12902 13.7937 10.0006
O -6.82523 -7.52159 7.5478
H -6.33467 -8.29252 7.14149
H -7.80997 -7.68692 7.49296
O -9.00028 -14.8452 -14.9654
H -8.22375 -14.8688 14.3672
H -9.07761 14.2362 -14.4983
O 5.941 -5.13629 5.06984
H 5.53628 -4.69584 5.87126
H 6.20116 -6.07391 5.30061
O -2.28986 -9.84735 -12.6592
H -1.43964 -10.3716 -12.7076
H -3.06542 -10.4528 -12.8381
O 8.46862 2.43683 6.18702
H 8.82233 2.37262 7.1202
H 9.18992 2.76914 5.57928
O 12.5461 9.91247 -10.458
H 13.4545 9.51309 -10.5821
H 11.8842 9.18517 -10.2764
O -5.51286 -1.45747 -11.5355
H -6.05975 -1.063 -10.797
H -4.60621 -1.6965 -11.1878
O 13.1909 11.6589 7.47315
H 12.3709 11.8741 6.94273
H 14.0029 11.93 6.95628
O -7.29259 7.85268 8.41568
H -7.62345 6.9287 8.2237
H -8.0093 8.51529 8.19812
O -13.8188 -13.6808 4.26299
H -14.7875 -13.9292 4.26644
H -13.7294 -12.6888 4.17323
O -2.77806 -8.59575 -10.3183
H -2.39254 -8.96401 -11.1644
H -3.35186 -9.28992 -9.88364
O -7.6867 -8.47876 3.36084
H -8.41103 -7.79291 3.28993
H -6.80714 -8.05905 3.1366
O 14.5073 2.41462 3.00862
H 14.8718 1.93128 3.80456
H 13.8274 3.0842 3.30784
O 0.670974 1.23551 -14.3238
H -0.197695 0.932794 -13.9316
H 1.31805 1.43375 -13.5876
O 9.30693 -4.94686 3.72798
H 10.0524 -4.33129 3.47217
H 8.48377 -4.70504 3.21417
O -6.62598 -11.9985 1.09418
H -7.0957 -12.6798 0.532767
H -6.4141 -12.3923 1.98864
O 1.5846 -6.17366 -9.81893
H 1.82518 -5.8894 -10.747
H 2.05246 -5.5862 -9.15858
O 8.4055 -14.6511 13.6074
H 9.16166 -14.3731 13.0149
H 7.83679 -13.8557 13.8174
O 4.64094 -2.10225 -0.532555
H 4.51689 -2.96425 -0.0409953
H 3.7997 -1.56415 -0.479339
O 1.30213 2.31397 -5.51109
H 1.00036 1.39323 -5.75854
H 1.73701 2.74584 -6.30131
O -8.45478 7.15453 3.0651
H -7.79939 6.46428 2.75836
H -8.34314 7.9856 2.5202
O -11.618 7.80435 -9.40692
H -11.7703 7.18291 -10.1755
H -11.996 8.70396 -9.62571
O 7.22124 4.91993 3.64576
H 6.63499 5.56903 4.13056
H 8.14181 4.94673 4.03549
O 1.28163 0.71803 9.08821
H 0.49351 0.576982 8.48901
H 1.42092 -0.0955316 9.65281
O 6.59255 6.37197 -10.9562
H 6.66034 5.73404 -11.7234
H 7.46308 6.39586 -10.4647
O 11.9541 12.2584 12.4304
H 11.0007 11.9853 12.5589
H 11.9934 13.2281 12.189
O -8.20684 5.47028 12.8592
H -7.61052 6.2385 12.6261
H -8.88192 5.76548 13.5353
O 10.8185 0.0126717 6.91043
H 10.6672 0.262745 7.8668
H 9.9642 -0.324947 6.51504
O 14.6339 8.16974 -0.114864
H 13.6384 8.26173 -0.0892427
H -14.9727 8.1349 0.81913
O -9.68757 -0.558897 -14.603
H -9.24635 -0.650771 -13.7103
H -9.66332 -1.43812 14.8834
O -9.38442 -13.8683 -0.620562
H -9.44289 -14.435 -1.44242
H -8.96492 -12.9901 -0.850417
O -0.308684 12.766 -1.28956
H -0.335941 13.7088 -1.62207
H 0.135708 12.7412 -0.394042
O 6.90327 12.935 0.236043
H 6.38542 13.1133 -0.600659
H 6.68573 12.0192 0.573839
O -3.42895 -1.27809 -9.44412
H -4.09527 -1.71986 -8.84336
H -2.96845 -0.54246 -8.94727
O -6.9628 -14.6072 13.3554
H -6.2077 14.7002 13.3214
H -6.67681 -13.7465 12.9342
O 13.9205 8.72624 6.45396
H 14.2773 8.54274 7.36994
H 13.3886 9.57302 6.46691
O 14.4542 11.4545 13.3353
H 14.8325 11.2163 12.4407
H 13.4802 11.6604 13.2412
O -11.512 -13.6471 13.6136
H -11.8203 -12.7286 13.8613
H -10.7171 -13.8928 14.1685
O -7.30354 -10.0666 5.6292
H -7.44212 -9.61102 4.74981
H -6.41129 -10.5182 5.6337
O -12.9162 5.93261 6.94373
H -13.2304 6.44522 6.14463
H -12.3266 5.18137 6.6471
O 1.4922 9.76898 -14.3643
H 2.34896 9.61144 -13.8732
H 0.846914 9.03485 -14.1528
O 9.72577 -7.56847 9.3672
H 10.162 -8.02622 8.59248
H 8.92384 -7.06365 9.0476
O 10.2038 -1.43809 -6.94385
H 10.753 -1.5308 -6.11327
H 9.38725 -2.01055 -6.86918
O -4.58456 -10.9202 4.80657
H -4.46166 -11.9122 4.83373
H -4.38971 -10.5853 3.88465
O 0.0689192 -8.95955 -2.10528
H -0.475703 -9.53761 -1.49757
H -0.493534 -8.6654 -2.87805
O -9.56554 9.63882 -4.36579
H -9.96798 8.90046 -4.90702
H -9.20147 10.3407 -4.9781
O -3.23002 8.52486 1.59391
H -3.09865 7.74721 2.20878
H -2.46885 9.16495 1.69872
O 3.58681 -7.8585 6.80284
H 3.3045 -8.17014 5.89551
H 3.40712 -6.87857 6.88955
O 13.496 -12.8152 -2.90484
H 14.1882 -12.113 -3.07122
H 13.92 -13.6013 -2.45512
O -5.5288 -2.02019 -4.23323
H -5.54684 -2.35085 -3.28962
H -5.3302 -1.04009 -4.23924
O 13.2753 4.61573 -7.9433
H 13.2181 4.27904 -8.88321
H 12.418 5.06888 -7.69876
O 2.39642 4.3133 -7.38725
H 1.77876 5.06016 -7.63378
H 3.25822 4.69136 -7.04898
O 9.33311 -0.845749 -11.6859
H 10.2334 -1.18657 -11.9567
H 8.91998 -1.47901 -11.0314
O 1.9957 -1.09826 -14.6975
H 1.65986 -0.238042 -14.3137
H 1.25395 -1.55703 14.7755
O -6.01677 3.65757 -3.65597
H -6.71542 4.16915 -3.15574
H -5.12539 3.80375 -3.22688
O -7.19959 -5.04706 -2.91792
H -6.91151 -4.99157 -3.87395
H -6.81422 -4.27762 -2.40848
O 11.8935 3.45125 -0.760964
H 12.5426 2.74578 -0.476335
H 12.2338 4.34933 -0.482176
O -4.08007 10.3175 11.156
H -5.0105 10.4161 10.803
H -4.11495 10.1015 12.1318
O -0.245604 -10.8984 -8.4368
H 0.142001 -10.5616 -7.57866
H 0.129957 -10.3737 -9.2008
O -6.85695 0.501023 13.9855
H -6.01671 0.95274 13.6855
H -7.44664 1.16521 14.445
O 11.7426 -11.6811 2.3643
H 11.0399 -11.5365 3.06097
H 11.9642 -10.8088 1.92828
O -5.53786 1.14181 2.85823
H -6.3935 0.774519 2.49347
H -5.30171 1.98278 2.37132
O -7.37672 -3.10088 8.68411
H -6.58537 -3.63919 8.97405
H -7.13172 -2.55196 7.88491
O 13.8863 14.9497 -1.41609
H 13.8229 -14.5885 -0.512633
H 14.4233 14.1084 -1.35252
O 4.13056 -10.4402 -1.882
H 4.44498 -10.7496 -0.984533
H 4.91898 -10.1839 -2.44127
O 2.658 -12.5097 0.429429
H 3.3335 -13.1684 0.0980327
H 3.10521 -11.6321 0.602362
O 4.67768 0.717187 -11.3606
H 4.81018 1.55125 -11.8962
H 5.34125 0.692263 -10.6129
O -4.8121 13.9638 12.4363
H -4.19728 14.1123 11.6617
H -4.83883 12.9892 12.6586
O -1.15592 -1.90134 6.774
H -1.11962 -1.80656 7.76887
H -1.30606 -2.86092 6.53584
O -6.62768 -8.17604 -12.2087
H -6.60984 -8.81562 -11.4401
H -5.75632 -7.68764 -12.2562
O -10.3505 0.0220358 2.02338
H -11.0013 0.774552 1.92232
H -10.8493 -0.834095 2.15881
O -8.0145 -3.51578 14.5228
H -7.933 -3.18792 13.5816
H -7.27335 -3.13308 -14.8878
O -6.92363 -11.6126 8.65367
H -7.55276 -10.9858 9.11344
H -6.1333 -11.1023 8.31448
O -0.43693 12.6784 -4.53503
H 0.423333 12.3782 -4.94724
H -0.594768 12.1721 -3.68716
O 3.71515 -0.344165 6.88956
H 4.09588 0.572228 7.01338
H 2.80198 -0.274255 6.48794
O 7.51449 14.7789 2.22404
H 7.20318 14.251 1.43379
H 7.81723 -14.2792 1.9226
O 5.93342 0.78176 0.786431
H 6.44024 0.0325742 0.359923
H 5.02649 0.458965 1.05726
O -1.99127 -5.19073 12.0763
H -2.62101 -5.92702 12.324
H -2.39267 -4.64126 11.3435
O -10.8739 11.109 13.3465
H -11.5965 11.4891 13.9239
H -10.9443 11.4951 12.4268
O 7.84391 13.5736 -6.82757
H 8.75621 13.2778 -6.54428
H 7.76357 13.5006 -7.82169
O 11.6132 11.9407 2.46112
H 10.824 12.1424 1.881
H 11.5035 11.0346 2.86988
O -7.27896 -11.7809 -12.3259
H -7.04366 -12.6599 -11.911
H -7.70768 -11.1928 -11.6401
O -1.05924 -4.80075 3.50724
H -2.027 -4.7877 3.25558
H -0.549181 -5.34612 2.84206
O -10.3298 -10.9528 -6.10928
H -9.59007 -10.3517 -5.80693
H -11.2084 -10.57 -5.82351
O 7.34474 -5.48311 12.274
H 7.01288 -6.18332 12.9062
H 6.57636 -5.11663 11.7493
O -6.42318 11.5296 -5.47862
H -6.69569 11.3973 -4.52557
H -5.98503 12.4229 -5.57907
O -8.39892 -9.10586 -5.31604
H -7.81736 -9.33683 -4.53597
H -7.92888 -8.44135 -5.89703
O 8.27566 6.01328 10.4119
H 9.17269 5.59952 10.2564
H 7.71825 5.9206 9.58682
O 14.6412 5.1362 -14.8747
H 13.8149 5.57087 -14.5165
H -14.9623 5.67785 14.3273
O 2.5312 11.6984 -12.0619
H 1.79166 12.3713 -12.0443
H 3.1696 11.9238 -12.7979
O -13.6562 -9.78877 0.799834
H -12.9776 -9.08192 0.600084
H -13.6167 -10.0238 1.77104
O 14.2361 11.6416 -4.4982
H 14.3089 11.4042 -5.46693
H -14.8111 11.6933 -4.09805
O -12.576 -7.21899 -3.97652
H -12.0468 -8.03426 -3.74108
H -12.0129 -6.40439 -3.83685
O -2.7356 -9.74777 -6.8377
H -1.89077 -10.1501 -7.19051
H -3.45697 -9.83109 -7.52526
O -2.58144 -14.0814 14.4835
H -3.14997 -14.5666 13.8191
H -2.6413 -13.097 14.3176
O 3.85436 -1.9761 -11.2348
H 3.14094 -2.44258 -11.7577
H 3.71918 -0.987091 -11.2952
O -4.2736 -5.91785 -9.46121
H -4.65743 -6.3675 -10.2678
H -3.66137 -5.18164 -9.74972
O 3.99295 -6.76907 2.62764
H 3.17104 -6.37886 3.04268
H 4.77594 -6.61518 3.23039
O 12.4677 8.6202 -5.2935
H 12.5112 8.52978 -4.29851
H 13.0441 7.92144 -5.71721
O -4.77787 14.1674 -5.75192
H -4.99592 -14.9266 -5.30622
H -3.88347 13.8476 -5.43916
O -7.73724 -0.623529 -10.007
H -7.88355 -0.0359535 -10.8029
H -8.39095 -0.382094 -9.28979
O 12.1355 5.61817 -4.24787
H 12.8095 5.72435 -3.5168
H 11.6955 4.72367 -4.16824
O -10.933 3.1194 -13.7547
H -11.3292 2.31196 -13.3175
H -11.5682 3.47153 -14.4422
O -4.95571 -10.2557 -9.1996
H -4.70908 -11.1899 -9.45776
H -5.93293 -10.1134 -9.35717
O 4.94127 4.8893 9.6771
H 4.14488 4.28642 9.7258
H 4.93167 5.51772 10.455
O -4.19862 3.0453 -14.644
H -4.78845 3.02623 14.5109
H -4.35875 2.22508 -14.0947
O 12.214 0.656235 -2.79653
H 13.0021 0.705672 -2.18292
H 11.3801 0.865018 -2.28556
O -3.41185 -11.4346 -4.42217
H -2.5724 -11.812 -4.03111
H -3.17922 -10.7608 -5.12362
O -12.6215 1.68943 2.12236
H -12.9703 2.58926 2.38453
H -13.3446 1.00714 2.23089
O -3.23474 7.93626 -3.97723
H -2.84971 8.06307 -4.89141
H -4.22723 7.83399 -4.0448
O 11.5632 -1.65415 -4.49153
H 11.991 -1.00168 -3.86602
H 10.6803 -1.94193 -4.12031
O -1.95959 3.67922 2.61707
H -2.27043 3.59869 3.56415
H -0.99897 3.9569 2.604
O 8.95591 0.226484 14.454
H 8.86355 0.344128 -14.5194
H 8.59156 -0.666338 14.1891
O -14.9679 8.5291 -2.99116
H -14.9441 8.1206 -2.07868
H -14.4114 9.35994 -2.99907
O 10.3857 6.60341 1.95265
H 10.2413 5.63514 1.74855
H 10.5674 7.09953 1.1036
O 2.07341 -5.79786 4.17083
H 1.67675 -6.32181 4.92462
H 1.68517 -4.87629 4.16488
O 13.2581 -9.59858 8.73104
H 14.0251 -9.54298 8.09179
H 13.5828 -9.41207 9.65832
O 1.48076 -6.18795 -5.95617
H 2.37259 -6.54544 -5.67886
H 1.6093 -5.44018 -6.60762
O 9.91661 -7.1076 -7.08764
H 10.3794 -6.53911 -6.40738
H 9.72417 -6.56159 -7.90305
O -5.26978 -10.6844 -2.18708
H -4.65833 -10.8298 -2.96494
H -5.70091 -9.78551 -2.26545
O 10.0789 10.6867 -1.39756
H 9.80868 11.4637 -0.829046
H 10.8267 10.9603 -2.00247
O 4.53511 -1.98103 14.435
H 3.5942 -1.7687 14.6989
H 4.52934 -2.61051 13.6579
O -9.98381 -6.96171 1.96605
H -10.5447 -6.31392 2.48163
H -9.13852 -6.51318 1.67558
O 3.72499 -8.32432 11.8775
H 3.80902 -8.88917 11.0566
H 2.76878 -8.06026 12.004
O -12.3894 3.93776 14.2238
H -13.1979 3.36641 14.3652
H -12.5035 4.47604 13.3888
O 9.35473 9.10011 2.79969
H 9.65668 8.19465 2.5013
H 9.79996 9.33166 3.66468
O 5.85516 0.763913 14.6629
H 5.45726 -0.125775 14.4389
H 6.3974 0.685399 -14.4628
O 11.6317 4.64459 -13.878
H 11.6285 5.26783 -13.0959
H 11.3609 5.14233 -14.702
O -14.4636 7.18514 13.3593
H -14.9522 6.9669 12.5145
H 14.8778 7.64506 13.9942
O 3.13287 -14.5504 6.76328
H 3.33762 14.507 6.38988
H 3.29334 -14.5531 7.75035
O 7.66752 -6.68527 7.96228
H 6.99024 -6.47582 8.6676
H 7.19959 -6.93863 7.11558
O -12.7198 2.35437 -1.22952
H -11.7995 2.0344 -1.45463
H -13.0799 1.82159 -0.463664
O -4.42951 -3.14475 6.00111
H -3.66944 -3.75979 6.21107
H -5.06804 -3.60298 5.38276
O -5.26546 -7.82427 -7.65605
H -4.7424 -7.11243 -8.12484
H -5.09478 -8.7067 -8.0945
O 9.49524 -8.0908 -0.178801
H 10.2298 -8.74252 0.0101492
H 9.32338 -8.05852 -1.16343
O -9.68973 -2.5578 -11.4978
H -10.4394 -2.78711 -10.8769
H -8.87507 -2.32676 -10.9658
O -8.01309 -1.94806 -0.703309
H -9.00341 -1.96607 -0.841112
H -7.66732 -1.02834 -0.889386
O 5.7793 -1.69586 11.5389
H 6.18986 -0.959947 12.0774
H 6.2593 -1.77747 10.6654
O -7.96282 -1.739 12.2547
H -7.54128 -1.06455 12.8609
H -8.95779 -1.69042 12.3427
O -9.00986 -7.89656 -13.4489
H -8.09254 -8.0819 -13.0964
H -9.5652 -8.72578 -13.3853
O -4.66469 10.8176 -10.1467
H -5.3679 10.3124 -9.64645
H -3.7623 10.4608 -9.90492
O 6.98754 -7.69361 3.28009
H 7.32473 -6.96511 2.68373
H 7.48165 -8.54059 3.08377
O -13.6215 -10.9007 3.34258
H -12.8412 -10.3405 3.62087
H -14.4464 -10.5772 3.80608
O 11.2026 -9.73567 -9.9826
H 10.4261 -9.2771 -10.4149
H 10.8848 -10.5618 -9.51716
O 7.70459 4.31766 12.5809
H 7.72895 4.81824 11.7155
H 6.93275 4.63843 13.1299
O -10.1406 1.1235 -1.14005
H -10.1752 0.12867 -1.04428
H -9.3072 1.38258 -1.62831
O 10.1103 2.28662 12.7575
H 9.40475 2.9257 12.4513
H 9.68078 1.51808 13.2318
O -9.76363 -7.92675 7.57531
H -9.51205 -8.88654 7.45053
H -10.2304 -7.81587 8.45276
O 4.18294 2.90498 -14.7026
H 4.62412 2.05263 14.9787
H 3.81935 3.37328 14.4543
O -9.81658 -5.37941 -6.51217
H -9.44691 -5.08289 -5.63155
H -9.12399 -5.90749 -7.00361
O 12.3168 -12.3512 -12.6654
H 12.4921 -13.3179 -12.8519
H 11.3313 -12.2003 -12.5871
O -9.66633 14.6376 -3.06204
H -9.31788 -14.5213 -3.54503
H -10.6052 14.4545 -3.35379
O -12.3999 -0.937897 -7.71869
H -12.0929 -1.88404 -7.6154
H -12.9355 -0.851043 -8.55871
O -14.5719 -9.56491 7.22333
H -13.7773 -10.1646 7.1287
H 14.8834 -9.54479 6.36154
O -9.14557 -14.4929 -9.57107
H -8.31271 -13.9394 -9.57471
H -8.95054 14.5711 -9.96496
O -3.93568 4.554 -2.20932
H -3.50859 5.16314 -1.54104
H -3.37402 4.51996 -3.03603
O -2.90389 9.04191 8.67529
H -3.22303 9.19247 9.611
H -3.32615 8.21295 8.30843
O 1.96682 -9.03848 -7.08338
H 1.48149 -8.16907 -6.9904
H 2.88613 -8.87062 -7.43942
O -12.9033 9.76743 7.89904
H -12.373 9.39683 7.13646
H -12.8503 10.766 7.88768
O 8.06619 -9.763 7.51556
H 7.51079 -9.04762 7.09149
H 9.00141 -9.71049 7.16533
O 5.47761 -4.75336 -8.38205
H 6.04633 -5.10962 -7.64062
H 5.79134 -3.83734 -8.63213
O -14.9591 3.54211 -12.0346
H 14.9135 2.58182 -12.299
H 14.9024 4.12131 -12.8436
O 6.2046 -5.05541 -5.43816
H 5.58546 -4.72026 -4.72795
H 6.92405 -5.60923 -5.01896
O -14.9508 10.8053 10.8818
H 14.1099 11.0288 10.5113
H -14.3104 11.5431 10.6683
O -0.777686 0.53932 -8.43608
H -1.06811 1.48142 -8.60392
H -0.616999 0.409357 -7.45763
O 9.38126 5.91313 -10.402
H 9.50963 6.51873 -11.1874
H 9.88155 5.06054 -10.5532
O -9.35795 4.29762 9.56466
H -10.2126 4.79218 9.72302
H -8.976 4.00314 10.4407
O 1.80981 -5.03289 14.8295
H 2.07424 -5.93347 -14.7876
H 0.812495 -4.96025 14.8174
O -3.62246 -14.2433 0.178298
H -4.009 -13.371 -0.121453
H -3.30317 -14.7575 -0.617745
O -13.4172 -14.9284 -6.14415
H -12.6144 -14.6584 -6.67578
H -14.152 -14.266 -6.29048
O -13.5994 2.82818 -4.89028
H -14.0832 1.97651 -5.09196
H -14.1027 3.34066 -4.19446
O -7.82614 -4.32707 -8.86881
H -7.14267 -4.38215 -9.59675
H -8.25963 -5.22043 -8.75029
O -11.7729 -9.96896 -9.95651
H -12.0169 -10.0755 -8.99256
H -12.3637 -10.5503 -10.5161
O 14.1271 -10.4686 -8.6579
H 14.8003 -9.72985 -8.69195
H 13.3844 -10.2725 -9.29828
O 12.7609 -5.68881 11.4714