LAMMPS data file via write_data, version 15 May 2015, timestep = 1009000

2593 atoms
6 atom types
1728 bonds
4 bond types
864 angles
3 angle types
0 dihedrals
3 dihedral types
0 impropers
1 improper types

-1.4981352458743821e+01 1.4981352458743821e+01 xlo xhi
-1.4981352458743821e+01 1.4981352458743821e+01 ylo yhi
-1.4981352458743821e+01 1.4981352458743821e+01 zlo zhi

Masses

1 15.9994
2 1.00794
3 12.0107
4 1.00794
5 12.0107
6 12.0107

Bond Coeffs # harmonic

1 1000 1
2 469 1.4
3 367 1.08
4 469 0.7

Angle Coeffs # harmonic

1 100 109.47
2 35 120
3 63 120

Dihedral Coeffs # opls

1 0 7.25 0 0
2 0 7.25 0 0
3 0 7.25 0 0

Improper Coeffs # cvff

1 2.5 -1 2

Atoms # full

2293 765 1 -8.1999999999999995e-01 -1.3053285058562636e+01 -7.6433059912748664e+00 -1.2838963190592413e+01 2 0 1
1111 371 1 -8.1999999999999995e-01 -1.3380267644512685e+01 -1.3642988290010907e+01 -1.0265358258952862e+01 0 -1 -1
449 150 2 4.0999999999999998e-01 -1.1911392832189629e+01 -9.0949990145228341e+00 -1.0468823285203808e+01 0 2 1
1689 563 2 4.0999999999999998e-01 -1.0100286132816944e+01 -1.2204233420428967e+01 -9.0309422848340404e+00 1 0 3
430 144 1 -8.1999999999999995e-01 -1.1614276979592502e+01 -1.4639286223296148e+01 -7.6369132410471714e+00 0 1 1
64 22 1 -8.1999999999999995e-01 -1.0635128177953256e+01 -8.7469471464797603e+00 -1.1991423517326261e+01 0 1 1
431 144 2 4.0999999999999998e-01 -1.1799438539475767e+01 -1.4923220463365002e+01 -8.5776811808945759e+00 0 1 1
66 22 2 4.0999999999999998e-01 -1.0925243330954984e+01 -9.6953121267127216e+00 -1.2119427314446469e+01 0 1 1
2343 781 2 4.0999999999999998e-01 -8.9292906549665574e+00 -8.6448172940378161e+00 -1.2247695672531099e+01 0 0 -1
2341 781 1 -8.1999999999999995e-01 -8.0002937744633904e+00 -8.3988331572557691e+00 -1.2524109048936335e+01 0 0 -1
2342 781 2 4.0999999999999998e-01 -7.6646036164279208e+00 -9.0626386532793646e+00 -1.3192407023745579e+01 0 0 -1
2364 788 2 4.0999999999999998e-01 -7.7311691296828187e+00 -7.3912237497064535e+00 -1.0669793864227463e+01 1 2 1
2295 765 2 4.0999999999999998e-01 -1.3859532613652968e+01 -8.2291208453668609e+00 -1.2921022504101613e+01 2 0 1
1687 563 1 -8.1999999999999995e-01 -1.1003128593406563e+01 -1.1789019942312498e+01 -8.9194924432077674e+00 1 0 3
65 22 2 4.0999999999999998e-01 -1.1394078709575288e+01 -8.1337742203940877e+00 -1.2210423278637901e+01 0 1 1
1688 563 2 4.0999999999999998e-01 -1.1528244920471078e+01 -1.2308956745288576e+01 -8.2457963497052837e+00 1 0 3
1904 635 2 4.0999999999999998e-01 -8.6157883918465643e+00 -1.4031820833341275e+01 -9.2522100034011494e+00 2 0 2
1751 584 2 4.0999999999999998e-01 -1.2124103645776197e+01 -7.3900454881579192e+00 -9.0466692327665577e+00 0 1 1
1854 618 2 4.0999999999999998e-01 -3.0271629172445991e-01 -7.1398265732093620e+00 -1.3890328235082482e+01 0 -1 2
2072 691 2 4.0999999999999998e-01 -1.2263925962261087e+01 -1.1886763625487129e+01 -1.2930731188484534e+01 1 1 2
161 54 2 4.0999999999999998e-01 -4.7896325849332513e+00 -1.1428702142964147e+01 -1.2997649003866847e+01 0 1 0
2294 765 2 4.0999999999999998e-01 -1.2664037934652905e+01 -7.4830192161447231e+00 -1.3746014758911288e+01 2 0 1
2073 691 2 4.0999999999999998e-01 -1.1161110650697301e+01 -1.1865094359487994e+01 -1.1726648278495743e+01 1 1 2
1437 479 2 4.0999999999999998e-01 -1.2392678073156185e+01 -5.6974756447341655e+00 -1.0479425115575385e+01 0 1 3
2071 691 1 -8.1999999999999995e-01 -1.1416734771382036e+01 -1.1465573547560657e+01 -1.2606981764530133e+01 1 1 2
1830 610 2 4.0999999999999998e-01 -8.8497723853461849e+00 -7.1409127539939785e+00 -8.2984460761664636e+00 1 1 2
1091 364 2 4.0999999999999998e-01 -3.9971098340448492e+00 -8.9337173595313395e+00 -1.2604459592027229e+01 0 1 -1
595 199 1 -8.1999999999999995e-01 -1.4078609918707066e+01 -1.2327127485364580e+01 -1.3249346470297901e+01 1 1 1
2154 718 2 4.0999999999999998e-01 -1.1380785368520417e+01 -1.0984592476869945e+01 -1.4398460529831929e+01 0 2 3
1270 424 1 -8.1999999999999995e-01 -7.3503744586168782e+00 -1.0404388308610022e+01 -1.4149436733284515e+01 -1 1 0
448 150 1 -8.1999999999999995e-01 -1.2369802122055352e+01 -9.0719832164574470e+00 -9.5804096007653676e+00 0 2 1
596 199 2 4.0999999999999998e-01 -1.4641049899538828e+01 -1.1918088132713077e+01 -1.3967883824908608e+01 1 1 1
2308 770 1 -8.1999999999999995e-01 -8.7205194824089745e+00 -1.3369719732933278e+01 -7.8154718834092334e+00 1 2 0
2025 675 2 4.0999999999999998e-01 -2.8893583911966214e+00 -1.4091513460227908e+01 -1.1244463085094365e+01 1 -1 1
727 243 1 -8.1999999999999995e-01 -7.7521511474255638e+00 -1.2074944633811866e+01 -1.1857274279233877e+01 -2 0 0
728 243 2 4.0999999999999998e-01 -7.7195048694235560e+00 -1.1222717748509790e+01 -1.1335171454798104e+01 -2 0 0
729 243 2 4.0999999999999998e-01 -7.9910903321140374e+00 -1.2830518097966511e+01 -1.1247385346975420e+01 -2 0 0
1750 584 1 -8.1999999999999995e-01 -1.1744941607462094e+01 -6.4685541359028242e+00 -8.9627785190891522e+00 0 1 1
2543 848 2 4.0999999999999998e-01 -4.4987145667232831e-01 -9.6005511313520380e+00 -1.0098993896386638e+01 1 2 0
1435 479 1 -8.1999999999999995e-01 -1.2846279960156703e+01 -5.2479427163688417e+00 -1.1248914102234815e+01 0 1 3
1436 479 2 4.0999999999999998e-01 -1.3277128985994311e+01 -5.9375517899846173e+00 -1.1830941879386785e+01 0 1 3
2362 788 1 -8.1999999999999995e-01 -8.2443751719630782e+00 -6.8676522170252667e+00 -9.9897642402761004e+00 1 2 1
2279 760 2 4.0999999999999998e-01 -2.8757492990243474e+00 -1.0774215966280050e+01 -9.5922970643337742e+00 -2 1 -1
163 55 1 -8.1999999999999995e-01 -8.4920610049545608e-01 -5.7365112439116714e+00 -8.8965239939064027e+00 0 -3 1
2096 699 2 4.0999999999999998e-01 -9.5361109705420013e+00 -6.6591023778109317e+00 -1.2626941380285743e+01 2 1 4
1905 635 2 4.0999999999999998e-01 -7.8569023578585790e+00 -1.4910407604548910e+01 -1.0400540905755959e+01 2 0 2
1663 555 1 -8.1999999999999995e-01 -1.6477422197256519e+00 -1.0406385406706416e+01 -1.4649326434782584e+01 -1 1 2
450 150 2 4.0999999999999998e-01 -1.2536146290662414e+01 -1.0006844849445722e+01 -9.2668635383610312e+00 0 2 1
2439 813 2 4.0999999999999998e-01 -1.4025670884506848e+01 -8.2438310023942911e+00 -9.5053058235671593e+00 2 1 2
1828 610 1 -8.1999999999999995e-01 -9.5012086223241781e+00 -7.1911613853114673e+00 -7.5414429266696041e+00 1 1 2
1151 384 2 4.0999999999999998e-01 -4.7440024579104438e+00 -1.2604411384019219e+01 -1.4939633682238876e+01 1 0 3
1903 635 1 -8.1999999999999995e-01 -8.3807526045253571e+00 -1.4077314030654462e+01 -1.0223104286378470e+01 2 0 2
2095 699 1 -8.1999999999999995e-01 -9.2562165065148445e+00 -5.7576957402735349e+00 -1.2957203478922246e+01 2 1 4
1730 577 2 4.0999999999999998e-01 -7.5373933236432453e+00 -1.0582161691011628e+01 -8.7210560259462007e+00 1 3 1
1092 364 2 4.0999999999999998e-01 -3.0026666647279185e+00 -1.0097229610176516e+01 -1.3173501577616497e+01 0 1 -1
165 55 2 4.0999999999999998e-01 -1.2383901008122624e+00 -6.3747475650232079e+00 -9.5607062712496873e+00 0 -3 1
1582 528 1 -8.1999999999999995e-01 -5.5246610444562965e+00 -7.4611555255424147e+00 -1.2335888827493653e+01 -1 0 1
1731 577 2 4.0999999999999998e-01 -7.1113667882786835e+00 -9.3122981115826970e+00 -9.6550985289664837e+00 1 3 1
1729 577 1 -8.1999999999999995e-01 -7.2297656123045382e+00 -1.0304951746274011e+01 -9.6312580429237542e+00 1 3 1
1752 584 2 4.0999999999999998e-01 -1.0966749627365822e+01 -6.4842143250030340e+00 -8.3349888839072328e+00 0 1 1
866 289 2 4.0999999999999998e-01 -7.5542615617771585e+00 -1.3376353439916793e+01 -1.3087020539595670e+01 1 1 4
748 250 1 -8.1999999999999995e-01 -1.1513991002336379e+00 -8.0548996868969489e+00 -1.0627534081849998e+01 0 1 -1
1271 424 2 4.0999999999999998e-01 -7.5666007309072878e+00 -1.1089120164441827e+01 -1.3453494045088211e+01 -1 1 0
865 289 1 -8.1999999999999995e-01 -7.4737305276194119e+00 -1.4268081001750073e+01 -1.3532312107628268e+01 1 1 4
1090 364 1 -8.1999999999999995e-01 -3.6454942691782382e+00 -9.8563885647813674e+00 -1.2446372864619484e+01 0 1 -1
2280 760 2 4.0999999999999998e-01 -3.4762120139085635e+00 -1.0631166208872594e+01 -1.1104073748251235e+01 -2 1 -1
583 195 1 -8.1999999999999995e-01 -2.7175914956989455e+00 -5.4964621919594805e+00 -1.1572100203565055e+01 0 0 0
2363 788 2 4.0999999999999998e-01 -8.7249681588486627e+00 -6.1158481305954453e+00 -1.0441171879395625e+01 1 2 1
2097 699 2 4.0999999999999998e-01 -9.4585617050096644e+00 -5.6828623890403929e+00 -1.3933627692550502e+01 2 1 4
750 250 2 4.0999999999999998e-01 -8.3335901641884291e-01 -8.0984549466517990e+00 -1.1574582676499272e+01 0 1 -1
2466 822 2 4.0999999999999998e-01 -1.0860075549439689e+01 -1.0202230852510283e+01 -7.7524223804356645e+00 1 0 0
597 199 2 4.0999999999999998e-01 -1.4583051182147576e+01 -1.3073712569161330e+01 -1.2815644410681427e+01 1 1 1
2278 760 1 -8.1999999999999995e-01 -3.3150247897599581e+00 -1.1263037311271887e+01 -1.0345980431953597e+01 -2 1 -1
1119 373 2 4.0999999999999998e-01 -2.8787855109224463e+00 -1.4818520137694360e+01 -8.5735857859692750e+00 -1 1 1
1113 371 2 4.0999999999999998e-01 -1.2918859221416714e+01 -1.3317201637009898e+01 -9.4401836018730627e+00 0 -1 -1
584 195 2 4.0999999999999998e-01 -2.5372703314166820e+00 -6.0999429169528163e+00 -1.2348787408840877e+01 0 0 0
1806 602 2 4.0999999999999998e-01 -2.3990353422247868e+00 -5.1018896923620733e+00 -8.2936055785899860e+00 2 2 -3
1853 618 2 4.0999999999999998e-01 -1.3427988570260094e+00 -8.3959155562730743e+00 -1.3973732182481767e+01 0 -1 2
461 154 2 4.0999999999999998e-01 -5.3323756480557307e+00 -1.4026889315651797e+01 -8.2658879882163614e+00 1 -3 2
1112 371 2 4.0999999999999998e-01 -1.4050421719944776e+01 -1.2963086499247993e+01 -1.0562972824700157e+01 0 -1 -1
2287 763 1 -8.1999999999999995e-01 -3.3103588150962935e+00 -9.3729576709893418e+00 -8.3099936445449476e+00 1 -1 1
460 154 1 -8.1999999999999995e-01 -5.4352104505605272e+00 -1.4808128033027009e+01 -7.6502265827728486e+00 1 -3 2
2298 766 2 4.0999999999999998e-01 -6.0127563555367285e+00 -1.2459868872179875e+01 -1.0058684364789894e+01 2 1 2
1472 491 2 4.0999999999999998e-01 -3.8883178693146672e+00 -8.4659736354650619e+00 -9.6285442224701541e+00 0 2 1
1852 618 1 -8.1999999999999995e-01 -9.2011692392106958e-01 -7.7249331351767765e+00 -1.3364576699161557e+01 0 -1 2
867 289 2 4.0999999999999998e-01 -6.5192924513491786e+00 -1.4565720293483970e+01 -1.3512147282712190e+01 1 1 4
1888 630 1 -8.1999999999999995e-01 -1.3741093160446287e+01 -1.1548186584668382e+01 -7.8715926013768529e+00 -1 0 1
160 54 1 -8.1999999999999995e-01 -4.6838612910958819e+00 -1.2340428606449903e+01 -1.3394530783165557e+01 0 1 0
2023 675 1 -8.1999999999999995e-01 -2.6211387940514328e+00 -1.3774174656509338e+01 -1.2154024498773095e+01 1 -1 1
162 54 2 4.0999999999999998e-01 -3.9145111126707519e+00 -1.2806772046327525e+01 -1.2957985279340782e+01 0 1 0
1584 528 2 4.0999999999999998e-01 -6.3616422331249982e+00 -7.9059631493837097e+00 -1.2654567924832484e+01 -1 0 1
2297 766 2 4.0999999999999998e-01 -4.4480815910469147e+00 -1.2505669055057517e+01 -9.5937304188189625e+00 2 1 2
2296 766 1 -8.1999999999999995e-01 -5.3850985570589955e+00 -1.2735186238902555e+01 -9.3305404588897485e+00 2 1 2
1473 491 2 4.0999999999999998e-01 -4.4644756968260975e+00 -7.7146098720889258e+00 -1.0958950968820625e+01 0 2 1
585 195 2 4.0999999999999998e-01 -3.1733999441115088e+00 -6.0131209331435578e+00 -1.0847358695093893e+01 0 0 0
1471 491 1 -8.1999999999999995e-01 -3.6823346158420218e+00 -7.7953649256464521e+00 -1.0341146912841609e+01 0 2 1
1583 528 2 4.0999999999999998e-01 -5.6212563008211998e+00 -6.4694621930517524e+00 -1.2420514066455910e+01 -1 0 1
749 250 2 4.0999999999999998e-01 -2.1426811694782195e+00 -7.9239862540623536e+00 -1.0614518570357887e+01 0 1 -1
2024 675 2 4.0999999999999998e-01 -1.7574965530012800e+00 -1.3274040462546775e+01 -1.2091288940038725e+01 1 -1 1
86 29 2 4.0999999999999998e-01 -1.7122770782824226e-01 -1.1801547054734028e+01 -1.0798703330821827e+01 -1 0 1
1664 555 2 4.0999999999999998e-01 -9.6537236914887181e-01 -1.1101287715833456e+01 -1.4422544501700635e+01 -1 1 2
2288 763 2 4.0999999999999998e-01 -2.4617446891337202e+00 -8.8682694665946009e+00 -8.1515898013561028e+00 1 -1 1
2289 763 2 4.0999999999999998e-01 -3.3133595291179976e+00 -1.0203229581209241e+01 -7.7526899840099102e+00 1 -1 1
2437 813 1 -8.1999999999999995e-01 -1.4767534081309112e+01 -7.6801098712692646e+00 -9.8683558812844812e+00 2 1 2
623 208 2 4.0999999999999998e-01 -2.5029887621712419e+00 -1.4500413872847309e+01 -1.3773734253941338e+01 -1 1 1
2542 848 1 -8.1999999999999995e-01 -1.6324891089541715e-01 -1.0521777793617932e+01 -9.8360552080755390e+00 1 2 0
1343 448 2 4.0999999999999998e-01 -4.7121441275395881e-01 -1.4530737519051586e+01 -1.0711493558564680e+01 -2 1 0
622 208 1 -8.1999999999999995e-01 -2.4889324709147260e+00 -1.4795725862413365e+01 -1.4729004384323117e+01 -1 1 1
1167 389 2 4.0999999999999998e-01 -1.1521733276271657e+00 -7.1825123919888094e+00 -7.7987319800426889e+00 0 0 1
2550 850 2 4.0999999999999998e-01 -1.1924666563462850e+01 -9.5755858338543156e+00 -4.1883508510974199e+00 0 1 1
2465 822 2 4.0999999999999998e-01 -1.0833273981184615e+01 -1.0641295532286525e+01 -6.1798479222866867e+00 1 0 0
1534 512 1 -8.1999999999999995e-01 -1.4561605261713911e+01 -1.3713223198420698e+01 -5.8262869672037390e+00 1 0 0
2464 822 1 -8.1999999999999995e-01 -1.0488749076450556e+01 -9.9839002400214891e+00 -6.8499835057571818e+00 1 0 0
2321 774 2 4.0999999999999998e-01 -8.9806737451412282e+00 -8.6301293095973897e+00 -3.3058741560008187e+00 1 2 2
2322 774 2 4.0999999999999998e-01 -1.0157010077475483e+01 -8.1856097015128633e+00 -2.2641819371112568e+00 1 2 2
2320 774 1 -8.1999999999999995e-01 -9.9565070857953231e+00 -8.4328752898204282e+00 -3.2121303245381885e+00 1 2 2
2548 850 1 -8.1999999999999995e-01 -1.2486139564149530e+01 -9.1936326912291335e+00 -4.9223859177427070e+00 0 1 1
581 194 2 4.0999999999999998e-01 -1.3915127137671801e+01 -5.7285174007608077e+00 -2.7111142483681032e+00 1 0 -1
580 194 1 -8.1999999999999995e-01 -1.3004364131140811e+01 -5.4893455690569208e+00 -2.3745797283289978e+00 1 0 -1
582 194 2 4.0999999999999998e-01 -1.2312268589127550e+01 -5.9531948576092955e+00 -2.9275674819214039e+00 1 0 -1
1287 429 2 4.0999999999999998e-01 -1.4413178870571805e+01 -1.1682268313117063e+01 -3.3947280358593019e+00 0 1 1
981 327 2 4.0999999999999998e-01 -1.2092283924272417e+01 -1.2135338017245624e+01 -4.5254273236127940e+00 1 1 -1
2056 686 1 -8.1999999999999995e-01 -9.7818264868184848e+00 -1.4667812244473913e+01 -5.0471309450583473e+00 1 1 4
1466 489 2 4.0999999999999998e-01 -1.1229225779109724e+01 -1.0989303893986463e+01 -1.2396816744118304e+00 2 2 2
1227 409 2 4.0999999999999998e-01 -1.0686325980469791e+01 -7.2338053293719593e+00 -4.2066415717023986e+00 0 1 2
1465 489 1 -8.1999999999999995e-01 -1.0242739315491040e+01 -1.1036116102559919e+01 -1.0828349489003717e+00 2 2 2
249 83 2 4.0999999999999998e-01 -9.0267865430511414e+00 -5.8219178140163557e+00 -6.4206317968558420e+00 0 1 1
1349 450 2 4.0999999999999998e-01 -1.4914943713394683e+01 -5.8821049003334434e+00 -6.1441067503044380e+00 3 -2 2
659 220 2 4.0999999999999998e-01 -1.2594802037678523e+01 -6.7967735753201826e+00 -5.9392371710178562e+00 0 0 -2
1467 489 2 4.0999999999999998e-01 -9.8351041927967557e+00 -1.1692524902210721e+01 -1.7175860643754071e+00 2 2 2
1660 554 1 -8.1999999999999995e-01 -7.7423391741008727e+00 -1.1036587731046851e+01 -6.8545466109159943e+00 0 0 0
980 327 2 4.0999999999999998e-01 -1.0924522176309811e+01 -1.3090908408782454e+01 -5.1496910353108856e+00 1 1 -1
1225 409 1 -8.1999999999999995e-01 -1.1126920225035104e+01 -6.3848058449321368e+00 -4.4982311012028671e+00 0 1 2
2179 727 1 -8.1999999999999995e-01 -8.9832600907594156e+00 -1.3183953528576339e+01 -2.1396103235919561e+00 0 0 2
1662 554 2 4.0999999999999998e-01 -8.7038393641148915e+00 -1.0853598130052838e+01 -6.6496574952176317e+00 0 0 0
660 220 2 4.0999999999999998e-01 -1.3133901161488222e+01 -6.2278081293094445e+00 -7.3717651801284232e+00 0 0 -2
1226 409 2 4.0999999999999998e-01 -1.0461018162443779e+01 -5.8099565600962570e+00 -4.9736998960255931e+00 0 1 2
2180 727 2 4.0999999999999998e-01 -8.6369808265318486e+00 -1.3161583335521726e+01 -1.2017733643127659e+00 0 0 2
979 327 1 -8.1999999999999995e-01 -1.1349526322327531e+01 -1.2186781035239878e+01 -5.1929695378468868e+00 1 1 -1
1285 429 1 -8.1999999999999995e-01 -1.3483662903875022e+01 -1.1630698218164753e+01 -3.7598148750690772e+00 0 1 1
143 48 2 4.0999999999999998e-01 -9.0665464727418090e+00 -9.8249630670977890e+00 -5.0368889514288107e-01 0 -1 1
2181 727 2 4.0999999999999998e-01 -9.3464236889713224e+00 -1.4094021957318537e+01 -2.3391987753372554e+00 0 0 2
2549 850 2 4.0999999999999998e-01 -1.1914457003578384e+01 -8.6344751949895908e+00 -5.5227772887546003e+00 0 1 1
2570 857 2 4.0999999999999998e-01 -1.1537395673098532e+01 -6.4881169735859050e+00 -1.3777596630436069e+00 1 0 2
1634 545 2 4.0999999999999998e-01 -5.1147183231107434e+00 -1.1939249565295171e+01 -7.3706078583854255e+00 1 -1 1
965 322 2 4.0999999999999998e-01 -1.3521230169792513e+01 -8.2499108308983047e+00 -3.0934262502985508e+00 1 0 1
658 220 1 -8.1999999999999995e-01 -1.3391955656674652e+01 -6.7147917341601300e+00 -6.5373776725750457e+00 0 0 -2
1829 610 2 4.0999999999999998e-01 -9.7692377830000616e+00 -8.1433522031288721e+00 -7.3950159523135266e+00 1 1 2
1286 429 2 4.0999999999999998e-01 -1.3431917763715321e+01 -1.0897081154283427e+01 -4.4373665477546052e+00 0 1 1
256 86 1 -8.1999999999999995e-01 -1.3630063194685880e+01 -1.1274858189613584e+01 -6.3485093763920730e-01 2 2 0
1661 554 2 4.0999999999999998e-01 -7.1814621161360526e+00 -1.0798789593923196e+01 -6.0615669244878010e+00 0 0 0
1439 480 2 4.0999999999999998e-01 -1.4509155648382421e+00 -1.2581007164128334e+01 -6.6102863493400505e+00 0 0 4
880 294 1 -8.1999999999999995e-01 -8.1415136299237467e-01 -1.4156712751518327e+01 -6.8420184155065247e+00 0 -3 0
257 86 2 4.0999999999999998e-01 -1.3662187311210847e+01 -1.0843493561129684e+01 -1.5364274794076955e+00 2 2 0
407 136 2 4.0999999999999998e-01 -3.2758050592750187e+00 -1.4341884215669133e+01 -2.3055451263219719e+00 0 2 2
2102 701 2 4.0999999999999998e-01 -7.8217865107021609e+00 -1.3994814523497780e+01 -5.1784277407318129e+00 0 1 0
443 148 2 4.0999999999999998e-01 -5.2613733199299055e+00 -1.3609891744216828e+01 -4.2109440109384604e+00 0 1 1
1166 389 2 4.0999999999999998e-01 -2.0414375215756824e+00 -7.4763260972019125e+00 -6.4610585975180825e+00 0 0 1
2140 714 1 -8.1999999999999995e-01 -6.9792391923486097e+00 -6.6705220886431817e+00 -6.9233869741572640e-01 1 0 1
1962 654 2 4.0999999999999998e-01 -7.2270387944257175e+00 -7.8453208130121910e+00 -2.7020870251532862e+00 2 0 0
1960 654 1 -8.1999999999999995e-01 -7.3443019664192448e+00 -8.5617403542981982e+00 -3.3897934220683936e+00 2 0 0
2142 714 2 4.0999999999999998e-01 -7.6807014978514383e+00 -7.3121090326475455e+00 -3.8207317673865049e-01 1 0 1
2141 714 2 4.0999999999999998e-01 -6.0906365042089181e+00 -6.9448225963796322e+00 -3.2478957198065928e-01 1 0 1
1438 480 1 -8.1999999999999995e-01 -1.8296098326121619e+00 -1.1656075640780349e+01 -6.5780335443961526e+00 0 0 4
1243 415 1 -8.1999999999999995e-01 -3.6766132931869926e+00 -6.0987116022104804e+00 -5.4416048997647817e+00 0 2 1
2270 757 2 4.0999999999999998e-01 -5.2071071555721140e+00 -9.8901967081362621e+00 -5.8509064618053017e+00 -1 1 1
2103 701 2 4.0999999999999998e-01 -7.0634240050239123e+00 -1.2584182495144377e+01 -4.8598521229806000e+00 0 1 0
1244 415 2 4.0999999999999998e-01 -4.4323958596499597e+00 -5.6911418704342900e+00 -4.9291330113456606e+00 0 2 1
2132 711 2 4.0999999999999998e-01 -5.1234056991481953e+00 -9.5507447873473801e+00 -2.9989709204396995e+00 1 1 2
2569 857 1 -8.1999999999999995e-01 -1.0966312013474244e+01 -7.0365939080260569e+00 -7.6703520026188343e-01 1 0 2
1890 630 2 4.0999999999999998e-01 -1.3486732241958688e+01 -1.2292882649571672e+01 -7.2546031097392953e+00 -1 0 1
1715 572 2 4.0999999999999998e-01 -1.3785472973058077e+00 -9.3430891698085325e+00 -1.4455456628129610e+00 0 -1 1
1389 463 2 4.0999999999999998e-01 -6.6081322089105576e-01 -5.9695306707365727e+00 -4.0037899417950502e+00 0 0 0
2291 764 2 4.0999999999999998e-01 -2.5479498634665845e+00 -7.0441943880845370e+00 -1.7558480828324878e+00 0 0 2
2571 857 2 4.0999999999999998e-01 -1.0254764813039600e+01 -6.4585977728546915e+00 -3.6757442123524697e-01 1 0 2
2292 764 2 4.0999999999999998e-01 -3.2237628148528703e+00 -8.5172808724757676e+00 -1.9552986359839419e+00 0 0 2
964 322 1 -8.1999999999999995e-01 -1.3747082754625756e+01 -8.8834676412326665e+00 -2.3534639383462110e+00 1 0 1
1716 572 2 4.0999999999999998e-01 -8.5906327954756989e-01 -1.0667721533241377e+01 -2.2467778088271668e+00 0 -1 1
442 148 1 -8.1999999999999995e-01 -4.2785587950747246e+00 -1.3764559146384896e+01 -4.1104397110460891e+00 0 1 1
1241 414 2 4.0999999999999998e-01 -2.1236591935641336e-01 -8.1806880697875961e+00 -3.0536907471483161e+00 2 0 1
1714 572 1 -8.1999999999999995e-01 -7.3422184709020755e-01 -1.0107601897494721e+01 -1.4278588008109505e+00 0 -1 1
1635 545 2 4.0999999999999998e-01 -3.6814852146037378e+00 -1.1575567992482974e+01 -6.6777401018280820e+00 1 -1 1
1162 388 1 -8.1999999999999995e-01 -2.8679510855100077e+00 -5.5232101778138745e+00 -2.0523343782762087e+00 -1 1 1
33 11 2 4.0999999999999998e-01 -2.9369131434308446e+00 -1.2418771679503923e+01 -8.0898099834447734e-01 2 0 2
2516 839 2 4.0999999999999998e-01 -5.3830377456630281e+00 -9.4977422375586222e+00 -3.5273527220088496e-01 1 1 0
2310 770 2 4.0999999999999998e-01 -9.4705418429776351e+00 -1.3573300109746381e+01 -7.1862109038202480e+00 1 2 0
180 60 2 4.0999999999999998e-01 -7.7246925050298110e+00 -1.0322728970778270e+01 -3.6651663854623848e+00 1 3 -1
1633 545 1 -8.1999999999999995e-01 -4.6734358357358712e+00 -1.1573155174899634e+01 -6.5513444612584788e+00 1 -1 1
1164 388 2 4.0999999999999998e-01 -2.4284698846716992e+00 -5.1814766227933262e+00 -2.8830102182492787e+00 -1 1 1
178 60 1 -8.1999999999999995e-01 -7.8243451859832760e+00 -1.1247394485327124e+01 -4.0326046258235699e+00 1 3 -1
2269 757 1 -8.1999999999999995e-01 -5.2672786475761377e+00 -9.0524202928353787e+00 -5.3082668446071501e+00 -1 1 1
2133 711 2 4.0999999999999998e-01 -4.2907848795097880e+00 -1.0730738955968990e+01 -2.2368399743436775e+00 1 1 2
444 148 2 4.0999999999999998e-01 -3.7800674685085802e+00 -1.2957533888238906e+01 -4.4269270392043243e+00 0 1 1
1165 389 1 -8.1999999999999995e-01 -1.4467425116040751e+00 -7.8864620788513706e+00 -7.1524876767645438e+00 0 0 1
1542 514 2 4.0999999999999998e-01 -1.1650918090989997e+00 -1.2192902532032457e+01 -4.3186273913876985e+00 2 1 1
1540 514 1 -8.1999999999999995e-01 -1.0673400308982846e+00 -1.2073719246186513e+01 -3.3306052125279084e+00 2 1 1
1440 480 2 4.0999999999999998e-01 -1.1203664832839610e+00 -1.0996655263269615e+01 -6.8272050724688125e+00 0 0 4
31 11 1 -8.1999999999999995e-01 -3.2298560209257623e+00 -1.2082974867009847e+01 -1.7041752562130128e+00 2 0 2
179 60 2 4.0999999999999998e-01 -8.2556914073249210e+00 -1.1833791615418377e+01 -3.3470196907036236e+00 1 3 -1
2290 764 1 -8.1999999999999995e-01 -2.4033586664430064e+00 -8.0288247084714079e+00 -1.6581530433308931e+00 0 0 2
32 11 2 4.0999999999999998e-01 -2.5046867124094998e+00 -1.2243049783365588e+01 -2.3738417867705195e+00 2 0 2
2131 711 1 -8.1999999999999995e-01 -4.8305973223106804e+00 -9.8988352009944638e+00 -2.1084406316359363e+00 1 1 2
966 322 2 4.0999999999999998e-01 -1.4448882915331195e+01 -8.4765170065512798e+00 -1.7688140249553062e+00 1 0 1
1541 514 2 4.0999999999999998e-01 -1.5402912033446015e-01 -1.2367112323297960e+01 -3.0482373990880625e+00 2 1 1
2271 757 2 4.0999999999999998e-01 -4.6462494288966649e+00 -8.3655238551351729e+00 -5.6856841476311164e+00 -1 1 1
1961 654 2 4.0999999999999998e-01 -6.7376550253209384e+00 -8.3827719221414512e+00 -4.1643240470188214e+00 2 0 0
1805 602 2 4.0999999999999998e-01 -3.7231051256086811e+00 -5.5484734611431463e+00 -7.4486856640393349e+00 2 2 -3
2101 701 1 -8.1999999999999995e-01 -6.9391844134634884e+00 -1.3569255858406075e+01 -4.9787752184704495e+00 0 1 0
1387 463 1 -8.1999999999999995e-01 -1.0636728214575815e+00 -5.1464067438592149e+00 -4.4039385755860962e+00 0 0 0
1245 415 2 4.0999999999999998e-01 -2.8081603297805557e+00 -5.7540646216133453e+00 -5.0852963829489983e+00 0 2 1
2309 770 2 4.0999999999999998e-01 -8.1984357717403196e+00 -1.2589732323912552e+01 -7.4705137194603504e+00 1 2 0
462 154 2 4.0999999999999998e-01 -5.5497199836469306e+00 -1.4480600434713654e+01 -6.7123774045680520e+00 1 -3 2
1536 512 2 4.0999999999999998e-01 -1.3942287398205243e+01 -1.3293412460527211e+01 -5.1628473853450210e+00 1 0 0
362 121 2 4.0999999999999998e-01 -1.4501381747552420e+01 -1.2677559409478569e+01 -1.9960312151942894e-01 -1 1 -1
1889 630 2 4.0999999999999998e-01 -1.4167576063494925e+01 -1.0811520236613434e+01 -7.3468232167051024e+00 -1 0 1
408 136 2 4.0999999999999998e-01 -2.4071823853867809e+00 -1.4954154961943349e+01 -1.0657441659407461e+00 0 2 2
2395 799 1 -8.1999999999999995e-01 -9.1566308305988571e+00 -9.6160921248457036e+00 2.6382470413108550e+00 1 1 0
2396 799 2 4.0999999999999998e-01 -1.0073096269367072e+01 -1.0010407629381456e+01 2.7057308548525683e+00 1 1 0
2397 799 2 4.0999999999999998e-01 -9.2064166224005817e+00 -8.6290510064968053e+00 2.7906244885909892e+00 1 1 0
1250 417 2 4.0999999999999998e-01 -9.2882412040818281e+00 -1.0166515092469371e+01 6.7892527093134980e+00 1 -1 1
2496 832 2 4.0999999999999998e-01 -1.4315175665531276e+01 -1.0948994033380327e+01 7.4393676400160267e+00 1 0 0
1451 484 2 4.0999999999999998e-01 -1.0856498617757007e+01 -7.2149264308233541e+00 2.9200043739525263e+00 4 0 0
1450 484 1 -8.1999999999999995e-01 -9.8782311831868235e+00 -7.0085435019023299e+00 2.9386249501414383e+00 4 0 0
1251 417 2 4.0999999999999998e-01 -9.1433525293715441e+00 -8.7603445481581286e+00 5.9718304435758824e+00 1 -1 1
2513 838 2 4.0999999999999998e-01 -1.0244711630369483e+01 -1.3317083994133416e+01 4.9923829433741815e+00 1 0 0
2517 839 2 4.0999999999999998e-01 -6.8508154395028118e+00 -9.3831210757749410e+00 3.5364857756617596e-01 1 1 0
2422 808 1 -8.1999999999999995e-01 -7.3375554095881377e+00 -1.1725609064932076e+01 4.2677053867142689e+00 3 -1 1
144 48 2 4.0999999999999998e-01 -8.8341698332212673e+00 -9.1208195674191188e+00 9.5118928357559263e-01 0 -1 1
1728 576 2 4.0999999999999998e-01 -2.8427044270744872e-01 -5.7317921428181595e+00 5.0119489133027066e+00 -1 0 1
894 298 2 4.0999999999999998e-01 -1.2652757291649017e+01 -1.1362741870773698e+01 2.5707846844163598e+00 -1 -2 -2
1692 564 2 4.0999999999999998e-01 -5.0556111321576047e+00 -1.4311904611618774e+01 2.9208902704598998e+00 2 3 2
543 181 2 4.0999999999999998e-01 -1.1828197081605515e+01 -1.4826907542208595e+01 3.6597541503699986e+00 0 0 1
892 298 1 -8.1999999999999995e-01 -1.1788361139114137e+01 -1.0870411642242262e+01 2.4689115545374598e+00 -1 -2 -2
1336 446 1 -8.1999999999999995e-01 -1.4108604466238070e+01 -1.2179524457163978e+01 2.7139135633417659e+00 0 1 -1
2423 808 2 4.0999999999999998e-01 -6.8039836783140988e+00 -1.1348784368844356e+01 3.5105711529087067e+00 3 -1 1
893 298 2 4.0999999999999998e-01 -1.1086738346864177e+01 -1.1495899209857409e+01 2.1276804797674949e+00 -1 -2 -2
346 116 1 -8.1999999999999995e-01 -1.2849481419728310e+01 -8.8657084397223631e+00 7.5387288934747509e-01 1 -1 0
347 116 2 4.0999999999999998e-01 -1.2290979692643319e+01 -8.1432431466902244e+00 3.4635910434805517e-01 1 -1 0
348 116 2 4.0999999999999998e-01 -1.2390325054918838e+01 -9.2233156041406943e+00 1.5670397846575312e+00 1 -1 0
2508 836 2 4.0999999999999998e-01 -9.7702291160071404e+00 -1.3478755041805046e+01 2.6171037928813803e+00 0 3 1
1149 383 2 4.0999999999999998e-01 -1.0582612295978322e+01 -5.2867090670165293e+00 6.4144122368972987e+00 -1 0 1
2424 808 2 4.0999999999999998e-01 -8.2790420531426108e+00 -1.1393679370953121e+01 4.2096239278509842e+00 3 -1 1
1452 484 2 4.0999999999999998e-01 -9.6542097328820233e+00 -6.5321878265363686e+00 3.7888293713418228e+00 4 0 0
215 72 2 4.0999999999999998e-01 -1.1641073274046688e+01 -1.4375655504160765e+01 2.4254263500102446e-01 -1 0 -1
214 72 1 -8.1999999999999995e-01 -1.2464167434423770e+01 -1.4933287827241767e+01 3.4982771805397839e-01 -1 0 -1
813 271 2 4.0999999999999998e-01 -6.3072653083165804e+00 -1.1097356077643228e+01 5.8334851904025342e+00 1 3 1
1267 423 1 -8.1999999999999995e-01 -1.4416307310969765e+01 -8.1824207740244574e+00 5.3937170435330728e+00 2 1 1
1268 423 2 4.0999999999999998e-01 -1.3554453462069695e+01 -8.5761879271787720e+00 5.0741810913856860e+00 2 1 1
1789 597 1 -8.1999999999999995e-01 -2.0350687683866848e+00 -1.4502283147482835e+01 6.2166455250657116e-01 1 -1 1
1736 579 2 4.0999999999999998e-01 -9.8429400256043031e+00 -5.5353883631856373e+00 1.9676799383568913e+00 -1 -1 1
15 5 2 4.0999999999999998e-01 -1.1759996821682787e+01 -9.8638754412353578e+00 4.0300681065905408e+00 -1 1 1
14 5 2 4.0999999999999998e-01 -1.1270271620466678e+01 -9.0046015173276128e+00 5.3294160603381471e+00 -1 1 1
1594 532 1 -8.1999999999999995e-01 -7.7185449705937579e+00 -1.3985426403363292e+01 1.8373245534661997e-01 0 2 0
20 7 2 4.0999999999999998e-01 -1.2602625377601040e+01 -1.2667751004452038e+01 6.6040083560498140e+00 -1 1 0
21 7 2 4.0999999999999998e-01 -1.4155630286607327e+01 -1.3087667825320290e+01 6.8838883926182710e+00 -1 1 0
1595 532 2 4.0999999999999998e-01 -6.8738704055652864e+00 -1.3451086589174075e+01 2.1461228493528850e-01 0 2 0
1513 505 1 -8.1999999999999995e-01 -9.9234693398051270e+00 -1.2474696979641775e+01 1.1781784975883518e+00 0 0 -1
1249 417 1 -8.1999999999999995e-01 -9.7891753303781357e+00 -9.3970548238805520e+00 6.3930914448712990e+00 1 -1 1
493 165 1 -8.1999999999999995e-01 -1.2528850661382952e+01 -6.1765589454414851e+00 3.8374662830897464e+00 -1 -1 1
665 222 2 4.0999999999999998e-01 -8.6392383448123624e+00 -6.7487844386359299e+00 5.7598804586882757e+00 3 2 0
494 165 2 4.0999999999999998e-01 -1.3115427909726312e+01 -5.4304714918519270e+00 4.1524717505731168e+00 -1 -1 1