2593
Atoms. Timestep: 1000000
O 9.14388 2.138 1.77529
H 9.1226 3.0566 1.38065
H 8.5638 2.11147 2.58943
O 5.07233 6.61499 -10.1735
H 5.98546 6.35205 -10.485
H 4.5012 5.79853 -10.0885
O 5.99068 -11.2186 -4.68223
H 6.37657 -10.4468 -5.18771
H 6.60154 -12.0066 -4.75953
O -10.6223 -0.0320221 -6.94634
H -11.0572 -0.128045 -7.84167
H -9.64764 0.156019 -7.06771
O -10.7251 -11.5331 7.4716
H -9.93337 -12.0405 7.13146
H -11.5604 -12.0448 7.27049
O -10.6551 -3.05201 -6.12977
H -10.5885 -2.76355 -5.17459
H -10.6668 -2.24585 -6.72137
O -12.6536 -13.4443 6.8419
H -12.3252 -14.3654 7.05079
H -13.5967 -13.4933 6.51297
O 10.339 -7.80509 -2.25069
H 10.2696 -7.77472 -1.25356
H 9.64851 -8.43063 -2.61397
O 8.82637 4.89323 -3.73452
H 9.75372 4.52568 -3.80479
H 8.16613 4.14382 -3.78443
O -7.10682 6.50185 -6.7753
H -6.11432 6.38656 -6.73444
H -7.3229 7.44963 -7.00991
O -3.64174 -13.0533 2.0022
H -2.67537 -12.8027 1.9444
H -3.73085 -13.9311 2.47291
O 13.3938 2.15584 -1.56978
H 13.9471 1.56223 -0.985406
H 13.8154 3.06124 -1.61967
O 0.253547 14.6638 -13.6988
H 0.903409 -14.5797 -14.1416
H 0.128235 13.8496 -14.2657
O 13.1122 -8.07132 5.57492
H 13.684 -8.88142 5.70466
H 13.4971 -7.30567 6.09035
O -11.3742 3.21849 -4.03775
H -10.5874 3.35565 -4.63949
H -11.9833 2.53295 -4.43656
O 2.57419 -14.0653 2.10698
H 3.42631 -13.6085 1.85149
H 2.03896 -14.2567 1.28423
O -12.0039 -1.77094 4.11561
H -12.7752 -1.95177 3.50538
H -12.3288 -1.29023 4.93007
O 2.03321 -7.04501 -0.900806
H 2.01821 -8.03457 -0.757418
H 1.21423 -6.76864 -1.40371
O 12.3427 8.33931 1.72613
H 12.2473 9.33283 1.78808
H 13.0747 8.11425 1.08307
O -9.36885 12.0091 6.50132
H -9.902 11.3504 7.03226
H -9.16228 11.6232 5.60219
O -0.832405 12.6302 -9.20931
H -1.40806 11.8398 -9.41882
H -0.419065 12.5116 -8.30648
O -13.2513 -9.21495 -10.7121
H -13.1999 -8.22336 -10.5932
H -12.4934 -9.52133 -11.288
O 14.1312 5.25552 3.88279
H 14.2284 4.9995 4.84458
H -14.8254 5.41455 3.48719
O 5.77641 13.5271 12.9204
H 6.69065 13.4207 12.5294
H 5.10715 13.0746 12.331
O 10.3121 -12.0041 13.8542
H 9.71148 -11.3191 13.4418
H 10.9098 -12.3897 13.1513
O -1.95639 6.47086 2.37265
H -1.28356 5.77349 2.61962
H -2.4282 6.78534 3.19638
O -10.4097 6.36902 14.6689
H -10.3743 5.97407 13.7509
H -10.1202 5.68427 -14.5234
O 1.12387 -1.70993 10.5837
H 1.74991 -1.44765 11.318
H 1.30247 -1.14718 9.77655
O -2.42508 -13.4788 -10.4453
H -2.55588 -12.6437 -9.91095
H -1.49478 -13.8194 -10.3091
O 8.24618 -1.31242 -5.67381
H 7.57746 -1.00998 -4.99457
H 8.20827 -2.30812 -5.7585
O 14.6892 -10.2219 1.89368
H -14.8093 -10.8942 1.24828
H 14.5105 -9.36252 1.41458
O 9.83815 1.65024 10.2852
H 8.97048 1.15769 10.3526
H 9.85881 2.17393 9.43352
O -0.597806 -9.46855 -14.7478
H 0.179901 -9.43559 14.4856
H -1.18241 -10.2454 14.8793
O 12.6908 -10.1491 -8.99503
H 13.5674 -9.75393 -8.72054
H 12.6871 -10.2976 -9.98394
O 8.92116 7.94796 0.119796
H 8.99119 7.1965 -0.536271
H 9.83011 8.16597 0.475161
O 7.23863 12.3957 -12.1664
H 6.38534 12.6729 -12.608
H 7.15294 12.5069 -11.1763
O 3.71505 -9.58347 7.35638
H 4.12378 -10.1527 6.64294
H 3.06867 -8.94272 6.94208
O 10.0644 13.2535 -3.38066
H 10.7541 12.5318 -3.44108
H 10.1876 13.8964 -4.13661
O 6.04511 5.90415 -3.39324
H 6.67244 5.6547 -4.13097
H 6.5313 6.4537 -2.71381
O -9.5942 -9.38376 12.4523
H -10.1861 -8.62901 12.7353
H -9.82727 -9.6584 11.5194
O -5.192 1.44682 -13.9789
H -5.52184 2.21631 -13.432
H -5.00418 0.668414 -13.3799
O 12.6301 -2.42238 2.51998
H 13.4198 -2.68859 3.07267
H 12.3368 -3.19869 1.96197
O -2.61912 1.19344 14.2591
H -2.6837 1.60274 13.349
H -3.49626 1.28778 14.73
O -9.66518 7.52192 10.885
H -9.70278 8.14365 11.6673
H -9.67602 8.05204 10.0371
O 10.6904 -1.58041 4.23605
H 10.3705 -2.42037 4.67444
H 11.2972 -1.81156 3.47556
O 2.83714 -14.0222 -7.30168
H 3.39519 -14.814 -7.05322
H 1.91802 -14.1301 -6.92274
O 10.3638 3.48132 -12.1797
H 10.6474 4.09784 -12.9142
H 9.55714 2.96636 -12.4696
O -8.82169 -7.80479 1.6093
H -8.42109 -8.72058 1.5799
H -9.47953 -7.70463 0.862825
O -4.12595 2.39645 2.95764
H -3.69854 2.9506 3.67196
H -3.86308 2.74961 2.05976
O 14.028 -2.44969 5.29436
H 13.9769 -3.42326 5.07174
H 13.2094 -2.18039 5.80175
O -12.6185 12.0866 -8.68701
H -12.5357 12.3831 -7.73556
H -12.2075 12.773 -9.287
O 14.1248 9.8088 -6.11995
H 13.7595 9.26629 -6.87643
H 14.5528 9.20159 -5.45058
O -9.15711 0.543733 5.8428
H -8.79813 1.15859 6.54501
H -8.8441 0.846847 4.94271
O -6.25489 -11.5278 13.011
H -6.57538 -12.475 13.0011
H -5.28024 -11.5034 12.7886
O -1.62883 -12.0185 -1.98797
H -0.95293 -11.3672 -1.64309
H -1.26301 -12.9466 -1.9186
O 13.4589 -5.80476 7.25526
H 13.5848 -5.33838 6.37966
H 14.3252 -5.81542 7.75478
O -1.39626 14.8804 11.071
H -0.604103 -14.8408 11.6651
H -2.23551 -14.8814 11.6057
O -8.57562 -0.230213 9.28419
H -8.9683 0.648598 9.01308
H -7.62356 -0.098842 9.56048
O -7.67066 -1.60266 6.5444
H -8.33841 -0.958279 6.17172
H -6.94721 -1.09786 7.01536
O -4.37275 -13.9768 -3.34179
H -4.43585 -13.038 -3.00318
H -3.8361 -13.9915 -4.18548
O -7.88163 -5.3308 -9.95636
H -8.73766 -5.04983 -9.52244
H -7.35228 -5.88988 -9.31821
O 2.71606 2.9985 -8.39363
H 3.36586 2.443 -7.8748
H 2.1357 2.40191 -8.94797
O 9.27592 -3.34072 -11.2634
H 8.27612 -3.35432 -11.2487
H 9.62575 -3.564 -10.3536
O 0.770321 10.2945 5.83337
H 0.383024 9.77185 6.5929
H 1.2654 11.086 6.19164
O 14.7695 -1.54352 -13.3348
H -14.7325 -2.21367 -13.9843
H 13.8033 -1.73305 -13.1603
O 5.2113 -0.929156 -8.58902
H 5.58768 -1.83647 -8.40154
H 5.91859 -0.353035 -8.9987
O 2.3196 7.41071 -14.9248
H 2.52559 8.38224 -14.8076
H 1.38756 7.30711 14.5891
O -8.24673 -13.0186 7.69352
H -8.22459 -13.9903 7.45844
H -7.46582 -12.5562 7.27356
O 14.8436 -6.43538 -13.8367
H -14.0339 -6.55396 -13.7016
H 14.4289 -7.31774 -14.0592
O 5.98003 -2.55739 -13.1848
H 6.27742 -2.9479 -12.3136
H 4.98249 -2.48802 -13.1958
O 2.97885 -9.24304 11.3447
H 3.84397 -9.33133 10.851
H 2.28866 -9.82491 10.9145
O -10.2631 13.9632 -1.88003
H -9.36184 14.3812 -1.99391
H -10.8705 14.6036 -1.40987
O 9.23995 -5.31393 0.171819
H 8.6228 -5.99193 -0.227501
H 9.00406 -4.40504 -0.172115
O 10.5569 3.22354 7.95513
H 9.97022 4.02297 8.08452
H 11.4253 3.36705 8.42979
O 2.59211 -4.34043 13.9292
H 2.98431 -5.00058 14.5698
H 2.59137 -3.43144 14.346
O -8.0593 7.97175 -14.7665
H -8.66425 7.17549 -14.7609
H -7.11096 7.66918 -14.862
O -2.83718 8.63981 11.9697
H -2.70128 9.53045 11.5358
H -3.47559 8.73512 12.7335
O -3.42855 2.30947 -6.45452
H -4.42545 2.37939 -6.49075
H -3.16776 1.36557 -6.25186
O 9.24934 11.5908 13.8672
H 10.0134 10.9889 13.6348
H 9.40173 11.9887 14.7719
O -5.40167 -2.40678 14.4292
H -5.25168 -3.34438 14.1155
H -4.57287 -2.06763 14.8743
O 6.89832 13.5198 -6.58432
H 7.51695 12.7348 -6.61792
H 7.38303 14.3395 -6.8896
O 12.6531 10.3893 -2.67867
H 12.9755 11.1423 -3.25232
H 12.4111 10.7396 -1.77382
O -13.3554 -6.42872 -7.54075
H -13.7847 -7.32718 -7.44888
H -13.2104 -6.22602 -8.50921
O 11.5154 -4.3149 -2.94459
H 12.3625 -3.78643 -3.00089
H 11.6742 -5.14285 -2.40672
O 3.11133 9.13446 4.80763
H 3.52486 9.748 4.1349
H 2.22908 9.50471 5.09844
O -11.1558 -8.58894 0.372517
H -11.9391 -8.22446 -0.131079
H -11.4693 -8.98465 1.23571
O -5.55497 6.92427 -3.02131
H -4.947 7.30312 -3.71907
H -5.82058 7.64664 -2.38283
O -13.1162 6.97184 -7.10153
H -12.4238 6.2808 -7.30914
H -12.7374 7.64177 -6.46295
O -10.4353 -1.4251 -0.546248
H -9.97592 -2.3108 -0.613242
H -10.4417 -1.12418 0.407389
O 11.4028 -4.64961 -5.68483
H 12.0655 -5.3308 -5.99595
H 11.3805 -4.63854 -4.68513
O 12.2803 -1.90878 -12.6606
H 11.4031 -1.42892 -12.6778
H 12.1388 -2.85133 -12.358
O -7.54952 -8.37699 -3.97495
H -8.27175 -7.74861 -4.26401
H -7.07504 -7.99686 -3.18098
O 2.84401 -0.556659 4.27686
H 3.03866 -1.46163 4.65521
H 2.86353 0.122593 5.01051
O -1.89172 -9.82883 11.0238
H -1.45727 -10.4683 11.658
H -1.20638 -9.47121 10.3894
O 9.50757 -13.1114 0.768389
H 9.66348 -12.3301 1.37272
H 9.12677 -13.8705 1.29645
O -6.0108 6.19371 13.2672
H -6.25198 6.30012 12.3025
H -6.81962 5.91309 13.784
O 11.138 13.7101 13.0283
H 10.8005 12.8068 12.7633
H 10.3676 14.288 13.2975
O 11.1252 -1.58383 10.7486
H 11.8547 -1.23167 11.3349
H 11.3684 -2.49905 10.4273
O 8.38443 -9.13898 -13.7615
H 8.71169 -8.89743 -14.6751
H 8.07703 -8.31331 -13.2885
O 3.54665 -1.95509 1.35496
H 3.61777 -2.63115 2.08838
H 3.99906 -1.10892 1.63662
O -9.96891 2.61092 1.73173
H -9.94944 2.96716 0.797524
H -10.5906 1.82896 1.77738
O -0.0228599 14.6957 -10.8651
H -0.0145725 14.5048 -11.8467
H -0.284304 13.8689 -10.3669
O 13.1184 -0.907302 12.607
H 14.0731 -1.17922 12.4854
H 13.0631 -0.183252 13.2945
O 9.21346 -0.981807 8.25427
H 9.5281 -1.04079 9.20166
H 8.81397 -1.85677 7.98064
O 7.72921 -13.4736 -4.88158
H 7.44068 -14.3062 -4.40869
H 8.25233 -13.7182 -5.69797
O -8.30417 3.56401 -9.67939
H -8.92165 4.34396 -9.78147
H -8.81606 2.71459 -9.80774
O 1.52508 -14.7022 -0.32926
H 2.30124 -14.3881 -0.875991
H 1.11721 14.3544 -0.760913
O 9.98059 1.31225 -2.94481
H 10.5663 2.06186 -3.25321
H 10.3155 0.44979 -3.32428
O 3.40993 10.3555 7.62084
H 3.54257 9.83902 6.77483
H 4.21507 10.9224 7.79495
O 3.15226 14.7986 7.32769
H 3.03493 14.3699 8.22348
H 3.42866 -14.1091 7.44813
O 4.80668 -14.0037 13.8452
H 5.32313 -13.1934 13.5683
H 5.26984 -14.8245 13.5109
O 2.13838 -3.60139 4.68245
H 2.98311 -3.87117 4.22021
H 1.44979 -3.35402 4.00078
O 13.8026 -1.13889 -1.4884
H 14.4657 -1.0097 -0.751136
H 13.1258 -0.403192 -1.46069
O 6.14795 -3.55055 -7.90989
H 5.42676 -4.2433 -7.91129
H 6.8389 -3.7901 -7.22782
O -0.052998 7.07424 -4.00104
H 0.595471 6.32947 -4.15862
H 0.427699 7.94995 -4.04651
O -12.0016 -5.51715 2.13226
H -11.5111 -5.3212 1.28308
H -11.3637 -5.88681 2.80789
O -9.12264 -1.28794 -8.82504
H -8.85355 -1.81443 -8.01856
H -9.8608 -1.76414 -9.30292
O -14.8892 6.354 11.8697
H 14.8283 6.86589 11.0228
H -13.9494 6.01363 11.8981
O 2.83515 -6.57671 -14.4523
H 2.31046 -6.85131 -13.6466
H 2.52305 -7.09774 14.6144
O 9.67717 6.68314 -13.6376
H 9.83599 7.65849 -13.4843
H 10.5535 6.21901 -13.7668
O -11.1739 -12.1745 0.966084
H -10.9999 -11.5246 1.70595
H -10.4977 -12.0432 0.24119
O 4.8539 -13.6212 5.15532
H 5.17157 -14.2774 4.47088
H 4.44721 -14.1131 5.92517
O 4.39911 -4.26097 3.26559
H 4.12505 -5.06139 2.73246
H 5.25851 -4.45412 3.73902
O 12.4578 6.29031 12.8596
H 13.2476 6.87076 12.6611
H 12.6064 5.38097 12.471
O 0.750899 8.20832 1.26561
H -0.164668 8.61045 1.25895
H 0.972095 7.89837 2.19029
O -6.33472 14.8033 -9.41381
H -6.88613 13.9837 -9.56954
H -6.55034 -14.3737 -10.1106
O 2.43004 2.72285 0.551639
H 2.81146 2.45595 -0.3334
H 3.13463 3.18065 1.09385
O 9.02699 4.87901 11.812
H 8.48334 5.2642 11.0663
H 8.90425 5.43368 12.635
O 4.61404 -11.9874 2.02199
H 5.44724 -12.1296 1.48759
H 4.84645 -11.5542 2.89282
O -11.9278 2.26601 -7.69204
H -12.821 2.02634 -8.07232
H -11.7211 1.6635 -6.92112
O -5.05897 -14.8253 11.1947
H -4.61698 -14.7791 10.2989
H -6.03972 14.8816 11.0749
O -1.66307 9.86074 -9.62724
H -2.62453 9.63237 -9.47411
H -1.08349 9.20037 -9.14972
O 5.20483 -12.7151 -8.02625
H 4.36658 -12.8021 -7.48793
H 5.15407 -13.3187 -8.82195
O 5.73981 7.38988 -13.0199
H 5.74608 6.51634 -13.5067
H 5.78659 7.22302 -12.0351
O 8.9582 1.04955 6.61251
H 9.65469 1.74555 6.78716
H 9.16187 0.231749 7.15078
O -1.77004 12.5855 0.85814
H -2.43001 13.1716 0.388087
H -1.32889 13.1021 1.59199
O 6.74512 -3.90194 4.85862
H 6.91011 -3.5327 3.94404
H 7.60503 -3.92594 5.36851
O -3.00468 4.66014 -12.6894
H -2.4171 3.93432 -13.0471
H -3.06407 4.58088 -11.6943
O -13.9866 -10.949 13.4677
H -14.5847 -11.6785 13.7997
H -13.3099 -11.3329 12.8394
O 7.42066 6.05827 9.93179
H 7.9658 6.30661 9.13106
H 6.52097 6.49037 9.86956
O 1.47748 4.28509 5.38888
H 0.618651 4.79235 5.46035
H 1.28975 3.30387 5.43342
O 14.0488 -1.3794 -5.3649
H 13.0799 -1.41094 -5.61053
H 14.1658 -0.825732 -4.54041
O -13.4457 1.58135 -11.1454
H -13.9597 1.37078 -10.3138
H -14.0767 1.88567 -11.8591
O -11.1129 -11.8057 -12.941
H -11.9685 -11.9276 -12.4379
H -10.6255 -12.6777 -12.9859
O -13.0272 12.9191 -13.8084
H -14.0259 12.8682 -13.8128
H -12.734 13.6613 -13.2057
O -5.39266 -0.538788 7.7909
H -5.12137 0.15517 7.12394
H -5.002 -1.42182 7.53079
O -8.33422 7.56358 2.485
H -8.41624 6.98805 1.67134
H -8.19656 8.51458 2.20811
O -2.41243 14.3426 -1.17701
H -1.64603 14.7298 -1.68964
H -3.27251 14.6049 -1.61459
O 4.33427 9.11549 1.79272
H 3.45778 9.34841 1.37138
H 4.74685 8.34837 1.30148
O -14.3295 -8.78863 -5.78459
H -13.6568 -9.24946 -5.20573
H 14.6571 -9.27019 -5.7274
O 11.4814 -13.4731 -5.40528
H 11.4248 -13.8332 -6.33649
H 11.1028 -12.5478 -5.38212
O -2.29325 7.14427 5.12345
H -2.99712 7.19384 5.83205
H -1.52043 6.60523 5.45842
O 7.49806 7.97233 -2.43932
H 8.35257 7.80814 -2.93215
H 7.0609 8.79797 -2.79603
O -7.65674 -12.2729 -6.48434
H -6.68062 -12.1437 -6.65903
H -8.18695 -11.7679 -7.16543
O -11.808 4.78427 -8.23366
H -11.9152 3.82181 -7.98431
H -11.7375 4.86516 -9.22789
O 6.97742 -9.36634 1.1019
H 6.28868 -9.11075 1.78038
H 6.61361 -10.0883 0.513265
O 6.48313 -0.78687 -3.58056
H 6.68277 0.108264 -3.18194
H 5.5474 -1.05342 -3.34955
O -3.49999 3.97 10.4
H -3.68597 4.94221 10.5423
H -3.7073 3.46489 11.2378
O -14.6294 -6.77803 9.84549
H 14.782 -6.31074 10.6067
H 14.829 -7.68563 9.72682
O -12.9202 5.49483 2.6213
H -11.9541 5.67413 2.80735
H -13.0018 4.70029 2.01958
O 6.44635 -11.3186 -13.8299
H 7.04924 -12.1099 -13.7278
H 6.98706 -10.4789 -13.7796
O -14.1191 -1.38832 -7.67478
H -14.7163 -1.33885 -6.87421
H -14.0889 -0.495284 -8.12376
O -9.59669 5.86405 -5.9793
H -10.1551 5.576 -6.75727
H -8.71801 6.20911 -6.30927
O -11.9414 1.46861 12.3317
H -12.9375 1.50916 12.2532
H -11.6509 1.96704 13.1485
O -12.5097 -4.38973 5.42382
H -12.2564 -3.7324 4.71405
H -12.937 -3.90682 6.18814
O 1.7617 -6.27583 9.91983
H 2.02744 -5.99962 8.99619
H 1.32905 -5.50465 10.3868
O 14.4551 -4.20793 14.1709
H 14.4265 -4.86297 14.9259
H 13.5239 -4.01528 13.8613
O 14.1088 -5.167 4.56935
H 13.3471 -5.55029 4.04687
H 14.7756 -4.76619 3.94114
O 11.7148 4.6438 -0.368983
H 11.9293 4.70139 0.606057
H 12.5622 4.54989 -0.891667
O -4.60246 6.72294 -10.4784
H -5.23323 6.59371 -11.2436
H -4.59518 5.90033 -9.90987
O -12.1104 -7.83129 9.57929
H -12.847 -7.22324 9.87545
H -12.1067 -7.88875 8.58094
O 2.15998 7.92008 -10.1716
H 2.23535 8.9116 -10.2776
H 3.06913 7.5082 -10.2334
O 4.11777 1.20615 5.80717
H 5.10575 1.05304 5.78567
H 3.87996 1.7341 6.62248
O 6.78672 -3.18219 2.1615
H 7.19236 -2.26916 2.1184
H 6.02167 -3.23765 1.51991
O 7.73164 -3.60925 8.46022
H 7.33467 -2.93613 9.08419
H 7.01116 -4.21289 8.11884
O -9.14697 -6.26055 -4.86214
H -8.73228 -5.45008 -4.44838
H -10.0212 -6.01167 -5.27903
O 13.9589 3.61468 13.9129
H 14.5169 4.41488 14.1328
H 14.3534 3.13907 13.1266
O 7.55954 -6.45216 -13.6336
H 8.32384 -6.07834 -14.1591
H 6.77844 -5.8306 -13.6932
O 8.59673 10.7078 -1.27879
H 9.52728 11.0702 -1.22595
H 8.63171 9.72258 -1.44629
O -5.29359 10.2614 1.22421
H -5.14888 9.99067 2.17594
H -4.41039 10.3382 0.761532
O -11.642 13.7245 2.00913
H -10.7783 14.1811 2.22281
H -11.5833 12.7611 2.27075
O -0.63161 5.56469 6.52152
H 0.178527 5.7715 7.07009
H -1.35711 5.21799 7.11605
O 7.32228 12.4596 5.43665
H 8.07449 12.524 6.09243
H 6.4607 12.6772 5.89529
O -7.20445 -6.23053 11.285
H -7.92339 -6.80634 10.8956
H -6.51923 -6.03314 10.5839
O 13.7151 -8.86403 -14.8846
H 13.759 -9.29017 14.073
H 12.9509 -8.21963 -14.8567
O -7.69599 -8.58979 -12.9481
H -7.59381 -8.9434 -13.8779
H -7.52447 -7.60461 -12.9454
O 7.30193 8.94592 2.21869
H 6.37067 8.75443 1.9087
H 7.95568 8.52255 1.59149
O -12.1314 3.62331 -14.3268
H -11.1558 3.77656 -14.1691
H -12.3347 2.64851 -14.235
O -14.478 14.8327 9.63759
H -13.6748 -14.8647 10.2104
H 14.5655 14.7977 10.2122
O 14.6133 8.54753 -3.04682
H 13.8596 9.17195 -2.84158
H 14.2477 7.69593 -3.42249
O 3.96367 5.01389 6.65446
H 4.46308 5.67404 6.09338
H 3.12059 4.74899 6.18642
O -7.98452 8.81887 -7.90443
H -7.44909 9.61819 -7.63162
H -8.95068 9.06966 -7.96483
O -8.51055 -1.11387 -4.44182
H -8.28326 -0.668391 -5.30779
H -9.13074 -0.529136 -3.91888
O -11.4593 -6.46667 -2.72045
H -10.9008 -7.13001 -3.21858
H -11.6384 -5.67568 -3.30548
O -2.16862 -5.84496 -10.3417
H -2.82908 -6.46221 -10.7692
H -1.56274 -5.46797 -11.0422
O -14.6673 10.3588 -11.8032
H -14.4996 10.8055 -10.9244
H -13.8995 9.75708 -12.0232
O -6.60431 4.38947 3.71771
H -6.22477 4.35133 2.79331
H -6.01329 4.94997 4.29783
O 12.2787 6.18057 7.29952
H 12.7104 5.59942 7.98938
H 11.8849 5.60798 6.58045
O 14.6732 -13.3249 -14.8473
H 14.012 -12.7302 -14.3899
H 14.198 -14.113 14.6227
O 14.0816 11.7162 -13.9966
H 14.0269 11.2332 -13.1227
H 14.5847 11.1571 -14.6556
O -8.02212 2.51474 -4.07552
H -8.55039 1.79159 -3.63055
H -7.86995 3.26232 -3.42901
O 8.05341 3.39884 14.2298
H 8.74212 3.52752 13.5163
H 8.09989 2.46058 14.5726
O 10.3519 -4.9212 -13.9543
H 9.87429 -4.4876 -13.1902
H 10.1046 -4.46034 -14.8066
O 9.9079 -13.4598 -11.2762
H 10.6109 -14.1521 -11.4387
H 10.0909 -12.996 -10.4093
O 13.7419 1.32294 4.13247
H 12.7754 1.34719 3.87684
H 13.8388 1.57936 5.09417
O 9.66 3.51771 -9.42132
H 9.29335 2.60267 -9.25316
H 10.0163 3.56774 -10.3544
O -5.74486 -3.17617 -1.94324
H -5.46888 -2.65393 -2.75016
H -5.04267 -3.09291 -1.23612
O -8.87405 -14.3096 -11.0636
H -8.3898 -13.4848 -10.7716
H -9.59355 -14.525 -10.4033
O 1.11118 -7.40933 -12.4397
H 1.0838 -8.40864 -12.4143
H 0.188053 -7.05424 -12.5873
O 4.62651 10.0059 -8.54345
H 4.92033 9.13481 -8.1499
H 4.06688 9.83354 -9.35408
O -10.3897 6.02723 3.5101
H -10.044 5.15847 3.86478
H -9.68605 6.46111 2.94736
O 1.17456 4.07096 -6.56829
H 1.72891 3.84266 -7.36866
H 1.76289 4.44361 -5.85064
O -6.43256 14.6368 2.98539
H -6.61033 -14.2487 3.11394
H -5.79564 14.3187 3.68763
O -12.5389 5.10555 11.3596
H -11.6569 5.5679 11.2684
H -12.4065 4.21963 11.8042
O 14.2515 -3.4021 -2.75689
H 14.876 -3.31848 -3.53344
H 14.1395 -2.50883 -2.32152
O 11.093 -6.29105 -10.5068
H 11.5014 -6.76044 -9.72391
H 10.0987 -6.39356 -10.4753
O -13.6662 4.42382 -4.8
H -13.0836 4.90707 -5.45351
H -13.1939 3.60463 -4.47466
O 3.03107 -1.96204 -13.9836
H 3.63362 -1.86519 -14.7758
H 2.18544 -1.45288 -14.1438
O -8.96225 3.39637 4.06107
H -9.43217 3.21937 3.19628
H -8.1014 3.87243 3.88128
O 12.8829 -6.8149 -8.43337
H 13.6313 -7.37794 -8.78398
H 12.9854 -6.70213 -7.44504
O 2.00824 -3.55068 -11.7726
H 2.81506 -4.11159 -11.587
H 2.14775 -3.03563 -12.6184
O -8.17833 -3.93553 5.44822
H -7.90403 -3.09948 5.9234
H -7.79956 -3.93246 4.52272
O -5.02279 -4.80851 13.1895
H -5.09469 -4.4041 12.2777
H -5.6409 -5.59176 13.2564
O -2.55357 12.0851 -13.0826
H -2.88782 12.9395 -12.6847
H -2.4176 11.4104 -12.3572
O 11.5845 -3.99882 9.52637
H 11.1588 -4.64548 8.89343
H 12.3232 -4.45518 10.0224
O 4.25056 9.72417 -12.4009
H 3.65996 9.87814 -13.193
H 4.85925 8.95217 -12.584
O -10.4931 -6.35312 -12.1118
H -9.58983 -6.12776 -12.4768
H -11.1117 -6.57423 -12.8658
O -0.682999 -5.84019 -7.8958
H -1.15793 -5.88081 -8.77489
H -0.97542 -5.02468 -7.39635
O -5.43491 -11.4998 8.82185
H -5.60725 -12.0874 8.03131
H -6.28449 -11.3718 9.33355
O 11.8442 5.80779 -6.15145
H 12.4721 5.94329 -6.9178
H 10.9619 5.48698 -6.49614
O 1.28386 -3.77287 -9.06769
H 1.4577 -3.76222 -10.0524
H 0.930465 -4.66962 -8.80128
O -4.29807 12.5285 -6.90291
H -4.00235 12.52 -5.94766
H -4.35595 13.4733 -7.2255
O -2.07779 14.9019 -7.71717
H -3.04694 14.9208 -7.96296
H -1.57267 14.3663 -8.39389
O 5.53288 -8.76161 3.61836
H 5.2407 -9.53714 4.17799
H 6.2434 -8.25048 4.10202
O -1.78737 -4.84013 10.8677
H -0.846044 -4.69181 11.1709
H -2.062 -5.77801 11.0798
O 1.91004 -10.4149 -9.6702
H 2.40817 -10.5597 -10.5251
H 1.3552 -11.2216 -9.46693
O 7.10585 3.58627 -5.27537
H 7.42943 2.89645 -5.92303
H 6.16154 3.38331 -5.01633
O 12.1591 1.27734 -12.65
H 12.4825 0.53035 -12.069
H 11.5363 1.86002 -12.1278
O 4.44181 -5.31043 -12.3426
H 4.0228 -5.95593 -11.704
H 4.1817 -5.55047 -13.2778
O 3.02116 6.9351 -0.0406748
H 2.71583 6.20253 -0.649062
H 2.23829 7.29469 0.467102
O -4.90789 0.412498 4.58681
H -5.75169 0.792885 4.96541
H -4.64779 0.926672 3.7695
O -5.24463 -3.59503 10.7189
H -4.65451 -2.82115 10.9488
H -6.13882 -3.25675 10.4256
O -5.30886 -14.6839 -13.9894
H -5.80113 14.6258 -13.3159
H -5.17437 -13.7605 -13.6299
O -2.6281 -3.18457 8.90438
H -2.96197 -2.33719 9.31728
H -2.29196 -3.79498 9.62162
O 12.2853 -8.27277 -3.94695
H 11.5998 -8.03832 -3.25765
H 11.9684 -9.05825 -4.47854
O 5.19655 1.87559 14.4745
H 4.98708 1.64881 -14.4356
H 4.84189 2.78638 14.2631
O 11.3953 3.96136 -3.93552
H 12.202 4.1466 -3.37432
H 11.6017 4.16361 -4.89287
O 4.16984 0.906704 -6.71547
H 3.69931 0.493835 -5.93562
H 4.58935 0.188154 -7.27019
O 9.68311 12.4901 0.988126
H 9.67185 13.0575 0.164753
H 8.76596 12.4613 1.38565
O -3.64517 -8.47542 -4.66793
H -3.4065 -8.34614 -5.6304
H -3.64513 -9.45201 -4.45278
O 8.45453 -10.1488 12.7727
H 7.58111 -10.2424 13.2506
H 8.61966 -9.18441 12.566
O -7.82676 -5.90254 -13.1298
H -7.63374 -5.58436 -14.0579
H -7.45202 -5.25159 -12.4696
O 14.0903 4.99947 -1.92398
H 14.6681 5.26332 -1.15163
H 14.3695 5.50832 -2.73829
O -7.89933 4.55775 14.5955
H -8.20746 4.16028 -14.4013
H -8.37021 4.10928 13.8358
O -12.6194 9.22557 -3.29388
H -12.2642 8.60962 -2.59066
H -13.588 9.03119 -3.44898
O -12.3685 1.00842 -5.06293
H -11.6633 0.535896 -5.59157
H -13.1622 0.4096 -4.95594
O -5.28311 5.49046 5.8538
H -4.85593 6.08511 6.53492
H -4.65771 4.74508 5.62294
O -3.87786 -1.41125 11.4731
H -3.72801 -0.446323 11.2575
H -3.09316 -1.76479 11.9822
O 13.5054 0.0771876 8.29292
H 14.398 -0.29257 8.55078
H 12.9584 -0.64136 7.86333
O 9.79595 -9.19809 1.92366
H 8.80233 -9.11393 1.99894
H 10.1222 -9.88636 2.57163
O -2.59183 11.6535 13.3591
H -1.92749 11.709 14.1045
H -3.01966 12.5476 13.2266
O 0.721126 -10.7012 5.97999
H 1.41729 -10.9967 5.32571
H 0.826888 -9.72332 6.16036
O 2.42794 -14.6392 12.0865
H 3.2015 -14.3682 12.6593
H 1.79722 14.6604 12.622
O -9.06351 -3.72407 -3.94605
H -9.10278 -3.75695 -2.94736
H -8.96075 -2.77519 -4.24453
O 8.36455 -6.97643 -10.7031
H 8.06605 -6.40237 -11.4656
H 8.12531 -7.9293 -10.8897
O -2.4822 14.6046 5.98364
H -2.90854 14.7901 5.09829
H -1.62521 -14.7461 6.0544
O -0.701748 0.565324 -9.52134
H -0.0436088 1.09119 -10.0602
H -0.226523 0.105141 -8.7714
O 4.16232 13.4568 -6.4456
H 3.99417 12.5438 -6.07389
H 5.13907 13.6642 -6.39107
O -10.3624 -0.945369 12.2789
H -10.4932 0.0351806 12.4253
H -9.50716 -1.23532 12.7085
O 3.37291 -11.9774 -5.0121
H 4.33633 -11.813 -4.80044
H 3.29443 -12.3595 -5.93289
O -7.31931 -12.4593 3.00625
H -8.2965 -12.3209 3.16739
H -6.80184 -12.1369 3.7989
O -5.91538 0.262729 -1.72972
H -6.88389 0.16213 -1.50195
H -5.69389 -0.322493 -2.50977
O -2.08283 1.28109 10.9102
H -1.65593 2.15433 11.1452
H -1.73688 0.96832 10.0256
O 5.5541 -5.22359 8.30451
H 5.35001 -5.71554 9.15088
H 5.50076 -5.85494 7.53085
O 2.92581 -14.7102 -11.3365
H 2.25473 -13.9913 -11.1555
H 2.67823 14.3276 -10.8257
O 14.1082 6.22972 -4.37585
H 13.4386 6.10509 -5.10801
H -14.9248 5.71164 -4.58985
O 2.98258 -2.24163 -7.55791
H 2.45638 -2.69642 -8.27645
H 3.49707 -1.48038 -7.95262
O 13.7397 10.3613 4.60845
H 13.8053 11.306 4.92977
H 13.8266 10.3412 3.61242
O 3.39772 2.39727 8.2467
H 4.20922 2.47636 8.82569
H 3.00754 3.30525 8.09385
O -0.320631 5.3343 -8.85288
H 0.25093 5.18014 -8.04692
H 0.242069 5.69569 -9.59638
O 2.14539 10.7865 0.556883
H 1.62365 9.99777 0.881925
H 2.90542 10.472 -0.0118348
O 3.41562 0.6095 -12.875
H 3.56518 -0.367853 -12.7253
H 2.71012 0.735719 -13.5724
O 3.45378 4.59608 14.3043
H 3.60453 4.87923 13.3572
H 2.94982 5.31059 14.7896
O -0.942288 -9.73659 -11.1911
H -0.126045 -10.2346 -11.484
H -1.10628 -8.9705 -11.8126
O -10.1115 8.29477 5.16558
H -10.6897 9.09929 5.02956
H -10.5514 7.49524 4.75654
O 1.50401 1.68116 14.4768
H 0.943678 1.9138 13.6819
H 2.34819 2.21691 14.4578
O 9.61327 12.828 -13.5236
H 10.2408 13.2799 -12.8895
H 8.69425 12.8137 -13.1296
O -6.42841 -7.1912 13.7576
H -6.65494 -8.11706 14.0601
H -6.86112 -7.0141 12.8736
O -10.4853 -12.0791 13.7336
H -9.73526 -12.4312 14.2935
H -10.1673 -11.2896 13.2088
O 2.66304 13.5899 9.75937
H 1.71743 13.2914 9.88878
H 2.89275 14.2775 10.4481
O -8.27174 2.80079 11.3656
H -8.46093 2.51403 12.3048
H -7.54742 2.22806 10.9818
O 6.42672 3.61931 9.11358
H 6.71205 4.49576 9.50144
H 6.52669 3.64662 8.11895
O 8.61522 -12.9968 -13.7135
H 8.8739 -13.2766 -12.7889
H 9.41208 -12.6143 -14.1812
O 0.561161 13.0106 -4.23823
H 1.35583 13.3032 -3.70635
H 0.22989 12.1345 -3.88795
O 8.27343 14.7917 2.29763
H 8.80037 14.879 3.14304
H 7.29858 14.8813 2.50174
O -13.7243 -7.66441 5.64413
H -12.8973 -7.72594 6.20297
H -13.7184 -6.80454 5.13363
O 14.0641 10.9447 1.94631
H 14.5687 10.3144 1.35623
H 14.1917 11.8813 1.61993
O -11.97 -12.5017 4.34263
H -12.6559 -13.0092 3.82103
H -12.1723 -12.5752 5.3192
O -9.74314 12.8105 11.7757
H -10.0681 12.9518 12.7108
H -10.5257 12.6798 11.167
O 9.47006 5.86783 -1.34391
H 10.2964 5.34688 -1.12977
H 9.21963 5.7173 -2.30028
O 5.23368 2.02833 -11.4914
H 4.83113 2.94335 -11.518
H 4.58167 1.36646 -11.8613
O 12.5335 1.23276 14.4567
H 12.0953 1.22826 -14.5057
H 13.2458 1.93437 14.4367
O 10.313 -10.5027 -7.66065
H 11.2314 -10.5701 -8.05051
H 10.0235 -9.54559 -7.65314
O 3.09196 13.3106 -3.26152
H 3.27699 12.6403 -2.54287
H 3.93545 13.503 -3.76306
O -9.28864 9.67569 12.9222
H -8.83549 9.28825 13.725
H -8.95597 10.6061 12.7682
O 1.95321 14.3834 4.61147
H 2.32596 14.9272 3.85957
H 2.70123 14.0557 5.1886
O 3.58752 -8.30712 1.87687
H 3.49504 -7.33272 1.67191
H 4.15484 -8.42388 2.69205
O -4.73864 -6.33122 4.83611
H -4.30987 -6.34267 3.93275
H -4.08025 -6.00294 5.51343
O 7.35905 -10.59 6.59478
H 7.82979 -10.3081 7.43081
H 6.7901 -11.3899 6.78611
O 13.5748 13.3951 4.49845
H 13.2755 13.7164 3.59999
H 12.8948 13.6485 5.18654
O 6.55128 12.1152 -9.16115
H 5.8949 11.5028 -8.72048
H 6.82948 12.8261 -8.51524
O -13.8573 -0.0411102 14.292
H -14.1303 -0.495938 -14.7214
H -13.8827 -0.697829 13.5383
O -11.006 -2.97495 -9.60478
H -11.705 -3.01582 -10.3187
H -10.7516 -3.90333 -9.33384
O -5.57979 -1.57106 -4.11507
H -6.54013 -1.61848 -4.38987
H -5.02078 -2.083 -4.76734
O -14.1109 -0.291102 0.547204
H -14.7857 -0.0863135 1.25627
H -13.2215 -0.459407 0.972153
O 7.98306 1.94819 -13.1984
H 7.20757 2.16409 -12.6051
H 7.86878 1.0289 -13.575
O 11.6241 5.64623 2.48287
H 12.5154 5.43122 2.8822
H 11.6895 6.49592 1.95964
O -4.772 3.49713 12.7864
H -5.37115 2.72665 12.5687
H -5.31305 4.33671 12.8351
O 2.3442 -4.16101 -5.63126
H 2.81794 -3.59928 -6.30952
H 1.49833 -3.70563 -5.3535
O 9.11084 14.8787 14.2324
H 9.14438 14.0963 14.8543
H 8.75938 -14.1835 14.7204
O 0.596164 -0.25135 -13.8291
H 0.699929 0.519777 -14.4573
H -0.247924 -0.14232 -13.3041
O 14.2152 -12.6533 -2.66458
H -14.7463 -12.7892 -3.07951
H 14.2348 -11.838 -2.08587
O 0.425948 12.4391 -0.723379
H 1.069 11.9507 -0.133497
H -0.407316 12.6444 -0.210038
O 6.87762 -7.56656 -3.8693
H 6.88409 -8.15047 -4.6811
H 5.93398 -7.33492 -3.63285
O -11.9315 1.88326 9.42416
H -11.6513 1.79281 10.3799
H -11.1481 2.17067 8.87298
O -6.27267 1.02649 10.5651
H -6.28947 0.787173 11.536
H -5.38911 0.769347 10.1737
O -10.0307 13.2026 -4.4434
H -10.4038 13.5473 -3.58198
H -9.29449 12.5535 -4.2518
O -8.92852 8.78824 -3.83468
H -9.63522 8.78283 -3.12718
H -8.07259 8.43881 -3.45351
O 9.28625 -1.19229 13.2881
H 10.078 -0.962134 12.7222
H 8.52969 -0.576114 13.0691
O 14.333 13.3322 0.697958
H 14.9011 12.7627 0.103924
H 14.2341 14.2412 0.292957
O 3.98411 9.19947 -3.66927
H 3.99841 8.21128 -3.8219
H 4.04489 9.67335 -4.54777
O 1.86852 5.86427 8.36766
H 1.91739 6.84799 8.54063
H 2.76274 5.53417 8.06531
O -0.418072 -12.3889 9.21969
H -0.430279 -11.5395 8.69196
H -1.17199 -12.9757 8.92429
O 4.32722 -11.0252 5.09838
H 4.63507 -11.9764 5.07693
H 3.50946 -10.9266 4.53132
O 12.6607 -11.3587 -14.3037
H 12.0322 -11.6065 14.8201
H 12.8659 -10.3813 -14.3551
O 1.50226 -2.06085 7.00999
H 2.25118 -2.47809 6.49516
H 0.785387 -2.74051 7.16543
O -1.73218 3.85895 8.46895
H -2.34787 4.18133 9.18799
H -1.67471 2.86114 8.50196
O -1.52136 -2.25135 12.4836
H -0.65647 -1.77589 12.3226
H -1.5516 -3.08443 11.9312
O -9.71502 -13.3929 10.3975
H -9.28991 -13.1904 9.51531
H -9.03645 -13.8001 11.0089
O 4.90062 -5.91282 5.76684
H 5.3036 -5.0101 5.61611
H 5.62437 -6.60275 5.78117
O -13.6796 4.17834 9.04572
H -13.0532 3.42289 8.85349
H -13.4206 4.61506 9.90725
O 13.0514 -14.4092 -0.605273
H 13.8127 -13.8488 -0.931545
H 12.5615 -14.794 -1.38756
O 5.65594 7.1422 0.511499
H 4.78512 6.8148 0.144767
H 6.30276 7.28008 -0.238594
O 3.95211 -5.75384 1.02103
H 4.7759 -5.47045 0.530038
H 3.191 -5.83297 0.377239
O 10.2266 -0.36583 -7.42078
H 10.6031 0.50189 -7.0962
H 9.52316 -0.682733 -6.78461
O 2.81664 10.6022 -10.4282
H 2.8991 11.5742 -10.2081
H 3.25153 10.4222 -11.3105
O -10.3093 -3.7339 -14.6265
H -9.64139 -4.19539 14.6508
H -9.9432 -2.85001 -14.3355
O -11.5722 12.5192 9.54568
H -12.509 12.2547 9.77471
H -11.5736 13.0512 8.69893
O -14.197 5.40871 -13.762
H -13.8098 6.30301 -13.9863
H -13.505 4.70083 -13.9037
O -7.41213 -3.38168 2.79078
H -6.72994 -2.8525 3.29536
H -8.19072 -2.79512 2.56769
O -9.244 -7.30902 9.63546
H -10.2053 -7.48269 9.84955
H -8.8148 -8.1551 9.31929
O -7.61739 -11 10.7682
H -7.09552 -11.0463 11.62
H -8.37461 -11.6521 10.8053
O 13.4349 14.6482 12.0867
H 14.2268 14.5933 12.6947
H 12.7632 13.956 12.3507
O -9.21102 11.7268 -0.451916
H -9.8711 12.3908 -0.803253
H -8.31047 12.1562 -0.383634
O 10.9668 4.44079 5.40474
H 10.987 3.98587 4.51442
H 10.6732 3.79004 6.10497
O 6.80876 9.51886 -14.4989
H 6.37692 8.70678 -14.1064
H 7.03868 9.3443 14.4048
O -2.13014 9.88909 4.22492
H -1.57262 10.4599 4.82769
H -2.22984 8.97864 4.62637
O -5.93377 10.2445 4.76109
H -6.15883 9.27729 4.64337
H -5.58695 10.3958 5.68675
O -11.8561 0.959602 6.38704
H -10.9658 0.580884 6.13418
H -12.1645 0.543633 7.24256
O 4.82453 6.58188 4.70561
H 5.4053 6.17755 3.99904
H 4.44664 7.44571 4.37241
O 2.44628 10.0844 -14.567
H 1.48621 9.80475 -14.5751
H 2.51045 11.0618 -14.7689
O 14.4226 5.61033 -8.10919
H 14.569 4.95634 -8.85139
H -14.5632 5.82383 -7.67549
O 4.96334 -0.863682 14.1555
H 5.15268 0.113999 14.0643
H 5.68524 -1.38667 13.7023
O -3.51778 -11.0727 -8.99896
H -3.94921 -10.5652 -9.74486
H -2.60344 -10.7044 -8.83042
O -8.73466 1.72129 13.7691
H -9.63052 1.44859 14.1199
H -8.03024 1.1252 14.1544
O -1.63738 -3.72526 -6.06308
H -2.45746 -3.27168 -6.412
H -1.89429 -4.58493 -5.6215
O -10.5507 -6.72118 13.0227