LAMMPS data file via write_data, version 15 May 2015, timestep = 8008000

2611 atoms
6 atom types
1749 bonds
4 bond types
894 angles
3 angle types
44 dihedrals
3 dihedral types
10 impropers
1 improper types

-1.4886454475361989e+01 1.4886454475361989e+01 xlo xhi
-1.4886454475361989e+01 1.4886454475361989e+01 ylo yhi
-1.4886454475361989e+01 1.4886454475361989e+01 zlo zhi

Masses

1 15.9994
2 1.00794
3 12.0107
4 1.00794
5 12.0107
6 12.0107

Bond Coeffs # harmonic

1 1000 1
2 469 1.4
3 367 1.08
4 469 0.7

Angle Coeffs # harmonic

1 100 109.47
2 35 120
3 63 120

Dihedral Coeffs # opls

1 0 7.25 0 0
2 0 7.25 0 0
3 0 7.25 0 0

Improper Coeffs # cvff

1 2.5 -1 2

Atoms # full

1495 499 1 -8.1999999999999995e-01 -9.4828100709025556e+00 -1.1382140077207747e+01 -1.0270214655275668e+01 0 1 -3
2036 679 2 4.0999999999999998e-01 -9.1369045131080533e+00 -8.4902554395644678e+00 -1.3586723114016214e+01 0 0 -2
487 163 1 -8.1999999999999995e-01 -1.1314533551584651e+01 -1.3232369264213730e+01 -1.1481528402750280e+01 -1 0 2
489 163 2 4.0999999999999998e-01 -1.1262204388880900e+01 -1.2775748185163005e+01 -1.2369660241219751e+01 -1 0 2
1324 442 1 -8.1999999999999995e-01 -1.3606279666726751e+01 -6.8758896159691965e+00 -1.1638206040856922e+01 -2 -5 -1
1325 442 2 4.0999999999999998e-01 -1.3967527263923392e+01 -6.2127505539771448e+00 -1.2293771476923695e+01 -2 -5 -1
365 122 2 4.0999999999999998e-01 -8.4274427736727091e+00 -1.2540561339902624e+01 -1.4825773437821340e+01 -2 0 -1
488 163 2 4.0999999999999998e-01 -1.0812213741264081e+01 -1.2697868137449500e+01 -1.0801820644205520e+01 -1 0 2
79 27 1 -8.1999999999999995e-01 -1.3494646266191955e+01 -1.4533036584959010e+01 -1.0519171786161525e+01 -2 0 -2
1198 400 1 -8.1999999999999995e-01 -1.1027300394738107e+01 -1.0846403316269601e+01 -1.3136384355894482e+01 0 -2 0
1200 400 2 4.0999999999999998e-01 -1.0215317341898176e+01 -1.0302129173360235e+01 -1.2925508862187119e+01 0 -2 0
1496 499 2 4.0999999999999998e-01 -8.4846287880984566e+00 -1.1438067169925304e+01 -1.0247288991133399e+01 0 1 -3
1326 442 2 4.0999999999999998e-01 -1.4260168055398081e+01 -7.6241830360491534e+00 -1.1526374817542679e+01 -2 -5 -1
453 151 2 4.0999999999999998e-01 -9.7313891999096711e+00 -5.1101305960039358e+00 -1.2122389483307918e+01 -3 0 2
1618 540 1 -8.1999999999999995e-01 -7.8248334286561949e+00 -8.9580811159440863e+00 -8.0587554219269109e+00 3 -2 -2
2037 679 2 4.0999999999999998e-01 -9.9610029821497008e+00 -7.7350370224926319e+00 -1.2396267402583529e+01 0 0 -2
2035 679 1 -8.1999999999999995e-01 -9.4305310191314593e+00 -8.5491389117801901e+00 -1.2632608074714787e+01 0 0 -2
80 27 2 4.0999999999999998e-01 -1.2815622850233009e+01 -1.4013404138882338e+01 -1.1037755076915227e+01 -2 0 -2
1620 540 2 4.0999999999999998e-01 -8.2774358479149548e+00 -9.7530281873885603e+00 -7.6547386827767596e+00 3 -2 -2
864 288 2 4.0999999999999998e-01 -9.8312260402704563e+00 -6.1039182949895974e+00 -8.2483788555507864e+00 3 -1 0
863 288 2 4.0999999999999998e-01 -1.1325385871703727e+01 -6.4223312122736527e+00 -7.6715100922714834e+00 3 -1 0
81 27 2 4.0999999999999998e-01 -1.4372614847962931e+01 -1.4055115175156136e+01 -1.0547128893959071e+01 -2 0 -2
1143 381 2 4.0999999999999998e-01 -1.1893246354949483e+01 -6.5693819896443255e+00 -1.1510042704183142e+01 0 -2 -2
1199 400 2 4.0999999999999998e-01 -1.1537788424914446e+01 -1.0410137104359444e+01 -1.3877392494359237e+01 0 -2 0
1329 443 2 4.0999999999999998e-01 -8.0681052520396772e+00 -1.3396607230436935e+01 -1.2723554046539734e+01 -2 -3 -1
2391 797 2 4.0999999999999998e-01 -1.2998479430918390e+01 -1.3515332474981225e+01 -9.0412549926517087e+00 8 -1 -1
2051 684 2 4.0999999999999998e-01 -1.0449600751688706e+01 -8.4641008667782351e+00 -7.8041873700223796e+00 5 -1 -3
862 288 1 -8.1999999999999995e-01 -1.0352450210372853e+01 -6.6345446821332459e+00 -7.5799625844158784e+00 3 -1 0
2050 684 1 -8.1999999999999995e-01 -1.0782685011572950e+01 -9.4064246305399077e+00 -7.8373551607071992e+00 5 -1 -3
2233 745 1 -8.1999999999999995e-01 -1.4365559180581092e+01 -1.2175044704875656e+01 -1.3445571273772329e+01 2 0 -2
2235 745 2 4.0999999999999998e-01 -1.3742336693692405e+01 -1.1502862070674777e+01 -1.3045841984996155e+01 2 0 -2
1141 381 1 -8.1999999999999995e-01 -1.0933115692356870e+01 -6.3034613268792654e+00 -1.1423703352214666e+01 0 -2 -2
1142 381 2 4.0999999999999998e-01 -1.0819975049130498e+01 -5.7195154742521428e+00 -1.0619821683222334e+01 0 -2 -2
1497 499 2 4.0999999999999998e-01 -9.7596133043327278e+00 -1.0439875356306803e+01 -1.0458725840464117e+01 0 1 -3
48 16 2 4.0999999999999998e-01 -8.2910622936448473e+00 -8.0791004585309949e+00 -1.1463038255331602e+01 -3 4 -2
1492 498 1 -8.1999999999999995e-01 -1.3496451036527612e+01 -9.3359680786992314e+00 -8.2475786029888258e+00 0 0 -2
1000 334 1 -8.1999999999999995e-01 -8.0053184161197066e+00 -1.4606947850484058e+01 -9.8699633103680711e+00 -1 -2 -1
1327 443 1 -8.1999999999999995e-01 -8.4368028889522897e+00 -1.2475484593129508e+01 -1.2848511786904208e+01 -2 -3 -1
1863 621 2 4.0999999999999998e-01 -1.3847503040340756e+01 -1.3696370377588913e+01 -1.4086015251767947e+01 -2 1 0
1494 498 2 4.0999999999999998e-01 -1.3922276083673747e+01 -9.9084837627306932e+00 -8.9482340783033383e+00 0 0 -2
1328 443 2 4.0999999999999998e-01 -9.0479216790868584e+00 -1.2255100180829825e+01 -1.2088259320439082e+01 -2 -3 -1
360 120 2 4.0999999999999998e-01 -1.4007960395830809e+01 -1.1710294286436691e+01 -9.2424550925208351e+00 -1 -1 -5
549 183 2 4.0999999999999998e-01 -1.3928832789772924e+01 -5.5309946271237322e+00 -1.0393486718202755e+01 3 -3 -4
2389 797 1 -8.1999999999999995e-01 -1.3085495067278121e+01 -1.2781072641351221e+01 -8.3679719330392253e+00 8 -1 -1
547 183 1 -8.1999999999999995e-01 -1.4305226303290269e+01 -5.2656123977800942e+00 -9.5058384337935422e+00 3 -3 -4
1675 559 1 -8.1999999999999995e-01 -1.1917216089424063e+01 -8.7746316478345747e+00 -1.4822777001444869e+01 3 1 -1
2333 778 2 4.0999999999999998e-01 -1.3889830474792175e+01 -6.1783048398284617e+00 -8.0166350913242432e+00 -3 1 2
1861 621 1 -8.1999999999999995e-01 -1.3745356399094435e+01 -1.4495608093686608e+01 -1.4678302748056337e+01 -2 1 0
1564 522 1 -8.1999999999999995e-01 -7.6406443957003400e+00 -5.9497703857768443e+00 -1.4129413747514391e+01 -1 0 -3
1557 519 2 4.0999999999999998e-01 -1.4624932198577879e+01 -6.6777601227479000e+00 -1.4655543443397395e+01 2 1 0
47 16 2 4.0999999999999998e-01 -7.9314970100172415e+00 -7.9294175479130509e+00 -9.8771675870587341e+00 -3 4 -2
2334 778 2 4.0999999999999998e-01 -1.3542371365069286e+01 -7.6910132608858985e+00 -7.5090295987756921e+00 -3 1 2
46 16 1 -8.1999999999999995e-01 -7.7168911505278901e+00 -7.6022804437793230e+00 -1.0797463709404333e+01 -3 4 -2
1002 334 2 4.0999999999999998e-01 -7.5691365627687439e+00 -1.3730458377384760e+01 -1.0073754662315734e+01 -1 -2 -1
2390 797 2 4.0999999999999998e-01 -1.2322148367224250e+01 -1.2827482496691445e+01 -7.7236371911492281e+00 8 -1 -1
358 120 1 -8.1999999999999995e-01 -1.4591075895166254e+01 -1.1181917681790846e+01 -9.8595562018185561e+00 -1 -1 -5
1312 438 1 -8.1999999999999995e-01 -1.4673107960155534e+01 -5.0945715517228276e+00 -1.3825627204460526e+01 3 -2 0
1493 498 2 4.0999999999999998e-01 -1.2529312519219520e+01 -9.5759642520527315e+00 -8.1635295507587209e+00 0 0 -2
2012 671 2 4.0999999999999998e-01 -8.8042075456257827e+00 -1.4676380037024936e+01 -8.5432733511261425e+00 -3 1 -3
1634 545 2 4.0999999999999998e-01 -8.8938784820353618e+00 -1.1833242353179740e+01 -7.7799651868986608e+00 3 3 -1
780 260 2 4.0999999999999998e-01 -1.1382312369110537e-01 -1.4765870295039077e+01 -1.2904556574428833e+01 0 2 -1
300 100 2 4.0999999999999998e-01 -6.7500564313955795e+00 -1.1192321341023845e+01 -1.3864617883854313e+01 -1 0 -3
1074 358 2 4.0999999999999998e-01 -4.0170103618205371e+00 -1.4021926037400531e+01 -1.0218672810731196e+01 -2 -2 -2
2328 776 2 4.0999999999999998e-01 -2.5827365110097436e+00 -5.6284575562335419e+00 -9.8728159886603901e+00 2 -1 -1
2525 842 2 4.0999999999999998e-01 -1.8206661571025666e+00 -5.5801876556257142e+00 -1.3068831983282355e+01 -3 2 -1
1383 461 2 4.0999999999999998e-01 -4.9946058239156077e+00 -6.1895540485907059e+00 -1.0836148205701075e+01 2 1 -2
50 17 2 4.0999999999999998e-01 -6.3854037659185767e+00 -9.4596332897908457e+00 -8.6935594495932556e+00 1 -2 -2
1319 440 2 4.0999999999999998e-01 -4.7910698236785425e+00 -5.8760455078363893e+00 -8.1425984302092704e+00 0 0 -2
2326 776 1 -8.1999999999999995e-01 -1.9635859803260995e+00 -5.0104246467279747e+00 -9.3883500442042820e+00 2 -1 -1
2325 775 2 4.0999999999999998e-01 -1.3368215729874837e+00 -7.2638476348776271e+00 -1.1456257808931182e+01 -1 -1 -3
1947 649 2 4.0999999999999998e-01 -5.9883225175477826e+00 -1.2215608799000082e+01 -1.0959368048161915e+01 2 -1 1
1946 649 2 4.0999999999999998e-01 -6.5025625946264505e+00 -1.1549973524005710e+01 -9.5596663725022548e+00 2 -1 1
51 17 2 4.0999999999999998e-01 -5.1674388033007315e+00 -1.0272661513123939e+01 -7.9709084716662266e+00 1 -2 -2
412 138 1 -8.1999999999999995e-01 -2.3664535308063055e+00 -1.2952247281012149e+01 -7.6618165664203497e+00 -2 2 -1
2323 775 1 -8.1999999999999995e-01 -8.9155323182472834e-01 -6.6652012205507791e+00 -1.2122124057193147e+01 -1 -1 -3
1566 522 2 4.0999999999999998e-01 -7.0490651129636248e+00 -5.9223606031828968e+00 -1.3323621005899090e+01 -1 0 -3
2528 843 2 4.0999999999999998e-01 -3.5194288638777316e+00 -1.2566465300166485e+01 -1.2464236923753649e+01 1 1 -1
797 266 2 4.0999999999999998e-01 -6.5775852164046178e-01 -8.3676152632214027e+00 -9.3086585606004562e+00 -3 2 -7
1381 461 1 -8.1999999999999995e-01 -5.2520351575679811e+00 -6.4740036239298693e+00 -9.9126560135724979e+00 2 1 -2
298 100 1 -8.1999999999999995e-01 -6.2251733854698106e+00 -1.1479171958991770e+01 -1.4666012792430962e+01 -1 0 -3
1359 453 2 4.0999999999999998e-01 -4.3425494618843690e+00 -8.3706236737341566e+00 -1.3827556468627135e+01 0 -3 1
413 138 2 4.0999999999999998e-01 -1.4672375497585133e+00 -1.2684039954109616e+01 -8.0074966980654487e+00 -2 2 -1
1945 649 1 -8.1999999999999995e-01 -6.7231252320606316e+00 -1.2206367598010136e+01 -1.0281135891406398e+01 2 -1 1
1164 388 2 4.0999999999999998e-01 -1.6754916856798161e+00 -1.1208468169486526e+01 -1.3039801086095249e+01 -1 -1 -1
49 17 1 -8.1999999999999995e-01 -5.6376620332520648e+00 -1.0107754161608433e+01 -8.8379234710832915e+00 1 -2 -2
2063 688 2 4.0999999999999998e-01 -7.0532967519666201e-01 -7.7074221823681368e+00 -1.3768641742372177e+01 -1 1 -2
414 138 2 4.0999999999999998e-01 -2.9213852110543357e+00 -1.3305340157608684e+01 -8.4150732107903039e+00 -2 2 -1
132 44 2 4.0999999999999998e-01 -4.8758374930251946e+00 -6.8400577063323045e+00 -1.2593329439365185e+01 -3 1 1
1162 388 1 -8.1999999999999995e-01 -1.6826368776933975e+00 -1.1444140977955033e+01 -1.2067984959068614e+01 -1 -1 -1
1435 479 1 -8.1999999999999995e-01 -5.2876034166839947e+00 -1.4160795930509384e+01 -1.4532239475288954e+01 2 -4 1
2062 688 1 -8.1999999999999995e-01 -9.9916773908220335e-01 -7.9793351992730548e+00 -1.4685016005108572e+01 -1 1 -2
1523 508 2 4.0999999999999998e-01 -6.7276768412966703e+00 -1.4751931376963622e+01 -7.7728091864592699e+00 1 -1 2
1812 604 2 4.0999999999999998e-01 -3.9650163625350654e+00 -5.0676699069110143e+00 -1.3065655022150832e+01 -4 -1 -3
130 44 1 -8.1999999999999995e-01 -5.2025537705555891e+00 -7.7848741914111814e+00 -1.2568883411475724e+01 -3 1 1
561 187 2 4.0999999999999998e-01 -3.9292249784720088e+00 -9.4494696897210311e+00 -1.1722110396107226e+01 -3 -1 -4
1599 533 2 4.0999999999999998e-01 -6.8890895156740406e-01 -1.2163079815745689e+01 -1.0733729584109982e+01 1 -2 1
131 44 2 4.0999999999999998e-01 -6.1405566663928930e+00 -7.8043466351591242e+00 -1.2222775478916521e+01 -3 1 1
559 187 1 -8.1999999999999995e-01 -3.5697866584342339e+00 -9.8744171419850701e+00 -1.0891301718182504e+01 -3 -1 -4
560 187 2 4.0999999999999998e-01 -4.2500829920132581e+00 -9.8072650029827599e+00 -1.0161434062415884e+01 -3 -1 -4
2327 776 2 4.0999999999999998e-01 -1.4810521000227688e+00 -5.5154694613527671e+00 -8.6727313613191193e+00 2 -1 -1
798 266 2 4.0999999999999998e-01 -2.1430512954172443e+00 -8.8818882375793677e+00 -9.7514978477651475e+00 -3 2 -7
2529 843 2 4.0999999999999998e-01 -4.6171988319793744e+00 -1.3674545170248585e+01 -1.2947701579021150e+01 1 1 -1
2527 843 1 -8.1999999999999995e-01 -4.1150906179153033e+00 -1.3311077215721401e+01 -1.2162973797566426e+01 1 1 -1
796 266 1 -8.1999999999999995e-01 -1.4485215173280395e+00 -8.1758656850626750e+00 -9.8899891587679392e+00 -3 2 -7
1382 461 2 4.0999999999999998e-01 -6.1171943509743638e+00 -6.9743426475247459e+00 -9.9470027079103325e+00 2 1 -2
1163 388 2 4.0999999999999998e-01 -2.0133059848770820e+00 -1.0663214950168861e+01 -1.1538049309252692e+01 -1 -1 -1
1357 453 1 -8.1999999999999995e-01 -3.7906253930106129e+00 -8.5837391972606447e+00 -1.4633770420585632e+01 0 -3 1
772 258 1 -8.1999999999999995e-01 -2.2525084289907102e+00 -1.1016992901668548e+01 -1.4637164484977282e+01 0 -3 -2
1524 508 2 4.0999999999999998e-01 -5.1143479897875572e+00 -1.4506007052058827e+01 -7.7147646712838229e+00 1 -1 2
1810 604 1 -8.1999999999999995e-01 -4.7502780314658182e+00 -5.2218436571126556e+00 -1.2465976899634054e+01 -4 -1 -3
1072 358 1 -8.1999999999999995e-01 -4.0961530986613468e+00 -1.4279839726816959e+01 -9.2557417257337420e+00 -2 -2 -2
299 100 2 4.0999999999999998e-01 -5.7984414537169382e+00 -1.2365313749891804e+01 -1.4485259212962612e+01 -1 0 -3
1050 350 2 4.0999999999999998e-01 -2.2545601007567893e+00 -1.4884572270429610e+01 -1.4597563822202668e+01 1 1 -2
2064 688 2 4.0999999999999998e-01 -1.9348166079565967e+00 -8.3299833505684369e+00 -1.4644688192563953e+01 -1 1 -2
1436 479 2 4.0999999999999998e-01 -6.0212678517117464e+00 -1.4815842054621296e+01 -1.4712988832058057e+01 2 -4 1
478 160 1 -8.1999999999999995e-01 -1.0329834110648768e+01 -1.2874491592756577e+01 -2.7992443140416245e+00 1 0 0
1707 569 2 4.0999999999999998e-01 -1.3512768046800993e+01 -1.0743126065203906e+01 -3.0898631452127621e+00 -1 4 -1
1705 569 1 -8.1999999999999995e-01 -1.3522446023737810e+01 -9.7481416120119047e+00 -3.1895205668717761e+00 -1 4 -1
580 194 1 -8.1999999999999995e-01 -1.2967021979147095e+01 -1.2281169176367829e+01 -3.1362808138248202e+00 1 -1 -4
581 194 2 4.0999999999999998e-01 -1.3312309226903146e+01 -1.3106927278940526e+01 -3.5822848265823044e+00 1 -1 -4
471 157 2 4.0999999999999998e-01 -1.0501878567315558e+01 -5.0746219017172898e+00 -8.6055592860641106e-01 0 0 -3
1465 489 1 -8.1999999999999995e-01 -7.8632610187179379e+00 -1.3642494976789513e+01 -5.4063212137138930e+00 2 -2 -1
854 285 2 4.0999999999999998e-01 -1.2465409140288655e+01 -6.6638495883969213e+00 -4.0603691677615572e+00 -1 1 -1
582 194 2 4.0999999999999998e-01 -1.2008247422352552e+01 -1.2414099303474689e+01 -2.8850831751172095e+00 1 -1 -4
853 285 1 -8.1999999999999995e-01 -1.3233442729582903e+01 -6.1854856989349987e+00 -4.4861762874327997e+00 -1 1 -1
855 285 2 4.0999999999999998e-01 -1.3290115603721091e+01 -6.4392175182110556e+00 -5.4517992318089838e+00 -1 1 -1
174 58 2 4.0999999999999998e-01 -1.0317577607120052e+01 -1.3655655206299112e+01 -6.7631099682250202e+00 1 -1 0
2058 686 2 4.0999999999999998e-01 -1.0113092797171166e+01 -6.1482114770477043e+00 -2.1118848405494965e+00 -2 0 -2
1466 489 2 4.0999999999999998e-01 -8.5149493621471173e+00 -1.4194614700992364e+01 -4.8862390940810947e+00 2 -2 -1
2444 815 2 4.0999999999999998e-01 -1.2262579746968646e+01 -8.4615272136883348e+00 -7.3887465549062270e-01 1 0 0
2445 815 2 4.0999999999999998e-01 -1.2369143536415525e+01 -8.4094482081625745e+00 -2.3675581436760673e+00 1 0 0
480 160 2 4.0999999999999998e-01 -1.0003738830096067e+01 -1.3566206724240851e+01 -3.4436132795277175e+00 1 0 0
1344 448 2 4.0999999999999998e-01 -1.0165523969763370e+01 -7.7480789612749215e+00 -1.2504874376797837e+00 1 -1 -1
2443 815 1 -8.1999999999999995e-01 -1.1886490548349958e+01 -8.0498170507097484e+00 -1.5689776354616320e+00 1 0 0
1938 646 2 4.0999999999999998e-01 -9.6505086565058882e+00 -1.1963443169456188e+01 -9.7487788424499655e-01 1 -1 -1
1342 448 1 -8.1999999999999995e-01 -9.1800773116692760e+00 -7.5786883428946927e+00 -1.2653540422476990e+00 1 -1 -1
1709 570 2 4.0999999999999998e-01 -1.4075901049587779e+01 -1.0224985733317789e+01 -6.7733458704134968e+00 2 0 1
173 58 2 4.0999999999999998e-01 -1.1777072078092319e+01 -1.3840153573866317e+01 -6.0542276167419455e+00 1 -1 0
252 84 2 4.0999999999999998e-01 -1.2158088159831181e+01 -1.0147754491996007e+01 -4.5550485908468463e+00 -1 2 -1
1134 378 2 4.0999999999999998e-01 -9.8702542177681067e+00 -7.4272530896647577e+00 -5.3320265164278364e+00 1 -2 2
1343 448 2 4.0999999999999998e-01 -8.6913309564944221e+00 -8.4458666984870145e+00 -1.1697087914595166e+00 1 -1 -1
479 160 2 4.0999999999999998e-01 -9.7963318766706777e+00 -1.2036210764505579e+01 -2.9118495437857792e+00 1 0 0
250 84 1 -8.1999999999999995e-01 -1.1405045287212651e+01 -1.0294722385634362e+01 -5.1964113380455874e+00 -1 2 -1
1658 553 2 4.0999999999999998e-01 -7.6666899223901401e+00 -1.0293087830904895e+01 -3.4957458150675844e+00 -2 0 -1
1844 615 2 4.0999999999999998e-01 -9.7849103849333918e+00 -1.3971417005992752e+01 -8.1111345302947591e-01 0 -2 -3
1132 378 1 -8.1999999999999995e-01 -1.0635385281715553e+01 -7.7284530485065357e+00 -4.7629286885016242e+00 1 -2 2
172 58 1 -8.1999999999999995e-01 -1.1157536996423833e+01 -1.3186962859246080e+01 -6.4895866362305590e+00 1 -1 0
1635 545 2 4.0999999999999998e-01 -8.1814195530050746e+00 -1.2104563552860565e+01 -6.3358512811780887e+00 3 3 -1
1657 553 1 -8.1999999999999995e-01 -8.1404735063139242e+00 -1.1171741245806009e+01 -3.4364449484201813e+00 -2 0 -1
251 84 2 4.0999999999999998e-01 -1.1280101164356733e+01 -1.1275765299797419e+01 -5.3446107594274839e+00 -1 2 -1
1633 545 1 -8.1999999999999995e-01 -8.5110679214736749e+00 -1.1399829963084308e+01 -6.9641042653608967e+00 3 3 -1
1659 553 2 4.0999999999999998e-01 -7.4720514360775292e+00 -1.1914350841682580e+01 -3.4784237274928529e+00 -2 0 -1
1259 420 2 4.0999999999999998e-01 -1.4607028547986147e+01 -6.1312546624527506e+00 -3.2694465564644464e+00 -1 -2 -2
1133 378 2 4.0999999999999998e-01 -1.0752884019706890e+01 -8.7169391138763075e+00 -4.8583678794109506e+00 1 -2 2
2319 773 2 4.0999999999999998e-01 -7.6829924814374433e+00 -6.4708453892276356e+00 -5.6732692027375862e+00 -1 -4 0
1843 615 1 -8.1999999999999995e-01 -9.6153630061760254e+00 -1.4756434883736473e+01 -2.1527801237272293e-01 0 -2 -3
1706 569 2 4.0999999999999998e-01 -1.4386957507767349e+01 -9.4630098874557387e+00 -3.6034518228418104e+00 -1 4 -1
304 102 1 -8.1999999999999995e-01 -7.5744561414414182e+00 -9.7186612788372244e+00 -5.5678323718310097e-01 -5 0 0
1931 644 2 4.0999999999999998e-01 -7.7003004961746857e+00 -6.8058609662867564e+00 -1.8448774413278777e+00 -1 -1 -3
825 275 2 4.0999999999999998e-01 -1.4387661548879398e+01 -5.5759509117446839e+00 -1.3799443298466567e+00 0 0 1
1708 570 1 -8.1999999999999995e-01 -1.4732703970240872e+01 -1.0740753753304919e+01 -6.2232435348057518e+00 2 0 1
2057 686 2 4.0999999999999998e-01 -9.7717940550232285e+00 -5.3138327854053617e+00 -3.4735034362075687e+00 -2 0 -2
1619 540 2 4.0999999999999998e-01 -7.7945257439692543e+00 -8.2158129501006947e+00 -7.3893237948771375e+00 3 -2 -2
732 244 2 4.0999999999999998e-01 -1.3670099776705067e+01 -1.1942370690172508e+01 -7.9994916042919328e-01 -2 0 -2
824 275 2 4.0999999999999998e-01 -1.3037661551220523e+01 -5.1443879994000579e+00 -5.6881462744215128e-01 0 0 1
2056 686 1 -8.1999999999999995e-01 -1.0142992193734532e+01 -5.2484409190011156e+00 -2.5472447561117431e+00 -2 0 -2
2332 778 1 -8.1999999999999995e-01 -1.3454288292478681e+01 -6.7179107739102815e+00 -7.2961160038399973e+00 -3 1 2
55 19 1 -8.1999999999999995e-01 -9.1589661356573622e+00 -5.3791383198800862e+00 -5.3970453058781729e+00 -2 -4 2
57 19 2 4.0999999999999998e-01 -9.7917635978455717e+00 -5.9862504122732059e+00 -5.8776714892120836e+00 -2 -4 2
2052 684 2 4.0999999999999998e-01 -1.0493461111818689e+01 -9.8914271604786990e+00 -7.0120422603127217e+00 5 -1 -3
1936 646 1 -8.1999999999999995e-01 -9.3131393624438594e+00 -1.1736349996327634e+01 -6.1297067125591909e-02 1 -1 -1
1937 646 2 4.0999999999999998e-01 -8.5862052381669400e+00 -1.1053554093323598e+01 -1.3461722174294444e-01 1 -1 -1
2224 742 1 -8.1999999999999995e-01 -4.6041282286136997e+00 -9.9350764389443018e+00 -6.3427259938474769e+00 -2 0 0
91 31 1 -8.1999999999999995e-01 -6.8469830291874505e+00 -1.4503663000160993e+01 -2.5213730618476369e+00 1 -1 0
1746 582 2 4.0999999999999998e-01 -2.1479812904137869e+00 -1.1663726941307635e+01 -3.6293710622478308e+00 -2 -1 0
964 322 1 -8.1999999999999995e-01 -2.9877844470217418e-01 -9.2063704755808562e+00 -3.5752628271279541e-01 2 1 -1
1467 489 2 4.0999999999999998e-01 -7.3593862692147658e+00 -1.4230002755074075e+01 -6.0395385208305274e+00 2 -2 -1
1237 413 1 -8.1999999999999995e-01 -3.6626619272012384e-01 -1.4419835078003871e+01 -3.5283315551041188e+00 -1 0 -3
1932 644 2 4.0999999999999998e-01 -6.1884467132077230e+00 -7.2091917648636494e+00 -2.3121036895370288e+00 -1 -1 -3
1239 413 2 4.0999999999999998e-01 -8.4074585043981465e-01 -1.4423532806110016e+01 -4.4086012118587341e+00 -1 0 -3
928 310 1 -8.1999999999999995e-01 -5.5571005556415507e+00 -1.1116048881299232e+01 -1.8556737581029719e+00 0 -2 -1
1522 508 1 -8.1999999999999995e-01 -5.9174544529576654e+00 -1.4783602350505465e+01 -7.1875264216616674e+00 1 -1 2
2317 773 1 -8.1999999999999995e-01 -7.1207374738646116e+00 -7.1689270637798321e+00 -6.1166320270812395e+00 -1 -4 0
1030 344 1 -8.1999999999999995e-01 -3.9473663296799035e+00 -1.3430446955493952e+01 -1.3262977514109533e+00 -2 -1 0
2184 728 2 4.0999999999999998e-01 -2.2184365839569899e+00 -1.4198720596811228e+01 -6.4236546604568190e+00 0 0 -1
2318 773 2 4.0999999999999998e-01 -6.3349742662744806e+00 -6.7341223243672275e+00 -6.5565641698986479e+00 -1 -4 0
400 134 1 -8.1999999999999995e-01 -4.4307164534393806e-01 -9.9610863230662225e+00 -5.2240960261914378e+00 -3 -2 -2
1191 397 2 4.0999999999999998e-01 -5.4165339456816302e+00 -8.6454345792459364e+00 -3.9910898605423935e+00 3 -1 -1
1190 397 2 4.0999999999999998e-01 -6.6863374976369094e+00 -8.3256798817149935e+00 -4.9668120153917830e+00 3 -1 -1
402 134 2 4.0999999999999998e-01 -1.3288612726433300e+00 -1.0377591371799525e+01 -5.4288387182667801e+00 -3 -2 -2
2322 774 2 4.0999999999999998e-01 -3.7902066423554803e+00 -5.0756592336305033e+00 -5.5777274745705085e-01 4 0 0
1223 408 2 4.0999999999999998e-01 -4.4236027822774453e+00 -7.1511866617706001e+00 -1.8397982996668851e+00 1 -1 -1
1031 344 2 4.0999999999999998e-01 -3.8347735869212176e+00 -1.4368825490657667e+01 -9.9951361991657350e-01 -2 -1 0
1320 440 2 4.0999999999999998e-01 -4.2246474861820413e+00 -6.4238745663883385e+00 -6.7123093031465526e+00 0 0 -2
1189 397 1 -8.1999999999999995e-01 -6.2914158926990105e+00 -8.9896582052866520e+00 -4.3318403756689641e+00 3 -1 -1
1930 644 1 -8.1999999999999995e-01 -6.9144279738785874e+00 -6.5266833484899038e+00 -2.3966777242332036e+00 -1 -1 -3
2320 774 1 -8.1999999999999995e-01 -4.4624288860265207e+00 -5.5282032492412263e+00 -1.1437253624724892e+00 4 0 0
1069 357 1 -8.1999999999999995e-01 -5.7081626345280885e+00 -1.2207474273646078e+01 -4.4734880901243450e+00 1 1 -3
1070 357 2 4.0999999999999998e-01 -6.4923485056978354e+00 -1.2458766862867769e+01 -5.0408714293178107e+00 1 1 -3
1071 357 2 4.0999999999999998e-01 -4.9340848378374815e+00 -1.2801363096428297e+01 -4.6928482995064744e+00 1 1 -3
1166 389 2 4.0999999999999998e-01 -2.1850961491596035e+00 -7.3336845943930422e+00 -6.5814004176615182e+00 1 0 0
1614 538 2 4.0999999999999998e-01 -2.3885358584372245e+00 -1.2064293798211434e+01 -6.2999616453636254e+00 3 -2 -1
1222 408 1 -8.1999999999999995e-01 -4.4669910823202432e+00 -8.0252155688299318e+00 -2.3237510073611389e+00 1 -1 -1
306 102 2 4.0999999999999998e-01 -6.8956225701076850e+00 -1.0171676521654472e+01 -1.1346945580928125e+00 -5 0 0
1745 582 2 4.0999999999999998e-01 -8.6145769409919204e-01 -1.1669144588350139e+01 -2.6236347136125886e+00 -2 -1 0
929 310 2 4.0999999999999998e-01 -4.9380275536944058e+00 -1.1803971740436603e+01 -1.4768201319013201e+00 0 -2 -1
1224 408 2 4.0999999999999998e-01 -4.6597565283045004e+00 -8.7582179939856566e+00 -1.6713950994031279e+00 1 -1 -1
1165 389 1 -8.1999999999999995e-01 -3.0247534926069672e+00 -7.5068031751071818e+00 -6.0665948584915874e+00 1 0 0
930 310 2 4.0999999999999998e-01 -5.5421419881318776e+00 -1.1167978483127715e+01 -2.8542221419728850e+00 0 -2 -1
939 313 2 4.0999999999999998e-01 -2.8686576940709454e+00 -7.9983149195095589e+00 -3.1310701593093562e+00 -3 -2 0
1032 344 2 4.0999999999999998e-01 -3.0503804760235127e+00 -1.3039458876031281e+01 -1.5326081162447185e+00 -2 -1 0
938 313 2 4.0999999999999998e-01 -1.2392677071787901e+00 -7.9856275675883506e+00 -3.2387978802513651e+00 -3 -2 0
2226 742 2 4.0999999999999998e-01 -5.5386778143764221e+00 -9.8916474956028146e+00 -5.9895259129112315e+00 -2 0 0
937 313 1 -8.1999999999999995e-01 -2.0883992933277895e+00 -7.6790779998937140e+00 -3.6689399585286555e+00 -3 -2 0
1613 538 2 4.0999999999999998e-01 -3.3693525939838747e+00 -1.0961207453791914e+01 -5.6014797396523530e+00 3 -2 -1
1744 582 1 -8.1999999999999995e-01 -1.8535292709845468e+00 -1.1556593182947482e+01 -2.6797186815488132e+00 -2 -1 0
1612 538 1 -8.1999999999999995e-01 -2.5970218014110049e+00 -1.1578401775886695e+01 -5.4511613806772239e+00 3 -2 -1
1974 658 2 4.0999999999999998e-01 -1.8490761131078539e+00 -5.8057040256174783e+00 -3.1457076876226520e+00 -3 3 -1
2225 742 2 4.0999999999999998e-01 -4.1714205119526895e+00 -9.0381279787063562e+00 -6.2518041012096379e+00 -2 0 0
2447 816 2 4.0999999999999998e-01 -2.8204799997576053e+00 -1.0590327822324188e+01 -1.1070347254631940e+00 -1 0 1
1167 389 2 4.0999999999999998e-01 -2.8549329331090973e+00 -7.3586165298509600e+00 -5.0923151274414362e+00 1 0 0
949 317 1 -8.1999999999999995e-01 -7.2655635605225477e-01 -6.1687383500404316e+00 -7.0822372460048282e+00 2 -2 -1
2446 816 1 -8.1999999999999995e-01 -3.0938734520858038e+00 -1.0530401349208056e+01 -1.4699090009883520e-01 -1 0 1
93 31 2 4.0999999999999998e-01 -6.2530936990579740e+00 -1.3870268899119585e+01 -2.0252615096953033e+00 1 -1 0
1318 440 1 -8.1999999999999995e-01 -4.8416019069895313e+00 -5.7695090854406761e+00 -7.1495647983989148e+00 0 0 -2
950 317 2 4.0999999999999998e-01 -1.1134338686663128e+00 -5.4381506887333462e+00 -6.5195768118896407e+00 2 -2 -1
965 322 2 4.0999999999999998e-01 -2.4918802641703941e-01 -8.2720430590715992e+00 -4.5498313153018444e-03 2 1 -1
2293 765 1 -8.1999999999999995e-01 -8.9945964245105792e+00 -1.2929752708765854e+01 2.5519475194965420e+00 0 -1 -1
2295 765 2 4.0999999999999998e-01 -8.4059775230457436e+00 -1.3738174978927020e+01 2.5512695700894010e+00 0 -1 -1
584 195 2 4.0999999999999998e-01 -1.0860977535581176e+01 -9.5627416449389955e+00 4.3937441288076098e+00 2 2 1
272 91 2 4.0999999999999998e-01 -1.0518593660666781e+01 -1.0572728456345118e+01 8.5970731135336109e-01 0 3 -2
583 195 1 -8.1999999999999995e-01 -9.9620237231349442e+00 -9.6020409795334363e+00 3.9574450160969175e+00 2 2 1
2098 700 1 -8.1999999999999995e-01 -1.1366468886833516e+01 -1.3211418957384861e+01 3.8777645651232522e+00 1 -2 -4
322 108 1 -8.1999999999999995e-01 -8.8911495588927369e+00 -1.1518926193393595e+01 5.3963475924941893e+00 0 2 -1
323 108 2 4.0999999999999998e-01 -9.6694973303207554e+00 -1.1827599103714299e+01 5.9430788709769597e+00 0 2 -1
324 108 2 4.0999999999999998e-01 -8.3484153656119240e+00 -1.2309588736091136e+01 5.1129545626237114e+00 0 2 -1
2100 700 2 4.0999999999999998e-01 -1.1764473067626277e+01 -1.4055870355788462e+01 3.5192763071358986e+00 1 -2 -4
2294 765 2 4.0999999999999998e-01 -9.0474223008305206e+00 -1.2555130468828962e+01 1.6262656695351669e+00 0 -1 -1
2099 700 2 4.0999999999999998e-01 -1.0502705099056012e+01 -1.3025052328675811e+01 3.4095777067651465e+00 1 -2 -4
271 91 1 -8.1999999999999995e-01 -1.1239311060975215e+01 -1.0307852383586273e+01 1.5003526135821961e+00 0 3 -2
2432 811 2 4.0999999999999998e-01 -9.4837907157225736e+00 -6.5960034697455487e+00 3.1764537879676826e+00 -3 1 -4
443 148 2 4.0999999999999998e-01 -1.3029860559111889e+01 -9.8033683708366208e+00 4.9734478772150457e+00 0 1 -4
2433 811 2 4.0999999999999998e-01 -9.8671101995299431e+00 -7.8115655915462616e+00 4.1973126694178351e+00 -3 1 -4
444 148 2 4.0999999999999998e-01 -1.2895859184770810e+01 -8.2320185207173431e+00 5.3972181574155460e+00 0 1 -4
60 20 2 4.0999999999999998e-01 -1.3021666652456886e+01 -1.1794747101331723e+01 3.7930107886108413e+00 2 0 -1
2431 811 1 -8.1999999999999995e-01 -9.9594925911019452e+00 -6.8310143744292056e+00 4.0240957479725612e+00 -3 1 -4
59 20 2 4.0999999999999998e-01 -1.3057511931336270e+01 -1.0575323070935143e+01 2.7074703161845566e+00 2 0 -1
2240 747 2 4.0999999999999998e-01 -1.0861114591422700e+01 -1.4311907313512535e+01 5.3242968581603076e+00 5 -1 -1
442 148 1 -8.1999999999999995e-01 -1.2389165204207018e+01 -9.0516755889856011e+00 5.1299302487771232e+00 0 1 -4
731 244 2 4.0999999999999998e-01 -1.2996359450056250e+01 -1.1536560130865539e+01 6.3115869579322137e-01 -2 0 -2
1440 480 2 4.0999999999999998e-01 -1.1611222029571966e+01 -1.2415922417401010e+01 5.7662260497074787e+00 0 -2 -3
2092 698 1 -8.1999999999999995e-01 -1.4052316870576433e+01 -6.9586572151351866e+00 5.4863445134431945e+00 -1 2 -4
585 195 2 4.0999999999999998e-01 -9.3416275736885677e+00 -1.0147625020306066e+01 4.5208862198753348e+00 2 2 1
571 191 1 -8.1999999999999995e-01 -1.1680775154971435e+01 -6.9318309288774795e+00 1.7028918736820788e+00 -1 -1 -1
273 91 2 4.0999999999999998e-01 -1.0854067827213607e+01 -1.0223987854825866e+01 2.4193595260633689e+00 0 3 -2
1438 480 1 -8.1999999999999995e-01 -1.1456822263869375e+01 -1.1919847385246744e+01 6.6206788462605086e+00 0 -2 -3
58 20 1 -8.1999999999999995e-01 -1.3516570357048149e+01 -1.0976653677510743e+01 3.5000726126177835e+00 2 0 -1
2094 698 2 4.0999999999999998e-01 -1.4273985364255136e+01 -6.3152377515595273e+00 6.2190748687703863e+00 -1 2 -4