LAMMPS data file via write_data, version 15 May 2015, timestep = 23005000

2611 atoms
6 atom types
1749 bonds
4 bond types
894 angles
3 angle types
44 dihedrals
3 dihedral types
10 impropers
1 improper types

-1.4949349377450437e+01 1.4949349377450437e+01 xlo xhi
-1.4949349377450437e+01 1.4949349377450437e+01 ylo yhi
-1.4949349377450437e+01 1.4949349377450437e+01 zlo zhi

Masses

1 15.9994
2 1.00794
3 12.0107
4 1.00794
5 12.0107
6 12.0107

Bond Coeffs # harmonic

1 1000 1
2 469 1.4
3 367 1.08
4 469 0.7

Angle Coeffs # harmonic

1 100 109.47
2 35 120
3 63 120

Dihedral Coeffs # opls

1 0 7.25 0 0
2 0 7.25 0 0
3 0 7.25 0 0

Improper Coeffs # cvff

1 2.5 -1 2

Atoms # full

625 209 1 -8.1999999999999995e-01 -1.0521419503354007e+01 -1.3023924550950735e+01 -1.3737685116153244e+01 -2 -1 -3
1637 546 2 4.0999999999999998e-01 -1.0001224196239789e+01 -8.7364756776824173e+00 -1.3259885513854925e+01 3 0 1
1638 546 2 4.0999999999999998e-01 -9.4166241680436649e+00 -9.9618440878767700e+00 -1.4167275589132503e+01 3 0 1
1636 546 1 -8.1999999999999995e-01 -9.3037413945392782e+00 -9.4509531370746789e+00 -1.3315070419630885e+01 3 0 1
555 185 2 4.0999999999999998e-01 -9.9395366565627725e+00 -6.9583890942389575e+00 -1.2774563684151834e+01 1 -2 -1
553 185 1 -8.1999999999999995e-01 -1.0691511998487620e+01 -7.2054300254657679e+00 -1.3385717960332578e+01 1 -2 -1
1885 629 1 -8.1999999999999995e-01 -8.6513638958147663e+00 -6.6490193506578716e+00 -1.1707824413710107e+01 -7 -4 -3
554 185 2 4.0999999999999998e-01 -1.0832005297555103e+01 -6.4745925155461457e+00 -1.4053657962750256e+01 1 -2 -1
373 125 1 -8.1999999999999995e-01 -1.3029253310712525e+01 -8.5809864050627507e+00 -9.1408146972748554e+00 2 -6 3
2111 704 2 4.0999999999999998e-01 -1.3444236714498414e+01 -5.7184852949999527e+00 -1.1786702077578855e+01 1 -7 4
768 256 2 4.0999999999999998e-01 -8.2489341063381758e+00 -1.3496710125933122e+01 -1.1218201793501686e+01 2 -6 -3
1961 654 2 4.0999999999999998e-01 -1.2931903130756787e+01 -1.1911595493082393e+01 -9.3793178106976516e+00 2 -2 -2
2493 831 2 4.0999999999999998e-01 -1.1991458609882187e+01 -7.8055211614258244e+00 -1.2322725454101274e+01 1 0 -1
1936 646 1 -8.1999999999999995e-01 -9.1431080006551628e+00 -1.1352756255723326e+01 -8.1509148660774393e+00 0 -6 3
767 256 2 4.0999999999999998e-01 -7.7291929672053072e+00 -1.4569370973432134e+01 -1.2334404927111979e+01 2 -6 -3
374 125 2 4.0999999999999998e-01 -1.3800218472011235e+01 -8.1454709546868109e+00 -8.6761162013645254e+00 2 -6 3
2417 806 2 4.0999999999999998e-01 -1.1644822905382025e+01 -9.2898909354770574e+00 -7.8973698351363746e+00 1 -5 0
375 125 2 4.0999999999999998e-01 -1.2859327247337657e+01 -8.1175485088565011e+00 -1.0010502082788019e+01 2 -6 3
2492 831 2 4.0999999999999998e-01 -1.3567185591685970e+01 -8.2333645190761136e+00 -1.2348727604979285e+01 1 0 -1
2279 760 2 4.0999999999999998e-01 -8.0173871562437107e+00 -1.1647148792722408e+01 -1.1651024415092285e+01 0 -2 -5
626 209 2 4.0999999999999998e-01 -1.1214768531862463e+01 -1.2850829777461776e+01 -1.4437192806401965e+01 -2 -1 -3
2491 831 1 -8.1999999999999995e-01 -1.2860302716033178e+01 -7.7518973261682822e+00 -1.1830546553338431e+01 1 0 -1
267 89 2 4.0999999999999998e-01 -1.0499443197503371e+01 -1.2649296523783541e+01 -1.0505900757559754e+01 -4 -8 8
384 128 2 4.0999999999999998e-01 -7.6916827851596619e+00 -5.9088689426797458e+00 -1.4629148375134793e+01 -1 -3 2
1960 654 1 -8.1999999999999995e-01 -1.2349705156497890e+01 -1.2724454555712487e+01 -9.3616732881239422e+00 2 -2 -2
627 209 2 4.0999999999999998e-01 -1.0969274505626984e+01 -1.3271527836518207e+01 -1.2878543576110411e+01 -2 -1 -3
1962 654 2 4.0999999999999998e-01 -1.2390009489117331e+01 -1.3143686975236079e+01 -8.4546862942452528e+00 2 -2 -2
266 89 2 4.0999999999999998e-01 -9.2167133592347881e+00 -1.1940803004138527e+01 -9.7852880516812402e+00 -4 -8 8
265 89 1 -8.1999999999999995e-01 -9.5013631546804618e+00 -1.2588993667612440e+01 -1.0491566348478031e+01 -4 -8 8
2280 760 2 4.0999999999999998e-01 -7.7926872076647316e+00 -1.0241884436874912e+01 -1.2451888738739616e+01 0 -2 -5
1832 611 2 4.0999999999999998e-01 -1.0330635850432504e+01 -5.8777197386938287e+00 -8.8238669368994245e+00 3 -8 -4
2100 700 2 4.0999999999999998e-01 -1.0391534173886431e+01 -1.4446631560979489e+01 -8.3552616928416192e+00 -7 -5 -3
968 323 2 4.0999999999999998e-01 -1.3706824796633631e+01 -9.9885217794360344e+00 -9.7258352634163323e+00 -2 -7 4
1886 629 2 4.0999999999999998e-01 -8.3701118151548144e+00 -7.1951709465972540e+00 -1.0918760811347999e+01 -7 -4 -3
1831 611 1 -8.1999999999999995e-01 -9.8621055382379623e+00 -6.6765947640057774e+00 -8.4466618238148481e+00 3 -8 -4
1833 611 2 4.0999999999999998e-01 -9.0424984596061808e+00 -6.8680977099164124e+00 -8.9866400857395305e+00 3 -8 -4
2351 784 2 4.0999999999999998e-01 -9.0691113578051397e+00 -1.3437454396208917e+01 -1.4649194288548552e+01 1 -1 4
2383 795 1 -8.1999999999999995e-01 -1.1858206157194909e+01 -1.4320486887576186e+01 -1.1545777201267825e+01 6 -6 0
1887 629 2 4.0999999999999998e-01 -8.5979469037636349e+00 -5.6775218421663638e+00 -1.1476859308400444e+01 -7 -4 -3
2098 700 1 -8.1999999999999995e-01 -9.9687910462166229e+00 -1.4107648423614652e+01 -7.5147949568328549e+00 -7 -5 -3
2384 795 2 4.0999999999999998e-01 -1.2062384667739078e+01 -1.3602656446299415e+01 -1.0880167500396576e+01 6 -6 0
967 323 1 -8.1999999999999995e-01 -1.4297823342363161e+01 -1.0794381896632217e+01 -9.6895604750892179e+00 -2 -7 4
2036 679 2 4.0999999999999998e-01 -1.4396838558462923e+01 -1.2918606336124569e+01 -1.4291987441833252e+01 5 -6 0
1626 542 2 4.0999999999999998e-01 -1.3979217822939779e+01 -1.4290811114984791e+01 -7.8187795878569615e+00 5 -2 6
1938 646 2 4.0999999999999998e-01 -9.4924560128682991e+00 -1.2195187766525946e+01 -7.7407066443402339e+00 0 -6 3
1937 646 2 4.0999999999999998e-01 -9.7075474522533582e+00 -1.0580734975680290e+01 -7.8586873627020672e+00 0 -6 3
1606 536 1 -8.1999999999999995e-01 -1.4835783221448693e+01 -1.3533357270392390e+01 -1.1475481318631767e+01 -4 -4 1
1593 531 2 4.0999999999999998e-01 -1.4930844491690570e+01 -8.8834893416635623e+00 -1.3976077661895106e+01 0 -7 -2
1607 536 2 4.0999999999999998e-01 -1.4839537681121628e+01 -1.2553819181346380e+01 -1.1274243418492917e+01 -4 -4 1
2418 806 2 4.0999999999999998e-01 -1.0365862503360063e+01 -8.3341545789478602e+00 -7.5546310310656848e+00 1 -5 0
137 46 2 4.0999999999999998e-01 -6.3048176170230086e-01 -1.3609184956104075e+01 -8.4475340152046900e+00 5 -6 4
571 191 1 -8.1999999999999995e-01 -3.7945847863783477e-01 -7.7056937741021549e+00 -1.0212451113483027e+01 0 -5 3
2011 671 1 -8.1999999999999995e-01 -6.5362382249095319e-01 -9.7115556226769648e+00 -1.4847447273071674e+01 -6 -6 -3
1635 545 2 4.0999999999999998e-01 -2.6388306724982336e+00 -1.2854480011621380e+01 -1.4796544979149358e+01 3 -1 2
2485 829 1 -8.1999999999999995e-01 -2.0960767155880813e+00 -1.4641894917243309e+01 -1.2121582401979332e+01 -4 -7 6
1358 453 2 4.0999999999999998e-01 -7.2843362390588382e+00 -1.0957820731418636e+01 -7.9583424871110804e+00 4 -10 3
749 250 2 4.0999999999999998e-01 -6.0383777245239720e+00 -5.8140344060680764e+00 -1.2518434372647402e+01 -2 -4 4
1852 618 1 -8.1999999999999995e-01 -1.9301486286823977e+00 -1.0289943389918962e+01 -1.2345798664762192e+01 -4 -4 5
383 128 2 4.0999999999999998e-01 -7.3354018957754086e+00 -7.3648919257225707e+00 -1.3981303782912669e+01 -1 -3 2
382 128 1 -8.1999999999999995e-01 -7.3862096693688644e+00 -6.8395071704725279e+00 -1.4830653586002107e+01 -1 -3 2
1364 455 2 4.0999999999999998e-01 -2.7888682263360476e+00 -6.9066556649276070e+00 -9.9343206133560962e+00 4 -8 0
1987 663 1 -8.1999999999999995e-01 -4.8891237506766974e+00 -1.3401079150115017e+01 -1.0838541080273036e+01 1 -4 -5
1105 369 1 -8.1999999999999995e-01 -3.3890951192021390e-01 -1.2155778659042374e+01 -1.1089942827533314e+01 1 -7 3
1569 523 2 4.0999999999999998e-01 -7.2937664372914401e+00 -1.4948030386940944e+01 -9.7547924578920515e+00 1 -2 1
1107 369 2 4.0999999999999998e-01 -1.0658183544651525e+00 -1.1547989951868704e+01 -1.1409633438613183e+01 1 -7 3
1259 420 2 4.0999999999999998e-01 -9.6447314686654906e-02 -6.2977483311836249e+00 -1.1823135985453074e+01 0 -7 -3
2278 760 1 -8.1999999999999995e-01 -7.3594855795978793e+00 -1.0924638757117187e+01 -1.1863510827995611e+01 0 -2 -5
2013 671 2 4.0999999999999998e-01 -9.1433820476888705e-01 -9.8638817831161276e+00 -1.3894121296709852e+01 -6 -6 -3
1363 455 1 -8.1999999999999995e-01 -3.0883135937608639e+00 -6.1476405633545728e+00 -1.0512450542086986e+01 4 -8 0
2487 829 2 4.0999999999999998e-01 -2.5533084089236180e+00 -1.4087093250645280e+01 -1.2816665108973595e+01 -4 -7 6
1106 369 2 4.0999999999999998e-01 -6.4278797233748541e-01 -1.2634298541388841e+01 -1.0266121081256546e+01 1 -7 3
1950 650 2 4.0999999999999998e-01 -7.2545496551676933e+00 -7.3242500974024685e+00 -8.5432097249950338e+00 2 0 -6
1633 545 1 -8.1999999999999995e-01 -3.2685894812035325e+00 -1.3268138465817186e+01 -1.4139052621764382e+01 3 -1 2
1948 650 1 -8.1999999999999995e-01 -7.3657828010719184e+00 -7.6612857426963412e+00 -9.4781107031000360e+00 2 0 -6
1949 650 2 4.0999999999999998e-01 -6.8414446268379834e+00 -8.5050339625785867e+00 -9.5928455214032784e+00 2 0 -6
766 256 1 -8.1999999999999995e-01 -7.4418200381380766e+00 -1.3898054363284425e+01 -1.1651209148626119e+01 2 -6 -3
2486 829 2 4.0999999999999998e-01 -2.5804742482882848e+00 -1.4551674033733642e+01 -1.1251395710977292e+01 -4 -7 6
1248 416 2 4.0999999999999998e-01 -6.0156984254863666e+00 -1.1598113487439409e+01 -1.3540103673945794e+01 -8 -4 -3
2541 847 2 4.0999999999999998e-01 -1.4269070796706149e+00 -1.1312591545663089e+01 -7.7420194622711875e+00 1 0 -1
1989 663 2 4.0999999999999998e-01 -4.6552074766637368e+00 -1.2442585592986333e+01 -1.0675510625544376e+01 1 -4 -5
362 121 2 4.0999999999999998e-01 -4.3137636457244124e+00 -1.4041031526792040e+01 -9.3400263032408937e+00 1 -2 -2
361 121 1 -8.1999999999999995e-01 -3.8128424590007359e+00 -1.3840506458708212e+01 -8.4980801452276324e+00 1 -2 -2
1928 643 2 4.0999999999999998e-01 -4.3123350350586342e+00 -1.0328687153221640e+01 -1.4505528631513412e+01 2 -2 4
1314 438 2 4.0999999999999998e-01 -3.7233357075012687e+00 -9.0053258359454702e+00 -9.7347829590571990e+00 8 -5 0
572 191 2 4.0999999999999998e-01 -1.1942363724395459e+00 -8.1237459346538383e+00 -9.8107359738813571e+00 0 -5 3
236 79 2 4.0999999999999998e-01 -5.1397949120575710e+00 -8.3578683971017043e+00 -1.2059244501573152e+01 1 -9 -6
2199 733 2 4.0999999999999998e-01 -1.9960544419344668e+00 -5.0449580795329094e+00 -1.4544177052813129e+01 -1 -10 -2
1634 545 2 4.0999999999999998e-01 -4.1436430686993067e+00 -1.2784868421655631e+01 -1.4166199470462013e+01 3 -1 2
1988 663 2 4.0999999999999998e-01 -5.6193789697283858e+00 -1.3454769778110412e+01 -1.1519606632993195e+01 1 -4 -5
1357 453 1 -8.1999999999999995e-01 -6.3247797347631529e+00 -1.0792844907524461e+01 -7.7302197932020897e+00 4 -10 3
1365 455 2 4.0999999999999998e-01 -3.5939878730186017e+00 -6.5058147928478220e+00 -1.1297313847928256e+01 4 -8 0
1246 416 1 -8.1999999999999995e-01 -5.6485487732025881e+00 -1.1907808009214378e+01 -1.4417198938356552e+01 -8 -4 -3
237 79 2 4.0999999999999998e-01 -4.1693866076320756e+00 -7.7147448114399841e+00 -1.3204382652446172e+01 1 -9 -6
1312 438 1 -8.1999999999999995e-01 -2.7247854154160294e+00 -8.9680080776352522e+00 -9.6959196347527374e+00 8 -5 0
982 328 1 -8.1999999999999995e-01 -5.3929280253696508e+00 -9.8306225966123968e+00 -1.0203668063866598e+01 1 -4 5
1313 438 2 4.0999999999999998e-01 -2.3896985086614677e+00 -9.6639272874565592e+00 -9.0607669957221120e+00 8 -5 0
1927 643 1 -8.1999999999999995e-01 -3.7943363629719400e+00 -9.4985411473454704e+00 -1.4299274792641880e+01 2 -2 4
1854 618 2 4.0999999999999998e-01 -2.1457861630876849e+00 -9.5826158864198394e+00 -1.1672601876297657e+01 -4 -4 5
1853 618 2 4.0999999999999998e-01 -2.5515941521408561e+00 -1.0208967297905488e+01 -1.3125063703436515e+01 -4 -4 5
235 79 1 -8.1999999999999995e-01 -4.7144785477643474e+00 -7.5154388881358178e+00 -1.2390037763937579e+01 1 -9 -6
984 328 2 4.0999999999999998e-01 -5.5304511268606849e+00 -1.0120253021873165e+01 -9.2564577960812287e+00 1 -4 5
138 46 2 4.0999999999999998e-01 -2.2087000981389000e+00 -1.3255499426880471e+01 -8.2222006850392884e+00 5 -6 4
983 328 2 4.0999999999999998e-01 -6.1106158092261271e+00 -1.0222220853625807e+01 -1.0779498540209300e+01 1 -4 5
136 46 1 -8.1999999999999995e-01 -1.3138612562105862e+00 -1.2879270159242788e+01 -8.4624519860807883e+00 5 -6 4
363 121 2 4.0999999999999998e-01 -4.4605728116176682e+00 -1.3612479301908403e+01 -7.7711312593150099e+00 1 -2 -2
1258 420 1 -8.1999999999999995e-01 -3.1484609009579501e-02 -5.6487194641805338e+00 -1.2581124801013619e+01 0 -7 -3
1260 420 2 4.0999999999999998e-01 -9.3163454893343278e-01 -5.2500688630036301e+00 -1.2756662413178130e+01 0 -7 -3
1359 453 2 4.0999999999999998e-01 -5.8840219011806383e+00 -1.1659467767858871e+01 -7.4963329995967243e+00 4 -10 3
1247 416 2 4.0999999999999998e-01 -6.3354780174179695e+00 -1.2459834690467453e+01 -1.4889851485942453e+01 -8 -4 -3
2456 819 2 4.0999999999999998e-01 -1.3126893806416458e+01 -8.3972339751546734e+00 -4.5090451111762757e+00 0 -4 3
1474 492 1 -8.1999999999999995e-01 -1.0461400793638230e+01 -9.6452515045338245e+00 -2.7724902952799919e+00 -1 -5 -4
1475 492 2 4.0999999999999998e-01 -1.0887378588129543e+01 -9.9667317913041913e+00 -3.6181846936310027e+00 -1 -5 -4
2455 819 1 -8.1999999999999995e-01 -1.3770833164028376e+01 -7.6334214919450760e+00 -4.4650195828940671e+00 0 -4 3
449 150 2 4.0999999999999998e-01 -1.3498097498771067e+01 -6.4758798110931544e+00 -1.4629010336586958e+00 -4 -1 0
2457 819 2 4.0999999999999998e-01 -1.3477423153936458e+01 -6.9904537282978723e+00 -3.7575531985436132e+00 0 -4 3
1295 432 2 4.0999999999999998e-01 -1.2396469819845739e+01 -1.1046676390072783e+01 -5.1202141799451013e+00 4 -6 -1
104 35 2 4.0999999999999998e-01 -1.1887905497334172e+01 -1.2956288428597826e+01 -4.5647387535600554e+00 -7 -5 -1
1294 432 1 -8.1999999999999995e-01 -1.2128565207797568e+01 -1.0096944681706439e+01 -4.9582188721447764e+00 4 -6 -1
844 282 1 -8.1999999999999995e-01 -1.4856396425850912e+01 -1.1359164815611953e+01 -4.2254382637530270e+00 -3 -7 7
1049 350 2 4.0999999999999998e-01 -9.8761017285209398e+00 -6.3427528320435282e+00 -2.9685200705889159e+00 -1 -1 1
1476 492 2 4.0999999999999998e-01 -1.0632367665424411e+01 -8.6659046316010606e+00 -2.6645287336211325e+00 -1 -5 -4
103 35 1 -8.1999999999999995e-01 -1.2673996121619062e+01 -1.2649206053414542e+01 -5.1011785071707543e+00 -7 -5 -1
1048 350 1 -8.1999999999999995e-01 -9.7146279311604609e+00 -6.5324317736802158e+00 -3.9370002240592719e+00 -1 -1 1
828 276 2 4.0999999999999998e-01 -1.0704219098078381e+01 -5.8183063478752644e+00 -5.1769573373752689e+00 0 -1 1
2178 726 2 4.0999999999999998e-01 -1.4106116127149560e+01 -7.1076572336367079e+00 -6.3029870782428006e+00 5 -10 -5
2376 792 2 4.0999999999999998e-01 -1.0089584049107465e+01 -1.2039645305295704e+01 -4.4424755747465543e+00 5 -3 -4
2374 792 1 -8.1999999999999995e-01 -1.0048924167965726e+01 -1.2804848835376410e+01 -3.7999679985020745e+00 5 -3 -4
1050 350 2 4.0999999999999998e-01 -8.7636525943483061e+00 -6.3221528051357758e+00 -4.1637916796559828e+00 -1 -1 1
448 150 1 -8.1999999999999995e-01 -1.4372244063063253e+01 -6.0648480074160300e+00 -1.7216022048480184e+00 -4 -1 0
1296 432 2 4.0999999999999998e-01 -1.1855323285927582e+01 -9.6755656630262212e+00 -5.8229640591851162e+00 4 -6 -1
105 35 2 4.0999999999999998e-01 -1.2924318148322882e+01 -1.3357536744095610e+01 -5.7611877431113161e+00 -7 -5 -1
827 276 2 4.0999999999999998e-01 -1.0902508006522952e+01 -5.9631705560966690e+00 -6.7913728483454197e+00 0 -1 1
1781 594 2 4.0999999999999998e-01 -1.0505844405860707e+01 -1.0859746232323346e+01 -1.4031750709605397e+00 6 5 -2
177 59 2 4.0999999999999998e-01 -1.2775343846152181e+01 -1.3832139254797967e+01 -1.7946771036748288e-01 2 -4 1
2375 792 2 4.0999999999999998e-01 -1.0141971875633370e+01 -1.2460849692214785e+01 -2.8656166806910424e+00 5 -3 -4
845 282 2 4.0999999999999998e-01 -1.4018420668185518e+01 -1.1885564165840890e+01 -4.3693341744722414e+00 -3 -7 7
215 72 2 4.0999999999999998e-01 -9.5813799862486988e+00 -1.4461868598839413e+01 -4.0294950696412464e+00 1 -4 -1
2530 844 1 -8.1999999999999995e-01 -1.0251633334867858e+01 -6.7042790409481956e+00 -1.1310505677070584e+00 6 -6 -2
2532 844 2 4.0999999999999998e-01 -1.0203209766085322e+01 -5.8804357811386776e+00 -5.6630009285939487e-01 6 -6 -2
304 102 1 -8.1999999999999995e-01 -8.5379885110634035e+00 -1.3704162639814143e+01 -2.3547982079097984e-01 -6 1 2
1780 594 1 -8.1999999999999995e-01 -1.0363732307934137e+01 -1.1748284212341014e+01 -9.6692962080147993e-01 6 5 -2
1782 594 2 4.0999999999999998e-01 -1.1154868538331240e+01 -1.1970087247127847e+01 -3.9691859296466703e-01 6 5 -2
1624 542 1 -8.1999999999999995e-01 -1.3143747670341513e+01 -1.4239342788062768e+01 -7.2716541064202014e+00 5 -2 6
2099 700 2 4.0999999999999998e-01 -9.3228380772750619e+00 -1.4788060491427022e+01 -7.1686882657646880e+00 -7 -5 -3
305 102 2 4.0999999999999998e-01 -9.1271500500436797e+00 -1.2928188757956494e+01 -4.6077722676917432e-01 -6 1 2
2176 726 1 -8.1999999999999995e-01 -1.4815172380312033e+01 -7.2846635697239659e+00 -6.9855657648624092e+00 5 -10 -5
584 195 2 4.0999999999999998e-01 -7.6345919217988891e+00 -9.3850177470836122e+00 -1.8848859978169390e+00 10 -2 1
986 329 2 4.0999999999999998e-01 -1.4282463688528939e+01 -1.4391383634454455e+01 -1.4610433973716646e+00 3 -2 1
2531 844 2 4.0999999999999998e-01 -9.8853081562966860e+00 -7.4813064378250633e+00 -6.1915216061089318e-01 6 -6 -2
585 195 2 4.0999999999999998e-01 -7.5874704512770110e+00 -8.6495279777351612e+00 -3.3421011610177018e+00 10 -2 1
1976 659 2 4.0999999999999998e-01 -7.7939483426870391e+00 -5.6985133320946328e+00 -7.2788689065817440e+00 2 -3 -1
778 260 1 -8.1999999999999995e-01 -8.1592521291462781e+00 -1.0061820918756894e+01 -4.5798031499587033e-01 0 0 2
780 260 2 4.0999999999999998e-01 -8.9638904793674961e+00 -1.0641202584931756e+01 -5.8790219860428294e-01 0 0 2
2416 806 1 -8.1999999999999995e-01 -1.0868990867303939e+01 -9.1539856890664133e+00 -7.2812366627687597e+00 1 -5 0
902 301 2 4.0999999999999998e-01 -1.4714962355130062e+01 -1.1571784842363233e+01 -7.4434365596030831e+00 1 -1 1
826 276 1 -8.1999999999999995e-01 -1.1240551380454665e+01 -5.5141540002180669e+00 -5.9642595113149923e+00 0 -1 1
1521 507 2 4.0999999999999998e-01 -5.4303751396866886e+00 -1.3990677072035885e+01 -3.6183311666961870e-02 2 -4 -1
1857 619 2 4.0999999999999998e-01 -6.1203639529357599e+00 -1.3116049310333993e+01 -3.7638639846834518e+00 6 0 3
2539 847 1 -8.1999999999999995e-01 -1.4361650737320257e+00 -1.0453024134637172e+01 -7.2310754287376815e+00 1 0 -1
2553 851 2 4.0999999999999998e-01 -6.6635727118264612e+00 -1.0702068959771742e+01 -4.7249269898116708e-01 0 -3 0
2551 851 1 -8.1999999999999995e-01 -5.7070640387065517e+00 -1.0923167718640117e+01 -2.8219764635100297e-01 0 -3 0
755 252 2 4.0999999999999998e-01 -3.9882383910946650e+00 -5.7636603836828719e+00 -4.2989750926629284e+00 8 -3 -6
756 252 2 4.0999999999999998e-01 -4.8466319354575198e+00 -6.7130224647260377e+00 -3.2848184316147790e+00 8 -3 -6
2445 815 2 4.0999999999999998e-01 -2.4927669134095023e+00 -8.8902893147965258e+00 -3.6515888343101857e+00 -1 -5 4
2522 841 2 4.0999999999999998e-01 -4.2577583609222724e+00 -1.1904811990270005e+01 -1.4188271464382876e+00 3 -1 1
1257 419 2 4.0999999999999998e-01 -5.6155199439437489e+00 -8.8402845971268373e+00 -2.0951703173837721e+00 0 -3 -2
2400 800 2 4.0999999999999998e-01 -3.5653236753347937e+00 -8.5677856457499750e+00 -5.9169995757683189e+00 0 -5 -4
2521 841 1 -8.1999999999999995e-01 -3.3380118250914936e+00 -1.2021378151019093e+01 -1.7936396461832000e+00 3 -1 1
91 31 1 -8.1999999999999995e-01 -7.3950219454008819e+00 -5.2335809088657061e+00 -4.3743900298586631e+00 1 -7 4
1472 491 2 4.0999999999999998e-01 -2.4551689097123326e+00 -1.4900492677510416e+01 -3.7328818670742905e+00 3 -8 1
1975 659 1 -8.1999999999999995e-01 -7.2396142027099728e+00 -6.4427567546462168e+00 -6.9062819510221374e+00 2 -3 -1
93 31 2 4.0999999999999998e-01 -6.4607870025005614e+00 -5.4300498207571479e+00 -4.0767144334095047e+00 1 -7 4
1977 659 2 4.0999999999999998e-01 -7.1919613816512360e+00 -6.3569135004160362e+00 -5.9111107130828753e+00 2 -3 -1
1240 414 1 -8.1999999999999995e-01 -4.7850326309842028e+00 -6.1783945167214274e+00 -4.6756206016111435e-01 3 -2 -3
1520 507 2 4.0999999999999998e-01 -6.9671496445846852e+00 -1.4181568159886474e+01 -5.5437852656474895e-01 2 -4 -1
2444 815 2 4.0999999999999998e-01 -1.4195915816119271e+00 -9.3539825507420833e+00 -2.5114463602277954e+00 -1 -5 4
1242 414 2 4.0999999999999998e-01 -4.7428953221469161e+00 -7.0207722862040445e+00 -1.0048048909209868e+00 3 -2 -3
1241 414 2 4.0999999999999998e-01 -4.1809476477255281e+00 -5.4930858198690515e+00 -8.7430397265438131e-01 3 -2 -3
1649 550 2 4.0999999999999998e-01 -6.0072395618971335e+00 -7.8670236525683626e+00 -6.2516243379335457e+00 -2 -5 -1
1471 491 1 -8.1999999999999995e-01 -1.7982459330567213e+00 -1.4146977709806274e+01 -3.7588252445878521e+00 3 -8 1
1519 507 1 -8.1999999999999995e-01 -6.0084266544411218e+00 -1.4389994114390937e+01 -7.4780681801879823e-01 2 -4 -1
1140 380 2 4.0999999999999998e-01 -1.9159665439250482e+00 -1.3361346884685636e+01 -7.9750502093968478e-01 -6 -3 7
2401 801 1 -8.1999999999999995e-01 -5.5802262084043921e+00 -1.0822192119420251e+01 -4.4141611832038112e+00 -1 -5 -9
2403 801 2 4.0999999999999998e-01 -6.1859931924465776e+00 -1.0522089638976677e+01 -3.6772822673751762e+00 -1 -5 -9
754 252 1 -8.1999999999999995e-01 -4.8296023519935964e+00 -5.8350523480050782e+00 -3.7632367920827186e+00 8 -3 -6
2540 847 2 4.0999999999999998e-01 -8.3653126328435334e-01 -1.0532164464168774e+01 -6.4347201370861971e+00 1 0 -1
2402 801 2 4.0999999999999998e-01 -5.3668819458902099e+00 -1.0045856390548355e+01 -5.0072823544310872e+00 -1 -5 -9
2113 705 1 -8.1999999999999995e-01 -5.2626624683689975e+00 -1.2872207540043703e+01 -6.5255300054474450e+00 -2 2 3
1255 419 1 -8.1999999999999995e-01 -4.7575568334859781e+00 -8.3361013708930365e+00 -1.9966601445319867e+00 0 -3 -2
2060 687 2 4.0999999999999998e-01 -4.3059749379743195e-01 -1.3838794206026073e+01 -4.7906283486315093e+00 4 -7 -2
244 82 1 -8.1999999999999995e-01 -5.7761238554530259e-01 -7.0026210526727288e+00 -6.1558636692048605e+00 0 -2 -3
1855 619 1 -8.1999999999999995e-01 -5.9542364204132454e+00 -1.4049830907494259e+01 -3.4469109558744311e+00 6 0 3
2115 705 2 4.0999999999999998e-01 -5.2502105545582989e+00 -1.2184942387321929e+01 -5.7992261941354641e+00 -2 2 3
1138 380 1 -8.1999999999999995e-01 -1.3593805428329109e+00 -1.4162251375082551e+01 -5.7666642351392383e-01 -6 -3 7
2398 800 1 -8.1999999999999995e-01 -2.6286538563704056e+00 -8.6735872634200160e+00 -5.5831413127441518e+00 0 -5 -4
2114 705 2 4.0999999999999998e-01 -5.5656987746111852e+00 -1.3748219926168250e+01 -6.1503274437333690e+00 -2 2 3
2399 800 2 4.0999999999999998e-01 -2.1696250435355342e+00 -9.3952486734727909e+00 -6.1013141006189748e+00 0 -5 -4
1648 550 1 -8.1999999999999995e-01 -5.4396083342397539e+00 -8.6899113871235016e+00 -6.2772412196091842e+00 -2 -5 -1
2523 841 2 4.0999999999999998e-01 -3.0218140071188753e+00 -1.1153546712254592e+01 -2.1769061622594226e+00 3 -1 1
245 82 2 4.0999999999999998e-01 -1.3441857221166167e+00 -7.5825880592031796e+00 -5.8801658579922886e+00 0 -2 -3
1473 491 2 4.0999999999999998e-01 -2.2514062358505900e+00 -1.3299990103935947e+01 -3.4808623102886926e+00 3 -8 1
1256 419 2 4.0999999999999998e-01 -4.0000542344964227e+00 -8.8996428130941556e+00 -2.3262303638225763e+00 0 -3 -2
1650 550 2 4.0999999999999998e-01 -5.8002018926964034e+00 -9.3223641083701416e+00 -6.9627931937739724e+00 -2 -5 -1
1856 619 2 4.0999999999999998e-01 -6.2450355837214495e+00 -1.4135047319948301e+01 -2.4939263413923047e+00 6 0 3
246 82 2 4.0999999999999998e-01 -8.9063120543985086e-01 -6.3355408946552583e+00 -6.8319028428227266e+00 0 -2 -3
583 195 1 -8.1999999999999995e-01 -7.1659791077562645e+00 -9.3512056127550593e+00 -2.7676455923245804e+00 10 -2 1
2443 815 1 -8.1999999999999995e-01 -2.3896313546881593e+00 -9.3120327664668334e+00 -2.7507552200653826e+00 -1 -5 4
1403 468 2 4.0999999999999998e-01 -2.1286428686224834e+00 -9.5353025748789566e+00 -6.6793047721020038e-01 5 -3 -1
150 50 2 4.0999999999999998e-01 -1.1035915485972195e+01 -1.0029135637995264e+01 2.6062208215127765e+00 -6 -2 -8
149 50 2 4.0999999999999998e-01 -1.2659756880689011e+01 -1.0194025750300796e+01 2.5553096711130170e+00 -6 -2 -8
148 50 1 -8.1999999999999995e-01 -1.1900541696602122e+01 -9.5518981034011254e+00 2.4491491548119786e+00 -6 -2 -8
1909 637 1 -8.1999999999999995e-01 -9.5536207959719164e+00 -1.1446334379461559e+01 2.9243480105271349e+00 0 -5 2
1911 637 2 4.0999999999999998e-01 -8.9355658891894905e+00 -1.0698715641485041e+01 3.1674118135280569e+00 0 -5 2
1910 637 2 4.0999999999999998e-01 -1.0025583730312041e+01 -1.1768771993130725e+01 3.7448909060126692e+00 0 -5 2
1356 452 2 4.0999999999999998e-01 -1.4314848646708924e+01 -5.7866152285488770e+00 5.8835508657666740e+00 4 -7 -1
472 158 1 -8.1999999999999995e-01 -1.2072277000469221e+01 -6.7371891682673279e+00 2.5752680694629948e+00 2 -5 4
949 317 1 -8.1999999999999995e-01 -9.0099633925013798e+00 -1.4144395437108598e+01 2.3005441892863363e+00 1 -7 4
415 139 1 -8.1999999999999995e-01 -1.2384452774461128e+01 -1.4102624575158055e+01 2.8894091443523156e+00 1 -1 1
951 317 2 4.0999999999999998e-01 -9.4899641052609667e+00 -1.3267350965687070e+01 2.2805945914776533e+00 1 -7 4
474 158 2 4.0999999999999998e-01 -1.1434362327112375e+01 -6.5209955258165309e+00 3.3144100408971386e+00 2 -5 4
779 260 2 4.0999999999999998e-01 -8.2138091488631364e+00 -9.6104884998072855e+00 4.3270945093103741e-01 0 0 2
1413 471 2 4.0999999999999998e-01 -9.6677807911759288e+00 -7.4619309134172394e+00 5.1741886510797226e+00 -2 -12 -3
1411 471 1 -8.1999999999999995e-01 -9.9151467296721165e+00 -6.8519211388493044e+00 4.4213913113666461e+00 -2 -12 -3
1412 471 2 4.0999999999999998e-01 -9.1201911004834102e+00 -6.3036492976404688e+00 4.1616814418071311e+00 -2 -12 -3
416 139 2 4.0999999999999998e-01 -1.3263507625941450e+01 -1.4369039395269349e+01 3.2847461872919670e+00 1 -1 1
2056 686 1 -8.1999999999999995e-01 -1.3944660721674552e+01 -5.1919437778591497e+00 4.3018882911499166e+00 -1 -5 7
2058 686 2 4.0999999999999998e-01 -1.3330742894142846e+01 -5.8002070220396931e+00 3.7987716250727370e+00 -1 -5 7
417 139 2 4.0999999999999998e-01 -1.1697887401646190e+01 -1.4797006653760384e+01 3.1049716004065839e+00 1 -1 1
473 158 2 4.0999999999999998e-01 -1.2202719457796434e+01 -7.7274498219564878e+00 2.5265414433293198e+00 2 -5 4
306 102 2 4.0999999999999998e-01 -8.8334717183868250e+00 -1.4106469110038551e+01 6.3103322598180789e-01 -6 1 2
176 59 2 4.0999999999999998e-01 -1.2210026811272128e+01 -1.3416779061843531e+01 1.2951624572870397e+00 2 -4 1
2331 777 2 4.0999999999999998e-01 -1.2171678920048700e+01 -5.3481949950676579e+00 1.6446465841632989e+00 4 -1 -3
400 134 1 -8.1999999999999995e-01 -9.4667407303369089e+00 -8.8687183777817449e+00 6.6725886887038524e+00 1 -8 -2
1153 385 1 -8.1999999999999995e-01 -9.0118714310193120e+00 -1.4402647730755138e+01 7.2509858963751146e+00 -4 0 8
1942 648 1 -8.1999999999999995e-01 -9.4322319918109834e+00 -1.1457996788791455e+01 5.7555358902175779e+00 3 0 5
1685 562 2 4.0999999999999998e-01 -7.6671813337731178e+00 -1.3202950227221457e+01 6.6931648624516189e+00 2 -1 -2
950 317 2 4.0999999999999998e-01 -8.1438464561406079e+00 -1.4039303263797812e+01 2.7892187076001438e+00 1 -7 4
1944 648 2 4.0999999999999998e-01 -8.4672413227309171e+00 -1.1586479943344724e+01 5.9842076612112667e+00 3 0 5
721 241 1 -8.1999999999999995e-01 -1.3613490693404451e+01 -1.0247814594020891e+01 7.3512827602095516e+00 -2 -5 1
1217 406 2 4.0999999999999998e-01 -1.4866869566993037e+01 -1.1914734758849573e+01 2.6354665604116310e+00 2 -10 -1
1216 406 1 -8.1999999999999995e-01 -1.3977137782002625e+01 -1.1492008731605912e+01 2.4631711122496736e+00 2 -10 -1
1943 648 2 4.0999999999999998e-01 -9.9854647204341607e+00 -1.2120798750155263e+01 6.2601474106148469e+00 3 0 5
2432 811 2 4.0999999999999998e-01 -9.8955258476943087e+00 -8.0031342605750524e+00 1.7854168131917927e+00 -4 -5 -4
722 241 2 4.0999999999999998e-01 -1.4222358296763536e+01 -1.0482925768483469e+01 6.5936491784398239e+00 -2 -5 1
686 229 2 4.0999999999999998e-01 -1.4514479552187526e+01 -1.3843575955759283e+01 6.2610232211946109e+00 2 -1 2
1218 406 2 4.0999999999999998e-01 -1.3311062818260060e+01 -1.2200497230680309e+01 2.2299462169605899e+00 2 -10 -1
1354 452 1 -8.1999999999999995e-01 -1.4833778085772691e+01 -6.1639830428799911e+00 6.6505655020936540e+00 4 -7 -1
1629 543 2 4.0999999999999998e-01 -1.4537801283651349e+01 -9.6442316032102902e+00 1.3601625446207048e+00 2 -10 -4
401 134 2 4.0999999999999998e-01 -9.6273344079192569e+00 -9.6892744978837193e+00 6.1240424315655257e+00 1 -8 -2
1722 574 2 4.0999999999999998e-01 -1.0320911899138650e+01 -7.4330314134918911e+00 7.0175779628272661e+00 0 -3 -2
2431 811 1 -8.1999999999999995e-01 -9.0081752951744143e+00 -8.0339238460299498e+00 1.3253443580201552e+00 -4 -5 -4
175 59 1 -8.1999999999999995e-01 -1.2190888533679480e+01 -1.3193170184041874e+01 3.2066849600751546e-01 2 -4 1
2433 811 2 4.0999999999999998e-01 -8.5204672917896414e+00 -7.1754626799348307e+00 1.4840610731589106e+00 -4 -5 -4
723 241 2 4.0999999999999998e-01 -1.3569378669705014e+01 -9.2533988786490067e+00 7.4471846692413681e+00 -2 -5 1
422 141 2 4.0999999999999998e-01 -5.0425358417158783e-01 -9.4339020362140857e+00 5.8504287245780038e+00 -4 1 2
2309 770 2 4.0999999999999998e-01 -1.5300242634166548e+00 -1.4341719123844845e+01 5.1883446293922493e+00 -1 -4 5
1309 437 1 -8.1999999999999995e-01 -7.4273091024014102e+00 -5.3907802434807408e+00 8.0526581885536075e-01 -5 -4 1
807 269 2 4.0999999999999998e-01 -4.8044178732974849e+00 -8.8627533826848435e+00 7.4020648614287357e+00 -2 0 -3