2611
Atoms. Timestep: 8000000
O 2.17701 11.9716 10.7268
H 2.77523 12.0194 11.5267
H 1.22253 11.9555 11.0248
O -11.7896 11.2662 -11.045
H -12.6723 10.9427 -10.7041
H -11.4188 10.6015 -11.6936
O -10.2898 -1.93055 8.60901
H -10.8467 -2.62486 9.06497
H -10.7392 -1.64619 7.76207
O 4.80916 3.79196 -7.39937
H 4.62376 2.83086 -7.60431
H 4.81885 3.92561 -6.40833
O -5.4177 2.32521 -13.6333
H -4.81509 1.5611 -13.8638
H -6.28948 1.97163 -13.2941
O -3.51575 4.287 -12.5785
H -4.23805 4.80889 -12.1246
H -3.92218 3.67901 -13.2606
O 11.76 -12.875 8.61793
H 11.181 -13.2823 9.32429
H 12.72 -12.9563 8.886
O 13.5348 -14.7986 -3.00138
H 13.5707 -14.1254 -3.74007
H 14.4637 14.7566 -2.76558
O 10.5906 -12.1447 -0.967254
H 10.8747 -12.0787 -1.92381
H 10.7392 -11.2657 -0.51399
O -7.86098 -13.6255 9.9608
H -7.39743 -14.5 9.81773
H -7.18579 -12.9235 10.1876
O -9.09144 -0.32267 4.54794
H -8.11979 -0.415043 4.76577
H -9.43957 -1.19366 4.20112
O 10.2554 14.5332 -6.85887
H 9.82188 -14.6545 -6.23818
H 9.62735 14.3163 -7.60626
O 3.24232 -1.4769 8.49141
H 4.00012 -2.04608 8.17222
H 3.13679 -1.58605 9.47987
O 9.718 12.5174 -2.64714
H 9.85478 11.7935 -3.32352
H 10.6064 12.8568 -2.33789
O 7.19357 -5.65822 -9.42292
H 6.26685 -5.97205 -9.21601
H 7.17602 -4.67964 -9.6283
O -8.10269 -7.54643 -9.83236
H -8.37497 -8.45616 -9.51873
H -8.86034 -7.12511 -10.3309
O -4.78648 -8.16887 -6.11458
H -5.04646 -7.58685 -5.34402
H -5.35489 -8.99167 -6.11748
O 6.67024 13.1251 -3.14868
H 7.38717 12.995 -3.83366
H 5.9428 12.4549 -3.29616
O -10.805 -4.34076 -5.5257
H -10.7498 -3.44739 -5.07967
H -9.88538 -4.64915 -5.76925
O -14.3242 -11.454 3.82817
H -14.5599 -10.6796 3.241
H -13.6866 -12.0555 3.34666
O 0.951455 7.36634 11.4902
H 1.19326 6.68632 12.1825
H 0.846411 6.91636 10.6033
O 4.8092 -12.5212 11.3931
H 5.30248 -12.1823 10.5919
H 4.96346 -11.9044 12.165
O -10.7211 1.81951 12.8182
H -10.8375 0.827559 12.7673
H -11.349 2.19425 13.5004
O -0.869819 -9.71968 8.72759
H -1.5452 -10.3951 8.43128
H -0.383535 -9.3625 7.93006
O 10.5407 -0.989154 4.66321
H 9.95062 -1.71584 4.31123
H 10.3063 -0.802304 5.6173
O 14.272 12.4081 -14.5305
H -14.8894 12.8113 -13.9175
H 14.3238 12.8533 14.4166
O 13.8535 -12.8022 -10.1556
H 14.7297 -12.3981 -10.4186
H 13.4056 -13.1824 -10.9649
O 1.83289 6.2221 3.80866
H 1.40182 6.83236 4.47338
H 2.66215 6.65146 3.45076
O 7.41853 -14.4897 9.91987
H 7.14105 14.3928 9.85476
H 6.84335 -14.021 10.5904
O 3.8966 -3.78635 4.51494
H 3.03197 -4.17107 4.83822
H 3.76868 -2.81995 4.29174
O -4.4727 -14.9013 -4.14182
H -3.56885 14.5161 -4.20294
H -4.49308 -14.2697 -3.36676
O 13.3265 -11.3141 -2.39827
H 13.8615 -10.8984 -3.13386
H 12.6754 -11.966 -2.78704
O -5.62716 3.2344 11.7221
H -5.73908 2.27941 11.997
H -6.41296 3.51717 11.1719
O -9.70156 14.8638 -1.18965
H -10.1023 -14.0783 -1.01221
H -9.94715 14.5656 -2.11205
O -14.1259 -2.57582 7.01612
H -14.7344 -3.28028 6.65064
H -13.3579 -2.44108 6.38989
O 11.3569 -0.296889 -13.8284
H 12.1207 -0.872263 -13.5355
H 11.7091 0.500086 -14.3192
O 10.9728 11.5001 14.6387
H 11.5273 11.8941 13.9056
H 11.4657 11.5736 -14.3353
O 3.76279 6.27683 9.48855
H 3.74929 7.27678 9.49322
H 3.8281 5.93996 10.4279
O -1.95476 -1.37253 14.1418
H -1.73425 -0.929185 13.2729
H -1.11646 -1.50438 14.6709
O -5.75168 2.61626 -3.35241
H -5.00607 3.2647 -3.50634
H -5.82608 2.41983 -2.37467
O -8.19835 -14.8708 -4.42251
H -9.1589 14.7112 -4.52439
H -7.6999 14.2306 -3.97013
O 13.4158 -3.58207 5.49247
H 13.877 -2.72346 5.26844
H 12.6128 -3.69188 4.90656
O 5.47808 -9.47861 6.18227
H 5.76925 -8.58852 6.53309
H 4.50575 -9.4439 5.95102
O -2.09026 -7.84079 -12.2511
H -2.31998 -8.8069 -12.1329
H -2.92653 -7.31664 -12.4124
O 2.51027 -13.9036 7.89008
H 1.52385 -14.0682 7.88866
H 2.98107 -14.7031 8.26329
O -11.7153 4.17436 -9.23754
H -12.5233 4.39568 -9.7837
H -11.8936 4.38782 -8.27694
O 11.3049 -5.64587 -8.32612
H 10.6375 -6.23442 -8.78251
H 10.8253 -4.94262 -7.80124
O -3.58233 -14.4568 -12.8239
H -4.49992 -14.2867 -13.1833
H -3.11893 14.7098 -13.3988
O 0.594499 -6.72181 9.10139
H -0.317708 -6.52242 9.45948
H 1.26827 -6.62748 9.83436
O 6.03228 -5.67029 4.34935
H 5.93825 -6.19123 5.19781
H 5.27746 -5.01876 4.27284
O 7.49358 7.44826 9.77615
H 7.32629 6.5199 9.44411
H 7.29134 7.49386 10.7545
O 4.93483 3.46489 -1.23147
H 5.62252 3.94334 -0.685334
H 4.02158 3.75995 -0.950379
O -3.25051 -11.6377 5.14234
H -4.14071 -12.0302 4.91081
H -2.82888 -11.2587 4.31852
O 5.29649 9.02796 -11.889
H 5.35354 9.23244 -10.9117
H 4.70629 8.23292 -12.0293
O -14.4188 -3.84242 11.908
H -14.047 -3.52193 11.0367
H -13.6697 -4.00761 12.5495
O -13.7532 0.944706 -5.54927
H -13.8578 1.89689 -5.26205
H -14.381 0.753248 -6.30382
O 9.54605 -10.0391 -9.60508
H 9.11712 -9.14779 -9.75216
H 10.5378 -9.92582 -9.54413
O -10.0545 -14.0725 -9.13557
H -9.76184 -14.0591 -8.17938
H -9.71324 -14.9024 -9.57702
O 9.05182 2.51008 -6.88411
H 8.21497 1.96549 -6.82735
H 9.66768 2.10535 -7.56014
O -7.81012 0.663661 -14.5833
H -7.97131 1.46935 14.6876
H -7.48504 -0.0896322 14.6859
O 9.0805 -2.78471 -11.332
H 9.30523 -1.99126 -11.8977
H 9.51012 -2.68647 -10.4343
O -7.79749 -5.5158 9.29352
H -7.16213 -6.28264 9.38509
H -7.36841 -4.78977 8.75604
O -7.41417 1.17334 8.63624
H -7.59908 0.934295 9.58953
H -7.07064 0.368921 8.15148
O 13.5933 4.40772 4.06677
H 13.2366 5.32865 3.90929
H 12.8941 3.73402 3.82723
O -11.8868 -1.30985 13.1906
H -12.4117 -2.13036 13.4172
H -12.2601 -0.893821 12.3613
O -3.45521 0.825179 14.4844
H -2.77204 0.0963349 14.5309
H -3.85408 0.850148 13.5677
O 4.07785 0.846773 6.91419
H 3.45608 0.0638085 6.93591
H 4.38983 1.05053 7.84222
O 7.22356 -7.38228 -13.1059
H 6.99687 -7.50181 -14.0725
H 7.32776 -6.40797 -12.906
O -12.837 -0.306074 10.8938
H -12.5392 0.386395 10.2366
H -12.7145 -1.21611 10.4977
O 9.19378 2.65431 -1.69753
H 9.29407 1.67243 -1.8586
H 9.01614 3.11806 -2.56557
O 11.3388 -6.6652 14.284
H 11.5991 -6.1314 13.4794
H 10.7629 -6.10761 14.8819
O -12.3357 -2.65411 4.90729
H -11.7321 -3.43479 4.74533
H -12.6712 -2.30501 4.03227
O -2.85345 -1.46013 7.95647
H -3.31036 -2.28829 8.28124
H -2.37156 -1.65822 7.10287
O -12.3893 2.99935 5.22605
H -11.6171 2.74641 4.64303
H -12.0741 3.10574 6.16914
O 5.52287 9.79837 -0.869055
H 6.49474 9.56707 -0.823508
H 5.1384 9.80589 0.0541066
O -2.14699 -10.4277 3.08238
H -1.15839 -10.3476 2.95446
H -2.61565 -9.80365 2.45707
O 7.99673 12.0906 -0.608505
H 8.53372 12.0697 -1.4519
H 7.05807 12.365 -0.817717
O -7.96099 -4.18326 11.9224
H -7.8396 -4.63413 11.038
H -8.81364 -4.49547 12.3414
O -2.84165 -13.3254 10.2528
H -2.95522 -13.9603 9.48848
H -2.51038 -13.8241 11.0539
O -2.37001 4.98776 -9.40907
H -1.68757 5.0187 -8.67871
H -2.99891 4.22758 -9.24565
O -6.90933 14.9154 2.27252
H -6.86866 -14.7912 1.28238
H -7.04888 13.9454 2.47176
O 2.67863 -2.27368 -7.16707
H 2.17397 -3.1189 -6.99091
H 2.85905 -2.19131 -8.14726
O -3.69281 -6.61341 7.13695
H -3.52437 -6.97702 6.2207
H -2.91201 -6.82052 7.7265
O -12.1351 -12.1394 -7.91916
H -11.3121 -12.6144 -8.23083
H -11.9243 -11.6128 -7.09551
O 2.85493 -10.1269 -2.67729
H 3.44218 -10.1327 -3.48673
H 3.00726 -10.9623 -2.14905
O -4.44913 8.42715 -7.00733
H -4.89628 9.21507 -7.43082
H -4.19372 8.65417 -6.06748
O 6.38632 12.9408 -11.8713
H 6.87608 12.5592 -11.0873
H 5.74036 12.2631 -12.2228
O 14.3243 0.12872 2.21524
H 14.7579 0.920659 2.64529
H 13.6931 0.439342 1.50442
O 9.41274 -8.95457 -13.5468
H 9.35616 -9.08514 -14.5367
H 8.67121 -8.35437 -13.2469
O 8.02137 -11.219 -11.4893
H 8.48377 -10.9409 -10.6473
H 8.49186 -10.8187 -12.2758
O -10.2404 -8.38636 1.11085
H -10.9034 -7.86585 0.572621
H -9.50571 -7.77881 1.41282
O -2.39269 13.1842 -13.927
H -2.35085 13.1439 14.9157
H -3.01932 12.481 -13.591
O 3.86402 14.6297 -13.8357
H 4.74992 14.4996 -13.3903
H 3.70955 -14.2357 -13.9918
O -0.77416 -3.72811 3.8769
H 0.0473058 -4.03093 4.36022
H -0.695891 -3.96187 2.90771
O -8.80155 11.8447 8.98989
H -8.46418 11.4434 8.13829
H -8.67588 11.1932 9.73813
O -10.2627 13.3336 0.902879
H -10.0996 13.771 0.0184816
H -11.2034 12.9962 0.939464
O 3.0743 -12.651 -1.53995
H 2.74787 -12.5824 -0.597165
H 3.64382 -13.4673 -1.63696
O -3.64595 -0.951348 -12.0917
H -4.14047 -0.398647 -11.4208
H -2.77067 -0.515827 -12.3022
O 14.7709 3.12906 -8.95112
H -14.7875 3.98616 -8.52024
H 14.6411 3.27592 -9.93176
O -7.54564 -7.72831 -14.2201
H -6.64958 -7.78483 -14.6605
H -7.69582 -6.79694 -13.8883
O -13.3221 8.98147 -1.12612
H -12.6922 8.55707 -0.475563
H -13.1338 8.63664 -2.04577
O -3.99627 -9.03393 1.32834
H -4.26302 -8.07013 1.33481
H -3.35121 -9.19625 0.581577
O -12.2403 -13.6879 -0.321739
H -11.5944 -13.6774 0.441686
H -12.9869 -13.0492 -0.135489
O -2.70959 3.33552 9.99673
H -2.88332 4.00272 9.27232
H -3.48193 3.32446 10.6319
O 3.0183 4.56568 7.20297
H 3.0116 5.47601 7.61692
H 2.26821 4.49291 6.54558
O -1.29546 11.6518 -4.59106
H -1.09589 10.9786 -3.879
H -1.46209 12.5433 -4.16964
O 11.5476 8.38189 -3.3766
H 10.8612 7.70189 -3.6346
H 11.7936 8.92775 -4.17762
O -9.6419 -10.2079 5.38928
H -10.4369 -10.7627 5.63482
H -9.03977 -10.7354 4.78981
O 13.2366 -2.39728 12.6031
H 13.9258 -3.06272 12.3163
H 13.6044 -1.47264 12.504
O -2.98356 8.67924 9.14813
H -2.93421 9.38164 8.43798
H -2.09574 8.22656 9.23149
O -13.0607 -2.78694 9.56429
H -12.4199 -3.54631 9.67758
H -13.4185 -2.78919 8.63043
O 11.8272 -2.59024 -6.84572
H 12.7748 -2.60392 -7.16498
H 11.7154 -3.25276 -6.105
O -2.31936 2.82222 -6.21709
H -2.25489 2.39015 -7.11668
H -1.92291 3.73939 -6.25864
O 3.54329 8.69571 11.0206
H 2.63854 8.28034 10.9258
H 3.84626 8.62136 11.9708
O 8.69874 13.5474 1.74222
H 8.41418 13.0219 0.94034
H 9.49995 14.0997 1.51169
O -5.89127 -7.31896 10.4596
H -5.45128 -8.14318 10.103
H -6.72854 -7.57138 10.9448
O 0.992918 -8.36529 -4.84048
H 1.24837 -7.65915 -4.18001
H 0.293987 -8.00603 -5.45897
O 9.92292 9.0997 -11.6296
H 10.6107 8.38325 -11.5124
H 9.41087 8.93544 -12.4728
O -7.32206 5.4342 13.5755
H -6.41133 5.32066 13.9727
H -7.84462 6.08903 14.1216
O 12.9486 -5.47506 -11.0304
H 12.4351 -5.95433 -11.7423
H 12.4358 -5.50471 -10.1723
O 2.5846 -1.31123 -9.75243
H 1.65678 -1.6688 -9.85923
H 2.56906 -0.522086 -9.13834
O -9.09126 -10.1691 13.0833
H -8.3033 -10.6001 13.5231
H -9.27321 -10.62 12.2094
O 5.13178 -2.31098 -5.4523
H 4.34254 -2.33484 -6.06601
H 5.92267 -2.71679 -5.91046
O 9.14419 -4.32846 -4.65106
H 10.1142 -4.57164 -4.65896
H 8.66837 -4.87795 -3.96421
O 8.74192 7.69651 -8.52912
H 8.06969 7.50254 -9.24368
H 9.21538 6.85196 -8.27878
O 7.08388 6.82713 -10.5154
H 6.29871 7.43876 -10.4179
H 7.16219 6.53455 -11.4685
O 2.33505 9.79852 -3.83017
H 2.05718 9.54863 -2.90256
H 1.95739 10.6953 -4.06109
O 1.63176 14.4957 -1.95274
H 2.5449 14.5077 -2.36034
H 1.13862 -14.5159 -2.21531
O 12.9987 7.00404 3.86878
H 13.3634 7.17655 4.78383
H 13.1398 7.8116 3.29602
O -4.01968 11.5788 11.1079
H -4.89035 11.295 10.706
H -3.32861 11.6516 10.3887
O -1.31567 -14.8756 4.97836
H -0.413758 14.5749 5.16328
H -1.69034 -14.4883 5.82082
O -1.77924 7.20369 -0.278271
H -1.84404 6.40174 0.315691
H -2.6837 7.61851 -0.378108
O 1.97847 9.56281 -1.30404
H 2.70068 9.56732 -0.612302
H 1.25749 10.2025 -1.03736
O -2.37708 -5.92543 -3.10435
H -3.21811 -6.10632 -3.6143
H -2.36805 -6.4767 -2.27001
O 11.8436 -13.522 2.90855
H 11.6278 -13.8464 3.82957
H 12.1011 -12.5564 2.94707
O 0.458557 -6.8613 6.39924
H 0.454485 -6.74669 7.39269
H 0.0664545 -7.75089 6.16472
O 9.89595 -0.256997 7.18006
H 10.6128 0.435153 7.26437
H 9.00965 0.153131 7.3954
O -1.00205 -12.4719 -7.06631
H -1.79908 -12.7228 -7.61577
H -0.474721 -11.7699 -7.54507
O 7.54189 -7.00306 9.53928
H 6.55401 -7.15349 9.57893
H 7.96426 -7.71025 8.97219
O 12.5333 0.810431 0.386364
H 12.1228 1.43201 -0.280906
H 11.811 0.311791 0.865733
O 10.9227 -11.1675 -12.952
H 10.3375 -10.3566 -12.9389
H 11.2475 -11.329 -13.8839
O 1.84715 10.5329 3.54088
H 1.69714 10.5588 4.52928
H 1.30413 11.2492 3.10243
O -14.2626 8.19674 5.64586
H -13.8749 7.32119 5.35744
H -14.2104 8.84955 4.89007
O -14.8165 0.199581 6.43825
H -14.0441 -0.422227 6.30798
H 14.3515 0.0515461 5.71353
O 1.88305 -7.79128 -1.632
H 1.81685 -6.9793 -2.212
H 2.32808 -8.52862 -2.14032
O 7.2615 -1.23239 4.2956
H 7.45728 -0.255515 4.20903
H 7.04222 -1.60943 3.39568
O 6.5433 -10.2171 3.41632
H 7.29951 -10.8638 3.31602
H 6.59539 -9.77997 4.31427
O 14.7468 -12.259 6.46596
H 14.812 -12.2118 5.46915
H 14.724 -13.2166 6.75356
O 1.55663 -12.6658 -9.2947
H 1.91088 -13.1247 -8.47987
H 1.56062 -13.3037 -10.0649
O 11.9236 -0.0260128 -7.71047
H 11.5158 -0.0460954 -8.6234
H 11.6299 -0.832021 -7.19644
O -9.26006 -4.27678 -11.1338
H -8.59104 -4.62667 -11.7896
H -10.0978 -4.02118 -11.6165
O -2.09289 5.08143 1.23589
H -1.13246 5.13988 1.5084
H -2.60999 4.59414 1.93964
O -6.9881 11.7353 13.3991
H -7.44842 11.9474 14.2612
H -6.0951 11.3274 13.5896
O 14.7422 0.641598 -8.00273
H 14.9132 1.50497 -8.47754
H 13.7612 0.541202 -7.83656
O -6.96709 8.53159 13.6683
H -6.34618 9.31499 13.6976
H -6.46075 7.69668 13.8843
O -6.45272 14.1537 12.049
H -6.61517 13.2647 12.4772
H -6.42991 14.0457 11.0551
O -13.4654 -3.22026 -0.340246
H -13.2663 -3.54562 -1.26471
H -14.19 -3.78036 0.0614575
O 5.8548 -3.09089 8.76213
H 6.78087 -3.31654 9.06474
H 5.83755 -3.02218 7.76459
O 13.2764 5.42235 -3.01207
H 13.6646 5.24012 -3.91549
H 13.5641 6.32865 -2.70227
O -7.63765 -9.39982 -2.1313
H -6.68735 -9.214 -1.88131
H -7.66082 -10.0159 -2.91872
O 11.6711 1.59532 8.10841
H 11.8067 2.49884 7.70175
H 12.5601 1.1752 8.29109
O 0.155448 14.1159 -7.898
H -0.683651 14.5764 -7.60822
H 0.947756 14.6134 -7.54467
O -13.6514 -11.6471 -10.1723
H -13.0101 -11.786 -9.41766
H -13.7759 -10.667 -10.3278
O 12.9969 -2.54103 -10.5157
H 12.9858 -3.49677 -10.8098
H 13.5923 -2.44469 -9.71796
O 1.54154 -8.57584 12.629
H 2.39554 -8.10751 12.8559
H 1.44226 -9.38627 13.2065
O -1.01926 0.0890929 -12.8405
H -1.08383 1.07056 -12.6598
H -0.0814832 -0.140927 -13.1008
O 2.40261 10.0697 8.37308
H 3.20022 10.4481 7.9033
H 2.52646 10.1551 9.36175
O -14.1871 10.22 -10.1521
H -14.8852 10.9192 -9.99724
H -14.5154 9.56662 -10.8343
O -1.48084 0.603785 9.42182
H -2.05054 1.39608 9.64048
H -2.04319 -0.102654 8.99192
O 0.346197 5.95347 8.97908
H 0.363944 5.03604 9.37671
H -0.336865 5.98737 8.24944
O 6.21815 5.36722 8.53119
H 6.43954 4.65643 9.19893
H 5.37024 5.82439 8.79976
O 2.49655 5.38963 14.7584
H 2.09836 6.05987 -14.4562
H 1.83894 5.17708 14.0356
O -3.35497 -2.78283 -7.84848
H -3.61126 -3.43156 -8.56511
H -2.53671 -3.11255 -7.37747
O -10.7971 9.91489 2.93628
H -9.91502 10.3727 2.82447
H -11.1577 10.1047 3.84951
O 9.06247 -8.59133 8.06468
H 8.68668 -9.12646 7.30803
H 9.99606 -8.30994 7.84256
O -2.8253 6.54391 -3.21212
H -3.76686 6.21412 -3.14285
H -2.31546 6.27044 -2.39641
O 4.59433 -12.6804 -11.1171
H 4.06775 -11.9692 -11.5829
H 4.68717 -12.4465 -10.1492
O 9.0247 13.0981 4.54255
H 8.12031 13.3342 4.89811
H 8.95063 12.8616 3.57369
O 7.83236 5.38055 4.16192
H 7.4809 4.53563 3.75856
H 8.77541 5.52576 3.86247
O 10.7997 5.67727 11.1083
H 11.7004 5.71405 10.6754
H 10.4646 6.6072 11.2602
O -5.52561 -0.524108 -6.52956
H -5.26196 -0.514151 -7.49418
H -6.10738 -1.31772 -6.35118
O -0.685007 13.4752 7.92599
H -0.244319 13.3278 7.04046
H -0.0640288 13.9775 8.52787
O 9.61282 -2.6452 -8.2862
H 9.22943 -1.72167 -8.30061
H 10.4772 -2.63946 -7.78332
O -8.30998 8.953 -9.6505
H -9.03367 8.71153 -9.00392
H -8.71555 9.17361 -10.5376
O -8.76659 11.878 2.48859
H -9.42491 12.3495 1.90172
H -7.99853 11.555 1.93555
O 3.62943 -4.68947 14.4542
H 3.55508 -4.12295 -14.5661
H 4.57833 -4.69601 14.1385
O -3.59308 -7.38999 -8.22748
H -4.16746 -7.65207 -7.45191
H -4.14204 -7.38864 -9.06339
O -5.30918 7.37545 8.58147
H -6.01646 7.08751 9.22718
H -4.72595 8.06472 9.01142
O 1.28844 2.43883 -10.3036
H 0.640553 2.72917 -11.0079
H 0.786502 2.08227 -9.51555
O 1.43991 -3.47356 13.1626
H 2.00502 -4.01837 13.7823
H 0.815541 -2.90275 13.696
O -11.3075 -5.14896 4.20258
H -10.7983 -6.00961 4.21312
H -12.2866 -5.34004 4.27292
O -14.0706 6.49545 -9.80982
H -13.1001 6.70489 -9.92996
H -14.5039 6.39765 -10.7058
O 10.0873 -11.2246 5.27042
H 9.24355 -11.2352 5.80722
H 9.87359 -11.404 4.31007
O -10.808 -11.0064 -5.78762
H -10.5255 -11.8272 -5.29101
H -10.0472 -10.3581 -5.82016
O -11.7996 -11.6678 5.84452
H -11.4236 -12.5504 6.12696
H -12.2996 -11.778 4.98548
O 6.77507 10.1225 -7.21338
H 7.31149 10.765 -6.66615
H 6.78572 9.22288 -6.77667
O -1.80274 13.9813 -3.32928
H -1.8121 14.2554 -2.36756
H -1.45343 14.7343 -3.88708
O 7.32196 0.206136 8.25486
H 6.54144 0.541357 8.78261
H 6.9978 -0.401686 7.52989
O 14.0789 6.28274 0.616161
H 14.9119 6.63784 1.04053
H 13.9313 6.73902 -0.261401
O -10.406 7.07709 -5.87976
H -9.46669 7.02923 -6.21973
H -10.4892 7.83807 -5.23626
O 3.29595 3.07385 9.79987
H 3.23882 3.83378 10.4474
H 2.90868 3.35449 8.9216
O -14.4116 10.0731 11.8911
H 14.7915 9.84635 11.1551
H -13.6969 10.6773 11.5384
O -11.7807 -10.8989 8.88934
H -11.8873 -11.466 8.07256
H -11.4349 -11.4597 9.6417
O 8.83647 12.2594 11.8609
H 9.18249 13.1737 12.0714
H 9.43679 11.8218 11.1914
O 0.568754 5.44034 1.63622
H 1.23065 4.82086 1.21404
H 0.867486 5.66558 2.56365
O -11.1548 -4.54038 9.5412
H -11.3168 -4.50253 8.55508
H -10.3892 -5.15551 9.72986
O -7.05482 -14.7617 -0.475722
H -8.04598 -14.7099 -0.598297
H -6.68378 -13.8394 -0.36702
O 7.04952 4.41332 -9.10455
H 6.2468 4.5446 -8.52273
H 7.24435 5.26004 -9.59974
O 12.2244 12.1231 12.448
H 12.2202 13.1064 12.2662
H 12.1897 11.6239 11.5821
O -14.844 10.0231 3.28156
H 14.5175 10.8639 3.53286
H -14.6705 10.0199 2.29667
O -14.257 -10.1319 -14.1972
H -14.1413 -9.30821 -14.7525
H -14.8355 -10.7849 -14.6861
O 5.95252 -8.30664 0.641629
H 5.984 -8.6381 1.58463
H 6.83059 -8.48325 0.196747
O -3.62131 -3.78832 4.58184
H -2.67128 -3.97078 4.32838
H -4.03489 -3.17717 3.90689
O -11.1173 9.54536 6.05383
H -11.5158 10.4108 6.35775
H -10.7907 9.03186 6.84741
O 12.1583 8.65981 -9.25023
H 11.9669 9.63141 -9.11077
H 11.8126 8.37706 -10.145
O 4.87979 7.30922 -1.61351
H 4.96648 8.25215 -1.29183
H 4.02101 7.20588 -2.11542
O 1.34441 12.3306 -3.6684
H 0.612831 12.5983 -4.29549
H 1.66068 13.1336 -3.16307
O 6.76824 -2.1104 1.57898
H 6.6746 -2.11724 0.583351
H 6.98566 -3.03234 1.89968
O 12.3973 -5.99038 1.96327
H 11.9962 -5.226 2.4682
H 13.2044 -5.67373 1.46478
O 1.77924 3.65692 -7.41791
H 2.42152 3.74428 -8.17945
H 2.13783 3.00171 -6.75291
O 4.56869 -4.54174 -8.65335
H 4.97598 -4.8756 -7.8032
H 5.25742 -4.04277 -9.17946
O 11.8174 11.1377 -8.16469
H 12.2686 11.9864 -8.44075
H 10.896 11.1087 -8.55239
O -10.4147 9.32261 -4.38859
H -10.8722 10.0997 -4.8209
H -9.6271 9.64837 -3.86539
O 3.47495 -8.23564 -12.2373
H 3.12608 -8.848 -11.5278
H 4.12815 -7.59521 -11.8332
O -6.93187 6.20259 10.4927
H -6.90078 6.23337 11.4918
H -7.38314 5.35984 10.199
O 14.302 -9.81462 7.38441
H 14.3896 -10.7291 6.98935
H 13.4797 -9.37356 7.0248
O 7.61595 -4.78977 -12.5217
H 8.22993 -4.35916 -11.8601
H 6.86366 -4.16583 -12.7335
O -9.43285 9.56959 10.8153
H -9.78414 10.2903 11.413
H -9.56681 8.67983 11.2517
O -4.96172 10.2174 13.4759
H -4.38557 10.5662 12.7366
H -4.47317 9.49641 13.9674
O 8.72991 -0.120928 -8.93927
H 9.47229 -0.0677351 -9.60721
H 7.91903 0.335991 -9.30506
O 12.4114 -6.94755 -6.26822
H 12.1445 -6.46657 -7.1034
H 11.845 -7.76442 -6.15853
O 6.54046 -2.36387 -1.10868
H 6.19455 -1.66596 -1.73587
H 5.88457 -3.11675 -1.05322
O -13.0137 14.2802 2.09432
H -13.9607 14.4192 1.80463
H -12.7775 13.3122 2.00826
O -1.60023 10.2106 -1.30408
H -1.07633 10.9462 -0.874576
H -1.17108 9.33123 -1.09756
O 10.9847 -5.86107 -1.87231
H 11.3674 -4.93883 -1.92843
H 11.6117 -6.50898 -2.30503
O -11.7791 -1.13255 -1.08353
H -11.8588 -1.10594 -2.08004
H -12.4534 -1.77081 -0.712071
O 12.1768 2.21769 3.35479
H 12.5121 1.38738 3.80002
H 11.9543 2.01762 2.40054
O 14.1796 12.2633 8.55265
H 13.4018 11.9545 8.00508
H 14.4637 11.5306 9.17116
O 6.11641 12.1307 -9.11645
H 6.29703 11.3019 -8.58685
H 5.15676 12.1442 -9.39753
O 11.1787 8.23334 14.5204
H 11.7785 8.91926 14.1083
H 11.7319 7.49271 14.9018
O 1.13156 10.1883 5.9844
H 0.397229 9.54719 5.76132
H 1.42602 10.0424 6.92891
O 14.7323 14.2796 -5.9781
H 13.9824 14.1827 -6.63263
H -14.4629 -14.8742 -6.31058
O -7.60136 8.3982 2.42814
H -8.20806 8.57085 1.65211
H -8.13177 8.02484 3.1893
O -12.831 -10.717 0.224075
H -13.3791 -11.5371 0.388621
H -11.8901 -10.8798 0.521166
O 7.20055 1.82119 4.42972
H 8.03065 2.01264 4.95353
H 6.3986 2.06597 4.97474
O 4.65133 1.63927 -3.26223
H 4.82872 2.26616 -2.50351
H 3.70144 1.73617 -3.55957
O -11.2955 -0.548936 6.24666
H -11.8066 -1.2672 5.77446
H -10.4576 -0.347462 5.73925
O -2.9513 13.1875 0.862679
H -3.19463 12.2378 1.06016
H -3.15909 13.3929 -0.0937486
O 0.119746 -2.29446 -14.4336
H 0.824636 -1.7335 -13.9993
H -0.047356 -3.10891 -13.8778
O 10.0533 0.245963 1.99652
H 10.0572 0.14514 2.99147
H 9.93613 1.21047 1.75967
O 5.51491 -0.480334 -9.21542
H 5.26123 0.0806612 -8.42737
H 5.51782 0.0852922 -10.0401
O 6.79762 3.0107 2.12968
H 7.30892 2.71287 2.93589
H 6.23373 2.25568 1.7949
O -1.74628 -14.3863 12.8737
H -0.808948 -14.7275 12.9448
H -2.38729 14.6998 13.0124
O -11.981 7.87828 -12.5849
H -11.5089 7.36775 -11.8661
H -11.9984 7.33414 -13.4237
O -6.17231 10.8469 2.05864
H -5.43656 11.1487 1.45226
H -6.16093 9.84913 2.12559
O -0.568268 4.8139 -7.48546
H 0.365348 4.45582 -7.46985
H -0.739046 5.336 -6.64979
O -12.809 -6.17216 -4.59171
H -12.0018 -5.58709 -4.67096
H -12.7252 -6.94304 -5.22324
O 0.395287 -8.60781 -13.4733
H -0.565526 -8.33419 -13.4278
H 0.944465 -7.842 -13.808
O 3.53472 -6.58626 12.1857
H 3.3711 -6.38414 13.1513
H 2.99253 -5.96598 11.6188
O -3.11226 -10.7045 -8.85588
H -4.05037 -10.3584 -8.87365
H -2.48357 -9.95312 -8.65512
O -0.373617 12.1076 11.7496
H -0.795736 11.9689 10.8537
H -0.404833 11.2534 12.2687
O 5.04951 -1.1501 -3.01657
H 5.07232 -0.181073 -3.26268
H 5.20136 -1.70537 -3.83432
O -6.84412 10.2343 -12.077
H -7.11772 10.5552 -11.1702
H -5.93179 9.828 -12.0256
O -13.627 0.326984 -10.7627
H -13.6392 -0.153454 -9.88566
H -12.6865 0.578005 -10.9921
O -10.351 7.33107 12.4057
H -11.3335 7.46558 12.5345
H -9.89312 7.34605 13.2946
O -1.89894 -5.62063 -6.81299
H -1.50058 -6.41055 -6.34669
H -2.65584 -5.92254 -7.39268
O -14.0218 10.1645 -14.8874
H -13.9159 9.89307 13.997
H -14.6227 10.962 -14.8318
O -10.3494 -1.9241 -4.12202
H -10.5459 -1.04281 -4.55192
H -9.77801 -1.78072 -3.31392
O -12.0038 -12.8937 12.4469
H -12.2677 -11.9336 12.3538
H -11.5052 -13.0207 13.3045
O 2.75467 -14.3602 -7.17883
H 2.88568 -13.8572 -6.32442
H 3.02088 14.5259 -7.04767
O -12.5342 5.00231 -6.59413
H -11.8734 5.74744 -6.50331
H -12.3222 4.28591 -5.92936
O -11.8776 -9.73781 12.6319
H -12.2783 -9.13476 13.3217
H -10.9613 -10.0139 12.9222
O 5.24965 1.27011 9.83125
H 4.55366 1.98754 9.8628
H 5.3157 0.83016 10.7269
O 3.39848 11.7041 -9.21601
H 3.35601 11.5647 -10.2054
H 2.6819 11.1657 -8.77244
O 14.3193 -5.07359 0.121836
H 14.4365 -5.6649 -0.676126
H 13.5904 -4.41277 -0.0571052
O -13.2228 -8.39043 -1.14363
H -13.0156 -9.12695 -0.499629
H -12.5857 -8.43179 -1.91344
O -14.1789 3.83064 -0.0446894
H -14.1404 3.46513 0.885376
H 14.861 4.42205 -0.137478
O -10.9984 3.23151 -12.8642
H -10.9723 2.37214 -12.3534
H -10.2874 3.8452 -12.5206
O 10.5946 -6.92543 6.59812
H 9.96688 -6.69571 5.85432
H 11.1941 -6.14615 6.78102
O 6.08158 -2.73706 11.4806
H 5.52704 -3.31308 10.8799
H 6.8108 -2.30606 10.949
O 13.8622 -7.64618 4.20666
H 13.4835 -8.20931 4.94119
H 13.1163 -7.21685 3.69737
O -4.5464 6.77297 -9.57985
H -4.74812 7.16436 -8.68195
H -3.69879 6.24456 -9.53035
O 8.103 -6.96755 12.1302
H 7.95958 -7.12271 11.1527
H 8.50478 -6.06227 12.2686
O 0.195614 -5.70585 2.01207
H -0.350251 -6.36131 1.49005
H 0.8984 -6.19444 2.52924
O -12.193 -9.23307 -3.57118
H -11.614 -9.89058 -4.05345
H -13.1464 -9.53145 -3.6177
O 8.68895 8.50648 -14.2043
H 8.21025 9.34872 -14.4525
H 9.65975 8.59693 -14.4267
O -7.72317 4.07416 1.28419
H -8.64396 4.08338 1.67426
H -7.77704 4.23508 0.298644
O -10.4258 -6.38245 -7.87549
H -10.5135 -5.42033 -7.61713
H -9.49001 -6.56212 -8.17908
O 1.7848 -4.9224 10.8806
H 1.458 -4.45135 11.7
H 1.57786 -4.3695 10.0734
O -10.9761 -14.1103 7.04482
H -10.2306 -14.2373 6.39044
H -10.7613 -14.5947 7.89294
O 9.62212 -13.5924 -12.8349
H 8.7953 -13.8644 -12.3425
H 9.89369 -12.6736 -12.5482
O 6.28682 1.83821 -5.47881
H 5.91631 1.93426 -4.55491
H 7.0305 1.16964 -5.47188
O -10.1834 3.99648 2.63497
H -10.0896 4.54448 3.46623
H -10.2564 3.02957 2.87961
O -6.48009 -1.39364 -3.85601
H -5.74346 -0.718145 -3.82157
H -7.16089 -1.18045 -3.15518
O -12.9818 9.7812 -7.84343
H -13.7258 9.75218 -7.17584
H -13.3542 9.98481 -8.74895
O -0.59396 7.87098 4.91826
H -0.868196 6.95856 4.61432
H -1.27198 8.54092 4.61564
O 3.79824 12.7681 6.5565
H 3.62561 13.0134 7.51051
H 3.19295 13.297 5.96156
O -9.1079 -9.86404 -13.473
H -9.76118 -9.98884 -14.2198
H -8.46333 -9.1377 -13.7119
O 13.2569 0.906161 -3.55916
H 13.4235 1.51229 -2.78137
H 13.1381 1.45268 -4.3882
O -13.7534 -2.03773 -4.46444
H -13.5098 -1.06835 -4.43157
H -13.5162 -2.41081 -5.36145
O 4.07809 -1.22477 -12.0302
H 4.73225 -0.46837 -12.0244
H 3.47253 -1.1478 -11.2381
O 14.4419 2.95133 6.89273
H 13.8484 3.16518 6.11679
H 14.8749 2.06191 6.74599
O -1.94277 5.42963 4.46153
H -1.9566 5.28218 5.45056
H -2.3991 4.66622 4.00429
O -6.52115 12.4054 -0.961361
H -6.07457 12.4731 -1.8536
H -6.87134 13.3034 -0.694839
O -10.8198 3.34034 -4.95121
H -10.1607 2.71601 -4.53172
H -10.8651 4.18492 -4.41761
O -8.91034 -9.36042 8.10221
H -9.53375 -8.67053 8.47033
H -8.97651 -9.37097 7.1044
O 11.8739 -4.46812 -4.53915
H 12.3089 -4.02748 -3.75384
H 12.1025 -5.44167 -4.544
O 8.35705 -1.29549 10.5103
H 8.15072 -0.721706 9.71768
H 9.34789 -1.39827 10.5986
O 4.35104 -8.37403 -14.8628
H 5.1032 -7.72712 14.8522
H 4.09762 -8.40644 -13.896
O -0.210569 -10.5117 -2.32457
H 0.752212 -10.2538 -2.24294
H -0.571674 -10.1802 -3.19625
O -0.361616 0.852848 -5.37068
H -1.16964 0.27215 -5.27073
H -0.478844 1.68367 -4.82653
O -6.35343 -4.24045 -2.84715
H -5.89799 -5.06152 -3.19141
H -6.11382 -3.45961 -3.4242
O -4.75742 -5.87699 0.952227
H -5.47013 -5.29209 0.564876
H -4.93244 -6.0145 1.92719
O -5.06665 -2.22753 -0.769338
H -5.85529 -2.65972 -1.20677
H -4.23697 -2.45341 -1.27994
O -7.59989 10.1758 7.12664
H -6.86318 9.69714 6.64885
H -8.18964 9.50921 7.58272
O 9.23893 -14.0672 -3.41213
H 8.45636 -13.8298 -3.98772
H 9.13464 14.8371 -3.07766
O -0.208063 -2.46124 -4.34247
H -0.308271 -1.52783 -3.99778
H -0.297719 -3.10778 -3.58481
O 9.56554 -8.63708 13.6413
H 10.1888 -7.9707 14.0507
H 8.89488 -8.1607 13.0726
O 5.83629 -12.7304 -8.57354
H 6.73314 -12.4184 -8.88727
H 5.94443 -13.5622 -8.02894
O -6.73147 10.3092 10.75
H -7.28461 9.65632 10.2325
H -6.92164 10.2068 11.7265
O -13.0487 8.46275 -4.01727
H -13.7789 8.46416 -4.70053
H -12.2393 8.91393 -4.39345
O -1.73253 -10.4525 -0.0294291
H -1.20037 -11.0936 0.523716
H -1.62097 -10.6756 -0.997885
O 2.61565 -12.9877 -4.65316
H 2.14787 -12.2224 -5.0955
H 2.94899 -12.7004 -3.75512
O 8.8417 3.47113 -4.23532
H 9.23118 3.28709 -5.13783
H 7.94576 3.90276 -4.34062
O -9.11591 6.34814 -14.509
H -10.0855 6.21279 -14.713
H -8.86576 5.80808 -13.7054
O -7.49906 -7.38327 12.6785
H -8.03888 -6.85479 13.3338
H -7.75455 -8.34832 12.7376
O -4.69121 -4.90339 10.7413
H -4.71021 -4.36513 9.89871
H -5.36462 -5.64029 10.6814
O -3.01884 14.5718 8.39551
H -2.11174 14.1706 8.26779
H -3.70117 14.0082 7.92978
O -5.03416 0.270679 12.0768
H -4.7254 -0.680513 12.0751
H -5.87056 0.350598 11.5344
O -0.24469 0.389906 -8.22119
H -0.0955165 -0.54756 -8.53585
H -0.138274 0.428927 -7.22759
O -6.5462 -11.4994 14.1828
H -6.63475 -12.3751 13.708
H -5.85555 -10.94 13.7244
O -8.07122 2.5571 13.5406
H -7.71677 3.4716 13.3452
H -9.01149 2.48589 13.2075
O -6.34742 3.22954 6.86394
H -6.93766 2.66624 7.44223
H -6.89306 3.94503 6.42753
O -10.1828 -11.9953 -10.8096
H -10.3075 -12.8411 -10.2907
H -9.80334 -12.2094 -11.7097
O 7.89708 -4.47011 2.06967
H 7.48608 -5.03642 2.78415
H 8.594 -4.99876 1.58499
O 7.64584 -10.9337 6.87543
H 6.8078 -10.4607 6.60331
H 7.55749 -11.9097 6.67604
O -6.57703 -0.693217 4.85805
H -6.08639 0.177812 4.88428
H -6.14154 -1.30123 4.19414
O -10.1181 14.1099 9.55871
H -9.91608 14.3043 10.5186
H -9.65271 13.2684 9.28393
O 7.54921 -6.89994 -4.87312
H 8.19789 -7.17249 -5.58377
H 8.04893 -6.65032 -4.04363
O 2.009 7.42995 -12.9018
H 1.20786 7.45395 -12.3037
H 1.93376 8.15264 -13.5889
O -9.48855 9.73918 -12.0222
H -9.79911 9.64723 -12.9684
H -8.50693 9.92993 -12.0106
O -6.51856 -10.8348 7.83931
H -5.8631 -10.5858 8.55239
H -7.41125 -10.4384 8.05401
O 10.0234 2.59939 10.1346
H 10.2763 3.55306 10.2979
H 10.5595 2.23836 9.37144
O -4.36777 -13.1092 -2.03413
H -5.11205 -12.6452 -1.55363
H -3.6676 -13.3861 -1.37595
O -2.642 12.8833 13.1064
H -1.76782 12.7453 12.6407
H -3.34818 12.3342 12.6593
O 11.5825 10.935 6.61194
H 11.0184 11.503 7.21137
H 11.5611 11.3065 5.68369
O 1.82886 9.55453 -14.786
H 2.28467 10.4266 -14.6075
H 1.31648 9.61549 14.1984
O 11.6276 -3.35545 14.3692
H 12.3513 -2.79694 13.9637
H 11.1489 -3.85587 13.6477
O 11.7757 4.76843 1.07188
H 12.7048 5.03963 0.820039
H 11.3665 5.47613 1.64786
O -6.13813 -14.1837 -13.671
H -5.90643 -14.4448 -14.6081
H -6.5634 14.8818 -13.2043
O 5.94691 -2.86803 6.07768
H 6.59104 -2.3189 5.54509
H 5.25648 -3.25689 5.4676
O 6.68691 -14.3105 -12.7894
H 6.23318 -13.5987 -12.2531
H 6.55449 14.6439 -12.3464
O 12.294 -4.33917 7.84426
H 12.8647 -4.83383 8.4998
H 12.8398 -4.09967 7.04128
O 14.3931 -2.01994 -8.04222
H 14.3631 -1.04027 -7.8436
H -14.5965 -2.4061 -7.68712
O -11.2555 11.8293 -5.54131
H -10.405 12.1831 -5.93085
H -11.9204 11.6796 -6.27314
O 2.59677 -7.24148 -7.25456
H 3.55047 -6.95916 -7.15032
H 2.40689 -8.00755 -6.64042
O -5.50418 -14.8376 -6.87643
H -5.88133 14.0914 -7.0379
H -4.85041 -14.8762 -6.12066
O -2.06743 -13.0833 -9.81381
H -1.72183 -12.9962 -10.7482
H -2.38792 -12.1921 -9.49255
O -9.19191 4.00716 -9.9393
H -8.5189 3.62898 -9.30357
H -10.1043 3.94525 -9.53459
O -6.05451 4.88988 3.37358
H -5.56453 5.65337 2.95274
H -6.62215 4.43813 2.68525
O 4.9046 14.866 -2.09118
H 5.41387 -14.6441 -1.29669
H 5.48792 14.2602 -2.63232
O -11.6572 0.946354 0.452287
H -12.1274 1.73087 0.0478065
H -11.6061 0.206285 -0.218376
O 6.66237 10.8289 2.41155
H 6.45694 10.1241 3.09067
H 7.64036 11.0367 2.43225
O -12.8427 14.6127 -8.13785
H -12.2711 -14.6421 -8.71194
H -13.6047 14.2569 -8.67917