2611
Atoms. Timestep: 23000000
O 10.5038 11.5319 2.22648
H 10.9115 12.4446 2.19718
H 9.9443 11.3904 1.40974
O 14.2519 -10.7615 12.9144
H 13.3466 -10.6405 13.3217
H 14.3973 -11.7289 12.7066
O 14.6106 4.96341 -6.98024
H -14.6036 4.31177 -6.92761
H 13.8748 4.66974 -6.36996
O 0.146926 -1.66281 4.13041
H 0.955206 -1.49785 3.56512
H 0.390599 -2.26086 4.89399
O 14.5905 -5.13585 -8.7812
H -14.8711 -5.73102 -8.15949
H -14.7918 -4.86963 -9.54462
O -7.79027 -1.3486 0.912875
H -7.26312 -0.62895 1.36487
H -7.1677 -1.96481 0.430393
O 8.11281 -13.6111 -4.52184
H 7.747 -13.0799 -3.75757
H 7.35838 -13.9452 -5.08692
O 3.53054 11.9702 -14.3838
H 3.69086 11.0635 -14.7741
H 3.4918 12.6473 14.8522
O -10.7623 -3.89073 -6.68758
H -10.9784 -4.80509 -6.34506
H -10.6132 -3.93152 -7.6756
O -14.2517 -0.740031 -9.22112
H -13.8985 -1.14339 -8.37693
H 14.7195 -0.734624 -9.19517
O 1.25369 14.9442 10.5709
H 0.392474 14.4453 10.4737
H 2.01204 14.3596 10.2825
O -4.49718 -3.65758 4.83245
H -3.66183 -4.12736 5.11809
H -4.42467 -3.40589 3.86731
O 3.5224 -12.0228 6.29568
H 4.31805 -11.4523 6.49939
H 3.71964 -12.5989 5.50239
O -14.9362 3.8035 -12.131
H -14.355 4.39601 -12.6888
H -14.3646 3.25366 -11.5219
O 12.1074 -8.72149 11.1174
H 13.1032 -8.75868 11.2011
H 11.6892 -9.10825 11.9394
O -2.92666 -8.61599 8.14216
H -2.11199 -8.96616 7.6798
H -3.38074 -9.36258 8.62848
O -0.139385 -9.13142 4.45924
H 0.251031 -9.73456 3.76362
H -0.816639 -8.52932 4.03628
O -10.8106 2.6997 -3.16382
H -10.8519 1.70872 -3.29163
H -10.2356 3.10386 -3.87517
O 14.865 0.0972233 1.39738
H -14.1876 0.241874 1.02882
H 14.5377 -0.809205 1.13036
O 8.42176 -6.15173 -10.924
H 9.35708 -5.82959 -10.7775
H 7.88132 -5.99339 -10.0976
O -7.81458 7.9658 14.2679
H -7.26961 7.23898 13.8497
H -7.93311 7.77495 -14.7286
O -8.92704 7.98596 -12.5985
H -8.18208 7.5327 -12.109
H -9.4725 8.52142 -11.9536
O 7.52333 4.10825 10.2004
H 6.95961 3.62746 9.52872
H 7.98963 3.4419 10.7823
O -0.854132 -6.05719 -14.9302
H -1.26298 -5.91536 -14.0287
H -0.897674 -5.20614 14.5173
O 1.93672 -0.659686 2.45138
H 2.37129 0.166452 2.81018
H 1.18592 -0.403749 1.84239
O 2.19891 -13.0761 -5.49645
H 2.97871 -13.6912 -5.6131
H 2.52784 -12.1382 -5.38548
O 14.4321 11.4492 4.80231
H 13.6967 11.8096 5.3763
H 14.0484 10.8239 4.12269
O -5.01219 10.188 12.6989
H -5.07256 10.1501 13.6964
H -5.75032 9.64419 12.2994
O 11.0395 -1.19997 -14.4683
H 10.8679 -2.11064 -14.8442
H 12.0229 -1.0186 -14.4699
O -0.362181 -0.0550191 12.5278
H 0.565984 -0.159904 12.885
H -1.0222 -0.30675 13.2357
O -7.59309 -5.2111 -5.24158
H -8.39375 -4.75441 -4.85368
H -6.78176 -4.97167 -4.70818
O 13.6487 9.14682 3.16253
H 12.7752 8.72821 2.91398
H 14.377 8.46512 3.09214
O 8.74287 1.35062 0.663824
H 8.90352 0.371493 0.538947
H 9.29899 1.68528 1.42462
O -8.53409 6.89176 10.3202
H -7.80757 6.76031 10.9947
H -8.5695 6.10032 9.70994
O -12.4828 -12.8867 -4.02808
H -12.2569 -13.3014 -3.14659
H -11.9196 -13.2986 -4.74442
O -0.866199 8.91114 10.9194
H -1.45323 9.53872 10.408
H -0.632356 9.31833 11.8024
O 8.1629 7.66427 14.0921
H 7.45358 7.15874 14.5834
H 8.74842 7.02169 13.5978
O -14.3747 2.72332 7.88687
H -13.7619 2.54023 7.11807
H -14.8098 1.87081 8.17667
O -6.04812 3.05818 -10.4039
H -5.68895 3.42736 -11.2611
H -5.58571 2.19713 -10.1921
O 4.39284 8.674 -6.01213
H 4.88443 8.32508 -6.81005
H 4.30595 9.66778 -6.08246
O -3.42178 6.50615 -12.2533
H -3.58579 5.69401 -11.6933
H -3.9449 7.27536 -11.8863
O 4.19503 -2.89605 -0.794804
H 5.1922 -2.88531 -0.719841
H 3.7975 -3.15974 0.0841348
O -12.4103 -3.60747 0.71173
H -12.4796 -3.13435 1.59005
H -11.6819 -4.29112 0.757983
O 2.11128 -3.15585 -4.85398
H 2.19839 -3.77266 -4.07164
H 1.14488 -3.04823 -5.08761
O -6.39558 -7.43458 4.38374
H -6.21704 -7.74492 3.44999
H -5.5276 -7.29793 4.86128
O -1.56408 -12.3323 -9.17653
H -1.11462 -13.1386 -8.79195
H -2.53555 -12.5259 -9.31386
O 14.64 11.2599 8.92711
H -14.8724 11.8365 9.6033
H -14.6566 10.6764 8.47444
O 0.91815 2.32395 5.19099
H 0.824789 1.51765 5.77517
H 0.134294 2.92912 5.33037
O -10.8981 0.704087 4.63186
H -11.0309 1.33613 3.86833
H -10.3857 -0.0951699 4.31771
O -11.7924 -11.408 0.608751
H -12.7437 -11.3409 0.307582
H -11.657 -10.8334 1.41599
O 13.0933 -1.05429 -9.09279
H 12.4163 -0.41243 -8.73265
H 12.6397 -1.90743 -9.35064
O -14.6193 -8.57058 -14.1971
H -14.8544 -7.62697 -14.4303
H -14.1955 -9.01356 14.9837
O -7.9352 -5.81705 12.8113
H -8.64142 -5.69192 13.5082
H -8.29055 -5.53068 11.9215
O 3.71732 -5.36021 13.114
H 4.60451 -5.08171 12.746
H 3.79304 -6.27552 13.5097
O 7.38711 8.67711 -5.17022
H 6.69609 8.03856 -4.83136
H 7.23425 8.84801 -6.14363
O 7.92585 2.42752 6.18162
H 8.44149 3.27151 6.03371
H 8.53993 1.64269 6.09779
O -6.35627 5.88747 -4.7429
H -5.48012 6.35487 -4.86118
H -7.00932 6.22712 -5.41984
O 12.0042 -10.0186 14.1156
H 12.2475 -9.04949 14.1567
H 11.0506 -10.135 14.3935
O -14.0513 -12.7548 0.0255989
H -14.3602 -12.866 0.970209
H -14.3881 -13.517 -0.527202
O -13.6354 14.1848 6.95162
H -13.1328 14.5227 6.15584
H -13.0137 13.6757 7.54694
O -13.7756 -4.26425 -10.6048
H -13.5415 -3.30149 -10.4693
H -12.9726 -4.83152 -10.4218
O -4.75039 8.66639 -11.0616
H -4.01422 8.99409 -11.6538
H -5.37443 9.42061 -10.8571
O 6.36272 -0.949209 4.96087
H 6.1618 -1.37945 4.08075
H 6.4342 0.0408434 4.83931
O 5.08533 -3.41302 -11.7574
H 5.19255 -2.60246 -11.1816
H 4.34518 -3.98155 -11.3982
O -13.3399 13.3634 -1.98886
H -14.2997 13.4526 -1.72246
H -12.8072 14.0969 -1.56664
O 5.33909 -13.6423 -13.4372
H 4.88205 -12.9694 -12.8555
H 6.02254 -14.1374 -12.9006
O -9.68755 6.76912 -0.1073
H -10.4376 7.43034 -0.122803
H -8.81565 7.25543 -0.0492296
O 13.647 6.22147 11.9349
H 13.2676 7.07284 12.2973
H 13.3208 6.08265 10.9998
O 6.26225 5.63973 1.46507
H 7.04281 6.2605 1.53892
H 5.6437 5.96557 0.750009
O 13.6054 9.81214 -10.31
H 13.4143 9.00664 -9.74896
H 14.142 10.4683 -9.77937
O -8.61321 13.0331 -1.85812
H -8.9174 13.4462 -0.999675
H -8.64385 13.7175 -2.58662
O -8.39348 14.8722 -3.96932
H -8.3535 -14.861 -4.93987
H -8.05014 -14.3337 -3.42435
O -5.73002 4.88555 5.00753
H -6.26911 4.29872 4.40328
H -4.95732 5.26659 4.49976
O 0.987589 -11.233 2.91994
H 0.622497 -11.1299 1.99465
H 0.903106 -12.1872 3.20717
O -7.67433 -12.2335 9.5556
H -8.651 -12.389 9.4073
H -7.16795 -12.4829 8.7301
O 4.63238 -2.76386 -6.43546
H 4.87152 -3.43142 -5.73028
H 3.91944 -3.14307 -7.02537
O 3.00927 -4.65732 -9.78245
H 3.65861 -5.34414 -9.45576
H 2.07857 -5.01481 -9.70449
O 5.51074 -3.49138 6.12498
H 4.65333 -3.33096 6.61406
H 5.94719 -2.61501 5.9211
O -6.43925 -6.45555 -10.8646
H -5.55235 -6.90677 -10.7651
H -6.79072 -6.61118 -11.7878
O -14.7806 -5.88617 -14.1948
H -14.3212 -5.45029 -14.9688
H 14.5898 -5.2234 -13.7473
O -2.78081 -4.36576 8.42093
H -2.58382 -4.30214 9.39932
H -3.76897 -4.43494 8.28368
O -3.11187 -6.68439 -4.82795
H -2.80539 -7.40875 -5.44558
H -3.49323 -5.92997 -5.36228
O -8.30996 2.87266 -2.00959
H -9.22595 3.09428 -2.34416
H -8.02204 1.99165 -2.38511
O 8.04698 -9.37107 3.13653
H 8.41335 -9.01503 2.27682
H 7.0851 -9.61533 3.0132
O -0.0390587 11.3705 -4.74465
H -0.272152 10.4953 -4.32048
H -0.247698 11.3332 -5.72198
O 1.77033 9.06089 12.4725
H 2.56225 9.35134 13.0098
H 1.99811 8.22933 11.9659
O -3.71148 14.8217 1.85014
H -3.52025 -14.3679 2.44443
H -3.12333 14.0551 2.10781
O -3.48465 -11.9524 7.70385
H -3.62026 -11.4611 8.56428
H -3.06204 -12.8395 7.88956
O -11.2527 -13.7013 -9.33726
H -11.5044 -14.4852 -8.76959
H -11.9194 -13.5964 -10.0752
O -11.0941 -6.24917 -2.9506
H -11.6048 -6.82269 -2.31001
H -11.2956 -5.28648 -2.76971
O 1.93149 -8.12543 12.8336
H 1.7973 -8.56615 13.7212
H 1.0733 -7.70699 12.536
O -12.15 -1.35043 -3.25468
H -11.3175 -0.86548 -2.98661
H -12.9473 -0.783357 -3.04787
O -10.96 -4.6118 11.9003
H -11.4327 -3.81131 11.5317
H -10.3177 -4.96275 11.2189
O 9.68851 -12.966 -1.415
H 9.72164 -13.7628 -2.01843
H 9.00619 -13.1177 -0.699788
O 8.07531 14.0442 2.19997
H 9.06635 14.0846 2.32767
H 7.82463 13.1553 1.81651
O 9.22213 14.8756 10.5353
H 8.24878 -14.9481 10.7113
H 9.53103 14.063 11.0296
O 8.01072 -6.10495 -7.9127
H 8.41064 -7.01233 -7.78304
H 8.61479 -5.41447 -7.51467
O 7.16373 2.56567 2.40097
H 6.41809 2.92678 1.84088
H 7.63972 1.84453 1.89752
O 5.10442 6.92251 7.23281
H 4.63435 7.74848 7.54406
H 5.24556 6.97187 6.244
O -12.8629 4.79171 -3.13813
H -11.9146 4.48517 -3.05504
H -12.8842 5.69979 -3.55649
O -13.7843 8.45876 10.8948
H -12.7946 8.3334 10.9637
H -14.1745 7.72895 10.3334
O -8.53442 -14.4982 -0.118486
H -8.74327 -13.6467 -0.599524
H -8.57835 -14.3429 0.868449
O 8.47775 6.6581 4.01647
H 8.09927 5.74078 4.14046
H 8.46622 6.89493 3.04494
O 12.6681 6.22134 9.34043
H 12.4195 5.34526 8.92719
H 12.1104 6.94874 8.94047
O -2.29233 -4.9785 5.74032
H -2.28522 -4.53795 6.63807
H -1.6711 -4.49244 5.12557
O 11.3247 12.8563 13.3801
H 10.4839 12.3176 13.3267
H 11.4351 13.2109 14.3086
O -3.76791 6.62865 -5.3548
H -3.76341 7.60499 -5.13838
H -3.58372 6.50246 -6.3296
O 8.51767 -7.35227 14.6417
H 7.81005 -7.1946 -14.6404
H 8.58378 -8.3315 14.4498
O 1.4709 4.8619 7.72103
H 1.43398 5.65333 7.1108
H 0.729423 4.92148 8.38942
O 10.5768 -7.67858 9.15697
H 9.76701 -8.26494 9.17913
H 11.201 -7.94439 9.89168
O -2.96761 7.36041 -7.89268
H -3.00627 6.73541 -8.6724
H -3.47177 8.19625 -8.11015
O -13.2813 3.29635 -5.76722
H -13.6536 2.37779 -5.63395
H -12.9556 3.65422 -4.89205
O -10.2015 7.76492 -8.08781
H -11.0397 7.51155 -8.57084
H -10.218 7.37758 -7.16598
O 0.399757 0.0441253 6.7252
H 0.534257 -0.858494 7.1342
H -0.363735 0.00747057 6.08036
O 6.07431 -0.159271 8.70458
H 6.22708 -0.451829 9.64859
H 6.0993 0.839323 8.6569
O 8.68869 7.10005 1.32656
H 8.59503 6.67536 0.426027
H 9.57721 7.55459 1.38995
O 1.87234 -4.5921 -13.2603
H 2.09783 -4.01387 -14.0445
H 0.923258 -4.43105 -12.9894
O -13.1335 4.06357 3.50722
H -12.4189 4.6134 3.93977
H -13.2242 3.19367 3.99213
O 7.91797 -3.85565 -12.6871
H 7.00159 -3.91552 -13.0831
H 8.09753 -4.67153 -12.1374
O 5.47222 -7.90632 -7.47334
H 5.39583 -7.16467 -8.13984
H 5.61739 -7.52161 -6.56174
O -5.26939 13.8829 -7.10611
H -4.6202 14.6435 -7.11344
H -5.14287 13.3447 -6.27278
O 5.93938 8.84247 0.846174
H 5.94711 9.29591 -0.0451304
H 6.83556 8.43425 1.02026
O 14.9527 9.58174 -12.8616
H 14.5155 9.57271 -11.9623
H 14.3207 9.96439 -13.5356
O 9.18932 -10.1068 14.6917
H 8.99964 -9.9736 13.7189
H 8.87061 -11.0122 14.9725
O -12.1509 -8.3185 -9.37976
H -12.9443 -7.77838 -9.09889
H -12.4194 -8.95339 -10.1042
O 1.26058 -8.10175 -10.51
H 0.716639 -8.90255 -10.2591
H 0.921716 -7.72547 -11.3724
O -10.0767 5.67778 12.7237
H -11.0702 5.67905 12.61
H -9.65755 6.22543 11.9995
O -7.58062 -6.64175 -13.9804
H -7.40074 -7.60538 -14.1782
H -8.36662 -6.56859 -13.3664
O -6.22129 2.58277 10.3752
H -5.39243 2.03169 10.2784
H -7.02378 1.98719 10.338
O -4.89954 0.985485 5.72524
H -5.51245 1.51903 6.30813
H -4.7477 0.0864185 6.13599
O 5.05308 -8.56698 8.57733
H 4.60535 -8.48513 9.46779
H 5.15186 -7.65936 8.16922
O -14.6712 6.83365 8.95165
H -14.1199 5.99946 8.96983
H 14.3782 6.63151 9.28332
O -13.6018 -3.57398 8.74407
H -13.6514 -3.06006 7.88761
H -13.3387 -4.51925 8.55082
O -11.142 -9.25187 5.76144
H -11.6408 -9.71191 6.49602
H -10.1857 -9.54419 5.77397
O -4.22694 -8.87064 12.7534
H -4.08203 -7.97805 13.1804
H -5.05687 -9.28704 13.1247
O 11.6352 2.93929 5.6529
H 12.5818 3.20345 5.4677
H 11.094 3.75631 5.85199
O -8.56034 -3.95821 -14.4903
H -9.36067 -4.01545 -13.8934
H -8.03329 -4.80545 -14.4233
O -4.77758 -2.12519 2.39345
H -5.15516 -1.30976 2.83232
H -3.78773 -2.151 2.53347
O -13.9056 -13.253 2.93222
H -14.0277 -14.243 2.86156
H -13.1695 -13.0532 3.579
O 8.594 2.72412 -1.7048
H 8.95923 3.65479 -1.68144
H 8.73155 2.28963 -0.814636
O -0.48892 -9.40478 7.32363
H -0.304895 -9.06311 6.40196
H 0.332102 -9.30574 7.88595
O -4.58592 13.8758 -10.8031
H -3.87466 13.7159 -10.1185
H -5.44702 14.0949 -10.3441
O 3.42707 -1.88918 7.68538
H 3.83893 -1.48035 8.49982
H 3.34561 -1.19588 6.96928
O 10.9195 -6.0848 -14.38
H 10.0723 -6.56922 -14.5986
H 11.3118 -6.46139 -13.5408
O 10.5515 9.05626 14.6494
H 11.0518 8.36482 -14.8003
H 9.61669 8.74 14.4876
O -8.11542 6.29568 -6.74219
H -8.56018 7.09166 -7.15292
H -7.50431 5.87299 -7.4115
O 2.70044 12.2598 -4.25465
H 2.66071 12.8039 -3.41651
H 1.82791 12.3286 -4.73842
O 4.25906 2.9456 -1.95151
H 3.43434 3.3717 -2.32349
H 4.76043 2.49097 -2.68773
O -12.6308 -4.57037 5.12638
H -12.3796 -5.22145 5.84267
H -13.3129 -3.93101 5.48138
O -12.3093 -8.64455 -1.0198
H -13.1467 -9.14162 -1.24728
H -11.5157 -9.1721 -1.32308
O -10.3997 8.7975 4.86717
H -10.0222 9.20659 5.69794
H -10.9211 7.97833 5.10629
O -0.234683 4.07342 -7.13726
H 0.138446 3.81793 -6.24531
H 0.499676 4.42646 -7.71706
O 12.5889 3.0374 -1.17866
H 12.8783 2.30446 -0.562947
H 13.3746 3.35805 -1.70775
O 5.5882 -5.01156 -8.02178
H 5.57456 -4.02374 -7.86651
H 6.53525 -5.33161 -8.04931
O 9.93489 0.817579 6.25972
H 9.99143 0.696348 7.25078
H 10.6108 1.49429 5.96759
O 7.31378 9.88324 -12.8025
H 6.8449 10.1793 -11.9703
H 8.29708 10.0362 -12.7035
O 4.57711 -13.6156 8.27544
H 3.96578 -13.0243 7.74935
H 4.84769 -13.1499 9.11805
O -12.9048 -8.23198 3.03246
H -13.5087 -8.96218 2.71285
H -12.1926 -8.62045 3.61729
O -12.6744 8.17635 -4.09823
H -12.8043 9.13857 -3.85876
H -13.2743 7.93907 -4.86237
O -4.15696 8.2956 8.02171
H -4.30963 8.97305 7.3021
H -4.13768 7.38034 7.6192
O 6.00191 2.07199 -12.8925
H 5.70164 3.0229 -12.817
H 5.67967 1.68836 -13.758
O 1.29662 4.58249 12.9114
H 0.622126 4.66623 13.6449
H 1.24737 3.66507 12.5164
O 4.46027 0.258895 1.2873
H 4.9739 1.08578 1.05811
H 3.49139 0.401437 1.08468
O -4.56778 13.1046 14.3642
H -3.59654 13.1333 14.6007
H -4.67316 13.2084 13.3751
O 8.87231 -2.20391 5.31974
H 9.62806 -1.64348 4.98085
H 8.00349 -1.76066 5.09887
O 6.02516 4.38249 -7.7858
H 6.85168 4.08973 -8.26668
H 6.23542 4.52624 -6.81874
O 5.70853 13.3038 -2.28618
H 5.89822 12.5547 -2.92093
H 4.71958 13.421 -2.19492
O -10.4145 -1.45231 -0.0756094
H -10.8409 -2.35452 -0.141657
H -9.52458 -1.5362 0.37273
O 4.74029 -8.69491 -13.7386
H 4.05131 -8.1182 -13.2995
H 5.62429 -8.22754 -13.7245
O -12.1622 8.10958 13.7428
H -11.7156 8.03819 12.8508
H -11.9 8.97048 14.1789
O -7.50951 6.42082 2.29797
H -7.6486 7.12227 2.99705
H -7.51932 6.84579 1.39277
O -0.143511 -5.74303 9.3329
H -0.97659 -5.27734 9.03423
H 0.458981 -5.88479 8.54741
O -11.3231 3.26885 -13.5226
H -10.7866 3.29808 -12.6792
H -11.7979 4.1403 -13.646
O 0.333603 -2.52216 -7.72017
H -0.22652 -2.97326 -8.41505
H 1.21796 -2.27302 -8.11505
O -5.83003 7.89235 -2.93885
H -6.23895 8.78866 -3.11063
H -6.38886 7.18312 -3.36872
O -9.90328 -0.988689 10.6637
H -10.766 -1.44439 10.4443
H -9.51468 -1.39177 11.4923
O 11.4682 6.91075 4.39114
H 12.1303 6.49678 3.76633
H 10.5428 6.64755 4.11842
O -12.3252 -2.44261 10.9734
H -12.7877 -2.34236 11.8544
H -13.0068 -2.54378 10.2487
O 1.05155 -11.8613 -11.8504
H 0.877166 -12.0344 -12.8198
H 0.467251 -11.1136 -11.5349
O -5.05052 -3.81786 -2.59357
H -4.58776 -4.69252 -2.44895
H -5.20783 -3.3741 -1.71129
O -7.25794 6.68452 -10.6487
H -7.04088 5.87803 -10.0986
H -6.56409 7.38842 -10.4964
O -7.48514 -3.64278 3.26218
H -7.03537 -2.82387 2.90556
H -6.80164 -4.35449 3.42465
O -7.25164 0.463911 -3.05897
H -6.33815 0.520732 -2.65599
H -7.20621 0.718394 -4.02503
O 3.08636 14.5517 -11.1149
H 3.42295 -14.4874 -11.2511
H 2.31553 14.3826 -11.7291
O -9.68615 -6.59543 -11.9507
H -10.3965 -5.96391 -12.2616
H -9.48308 -6.42044 -10.9872
O 2.72413 -5.84583 5.04539
H 2.36324 -5.78435 4.11477
H 3.70477 -6.03876 5.01056
O 7.89244 -13.442 -7.86989
H 8.75496 -12.9856 -8.08854
H 7.14894 -13.0132 -8.38316
O -8.49453 -2.2459 12.4248
H -7.59802 -2.44866 12.0308
H -8.7037 -2.9141 13.1388
O 12.3496 -6.34387 -8.03387
H 11.9163 -5.95714 -7.21977
H 13.1712 -5.81856 -8.25557
O -11.5698 13.0126 -4.24597
H -10.9563 13.7983 -4.32579
H -12.4535 13.3147 -3.8884
O 0.407012 -5.45647 -9.449
H -0.2423 -5.42636 -8.68901
H 0.706346 -6.3995 -9.59451
O 14.1216 14.2512 14.3972
H 14.3906 13.3951 14.8387
H 13.7498 14.0557 13.4896
O -2.47572 1.55002 -5.14478
H -2.34708 2.53229 -5.28145
H -1.6586 1.06113 -5.45038
O 5.48261 -8.97722 13.5311
H 5.89914 -8.06922 13.5771
H 5.05557 -9.1929 14.4093
O -7.34307 -8.17626 -1.23767
H -8.08897 -8.30084 -0.583304
H -7.51824 -7.36243 -1.79183
O 7.82613 -8.58331 9.39095
H 7.9103 -9.14498 10.2141
H 6.98643 -8.82698 8.90556
O -1.3723 3.65036 6.04773
H -1.5499 2.8401 6.60633
H -1.87855 3.58013 5.18815
O -9.79401 -13.8069 13.5147
H -9.34544 -14.5429 13.0076
H -9.10843 -13.1448 13.8176
O -10.8121 10.5353 -10.4796
H -10.5187 11.4775 -10.6411
H -11.23 10.1691 -11.3111
O -0.537199 -2.17392 -11.7915
H 0.31013 -1.72127 -11.5136
H -1.08681 -2.3788 -10.9816
O -12.7607 -1.8913 6.65548
H -12.8917 -1.67131 5.68877
H -12.6729 -1.045 7.18098
O -9.65785 -1.84197 7.1029
H -10.624 -1.87229 7.35925
H -9.17974 -1.18207 7.68258
O -10.3138 -12.446 8.88278
H -10.7191 -11.6787 9.37982
H -10.9943 -13.1712 8.77683
O 2.96204 -13.6025 -0.886267
H 2.33424 -13.1291 -1.50421
H 2.44423 -14.0147 -0.136601
O -7.36553 12.0826 12.674
H -6.39273 11.9513 12.4829
H -7.68892 12.9055 12.2067
O 9.48424 4.90917 6.20978
H 9.89672 5.08957 7.10276
H 9.01727 5.73206 5.88594
O 5.96013 1.77946 4.76275
H 6.61089 2.1408 5.43061
H 6.29677 1.95918 3.83837
O -8.20837 0.991499 -5.85809
H -9.17873 0.76897 -5.76338
H -8.01401 1.23785 -6.80763
O -10.5335 -14.0088 -13.5834
H -11.4078 -14.0703 -14.0649
H -9.95953 -14.7886 -13.8335
O -2.39976 -1.74353 7.66154
H -1.88629 -2.60055 7.61738
H -2.05262 -1.18543 8.41527
O -4.74982 8.44905 4.79654
H -5.71835 8.56626 4.57676
H -4.3902 7.65565 4.30535
O 5.67231 -4.66572 -4.62505
H 5.90252 -5.61827 -4.82437
H 6.44589 -4.22389 -4.17068
O 11.1386 -3.0539 9.47884
H 10.2728 -2.65931 9.17075
H 11.3388 -3.87577 8.94545
O 6.93902 10.2935 14.4674
H 7.42828 9.44192 14.2791
H 6.90238 10.4456 -14.5158
O 3.11276 -0.468799 -4.70804
H 2.47805 -1.24161 -4.70689
H 3.44194 -0.309191 -5.63877
O 8.393 -4.60672 6.76052
H 8.6084 -3.72169 6.34771
H 7.81852 -5.13514 6.13536
O -0.830038 1.9562 8.06505
H -0.578308 1.89208 9.03077
H -0.373988 1.22848 7.55268
O -5.21545 3.73165 -6.57087
H -5.32149 3.90048 -5.5909
H -4.26028 3.51228 -6.76988
O -4.61931 12.3825 -4.81911
H -4.13258 11.9465 -4.06205
H -5.5871 12.1335 -4.78058
O -6.22616 -1.42711 -6.03182
H -5.5879 -0.737871 -6.37484
H -7.10748 -0.997061 -5.83583
O 0.811892 -2.49279 7.94405
H 0.481618 -2.39303 8.8827
H 1.80686 -2.39341 7.92845
O 8.34118 13.9984 -2.87548
H 8.29174 14.9177 -3.266
H 7.42194 13.6909 -2.62952
O 9.9598 1.4328 8.93467
H 9.2179 1.60007 9.58404
H 10.8231 1.34143 9.43115
O -14.9546 -6.38438 12.09
H -14.0346 -6.15713 12.4094
H 14.6012 -5.57817 11.6683
O -8.2555 -6.23999 6.0715
H -8.98618 -6.47138 5.42913
H -7.39531 -6.64114 5.75647
O -12.3547 0.35694 8.12475
H -12.6911 0.70813 8.99859
H -11.8093 1.06123 7.67018
O 5.37863 -1.12288 -13.5612
H 5.4247 -1.36249 -12.5914
H 6.30477 -1.00742 -13.9204
O 13.6196 -2.23758 1.22788
H 14.0094 -2.82857 1.93417
H 13.3365 -2.79397 0.446594
O 13.8722 -14.8749 7.62813
H 14.7768 14.6715 7.66989
H 13.1802 14.3912 7.47194
O 9.91985 -0.09812 3.73219
H 9.85391 0.146117 4.69971
H 10.218 0.698838 3.20679
O -2.82723 8.12499 14.1797
H -3.3732 8.96122 14.232
H -3.33767 7.36763 14.587
O -6.90658 13.377 -9.46316
H -6.5306 13.5995 -8.5636
H -7.86789 13.1183 -9.36795
O 9.60676 -8.56527 -8.30245
H 9.97907 -8.23792 -9.17096
H 8.76584 -9.07902 -8.47277
O 9.78537 11.3098 -12.0931
H 10.274 12.108 -12.4457
H 10.3415 10.4903 -12.2321
O -2.25623 4.84219 1.39948
H -1.92922 4.50816 0.515409
H -1.97645 5.79468 1.52014
O -13.3136 10.8968 -3.93589
H -13.7021 11.4355 -3.18823
H -12.5034 11.3604 -4.29481
O -3.30264 -1.02835 -7.72052
H -4.00705 -0.375978 -8.00035
H -2.55627 -0.539598 -7.26871
O 6.29583 2.64902 8.26176
H 5.61945 3.3822 8.19065
H 6.88959 2.6641 7.45721
O 10.6067 -13.3077 12.9964
H 10.5567 -12.7119 12.1948
H 11.2598 -14.0451 12.8235
O 14.0392 -4.22796 3.11402
H 14.536 -4.82637 2.48535
H 13.1855 -4.66962 3.39007
O -13.7356 -11.266 7.6393
H -14.5334 -11.3387 7.0408
H -14.005 -10.8419 8.50397
O 5.05409 -2.70247 11.7896
H 4.06258 -2.57954 11.7462
H 5.41302 -2.84478 10.8671
O -3.90969 -10.8064 10.1103
H -3.10767 -10.7894 10.7075
H -4.73949 -10.7422 10.6648
O -3.3944 1.33239 -13.4632
H -4.19657 1.15675 -12.8924
H -2.9655 2.19039 -13.1804
O -8.77261 -8.17929 8.24506
H -8.79082 -7.58678 7.43964
H -8.37693 -9.06416 7.99903
O 10.6596 -12.6714 1.8199
H 10.296 -12.5095 2.73733
H 9.99102 -12.3727 1.13886
O -5.03258 9.95363 1.25674
H -4.11109 9.90043 1.64158
H -4.9855 10.324 0.329019
O -11.566 -7.35705 10.7914
H -11.0706 -6.61142 10.3456
H -12.2932 -7.68241 10.1869
O 7.95427 -4.04206 14.4433
H 8.77505 -4.0758 13.873
H 8.16505 -3.57793 -14.6673
O -5.46519 -1.56952 -10.8146
H -5.20389 -2.51393 -10.6148
H -6.13552 -1.55899 -11.5566
O 9.60177 9.01598 -3.36514
H 9.64616 9.93021 -2.96229
H 8.6827 8.64159 -3.24167
O -4.16362 -6.231 -2.22734
H -3.63496 -6.5404 -3.01783
H -4.54409 -7.02317 -1.75005
O -5.702 -2.62241 11.3114
H -5.68486 -2.13619 10.4377
H -5.60651 -3.60444 11.1483
O 1.00323 12.0086 -13.328
H 0.850213 12.9374 -12.9904
H 1.90584 11.9536 -13.755
O -4.29498 -0.661851 12.6368
H -5.06676 -1.15209 12.2317
H -3.65109 -1.3192 13.0284
O -9.45072 -12.8292 -11.3197
H -9.82213 -13.3894 -12.0602
H -10.0433 -12.9017 -10.5174
O 3.01436 7.63087 -3.77905
H 3.05904 8.41932 -3.1655
H 3.42531 7.86952 -4.65896
O 3.15496 6.43138 14.2273
H 2.43573 5.89502 13.7856
H 4.03558 6.22221 13.8021
O 14.8562 11.2987 -8.39256
H -14.1351 11.2737 -8.19345
H 14.3475 10.9422 -7.60877
O -9.6561 -8.36541 0.412142
H -10.4372 -7.76867 0.228235
H -9.76918 -8.79608 1.30759
O 0.5785 14.6621 -12.7192
H -0.307609 14.4991 -12.2852
H 0.597412 -14.385 -13.1016
O 0.662747 -10.9634 0.27351
H -0.110383 -10.3344 0.191483
H 0.646783 -11.6122 -0.487333
O 6.30677 2.16201 -3.83676
H 6.53193 1.34757 -4.37162
H 6.95456 2.25368 -3.08042
O 0.254304 -12.4863 -14.4842
H 1.17846 -12.799 -14.7038
H -0.409301 -12.9984 14.9414
O 5.29114 -10.0318 -11.2668
H 5.12169 -10.0266 -12.2523
H 6.14351 -10.5195 -11.0777
O 3.69358 -12.713 -11.5193
H 2.72881 -12.4505 -11.5401
H 4.2201 -12.0097 -11.0415
O -1.01742 11.7331 -10.627
H -0.10465 11.5029 -10.2895
H -1.53969 12.1776 -9.89914
O 13.12 6.09306 2.41721
H 13.4772 5.20362 2.13193
H 13.1166 6.71708 1.63575
O -6.53538 -12.7677 7.11743
H -6.53378 -13.4628 6.39849
H -5.71153 -12.2061 7.03995
O 7.37129 13.2521 13.831
H 6.75858 12.8469 13.1524
H 8.21538 12.7179 13.879
O 0.816547 -11.9462 6.83414
H 0.587586 -10.9988 7.05811
H 1.80268 -12.0823 6.92959
O -6.05708 13.8993 -13.3316
H -5.66533 13.4344 -14.1257
H -5.3688 13.9617 -12.6088
O 11.1874 4.63898 -9.62486
H 11.1791 3.69505 -9.95504
H 12.1277 4.91363 -9.42387
O -6.88435 -1.91758 -13.4472
H -7.39864 -2.70255 -13.7927
H -7.48793 -1.12221 -13.391
O 4.33036 9.22232 -12.9784
H 4.03606 10.03 -12.4674
H 5.29791 9.31174 -13.2148
O -11.3002 -6.44848 -5.76565
H -11.3511 -7.37856 -6.12957
H -11.5129 -6.46076 -4.78857
O 1.23529 4.6673 -9.56158
H 0.98866 5.60925 -9.78962
H 2.04892 4.66722 -8.98011
O -14.9614 -5.06587 -2.74739
H 14.2094 -4.6015 -2.36762
H -14.1303 -4.67695 -2.34972
O -7.70038 8.83075 4.07748
H -7.37897 9.74458 3.8291
H -8.68131 8.86314 4.26934
O -4.73406 -12.9834 12.2641
H -4.82975 -13.0276 13.2586
H -5.12433 -12.1257 11.9294
O 10.4434 -13.9712 -12.4026
H 11.4299 -13.9787 -12.5665
H 9.96729 -13.7211 -13.2457
O 14.8364 -11.9819 -3.6909
H -14.2083 -12.3187 -3.86042
H 14.2905 -12.0743 -4.52371
O -4.29869 4.39456 7.54737
H -3.49775 4.89811 7.22331
H -4.79224 4.01421 6.76517
O 2.3553 -2.17692 11.4677
H 2.02148 -1.2715 11.7301
H 1.61865 -2.84577 11.5681
O -12.5316 0.991137 -12.5484
H -11.967 1.79623 -12.7306
H -13.1197 1.16804 -11.7592
O 1.0336 1.94233 -13.4232
H 0.593035 1.15431 -13.8533
H 1.84764 2.19559 -13.946
O 6.28384 -10.9405 1.31219
H 6.95011 -11.6572 1.10613
H 5.40316 -11.3583 1.53563
O 1.38521 8.42056 1.94979
H 1.02813 8.97345 2.70272
H 2.37645 8.32838 2.04485
O 8.47677 1.78651 11.3567
H 7.71559 1.20047 11.6346
H 9.28006 1.57626 11.914
O -6.13085 5.65787 8.99937
H -5.3492 5.30017 8.48834
H -6.79359 4.92453 9.1513
O -13.7686 9.02613 7.39301
H -14.0196 8.75387 6.46406
H -13.9582 8.27349 8.02365
O 5.71022 -10.6554 6.9498
H 5.51564 -9.92863 7.60863
H 6.46601 -11.217 7.28659
O -7.96355 -0.31647 8.94317
H -8.45153 -0.662918 9.74438
H -7.06734 -0.75609 8.88286
O -2.0952 -1.43857 14.0318
H -2.92269 -1.8086 14.4542
H -1.43676 -1.19656 14.7445
O -3.42026 1.78248 9.02169
H -2.53689 1.84259 8.55678
H -3.98769 2.56378 8.76153
O -14.3294 -10.4194 -1.40922
H -14.7688 -10.5447 -2.2988
H -14.2818 -11.2982 -0.934321
O -12.4468 0.264903 0.917933
H -11.9925 0.953309 1.48345
H -11.7623 -0.234521 0.386656
O 5.42623 -11.4217 -4.92748
H 4.71677 -10.7169 -4.92473
H 5.80877 -11.5132 -4.00803
O 6.90464 -12.1241 -2.65663
H 7.18785 -11.3283 -2.12129
H 6.41577 -12.7662 -2.06609
O 2.11511 11.9471 -0.26001
H 1.44096 11.3079 -0.630218
H 2.02796 11.9839 0.73555
O 13.2945 -12.1418 -6.02044
H 13.6056 -12.0662 -6.96786
H 12.318 -12.3571 -6.00639
O 5.06319 12.1905 6.63046
H 5.26911 12.4973 7.55973
H 4.39016 11.4517 6.66483
O 11.6552 -2.72813 -5.80101
H 12.6424 -2.71978 -5.96051
H 11.2113 -2.08441 -6.42448
O -7.95142 -8.68171 12.2678
H -8.91812 -8.80558 12.0437
H -7.75223 -7.70572 12.3565
O 5.88144 11.3413 11.2749
H 5.5459 10.4376 11.5412
H 6.45077 11.2578 10.457
O -4.15197 -2.40051 -4.69813
H -4.80262 -1.74309 -5.07832
H -4.5542 -2.84169 -3.89585
O 6.95618 10.444 -7.88864
H 7.69155 11.1125 -7.77736
H 6.07745 10.8793 -7.69265
O 7.21298 5.3544 -14.8174
H 6.38298 5.30893 -14.2614
H 7.99392 5.04152 -14.2767
O 0.766657 2.23415 -10.6993
H 0.876693 3.13958 -10.2892
H 0.853999 2.30544 -11.693
O 1.00752 -4.75688 11.5393
H 0.701422 -5.10605 10.6536
H 1.91008 -5.13165 11.7515
O -0.918467 -5.88854 -3.75223
H -1.8068 -6.30423 -3.94757
H -0.775143 -5.10735 -4.35993
O -1.7977 4.96336 -9.87778
H -1.48368 5.39779 -10.722
H -1.00757 4.65906 -9.34564
O 7.32812 -0.361931 -4.65781
H 7.22318 -0.805348 -5.54801
H 7.41561 -1.05923 -3.94634
O 10.2241 10.6725 10.6526
H 10.8999 11.3455 10.3516
H 9.73659 10.3111 9.85777
O 0.3112 -9.15103 -3.12535
H 1.11455 -9.56949 -3.54917
H 0.526935 -8.21216 -2.85689
O -0.1642 -9.72536 14.7542
H 0.314974 -10.5798 14.9554
H 0.190688 -8.9979 -14.6294
O -9.47866 -13.8152 2.89937
H -9.16461 -14.157 3.78518
H -9.31176 -12.8308 2.8437
O 8.98449 -10.3381 11.3316
H 9.27539 -11.0636 10.7078
H 8.28503 -10.6927 11.9522
O 12.7269 13.1956 -0.0439336
H 13.1191 12.7221 0.744797
H 11.8845 13.6593 0.230694
O 8.54498 -2.08401 8.40179
H 7.84927 -1.37189 8.30721
H 8.27147 -2.88921 7.87554
O 4.58518 11.3908 -6.59278
H 4.90749 11.9541 -5.83195
H 3.78464 11.8209 -7.01022
O -0.372576 7.69137 -7.16483
H -1.35157 7.56455 -7.32479
H 0.109712 7.70167 -8.04084
O 14.8455 -12.2753 -8.39703
H -14.5058 -11.6166 -7.97008
H 14.2599 -11.8033 -9.05609
O 3.93159 7.51638 1.7247
H 4.17275 7.37631 2.68507
H 4.65582 8.03623 1.27156
O -12.0608 5.76588 -10.5989
H -11.2425 5.19184 -10.57
H -12.5542 5.6003 -11.4529
O 10.6565 9.75756 -5.50169
H 10.7612 10.7428 -5.36589
H 10.1187 9.37294 -4.75138
O 2.6405 -2.15478 -8.93714
H 2.48955 -1.52155 -9.69629
H 2.89177 -3.0532 -9.2974
O -3.21783 -7.48998 -8.71824
H -3.17275 -8.39152 -8.2878
H -3.29143 -7.59732 -9.70978
O 14.2909 -14.9038 -1.02423
H 13.6539 -14.1882 -1.31091
H 13.7969 14.3694 -0.505381
O 5.69198 -14.0202 -0.879565
H 4.72647 -13.8616 -0.672801
H 5.849 14.9715 -1.00763
O -9.80475 3.25428 13.8935
H -10.046 3.34916 14.8594
H -9.75623 4.15965 13.4716
O 10.261 -12.6308 9.69582
H 11.1853 -12.5912 9.31626
H 10.0055 -13.5849 9.85233
O 1.14309 -6.82232 -6.9423
H 1.44806 -6.46129 -6.06097
H 0.247651 -6.43845 -7.16793
O 10.9549 -4.54601 5.49227
H 11.8575 -4.59539 5.91992
H 10.2701 -4.92617 6.11414
O 2.54453 -10.2238 -4.70583
H 2.4606 -9.78557 -5.60082
H 3.06953 -9.63283 -4.09326
O 2.44692 -7.33469 0.586075
H 3.26263 -7.87643 0.383049
H 1.6384 -7.9219 0.546375
O 2.92371 -2.89561 14.7208
H 3.59799 -2.16058 14.7927
H 3.23143 -3.56532 14.0449
O 14.271 9.85081 12.351
H 14.9618 9.3 11.8824
H 13.4378 9.31052 12.4692
O -11.6663 6.60656 5.7602
H -12.5978 6.9095 5.96165
H -11.4313 5.8353 6.35184
O 12.1814 -11.0006 -13.1535
H 12.1021 -10.3593 -13.9168
H 12.4712 -11.8938 -13.4974
O 8.70888 11.4175 6.68245
H 9.60783 11.3303 6.25305
H 8.00051 11.4136 5.97655
O -0.32523 10.6541 13.102
H -0.704644 10.5653 14.023
H 0.495203 10.0877 13.0234
O 13.9621 -0.10815 -14.3564
H 13.8497 0.12762 -13.391
H 14.8687 -0.505248 -14.4992
O -0.313574 10.4658 -7.55919
H 0.421863 10.724 -8.18573
H -0.219531 9.50071 -7.31449
O 10.479 4.15035 8.8466
H 9.6661 4.7327 8.83671
H 10.2041 3.19273 8.76011
O -9.76004 4.51744 -5.17346
H -9.93007 4.30392 -6.13553
H -8.78428 4.68926 -5.03756
O 4.12374 -11.0575 -9.08737
H 4.54412 -10.5591 -9.84562
H 3.4045 -10.4963 -8.67764
O 2.87042 4.7344 4.39571
H 2.7745 5.62099 4.84831
H 2.31845 4.05316 4.87668
O -7.58089 1.37498 -8.51945
H -7.06254 1.96178 -9.1416
H -8.55481 1.43496 -8.73851
O -8.59029 -7.78109 -3.97084
H -9.3511 -7.18069 -3.72432
H -8.23569 -7.51848 -4.86827
O -5.10626 7.43299 10.8176
H -4.34236 7.8665 10.3395
H -5.61864 6.86068 10.1773
O -11.4684 10.204 7.90494
H -10.6721 9.60079 7.85894
H -12.2608 9.74092 7.50759
O 12.2699 -10.2005 8.50477
H 11.8909 -9.93248 9.39059
H 12.7565 -11.069 8.59938
O 3.86029 -13.7784 -8.40548
H 4.37963 -14.2849 -9.09385
H 3.9947 -12.7969 -8.54201
O -13.6297 -8.24848 8.89593
H -14.1311 -8.32549 9.75779
H -14.2419 -8.4606 8.13411
O -11.8853 9.91921 2.74127
H -11.2168 9.46926 3.33352
H -12.3739 10.6194 3.26191
O 13.0215 -3.6452 -1.28475
H 12.6243 -4.31594 -0.65833
H 12.4184 -3.52801 -2.07384
O 9.65603 7.37057 -9.89441
H 10.2629 6.58629 -9.76544
H 9.94822 8.11952 -9.29962
O -10.1551 1.70602 -8.87577
H -10.7188 2.51845 -8.72667
H -10.3041 1.05559 -8.13091
O -13.3167 7.22698 -6.93747
H -13.1905 7.82345 -7.73018
H -14.1845 6.73756 -7.02335
O 10.0367 -6.56597 -3.4985
H 10.9163 -6.91713 -3.17761
H 9.46271 -6.33622 -2.71246
O -1.99481 -13.7076 3.66258
H -1.70203 -13.1369 2.89536
H -2.06293 -13.1471 4.488
O -7.42316 10.8458 2.30317
H -6.59294 10.4895 1.87438
H -7.24459 11.7603 2.66646
O 11.4399 3.29788 11.3715
H 11.1822 3.7955 10.5433
H 11.6107 2.33898 11.1447
O 12.9059 -10.9218 1.40313
H 13.3455 -11.3002 0.588473
H 12.3239 -11.6188 1.82206
O 14.4637 4.21559 1.25568