 LAMMPS Data file  bmim-cl-bmim-bf4

  14336  atoms
  13824  bonds
  24576  angles
  30208  dihedrals
   2560  impropers

     14  atom types
     10  bond types
     12  angle types
     20  dihedral types
      5  improper types


      -26.5051500       26.5051500  xlo xhi
      -26.5051500       26.5051500  ylo yhi
      -26.5051500       26.5051500  zlo zhi

 Atoms

      1      1      1        0.1350000        1.1613090      -14.1442130       10.2803240
      2      1      2       -0.0100000        0.3321870      -14.1193060        9.2161420
      3      1      1        0.1350000        1.0312870      -14.5683560        8.1498500
      4      1      3       -0.1200000        2.3180870      -14.8873390        8.5372770
      5      1      3       -0.1200000        2.3969340      -14.6213910        9.8960100
      6      1      4       -0.2500000        0.4737490      -14.6775690        6.7982100
      7      1      4       -0.2500000        0.7148780      -13.8011040       11.6494070
      8      1      5       -0.0760000        0.0123630      -14.9901400       12.3042030
      9      1      6       -0.1960000       -0.6316310      -14.5682420       13.6286740
     10      1      7       -0.2940000       -1.3937650      -15.7272420       14.2799520
     11      1      8        0.1550000        3.2226810      -14.7273660       10.5935040
     12      1      8        0.1550000        3.0634610      -15.2630740        7.8412070
     13      1      9        0.1650000       -0.7389500      -13.8016730        9.3045670
     14      1     10        0.1200000       -0.5792670      -14.3762870        6.8458280
     15      1     10        0.1200000        1.0226230      -14.0124070        6.1187070
     16      1     10        0.1200000        0.5489680      -15.7174940        6.4543800
     17      1     10        0.1200000       -0.0006330      -12.9733810       11.5421070
     18      1     10        0.1200000        1.6090140      -13.4770340       12.2045620
     19      1     11        0.0980000       -0.7839450      -15.3184320       11.6150490
     20      1     11        0.0980000        0.7253170      -15.8211630       12.4573680
     21      1     11        0.0980000       -1.3272720      -13.7399800       13.4140710
     22      1     11        0.0980000        0.1422150      -14.1876910       14.3209020
     23      1     11        0.0980000       -2.1928110      -16.0804030       13.6093740
     24      1     11        0.0980000       -0.7220970      -16.5746620       14.4950900
     25      1     11        0.0980000       -1.8594860      -15.4151690       15.2279560
     26      2     12       -0.6400000       -2.3748250      -13.2775480       10.3964540
     27      3      1        0.1350000       16.2051920        1.7770360       -8.3681870
     28      3      2       -0.0100000       17.2184180        1.5859680       -9.2384820
     29      3      1        0.1350000       18.2678950        2.3178910       -8.8023020
     30      3      3       -0.1200000       17.9233810        2.9795140       -7.6398610
     31      3      3       -0.1200000       16.6106190        2.6291580       -7.3623620
     32      3      4       -0.2500000       19.5597100        2.3807640       -9.4929310
     33      3      4       -0.2500000       14.9135310        1.0619170       -8.4760200
     34      3      5       -0.0760000       15.0195080       -0.3411650       -7.8791760
     35      3      6       -0.1960000       13.7533470       -1.1486580       -8.1820620
     36      3      7       -0.2940000       13.8553790       -2.5804250       -7.6454740
     37      3      8        0.1550000       15.9539060        2.9236770       -6.5489900
     38      3      8        0.1550000       18.6115520        3.6352770       -7.1129180
     39      3      9        0.1650000       17.1250770        0.8967020      -10.1172570
     40      3     10        0.1200000       19.5072380        1.7133620      -10.3610900
     41      3     10        0.1200000       19.7506610        3.4101350       -9.8236260
     42      3     10        0.1200000       20.3545540        2.0467730       -8.8132290
     43      3     10        0.1200000       14.6942140        0.9816530       -9.5502880
     44      3     10        0.1200000       14.1608740        1.6845800       -7.9675940
     45      3     11        0.0980000       15.8772720       -0.8376790       -8.3634580
     46      3     11        0.0980000       15.2011790       -0.2829500       -6.7901550
     47      3     11        0.0980000       13.6238200       -1.1704210       -9.2769310
     48      3     11        0.0980000       12.8703080       -0.6438770       -7.7481580
     49      3     11        0.0980000       14.7096070       -3.0991450       -8.1081810
     50      3     11        0.0980000       13.9968890       -2.5868790       -6.5520960
     51      3     11        0.0980000       12.9447980       -3.1568940       -7.8724590
     52      4     12       -0.6400000       16.1376050       -0.5204310      -11.1941230
     53      5      1        0.1350000       18.3601280      -18.3468920      -24.0059550
     54      5      2       -0.0100000       18.5753210      -17.8972780      -22.7521270
     55      5      1        0.1350000       17.3707870      -17.5867160      -22.2229630
     56      5      3       -0.1200000       16.3760780      -17.8444400      -23.1459130
     57      5      3       -0.1200000       17.0083110      -18.3337070      -24.2790510
     58      5      4       -0.2500000       17.1895830      -17.0504460      -20.8704520
     59      5      4       -0.2500000       19.4473960      -18.8646760      -24.8668640
     60      5      5       -0.0760000       19.7710220      -20.3167820      -24.5165130
     61      5      6       -0.1960000       21.0302400      -20.7781560      -25.2570890
     62      5      7       -0.2940000       21.4127070      -22.2133360      -24.8799010
     63      5      8        0.1550000       16.6042530      -18.6560300      -25.2342640
     64      5      8        0.1550000       15.3244870      -17.6623770      -22.9402890
     65      5      9        0.1650000       19.6012290      -17.8581820      -22.3026490
     66      5     10        0.1200000       18.1766110      -17.0002030      -20.3959720
     67      5     10        0.1200000       16.7510390      -16.0455920      -20.9285360
     68      5     10        0.1200000       16.5336190      -17.7183600      -20.2969340
     69      5     10        0.1200000       20.3277280      -18.2389740      -24.6616660
     70      5     10        0.1200000       19.1141270      -18.7428740      -25.9093580
     71      5     11        0.0980000       19.9675600      -20.3545570      -23.4317280
     72      5     11        0.0980000       18.9108700      -20.9700560      -24.7525890
     73      5     11        0.0980000       21.8492230      -20.0916060      -24.9852380
     74      5     11        0.0980000       20.8754440      -20.7023530      -26.3493930
     75      5     11        0.0980000       21.6086010      -22.2820990      -23.7983410
     76      5     11        0.0980000       20.6047150      -22.9200500      -25.1313890
     77      5     11        0.0980000       22.3221630      -22.5359800      -25.4107380
     78      6     12       -0.6400000       21.5932850      -18.2753130      -22.3295270
     79      7      1        0.1350000       22.1634670       17.0453730       23.8769320
     80      7      2       -0.0100000       20.8776750       16.8227600       24.2200500
     81      7      1        0.1350000       20.4291470       17.9340890       24.8454590
     82      7      3       -0.1200000       21.4366100       18.8774320       24.8986090
     83      7      3       -0.1200000       22.5388280       18.3110170       24.2762020
     84      7      4       -0.2500000       19.0716130       18.0750010       25.3811380
     85      7      4       -0.2500000       22.9608470       16.0752490       23.0930590
     86      7      5       -0.0760000       22.6529800       16.2007910       21.6012320
     87      7      6       -0.1960000       23.3147220       15.0608960       20.8204080
     88      7      7       -0.2940000       22.9748300       15.1277650       19.3276610
     89      7      8        0.1550000       23.5359380       18.7046400       24.1017940
     90      7      8        0.1550000       21.3044040       19.8502890       25.3648120
     91      7      9        0.1650000       20.3493260       15.8695300       23.9588120
     92      7     10        0.1200000       18.5208440       17.1580160       25.1409890
     93      7     10        0.1200000       19.1175380       18.2093360       26.4698400
     94      7     10        0.1200000       18.5811750       18.9382180       24.9124730
     95      7     10        0.1200000       22.6603460       15.0766050       23.4409130
     96      7     10        0.1200000       24.0192690       16.2698170       23.3266890
     97      7     11        0.0980000       21.5591320       16.1172400       21.4857740
     98      7     11        0.0980000       22.9839370       17.1851460       21.2219260
     99      7     11        0.0980000       22.9497870       14.1097380       21.2424400
    100      7     11        0.0980000       24.4111200       15.0932730       20.9607590
    101      7     11        0.0980000       21.8856530       15.0531870       19.1827300
    102      7     11        0.0980000       23.3195540       16.0757920       18.8827440
    103      7     11        0.0980000       23.4482660       14.3018890       18.7737790
    104      8     12       -0.6400000       20.2418570       14.0781520       22.9983840
    105      9      1        0.1350000       13.0326600        8.5665720      -13.7998040
    106      9      2       -0.0100000       12.1080760        8.0162860      -12.9856320
    107      9      1        0.1350000       12.7714980        7.3716460      -11.9998960
    108      9      3       -0.1200000       14.1329010        7.5150510      -12.1835250
    109      9      3       -0.1200000       14.2967420        8.2811890      -13.3277680
    110      9      4       -0.2500000       12.1088280        6.6341890      -10.9197420
    111      9      4       -0.2500000       12.6741560        9.4281590      -14.9489580
    112      9      5       -0.0760000       12.3870020       10.8563840      -14.4865650
    113      9      6       -0.1960000       11.8134300       11.6869300      -15.6390230
    114      9      7       -0.2940000       11.4608950       13.1087200      -15.1889950
    115      9      8        0.1550000       15.1966930        8.6260790      -13.8284920
    116      9      8        0.1550000       14.8645030        7.0720630      -11.5128590
    117      9      9        0.1650000       11.0089220        8.1534800      -13.1561740
    118      9     10        0.1200000       11.0265720        6.7484450      -11.0522130
    119      9     10        0.1200000       12.3825180        5.5724710      -10.9769800
    120      9     10        0.1200000       12.4122820        7.0527710       -9.9512250
    121      9     10        0.1200000       11.7600670        8.9985900      -15.3831300
    122      9     10        0.1200000       13.5109610        9.3723790      -15.6626410
    123      9     11        0.0980000       11.6295080       10.7942960      -13.6870880
    124      9     11        0.0980000       13.3048230       11.3212410      -14.0817520
    125      9     11        0.0980000       10.9057930       11.1758430      -16.0009280
    126      9     11        0.0980000       12.5361210       11.7228670      -16.4752410
    127      9     11        0.0980000       10.7094180       13.0767990      -14.3845470
    128      9     11        0.0980000       12.3506150       13.6390730      -14.8112850
    129      9     11        0.0980000       11.0431440       13.6978350      -16.0205150
    130     10     12       -0.6400000        9.4310970        9.0143830      -14.1113290
    131     11      1        0.1350000        6.4592020      -10.6126490       13.9170090
    132     11      2       -0.0100000        6.3613610       -9.2675500       13.8760040
    133     11      1        0.1350000        5.2369970       -8.9659220       13.1888410
    134     11      3       -0.1200000        4.6081110      -10.1294110       12.7907200
    135     11      3       -0.1200000        5.3857330      -11.1771750       13.2603970
    136     11      4       -0.2500000        4.7902920       -7.5956180       12.9197200
    137     11      4       -0.2500000        7.5262840      -11.3138180       14.6660830
    138     11      5       -0.0760000        7.1778680      -11.4009030       16.1517190
    139     11      6       -0.1960000        8.3716030      -11.9327930       16.9511190
    140     11      7       -0.2940000        8.0707480      -11.9758320       18.4530930
    141     11      8        0.1550000        5.2587460      -12.2519660       13.1693800
    142     11      8        0.1550000        3.6857290      -10.1297380       12.2158420
    143     11      9        0.1650000        7.1078540       -8.6016700       14.3813710
    144     11     10        0.1200000        5.4980960       -6.9123960       13.4035610
    145     11     10        0.1200000        4.7800770       -7.4178050       11.8363430
    146     11     10        0.1200000        3.7857450       -7.4495380       13.3378890
    147     11     10        0.1200000        8.4368150      -10.7100600       14.5435940
    148     11     10        0.1200000        7.6463290      -12.3036930       14.1987150
    149     11     11        0.0980000        6.9534540      -10.3767780       16.4946770
    150     11     11        0.0980000        6.2861280      -12.0372550       16.3007690
    151     11     11        0.0980000        9.2265860      -11.2624400       16.7623850
    152     11     11        0.0980000        8.6481780      -12.9412510       16.5914630
    153     11     11        0.0980000        7.8361080      -10.9651200       18.8222530
    154     11     11        0.0980000        7.2111150      -12.6317100       18.6684890
    155     11     11        0.0980000        8.9351760      -12.3527780       19.0220160
    156     12     12       -0.6400000        8.7022730       -8.2940700       15.6086520
    157     13      1        0.1350000        6.1836250       20.9854100      -23.6899600
    158     13      2       -0.0100000        6.4924190       22.0430580      -22.9111320
    159     13      1        0.1350000        5.6141740       22.0570690      -21.8835840
    160     13      3       -0.1200000        4.7385880       20.9957480      -22.0046280
    161     13      3       -0.1200000        5.1067140       20.3113780      -23.1532010
    162     13      4       -0.2500000        5.6177780       23.0697400      -20.8233050
    163     13      4       -0.2500000        6.9898050       20.5995270      -24.8700370
    164     13      5       -0.0760000        8.2177750       19.7936130      -24.4473280
    165     13      6       -0.1960000        9.1548900       19.5806930      -25.6404050
    166     13      7       -0.2940000       10.4242440       18.8249850      -25.2330480
    167     13      8        0.1550000        4.6858260       19.4238050      -23.6165090
    168     13      8        0.1550000        3.9387810       20.8117570      -21.2920770
    169     13      9        0.1650000        7.3620870       22.7131520      -23.1362890
    170     13     10        0.1200000        6.4611040       23.7451020      -21.0092270
    171     13     10        0.1200000        4.6754180       23.6325430      -20.8485420
    172     13     10        0.1200000        5.7408200       22.5788730      -19.8490200
    173     13     10        0.1200000        7.3179080       21.5378600      -25.3395820
    174     13     10        0.1200000        6.3227070       20.0371560      -25.5419130
    175     13     11        0.0980000        8.7497540       20.3860470      -23.6838930
    176     13     11        0.0980000        7.9104220       18.8269210      -24.0075530
    177     13     11        0.0980000        9.4245500       20.5740510      -26.0360200
    178     13     11        0.0980000        8.6275890       19.0305380      -26.4417280
    179     13     11        0.0980000       10.9733490       19.3918180      -24.4648960
    180     13     11        0.0980000       10.1815750       17.8308090      -24.8228450
    181     13     11        0.0980000       11.0960510       18.6813220      -26.0938810
    182     14     12       -0.6400000        9.0435080       23.1874660      -24.1807310
    183     15      1        0.1350000       21.8951040       23.2426100       -1.8501230
    184     15      2       -0.0100000       23.0350420       23.2826150       -1.1293680
    185     15      1        0.1350000       23.1393680       24.5257670       -0.6087370
    186     15      3       -0.1200000       22.0535530       25.2860310       -0.9969480
    187     15      3       -0.1200000       21.2595730       24.4648200       -1.7832750
    188     15      4       -0.2500000       24.2580300       24.9655260        0.2308550
    189     15      4       -0.2500000       21.4035050       22.0067470       -2.5000370
    190     15      5       -0.0760000       20.6718740       21.1193570       -1.4933860
    191     15      6       -0.1960000       20.3535400       19.7555440       -2.1143740
    192     15      7       -0.2940000       19.6710510       18.8228340       -1.1081160
    193     15      8        0.1550000       20.3197020       24.6607390       -2.2910570
    194     15      8        0.1550000       21.9294170       26.3244170       -0.7009430
    195     15      9        0.1650000       23.6952760       22.3847510       -1.0111480
    196     15     10        0.1200000       24.9271000       24.1085570        0.3716690
    197     15     10        0.1200000       24.7956860       25.7813570       -0.2699180
    198     15     10        0.1200000       23.8752180       25.3034830        1.2027400
    199     15     10        0.1200000       22.2936120       21.4769450       -2.8682940
    200     15     10        0.1200000       20.7599430       22.3207260       -3.3366630
    201     15     11        0.0980000       21.3522200       20.9662030       -0.6387010
    202     15     11        0.0980000       19.7508580       21.6181500       -1.1394140
    203     15     11        0.0980000       21.3049550       19.3093800       -2.4486440
    204     15     11        0.0980000       19.7113310       19.8864170       -3.0050340
    205     15     11        0.0980000       20.3267900       18.6571930       -0.2389540
    206     15     11        0.0980000       18.7209120       19.2513640       -0.7487570
    207     15     11        0.0980000       19.4511830       17.8424090       -1.5591400
    208     16     12       -0.6400000       24.0910620       20.4012340       -1.2392310
    209     17      1        0.1350000      -23.3993540      -11.5290310       11.9478450
    210     17      2       -0.0100000      -24.4945720      -11.4078330       11.1691580
    211     17      1        0.1350000      -24.7365270      -10.0866390       11.0166090
    212     17      3       -0.1200000      -23.7843010       -9.3566250       11.7007510
    213     17      3       -0.1200000      -22.9304040      -10.2776160       12.2887460
    214     17      4       -0.2500000      -25.8578710       -9.5486800       10.2401480
    215     17      4       -0.2500000      -22.7819870      -12.8376480       12.2605620
    216     17      5       -0.0760000      -21.8858910      -13.3021310       11.1127990
    217     17      6       -0.1960000      -21.4213350      -14.7432300       11.3459770
    218     17      7       -0.2940000      -20.5678280      -15.2563830       10.1812910
    219     17      8        0.1550000      -22.0534420      -10.1348630       12.9133620
    220     17      8        0.1550000      -23.7846830       -8.2700280       11.7248060
    221     17      9        0.1650000      -25.0215500      -12.2998040       10.7416920
    222     17     10        0.1200000      -26.3978660      -10.3961920        9.8019590
    223     17     10        0.1200000      -26.5256200       -8.9817770       10.9020830
    224     17     10        0.1200000      -25.4727380       -8.8994460        9.4429720
    225     17     10        0.1200000      -23.6114720      -13.5489200       12.3815560
    226     17     10        0.1200000      -22.2314760      -12.7127250       13.2060940
    227     17     11        0.0980000      -22.4933610      -13.2732260       10.1924960
    228     17     11        0.0980000      -21.0224270      -12.6210080       10.9993870
    229     17     11        0.0980000      -22.3208780      -15.3720320       11.4528360
    230     17     11        0.0980000      -20.8505320      -14.8081400       12.2908610
    231     17     11        0.0980000      -21.1485090      -15.2323120        9.2458210
    232     17     11        0.0980000      -19.6658590      -14.6370990       10.0453540
    233     17     11        0.0980000      -20.2429940      -16.2947300       10.3525100
    234     18     12       -0.6400000      -25.1599490      -14.2942500       10.3595440
    235     19      1        0.1350000       23.0109340      -17.3945870       15.3240040
    236     19      2       -0.0100000       23.5265550      -18.4042920       16.0555620
    237     19      1        0.1350000       24.6956440      -17.9688150       16.5760990
    238     19      3       -0.1200000       24.9271140      -16.6669830       16.1769000
    239     19      3       -0.1200000       23.8498750      -16.3015290       15.3837420
    240     19      4       -0.2500000       25.5641930      -18.7892370       17.4259430
    241     19      4       -0.2500000       21.6852210      -17.4771720       14.6704920
    242     19      5       -0.0760000       20.5685170      -17.1800430       15.6708800
    243     19      6       -0.1960000       19.1999620      -17.4734640       15.0480540
    244     19      7       -0.2940000       18.0629500      -17.2400270       16.0485560
    245     19      8        0.1550000       23.6319270      -15.3715240       14.8668520
    246     19      8        0.1550000       25.8148070      -16.1130090       16.4708180
    247     19      9        0.1650000       22.9914140      -19.3810080       16.1808420
    248     19     10        0.1200000       25.0697760      -19.7564760       17.5738650
    249     19     10        0.1200000       26.5324280      -18.9362540       16.9296210
    250     19     10        0.1200000       25.7055630      -18.2907370       18.3938440
    251     19     10        0.1200000       21.5823840      -18.5110590       14.3111930
    252     19     10        0.1200000       21.7005570      -16.7687760       13.8274980
    253     19     11        0.0980000       20.7144260      -17.8536510       16.5321450
    254     19     11        0.0980000       20.6302350      -16.1313770       16.0156260
    255     19     11        0.0980000       19.1987240      -18.5272630       14.7232530
    256     19     11        0.0980000       19.0500930      -16.8441580       14.1511990
    257     19     11        0.0980000       18.1870970      -17.8964810       16.9240730
    258     19     11        0.0980000       18.0486640      -16.1946100       16.3984710
    259     19     11        0.0980000       17.0829260      -17.4591410       15.5962970
    260     20     12       -0.6400000       21.3616980      -20.5799600       15.9582440
    261     21      1        0.1350000       -3.6235080       11.0817450       -5.3403290
    262     21      2       -0.0100000       -3.5708930        9.9350030       -6.0493860
    263     21      1        0.1350000       -2.9494260       10.2115330       -7.2175790
    264     21      3       -0.1200000       -2.5977130       11.5467160       -7.2534760
    265     21      3       -0.1200000       -3.0233720       12.0977990       -6.0542160
    266     21      4       -0.2500000       -2.7109380        9.2170190       -8.2681850
    267     21      4       -0.2500000       -4.1609680       11.1454060       -3.9624690
    268     21      5       -0.0760000       -3.1098360       10.6927660       -2.9493890
    269     21      6       -0.1960000       -3.7326520       10.5571490       -1.5563140
    270     21      7       -0.2940000       -2.7147020       10.0479430       -0.5302630
    271     21      8        0.1550000       -2.9507440       13.1124320       -5.6736490
    272     21      8        0.1550000       -2.0914580       11.9966580       -8.1034940
    273     21      9        0.1650000       -3.9658960        8.9673850       -5.6447480
    274     21     10        0.1200000       -3.0835440        8.2519060       -7.9054170
    275     21     10        0.1200000       -3.2502370        9.5074870       -9.1793450
    276     21     10        0.1200000       -1.6338980        9.1490530       -8.4698950
    277     21     10        0.1200000       -5.0138720       10.4524350       -3.9318160
    278     21     10        0.1200000       -4.4922110       12.1825120       -3.7969800
    279     21     11        0.0980000       -2.7515460        9.7007130       -3.2723040
    280     21     11        0.0980000       -2.2594810       11.3992230       -2.9360810
    281     21     11        0.0980000       -4.5715780        9.8455150       -1.6322690
    282     21     11        0.0980000       -4.1445280       11.5301660       -1.2300770
    283     21     11        0.0980000       -2.3342520        9.0593260       -0.8315410
    284     21     11        0.0980000       -1.8584280       10.7369390       -0.4429670
    285     21     11        0.0980000       -3.1707960        9.9465800        0.4670840
    286     22     12       -0.6400000       -4.7257060        7.8229330       -4.1427730
    287     23      1        0.1350000       -7.1623420      -19.2158970       21.3319940
    288     23      2       -0.0100000       -8.4168050      -19.1155150       20.8453810
    289     23      1        0.1350000       -8.6513760      -17.8065890       20.6023680
    290     23      3       -0.1200000       -7.5346260      -17.0640140       20.9327590
    291     23      3       -0.1200000       -6.5854660      -17.9645990       21.3922610
    292     23      4       -0.2500000       -9.9184120      -17.2908230       20.0748160
    293     23      4       -0.2500000       -6.5236150      -20.5170260       21.6328340
    294     23      5       -0.0760000       -5.9661870      -21.1541090       20.3602430
    295     23      6       -0.1960000       -5.4993490      -22.5863590       20.6389430
    296     23      7       -0.2940000       -4.9888210      -23.2710800       19.3666180
    297     23      8        0.1550000       -5.5737510      -17.8068680       21.7543930
    298     23      8        0.1550000       -7.4972880      -15.9830020       20.8264990
    299     23      9        0.1650000       -9.0615380      -20.0160200       20.6737560
    300     23     10        0.1200000      -10.5771830      -18.1476000       19.8908740
    301     23     10        0.1200000      -10.3770410      -16.6178090       20.8111170
    302     23     10        0.1200000       -9.7322380      -16.7549330       19.1348790
    303     23     10        0.1200000       -7.3144900      -21.1613920       22.0425930
    304     23     10        0.1200000       -5.7453680      -20.3233130       22.3874900
    305     23     11        0.0980000       -6.7885160      -21.1891050       19.6258290
    306     23     11        0.0980000       -5.1414150      -20.5408340       19.9528040
    307     23     11        0.0980000       -6.3591390      -23.1463060       21.0429370
    308     23     11        0.0980000       -4.7071730      -22.5823040       21.4104850
    309     23     11        0.0980000       -5.7893060      -23.3140740       18.6114710
    310     23     11        0.0980000       -4.1344310      -22.7238560       18.9352200
    311     23     11        0.0980000       -4.6611830      -24.3021270       19.5730000
    312     24     12       -0.6400000       -9.3512450      -22.0285150       20.5791870
    313     25      1        0.1350000       10.4225600       -3.9096030       -5.6744840
    314     25      2       -0.0100000        9.8121200       -5.1049150       -5.8128230
    315     25      1        0.1350000        9.8124310       -5.7005500       -4.5993220
    316     25      3       -0.1200000       10.4250270       -4.8761210       -3.6758790
    317     25      3       -0.1200000       10.8080640       -3.7335000       -4.3620290
    318     25      4       -0.2500000        9.2450290       -7.0281560       -4.3439300
    319     25      4       -0.2500000       10.5309950       -2.9346000       -6.7830980
    320     25      5       -0.0760000        9.2362800       -2.1358590       -6.9307990
    321     25      6       -0.1960000        9.2748870       -1.2845580       -8.2038840
    322     25      7       -0.2940000        7.9648330       -0.5164530       -8.4089900
    323     25      8        0.1550000       11.3194260       -2.8382000       -4.0206610
    324     25      8        0.1550000       10.5461480       -5.1536390       -2.6320470
    325     25      9        0.1650000        9.3811800       -5.4425390       -6.7907530
    326     25     10        0.1200000        8.8092390       -7.3913290       -5.2820520
    327     25     10        0.1200000       10.0387840       -7.7100680       -4.0117020
    328     25     10        0.1200000        8.4647190       -6.9508540       -3.5755150
    329     25     10        0.1200000       10.6981510       -3.5233570       -7.6963430