LAMMPS data file via write_data, version 15 May 2015, timestep = 2000000

4560 atoms
7 atom types
5040 bonds
3 bond types
7200 angles
2 angle types
10560 dihedrals
3 dihedral types
2400 impropers
1 improper types

-1.0763502675555259e-01 4.1387635026745990e+01 xlo xhi
-4.0433884491974936e-02 3.5938433884472119e+01 ylo yhi
-3.5711112484589691e-01 2.9555111124838550e+01 zlo zhi
-6.7234083837551181e-02 -1.7036217651000683e+01 -4.1707816797290791e-02 xy xz yz

Masses

1 12.0107
2 1.008
3 12.0107
4 12.0107
5 12.0107
6 12.0107
7 12.0107

Pair Coeffs # lj/cut/coul/cut

1 0 0
2 0 0
3 0 0
4 0 0
5 0 0
6 0 0
7 0 0

Bond Coeffs # harmonic

1 469 1.4
2 367 1.08
3 469 0.7

Angle Coeffs # harmonic

1 35 120
2 63 120

Dihedral Coeffs # opls

1 0 7.25 0 0
2 0 7.25 0 0
3 0 7.25 0 0

Improper Coeffs # cvff

1 2.5 -1 2

Atoms # full

219 13 3 0.0000000000000000e+00 1.8338943383613149e-01 2.4641212315285035e+00 3.3054667143437659e+00 1 0 0
238 14 4 0.0000000000000000e+00 -4.9933029675084972e+00 5.5651004572921181e-01 1.0246802375485522e+01 1 0 0
1755 94 7 0.0000000000000000e+00 -6.4554224240242348e+00 1.4546982824430584e+01 1.2383657863087812e+01 1 0 0
580 33 4 0.0000000000000000e+00 5.0404610212040577e+00 6.0407429919752307e+00 4.1705820928654278e+00 1 0 0
228 13 3 0.0000000000000000e+00 -1.0953329941981922e+00 2.5707683625674354e+00 2.7509654889755382e+00 1 0 0
1282 69 2 0.0000000000000000e+00 -3.9061851682143054e+00 1.1921819797661101e+01 6.6285940370350112e+00 1 0 0
509 29 1 0.0000000000000000e+00 -2.1868982746335739e+00 5.4782783142296321e+00 3.3932871053450371e+00 1 0 0
2127 114 4 0.0000000000000000e+00 -2.2226297653914440e-01 1.5138152821401034e+01 1.0073830625668192e+01 1 0 0
591 33 2 0.0000000000000000e+00 3.6797950525547418e+00 8.7763745840733183e+00 2.7262791759761060e+00 1 0 0
239 14 1 0.0000000000000000e+00 -3.3466657863101812e+00 4.1800807601886030e+00 1.1728299960249243e+01 1 0 0
733 13 6 0.0000000000000000e+00 -4.3731818030278613e-01 2.4417909280964896e+00 2.9499466240735477e+00 1 0 0
583 33 2 0.0000000000000000e+00 5.0158954036395054e+00 3.3039171345448972e+00 4.7578963853262985e+00 1 0 0
4390 233 1 0.0000000000000000e+00 2.1894741360198742e+00 9.1242882552501059e-01 5.2844357849446073e+00 1 1 0
243 14 2 0.0000000000000000e+00 -2.9008405961766668e+00 5.0489885291173975e+00 1.2052526888556162e+01 1 0 0
983 53 2 0.0000000000000000e+00 3.7957692119028685e-01 1.0857011684966455e+01 4.2698584279661178e+00 1 0 0
1356 74 5 0.0000000000000000e+00 1.1021688275209396e+00 1.0309476831090718e+01 1.1079070810715372e+01 1 0 0
1759 94 1 0.0000000000000000e+00 -5.3207890704953265e+00 1.3837764741444623e+01 1.2636162467944633e+01 1 0 0
1346 73 1 0.0000000000000000e+00 4.6637625515906613e+00 9.6168886929844906e+00 1.8995621817960613e+00 1 0 0
1362 74 2 0.0000000000000000e+00 -4.0161625552304336e-01 9.3676843262798588e+00 9.2375769531412857e+00 1 0 0
977 53 7 0.0000000000000000e+00 -2.0916278712817293e-01 9.0218196225277989e+00 5.2561390877927145e+00 1 0 0
609 34 2 0.0000000000000000e+00 -1.1156036454785125e+00 1.5925907843512526e+00 1.0868206211684711e+01 1 0 0
4379 233 3 0.0000000000000000e+00 3.2563467626534126e+00 2.0441014249419684e-01 3.2187199007365681e+00 1 1 0
293 17 1 0.0000000000000000e+00 5.9465910371884974e+00 3.1766360808204572e+00 2.1914265857642592e+00 1 0 0
1005 54 4 0.0000000000000000e+00 -3.7838702925114451e+00 6.7826109354335955e+00 9.8222192237473998e+00 1 0 0
579 33 3 0.0000000000000000e+00 4.1820168748245230e+00 5.1159462346575459e+00 3.6540376011783389e+00 1 0 0
1371 74 2 0.0000000000000000e+00 2.5264869628970743e-01 1.3974379166193748e+01 1.2244184657017525e+01 1 0 0
2049 110 2 0.0000000000000000e+00 -6.5975668503020302e+00 1.6356316776141135e+01 1.1272313508142947e+01 1 0 0
596 34 5 0.0000000000000000e+00 -1.0886802987774447e+00 6.7936059664962691e+00 1.0100270675646659e+01 1 0 0
1769 94 2 0.0000000000000000e+00 -2.9572755468329985e+00 1.4194288686095730e+01 7.4578917459369176e+00 1 0 0
588 33 3 0.0000000000000000e+00 3.1040278073844707e+00 5.5006381539451796e+00 2.8199109207666901e+00 1 0 0
589 33 4 0.0000000000000000e+00 2.1980613154020503e+00 4.5285418630841843e+00 2.3757164076344499e+00 1 0 0
1756 94 5 0.0000000000000000e+00 -6.5472532887262149e+00 1.5254479490535232e+01 1.1155332255464188e+01 1 0 0
753 33 6 0.0000000000000000e+00 3.5988616953843997e+00 5.1787703368358002e+00 3.2944818672026077e+00 1 0 0
1009 54 2 0.0000000000000000e+00 -1.8183796087249759e+00 6.1985520698659506e+00 9.7546961891615425e+00 1 0 0
1352 73 2 0.0000000000000000e+00 4.4798022683144190e+00 8.5911784117716916e+00 3.7408646665366039e+00 1 0 0
578 33 5 0.0000000000000000e+00 4.2540947201298724e+00 3.7389740369891786e+00 4.0469889476284475e+00 1 0 0
2123 114 2 0.0000000000000000e+00 3.5328814324692814e-02 1.3869472094698825e+01 8.4089806227356689e+00 1 0 0
1353 73 2 0.0000000000000000e+00 3.2185256406926319e+00 9.9129184741603957e+00 5.6936724457284988e+00 1 0 0
1751 93 2 0.0000000000000000e+00 1.5357042006407018e-01 1.6304754076091108e+01 2.9102310329238512e-01 1 0 0
587 33 4 0.0000000000000000e+00 2.9689137886650072e+00 6.8276179544781579e+00 2.5145088360220726e+00 1 0 0
980 53 4 0.0000000000000000e+00 -8.0617044060689258e-02 1.0068318106395951e+01 1.7372236736061781e+00 1 0 0
1073 58 2 0.0000000000000000e+00 8.1637922661553564e-01 8.8955727985558202e+00 1.0215048478692468e+01 1 0 0
224 13 2 0.0000000000000000e+00 2.0217380534324554e+00 3.5075096543813920e+00 3.5754768430361246e+00 1 0 0
251 14 2 0.0000000000000000e+00 -4.5511991547010497e+00 5.0538013270210413e+00 1.0133889148517857e+01 1 0 0
990 53 1 0.0000000000000000e+00 -1.2422867446217456e-01 9.4127824245397260e+00 4.8626273688979160e-01 1 0 0
1738 93 5 0.0000000000000000e+00 -1.4181672590834176e+00 1.3356226122362028e+01 4.3528076770889115e+00 1 0 0
1812 97 4 0.0000000000000000e+00 7.0522344111888113e+00 1.4598334688619920e+01 1.2059952917828032e+00 1 0 0
2116 114 5 0.0000000000000000e+00 4.6113607484161978e-01 1.7251443128986320e+01 8.4855399834628322e+00 1 0 0
2254 94 6 0.0000000000000000e+00 -5.0637295635763424e+00 1.4592933220774100e+01 1.0297132697652421e+01 1 0 0
610 34 2 0.0000000000000000e+00 8.6934091668390501e-01 2.9207362115638507e+00 1.1353945855829968e+01 1 0 0
321 18 2 0.0000000000000000e+00 3.0818017537414493e+00 6.7435489792641889e-01 7.4513604618351330e+00 1 0 0
510 29 2 0.0000000000000000e+00 -2.1770135925814014e+00 5.9882162515515995e+00 5.4915230234830918e+00 1 0 0
984 53 2 0.0000000000000000e+00 2.1610580287090575e-01 1.1081148072530425e+01 1.8064488621820964e+00 1 0 0
2114 113 2 0.0000000000000000e+00 1.3677839229858555e+00 1.5771838534925681e+01 5.5691065443516417e+00 1 0 0
234 13 2 0.0000000000000000e+00 1.2946730202066465e+00 5.5459506596207984e+00 2.4146830305930473e+00 1 0 0
301 17 4 0.0000000000000000e+00 6.7166270869398170e+00 2.0337550098052422e+00 2.1358886703376037e+00 1 0 0
577 33 7 0.0000000000000000e+00 3.2562550311317926e+00 2.8096243500297007e+00 3.6078631406265860e+00 1 0 0
1004 54 1 0.0000000000000000e+00 -2.3998847515861224e+00 7.0407793036118713e+00 9.9727728629451597e+00 1 0 0
982 53 2 0.0000000000000000e+00 -1.0591120332232506e-01 9.3467752270599380e+00 6.3013161612535065e+00 1 0 0
2274 114 6 0.0000000000000000e+00 -2.6640760628194649e-01 1.7038897099375614e+01 1.0300476350508069e+01 1 0 0
217 13 7 0.0000000000000000e+00 -2.1278369402924824e-01 1.7298088371959836e-01 4.1498191530146809e+00 1 0 0
597 34 3 0.0000000000000000e+00 -1.1392132962790056e+00 5.4130272096975824e+00 1.0342260905679774e+01 1 0 0
734 14 6 0.0000000000000000e+00 -4.6340769355628737e+00 2.3514251855296378e+00 1.0481756508546328e+01 1 0 0
227 13 4 0.0000000000000000e+00 -1.4578186708769627e+00 3.7044022294702188e+00 2.0477790126376654e+00 1 0 0
2120 114 2 0.0000000000000000e+00 7.3274701920605434e-01 1.5680503361432535e+01 6.8774156872183481e+00 1 0 0
2108 113 3 0.0000000000000000e+00 4.3236153324456401e+00 1.7039718687110138e+01 3.2248117318101608e+00 1 0 0
237 14 3 0.0000000000000000e+00 -4.5301881026757727e+00 1.7458423945380739e+00 1.0786458557880694e+01 1 0 0
985 53 2 0.0000000000000000e+00 -8.5740634712560793e-01 7.1613550832989796e+00 6.1284479148280973e+00 1 0 0
1075 58 2 0.0000000000000000e+00 2.7518087162674902e+00 5.3034043404457085e+00 8.8466220570647742e+00 1 0 0
1341 73 1 0.0000000000000000e+00 2.6277810591005122e+00 1.1901408909617109e+01 5.5990661906667007e+00 1 0 0
241 14 2 0.0000000000000000e+00 -3.5250260677234451e+00 7.7780385481325875e-01 1.2291671389969144e+01 1 0 0
1372 74 2 0.0000000000000000e+00 -2.1046128803481365e+00 1.0536992243847003e+01 7.9735698297303870e+00 1 0 0
246 14 3 0.0000000000000000e+00 -4.7350844703445176e+00 2.9584139463075663e+00 1.0158302246891962e+01 1 0 0
235 14 7 0.0000000000000000e+00 -3.0274358660132981e+00 2.9377877807946375e+00 1.2370033732981540e+01 1 0 0
605 34 4 0.0000000000000000e+00 -6.3464754474518159e-03 3.4203046815562246e+00 1.1021780879084901e+01 1 0 0
606 34 3 0.0000000000000000e+00 1.2327013841273882e-02 4.7841614897868530e+00 1.0784602063952562e+01 1 0 0
607 34 4 0.0000000000000000e+00 1.2148233705282774e+00 5.4642350559870145e+00 1.1136238498327241e+01 1 0 0
2125 114 4 0.0000000000000000e+00 -5.3171898872853074e-01 1.6559684272534057e+01 1.2013229088807853e+01 1 0 0
1001 54 2 0.0000000000000000e+00 -4.7904553425236456e+00 1.0981564867972846e+01 1.1134719659026189e+01 1 0 0
1741 93 1 0.0000000000000000e+00 8.4410153335104621e-01 1.2397475301015003e+01 4.2685930965552528e+00 1 0 0
2030 109 2 0.0000000000000000e+00 -3.6810078940553388e+00 1.7580839591093280e+01 6.4622634521416220e+00 1 0 0
598 34 4 0.0000000000000000e+00 -2.2730698833715470e+00 4.7214242317345088e+00 1.0082312857212829e+01 1 0 0
754 34 6 0.0000000000000000e+00 -4.2247204152769591e-01 5.2730984541608246e+00 1.0500339412576357e+01 1 0 0
1358 74 4 0.0000000000000000e+00 -6.2760376177839916e-01 1.0398521245833672e+01 9.3843095388424587e+00 1 0 0
1279 69 2 0.0000000000000000e+00 -3.7946092642561320e+00 9.4973099610055023e+00 6.0997724810226313e+00 1 0 0
2113 113 2 0.0000000000000000e+00 5.9192554924009464e+00 1.6651285205277816e+01 1.8826530912721626e+00 1 0 0
1815 97 2 0.0000000000000000e+00 5.0962362378912971e+00 1.4028668191630658e+01 2.9632327949191226e+00 1 0 0
1764 94 1 0.0000000000000000e+00 -3.6798910919131123e+00 1.4470838956325375e+01 8.1763541353975207e+00 1 0 0
505 29 7 0.0000000000000000e+00 -2.7293382467548524e+00 5.7302011824282646e+00 4.6490366597169670e+00 1 0 0
979 53 3 0.0000000000000000e+00 -2.7613898623314892e-01 9.2964426145364545e+00 2.8554601103374586e+00 1 0 0
996 54 5 0.0000000000000000e+00 -5.1443586743187977e+00 1.0037800461967306e+01 1.0776961943666128e+01 1 0 0
2126 114 3 0.0000000000000000e+00 -1.8275284817648529e-01 1.6401279075261897e+01 1.0694317172921446e+01 1 0 0
585 33 2 0.0000000000000000e+00 1.4441551193116995e+00 2.5677432597531209e+00 2.4752779409067989e+00 1 0 0
1344 73 2 0.0000000000000000e+00 4.0914474118671649e+00 1.2942526957751607e+01 1.2044174056328052e+00 1 0 0
2253 93 6 0.0000000000000000e+00 -3.7220649334879052e-01 1.4272741940236706e+01 2.9872525426138528e+00 1 0 0
1493 53 6 0.0000000000000000e+00 -5.6013645718298877e-01 8.6680223100597011e+00 2.9522554353626966e+00 1 0 0
1745 93 2 0.0000000000000000e+00 1.4987246927972864e+00 1.1798271144455663e+01 4.7478878045783572e+00 1 0 0
1767 94 4 0.0000000000000000e+00 -4.3247898929305482e+00 1.3626600967097827e+01 1.1749454952609643e+01 1 0 0
986 53 1 0.0000000000000000e+00 -4.7061133186744442e-01 8.0367403139960452e+00 3.8669448280285956e-01 1 0 0
230 13 1 0.0000000000000000e+00 6.2310655953053518e-01 4.7176789226913822e+00 2.5213328297384860e+00 1 0 0
1749 93 4 0.0000000000000000e+00 1.1773895904952312e+00 1.3201493519127526e+01 3.2052920943190868e+00 1 0 0
2109 113 4 0.0000000000000000e+00 5.2676726486427947e+00 1.7402530900704871e+01 2.2255082706050566e+00 1 0 0
297 17 2 0.0000000000000000e+00 5.0878184384476244e+00 3.2859193838517782e+00 1.5318031840567738e+00 1 0 0
2124 114 1 0.0000000000000000e+00 -7.0052842687656547e-01 1.7835538299933045e+01 1.2530566274693815e+01 1 0 0
602 34 2 0.0000000000000000e+00 -3.0031921571143063e+00 5.3622269466338235e+00 9.6523779902286897e+00 1 0 0
1742 93 2 0.0000000000000000e+00 -6.3223502835629564e-01 1.1910177946888693e+01 5.7166340553275425e+00 1 0 0
978 53 5 0.0000000000000000e+00 -4.8429104216327623e-03 9.7918181015322006e+00 4.1321964514855569e+00 1 0 0
1361 74 2 0.0000000000000000e+00 1.3267891260096949e+00 9.2802968048913304e+00 1.0784030385841206e+01 1 0 0
592 33 2 0.0000000000000000e+00 2.1633475551319359e+00 7.1396477092533477e+00 1.8354655718498840e+00 1 0 0
1816 97 2 0.0000000000000000e+00 6.1007409988612675e+00 1.4679592898843797e+01 6.9415693238053744e-01 1 0 0
1338 73 5 0.0000000000000000e+00 3.2631342908793322e+00 1.3133762329723920e+01 3.5789999810455342e+00 1 0 0
1339 73 3 0.0000000000000000e+00 3.6751371701617179e+00 1.1948989217323801e+01 3.0116132909897702e+00 1 0 0
1340 73 4 0.0000000000000000e+00 4.1265027678716306e+00 1.2034699913476631e+01 1.6980450251755057e+00 1 0 0
1350 73 1 0.0000000000000000e+00 4.5649429703591631e+00 1.0801354753597911e+01 1.1510971555116740e+00 1 0 0
2112 113 2 0.0000000000000000e+00 5.0831499447220008e+00 1.4937853639169822e+01 3.4350287118471758e+00 1 0 0
1765 94 4 0.0000000000000000e+00 -3.5394993373142105e+00 1.3944926721331067e+01 9.4505949447450721e+00 1 0 0
988 53 3 0.0000000000000000e+00 -7.0592552751704551e-01 7.9733824490437533e+00 2.7913854735263217e+00 1 0 0
1348 73 3 0.0000000000000000e+00 3.6552601076892146e+00 1.0740475389218680e+01 3.7308112179841544e+00 1 0 0
1349 73 4 0.0000000000000000e+00 3.1848729388433297e+00 1.0756799008063675e+01 5.0552355628431078e+00 1 0 0
4383 233 2 0.0000000000000000e+00 2.7777274443929203e+00 1.0019183210566234e+00 1.1737414499259302e+00 1 1 0
1513 73 6 0.0000000000000000e+00 3.7171393988161969e+00 1.1256760073111105e+01 3.2530131678235255e+00 1 0 0
2119 114 1 0.0000000000000000e+00 9.1700174380935806e-02 1.4897026559023587e+01 8.7574871928412144e+00 1 0 0
1368 74 1 0.0000000000000000e+00 -1.5988004853029105e+00 1.1116510718045097e+01 8.6577115220595040e+00 1 0 0
993 53 2 0.0000000000000000e+00 -1.2635218680473250e+00 6.1837200071364355e+00 3.8508975776208647e+00 1 0 0
1347 73 4 0.0000000000000000e+00 4.2935100389939898e+00 9.5581914753542581e+00 3.2745637584461047e+00 1 0 0
1288 70 2 0.0000000000000000e+00 -6.3630170549467611e+00 1.2785717078544534e+01 1.2253718696467807e+01 1 0 0
1072 58 2 0.0000000000000000e+00 6.4697335921542631e-01 6.7292844899516284e+00 8.9219283593742205e+00 1 0 0
1367 74 4 0.0000000000000000e+00 4.2846535248058704e-01 1.2950948741933869e+01 1.1869599634216330e+01 1 0 0
608 34 1 0.0000000000000000e+00 -2.2791334355488790e+00 3.2931076459374493e+00 1.0220194334516853e+01 1 0 0
231 13 2 0.0000000000000000e+00 -9.0764425450317310e-01 5.7057269535959980e+00 1.3489278616624021e+00 1 0 0
581 33 1 0.0000000000000000e+00 2.2733682841905911e+00 3.1879964099272757e+00 2.7122926554009896e+00 1 0 0
987 53 4 0.0000000000000000e+00 -7.2543951510031301e-01 7.3557518996501798e+00 1.5444412145105593e+00 1 0 0
1771 94 2 0.0000000000000000e+00 -3.4313367387064364e+00 1.3035026589615585e+01 1.1936363141291437e+01 1 0 0
1748 93 3 0.0000000000000000e+00 2.6615416345160203e-01 1.4096961977957353e+01 2.7918687310219505e+00 1 0 0
599 34 1 0.0000000000000000e+00 1.1993345603606009e+00 6.8532512049402836e+00 1.0827998006933338e+01 1 0 0
1002 54 2 0.0000000000000000e+00 -2.6139223573739168e+00 1.0385353295318401e+01 1.0629070671482255e+01 1 0 0
604 34 1 0.0000000000000000e+00 -1.1147069284422138e+00 2.6370907325201909e+00 1.0759827834133013e+01 1 0 0
2107 113 4 0.0000000000000000e+00 4.3438158842010575e+00 1.5712928651783738e+01 3.7312586095146170e+00 1 0 0
1351 73 2 0.0000000000000000e+00 5.1090315861170783e+00 8.6713765410988710e+00 1.5543171254347790e+00 1 0 0
1010 54 2 0.0000000000000000e+00 -4.1645029183676341e+00 5.8133332635912360e+00 9.6531349253857854e+00 1 0 0
1369 74 2 0.0000000000000000e+00 -2.7843042576062857e+00 1.2886800172407087e+01 8.6303465950698133e+00 1 0 0
1364 74 1 0.0000000000000000e+00 -1.9300591504713855e+00 1.2419128347438186e+01 9.0128366468662620e+00 1 0 0
1370 74 2 0.0000000000000000e+00 -1.4196829013214423e+00 1.4019157684018959e+01 1.0439296031212322e+01 1 0 0
2111 113 2 0.0000000000000000e+00 3.1882002698693928e+00 1.4287259449938174e+01 4.9097819772827416e+00 1 0 0
236 14 5 0.0000000000000000e+00 -3.6722984217059960e+00 1.7603451509211347e+00 1.1875827654950955e+01 1 0 0
1008 54 1 0.0000000000000000e+00 -1.9026454589618815e+00 8.3089063788453377e+00 1.0263450829101346e+01 1 0 0
997 54 3 0.0000000000000000e+00 -4.2618492401031949e+00 9.0697870623451795e+00 1.0321831116257259e+01 1 0 0
1365 74 4 0.0000000000000000e+00 -1.2100291816139821e+00 1.3039073849493706e+01 1.0047174747167418e+01 1 0 0
4394 233 2 0.0000000000000000e+00 1.5812437447534520e+00 1.5818369242639212e+00 5.8389458027427432e+00 1 1 0
1357 74 3 0.0000000000000000e+00 7.1313410951145073e-02 1.1005253771132374e+01 1.0452119364527279e+01 1 0 0
223 13 2 0.0000000000000000e+00 1.6751930560527408e+00 1.2048071908952993e+00 4.4512211962620425e+00 1 0 0
593 33 2 0.0000000000000000e+00 1.3737183902954175e+00 4.9210924089522790e+00 1.8313340985825404e+00 1 0 0
1494 54 6 0.0000000000000000e+00 -4.5494055783407408e+00 8.4087858766329866e+00 1.0299607720170583e+01 1 0 0
600 34 2 0.0000000000000000e+00 8.5015998241034119e-02 8.5775394372088112e+00 1.0032004661023411e+01 1 0 0
220 13 4 0.0000000000000000e+00 1.0269284291931431e+00 3.5589632539187566e+00 3.1312271107978775e+00 1 0 0
1760 94 2 0.0000000000000000e+00 -7.2576140809370253e+00 1.4480264505602893e+01 1.3068081009631946e+01 1 0 0
1345 73 2 0.0000000000000000e+00 2.2435990476133387e+00 1.1822755856750264e+01 6.5943228730064032e+00 1 0 0
1514 74 6 0.0000000000000000e+00 -2.5470680341529039e-01 1.1646362592515127e+01 1.0536986881490014e+01 1 0 0
240 14 2 0.0000000000000000e+00 -2.3826586470296105e+00 2.7760132460298439e+00 1.3229938040443029e+01 1 0 0
1067 58 7 0.0000000000000000e+00 1.5340002787313951e+00 7.0426452141518663e+00 9.4460003253632685e+00 1 0 0
981 53 1 0.0000000000000000e+00 -6.8148604608246766e-01 7.7391162540050491e+00 5.2120160458726748e+00 1 0 0
1012 54 2 0.0000000000000000e+00 -7.8993424244399968e-01 8.4266688233307949e+00 1.0341363565798385e+01 1 0 0
1366 74 3 0.0000000000000000e+00 -2.4341909373358117e-01 1.2340376787171781e+01 1.0799348146591965e+01 1 0 0
4378 233 5 0.0000000000000000e+00 3.3396963262074264e+00 2.7141536825739720e-01 1.8335631994809427e+00 1 1 0
2115 114 7 0.0000000000000000e+00 4.1161059945047374e-01 1.5955616320520093e+01 7.9212257527699492e+00 1 0 0
1342 73 2 0.0000000000000000e+00 2.5443535615150576e+00 1.3993280111111899e+01 5.4683237319646754e+00 1 0 0
1757 94 3 0.0000000000000000e+00 -5.6013418623466871e+00 1.5008512309949866e+01 1.0149943124531413e+01 1 0 0
582 33 2 0.0000000000000000e+00 3.2854331690690839e+00 1.8169277840435005e+00 3.9848255387282805e+00 1 0 0
2130 114 2 0.0000000000000000e+00 -6.3705252674548429e-01 1.5753840304718610e+01 1.2784033568699090e+01 1 0 0
1766 94 3 0.0000000000000000e+00 -4.4721631111211746e+00 1.4236548668895887e+01 1.0466917792257819e+01 1 0 0
1006 54 3 0.0000000000000000e+00 -4.7447352968723422e+00 7.7935236668258963e+00 1.0057062326546868e+01 1 0 0
998 54 4 0.0000000000000000e+00 -2.8664631498863407e+00 9.3515065655068490e+00 1.0437470257678127e+01 1 0 0
218 13 5 0.0000000000000000e+00 6.6759656908188436e-01 1.2311601434950774e+00 3.9597688775915749e+00 1 0 0
1770 94 2 0.0000000000000000e+00 -2.7276358231685109e+00 1.3251788267966226e+01 9.6230864366987205e+00 1 0 0
1063 57 2 0.0000000000000000e+00 7.8471547918716178e+00 5.9516815515914816e+00 -6.3959536002818451e-02 1 0 0
247 14 4 0.0000000000000000e+00 -4.2659316100504814e+00 4.1835592944355406e+00 1.0682502954966461e+01 1 0 0
595 34 7 0.0000000000000000e+00 7.5742902145458757e-02 7.5140944137484338e+00 1.0282049083998265e+01 1 0 0
4384 233 2 0.0000000000000000e+00 1.7815140133210159e+00 1.8664633921541587e+00 3.4369781372262342e+00 1 1 0
4380 233 4 0.0000000000000000e+00 2.3442477342025683e+00 1.0546646147568668e+00 3.9020187550991485e+00 1 1 0
226 13 1 0.0000000000000000e+00 -6.4480062768501833e-01 4.8410857680694237e+00 1.9474266598028400e+00 1 0 0
2117 114 3 0.0000000000000000e+00 7.9308946928949631e-02 1.7458192820101811e+01 9.8752291889257506e+00 1 0 0
601 34 2 0.0000000000000000e+00 -2.0726828471751610e+00 7.2979902570135868e+00 9.8490831534173342e+00 1 0 0
1747 93 4 0.0000000000000000e+00 6.2486208290677570e-01 1.4883575212348822e+01 1.6934487957758755e+00 1 0 0
4328 230 2 0.0000000000000000e+00 -5.6354078303506272e+00 9.5977925581735735e-02 1.0959037451487868e+01 1 1 0
2100 113 4 0.0000000000000000e+00 2.3228731821876192e+00 1.7513494693010170e+01 4.6192234654755557e+00 1 0 0
1354 73 2 0.0000000000000000e+00 4.9247264811382996e+00 1.0773419758738893e+01 9.1511014548879555e-02 1 0 0
305 17 2 0.0000000000000000e+00 6.4327366679140194e+00 1.2697307628683561e+00 1.4367004247085451e+00 1 0 0
1739 93 3 0.0000000000000000e+00 -1.0076976562699074e+00 1.4200288671451686e+01 3.2953524857774896e+00 1 0 0
2110 113 1 0.0000000000000000e+00 2.2395052492595342e+00 1.6184842828843895e+01 5.0169760543801285e+00 1 0 0
2106 113 1 0.0000000000000000e+00 3.3055819732495637e+00 1.5343840126102256e+01 4.5892729776174219e+00 1 0 0
513 29 2 0.0000000000000000e+00 -1.1503207860573077e+00 5.3529845360889503e+00 3.2328729103034051e+00 1 0 0
1343 73 2 0.0000000000000000e+00 3.3935152818494863e+00 1.4124436829702123e+01 3.0731672956176972e+00 1 0 0
612 34 2 0.0000000000000000e+00 -3.1032155828761967e+00 2.7266450590070863e+00 9.9699168799269344e+00 1 0 0
1753 93 2 0.0000000000000000e+00 2.0667015749450113e+00 1.3094581003729303e+01 2.6910372249768515e+00 1 0 0
1068 58 5 0.0000000000000000e+00 1.6535206750089442e+00 8.2874680460154675e+00 1.0133262521408810e+01 1 0 0
1746 93 1 0.0000000000000000e+00 -2.7033564076447381e-01 1.5676572833501597e+01 1.0114519268860938e+00 1 0 0
2273 113 6 0.0000000000000000e+00 3.6475049015124288e+00 1.7330982610355171e+01 3.3796511177762225e+00 1 0 0
1737 93 7 0.0000000000000000e+00 -4.2381954167742153e-01 1.2500625990805988e+01 4.8757355601831804e+00 1 0 0
586 33 1 0.0000000000000000e+00 3.8684019192562995e+00 7.7602261813615341e+00 2.9697478979247873e+00 1 0 0
2131 114 2 0.0000000000000000e+00 -4.5006750141008300e-01 1.4280422325591207e+01 1.0701533563920783e+01 1 0 0
1752 93 2 0.0000000000000000e+00 1.6353586852368447e+00 1.4762434353664730e+01 1.3679290163364399e+00 1 0 0
2099 113 3 0.0000000000000000e+00 3.3729180941427752e+00 1.7908738237081955e+01 3.6835489857523296e+00 1 0 0
590 33 1 0.0000000000000000e+00 4.9264077168664047e+00 7.3905179174817812e+00 3.8337686437633121e+00 1 0 0
989 53 4 0.0000000000000000e+00 -9.4490936167334327e-01 7.2203026808930906e+00 3.9667584466381101e+00 1 0 0
1743 93 2 0.0000000000000000e+00 -2.3447513791366990e+00 1.3283692573786956e+01 4.8255461558739352e+00 1 0 0
992 53 2 0.0000000000000000e+00 -9.1729483172299975e-01 6.2984691457706612e+00 1.4574823016286751e+00 1 0 0
1763 94 2 0.0000000000000000e+00 -5.2438288660232679e+00 1.3407893651738961e+01 1.3649893317872793e+01 1 0 0
1337 73 7 0.0000000000000000e+00 2.7526886950233846e+00 1.3115123553048960e+01 4.9123984407118311e+00 1 0 0
294 17 2 0.0000000000000000e+00 5.6680878116342441e+00 5.1519262062832327e+00 2.9973214152616143e+00 1 0 0
221 13 1 0.0000000000000000e+00 -1.4912023996958630e+00 2.9789632773203900e-01 3.5662944769967089e+00 1 0 0
1768 94 1 0.0000000000000000e+00 -4.7294979217242892e+00 1.5399074510340354e+01 7.9054402745606289e+00 1 0 0
1841 98 2 0.0000000000000000e+00 3.4851676480658114e+00 1.5111543690489668e+01 7.4929825975097586e+00 1 0 0
229 13 4 0.0000000000000000e+00 -1.8622437598178938e+00 1.4219225741678294e+00 2.8373790003472030e+00 1 0 0
2129 114 2 0.0000000000000000e+00 -8.7350522196082547e-01 1.7893282166633490e+01 1.3560305407540064e+01 1 0 0
4386 233 1 0.0000000000000000e+00 3.0578498875768623e+00 -1.7918911662187488e-02 5.9719153857580825e+00 1 1 0
320 18 1 0.0000000000000000e+00 2.5537351150660825e+00 9.3772702755863718e-02 9.4209093902318770e+00 1 0 0
994 53 2 0.0000000000000000e+00 2.3979513941139427e-01 9.9413167797852946e+00 -2.9448222138010816e-01 1 0 0
334 19 1 0.0000000000000000e+00 -3.0457290234936680e+00 1.5118215058479687e+00 1.8495985194435644e+01 1 0 0
277 16 2 0.0000000000000000e+00 -1.1240111160930837e+01 1.2880476619856951e+00 2.7009034002413220e+01 1 0 0
255 15 3 0.0000000000000000e+00 -9.1530748582349943e+00 2.7298362532712108e+00 1.8617181905633327e+01 1 0 0
288 16 2 0.0000000000000000e+00 -1.2786935735087781e+01 5.5085217406303926e+00 2.7651615302852708e+01 1 0 0
1031 56 7 0.0000000000000000e+00 -1.3455602862952743e+01 9.0669258021753691e+00 2.7917623919790703e+01 1 0 0
1020 55 2 0.0000000000000000e+00 -9.1676443966367884e+00 5.7923011904228145e+00 1.8474694897398724e+01 1 0 0
1035 56 1 0.0000000000000000e+00 -1.4176006149088222e+01 1.0038173071444174e+01 2.7286044791384828e+01 1 0 0
264 15 3 0.0000000000000000e+00 -8.7646320926831294e+00 2.1436265499958558e+00 1.7417852705820334e+01 1 0 0
265 15 4 0.0000000000000000e+00 -8.6568102805878482e+00 7.5907424686229652e-01 1.7349159774296215e+01 1 0 0
1016 55 4 0.0000000000000000e+00 -8.7180652734205513e+00 6.7405688527314478e+00 1.8498916913117853e+01 1 0 0
1773 95 7 0.0000000000000000e+00 -8.7059422773085497e+00 1.6563529914173582e+01 1.7153543349390830e+01 1 0 0
735 15 6 0.0000000000000000e+00 -8.9343338828348795e+00 2.4146033074068702e+00 1.8066685306001894e+01 1 0 0
4418 235 2 0.0000000000000000e+00 -3.5349995808513430e+00 -1.8959917509764616e-02 1.5260794848549411e+01 1 1 0
4367 232 2 0.0000000000000000e+00 -1.4435794734835905e+01 1.1070400978393131e+00 2.6955703058652318e+01 1 1 0
640 36 1 0.0000000000000000e+00 -9.6213514177240995e+00 4.5671851450466461e+00 2.8002323750011406e+01 1 0 0
637 36 2 0.0000000000000000e+00 -1.0297390975297692e+01 3.5929975321186256e+00 2.3521311135723337e+01 1 0 0
615 35 3 0.0000000000000000e+00 -4.5416288058561776e+00 5.4171062925861291e+00 1.7975467556364073e+01 1 0 0
626 35 1 0.0000000000000000e+00 -6.6616352134028922e+00 6.0960748648716354e+00 1.7068923236895383e+01 1 0 0
2136 115 4 0.0000000000000000e+00 -5.4988624220737989e+00 1.6049503546278508e+01 1.6323813301291406e+01 1 0 0
624 35 3 0.0000000000000000e+00 -5.1604315392260194e+00 4.5785867186963127e+00 1.8846116862238976e+01 1 0 0
625 35 4 0.0000000000000000e+00 -4.4015489153435334e+00 3.8415322324913350e+00 1.9782513304876460e+01 1 0 0
2153 116 3 0.0000000000000000e+00 -9.0760434232378682e+00 1.7047402307703621e+01 2.5109562531715216e+01 1 0 0
755 35 6 0.0000000000000000e+00 -4.9418046308420207e+00 5.1074220895733378e+00 1.8442268000265145e+01 1 0 0
256 15 4 0.0000000000000000e+00 -9.2577090292815907e+00 4.1309362582445388e+00 1.8678497811068070e+01 1 0 0
614 35 5 0.0000000000000000e+00 -3.1636611799616201e+00 5.5460075371009818e+00 1.7949224522260298e+01 1 0 0
2150 115 2 0.0000000000000000e+00 -6.6938002766110589e+00 1.4212811893703396e+01 1.6157062844281519e+01 1 0 0
338 19 1 0.0000000000000000e+00 -2.8626195093606306e+00 1.9339447093902780e+00 1.7197602008787335e+01 1 0 0
616 35 4 0.0000000000000000e+00 -5.2934182010218507e+00 6.1944725062075179e+00 1.7043793028204711e+01 1 0 0
1309 71 2 0.0000000000000000e+00 -1.0260020134801842e+01 1.3368017487676273e+01 1.7720570839707097e+01 1 0 0
274 16 4 0.0000000000000000e+00 -1.2377174856818316e+01 3.5075824731710257e+00 2.7078429336426598e+01 1 0 0
2161 116 4 0.0000000000000000e+00 -1.0115170302515565e+01 1.7521925427473306e+01 2.7267520411712439e+01 1 0 0
1324 72 2 0.0000000000000000e+00 -1.5699826363420152e+01 8.7244509032748585e+00 2.7003531672255448e+01 1 0 0
2162 116 3 0.0000000000000000e+00 -9.0442647671129350e+00 1.7662390015002895e+01 2.6375502353753241e+01 1 0 0
2143 115 4 0.0000000000000000e+00 -5.8439086549292441e+00 1.5821680195397512e+01 1.9053720577007454e+01 1 0 0
634 36 4 0.0000000000000000e+00 -1.0325853398159413e+01 3.4355539725316291e+00 2.5971499744852082e+01 1 0 0
647 36 2 0.0000000000000000e+00 -8.2023534728881131e+00 7.4111151030980000e+00 2.5696451973882898e+01 1 0 0
619 35 2 0.0000000000000000e+00 -2.7495070360412921e+00 6.2407959816333678e+00 1.7233968879851002e+01 1 0 0
1378 75 2 0.0000000000000000e+00 -8.0815059107804395e+00 1.2260889422501746e+01 1.7106866493440503e+01 1 0 0
635 36 1 0.0000000000000000e+00 -8.6540059214271796e+00 6.5194693520205309e+00 2.3699489837936760e+01 1 0 0
275 16 1 0.0000000000000000e+00 -1.2997069511467737e+01 3.9130254248151525e-01 2.4320293451546419e+01 1 0 0
1794 96 4 0.0000000000000000e+00 -1.2909136862171335e+01 1.5467091506600243e+01 2.6559858411267477e+01 1 0 0
1379 75 2 0.0000000000000000e+00 -6.6086906146953091e+00 1.2360390295573765e+01 1.9159639465678726e+01 1 0 0
1406 76 2 0.0000000000000000e+00 -1.0586148198016666e+01 1.0409279512337962e+01 2.7240417817062077e+01 1 0 0
273 16 3 0.0000000000000000e+00 -1.2626966008314596e+01 2.4709735751127466e+00 2.6154738953792275e+01 1 0 0
1396 76 2 0.0000000000000000e+00 -8.0280543132735787e+00 1.4585194278417662e+01 2.4210146426440879e+01 1 0 0
1391 76 7 0.0000000000000000e+00 -8.4008345495199013e+00 1.3662988754200247e+01 2.4618889510772050e+01 1 0 0
2146 115 1 0.0000000000000000e+00 -6.3035616318541896e+00 1.4991891463954797e+01 1.6801278878937772e+01 1 0 0
1807 96 2 0.0000000000000000e+00 -1.3318441438521038e+01 1.2258602169380936e+01 2.3250633536138665e+01 1 0 0
1400 76 1 0.0000000000000000e+00 -9.8736710218211776e+00 9.0602288866799654e+00 2.5810320751693837e+01 1 0 0
630 35 2 0.0000000000000000e+00 -7.2319716770988300e+00 6.6738714244588531e+00 1.6324695952783607e+01 1 0 0
282 16 3 0.0000000000000000e+00 -1.3534256693635150e+01 2.5824937761791711e+00 2.5157548186123687e+01 1 0 0
1801 96 4 0.0000000000000000e+00 -1.3273831746634482e+01 1.2785985063473113e+01 2.6020689185975467e+01 1 0 0