LAMMPS (15 May 2015)
Reading data file ...
  triclinic box = (-0.107635 -0.0404339 -0.357111) to (41.3876 35.9384 29.5551) with tilt (-0.0672341 -17.0362 -0.0417078)
  5 by 2 by 2 MPI processor grid
  reading atoms ...
  4560 atoms
  reading velocities ...
  4560 velocities
  scanning bonds ...
  3 = max bonds/atom
  scanning angles ...
  3 = max angles/atom
  scanning dihedrals ...
  8 = max dihedrals/atom
  scanning impropers ...
  1 = max impropers/atom
  reading bonds ...
  5040 bonds
  reading angles ...
  7200 angles
  reading dihedrals ...
  10560 dihedrals
  reading impropers ...
  2400 impropers
Finding 1-2 1-3 1-4 neighbors ...
 Special bond factors lj:   0          0          0         
 Special bond factors coul: 0          0          0         
  4 = max # of 1-2 neighbors
  8 = max # of 1-3 neighbors
  20 = max # of 1-4 neighbors
  16 = max # of special neighbors
4560 atoms in group all
720 atoms in group C
480 atoms in group S
1920 atoms in group H
720 atoms in group Si
240 atoms in group Na
240 atoms in group Ba
240 atoms in group O
4560 atoms in group naphthalene
2400 atoms in group carbon
960 atoms in group CO
Setting atom values ...
  720 settings made for charge
Setting atom values ...
  720 settings made for charge
Setting atom values ...
  1920 settings made for charge
Setting atom values ...
  480 settings made for charge
Setting atom values ...
  240 settings made for charge
Setting atom values ...
  240 settings made for charge
Setting atom values ...
  240 settings made for charge
Finding 1-2 1-3 1-4 neighbors ...
 Special bond factors lj:   0          0          0.5       
 Special bond factors coul: 0          0          0.5       
  4 = max # of 1-2 neighbors
  8 = max # of 1-3 neighbors
  20 = max # of 1-4 neighbors
  16 = max # of special neighbors
Neighbor list info ...
  4 neighbor list requests
  update every 1 steps, delay 0 steps, check yes
  master list distance cutoff = 12
Setting up run ...
Memory usage per processor = 13.4064 Mbytes
Step Temp Density PotEng E_vdwl E_tail E_coul E_long Press Volume Xy Xz Yz E_mol E_bond E_angle E_dihed 14[1] 14[2] 14[3] msd[4] msd2[4] msd3[4] msd4[4] naphthal Cella Cellb Cellc CellAlpha CellBeta CellGamma 2 3 27[1] 27[2] 27[3] 28[1] 28[2] 28[3] 
       0          298    1.2509986     3498.833            0            0            0            0   -15873.524    44657.537 -0.067234084   -17.036218 -0.041707817     3498.833    1521.0094     935.4334    889.67826    28.379601    18.846571    14.337846 7.7711016e-30 8.8746852e-30 6.8181724e-30 5.7534156e-30          298     41.49527    35.978931    34.423473    90.016431    119.66323    90.107069 1.080948e-28 4.9466509e-24    28.379557    18.849013    14.339638    28.379812    18.845474    14.337264 
   10000    297.69691    1.2509986     3604.524            0            0            0            0    1145.6634    44657.537 -0.067234084   -17.036218 -0.041707817     3604.524    1528.3255    988.60632     935.5613    28.382207    18.848329    14.333392 0.00032920124 0.00032798325    2.0509094    2.0508775    297.69691     41.49527    35.978931    34.423473    90.016431    119.66323    90.107069    28.647102    197.52074    28.380382    18.848815    14.340344    28.382931    18.846479    14.332669 
   20000    306.00181    1.2509986     3594.864            0            0            0            0    303.25852    44657.537 -0.067234084   -17.036218 -0.041707817     3594.864    1519.2867    1003.6721    917.85984    28.376272     18.85673    14.339453 0.00037207407 0.00037144206    3.5441742    3.5440138    306.00181     41.49527    35.978931    34.423473    90.016431    119.66323    90.107069    49.505025    223.24444    28.379282    18.848307    14.339395    28.374668    18.856848    14.339403 
   30000    298.35748    1.2509986    3563.2931            0            0            0            0      228.184    44657.537 -0.067234084   -17.036218 -0.041707817    3563.2931    1473.4217    1036.9713    900.95943    28.380875    18.846963    14.337244 0.00036468436 0.00036425871    4.2169324    4.2169322    298.35748     41.49527    35.978931    34.423473    90.016431    119.66323    90.107069    58.902112    218.81062    28.378922    18.849166    14.339649    28.379878    18.845162    14.337681 
   40000    297.95781    1.2509986    3654.3551            0            0            0            0   -1742.7193    44657.537 -0.067234084   -17.036218 -0.041707817    3654.3551    1502.3041    1010.9515    977.33178    28.377548    18.845239    14.334646 0.00031800282 0.00031784984    4.7396649    4.7396517    297.95781     41.49527    35.978931    34.423473    90.016431    119.66323    90.107069    66.203639    190.80169    28.379566    18.849145    14.340006    28.377639     18.84384    14.334865 
   50000    296.21359    1.2509986    3578.1593            0            0            0            0    862.61042    44657.537 -0.067234084   -17.036218 -0.041707817    3578.1593    1464.2142    1047.6277    912.47359    28.374245    18.855045    14.339627 0.0003533028 0.00035153411    5.1346126    5.1344806    296.21359     41.49527    35.978931    34.423473    90.016431    119.66323    90.107069    71.720269    211.98168    28.380496     18.84978    14.340184    28.374288    18.855185    14.339943 
   60000    300.51755    1.2509986    3557.5207            0            0            0            0    409.39163    44657.537 -0.067234084   -17.036218 -0.041707817    3557.5207     1478.896    1035.9302    887.46091    28.382662    18.854578    14.341705 0.00035969107 0.00035952967    5.5629031    5.5628093    300.51755     41.49527    35.978931    34.423473    90.016431    119.66323    90.107069    77.702631    215.81464    28.379912    18.849034    14.339824    28.383147    18.852866    14.342566 
   70000    298.99429    1.2509986    3571.3276            0            0            0            0    905.61057    44657.537 -0.067234084   -17.036218 -0.041707817    3571.3276    1460.7978    1027.7158    921.57899    28.378286    18.850951    14.338634 0.00035443588 0.00035021626    5.6493175    5.6492914    298.99429     41.49527    35.978931    34.423473    90.016431    119.66323    90.107069    78.909667    212.66153    28.379072    18.847034    14.339898    28.378394    18.850253    14.338378 
   80000    295.94211    1.2509986    3507.2593            0            0            0            0   -206.98793    44657.537 -0.067234084   -17.036218 -0.041707817    3507.2593    1470.2796    986.14057    900.76125    28.369713     18.84675    14.341259 0.0003397724 0.00033851721     5.755086    5.7549299    295.94211     41.49527    35.978931    34.423473    90.016431    119.66323    90.107069    80.387041    203.86344    28.379685    18.848454    14.340601    28.368586    18.848016    14.342125 
   90000    298.16673    1.2509986    3502.5603            0            0            0            0      637.113    44657.537 -0.067234084   -17.036218 -0.041707817    3502.5603    1438.1715    1000.6425    905.25266    28.372589     18.85465    14.341794 0.00034342801 0.00034129678    5.7540447    5.7538651    298.16673     41.49527    35.978931    34.423473    90.016431    119.66323    90.107069    80.372497     206.0568    28.378411    18.848772    14.338766    28.372441    18.855341    14.342548 
  100000    299.10362    1.2509986    3588.4767            0            0            0            0    2544.3185    44657.537 -0.067234084   -17.036218 -0.041707817    3588.4767    1436.5643    1070.3095    923.21184    28.381239     18.84972    14.342857 0.00037510927 0.00037438735    5.9255144    5.9254684    299.10362     41.49527    35.978931    34.423473    90.016431    119.66323    90.107069    82.767585    225.06556    28.379455    18.849851    14.339546    28.380305    18.848045    14.343525 
  110000    295.02082    1.2509986    3573.5357            0            0            0            0   -611.85777    44657.537 -0.067234084   -17.036218 -0.041707817    3573.5357    1484.5826    1034.4581     900.8313     28.37696    18.838242    14.337713 0.00033456198 0.00033396348    5.6424066     5.642348    295.02082     41.49527    35.978931    34.423473    90.016431    119.66323    90.107069    78.813135    200.73719    28.379808    18.848353    14.339322    28.378168    18.838028    14.337959 
  120000    297.35655    1.2509986      3577.07            0            0            0            0   -838.23492    44657.537 -0.067234084   -17.036218 -0.041707817      3577.07    1490.6762    1011.8179    920.17322    28.381851      18.8516    14.336306 0.00037099882 0.00036951051    5.7279531    5.7278986    297.35655     41.49527    35.978931    34.423473    90.016431    119.66323    90.107069    80.008049    222.59929    28.378571    18.848354    14.339348    28.383434    18.851844     14.33636 
  130000    299.36849    1.2509986    3557.7649            0            0            0            0    2830.8806    44657.537 -0.067234084   -17.036218 -0.041707817    3557.7649    1512.7243     978.0984    912.86585    28.377775    18.848416    14.337495 0.00035350795 0.00035069961    6.0102946    6.0102797    299.36849     41.49527    35.978931    34.423473    90.016431    119.66323    90.107069    83.951796    212.10477    28.379813    18.848728     14.34127    28.376299    18.846921    14.337943 
  140000    299.76385    1.2509986    3639.6699            0            0            0            0   -275.97965    44657.537 -0.067234084   -17.036218 -0.041707817    3639.6699    1499.5756    1035.4965    946.82999    28.380191    18.850063    14.339683 0.00035096554 0.00034950459    6.0410602     6.041029    299.76385     41.49527    35.978931    34.423473    90.016431    119.66323    90.107069    84.381529    210.57933    28.380445    18.848433    14.340218    28.379005     18.84998    14.340472 
  150000    303.94342    1.2509986    3532.5276            0            0            0            0    1784.6737    44657.537 -0.067234084   -17.036218 -0.041707817    3532.5276    1496.7142    994.33629    890.22034    28.380168    18.849267    14.341524 0.00040825083 0.00040568459    6.0396696     6.039641    303.94342     41.49527    35.978931    34.423473    90.016431    119.66323    90.107069    84.362105     244.9505    28.379322    18.847464    14.339974    28.379919    18.849021    14.341266 
  160000    296.68729    1.2509986    3591.1246            0            0            0            0    1636.0937    44657.537 -0.067234084   -17.036218 -0.041707817    3591.1246    1516.9205    1044.8719    884.04768    28.379768    18.852379    14.338539 0.00036512092 0.00036413982    6.1690043    6.1689524    296.68729     41.49527    35.978931    34.423473    90.016431    119.66323    90.107069    86.168652    219.07255    28.378943    18.848236    14.339627    28.379899    18.852005    14.340308 
  170000     298.4677    1.2509986    3668.6269            0            0            0            0    530.84424    44657.537 -0.067234084   -17.036218 -0.041707817    3668.6269     1465.637    1071.0534    969.49024    28.386807    18.844452    14.337134 0.00032969919 0.00032818492    5.9688927    5.9688333     298.4677     41.49527    35.978931    34.423473    90.016431    119.66323    90.107069    83.373493    197.81951    28.379377    18.847931    14.339081    28.387432    18.844375     14.33754 
  180000    301.54968    1.2509986    3542.9217            0            0            0            0    936.67369    44657.537 -0.067234084   -17.036218 -0.041707817    3542.9217    1481.8893    999.95114    906.02069    28.376441    18.846529    14.334878 0.00038292398 0.00038249199    6.0302561    6.0302271    301.54968     41.49527    35.978931    34.423473    90.016431    119.66323    90.107069    84.230617    229.75439     28.37932    18.849007    14.339025    28.378266    18.846846    14.332291 
  190000    299.24986    1.2509986    3593.9276            0            0            0            0    1671.6802    44657.537 -0.067234084   -17.036218 -0.041707817    3593.9276    1481.1671    1020.2058    933.98543    28.379629    18.855564     14.33977 0.00032078582 0.00031980091    6.2108356    6.2106824    299.24986     41.49527    35.978931    34.423473    90.016431    119.66323    90.107069    86.752952    192.47149    28.379231    18.849626    14.338929    28.378446    18.857209    14.340967 
  200000    299.67182    1.2509986    3589.5549            0            0            0            0    213.46918    44657.537 -0.067234084   -17.036218 -0.041707817    3589.5549    1473.7359    1047.4433     915.1687    28.375723    18.851039    14.341998 0.00033926997 0.00033802252    6.3495377    6.3494417    299.67182     41.49527    35.978931    34.423473    90.016431    119.66323    90.107069    88.690343    203.56198    28.380127    18.848707    14.338728    28.375954    18.852798     14.34251 
  210000    300.45576    1.2509986    3602.0043            0            0            0            0    893.63498    44657.537 -0.067234084   -17.036218 -0.041707817    3602.0043     1541.708    1010.9823    889.36143    28.384091     18.84738    14.347135 0.00033767512 0.00033424551    6.1298072    6.1296566    300.45576     41.49527    35.978931    34.423473    90.016431    119.66323    90.107069    85.621147    202.60507    28.379813    18.848089    14.341223    28.383964    18.848016    14.348528 
  220000    300.61071    1.2509986    3570.9156            0            0            0            0    836.89356    44657.537 -0.067234084   -17.036218 -0.041707817    3570.9156    1466.3493    995.63599    944.02285    28.378183    18.845695    14.346454 0.00036097807 0.00036047504     6.020742    6.0205941    300.61071     41.49527    35.978931    34.423473    90.016431    119.66323    90.107069    84.097725    216.58684    28.379442    18.849691    14.339813    28.379192    18.847474    14.349247 
  230000    294.38384    1.2509986    3515.4512            0            0            0            0   -476.44589    44657.537 -0.067234084   -17.036218 -0.041707817    3515.4512    1450.1546    971.52007    933.75175    28.381376    18.845031    14.339336 0.00034933038 0.00034727308    6.2034158    6.2034011    294.38384     41.49527    35.978931    34.423473    90.016431    119.66323    90.107069    86.649312    209.59823    28.380673    18.848188    14.339275    28.381659    18.844832    14.340563 
  240000    288.13299    1.2509986     3552.446            0            0            0            0    109.85801    44657.537 -0.067234084   -17.036218 -0.041707817     3552.446    1468.0141    1002.9418    924.49314    28.380835    18.856879    14.340153 0.00038428238 0.00038347328    6.1368448    6.1366669    288.13299     41.49527    35.978931    34.423473    90.016431    119.66323    90.107069    85.719448    230.56943    28.380165    18.848402    14.339383    28.381307    18.857839    14.342035 
  250000    298.48901    1.2509986    3610.5519            0            0            0            0    161.49719    44657.537 -0.067234084   -17.036218 -0.041707817    3610.5519    1468.9104    1038.3304    942.22822     28.38231    18.849732    14.338278 0.00036271899 0.00036211825    6.2423114    6.2422869    298.48901     41.49527    35.978931    34.423473    90.016431    119.66323    90.107069    87.192605    217.63139    28.380039    18.849525    14.339963    28.381692     18.85005     14.33727 
  260000    299.94145    1.2509986    3613.3393            0            0            0            0   -26.360581    44657.537 -0.067234084   -17.036218 -0.041707817    3613.3393    1490.9286    1053.3057    918.54998    28.385504    18.855156    14.338034 0.00038998314 0.00038704004    6.3302112    6.3301011    299.94145     41.49527    35.978931    34.423473    90.016431    119.66323    90.107069    88.420391    233.98989     28.38048    18.848874    14.341077    28.386734    18.853364    14.337214 
  270000    303.19504    1.2509986    3554.6116            0            0            0            0    2175.1075    44657.537 -0.067234084   -17.036218 -0.041707817    3554.6116    1465.3953    987.89059    944.74195    28.378353    18.848307    14.342104 0.00039069482 0.00038613079     6.270079    6.2700616    303.19504     41.49527    35.978931    34.423473    90.016431    119.66323    90.107069    87.580463    234.41689    28.377705    18.848946    14.340702    28.380415    18.847937    14.340562 
  280000    294.54238    1.2509986    3599.7953            0            0            0            0    404.00995    44657.537 -0.067234084   -17.036218 -0.041707817    3599.7953     1514.361    991.09919    933.65675    28.385603    18.842586    14.338291 0.00035177711 0.00035063961    6.3646602     6.364577    294.54238     41.49527    35.978931    34.423473    90.016431    119.66323    90.107069    88.901574    211.06627    28.380452    18.848434    14.339639    28.387183    18.840773    14.339862 
  290000    296.05531    1.2509986    3625.5787            0            0            0            0     937.4041    44657.537 -0.067234084   -17.036218 -0.041707817    3625.5787    1531.4016     1032.396     909.2576    28.377068    18.847618    14.342121 0.00034919028 0.00034475436    6.5135202    6.5134852    296.05531     41.49527    35.978931    34.423473    90.016431    119.66323    90.107069    90.980851    209.51417     28.37858    18.849444    14.341454    28.375891    18.847734    14.341073 
  300000    297.05584    1.2509986    3569.0005            0            0            0            0   -1064.7348    44657.537 -0.067234084   -17.036218 -0.041707817    3569.0005    1482.4367    990.46236    936.89031    28.382713    18.847705    14.342428 0.00037231037 0.00036922419     6.297299    6.2972352    297.05584     41.49527    35.978931    34.423473    90.016431    119.66323    90.107069    87.960673    223.38622    28.380143    18.849441    14.338038    28.381606     18.84853    14.344427 
  310000    304.81115    1.2509986    3596.5876            0            0            0            0    418.89021    44657.537 -0.067234084   -17.036218 -0.041707817    3596.5876    1482.1353    1015.1882    936.83687    28.382445    18.846403    14.340368 0.00036001184  0.000356669    5.9555481    5.9555342    304.81115     41.49527    35.978931    34.423473    90.016431    119.66323    90.107069    83.187096    216.00711    28.379687    18.849466    14.337872    28.383216    18.845306    14.338777 
  320000    297.78166    1.2509986    3582.6485            0            0            0            0    2331.1822    44657.537 -0.067234084   -17.036218 -0.041707817    3582.6485    1451.8595       1019.2    951.70348    28.374642    18.843968     14.33404 0.00037007327 0.00036915373    6.2756122    6.2755546    297.78166     41.49527    35.978931    34.423473    90.016431    119.66323    90.107069    87.657752    222.04396    28.380265    18.848418    14.339889    28.374667    18.841464    14.333381 
  330000    297.75597    1.2509986    3588.4126            0            0            0            0    544.07821    44657.537 -0.067234084   -17.036218 -0.041707817    3588.4126    1471.2115    1036.1143    920.77653    28.379569    18.852716    14.341467 0.00037835418 0.00037752435    6.1993576    6.1992813    297.75597     41.49527    35.978931    34.423473    90.016431    119.66323    90.107069    86.592627    227.01251    28.379111    18.848219     14.33966    28.380717    18.853315    14.341006 
  340000     296.1427    1.2509986     3612.984            0            0            0            0   -738.55109    44657.537 -0.067234084   -17.036218 -0.041707817     3612.984    1487.9357    1010.1573    953.25413    28.378282    18.847039    14.342089 0.00030786889 0.00030605449    6.2191891    6.2191449     296.1427     41.49527    35.978931    34.423473    90.016431    119.66323    90.107069    86.869634    184.72133    28.379798    18.847934    14.338869    28.379459    18.849051    14.342864 
  350000    304.34652    1.2509986    3575.8352            0            0            0            0   -834.40613    44657.537 -0.067234084   -17.036218 -0.041707817    3575.8352    1467.3968    1036.2675    916.72542    28.379563    18.845427    14.337837 0.00037465834 0.00037179398    6.1884597    6.1884544    304.34652     41.49527    35.978931    34.423473    90.016431    119.66323    90.107069    86.440405      224.795    28.379217    18.847904    14.338405    28.380261    18.845251    14.339512 
  360000    289.99068    1.2509986    3587.7635            0            0            0            0   -1149.9561    44657.537 -0.067234084   -17.036218 -0.041707817    3587.7635     1483.848    965.50828    972.76608    28.380871    18.850459    14.339533 0.00035413366 0.00035281348    6.1073985     6.107363    289.99068     41.49527    35.978931    34.423473    90.016431    119.66323    90.107069    85.308142     212.4802    28.380377    18.849812    14.339547    28.381915     18.85038    14.339917 
  370000    302.69738    1.2509986    3580.6133            0            0            0            0    131.79047    44657.537 -0.067234084   -17.036218 -0.041707817    3580.6133    1459.4138    1005.9718    957.84528     28.37683    18.855496    14.336361 0.00035402567 0.00035241668    6.0472123    6.0470691    302.69738     41.49527    35.978931    34.423473    90.016431    119.66323    90.107069    84.467462     212.4154    28.379652    18.850049    14.340363    28.376458    18.856602    14.334402 
  380000    296.85841    1.2509986    3563.8589            0            0            0            0    2955.2378    44657.537 -0.067234084   -17.036218 -0.041707817    3563.8589    1496.4579    985.53511    923.97259    28.380215     18.85179    14.330028 0.00035849804 0.00035757373    6.2002828    6.2001782    296.85841     41.49527    35.978931    34.423473    90.016431    119.66323    90.107069     86.60555    215.09883    28.379184     18.84889    14.338761    28.379121    18.851303    14.328892 
  390000    300.38184    1.2509986    3600.4461            0            0            0            0    528.61771    44657.537 -0.067234084   -17.036218 -0.041707817    3600.4461    1486.1454    1002.0687     946.9633    28.377249    18.853628    14.339885 0.00033868675 0.00033637483    6.1961575    6.1960579    300.38184     41.49527    35.978931    34.423473    90.016431    119.66323    90.107069    86.547928    203.21205     28.37836    18.849392     14.33878    28.374659    18.853761    14.339358 
  400000    301.76778    1.2509986    3609.8413            0            0            0            0    291.59689    44657.537 -0.067234084   -17.036218 -0.041707817    3609.8413    1481.5044    1020.3318    946.33739    28.381104    18.845434    14.339673 0.0003805455 0.00037966489    5.9602348    5.9602283    301.76778     41.49527    35.978931    34.423473    90.016431    119.66323    90.107069     83.25256     228.3273      28.3795    18.848859    14.340562    28.380522    18.846557    14.339473 
  410000     295.7979    1.2509986    3633.9742            0            0            0            0   -623.09201    44657.537 -0.067234084   -17.036218 -0.041707817    3633.9742    1511.1866    1045.5591    924.85563    28.377946    18.850927    14.339191 0.00034941117 0.00034807796    5.9927908     5.992754     295.7979     41.49527    35.978931    34.423473    90.016431    119.66323    90.107069    83.707302     209.6467    28.379214    18.849272    14.338566    28.380037    18.851516    14.337826 
  420000    297.44217    1.2509986    3539.7096            0            0            0            0   -1561.2009    44657.537 -0.067234084   -17.036218 -0.041707817    3539.7096     1490.958    1022.3134    874.57772    28.378895    18.844366    14.336275 0.00034754696 0.00034611571    6.1548235     6.154816    297.44217     41.49527    35.978931    34.423473    90.016431    119.66323    90.107069    85.970575    208.52818     28.37955    18.847822    14.339522    28.378742    18.843383    14.335838 
  430000    299.32558    1.2509986    3574.7272            0            0            0            0   -45.434286    44657.537 -0.067234084   -17.036218 -0.041707817    3574.7272    1453.2586    1063.9568    900.36562    28.387719    18.846606    14.340984 0.00039045574 0.00038961524    6.2437951    6.2437215    299.32558     41.49527    35.978931    34.423473    90.016431    119.66323    90.107069    87.213329    234.27344    28.380433    18.849201    14.339832    28.387163    18.846838    14.341471 
  440000     300.0019    1.2509986     3668.384            0            0            0            0   -628.05938    44657.537 -0.067234084   -17.036218 -0.041707817     3668.384     1522.832    1035.4806    948.89469    28.381337    18.850969    14.338984 0.0003675943 0.00036741974    6.2605502    6.2605084     300.0019     41.49527    35.978931    34.423473    90.016431    119.66323    90.107069    87.447365    220.55658    28.379139    18.849005    14.339637    28.379873    18.851582    14.339401 
  450000    291.03463    1.2509986    3605.0163            0            0            0            0   -952.78274    44657.537 -0.067234084   -17.036218 -0.041707817    3605.0163    1506.9986    986.35201    946.93199     28.38265    18.849813    14.335616 0.00036579473 0.00036503124    6.3776766    6.3776208    291.03463     41.49527    35.978931    34.423473    90.016431    119.66323    90.107069    89.083387    219.47684    28.379791    18.848263    14.340021     28.38464    18.851041    14.336054 
  460000    299.51395    1.2509986    3541.9724            0            0            0            0    1023.8861    44657.537 -0.067234084   -17.036218 -0.041707817    3541.9724    1469.3229    1001.2419    914.89913    28.376836    18.848039    14.342351 0.00035557757 0.00035374875    6.3705151    6.3704468    299.51395     41.49527    35.978931    34.423473    90.016431    119.66323    90.107069    88.983355    213.34654     28.38085    18.848871     14.33927    28.374424    18.847809    14.343078 
  470000    298.74564    1.2509986    3543.9963            0            0            0            0    586.96673    44657.537 -0.067234084   -17.036218 -0.041707817    3543.9963    1505.0492    976.08224     904.7444    28.373171     18.85512     14.33435 0.0003398299 0.00033684506    6.3164707    6.3162783    298.74564     41.49527    35.978931    34.423473    90.016431    119.66323    90.107069    88.228463    203.89794    28.378293    18.848722    14.338496    28.372784     18.85698    14.333993 
  480000    294.76616    1.2509986    3586.8489            0            0            0            0    -656.2039    44657.537 -0.067234084   -17.036218 -0.041707817    3586.8489     1472.805    1027.7499    925.10658     28.37587    18.847459    14.349011 0.00035107628 0.00035029354    6.1585267     6.158386    294.76616     41.49527    35.978931    34.423473    90.016431    119.66323    90.107069      86.0223    210.64577    28.379069     18.84937    14.340284     28.37672    18.846555    14.348661 
  490000     295.4277    1.2509986    3538.2741            0            0            0            0    128.78012    44657.537 -0.067234084   -17.036218 -0.041707817    3538.2741    1429.3398    1016.9134    934.60655    28.377607    18.850651    14.338096 0.00037317834 0.00037122682    6.0932495    6.0932242     295.4277     41.49527    35.978931    34.423473    90.016431    119.66323    90.107069    85.110508      223.907     28.38044     18.84926    14.340692    28.378433    18.850083    14.338721 
  500000    296.61008    1.2509986    3546.1119            0            0            0            0   -540.41855    44657.537 -0.067234084   -17.036218 -0.041707817    3546.1119    1479.8098    1008.2959    900.79032    28.374944    18.848164    14.337264 0.00036073235 0.0003577833    6.2062674     6.206227    296.61008     41.49527    35.978931    34.423473    90.016431    119.66323    90.107069    86.689144    216.43941    28.380657    18.848016      14.3405    28.375384     18.84996    14.338118 
  510000    297.96299    1.2509986    3552.2414            0            0            0            0    259.41926    44657.537 -0.067234084   -17.036218 -0.041707817    3552.2414    1431.2453    1027.3733    935.39285    28.379183    18.848396    14.340147 0.00034322542 0.00033978432    6.3170474    6.3170073    297.96299     41.49527    35.978931    34.423473    90.016431    119.66323    90.107069    88.236518    205.93525    28.379495    18.849892    14.338006    28.379366    18.849329     14.34227 
  520000    301.39918    1.2509986    3523.7501            0            0            0            0   -599.44663    44657.537 -0.067234084   -17.036218 -0.041707817    3523.7501    1493.2436     983.9707     899.1589    28.379458    18.845474    14.343374 0.00036390104 0.00036148182    6.1406162    6.1405874    301.39918     41.49527    35.978931    34.423473    90.016431    119.66323    90.107069    85.772128    218.34062    28.378269    18.849808    14.339998    28.379905    18.846497     14.34254 
  530000    297.15234    1.2509986    3552.4332            0            0            0            0    975.62941    44657.537 -0.067234084   -17.036218 -0.041707817    3552.4332    1501.2919    983.55297    912.53537    28.379077    18.848423    14.337173 0.00033634599 0.00033465155    6.0309124    6.0309014    297.15234     41.49527    35.978931    34.423473    90.016431    119.66323    90.107069    84.239784    201.80759    28.379711    18.847871    14.340244    28.379599    18.848696    14.336506 
  540000    299.93547    1.2509986    3612.4864            0            0            0            0     1838.741    44657.537 -0.067234084   -17.036218 -0.041707817    3612.4864    1467.4361    1081.0986     912.2993    28.382673    18.847797     14.34321 0.00037001397 0.00036789439    5.8357833    5.8357348    299.93547     41.49527    35.978931    34.423473    90.016431    119.66323    90.107069    81.514222    222.00838    28.379812    18.849464    14.340999    28.382974    18.846558    14.343375 
  550000    297.09171    1.2509986    3570.2791            0            0            0            0      783.862    44657.537 -0.067234084   -17.036218 -0.041707817    3570.2791    1496.7908    1025.0405    895.36147    28.385925    18.850119    14.335513 0.00037936665 0.00037914821    5.8740833     5.874017    297.09171     41.49527    35.978931    34.423473    90.016431    119.66323    90.107069    82.049195    227.61999    28.379119    18.849157    14.339557    28.385212     18.85155    14.337721 
  560000     299.7967    1.2509986    3594.6061            0            0            0            0   -142.70321    44657.537 -0.067234084   -17.036218 -0.041707817    3594.6061    1499.1023    1018.6956    919.14632    28.382523    18.854275    14.338272 0.00034949676 0.00034890356    6.0345436     6.034459     299.7967     41.49527    35.978931    34.423473    90.016431    119.66323    90.107069    84.290505    209.69806    28.379173    18.849665    14.339784    28.382225     18.85435     14.33709 
  570000    300.06393    1.2509986    3561.3699            0            0            0            0    781.99883    44657.537 -0.067234084   -17.036218 -0.041707817    3561.3699    1481.9986    1025.8782    900.44475    28.379353    18.847391    14.343982 0.00038249706 0.00038237026    5.9947978    5.9947379    300.06393     41.49527    35.978931    34.423473    90.016431    119.66323    90.107069    83.735336    229.49823    28.379822    18.848776    14.339637    28.379478    18.847139    14.344812 
  580000    298.99494    1.2509986    3604.6587            0            0            0            0   -614.27589    44657.537 -0.067234084   -17.036218 -0.041707817    3604.6587    1522.6269    1011.3621     919.2399    28.373989    18.847779    14.342768 0.0003269607 0.00032577321    6.2824225    6.2823742    298.99494     41.49527    35.978931    34.423473    90.016431    119.66323    90.107069    87.752878    196.17642    28.380458    18.849406    14.339169    28.374931    18.848921     14.34082 
  590000    297.68604    1.2509986      3534.13            0            0            0            0     2304.023    44657.537 -0.067234084   -17.036218 -0.041707817      3534.13     1436.481    1025.2176    911.93423    28.379244    18.851983    14.349405 0.00036384464 0.00036148626    6.2915248    6.2913182    297.68604     41.49527    35.978931    34.423473    90.016431    119.66323    90.107069    87.880019    218.30678    28.379578    18.850537    14.339829     28.38113    18.852072    14.349968 
  600000    297.52936    1.2509986    3629.0884            0            0            0            0    927.09159    44657.537 -0.067234084   -17.036218 -0.041707817    3629.0884    1471.0182    1077.2078    923.66671    28.378696    18.853471    14.336584 0.00039859105 0.00039716113    6.1747267    6.1746609    297.52936     41.49527    35.978931    34.423473    90.016431    119.66323    90.107069    86.248582    239.15463    28.379121    18.847966    14.339258    28.379092    18.853535    14.336698 
  610000    299.83694    1.2509986    3570.9367            0            0            0            0   -820.06845    44657.537 -0.067234084   -17.036218 -0.041707817    3570.9367    1509.9256    1005.9396     900.0322    28.382133    18.848657      14.3399 0.00036005004 0.00035899734    6.2951231    6.2950954    299.83694     41.49527    35.978931    34.423473    90.016431    119.66323    90.107069     87.93028    216.03003    28.380458     18.84853    14.339552    28.383021    18.848298    14.340347 
  620000    302.83679    1.2509986    3529.6632            0            0            0            0    -489.9299    44657.537 -0.067234084   -17.036218 -0.041707817    3529.6632    1471.1864    986.41503    913.98678    28.374322    18.847637    14.345693 0.00037151994 0.00037082995    6.5461339     6.546034    302.83679     41.49527    35.978931    34.423473    90.016431    119.66323    90.107069    91.436398    222.91197    28.379385    18.849292    14.338875    28.373516    18.848441    14.344441 
  630000    289.69691    1.2509986    3603.2596            0            0            0            0    802.60171    44657.537 -0.067234084   -17.036218 -0.041707817    3603.2596    1492.2113    1047.3131    908.71321    28.371682     18.84876    14.337467 0.00036761455 0.0003672697    6.3189689    6.3188926    289.69691     41.49527    35.978931    34.423473    90.016431    119.66323    90.107069    88.263357    220.56873     28.37919    18.848695    14.339308    28.372014    18.849338    14.337987 
  640000    293.70458    1.2509986    3617.0916            0            0            0            0    749.71361    44657.537 -0.067234084   -17.036218 -0.041707817    3617.0916    1528.1019    992.63266    937.59805    28.391911    18.847257    14.337224 0.00037298301 0.00037289709    6.1256502    6.1254206    293.70458     41.49527    35.978931    34.423473    90.016431    119.66323    90.107069    85.563083     223.7898    28.379374    18.848847     14.33948    28.394691    18.847222    14.334987 
  650000    296.68969    1.2509986    3516.1145            0            0            0            0   -476.87309    44657.537 -0.067234084   -17.036218 -0.041707817    3516.1145    1477.5196    986.91921    897.72225     28.38849    18.848453    14.337242 0.00037170869 0.00037037844    6.3397818    6.3396896    296.68969     41.49527    35.978931    34.423473    90.016431    119.66323    90.107069    88.554073    223.02522    28.380039    18.848683    14.340632    28.388707    18.848921    14.336169 
  660000    297.24302    1.2509986    3598.6828            0            0            0            0     633.6583    44657.537 -0.067234084   -17.036218 -0.041707817    3598.6828    1469.6025    1035.9525    937.03245    28.382698    18.847286    14.342514 0.00037826819 0.00037806467    6.2848918    6.2848528    297.24302     41.49527    35.978931    34.423473    90.016431    119.66323    90.107069    87.787369    226.96091    28.379396    18.849415    14.339767      28.3838    18.848556    14.340948 
  670000     299.2661    1.2509986    3677.9153            0            0            0            0    2391.7695    44657.537 -0.067234084   -17.036218 -0.041707817    3677.9153    1525.9879    1048.4759    942.33264     28.38335     18.84772     14.33967 0.0003857082 0.00038214136    6.4734116    6.4733891     299.2661     41.49527    35.978931    34.423473    90.016431    119.66323    90.107069    90.420613    231.42492    28.380881    18.848449    14.338416    28.383475    18.848141    14.338644 
  680000    304.58238    1.2509986    3566.9118            0            0            0            0    1390.4814    44657.537 -0.067234084   -17.036218 -0.041707817    3566.9118    1490.4731    972.32972    945.48738    28.380544    18.854258     14.33261 0.00035305454 0.00035237169    6.4121171    6.4120366    304.58238     41.49527    35.978931    34.423473    90.016431    119.66323    90.107069    89.564451    211.83272    28.380096    18.849626    14.339512    28.381146    18.853715    14.333982 
  690000    297.12714    1.2509986    3662.4488            0            0            0            0   -864.71852    44657.537 -0.067234084   -17.036218 -0.041707817    3662.4488    1513.3315    1042.1096    951.36145    28.377049    18.847437    14.340209 0.00034790501 0.00034667957    6.1749195    6.1748973    297.12714     41.49527    35.978931    34.423473    90.016431    119.66323    90.107069    86.251276      208.743    28.379755    18.848545    14.340622    28.376443    18.847306    14.339994 
  700000    298.73915    1.2509986    3591.9525            0            0            0            0    406.77087    44657.537 -0.067234084   -17.036218 -0.041707817    3591.9525    1462.5849    1016.3258    953.09341    28.384443    18.852777    14.341039 0.00034254618 0.00033874904    5.9644631     5.964366    298.73915     41.49527    35.978931    34.423473    90.016431    119.66323    90.107069    83.311621    205.52771    28.380213    18.849731     14.33795    28.384916    18.852554    14.341838 
  710000    294.86508    1.2509986    3608.1107            0            0            0            0    101.12512    44657.537 -0.067234084   -17.036218 -0.041707817    3608.1107     1455.292    1072.1842    921.34984    28.379027    18.849038    14.341103 0.00034603212 0.00034214681    5.9082036    5.9081876    294.86508     41.49527    35.978931    34.423473    90.016431    119.66323    90.107069    82.525787    207.61927    28.380718    18.847433    14.339434    28.379995    18.846902    14.340985 
  720000    299.77598    1.2509986    3610.5834            0            0            0            0   -1317.0985    44657.537 -0.067234084   -17.036218 -0.041707817    3610.5834    1512.8693    1039.8001    903.44052    28.374183    18.849408    14.340985 0.00035379665 0.00035262777    6.0426914    6.0426094    299.77598     41.49527    35.978931    34.423473    90.016431    119.66323    90.107069    84.404314    212.27799    28.379239     18.84851    14.338735     28.37443    18.851226    14.341732 
  730000    301.51565    1.2509986    3522.3007            0            0            0            0    988.10574    44657.537 -0.067234084   -17.036218 -0.041707817    3522.3007    1447.0388    971.61213    943.10683    28.378651    18.855048    14.337421 0.00034303506 0.00034248109    6.0389998    6.0388648    301.51565     41.49527    35.978931    34.423473    90.016431    119.66323    90.107069    84.352749    205.82103    28.379666    18.848983    14.340374    28.378562    18.857018    14.336779 
  740000     301.3281    1.2509986    3567.5052            0            0            0            0    2315.8578    44657.537 -0.067234084   -17.036218 -0.041707817    3567.5052    1449.2345    1028.3613    929.24165    28.385887    18.854575    14.341005 0.00037294392 0.00036791251    6.0487499    6.0486065     301.3281     41.49527    35.978931    34.423473    90.016431    119.66323    90.107069    84.488939    223.76635    28.379005    18.849146    14.337468    28.385597    18.855863    14.338693 
  750000    299.14532    1.2509986    3630.9561            0            0            0            0    -298.6022    44657.537 -0.067234084   -17.036218 -0.041707817    3630.9561    1488.4527    1047.7466    935.92324    28.376369    18.847353    14.338423 0.00038090802 0.00038005187    5.8086596    5.8086384    299.14532     41.49527    35.978931    34.423473    90.016431    119.66323    90.107069    81.135358    228.54481    28.378737    18.849318    14.339337    28.375651     18.84722    14.338182 
  760000    298.63458    1.2509986    3614.6604            0            0            0            0   -1233.1622    44657.537 -0.067234084   -17.036218 -0.041707817    3614.6604    1483.9853    1047.8631    925.50427    28.377488    18.845228    14.344195 0.00032859673 0.00032812279    5.9271444    5.9270954    298.63458     41.49527    35.978931    34.423473    90.016431    119.66323    90.107069    82.790353    197.15804    28.379625    18.849525    14.339183    28.377823    18.845824    14.343967 
  770000    296.16555    1.2509986    3596.7089            0            0            0            0   -311.62479    44657.537 -0.067234084   -17.036218 -0.041707817    3596.7089    1453.6479    1027.0602    954.91092    28.384646    18.849339    14.339923 0.00037422878 0.00037316529    5.9663278    5.9662563    296.16555     41.49527    35.978931    34.423473    90.016431    119.66323    90.107069    83.337667    224.53727    28.380551    18.848777    14.339499    28.386898    18.848534    14.340722 
  780000    291.91299    1.2509986    3547.7757            0            0            0            0    541.43654    44657.537 -0.067234084   -17.036218 -0.041707817    3547.7757    1450.1326     1036.484    906.20867    28.377294    18.854203    14.330183 0.00034846851 0.00034820424    6.0127759    6.0126604    291.91299     41.49527    35.978931    34.423473    90.016431    119.66323    90.107069    83.986453    209.08111    28.379559    18.849466    14.339396    28.377568    18.854888    14.332593 
  790000    292.91908    1.2509986    3527.1933            0            0            0            0    1454.5723    44657.537 -0.067234084   -17.036218 -0.041707817    3527.1933    1466.1087    996.01506    909.53207    28.375894    18.847056    14.339201 0.00036471549 0.00036385031    6.0427409    6.0427098    292.91908     41.49527    35.978931    34.423473    90.016431    119.66323    90.107069    84.405005     218.8293    28.378689    18.849239    14.339389    28.374643    18.846689    14.338973 
  800000    304.40014    1.2509986    3521.8726            0            0            0            0     853.8422    44657.537 -0.067234084   -17.036218 -0.041707817    3521.8726    1482.0992    983.72835    904.04881    28.378469    18.843199    14.346469 0.00037534243 0.0003742435    6.0926517    6.0925689    304.40014     41.49527    35.978931    34.423473    90.016431    119.66323    90.107069    85.102159    225.20546    28.379529    18.847978    14.339475    28.376293    18.842656    14.345165 
  810000     300.1684    1.2509986    3585.4599            0            0            0            0   -820.51273    44657.537 -0.067234084   -17.036218 -0.041707817    3585.4599    1487.6746     1030.007    910.40958    28.379416    18.845957    14.341182 0.00037083158 0.00037009594    6.2523054    6.2522734     300.1684     41.49527    35.978931    34.423473    90.016431    119.66323    90.107069    87.332202    222.49895    28.379005     18.84841    14.339378     28.37877    18.847632    14.342394 
  820000    296.10482    1.2509986    3635.5328            0            0            0            0    105.59844    44657.537 -0.067234084   -17.036218 -0.041707817    3635.5328    1510.3798    1014.4977    949.59599    28.380635    18.840592    14.339962 0.00034402456 0.00034344633    6.2484938    6.2484657    296.10482     41.49527    35.978931    34.423473    90.016431    119.66323    90.107069    87.278962    206.41473    28.379773    18.849458    14.340215     28.38039    18.840529      14.3391 
  830000    295.63086    1.2509986    3569.5472            0            0            0            0    495.51159    44657.537 -0.067234084   -17.036218 -0.041707817    3569.5472    1474.1772     1019.507    920.82638    28.384061    18.849694    14.332358 0.00037535286 0.00037376803    6.0746182    6.0745408    295.63086     41.49527    35.978931    34.423473    90.016431    119.66323    90.107069    84.850267    225.21171    28.380167    18.848605    14.338616    28.384731    18.851057    14.332567 
  840000    294.05176    1.2509986    3478.0347            0            0            0            0   -1246.5783    44657.537 -0.067234084   -17.036218 -0.041707817    3478.0347    1451.4616    975.46231    900.19739    28.376994    18.848544     14.33839 0.00035815086 0.00035516617     6.201278    6.2012586    294.05176     41.49527    35.978931    34.423473    90.016431    119.66323    90.107069    86.619451    214.89052    28.378743    18.850524    14.339442    28.377492     18.84882    14.338939 
  850000    297.01184    1.2509986    3656.8591            0            0            0            0    776.72151    44657.537 -0.067234084   -17.036218 -0.041707817    3656.8591    1491.3669    1055.7059    947.76328    28.381868    18.847501     14.33878 0.00034098453 0.00033976533    6.2464851    6.2464681    297.01184     41.49527    35.978931    34.423473    90.016431    119.66323    90.107069    87.250903    204.59072    28.379835    18.848577    14.340613    28.382863    18.846454    14.339844 
  860000    297.72647    1.2509986    3618.7358            0            0            0            0    1142.4236    44657.537 -0.067234084   -17.036218 -0.041707817    3618.7358     1497.872    1027.4454    932.52128    28.381405    18.847609    14.338999 0.00034557289 0.00034501345    6.1568942    6.1568807    297.72647     41.49527    35.978931    34.423473    90.016431    119.66323    90.107069    85.999499    207.34373    28.378841    18.848795    14.339622    28.382388    18.845941    14.339861 
  870000    295.04524    1.2509986      3594.49            0            0            0            0   -7.4225428    44657.537 -0.067234084   -17.036218 -0.041707817      3594.49    1469.9949    1019.8445    942.23546    28.382496    18.852254    14.340124 0.00034952741 0.00034884672    6.2651839     6.265117    295.04524     41.49527    35.978931    34.423473    90.016431    119.66323    90.107069    87.512089    209.71645     28.37982    18.848257    14.339439    28.382891    18.852875    14.338895 
  880000    295.00864    1.2509986    3532.5228            0            0            0            0   -11.935606    44657.537 -0.067234084   -17.036218 -0.041707817    3532.5228    1481.8212    974.97483    920.99809    28.379141    18.854189    14.334303 0.00034024777 0.00033689663    6.1988735    6.1987698    295.00864     41.49527    35.978931    34.423473    90.016431    119.66323    90.107069    86.585865    204.14866    28.380926    18.848672    14.338472    28.378024    18.855239    14.334996 
  890000    296.12235    1.2509986    3577.3763            0            0            0            0    940.01207    44657.537 -0.067234084   -17.036218 -0.041707817    3577.3763    1458.6239    1059.1051    904.88662    28.379363    18.852711    14.343391 0.00036403852 0.00036314757    6.0902788     6.090154    296.12235     41.49527    35.978931    34.423473    90.016431    119.66323    90.107069    85.069014    218.42311    28.379739    18.848118      14.3394    28.379749    18.853056    14.345464 
  900000     297.9075    1.2509986    3654.3009            0            0            0            0   -803.78173    44657.537 -0.067234084   -17.036218 -0.041707817    3654.3009    1510.8317     1020.108    959.89884    28.381694    18.852598     14.33855 0.00035553798 0.00035494516    6.2708898    6.2708354     297.9075     41.49527    35.978931    34.423473    90.016431    119.66323    90.107069    87.591789    213.32279    28.379266    18.848861    14.340335    28.381604    18.852585    14.336477 
  910000    303.54686    1.2509986    3532.8364            0            0            0            0    589.92384    44657.537 -0.067234084   -17.036218 -0.041707817    3532.8364     1461.997    1006.5119    911.26821    28.376006    18.858947    14.347716 0.00035613692 0.00035478532    6.1927184    6.1923276    303.54686     41.49527    35.978931    34.423473    90.016431    119.66323    90.107069    86.499891    213.68215    28.380036    18.850059    14.339471    28.375138    18.859758    14.350108 
  920000    299.41419    1.2509986    3598.6231            0            0            0            0   -1335.9345    44657.537 -0.067234084   -17.036218 -0.041707817    3598.6231     1501.947    1009.0121    927.23134    28.381581    18.850438    14.340395 0.00033511342 0.00033450113    6.3249464    6.3249007    299.41419     41.49527    35.978931    34.423473    90.016431    119.66323    90.107069    88.346851    201.06805     28.38033    18.848908    14.339691    28.382567    18.850799    14.340388 
  930000    294.49234    1.2509986    3542.8212            0            0            0            0   -205.98574    44657.537 -0.067234084   -17.036218 -0.041707817    3542.8212    1504.1077    996.11373    893.13059    28.384298    18.844132    14.338868 0.00037058618 0.00036973502    6.2510685    6.2510432    294.49234     41.49527    35.978931    34.423473    90.016431    119.66323    90.107069    87.314925    222.35171    28.379592    18.849453    14.340448    28.384757    18.844918    14.337999 
  940000    300.21601    1.2509986    3476.5908            0            0            0            0     1903.915    44657.537 -0.067234084   -17.036218 -0.041707817    3476.5908    1457.4078    1020.2483    857.51585    28.388206    18.845161    14.333004 0.00037345051 0.00037165318     6.123569    6.1234676    300.21601     41.49527    35.978931    34.423473    90.016431    119.66323    90.107069    85.534011    224.07031    28.378243    18.848747    14.339649    28.389154    18.845118    14.333533 
  950000    302.35165    1.2509986    3556.5948            0            0            0            0    280.95832    44657.537 -0.067234084   -17.036218 -0.041707817    3556.5948    1440.2851    1073.5837    890.57757    28.377764    18.849752    14.336141 0.00037661741 0.00037532775    5.9519013    5.9518565    302.35165     41.49527    35.978931    34.423473    90.016431    119.66323    90.107069    83.136157    225.97045    28.379183    18.848279     14.34042    28.375662    18.849838    14.334351 
  960000    295.70567    1.2509986    3508.6434            0            0            0            0   -48.475684    44657.537 -0.067234084   -17.036218 -0.041707817    3508.6434    1460.9151    993.52984    899.98201    28.382034    18.848139    14.342285 0.00034125882 0.00033946519    6.0138561    6.0138259    295.70567     41.49527    35.978931    34.423473    90.016431    119.66323    90.107069    84.001542    204.75529    28.380031    18.850256    14.339793    28.382802    18.848834    14.340425 
  970000     296.1095    1.2509986    3631.3252            0            0            0            0    597.58274    44657.537 -0.067234084   -17.036218 -0.041707817    3631.3252    1513.5395     1016.874    941.95171      28.3811    18.844268    14.346787 0.00039025761 0.00038771467    5.9146825    5.9145887     296.1095     41.49527    35.978931    34.423473    90.016431    119.66323    90.107069    82.616286    234.15457    28.380381    18.850252    14.339066    28.381482    18.845577    14.346808 
  980000    296.62551    1.2509986    3493.3077            0            0            0            0   -684.76618    44657.537 -0.067234084   -17.036218 -0.041707817    3493.3077    1429.0447    994.23926    916.21579    28.385608    18.849367    14.335855 0.00038343825 0.00038279178    5.9719146    5.9718587    296.62551     41.49527    35.978931    34.423473    90.016431    119.66323    90.107069    83.415703    230.06295    28.379557    18.848501    14.340258    28.386083    18.849331    14.335965 
  990000    299.37075    1.2509986    3623.1879            0            0            0            0   -1870.5363    44657.537 -0.067234084   -17.036218 -0.041707817    3623.1879    1509.6633    1033.1467    924.65935    28.379339    18.850249    14.339997 0.00033488212 0.00033448071    6.1041598    6.1041376    299.37075     41.49527    35.978931    34.423473    90.016431    119.66323    90.107069    85.262905    200.92927    28.379333    18.848516    14.339315    28.380623    18.849098    14.340178 
 1000000    298.76561    1.2509986    3613.6897            0            0            0            0   -976.32706    44657.537 -0.067234084   -17.036218 -0.041707817    3613.6897    1499.3457    1034.6516    918.99414    28.379073    18.852913    14.337022 0.00036976475 0.00036767596    5.9410152     5.940958    298.76561     41.49527    35.978931    34.423473    90.016431    119.66323    90.107069    82.984101    221.85885    28.380831    18.849093    14.338961    28.379305    18.852965    14.336307 
 1010000    301.27739    1.2509986    3583.8422            0            0            0            0    609.82322    44657.537 -0.067234084   -17.036218 -0.041707817    3583.8422    1471.2011    1032.5299    924.95218    28.378112    18.845797    14.343378 0.00036611706 0.00036434531    6.0219399       6.0219    301.27739     41.49527    35.978931    34.423473    90.016431    119.66323    90.107069    84.114456    219.67023    28.378572     18.84814    14.339841    28.377479    18.845683    14.343127 
 1020000    296.51105    1.2509986    3554.9986            0            0            0            0    460.35043    44657.537 -0.067234084   -17.036218 -0.041707817    3554.9986    1479.7618    1008.0428     906.8044    28.378457    18.843518    14.341536 0.00036456275 0.00036426629    6.0606016    6.0605843    296.51105     41.49527    35.978931    34.423473    90.016431    119.66323    90.107069    84.654484    218.73765    28.379793    18.848549    14.339478    28.379191    18.843769    14.341007 
 1030000    301.13698    1.2509986      3539.12            0            0            0            0    528.70857    44657.537 -0.067234084   -17.036218 -0.041707817      3539.12    1495.0039    996.56904    896.97743    28.375931    18.849751    14.341775 0.00036531187 0.0003639883    5.9589386    5.9588867    301.13698     41.49527    35.978931    34.423473    90.016431    119.66323    90.107069    83.234455    219.18712    28.378508    18.849251    14.340046    28.376713     18.84989    14.342037 
 1040000    298.83114    1.2509986    3608.4505            0            0            0            0     2554.703    44657.537 -0.067234084   -17.036218 -0.041707817    3608.4505    1489.1667    987.30086    961.83555     28.37709    18.854469    14.334008 0.00036956309 0.00036676212    6.1297283    6.1296232    298.83114     41.49527    35.978931    34.423473    90.016431    119.66323    90.107069    85.620045    221.73786    28.379991    18.848369    14.338156    28.376882    18.855006    14.334894 
 1050000    307.31793    1.2509986    3546.5212            0            0            0            0    791.97636    44657.537 -0.067234084   -17.036218 -0.041707817    3546.5212    1461.4056    998.31473    927.58423    28.371069    18.842805    14.337476 0.00033734055 0.00033692983    5.9924269    5.9923335    307.31793     41.49527    35.978931    34.423473    90.016431    119.66323    90.107069    83.702219    202.40433    28.379178    18.849388    14.339281    28.370382    18.843362    14.337366 
 1060000     301.6727    1.2509986     3605.883            0            0            0            0    504.15461    44657.537 -0.067234084   -17.036218 -0.041707817     3605.883    1528.1393    1007.5469    912.37632    28.382991    18.850231    14.341009 0.00035746531 0.00035490319     6.125692    6.1256507     301.6727     41.49527    35.978931    34.423473    90.016431    119.66323    90.107069    85.563666    214.47918    28.378723    18.848627    14.338327    28.382002    18.849702    14.341579 
 1070000    299.27105    1.2509986    3604.6547            0            0            0            0    760.90896    44657.537 -0.067234084   -17.036218 -0.041707817    3604.6547     1479.505    1063.2061    908.32047    28.378422    18.846608    14.335166 0.00036650086 0.00036460478    5.9485918    5.9485812    299.27105     41.49527    35.978931    34.423473    90.016431    119.66323    90.107069    83.089931    219.90051    28.378492    18.849862    14.339432    28.379466    18.846019    14.334064 
 1080000    296.44063    1.2509986    3583.5356            0            0            0            0    53.722649    44657.537 -0.067234084   -17.036218 -0.041707817    3583.5356    1468.3989     1049.816    906.22943    28.383681    18.850877    14.335182 0.00034392693 0.00034301748    5.9546071    5.9545499    296.44063     41.49527    35.978931    34.423473    90.016431    119.66323    90.107069    83.173952    206.35616    28.379776    18.849135    14.338718    28.384012    18.851216    14.334697 
 1090000    300.92735    1.2509986    3682.0631            0            0            0            0   -676.40735    44657.537 -0.067234084   -17.036218 -0.041707817    3682.0631     1522.257    1055.5701    941.57376    28.379232      18.8548    14.339968 0.00034029748 0.00033933407    6.1163871    6.1163193    300.92735     41.49527    35.978931    34.423473    90.016431    119.66323    90.107069    85.433696    204.17849    28.379224     18.84992    14.339814    28.378687    18.853297    14.339589 
 1100000    292.43045    1.2509986    3528.9581            0            0            0            0   -248.86085    44657.537 -0.067234084   -17.036218 -0.041707817    3528.9581    1461.8472    1000.7269    912.25345     28.37971    18.844864    14.335988 0.00035474051 0.00035160304    6.2831271    6.2831252    292.43045     41.49527    35.978931    34.423473    90.016431    119.66323    90.107069     87.76272     212.8443    28.378573    18.849397     14.34106    28.378856    18.845541    14.336261 
 1110000     300.4202    1.2509986    3583.5438            0            0            0            0    305.41136    44657.537 -0.067234084   -17.036218 -0.041707817    3583.5438    1530.7323    1012.1277    893.02722    28.377195    18.852496    14.336788 0.00033886078 0.00033760634    6.2232879    6.2232273     300.4202     41.49527    35.978931    34.423473    90.016431    119.66323    90.107069    86.926886    203.31647    28.380533    18.848471    14.339552    28.377443    18.852809    14.336171 
 1120000    299.44722    1.2509986    3599.2973            0            0            0            0    1424.0464    44657.537 -0.067234084   -17.036218 -0.041707817    3599.2973    1512.1403    1013.2911    918.67185    28.378199    18.846552    14.342324 0.00039741305 0.00039571892    6.2320652    6.2320442    299.44722     41.49527    35.978931    34.423473    90.016431    119.66323    90.107069    87.049487    238.44783    28.380296    18.850028    14.339981    28.377576    18.845863    14.341242 
 1130000    295.85819    1.2509986    3503.6993            0            0            0            0    1058.4028    44657.537 -0.067234084   -17.036218 -0.041707817    3503.6993     1440.565    1023.3523     884.1049    28.370768    18.844746    14.335953 0.00036793168 0.00036561322    6.2282419     6.228147    295.85819     41.49527    35.978931    34.423473    90.016431    119.66323    90.107069    86.996082    220.75901    28.379086    18.847569    14.339524    28.370632     18.84275    14.335475 
 1140000    300.54802    1.2509986    3682.5231            0            0            0            0    564.89506    44657.537 -0.067234084   -17.036218 -0.041707817    3682.5231    1464.3952    1088.4782    970.98856    28.381201    18.847635    14.347246 0.00036813455 0.0003663896    6.3650942    6.3649871    300.54802     41.49527    35.978931    34.423473    90.016431    119.66323    90.107069    88.907636    220.88073    28.379997    18.848194      14.3387    28.380395    18.847793    14.347333 
 1150000    295.45187    1.2509986    3510.3919            0            0            0            0    319.10503    44657.537 -0.067234084   -17.036218 -0.041707817    3510.3919    1452.1001      995.333    909.68681    28.379327    18.845282    14.336502 0.00038294824 0.00038258161    6.3671892    6.3671836    295.45187     41.49527    35.978931    34.423473    90.016431    119.66323    90.107069    88.936898    229.76894    28.379914     18.84883    14.339185    28.378064    18.844029    14.336614 
 1160000    291.48166    1.2509986    3560.5366            0            0            0            0    584.04094    44657.537 -0.067234084   -17.036218 -0.041707817    3560.5366    1499.8153    1005.1718    902.51402    28.387704     18.84956    14.344594 0.00032748521 0.00032741933    6.2033653    6.2031596    291.48166     41.49527    35.978931    34.423473    90.016431    119.66323    90.107069    86.648607    196.49112    28.379701    18.848917    14.339449    28.389446    18.850872    14.346419 
 1170000    304.38963    1.2509986    3601.6764            0            0            0            0    1062.6785    44657.537 -0.067234084   -17.036218 -0.041707817    3601.6764    1493.7886    1026.3323    918.59026      28.3734    18.843591     14.33476 0.00033054112  0.000328341    6.2601292    6.2600543    304.38963     41.49527    35.978931    34.423473    90.016431    119.66323    90.107069    87.441485    198.32467    28.378077    18.849088    14.339718    28.373484    18.840411    14.334231 
 1180000    297.84104    1.2509986    3552.3928            0            0            0            0   -253.09469    44657.537 -0.067234084   -17.036218 -0.041707817    3552.3928    1415.2431     1052.636    931.92733    28.381703    18.843609    14.342706 0.00037764346 0.00037712963    6.0374301    6.0373797    297.84104     41.49527    35.978931    34.423473    90.016431    119.66323    90.107069    84.330823    226.58607    28.379933    18.849026    14.339028    28.382123    18.842952    14.343479 
 1190000     299.4193    1.2509986    3594.2411            0            0            0            0     1592.234    44657.537 -0.067234084   -17.036218 -0.041707817    3594.2411    1503.5415    1030.9357    910.30768    28.381227    18.846747    14.348813 0.0003320734 0.00033202477    6.1117053    6.1115608     299.4193     41.49527    35.978931    34.423473    90.016431    119.66323    90.107069      85.3683    199.24404    28.379645    18.849121    14.339809    28.382164    18.846722    14.348986 
 1200000    301.41083    1.2509986    3607.1324            0            0            0            0    211.38115    44657.537 -0.067234084   -17.036218 -0.041707817    3607.1324    1470.2284    1039.8682    943.19763    28.379649    18.846001    14.337227 0.00038860892 0.00038656027    6.0481467    6.0481458    301.41083     41.49527    35.978931    34.423473    90.016431    119.66323    90.107069    84.480513    233.16535    28.380683    18.848466    14.338944    28.378973    18.845959    14.337317 
 1210000    297.29001    1.2509986     3575.926            0            0            0            0   -539.75443    44657.537 -0.067234084   -17.036218 -0.041707817     3575.926    1516.2429    991.77279    916.19791    28.377263    18.852185    14.330728 0.00036923467 0.0003689392    6.0505404    6.0504314    297.29001     41.49527    35.978931    34.423473    90.016431    119.66323    90.107069    84.513948     221.5408    28.380032    18.848805    14.339799    28.374769    18.851937    14.330802 
 1220000    304.45373    1.2509986    3644.4585            0            0            0            0    577.83073    44657.537 -0.067234084   -17.036218 -0.041707817    3644.4585     1484.257    1048.0724    944.47972    28.379879     18.85199    14.343887 0.00034507272 0.00034445994    6.1324331    6.1323468    304.45373     41.49527    35.978931    34.423473    90.016431    119.66323    90.107069    85.657825    207.04363     28.37896    18.849062    14.340142    28.380077    18.853104    14.342557 
 1230000    299.93901    1.2509986    3538.5565            0            0            0            0   -566.90504    44657.537 -0.067234084   -17.036218 -0.041707817    3538.5565    1443.6795    995.08067    942.75808    28.372483    18.849733    14.339299 0.00033760675 0.00033696914    5.8932788    5.8932026    299.93901     41.49527    35.978931    34.423473    90.016431    119.66323    90.107069    82.317319    202.56405    28.379247    18.848286    14.339755    28.372183    18.849319    14.339063 
 1240000    289.76885    1.2509986    3574.5426            0            0            0            0   -723.46365    44657.537 -0.067234084   -17.036218 -0.041707817    3574.5426    1557.1145     987.6406     883.3123    28.384604    18.853628    14.335548 0.00037181691 0.00037078226    5.8723272    5.8722424    289.76885     41.49527    35.978931    34.423473    90.016431    119.66323    90.107069    82.024666    223.09014    28.379217    18.848528    14.340465     28.38464    18.853067    14.335318 
 1250000    299.00669    1.2509986    3603.8564            0            0            0            0    1711.2128    44657.537 -0.067234084   -17.036218 -0.041707817    3603.8564     1513.624    981.84945    952.08588    28.380892    18.850335    14.343751 0.0003539779 0.00035387117    5.9889524    5.9888734    299.00669     41.49527    35.978931    34.423473    90.016431    119.66323    90.107069    83.653686    212.38674    28.379599    18.848698    14.339562    28.379488     18.84988    14.344971 
 1260000    300.64207    1.2509986    3625.8767            0            0            0            0    846.34714    44657.537 -0.067234084   -17.036218 -0.041707817    3625.8767    1486.5023    1044.1849    936.47037    28.376233    18.848197    14.335686 0.00040323586 0.00039924153    5.8695585    5.8695303    300.64207     41.49527    35.978931    34.423473    90.016431    119.66323    90.107069    81.985993    241.94152    28.377851    18.850039    14.339818    28.376098    18.848229    14.334653 
 1270000     300.8887    1.2509986    3670.1026            0            0            0            0   -174.71364    44657.537 -0.067234084   -17.036218 -0.041707817    3670.1026    1545.3046    1039.1882    925.28265    28.372636    18.841546    14.339551 0.00034242223 0.00034043035    5.9439366     5.943858     300.8887     41.49527    35.978931    34.423473    90.016431    119.66323    90.107069    83.024907    205.45334    28.378345    18.849162    14.340346    28.372371    18.842287    14.340882 
 1280000    300.80627    1.2509986    3598.1671            0            0            0            0   -523.97527    44657.537 -0.067234084   -17.036218 -0.041707817    3598.1671    1495.0768    1030.0631    913.70327     28.37966     18.84447    14.339562 0.00035762627 0.00035715452    5.8821736    5.8821508    300.80627     41.49527    35.978931    34.423473    90.016431    119.66323    90.107069    82.162201    214.57576    28.379548    18.849541    14.340077    28.379075    18.842575    14.340982 
 1290000    298.63144    1.2509986    3595.0569            0            0            0            0   -661.51335    44657.537 -0.067234084   -17.036218 -0.041707817    3595.0569    1475.8131    1000.4113    953.23782    28.377559    18.850429    14.342581 0.00030854633 0.00030751828    6.1614033     6.161346    298.63144     41.49527    35.978931    34.423473    90.016431    119.66323    90.107069    86.062481     185.1278    28.380192    18.848504    14.339034    28.377564    18.851262    14.341584 
 1300000    301.37041    1.2509986    3595.2908            0            0            0            0   -390.33387    44657.537 -0.067234084   -17.036218 -0.041707817    3595.2908    1498.7764    1040.2211    900.66814    28.382005    18.845394    14.345756 0.00036089773 0.00035781289    6.3545801    6.3545003    301.37041     41.49527    35.978931    34.423473    90.016431    119.66323    90.107069    88.760775    216.53864    28.381299     18.84883    14.339761    28.381769    18.844982    14.345967 
 1310000     299.1204    1.2509986    3590.8582            0            0            0            0    1514.1029    44657.537 -0.067234084   -17.036218 -0.041707817    3590.8582    1450.4786    1041.9787    937.36834    28.370738    18.841583    14.337941 0.00033603194 0.00033571756    6.3257852    6.3256418     299.1204     41.49527    35.978931    34.423473    90.016431    119.66323    90.107069    88.358567    201.61917    28.379536    18.849444    14.339281    28.369291    18.840367    14.339829 
 1320000    296.17347    1.2509986    3615.4942            0            0            0            0   -1121.3449    44657.537 -0.067234084   -17.036218 -0.041707817    3615.4942    1505.0758    1020.9213    932.64832    28.374244    18.846385    14.335578 0.00035986803 0.00035924964    6.3730281    6.3729915    296.17347     41.49527    35.978931    34.423473    90.016431    119.66323    90.107069    89.018456    215.92082    28.378876    18.848714    14.339896    28.374035    18.844996    14.335554 
 1330000    295.59715    1.2509986    3605.7016            0            0            0            0    2291.2828    44657.537 -0.067234084   -17.036218 -0.041707817    3605.7016    1470.0066    1040.1139    938.05388     28.38171     18.85301    14.344315 0.00034471202 0.00034294452    6.2656726    6.2655632    295.59715     41.49527    35.978931    34.423473    90.016431    119.66323    90.107069    87.518915    206.82721    28.379002    18.847945    14.340203     28.38213    18.852281    14.344863 
 1340000    295.69264    1.2509986    3607.1349            0            0            0            0    901.10358    44657.537 -0.067234084   -17.036218 -0.041707817    3607.1349     1470.492    1038.6894    935.04264    28.378655    18.847557    14.335075 0.00032287546 0.00032250713    6.1399448    6.1399298    295.69264     41.49527    35.978931    34.423473    90.016431    119.66323    90.107069    85.762748    193.72528    28.379008    18.848831    14.339454    28.379443    18.848205    14.334543 
 1350000    295.63651    1.2509986    3524.7943            0            0            0            0    1875.3853    44657.537 -0.067234084   -17.036218 -0.041707817    3524.7943    1459.9714    1003.0301    911.04715    28.375736    18.854255     14.34185 0.00038101219 0.00038039702    6.4746318    6.4744821    295.63651     41.49527    35.978931    34.423473    90.016431    119.66323    90.107069    90.437657    228.60731    28.379272    18.848632    14.339015     28.37611    18.856347    14.341477 
 1360000    297.90642    1.2509986    3548.5058            0            0            0            0    75.869479    44657.537 -0.067234084   -17.036218 -0.041707817    3548.5058    1441.6695    1014.8838    931.13576    28.378972    18.844568    14.344774 0.00036040166 0.00035634722    6.1208268    6.1207319    297.90642     41.49527    35.978931    34.423473    90.016431    119.66323    90.107069    85.495709      216.241    28.377752    18.848376    14.339012    28.380217    18.844102    14.346903 
 1370000    296.62187    1.2509986    3572.0592            0            0            0            0   -571.11238    44657.537 -0.067234084   -17.036218 -0.041707817    3572.0592    1498.1077    1023.3904    902.99718    28.370937    18.844789    14.339693 0.00036607805 0.00036583709    6.2819301    6.2818344    296.62187     41.49527    35.978931    34.423473    90.016431    119.66323    90.107069    87.745999    219.64683    28.379648    18.848741     14.33924    28.370617     18.84374    14.340106 
 1380000    288.69915    1.2509986    3576.5001            0            0            0            0    2888.2703    44657.537 -0.067234084   -17.036218 -0.041707817    3576.5001    1464.5442     1023.286      930.029    28.379765    18.853637    14.342477 0.00036554876 0.00036513947    6.1366643     6.136549    288.69915     41.49527    35.978931    34.423473    90.016431    119.66323    90.107069    85.716927    219.32926    28.378975    18.848813    14.339816    28.380756    18.854112    14.343574 
 1390000    295.43005    1.2509986    3598.7754            0            0            0            0   -2.9537355    44657.537 -0.067234084   -17.036218 -0.041707817    3598.7754    1461.5512      1025.97    952.30928    28.378803    18.848391    14.351049 0.00034821648 0.00034750191    6.1029874    6.1027628    295.43005     41.49527    35.978931    34.423473    90.016431    119.66323    90.107069    85.246529    208.92989    28.380072    18.848444    14.339284    28.379098    18.847679     14.35207 
 1400000    296.80968    1.2509986    3567.7826            0            0            0            0   -527.93796    44657.537 -0.067234084   -17.036218 -0.041707817    3567.7826    1488.8019    1021.7406    904.45717    28.374164    18.850883    14.336266 0.00033580632 0.00033270276    6.1018702    6.1017914    296.80968     41.49527    35.978931    34.423473    90.016431    119.66323    90.107069    85.230922    201.48379    28.380327    18.847597    14.338927    28.374854    18.852514    14.335121 
 1410000    299.55789    1.2509986    3596.6681            0            0            0            0   -1565.9098    44657.537 -0.067234084   -17.036218 -0.041707817    3596.6681    1492.2536     1011.041    934.34736    28.374399    18.852192     14.34661 0.00036135335 0.00035958046    5.9022842    5.9020894    299.55789     41.49527    35.978931    34.423473    90.016431    119.66323    90.107069    82.443105    216.81201    28.380244    18.850129    14.339402    28.373071     18.85261    14.347183 
 1420000    296.44685    1.2509986     3529.955            0            0            0            0    -1287.377    44657.537 -0.067234084   -17.036218 -0.041707817     3529.955    1453.2605    990.30156    928.14028    28.377777    18.853262    14.339445 0.00035790088 0.0003559779    5.8588249    5.8587627    296.44685     41.49527    35.978931    34.423473    90.016431    119.66323    90.107069    81.836067    214.74053    28.378771    18.850124    14.339374    28.376657    18.852421    14.339267 
 1430000    300.01125    1.2509986    3564.6791            0            0            0            0    31.740854    44657.537 -0.067234084   -17.036218 -0.041707817    3564.6791    1521.7139    994.27387    898.83666    28.379152     18.84778    14.334821 0.00036931055 0.0003687688    5.7817342    5.7817252    300.01125     41.49527    35.978931    34.423473    90.016431    119.66323    90.107069    80.759263    221.58633    28.380031    18.849121     14.34019    28.379461    18.847634    14.335221 
 1440000    296.46062    1.2509986    3604.9893            0            0            0            0    457.30876    44657.537 -0.067234084   -17.036218 -0.041707817    3604.9893    1476.2303    1014.6614    955.43869    28.380247    18.850548    14.338248 0.00036878931 0.00036519535    6.0361709    6.0361021    296.46062     41.49527    35.978931    34.423473    90.016431    119.66323    90.107069    84.313236    221.27359    28.379773     18.85069    14.340495    28.382278    18.853329    14.338285 
 1450000    296.59527    1.2509986    3706.6901            0            0            0            0   -2801.2989    44657.537 -0.067234084   -17.036218 -0.041707817    3706.6901    1571.1959    1012.9658    960.79259    28.378248    18.851622    14.339972 0.00035858601 0.00035753753    6.1874792    6.1874385    296.59527     41.49527    35.978931    34.423473    90.016431    119.66323    90.107069    86.426709    215.15161    28.379018    18.848992    14.338767    28.377862    18.850375    14.340852 
 1460000    293.69665    1.2509986    3666.7681            0            0            0            0   -247.80428    44657.537 -0.067234084   -17.036218 -0.041707817    3666.7681    1492.0815    1046.1505    962.71067    28.383458    18.849624    14.341894 0.00035808515 0.00035780915    6.0963422    6.0963031    293.69665     41.49527    35.978931    34.423473    90.016431    119.66323    90.107069    85.153707    214.85109    28.379423    18.849482    14.339444    28.382546    18.850253    14.340222 
 1470000    302.74671    1.2509986    3603.1252            0            0            0            0   -395.89055    44657.537 -0.067234084   -17.036218 -0.041707817    3603.1252    1481.0255    1045.2226    917.06235    28.381918    18.852045    14.335195 0.00033592586 0.00033572701    6.3697214    6.3696644    302.74671     41.49527    35.978931    34.423473    90.016431    119.66323    90.107069    88.972269    201.55551    28.379125    18.848922    14.339703    28.383181    18.851638    14.334497 
 1480000    293.19725    1.2509986    3615.2506            0            0            0            0    -466.7436    44657.537 -0.067234084   -17.036218 -0.041707817    3615.2506    1483.1221    1037.0654    936.60021    28.378245    18.851982    14.351217 0.00034351577 0.0003429619    6.3260191    6.3257215    293.19725     41.49527    35.978931    34.423473    90.016431    119.66323    90.107069    88.361835    206.10946     28.37968    18.849718    14.339434    28.376278    18.854165    14.351741 
 1490000    299.05181    1.2509986    3660.4012            0            0            0            0    1474.4612    44657.537 -0.067234084   -17.036218 -0.041707817    3660.4012    1457.0652    1053.5434    983.40865    28.377321    18.843493    14.343167 0.00038658612 0.00038534001    6.2143818    6.2143005    299.05181     41.49527    35.978931    34.423473    90.016431    119.66323    90.107069    86.802485    231.95167    28.379005    18.849487    14.338791    28.374028     18.84143    14.342871 
 1500000    298.13561    1.2509986    3549.9481            0            0            0            0    1332.4929    44657.537 -0.067234084   -17.036218 -0.041707817    3549.9481    1480.1815    1037.0197    884.14987    28.376818    18.849958    14.340205 0.00032603437 0.00032413508    6.1557122    6.1556634    298.13561     41.49527    35.978931    34.423473    90.016431    119.66323    90.107069    85.982988    195.62062    28.379368    18.848447    14.338396     28.37597    18.849964    14.340991 
 1510000    298.63724    1.2509986    3604.9629            0            0            0            0   -70.287072    44657.537 -0.067234084   -17.036218 -0.041707817    3604.9629    1517.8845    1047.3774      883.724    28.386348    18.850655    14.340778 0.00035312031 0.00035238586    6.2901618    6.2900638    298.63724     41.49527    35.978931    34.423473    90.016431    119.66323    90.107069    87.860981    211.87219    28.380231    18.849541    14.339608    28.387815    18.850848    14.339528 
 1520000    296.04321    1.2509986    3626.1014            0            0            0            0    868.79112    44657.537 -0.067234084   -17.036218 -0.041707817    3626.1014    1494.3693    1001.7066    971.09619    28.379401    18.849003    14.341258 0.00036285764 0.00036212016     6.270799    6.2707665    296.04321     41.49527    35.978931    34.423473    90.016431    119.66323    90.107069     87.59052    217.71459    28.378867    18.849438    14.339352    28.380143    18.848493    14.342083 
[...]
 1630000    292.76982    1.2509986     3584.358            0            0            0            0    168.10415    44657.537 -0.067234084   -17.036218 -0.041707817     3584.358    1462.5057    1020.2356    942.83467    28.374779    18.849912    14.342075 0.00035422926 0.00035207244    6.0764315    6.0763655    292.76982     41.49527    35.978931    34.423473    90.016431    119.66323    90.107069    84.875595    212.53755    28.379651     18.84763    14.340125    28.374933    18.850074    14.341846 
 1640000    294.56051    1.2509986     3638.989            0            0            0            0     1520.163    44657.537 -0.067234084   -17.036218 -0.041707817     3638.989    1508.3613    1021.3491    944.45689     28.37972    18.847033    14.341147 0.00036899575 0.00036713305    6.1947836    6.1947501    294.56051     41.49527    35.978931    34.423473    90.016431    119.66323    90.107069    86.528738    221.39745    28.379731    18.849365    14.338331    28.382484    18.847714    14.341888 
 1650000    292.06032    1.2509986    3582.2216            0            0            0            0   -1222.5967    44657.537 -0.067234084   -17.036218 -0.041707817    3582.2216    1504.8468    993.58584    927.32101    28.376298    18.850417    14.343842 0.00035279797 0.00035054899    6.1680265    6.1679396    292.06032     41.49527    35.978931    34.423473    90.016431    119.66323    90.107069    86.154995    211.67878    28.379152    18.849143    14.341076    28.375021    18.850366    14.343594 
 1660000    297.56612    1.2509986    3526.3988            0            0            0            0   -1582.8446    44657.537 -0.067234084   -17.036218 -0.041707817    3526.3988    1465.2574    993.76848    912.35516     28.37779    18.845425    14.342391 0.00037212402 0.00037185477    5.9787599    5.9787344    297.56612     41.49527    35.978931    34.423473    90.016431    119.66323    90.107069    83.511319    223.27441     28.37934    18.848765    14.339237    28.379795    18.845605    14.342315 
 1670000    295.32395    1.2509986    3574.4836            0            0            0            0    372.99972    44657.537 -0.067234084   -17.036218 -0.041707817    3574.4836    1502.9588    1003.0822    911.85021    28.380451    18.849052    14.338337 0.00037238699 0.00036972426    6.0670569    6.0670457    295.32395     41.49527    35.978931    34.423473    90.016431    119.66323    90.107069    84.744651     223.4322    28.380757     18.85007    14.339962    28.380372    18.848718    14.337844 
 1680000    294.45065    1.2509986    3633.1285            0            0            0            0    526.27244    44657.537 -0.067234084   -17.036218 -0.041707817    3633.1285    1495.7515    1051.1825    928.27898     28.37539    18.848968    14.339037 0.00033705626 0.00033573944    5.9454011    5.9453662    294.45065     41.49527    35.978931    34.423473    90.016431    119.66323    90.107069    83.045362    202.23375    28.379921     18.84826    14.340423    28.374923    18.848668    14.338112 
 1690000     297.3968    1.2509986    3612.9001            0            0            0            0    1037.2379    44657.537 -0.067234084   -17.036218 -0.041707817    3612.9001    1477.0499    1026.3655    949.56388    28.385707    18.845815    14.339985 0.00038829114 0.00038507891    6.0330052    6.0329429     297.3968     41.49527    35.978931    34.423473    90.016431    119.66323    90.107069    84.269016    232.97468    28.380894     18.85018    14.339886    28.387567    18.845866    14.338654 
 1700000    293.62145    1.2509986    3594.3781            0            0            0            0    179.95897    44657.537 -0.067234084   -17.036218 -0.041707817    3594.3781    1479.8851    1030.7056    924.98444    28.372355    18.844816    14.344865 0.00036201811 0.00036125945    6.1662217    6.1660835    293.62145     41.49527    35.978931    34.423473    90.016431    119.66323    90.107069    86.129784    217.21086    28.379291    18.849151    14.340456    28.371843    18.843561    14.345691 
 1710000    301.94674    1.2509986    3619.5121            0            0            0            0    286.71509    44657.537 -0.067234084   -17.036218 -0.041707817    3619.5121    1489.1566    1035.0437     939.8622    28.383793    18.846714    14.336984 0.00035732292 0.00035656131    5.9812189    5.9811963    301.94674     41.49527    35.978931    34.423473    90.016431    119.66323    90.107069    83.545665    214.39375    28.378885    18.848482    14.339809    28.384162     18.84734    14.337666 
 1720000    299.05559    1.2509986    3581.5646            0            0            0            0    688.95927    44657.537 -0.067234084   -17.036218 -0.041707817    3581.5646    1467.5799    1005.5532     947.5213    28.374359    18.850025     14.34134 0.00038054755 0.00037974343    5.9713435    5.9712838    299.05559     41.49527    35.978931    34.423473    90.016431    119.66323    90.107069    83.407726    228.32853    28.379712    18.848217    14.340022    28.375015     18.85071    14.340313 
 1730000    300.89479    1.2509986    3602.4331            0            0            0            0     795.0569    44657.537 -0.067234084   -17.036218 -0.041707817    3602.4331    1455.1031    1048.1121    940.33221    28.376542    18.853689    14.344673 0.00036758682 0.00036660057    6.0181393    6.0179909    300.89479     41.49527    35.978931    34.423473    90.016431    119.66323    90.107069     84.06137    220.55209    28.378977    18.849309    14.338888    28.375572     18.85271    14.346099 
 1740000    297.58523    1.2509986    3532.1903            0            0            0            0    360.63527    44657.537 -0.067234084   -17.036218 -0.041707817    3532.1903    1460.4189     1022.128    894.98905    28.382784    18.853138      14.3391 0.00031159668 0.00030879591    6.1212073    6.1210888    297.58523     41.49527    35.978931    34.423473    90.016431    119.66323    90.107069    85.501023    186.95801    28.379693    18.850651    14.339327    28.383893    18.855247    14.339773 
 1750000    292.03854    1.2509986     3655.802            0            0            0            0    59.888793    44657.537 -0.067234084   -17.036218 -0.041707817     3655.802    1503.4793    1078.5661    916.06552    28.382243    18.846524    14.339838 0.00034959188 0.00034798673    6.2211069    6.2210859    292.03854     41.49527    35.978931    34.423473    90.016431    119.66323    90.107069    86.896421    209.75513    28.380021    18.849148    14.340809     28.38148    18.845835     14.34151 
 1760000    299.05485    1.2509986    3492.2768            0            0            0            0    162.31123    44657.537 -0.067234084   -17.036218 -0.041707817    3492.2768    1436.9108    994.84365    907.99952    28.378871    18.849073    14.333795 0.00035014845 0.00034955363    6.3633928    6.3633598    299.05485     41.49527    35.978931    34.423473    90.016431    119.66323    90.107069     88.88387    210.08907     28.37976    18.848759    14.338939    28.377353    18.849785    14.334384 
 1770000    301.11119    1.2509986    3616.1123            0            0            0            0    605.54058    44657.537 -0.067234084   -17.036218 -0.041707817    3616.1123    1458.3265    1046.0844    955.15801      28.3827    18.846172    14.344474 0.00036233054 0.00036110777    6.0479203    6.0478287    301.11119     41.49527    35.978931    34.423473    90.016431    119.66323    90.107069    84.477351    217.39832    28.380396    18.849718    14.339494    28.383361    18.845702    14.346152 
 1780000    295.17671    1.2509986    3550.2608            0            0            0            0    1662.2747    44657.537 -0.067234084   -17.036218 -0.041707817    3550.2608    1482.6888    990.99808    919.88926    28.382794    18.845842    14.341256 0.00035142671 0.00034997604    6.0150838    6.0150622    295.17671     41.49527    35.978931    34.423473    90.016431    119.66323    90.107069    84.018691    210.85603    28.380499    18.848265      14.3396    28.382785    18.845987    14.340802 
 1790000    295.53312    1.2509986    3611.5028            0            0            0            0    1102.9477    44657.537 -0.067234084   -17.036218 -0.041707817    3611.5028    1501.1821    1008.7413    941.72271    28.378869    18.849151    14.337873 0.00034896811 0.00034754729    6.0524908    6.0524649    295.53312     41.49527    35.978931    34.423473    90.016431    119.66323    90.107069    84.541191    209.38087    28.378872    18.849694    14.340337    28.381416    18.849748    14.339517 
 1800000    297.90224    1.2509986     3554.016            0            0            0            0    495.41121    44657.537 -0.067234084   -17.036218 -0.041707817     3554.016      1457.62     1016.058     926.3262    28.374836    18.848433    14.332114 0.00035430024 0.00035413256    6.1300625    6.1299809    297.90224     41.49527    35.978931    34.423473    90.016431    119.66323    90.107069    85.624713    212.58015    28.379337    18.849358    14.339654    28.374321    18.849384    14.331248 
 1810000    298.89618    1.2509986    3547.2507            0            0            0            0   -446.11664    44657.537 -0.067234084   -17.036218 -0.041707817    3547.2507    1487.1334    1005.1872    905.20571    28.383307    18.850759    14.338307 0.00036857766 0.00036756386    6.0344243    6.0343963    298.89618     41.49527    35.978931    34.423473    90.016431    119.66323    90.107069    84.288838     221.1466    28.379897     18.84887    14.340575    28.383231    18.849461    14.336633 
 1820000    301.51052    1.2509986    3522.1221            0            0            0            0    823.28818    44657.537 -0.067234084   -17.036218 -0.041707817    3522.1221    1460.2532    1027.4558    882.42552    28.376222    18.852483    14.342272 0.00037888052 0.00037677221    6.2223024    6.2221986    301.51052     41.49527    35.978931    34.423473    90.016431    119.66323    90.107069     86.91312    227.32831    28.379293    18.850146    14.340507    28.376983    18.852511    14.344067 
 1830000    296.52597    1.2509986    3593.6647            0            0            0            0     18.67525    44657.537 -0.067234084   -17.036218 -0.041707817    3593.6647    1486.1472    1024.1308    919.10246    28.372626      18.8419    14.338746 0.00037620433 0.00037268342    6.2758773    6.2757787    296.52597     41.49527    35.978931    34.423473    90.016431    119.66323    90.107069    87.661454     225.7226    28.377893     18.84916    14.338782    28.371244    18.840667    14.338706 
 1840000    298.50401    1.2509986    3561.7965            0            0            0            0    802.42579    44657.537 -0.067234084   -17.036218 -0.041707817    3561.7965    1427.5747    1041.4648    935.33999    28.378615    18.848304    14.341755 0.00038628143 0.00038584795    6.4634501    6.4634252    298.50401     41.49527    35.978931    34.423473    90.016431    119.66323    90.107069    90.281471    231.76886    28.379858    18.848506    14.339346    28.378111    18.847645    14.341427 
 1850000    301.12524    1.2509986    3573.4255            0            0            0            0    20.857141    44657.537 -0.067234084   -17.036218 -0.041707817    3573.4255    1478.5925    1015.8735    921.84523    28.381388    18.846786    14.346196 0.00033709902 0.00033667344    6.2193304    6.2192585    301.12524     41.49527    35.978931    34.423473    90.016431    119.66323    90.107069    86.871607    202.25941    28.379062    18.848901    14.340049    28.381828    18.846561    14.345426 
 1860000    293.30672    1.2509986    3542.9019            0            0            0            0    913.64799    44657.537 -0.067234084   -17.036218 -0.041707817    3542.9019    1459.3094    986.08772    941.11434    28.381975    18.853909    14.335508 0.00036019574 0.00035914299    6.3078946    6.3077938    293.30672     41.49527    35.978931    34.423473    90.016431    119.66323    90.107069    88.108672    216.11745    28.380383    18.848788    14.339073    28.383763    18.854489    14.335281 
 1870000    300.36983    1.2509986    3577.4616            0            0            0            0   -1673.9427    44657.537 -0.067234084   -17.036218 -0.041707817    3577.4616    1489.8647     1010.837    921.28617    28.378391    18.842537    14.337501 0.00035157088 0.0003494525    6.2443711    6.2443631    300.36983     41.49527    35.978931    34.423473    90.016431    119.66323    90.107069    87.221376    210.94253    28.378622     18.85004    14.340075    28.378085    18.843267    14.337661 
 1880000    300.97106    1.2509986    3648.6849            0            0            0            0   -2093.3358    44657.537 -0.067234084   -17.036218 -0.041707817    3648.6849    1501.7089    1021.0636    962.29111    28.380446    18.853747    14.338302  0.000343321 0.00034189791    6.2177537    6.2176641    300.97106     41.49527    35.978931    34.423473    90.016431    119.66323    90.107069    86.849584     205.9926    28.380209     18.84859    14.340543    28.380571    18.854849    14.336198 
 1890000    301.93188    1.2509986    3671.0889            0            0            0            0    1564.9263    44657.537 -0.067234084   -17.036218 -0.041707817    3671.0889    1528.0401    1009.6934    967.95838    28.373946      18.8531    14.339892 0.00036763607 0.00036650907    6.3530267    6.3529215    301.93188     41.49527    35.978931    34.423473    90.016431    119.66323    90.107069    88.739077    220.58164    28.380027    18.848342    14.338963    28.374735    18.853637    14.340846 
 1900000    298.99746    1.2509986    3602.6803            0            0            0            0    1643.7424    44657.537 -0.067234084   -17.036218 -0.041707817    3602.6803    1460.9148    1020.7638    956.35214    28.377996    18.849812    14.338034 0.00037255165 0.00037226068    6.3873244    6.3873051    298.99746     41.49527    35.978931    34.423473    90.016431    119.66323    90.107069    89.218148    223.53099    28.379884    18.849427    14.339526    28.378242    18.849359    14.338606 
 1910000    293.24845    1.2509986    3589.2087            0            0            0            0   -119.66633    44657.537 -0.067234084   -17.036218 -0.041707817    3589.2087    1473.2218    1031.9672    924.31336    28.387947    18.847606    14.346119 0.0003534371 0.00035209937    6.2047703    6.2046086    293.24845     41.49527    35.978931    34.423473    90.016431    119.66323    90.107069    86.668231    212.06226    28.379543    18.849714    14.338719    28.388304    18.849038     14.34603 
 1920000    294.74433    1.2509986    3600.3278            0            0            0            0    1169.9452    44657.537 -0.067234084   -17.036218 -0.041707817    3600.3278    1501.3037    1027.0933    917.33008    28.380344    18.845563    14.340801 0.00033824797 0.00033746025    6.3085148    6.3085033    294.74433     41.49527    35.978931    34.423473    90.016431    119.66323    90.107069    88.117335    202.94878    28.379741     18.84821    14.339968    28.380952    18.843627    14.339871 
 1930000    296.88948    1.2509986    3593.8396            0            0            0            0    -50.48649    44657.537 -0.067234084   -17.036218 -0.041707817    3593.8396    1487.0213    1013.7384    929.60261     28.37993    18.846814    14.340174 0.00037566906 0.00037535291    6.3449953    6.3449766    296.88948     41.49527    35.978931    34.423473    90.016431    119.66323    90.107069    88.626895    225.40143    28.379488     18.84898    14.340195    28.380553    18.846279    14.341453 
 1940000    292.02531    1.2509986    3534.8493            0            0            0            0    1239.2854    44657.537 -0.067234084   -17.036218 -0.041707817    3534.8493    1454.2829    992.68811     930.1203    28.375726    18.848924    14.338202 0.00036457699 0.0003611471    6.4603079    6.4602693    292.02531     41.49527    35.978931    34.423473    90.016431    119.66323    90.107069    90.237581    218.74619    28.377756    18.848889    14.340053    28.375062    18.849168    14.338826 
 1950000    302.12054    1.2509986    3618.5206            0            0            0            0    603.59795    44657.537 -0.067234084   -17.036218 -0.041707817    3618.5206    1449.8292    1061.8998    943.21311    28.380107    18.855843    14.337192 0.0003530529 0.00035290135    6.2627096    6.2625806    302.12054     41.49527    35.978931    34.423473    90.016431    119.66323    90.107069    87.477528    211.83174    28.379367    18.849345    14.339711    28.378954    18.856706    14.338717 
 1960000    290.65462    1.2509986    3591.0854            0            0            0            0   -699.92849    44657.537 -0.067234084   -17.036218 -0.041707817    3591.0854    1500.7635    1008.1225    922.73934     28.37883    18.852579    14.343192 0.00034619264 0.00034405381    6.2266608    6.2265514    290.65462     41.49527    35.978931    34.423473    90.016431    119.66323    90.107069    86.973998    207.71558    28.378297    18.848544     14.33906    28.379545    18.852876    14.344648 
 1970000    296.22801    1.2509986    3537.5882            0            0            0            0   -862.97485    44657.537 -0.067234084   -17.036218 -0.041707817    3537.5882    1418.4921    1004.1015     953.2723    28.385769     18.85232    14.340807 0.00037050062 0.0003681998    6.2417881    6.2417016    296.22801     41.49527    35.978931    34.423473    90.016431    119.66323    90.107069    87.185296    222.30037    28.379703    18.850337    14.338912    28.384845    18.851255    14.342533 
 1980000    300.72223    1.2509986    3633.5132            0            0            0            0    528.84845    44657.537 -0.067234084   -17.036218 -0.041707817    3633.5132    1510.2863    1052.1187     918.1251    28.386122    18.851612    14.336943 0.00036165982 0.00036084976    6.3728672      6.37279    300.72223     41.49527    35.978931    34.423473    90.016431    119.66323    90.107069    89.016209    216.99589    28.380092    18.848737     14.33897    28.385579    18.851647    14.334853 
 1990000    299.56667    1.2509986    3566.7843            0            0            0            0    712.46132    44657.537 -0.067234084   -17.036218 -0.041707817    3566.7843    1461.7869    1009.4337    932.71636    28.376235    18.848804    14.337934 0.0003411995 0.00034109611    6.2963383    6.2963245    299.56667     41.49527    35.978931    34.423473    90.016431    119.66323    90.107069    87.947253     204.7197    28.379842     18.84888    14.339574    28.376791    18.847546    14.336673 
 2000000     295.0002    1.2509986    3655.4118            0            0            0            0    900.56827    44657.537 -0.067234084   -17.036218 -0.041707817    3655.4118    1491.0013    1051.1318     950.9927    28.380687    18.846518    14.340836 0.00035948645 0.00035855976    6.1369846    6.1369584     295.0002     41.49527    35.978931    34.423473    90.016431    119.66323    90.107069    85.721401    215.69187    28.379331    18.848175    14.340055    28.382152    18.848519    14.340647 
Loop time of 3927.48 on 20 procs for 2000000 steps with 4560 atoms

Pair  time (%) = 2856.54 (72.7321)
Bond  time (%) = 344.32 (8.76693)
Neigh time (%) = 76.5803 (1.94986)
Comm  time (%) = 497.81 (12.675)
Outpt time (%) = 0.510961 (0.0130099)
Other time (%) = 151.722 (3.86309)

Nlocal:    228 ave 240 max 214 min
Histogram: 1 2 1 3 2 1 4 1 3 2
Nghost:    5938.75 ave 5981 max 5893 min
Histogram: 2 0 3 2 2 3 2 2 2 2
Neighs:    84096.1 ave 87927 max 78788 min
Histogram: 1 2 1 2 2 2 2 2 2 4

Total # of neighbors = 1681922
Ave neighs/atom = 368.843
Ave special neighs/atom = 10.6316
Neighbor list builds = 15410
Dangerous builds = 0
System init for write_data ...
