LAMMPS data file via write_data, version 15 May 2015, timestep = 18500000

2593 atoms
6 atom types
1728 bonds
4 bond types
864 angles
3 angle types
0 dihedrals
3 dihedral types
0 impropers
1 improper types

-1.4825701067371769e+01 1.4825701067371769e+01 xlo xhi
-1.4825701067371769e+01 1.4825701067371769e+01 ylo yhi
-1.4825701067371769e+01 1.4825701067371769e+01 zlo zhi

Masses

1 15.9994
2 1.00794
3 12.0107
4 1.00794
5 12.0107
6 12.0107

Bond Coeffs # harmonic

1 1000 1
2 469 1.4
3 367 1.08
4 469 0.7

Angle Coeffs # harmonic

1 100 109.47
2 35 120
3 63 120

Dihedral Coeffs # opls

1 0 7.25 0 0
2 0 7.25 0 0
3 0 7.25 0 0

Improper Coeffs # cvff

1 2.5 -1 2

Atoms # full

1560 520 2 4.0999999999999998e-01 -9.5626354050603446e+00 -7.4653899767078995e+00 -1.2508939960066883e+01 35 55 53
2452 818 1 -8.1999999999999995e-01 -8.8109206606307975e+00 -9.8711225284125383e+00 -8.4084025007939811e+00 37 50 50
2453 818 2 4.0999999999999998e-01 -8.2475008986408298e+00 -1.0103681382253770e+01 -9.2011375950369452e+00 37 50 50
2254 752 1 -8.1999999999999995e-01 -1.0586253564490251e+01 -1.1430775428165283e+01 -1.2306158480554966e+01 32 44 47
2256 752 2 4.0999999999999998e-01 -9.8167255134574809e+00 -1.1228964808277263e+01 -1.2912007837850453e+01 32 44 47
196 66 1 -8.1999999999999995e-01 -1.3450746155750327e+01 -1.1589655294726956e+01 -1.4614049429785805e+01 32 47 49
1826 609 2 4.0999999999999998e-01 -1.0452874567163787e+01 -1.4594691838296606e+01 -1.1571816240265775e+01 35 48 49
924 308 2 4.0999999999999998e-01 -1.1203594219191185e+01 -9.7480916766677090e+00 -1.3156848303245075e+01 42 54 49
923 308 2 4.0999999999999998e-01 -1.2520189461367467e+01 -1.0352697050566700e+01 -1.3910196929398573e+01 42 54 49
1451 484 2 4.0999999999999998e-01 -1.0763498750334122e+01 -7.4236051224615922e+00 -9.2032570282797259e+00 37 51 51
1109 370 2 4.0999999999999998e-01 -1.4437708352306952e+01 -1.1778164829838449e+01 -9.1285932065187065e+00 38 53 57
922 308 1 -8.1999999999999995e-01 -1.2137123782977200e+01 -9.5490009407621450e+00 -1.3454908393488678e+01 42 54 49
1558 520 1 -8.1999999999999995e-01 -9.5270049902274003e+00 -8.2714043315235273e+00 -1.1918155974648089e+01 35 55 53
2422 808 1 -8.1999999999999995e-01 -8.6016686972691545e+00 -1.4313983472158093e+01 -9.0294130572317250e+00 37 54 53
1825 609 1 -8.1999999999999995e-01 -1.1096537418150749e+01 -1.3829422562626272e+01 -1.1567884970648109e+01 35 48 49
1516 506 1 -8.1999999999999995e-01 -9.5248598226633199e+00 -5.8019652328454274e+00 -1.3443184446797181e+01 31 54 54
1797 599 2 4.0999999999999998e-01 -1.3114224364669051e+01 -7.9261948146530337e+00 -1.2841371059753575e+01 33 55 57
1795 599 1 -8.1999999999999995e-01 -1.3218524594809310e+01 -7.2446492514951482e+00 -1.2117097974471834e+01 33 55 57
1796 599 2 4.0999999999999998e-01 -1.2544358076165500e+01 -7.4159037853021239e+00 -1.1398679023851852e+01 33 55 57
1110 370 2 4.0999999999999998e-01 -1.3308935512175346e+01 -1.0599107051379161e+01 -9.1754917689633366e+00 38 53 57
590 197 2 4.0999999999999998e-01 -1.1558690513577362e+01 -1.0876215700084698e+01 -1.0905572743342610e+01 28 54 51
1450 484 1 -8.1999999999999995e-01 -1.1207334147199695e+01 -7.5617023210912615e+00 -1.0088634738166423e+01 37 51 51
1452 484 2 4.0999999999999998e-01 -1.0528584855505677e+01 -7.8629177055288020e+00 -1.0758353421511913e+01 37 51 51
591 197 2 4.0999999999999998e-01 -1.1468485276382683e+01 -9.5485672537706527e+00 -9.9591492348349711e+00 28 54 51
589 197 1 -8.1999999999999995e-01 -1.1848823294729065e+01 -1.0469924273610804e+01 -1.0039140610348309e+01 28 54 51
1559 520 2 4.0999999999999998e-01 -9.0348701683668153e+00 -9.0057627899950923e+00 -1.2385569447344855e+01 35 55 53
1987 663 1 -8.1999999999999995e-01 -9.1680377507205151e+00 -9.8277037247680550e+00 -1.4195447490816022e+01 32 50 50
1773 591 2 4.0999999999999998e-01 -1.3305250253808673e+01 -5.6845610503924693e+00 -1.3151690270253720e+01 36 54 51
1387 463 1 -8.1999999999999995e-01 -1.0208123087720352e+01 -7.5751727240465385e+00 -7.5372089953427714e+00 37 55 51
886 296 1 -8.1999999999999995e-01 -7.8757272491967498e+00 -1.2856522921411042e+01 -1.3830252775988720e+01 34 58 50
866 289 2 4.0999999999999998e-01 -9.4101174269416106e+00 -1.3792449067752662e+01 -1.4245573803615628e+01 35 46 59
2255 752 2 4.0999999999999998e-01 -1.0485478722582334e+01 -1.2354067177503449e+01 -1.1935576233650893e+01 32 44 47
751 251 1 -8.1999999999999995e-01 -1.4561068538713306e+01 -1.0188034455316618e+01 -1.2031534178248457e+01 35 54 54
2456 819 2 4.0999999999999998e-01 -1.3998779778948546e+01 -5.5604706551527876e+00 -1.1102465416318545e+01 33 54 50
1827 609 2 4.0999999999999998e-01 -1.2025809597163335e+01 -1.4174824902499898e+01 -1.1698670433992385e+01 35 48 49
1518 506 2 4.0999999999999998e-01 -1.0071188320198052e+01 -5.8300649409389056e+00 -1.4280256702067009e+01 31 54 54
1517 506 2 4.0999999999999998e-01 -9.9159100877529358e+00 -5.1318936476003625e+00 -1.2812281783687727e+01 31 54 54
2424 808 2 4.0999999999999998e-01 -8.5959504777100015e+00 -1.3355368372715853e+01 -9.3139807808776993e+00 37 54 53
865 289 1 -8.1999999999999995e-01 -9.9154571030419323e+00 -1.4638810297965676e+01 -1.4413677532132095e+01 35 46 59
2549 850 2 4.0999999999999998e-01 -1.4113554695484478e+01 -1.4488590048731963e+01 -1.2741224815174952e+01 33 55 48
129 43 2 4.0999999999999998e-01 -1.1658832193630145e+01 -1.2895419280408948e+01 -9.6368810524830835e+00 40 52 52
1988 663 2 4.0999999999999998e-01 -8.4737099550564388e+00 -9.1281780058111792e+00 -1.4364347072024190e+01 32 50 50
127 43 1 -8.1999999999999995e-01 -1.1582316090175247e+01 -1.3272034908564105e+01 -8.7137015813444556e+00 40 52 52
2455 819 1 -8.1999999999999995e-01 -1.3901759873027080e+01 -5.1486481560507098e+00 -1.0196405952610231e+01 33 54 50
2423 808 2 4.0999999999999998e-01 -9.4880784193749363e+00 -1.4535787979500045e+01 -8.6231680927690135e+00 37 54 53
753 251 2 4.0999999999999998e-01 -1.3658253341310957e+01 -1.0287944962795967e+01 -1.2449741052888486e+01 35 54 54
2454 818 2 4.0999999999999998e-01 -9.1718149067476631e+00 -8.9447925811724094e+00 -8.5162104393671889e+00 37 50 50
128 43 2 4.0999999999999998e-01 -1.2431903732848275e+01 -1.3741758169181878e+01 -8.4738781672060650e+00 40 52 52
1108 370 1 -8.1999999999999995e-01 -1.4215412237302663e+01 -1.0848517821738945e+01 -8.8348326517232252e+00 38 53 57
2548 850 1 -8.1999999999999995e-01 -1.3607671482945575e+01 -1.4678759492534505e+01 -1.1899873440339727e+01 33 55 48
2295 765 2 4.0999999999999998e-01 -1.0602043682074180e+01 -1.2349181112530529e+01 -7.6568921004426214e+00 35 52 50
531 177 2 4.0999999999999998e-01 -1.4477986441956961e+01 -7.3666436585859474e+00 -1.0848004661460887e+01 36 55 57
1573 525 1 -8.1999999999999995e-01 -1.2841190860624486e+01 -1.4270840121049522e+01 -1.4786990925026199e+01 36 56 51
1771 591 1 -8.1999999999999995e-01 -1.3103056193412430e+01 -5.1490480892083017e+00 -1.3971627957800491e+01 36 54 51
1575 525 2 4.0999999999999998e-01 -1.1896999760818588e+01 -1.3987582667215495e+01 -1.4618994624639988e+01 36 56 51
1772 591 2 4.0999999999999998e-01 -1.3672229314478127e+01 -5.4704566727519168e+00 -1.4728392688364654e+01 36 54 51
2294 765 2 4.0999999999999998e-01 -9.3941935057011925e+00 -1.1250287675147451e+01 -7.6628943991337923e+00 35 52 50
887 296 2 4.0999999999999998e-01 -7.8006091777186564e+00 -1.2464072291393107e+01 -1.4746928414670526e+01 34 58 50
1074 358 2 4.0999999999999998e-01 -1.0659404310855933e+01 -4.9840904418739171e+00 -1.0663023612994792e+01 34 59 46
197 66 2 4.0999999999999998e-01 -1.3343863695536660e+01 -1.2573895256506674e+01 -1.4473329040119561e+01 32 47 49
2122 708 1 -8.1999999999999995e-01 -3.6675923389748899e+00 -1.1110477475839790e+01 -1.4386844314927554e+01 32 55 53
646 216 1 -8.1999999999999995e-01 -5.9561007989464478e+00 -1.4626767689691949e+01 -7.7033125642749090e+00 33 51 50
286 96 1 -8.1999999999999995e-01 -7.1698253511217303e+00 -9.8528564524414968e+00 -1.0368241743394801e+01 36 54 58
265 89 1 -8.1999999999999995e-01 -4.7858151623453367e+00 -5.0949478888288322e+00 -9.9269040998119404e+00 32 52 55
888 296 2 4.0999999999999998e-01 -7.1560053528262966e+00 -1.2480481880300696e+01 -1.3246687927725985e+01 34 58 50
648 216 2 4.0999999999999998e-01 -6.8792392271345495e+00 -1.4502662123824534e+01 -8.0671362060514973e+00 33 51 50
104 35 2 4.0999999999999998e-01 -1.3849508772370029e+00 -1.0826455562246906e+01 -8.1698392416835333e+00 36 47 51
1404 468 2 4.0999999999999998e-01 -7.1517848527521251e+00 -1.4525889066343025e+01 -1.4494098686947012e+01 29 54 56
287 96 2 4.0999999999999998e-01 -6.6559914521521932e+00 -1.0624089536651937e+01 -1.0743912650372918e+01 36 54 58
2396 799 2 4.0999999999999998e-01 -7.0710442385396561e+00 -6.8690486681401142e+00 -1.1394014521509320e+01 36 56 46
1895 632 2 4.0999999999999998e-01 -3.8881639071059553e+00 -1.2820440850537157e+01 -1.4438076127543656e+01 38 53 60
1894 632 1 -8.1999999999999995e-01 -3.7988952767394260e+00 -1.3796226781919282e+01 -1.4637643971093235e+01 38 53 60
438 146 2 4.0999999999999998e-01 -6.3730748352873832e+00 -1.0481823362238643e+01 -8.5176522635360588e+00 33 59 51
368 123 2 4.0999999999999998e-01 -8.3176725439464860e-01 -5.4847580669932814e+00 -1.0965136058294160e+01 37 55 46
39 13 2 4.0999999999999998e-01 -3.8499176886499811e+00 -7.1240515442429544e+00 -1.4117955018212021e+01 30 47 53
37 13 1 -8.1999999999999995e-01 -4.7716159516761998e+00 -6.8380064075657900e+00 -1.3856029685350912e+01 30 47 53
2459 820 2 4.0999999999999998e-01 -1.0210820264723406e+00 -9.0885877027405684e+00 -1.3150772588018606e+01 33 59 52
2123 708 2 4.0999999999999998e-01 -4.0273564894752081e+00 -1.0455118065435290e+01 -1.3722744772760890e+01 32 55 53
1419 473 2 4.0999999999999998e-01 -6.9584203110826950e+00 -1.4141858197655415e+01 -1.2366405078175926e+01 34 53 60
158 53 2 4.0999999999999998e-01 -2.7272299801082944e+00 -9.8549992575555656e+00 -9.6858938633287792e+00 27 53 52
2137 713 1 -8.1999999999999995e-01 -4.6836705099353768e+00 -9.3251087018842327e+00 -1.2185809363802829e+01 33 59 45
2139 713 2 4.0999999999999998e-01 -4.8679106175464515e+00 -8.4381015256809562e+00 -1.2609162924758941e+01 33 59 45
1919 640 2 4.0999999999999998e-01 -3.2171228365545215e+00 -5.8070361306331844e+00 -1.0230906073358220e+01 32 54 56
2224 742 1 -8.1999999999999995e-01 -7.1527193939381135e+00 -7.1000804009579905e+00 -7.9174576270512640e+00 27 54 55
437 146 2 4.0999999999999998e-01 -4.9548291885404687e+00 -1.1249647315175153e+01 -8.2616629798185173e+00 33 59 51
105 35 2 4.0999999999999998e-01 -2.4816370577310387e+00 -1.1887015532601275e+01 -8.7520735601670925e+00 36 47 51
1932 644 2 4.0999999999999998e-01 -1.8167977094048666e+00 -7.1050536365571970e+00 -8.4619457790332415e+00 42 48 48
2225 742 2 4.0999999999999998e-01 -6.8541869815886534e+00 -6.9199167587068899e+00 -8.8546736391842575e+00 27 54 55
2460 820 2 4.0999999999999998e-01 -1.0578771538421243e+00 -1.0592331297775086e+01 -1.3786308701394562e+01 33 59 52
436 146 1 -8.1999999999999995e-01 -5.4577281238475646e+00 -1.0396325632013006e+01 -8.1242251202067148e+00 33 59 51
103 35 1 -8.1999999999999995e-01 -1.8244060767818571e+00 -1.1174568241019305e+01 -8.9978797457333499e+00 36 47 51
1918 640 1 -8.1999999999999995e-01 -2.4162543735102791e+00 -6.3550920096967900e+00 -1.0472150458891081e+01 32 54 56
556 186 1 -8.1999999999999995e-01 -4.3501394001128197e+00 -1.2730162800724543e+01 -8.9073362157572316e+00 31 55 55
38 13 2 4.0999999999999998e-01 -4.7372956643955639e+00 -5.9165882921649064e+00 -1.3469034641237673e+01 30 47 53
557 186 2 4.0999999999999998e-01 -3.8417812123551869e+00 -1.3115140292768766e+01 -9.6776080587147177e+00 31 55 55
616 206 1 -8.1999999999999995e-01 -1.8564547655278769e+00 -6.1301894574083207e+00 -1.3752450341107641e+01 28 56 50
2244 748 2 4.0999999999999998e-01 -5.4055879038001002e+00 -1.1576862919187482e+01 -1.2516372632244643e+01 32 52 53
2395 799 1 -8.1999999999999995e-01 -6.5328865915159913e+00 -7.1280280729140131e+00 -1.0591973131025949e+01 36 56 46
2242 748 1 -8.1999999999999995e-01 -5.6752161994980703e+00 -1.2454420714240610e+01 -1.2119954556438298e+01 32 52 53
288 96 2 4.0999999999999998e-01 -6.7007956382526643e+00 -8.9987587447352375e+00 -1.0592925119824816e+01 36 54 58
618 206 2 4.0999999999999998e-01 -9.4442240895747531e-01 -6.5121679887267501e+00 -1.3603306902764585e+01 28 56 50
319 107 1 -8.1999999999999995e-01 -3.1694660193852648e+00 -1.3242260705985412e+01 -1.1279882131566875e+01 34 56 54
2458 820 1 -8.1999999999999995e-01 -1.5267738811072640e+00 -9.7098801526961083e+00 -1.3749292276117902e+01 33 59 52
558 186 2 4.0999999999999998e-01 -5.0622581743497417e+00 -1.3372324434185131e+01 -8.6236644266711888e+00 31 55 55
621 207 2 4.0999999999999998e-01 -1.1172658590733402e+00 -1.1343100051441045e+01 -1.0617243523414000e+01 35 49 57
617 206 2 4.0999999999999998e-01 -1.8520141190742674e+00 -5.1571055376655401e+00 -1.3522141104988409e+01 28 56 50
320 107 2 4.0999999999999998e-01 -2.3605847189016007e+00 -1.2664544576670165e+01 -1.1389012761372729e+01 34 56 54
159 53 2 4.0999999999999998e-01 -3.2424243202634564e+00 -8.4370050291858689e+00 -9.0610962849832042e+00 27 53 52
321 107 2 4.0999999999999998e-01 -2.8912492911168979e+00 -1.4202118167699208e+01 -1.1244903791238247e+01 34 56 54
2243 748 2 4.0999999999999998e-01 -4.8572949321368348e+00 -1.2983856190701774e+01 -1.1894882823869075e+01 32 52 53
157 53 1 -8.1999999999999995e-01 -3.0648413531962859e+00 -8.9400489484858952e+00 -9.9068891040394256e+00 27 53 52
619 207 1 -8.1999999999999995e-01 -8.3756543564735608e-01 -1.1748530890164993e+01 -1.1487500901257569e+01 35 49 57
2138 713 2 4.0999999999999998e-01 -4.3056298063516607e+00 -9.1855401804651962e+00 -1.1270626190685135e+01 33 59 45
2397 799 2 4.0999999999999998e-01 -5.7468851935628980e+00 -6.5158298686445963e+00 -1.0506127065422110e+01 36 56 46
1920 640 2 4.0999999999999998e-01 -2.6872411818447421e+00 -7.3115334638922542e+00 -1.0580503063249679e+01 32 54 56
1930 644 1 -8.1999999999999995e-01 -2.4345762814772947e+00 -7.1293094213445904e+00 -7.6759968747047864e+00 42 48 48
2324 775 2 4.0999999999999998e-01 -3.1979067386771831e-01 -1.2902286210950031e+01 -1.4438324627447917e+01 38 56 53
2124 708 2 4.0999999999999998e-01 -2.7814353432158274e+00 -1.0791780776933368e+01 -1.4723166460350621e+01 32 55 53
1896 632 2 4.0999999999999998e-01 -2.8327541719208842e+00 -1.4025078607861314e+01 -1.4756608706519360e+01 38 53 60
2069 690 2 4.0999999999999998e-01 -6.1985540287029011e+00 -7.8372783684515515e+00 -1.4724770433780128e+01 31 56 53
248 83 2 4.0999999999999998e-01 -1.3081904264816966e+01 -1.1375881793982710e+01 -1.7670001611289692e+00 36 52 49
1944 648 2 4.0999999999999998e-01 -1.3375484331943618e+01 -8.6954009185171515e+00 -6.8279852109707759e+00 32 51 54
1278 426 2 4.0999999999999998e-01 -1.3257925515546837e+01 -1.0800770112900386e+01 -5.6491353774058339e+00 31 55 50
1276 426 1 -8.1999999999999995e-01 -1.4096569195019645e+01 -1.1148990522959174e+01 -5.2303589348542605e+00 31 55 50
1427 476 2 4.0999999999999998e-01 -1.3814594024733458e+01 -5.1796858969093726e+00 -6.2524801488397053e-01 34 51 48
1719 573 2 4.0999999999999998e-01 -1.1906126568944600e+01 -9.3866567258566036e+00 -2.6908420006471889e+00 38 52 56
48 16 2 4.0999999999999998e-01 -9.2377957073901467e+00 -9.8027107635779327e+00 -5.5484865934960919e+00 37 53 56
940 314 1 -8.1999999999999995e-01 -1.2693270169652461e+01 -6.8117224136295409e+00 -8.0996366767216799e-01 32 56 49
249 83 2 4.0999999999999998e-01 -1.3848821671647677e+01 -1.1926292452205589e+01 -3.0994380174288416e+00 36 52 49
1717 573 1 -8.1999999999999995e-01 -1.2870023205665561e+01 -9.1227250906343436e+00 -2.7254507486945503e+00 38 52 56
46 16 1 -8.1999999999999995e-01 -9.1035254875462783e+00 -8.9581395462965610e+00 -5.0301957962381803e+00 37 53 56
941 314 2 4.0999999999999998e-01 -1.3230048682796406e+01 -7.5282136220237028e+00 -3.6447117475134760e-01 32 56 49
1412 471 2 4.0999999999999998e-01 -9.1085419648220451e+00 -1.2486396166413531e+01 -5.5226450685842661e+00 31 55 52
1718 573 2 4.0999999999999998e-01 -1.3308470869406481e+01 -9.5638247895440127e+00 -3.5084891146025718e+00 38 52 56
1849 617 1 -8.1999999999999995e-01 -8.5059646220909482e+00 -5.9963806417278320e+00 -2.7932184084584719e+00 30 54 55
1851 617 2 4.0999999999999998e-01 -8.7241422006119578e+00 -6.4000888240901972e+00 -3.6816848541312606e+00 30 54 55
1850 617 2 4.0999999999999998e-01 -9.3382780953657729e+00 -5.6235236551245933e+00 -2.3831131491034760e+00 30 54 55
246 82 2 4.0999999999999998e-01 -1.4420300785800720e+01 -1.2783004200564797e+01 -6.0523554032603162e+00 34 51 47
1195 399 1 -8.1999999999999995e-01 -1.0193831174886792e+01 -9.4428836650236203e+00 -2.3986382223079925e+00 34 57 50
297 99 2 4.0999999999999998e-01 -1.3190101463891835e+01 -1.3755940503300019e+01 -1.2864124362171090e+00 35 58 56
1197 399 2 4.0999999999999998e-01 -9.5152691717494609e+00 -1.0105897159120499e+01 -2.0825352239872537e+00 34 57 50
1411 471 1 -8.1999999999999995e-01 -8.4276399658481509e+00 -1.2286446040229578e+01 -4.8181262226715020e+00 31 55 52
1413 471 2 4.0999999999999998e-01 -8.8218600513334646e+00 -1.2458119730698662e+01 -3.9153122589003093e+00 31 55 52
1196 399 2 4.0999999999999998e-01 -9.9182695782976236e+00 -9.0831537432752327e+00 -3.2900497890420670e+00 34 57 50
1443 481 2 4.0999999999999998e-01 -8.0249104850677746e+00 -6.7951717015362263e+00 -1.0442006208848618e+00 33 48 57
1360 454 1 -8.1999999999999995e-01 -1.1778406593713392e+01 -9.7748761866240255e+00 -6.4860064608782597e+00 35 54 56
1361 454 2 4.0999999999999998e-01 -1.1424907778101552e+01 -8.9211515439843883e+00 -6.8682985358802062e+00 35 54 56
942 314 2 4.0999999999999998e-01 -1.2574913854058536e+01 -7.0365605869614507e+00 -1.7771213387638625e+00 32 56 49
1388 463 2 4.0999999999999998e-01 -9.2408392500547585e+00 -7.7699163714463380e+00 -7.3747550776546937e+00 37 55 51
47 16 2 4.0999999999999998e-01 -8.1335051305220656e+00 -8.8517368999964390e+00 -4.8118076381299684e+00 37 53 56
2557 853 1 -8.1999999999999995e-01 -1.0673323861498238e+01 -5.0374733336997171e+00 -1.8779369301913746e+00 29 50 53
1625 542 2 4.0999999999999998e-01 -1.4352499709300927e+01 -1.4669516608762271e+01 -2.8916119701702865e+00 34 51 55
1621 541 1 -8.1999999999999995e-01 -7.5249799514322548e+00 -1.1126235782836465e+01 -1.7479142294547234e+00 39 52 50
2559 853 2 4.0999999999999998e-01 -1.1436633281928961e+01 -5.4887067720162612e+00 -1.4156583198050701e+00 29 50 53
244 82 1 -8.1999999999999995e-01 -1.4245070161709144e+01 -1.3699985787491656e+01 -6.4106756468821828e+00 34 51 47
1942 648 1 -8.1999999999999995e-01 -1.3822213083328112e+01 -7.8228447057166353e+00 -6.6304162998262317e+00 32 51 54
295 99 1 -8.1999999999999995e-01 -1.3251214056938046e+01 -1.4724753233274518e+01 -1.0463675729775570e+00 35 58 56
1441 481 1 -8.1999999999999995e-01 -7.5058253262173560e+00 -7.0719681939756365e+00 -2.3556678096135997e-01 33 48 57
2227 743 1 -8.1999999999999995e-01 -1.0473478896911185e+01 -1.3050707992933493e+01 -2.4687073799463555e+00 29 49 54
2228 743 2 4.0999999999999998e-01 -1.1176980250835856e+01 -1.2625168939418817e+01 -1.8995354046199981e+00 29 49 54
2046 682 2 4.0999999999999998e-01 -1.1100156646774192e+01 -5.5111482856791874e+00 -5.4210549615431418e+00 35 54 55
2044 682 1 -8.1999999999999995e-01 -1.1865156419116106e+01 -5.9978176354283317e+00 -5.8428163558638655e+00 35 54 55
1943 648 2 4.0999999999999998e-01 -1.3156197438678813e+01 -7.1888662957822493e+00 -6.2374163525451731e+00 32 51 54
1389 463 2 4.0999999999999998e-01 -1.0574188600355573e+01 -7.0443486528832491e+00 -6.7728947686935346e+00 37 55 51
2229 743 2 4.0999999999999998e-01 -9.7072783779559764e+00 -1.3336817033584349e+01 -1.8933529142455043e+00 29 49 54
1253 418 2 4.0999999999999998e-01 -8.0352803021915129e+00 -6.2894770490066350e+00 -6.5119936680216313e+00 33 54 50
1252 418 1 -8.1999999999999995e-01 -8.1295850079192817e+00 -5.8343036238370942e+00 -5.6266247225067101e+00 33 54 50
2293 765 1 -8.1999999999999995e-01 -9.8996045334427727e+00 -1.1904962581725373e+01 -7.1008313601711146e+00 35 52 50
247 83 1 -8.1999999999999995e-01 -1.3781092151491965e+01 -1.2005873799783254e+01 -2.1049361791275008e+00 36 52 49
1624 542 1 -8.1999999999999995e-01 -1.4753530309538819e+01 -1.4755796364377190e+01 -3.8035794312262592e+00 34 51 55
2045 682 2 4.0999999999999998e-01 -1.2284827658010549e+01 -5.4178893013975173e+00 -6.5410380910756700e+00 35 54 55
1362 454 2 4.0999999999999998e-01 -1.1042614896232026e+01 -1.0450682403237185e+01 -6.4429841308972655e+00 35 54 56
1070 357 2 4.0999999999999998e-01 -1.4189286685837121e+01 -9.0580828288231352e+00 -2.7144764165016966e-01 37 54 49
245 82 2 4.0999999999999998e-01 -1.4033945051927077e+01 -1.4318773315780676e+01 -5.6540498653010900e+00 34 51 47
22 8 1 -8.1999999999999995e-01 -1.4747195168721676e+01 -5.3142946167986906e+00 -3.8037459456626319e+00 34 52 54
1592 531 2 4.0999999999999998e-01 -1.1492909972442211e+01 -1.4723952070587385e+01 -3.5087181789748207e+00 35 49 52
758 253 2 4.0999999999999998e-01 -4.2881669866500864e+00 -1.4529265196166270e+01 -5.0339768839505261e-01 37 51 49
1214 405 2 4.0999999999999998e-01 -2.5560881624319531e+00 -6.7266449348716009e+00 -3.4026726843746573e+00 34 55 51
825 275 2 4.0999999999999998e-01 -6.8511555790734571e+00 -5.1440130463670055e+00 -2.2181905138513187e+00 33 53 49
1215 405 2 4.0999999999999998e-01 -2.8469470095363114e+00 -5.1561188717667115e+00 -3.0630348411795989e+00 34 55 51
728 243 2 4.0999999999999998e-01 -3.5068214648770688e+00 -5.2202560944543066e+00 -5.4001072990452315e+00 36 55 52
125 42 2 4.0999999999999998e-01 -6.8480276011371011e+00 -1.3066033006361973e+01 -5.0190003646748416e+00 32 53 54
2021 674 2 4.0999999999999998e-01 -2.7929363139247165e-01 -7.1262646733562569e+00 -3.6949205527092115e+00 34 52 51
1623 541 2 4.0999999999999998e-01 -7.0216184173280620e+00 -1.1393128430220816e+01 -9.2611750204801169e-01 39 52 50
1931 644 2 4.0999999999999998e-01 -2.4699767317274492e+00 -6.2244446173523738e+00 -7.2518260510034658e+00 42 48 48
1766 589 2 4.0999999999999998e-01 -3.6229553515270450e+00 -1.2579199498556211e+01 -7.1726024020499022e+00 31 59 53
1258 420 1 -8.1999999999999995e-01 -5.6641868651544272e+00 -6.4385746336476064e+00 -4.6637138003993268e+00 36 56 47
373 125 1 -8.1999999999999995e-01 -1.7924307460949258e+00 -8.7663456346560444e+00 -5.3268359252458684e+00 31 58 53
1102 368 1 -8.1999999999999995e-01 -6.7177031875979001e+00 -8.7297778446173719e+00 -3.9087284798696551e+00 32 58 44
1767 589 2 4.0999999999999998e-01 -2.6841430247863958e+00 -1.3129056901392467e+01 -5.9549024726878894e+00 31 59 53
1260 420 2 4.0999999999999998e-01 -4.7916820436483540e+00 -6.1846729060034313e+00 -4.2463127320615968e+00 36 56 47
2162 721 2 4.0999999999999998e-01 -1.1497375843849422e+00 -1.1484768063189740e+01 -6.4055615264706063e+00 30 51 50
2194 732 1 -8.1999999999999995e-01 -4.9685049916410904e+00 -8.0782238995275790e+00 -6.6757984978277314e+00 34 54 60
1785 595 2 4.0999999999999998e-01 -5.3207118972002121e-01 -1.0156486251150810e+01 -2.8453956309801853e-01 41 53 50
1348 450 1 -8.1999999999999995e-01 -5.2815928927897300e+00 -1.1489783918479509e+01 -3.2551594989286254e+00 36 55 59
647 216 2 4.0999999999999998e-01 -5.9737660420734926e+00 -1.4527275183164056e+01 -6.7084539948523396e+00 33 51 50
1622 541 2 4.0999999999999998e-01 -6.9361501505140710e+00 -1.0568747980829972e+01 -2.3330989798674953e+00 39 52 50
1342 448 1 -8.1999999999999995e-01 -6.3284779582057205e+00 -1.0668301840311280e+01 -5.6104312733854140e+00 33 46 50
1344 448 2 4.0999999999999998e-01 -6.1155438069148556e+00 -1.0445820882831967e+01 -6.5618069360074340e+00 33 46 50
1343 448 2 4.0999999999999998e-01 -6.9839996686052563e+00 -1.1422960188737363e+01 -5.5832937618000571e+00 33 46 50
13 5 1 -8.1999999999999995e-01 -7.9082281592129533e-01 -1.3268333384961746e+01 -3.5006069044459558e+00 34 53 51
757 253 1 -8.1999999999999995e-01 -5.2474463703576379e+00 -1.4485569987360210e+01 -2.2442066905687597e-01 37 51 49
1350 450 2 4.0999999999999998e-01 -5.1008285073706450e+00 -1.2470911924942204e+01 -3.3234709431731311e+00 36 55 59
375 125 2 4.0999999999999998e-01 -1.2232035068056284e+00 -9.4509304377637307e+00 -5.7821143203956833e+00 31 58 53
1213 405 1 -8.1999999999999995e-01 -3.1660441510086788e+00 -5.9533134369580978e+00 -3.5754918900016524e+00 34 55 51
1923 641 2 4.0999999999999998e-01 -1.5494760909702752e+00 -8.4614467950217307e+00 -1.8970334671950724e+00 33 52 54
1349 450 2 4.0999999999999998e-01 -5.6968519300066998e+00 -1.1167357975112715e+01 -4.1057803510140118e+00 36 55 59
1259 420 2 4.0999999999999998e-01 -5.4948510582597816e+00 -6.9865752774016627e+00 -5.4828444876596514e+00 36 56 47
1784 595 2 4.0999999999999998e-01 -1.5821986310505771e+00 -1.0328983989257251e+01 -1.5230797297255076e+00 41 53 50
631 211 1 -8.1999999999999995e-01 -2.4097744176122831e+00 -1.1003269713444800e+01 -3.1550755258603527e+00 32 50 50
633 211 2 4.0999999999999998e-01 -2.6278787324785089e+00 -1.0538099797745842e+01 -4.0129810200148768e+00 32 50 50
632 211 2 4.0999999999999998e-01 -3.1920202391310841e+00 -1.1555722221180126e+01 -2.8672525217508813e+00 32 50 50
1104 368 2 4.0999999999999998e-01 -6.1144867523293023e+00 -9.4874071074832074e+00 -4.1578915203347702e+00 32 58 44
14 5 2 4.0999999999999998e-01 -1.0655701257918100e+00 -1.2315243358798558e+01 -3.3737695687144473e+00 34 53 51
481 161 1 -8.1999999999999995e-01 -3.2983011550874313e+00 -1.4596400980082054e+01 -4.8885807446805352e+00 37 54 46
1921 641 1 -8.1999999999999995e-01 -1.3955971189505867e+00 -7.9629298816151799e+00 -2.7501199535750871e+00 33 52 54
15 5 2 4.0999999999999998e-01 -1.6054075288827718e+00 -1.3839232324131364e+01 -3.6029813859832682e+00 34 53 51
1783 595 1 -8.1999999999999995e-01 -1.3423910217105668e+00 -9.7728031660657830e+00 -7.2739788611156442e-01 41 53 50
483 161 2 4.0999999999999998e-01 -4.2932471630429117e+00 -1.4533837331378109e+01 -4.9668279101347110e+00 37 54 46
1765 589 1 -8.1999999999999995e-01 -2.8294529406345106e+00 -1.2377592157243742e+01 -6.5984397060329432e+00 31 59 53
2161 721 1 -8.1999999999999995e-01 -5.0562927891830434e-01 -1.0729783306583101e+01 -6.5283495278191470e+00 30 51 50
1254 418 2 4.0999999999999998e-01 -7.2482056715991421e+00 -5.8382210435231627e+00 -5.1542800089213490e+00 33 54 50
374 125 2 4.0999999999999998e-01 -1.9810901984797997e+00 -8.0154615813536925e+00 -5.9597143797254670e+00 31 58 53
124 42 1 -8.1999999999999995e-01 -6.0883610651014060e+00 -1.3714831167005174e+01 -5.0628418384214431e+00 32 53 54
1922 641 2 4.0999999999999998e-01 -1.4176542414235680e+00 -8.6024764457491010e+00 -3.5185261419163218e+00 33 52 54
1103 368 2 4.0999999999999998e-01 -6.2898870977966173e+00 -7.8639429021852081e+00 -4.1680692911337314e+00 32 58 44
2195 732 2 4.0999999999999998e-01 -5.3523553328428477e+00 -8.9210299717396317e+00 -7.0530135962916303e+00 34 54 60
2196 732 2 4.0999999999999998e-01 -3.9931415459472550e+00 -8.0306218719688438e+00 -6.8910996408403404e+00 34 54 60
195 65 2 4.0999999999999998e-01 -1.8795261054336265e-01 -1.4380976218043235e+01 -2.0113424332239074e+00 36 58 51
259 87 1 -8.1999999999999995e-01 -2.7186196545236729e+00 -1.3108952277483549e+01 -4.9872961532021876e-01 36 52 52
126 42 2 4.0999999999999998e-01 -6.0810205408364304e+00 -1.4275884151185789e+01 -4.2351220506138709e+00 32 53 54
261 87 2 4.0999999999999998e-01 -1.7348538551416652e+00 -1.3176800421229542e+01 -6.6472918486507915e-01 36 52 52
759 253 2 4.0999999999999998e-01 -5.8238663791686598e+00 -1.4358683691120939e+01 -1.0316345343798918e+00 37 51 49
1442 481 2 4.0999999999999998e-01 -7.2772125019361145e+00 -8.0431526903769601e+00 -3.0258345618843308e-01 33 48 57
1910 637 2 4.0999999999999998e-01 -7.0921756580083617e-01 -7.8054493297412000e+00 -1.4389869949971157e-02 33 53 52
2226 742 2 4.0999999999999998e-01 -6.3526885726793374e+00 -7.2357215886184312e+00 -7.3330720168010552e+00 27 54 55
1180 394 1 -8.1999999999999995e-01 -9.9015336023628340e+00 -8.8700180449082211e+00 1.4430790479053162e+00 40 58 54
2435 812 2 4.0999999999999998e-01 -1.0761530640308873e+01 -1.1364248440439916e+01 4.6440336098231842e+00 31 53 46
1181 394 2 4.0999999999999998e-01 -9.8488985288920148e+00 -8.2787032910872576e+00 6.3838607108789525e-01 40 58 54
2547 849 2 4.0999999999999998e-01 -8.7432240596905118e+00 -9.6815690390040920e+00 2.3173356310689766e+00 37 55 54
637 213 1 -8.1999999999999995e-01 -9.8277122574270539e+00 -6.3941467148335285e+00 4.4140002525098776e+00 33 59 54
2434 812 1 -8.1999999999999995e-01 -1.0376732197938066e+01 -1.0622027137226670e+01 5.1926610893977223e+00 31 53 46
2272 758 1 -8.1999999999999995e-01 -1.2276495079743675e+01 -7.8457008033251086e+00 4.8850332673660244e+00 37 53 52
2274 758 2 4.0999999999999998e-01 -1.2832955010973244e+01 -7.8210085504599887e+00 5.7155132580559158e+00 37 53 52
502 168 1 -8.1999999999999995e-01 -9.2517021093561489e+00 -5.7391742090411100e+00 1.7155389386537134e+00 29 59 51
2545 849 1 -8.1999999999999995e-01 -7.9262516248823038e+00 -1.0132295609714021e+01 2.6769965883290521e+00 37 55 54
2546 849 2 4.0999999999999998e-01 -7.5023927456493649e+00 -1.0679428631847351e+01 1.9552324397147114e+00 37 55 54
2273 758 2 4.0999999999999998e-01 -1.1464327233907071e+01 -7.2760679859606157e+00 5.0109547950200213e+00 37 53 52
896 299 2 4.0999999999999998e-01 -9.1711104844940472e+00 -1.3126929766747324e+01 3.2617465573342965e+00 35 55 55
1868 623 2 4.0999999999999998e-01 -7.4293024732768984e+00 -1.2882409049425721e+01 4.7479353332467813e+00 31 51 48
895 299 1 -8.1999999999999995e-01 -9.6816723528422557e+00 -1.3278874716236503e+01 2.4154642735562906e+00 35 55 55
638 213 2 4.0999999999999998e-01 -9.2218549290917800e+00 -5.9107251859926428e+00 5.0458189950965551e+00 33 59 54
207 69 2 4.0999999999999998e-01 -1.2933072783427477e+01 -8.9927824602281632e+00 3.5064851011134639e+00 34 54 50
504 168 2 4.0999999999999998e-01 -8.6925845183455070e+00 -6.3502010352025167e+00 1.1551925142506896e+00 29 59 51
2035 679 1 -8.1999999999999995e-01 -1.1830604409507252e+01 -1.1973091736614982e+01 3.4890697041686014e+00 37 50 52