LAMMPS data file via write_data, version 15 May 2015, timestep = 1009000

2593 atoms
6 atom types
1728 bonds
4 bond types
864 angles
3 angle types
0 dihedrals
3 dihedral types
0 impropers
1 improper types

-1.4897632037199775e+01 1.4897632037199775e+01 xlo xhi
-1.4897632037199775e+01 1.4897632037199775e+01 ylo yhi
-1.4897632037199775e+01 1.4897632037199775e+01 zlo zhi

Masses

1 15.9994
2 1.00794
3 12.0107
4 1.00794
5 12.0107
6 12.0107

Bond Coeffs # harmonic

1 1000 1
2 469 1.4
3 367 1.08
4 469 0.7

Angle Coeffs # harmonic

1 100 109.47
2 35 120
3 63 120

Dihedral Coeffs # opls

1 0 7.25 0 0
2 0 7.25 0 0
3 0 7.25 0 0

Improper Coeffs # cvff

1 2.5 -1 2

Atoms # full

1904 635 2 4.0999999999999998e-01 -8.8608271194218844e+00 -1.1657782150427478e+01 -1.0826767210256246e+01 1 2 2
1903 635 1 -8.1999999999999995e-01 -8.7925284604295193e+00 -1.1471345936011542e+01 -1.1806882758809012e+01 1 2 2
1905 635 2 4.0999999999999998e-01 -7.8821662295412001e+00 -1.1727190719210995e+01 -1.2132203607611995e+01 1 2 2
697 233 1 -8.1999999999999995e-01 -1.1599216096456436e+01 -9.8385107903300693e+00 -1.2547328626773655e+01 0 1 3
2404 802 1 -8.1999999999999995e-01 -1.2436653110838339e+01 -7.2904837452590829e+00 -1.3889668621413776e+01 3 0 3
2148 716 2 4.0999999999999998e-01 -9.2958113786116794e+00 -7.0683272346796633e+00 -9.9285602838169247e+00 4 2 2
91 31 1 -8.1999999999999995e-01 -8.3278314567489478e+00 -1.2840230330956448e+01 -9.3127816310791083e+00 1 0 3
2296 766 1 -8.1999999999999995e-01 -1.2331897311242274e+01 -5.5624640299736363e+00 -9.6168500080330013e+00 2 3 4
93 31 2 4.0999999999999998e-01 -9.1420271936241697e+00 -1.2555591053058063e+01 -8.8067031952581694e+00 1 0 3
92 31 2 4.0999999999999998e-01 -7.7632574838664627e+00 -1.3427538072814500e+01 -8.7328027477941426e+00 1 0 3
698 233 2 4.0999999999999998e-01 -1.0631239313262189e+01 -1.0089647851980907e+01 -1.2546442925934770e+01 0 1 3
996 332 2 4.0999999999999998e-01 -1.3086875051371528e+01 -1.2227404782162537e+01 -1.2030624651048482e+01 1 1 4
1748 583 2 4.0999999999999998e-01 -7.6791394478771293e+00 -1.0262149178050526e+01 -1.4807458792635575e+01 1 0 1
325 109 1 -8.1999999999999995e-01 -9.1592677468288475e+00 -8.1725804356861893e+00 -1.2846400700552497e+01 3 0 3
82 28 1 -8.1999999999999995e-01 -1.1692835911947983e+01 -1.3050480197067550e+01 -1.1362965177556244e+01 2 1 3
326 109 2 4.0999999999999998e-01 -9.3491721912324373e+00 -8.4199912369464371e+00 -1.3796544831040082e+01 3 0 3
83 28 2 4.0999999999999998e-01 -1.1546375473208721e+01 -1.3634028209300386e+01 -1.0564171881215580e+01 2 1 3
1747 583 1 -8.1999999999999995e-01 -6.7180484347336940e+00 -1.0440647014448995e+01 -1.4596526895071973e+01 1 0 1
327 109 2 4.0999999999999998e-01 -8.2937280723707438e+00 -8.5844369242255354e+00 -1.2561330569293338e+01 3 0 3
84 28 2 4.0999999999999998e-01 -1.0881464252306449e+01 -1.2486587931243371e+01 -1.1517079443927754e+01 2 1 3
699 233 2 4.0999999999999998e-01 -1.1704318894930406e+01 -8.9176586104499656e+00 -1.2922874009425907e+01 0 1 3
2458 820 1 -8.1999999999999995e-01 -1.2059985797541854e+01 -9.0988354167920154e+00 -9.5878442881364219e+00 2 3 1
2460 820 2 4.0999999999999998e-01 -1.1648098138318286e+01 -8.1891244180094063e+00 -9.6409868696711740e+00 2 3 1
870 290 2 4.0999999999999998e-01 -6.1694589372373425e+00 -9.4975242138812206e+00 -8.2003744545462958e+00 0 -1 3
614 205 2 4.0999999999999998e-01 -8.5375654438343354e+00 -6.3001632964468577e+00 -1.3249956035160679e+01 1 0 3
2459 820 2 4.0999999999999998e-01 -1.2073486782017429e+01 -9.5123205189839233e+00 -1.0498282342969876e+01 2 3 1
995 332 2 4.0999999999999998e-01 -1.4087867932815870e+01 -1.1281890704561999e+01 -1.2908562740697326e+01 1 1 4
2146 716 1 -8.1999999999999995e-01 -1.0182380347118613e+01 -7.1672046633304216e+00 -1.0380520871127878e+01 4 2 2
2343 781 2 4.0999999999999998e-01 -1.3556787457671462e+01 -1.4360603259402593e+01 -1.4489083106320427e+01 2 1 1
2147 716 2 4.0999999999999998e-01 -1.0041736398288915e+01 -7.3919971796514137e+00 -1.1344749720164518e+01 4 2 2
994 332 1 -8.1999999999999995e-01 -1.4043262673869576e+01 -1.1999701251806631e+01 -1.2213718846302784e+01 1 1 4
857 286 2 4.0999999999999998e-01 -1.3129657406616674e+01 -9.9134830510588365e+00 -8.4143884702527281e+00 0 3 2
2406 802 2 4.0999999999999998e-01 -1.3038404695965900e+01 -7.1503199201059582e+00 -1.3103348855037751e+01 3 0 3
680 227 2 4.0999999999999998e-01 -1.9859326790280107e-01 -5.2419224188324112e+00 -9.6323910256455658e+00 3 2 3
1920 640 2 4.0999999999999998e-01 -1.3924338094086412e+01 -1.4738720263237109e+01 -8.8636086872863551e+00 3 2 4
613 205 1 -8.1999999999999995e-01 -7.8471202468937920e+00 -5.6113356668263155e+00 -1.3028932063020685e+01 1 0 3
615 205 2 4.0999999999999998e-01 -7.0239852013055923e+00 -5.7783330668486617e+00 -1.3571712160015402e+01 1 0 3
987 329 2 4.0999999999999998e-01 -1.4128776205199586e+01 -5.9311677279489547e+00 -1.2116690538330309e+01 3 2 4
985 329 1 -8.1999999999999995e-01 -1.4041313905022145e+01 -6.5812792194902734e+00 -1.1361869380415936e+01 3 2 4
986 329 2 4.0999999999999998e-01 -1.3355123586784266e+01 -6.2498309151278946e+00 -1.0714308899706227e+01 3 2 4
2424 808 2 4.0999999999999998e-01 -6.2287155859375076e-01 -8.7641074638984513e+00 -7.9722298849334905e+00 4 2 4
1360 454 1 -8.1999999999999995e-01 -1.0116381518746387e-01 -1.1465422486661565e+01 -1.0249833712778756e+01 0 0 3
182 61 2 4.0999999999999998e-01 -9.9441259771019315e+00 -1.4464638568566317e+01 -1.4274140829563027e+01 1 1 2
2297 766 2 4.0999999999999998e-01 -1.1563809175783739e+01 -6.0652982217379776e+00 -1.0013395187405710e+01 2 3 4
1919 640 2 4.0999999999999998e-01 -1.2480891986512935e+01 -1.4191024622873865e+01 -8.3313947738561396e+00 3 2 4
1482 494 2 4.0999999999999998e-01 -6.7953816840949113e+00 -5.3185054930065281e+00 -1.1694133996546311e+01 0 0 5
1328 443 2 4.0999999999999998e-01 -1.4663220833190811e+01 -8.2274499878520260e+00 -1.0958898390057417e+01 1 1 2
1329 443 2 4.0999999999999998e-01 -1.4435113252678033e+01 -9.8007517786713834e+00 -1.0585471887920280e+01 1 1 2
2405 802 2 4.0999999999999998e-01 -1.2941978421976504e+01 -7.7537941448652656e+00 -1.4617706725130278e+01 3 0 3
1826 609 2 4.0999999999999998e-01 -1.1273345560398802e+00 -1.4791037367698973e+01 -1.0607933821832063e+01 0 1 1
730 244 1 -8.1999999999999995e-01 -7.7545582435308722e+00 -7.1479780706201925e+00 -9.1388331571890795e+00 1 0 2
731 244 2 4.0999999999999998e-01 -7.1421188704931922e+00 -6.3586180192799180e+00 -9.0954928011314031e+00 1 0 2
869 290 2 4.0999999999999998e-01 -7.1444827289397619e+00 -1.0728914933378046e+01 -8.6473246174785086e+00 0 -1 3
868 290 1 -8.1999999999999995e-01 -6.5719335782453570e+00 -9.9790724619700626e+00 -8.9789469371976267e+00 0 -1 3
856 286 1 -8.1999999999999995e-01 -1.3506368123401453e+01 -1.0396294148953977e+01 -7.6237987140236285e+00 0 3 2
732 244 2 4.0999999999999998e-01 -7.2469640409077591e+00 -7.9462821395860592e+00 -9.4630374344074575e+00 1 0 2
2204 735 2 4.0999999999999998e-01 -3.9640620379500930e+00 -9.9966157896377403e+00 -1.1737039748308757e+01 1 1 2
979 327 1 -8.1999999999999995e-01 -6.0240673565477572e+00 -6.1617443072318139e+00 -1.4752390044616767e+01 0 4 2
2028 676 2 4.0999999999999998e-01 -3.8988705337422047e-02 -8.8222312359823434e+00 -1.2014888865890843e+01 1 -1 0
261 87 2 4.0999999999999998e-01 -3.7925346051074964e+00 -6.0367469361991191e+00 -8.9273367922014017e+00 0 1 2
260 87 2 4.0999999999999998e-01 -3.6429893211603392e+00 -7.1641291968573553e+00 -7.7554134274664390e+00 0 1 2
234 78 2 4.0999999999999998e-01 -2.0833396238851840e+00 -8.5743456242859857e+00 -1.1482455801573781e+01 1 3 0
980 327 2 4.0999999999999998e-01 -5.5904549563146269e+00 -7.0626196197752416e+00 -1.4773687469441619e+01 0 4 2
681 227 2 4.0999999999999998e-01 -1.6955407398707827e+00 -5.5945363757428197e+00 -1.0181545481216526e+01 3 2 3
2422 808 1 -8.1999999999999995e-01 -1.4493417883065902e+00 -9.1932684429393703e+00 -8.3366712170404362e+00 4 2 4
142 48 1 -8.1999999999999995e-01 -2.7809221012652792e+00 -1.2296546699970103e+01 -9.4486690635679977e+00 1 0 3
1446 482 2 4.0999999999999998e-01 -6.1249531395141155e-01 -1.0750817312043996e+01 -1.3246031299821567e+01 1 1 2
232 78 1 -8.1999999999999995e-01 -1.2080258771268468e+00 -8.4180970466104945e+00 -1.1024785741050540e+01 1 3 0
727 243 1 -8.1999999999999995e-01 -4.8654672715589573e+00 -1.1022761586098918e+01 -1.0775399226653764e+01 1 1 1
728 243 2 4.0999999999999998e-01 -3.9988415644798554e+00 -1.1269414300588936e+01 -1.0341611264968339e+01 1 1 1
761 254 2 4.0999999999999998e-01 -1.1986806053006289e+01 -1.1536794023897679e+01 -8.1723701158498301e+00 2 3 2
1445 482 2 4.0999999999999998e-01 -1.3313005787496373e+00 -1.1900511061209176e+01 -1.4156131404859378e+01 1 1 2
143 48 2 4.0999999999999998e-01 -2.7331708248207374e+00 -1.2327936944582580e+01 -8.4502782909668852e+00 1 0 3
2423 808 2 4.0999999999999998e-01 -1.5143612434549318e+00 -9.0115117981484758e+00 -9.3178881513256062e+00 4 2 4
2205 735 2 4.0999999999999998e-01 -2.7090734115244910e+00 -1.0459007942554830e+01 -1.2674032799366955e+01 1 1 2
453 151 2 4.0999999999999998e-01 -3.9154932943004148e+00 -8.5685319064119163e+00 -1.3720817827058069e+01 1 -2 2
452 151 2 4.0999999999999998e-01 -5.1117851507472647e+00 -9.0846196136051596e+00 -1.4705347184682648e+01 1 -2 2
1749 583 2 4.0999999999999998e-01 -6.6567512139384775e+00 -1.1158613897555130e+01 -1.3903118000582580e+01 1 0 1
780 260 2 4.0999999999999998e-01 -5.6466463022292306e+00 -1.1917792681772385e+01 -1.2085387628139742e+01 1 2 2
1444 482 1 -8.1999999999999995e-01 -1.1823736587524696e+00 -1.1572262899724818e+01 -1.3223327249989284e+01 1 1 2
451 151 1 -8.1999999999999995e-01 -4.5573236179091392e+00 -8.2965435886978760e+00 -1.4437843507538910e+01 1 -2 2
1827 609 2 4.0999999999999998e-01 -4.0854733501073071e-01 -1.4807395954531492e+01 -9.1417018517946911e+00 0 1 1
729 243 2 4.0999999999999998e-01 -5.4468396099732583e+00 -1.0549715546941670e+01 -1.0113369508162915e+01 1 1 1
679 227 1 -8.1999999999999995e-01 -7.3674220731487594e-01 -5.8786939721660776e+00 -1.0184629545387676e+01 3 2 3
259 87 1 -8.1999999999999995e-01 -3.9384305291928410e+00 -6.9987348399595950e+00 -8.6963750886416911e+00 0 1 2
779 260 2 4.0999999999999998e-01 -6.2580654445340045e+00 -1.3320295937113961e+01 -1.2656273041962962e+01 1 2 2
778 260 1 -8.1999999999999995e-01 -6.3955822975141015e+00 -1.2331188142909628e+01 -1.2603314990813987e+01 1 2 2
144 48 2 4.0999999999999998e-01 -1.9168458764684768e+00 -1.1949085282327859e+01 -9.8129388957721169e+00 1 0 3
233 78 2 4.0999999999999998e-01 -1.0140540428402502e+00 -7.4373227592855642e+00 -1.1002282637391950e+01 1 3 0
2203 735 1 -8.1999999999999995e-01 -3.2610296319957168e+00 -9.6808402238101010e+00 -1.2374284540910297e+01 1 1 2
760 254 1 -8.1999999999999995e-01 -1.1470419596714281e+01 -1.2364494068973059e+01 -7.9525808170925307e+00 2 3 2
1714 572 1 -8.1999999999999995e-01 -1.4686312554952316e+01 -1.0285877586545713e+01 -1.4798655267309078e+01 2 1 3
1362 454 2 4.0999999999999998e-01 -1.1759264498364175e-02 -1.0670156075604211e+01 -1.0849506796245475e+01 0 0 3
825 275 2 4.0999999999999998e-01 -1.4757912795737353e+01 -8.2069444926461070e+00 -5.7867566900599190e+00 1 1 0
150 50 2 4.0999999999999998e-01 -1.1407989498159907e+01 -1.0915358562259968e+01 -4.8272891690619257e+00 1 1 1
148 50 1 -8.1999999999999995e-01 -1.1338981415068377e+01 -1.1876244011463537e+01 -5.0955925250443883e+00 1 1 1
605 202 2 4.0999999999999998e-01 -1.4041072793880595e+01 -1.0824946926070783e+01 -6.9472354350700094e-01 2 2 2
606 202 2 4.0999999999999998e-01 -1.3225834911660964e+01 -1.1600394686607387e+01 -1.8782888628908871e+00 2 2 2
762 254 2 4.0999999999999998e-01 -1.1412161363408261e+01 -1.2467174046785040e+01 -6.9595488559082614e+00 2 3 2
604 202 1 -8.1999999999999995e-01 -1.3555975438446538e+01 -1.0711085236042823e+01 -1.5617677854700069e+00 2 2 2
149 50 2 4.0999999999999998e-01 -1.0378113481547341e+01 -1.2153325325933277e+01 -5.0984950459576464e+00 1 1 1
895 299 1 -8.1999999999999995e-01 -1.1395470562731917e+01 -9.2868847356434365e+00 -3.9867722507112067e+00 1 2 4
477 159 2 4.0999999999999998e-01 -9.2389331049375443e+00 -1.4147880060144237e+01 -5.5952589657407419e+00 1 2 2
1173 391 2 4.0999999999999998e-01 -1.2283340704279178e+01 -7.6885874576867579e+00 -6.8888201858824551e+00 3 0 3
2229 743 2 4.0999999999999998e-01 -1.0085663090630250e+01 -7.2677220142298076e+00 -6.9611922367528365e+00 0 -2 1
896 299 2 4.0999999999999998e-01 -1.0768901416069347e+01 -8.5472097908935734e+00 -4.2324177902059112e+00 1 2 4
1534 512 1 -8.1999999999999995e-01 -1.3190294590336091e+01 -5.3842313625950879e+00 -4.2563826936370592e+00 2 0 2
1172 391 2 4.0999999999999998e-01 -1.2558728961206629e+01 -6.1594146165021879e+00 -7.3913643108522091e+00 3 0 3
1326 442 2 4.0999999999999998e-01 -7.0860243545762698e+00 -1.3842654022236529e+01 -2.7955985238384766e+00 2 0 5
1595 532 2 4.0999999999999998e-01 -1.2820400455950603e+01 -1.4447540786427824e+01 -4.5240532109188027e+00 1 3 2
2130 710 2 4.0999999999999998e-01 -1.4786811818782150e+01 -1.2522952887502592e+01 -5.8914788131566205e+00 1 2 2
1563 521 2 4.0999999999999998e-01 -7.6429396195642241e-01 -1.3244304527961742e+01 -6.6051582039911771e+00 0 -1 2
602 201 2 4.0999999999999998e-01 -1.2070823005389052e+01 -1.2769494607881702e+01 -4.0477885392902380e-01 1 4 3
192 64 2 4.0999999999999998e-01 -7.5374663537722659e+00 -1.0358057376595474e+01 -6.4271833760416897e+00 1 1 2
1535 512 2 4.0999999999999998e-01 -1.4108722608609533e+01 -5.6633483895961714e+00 -3.9759662841520864e+00 2 0 2
1324 442 1 -8.1999999999999995e-01 -7.7967325115453656e+00 -1.3330522117532317e+01 -2.3132454690469721e+00 2 0 5
390 130 2 4.0999999999999998e-01 -9.5398981335166528e+00 -7.0042166625606663e+00 -4.8073448563195527e+00 -1 1 2
190 64 1 -8.1999999999999995e-01 -7.7930206758122447e+00 -1.1230759670331855e+01 -6.8432751162172103e+00 1 1 2
2015 672 2 4.0999999999999998e-01 -9.9493082655955298e+00 -8.8894842572929225e+00 -1.5909454130452456e+00 1 2 2
897 299 2 4.0999999999999998e-01 -1.1562472169370608e+01 -9.2686754073167847e+00 -3.0009585958594140e+00 1 2 4
1012 338 1 -8.1999999999999995e-01 -1.1755656878423220e+01 -8.6537665991152437e+00 -1.3033596746806921e+00 2 3 3
1594 532 1 -8.1999999999999995e-01 -1.3790336652482335e+01 -1.4225875344465107e+01 -4.6247402635574097e+00 1 3 2
823 275 1 -8.1999999999999995e-01 -1.3801450471122921e+01 -8.4985565729585328e+00 -5.7729047397849715e+00 1 1 0
824 275 2 4.0999999999999998e-01 -1.3335331043512344e+01 -8.0758639894578970e+00 -4.9956574618690492e+00 1 1 0
388 130 1 -8.1999999999999995e-01 -9.3278295313521689e+00 -7.1131831057936541e+00 -3.8361585496765382e+00 -1 1 2
564 188 2 4.0999999999999998e-01 -1.2209194319151234e+01 -1.4001127121866704e+01 -1.7901636454175609e+00 3 0 3
2177 726 2 4.0999999999999998e-01 -9.4223798113966151e+00 -1.4361997160394363e+01 -1.5581306626317630e+00 0 1 2
1390 464 1 -8.1999999999999995e-01 -1.2154849006495008e+01 -5.8928709569812661e+00 -1.2720406251571426e+00 3 1 3
2227 743 1 -8.1999999999999995e-01 -9.2758637679622460e+00 -6.7150997234838830e+00 -6.7640036631651803e+00 0 -2 1
1488 496 2 4.0999999999999998e-01 -1.6646167328126751e+00 -1.0813437173711405e+01 -3.1984745917421620e-02 2 1 2
858 286 2 4.0999999999999998e-01 -1.3584897426304291e+01 -9.7637016910596941e+00 -6.8532731750224389e+00 0 3 2
1371 457 2 4.0999999999999998e-01 -8.1936657940318582e+00 -9.5286351372500633e+00 -3.5939214298827409e+00 3 -2 1
1013 338 2 4.0999999999999998e-01 -1.1947134875101707e+01 -7.6723436238858529e+00 -1.3173164670596673e+00 2 3 3
1014 338 2 4.0999999999999998e-01 -1.2609145524136686e+01 -9.1580529838938052e+00 -1.1718225146717831e+00 2 3 3
1171 391 1 -8.1999999999999995e-01 -1.1858036366850969e+01 -6.8061593295751859e+00 -7.0900325359361807e+00 3 0 3
106 36 1 -8.1999999999999995e-01 -3.8422497828132443e+00 -1.4129422814702886e+01 -6.0250053479548402e+00 3 4 5
1369 457 1 -8.1999999999999995e-01 -8.1861861696771339e+00 -1.0327871750578007e+01 -4.1949326882135693e+00 3 -2 1
191 64 2 4.0999999999999998e-01 -8.3850061973268897e+00 -1.1737994373902609e+01 -6.2169239512167653e+00 1 1 2
1392 464 2 4.0999999999999998e-01 -1.2018109052532525e+01 -5.6625037133051066e+00 -2.2355149357716328e+00 3 1 3
389 130 2 4.0999999999999998e-01 -8.8831560430482703e+00 -6.2841469528821108e+00 -3.4970211523947032e+00 -1 1 2
563 188 2 4.0999999999999998e-01 -1.3483966097212321e+01 -1.3930904459186623e+01 -2.8083898625447645e+00 3 0 3
695 232 2 4.0999999999999998e-01 -1.4684052823622691e+01 -1.3521289114379172e+01 -1.3709531438439431e+00 2 2 3
1408 470 1 -8.1999999999999995e-01 -7.1395218198442780e+00 -1.4274602608612696e+01 -7.4098394635365565e+00 1 1 3
1325 442 2 4.0999999999999998e-01 -8.0478386008911436e+00 -1.2523990589768648e+01 -2.8485045237085664e+00 2 0 5
2014 672 1 -8.1999999999999995e-01 -8.9879896014398355e+00 -8.6406999978931989e+00 -1.7093620635491416e+00 1 2 2
2016 672 2 4.0999999999999998e-01 -8.8929180051354226e+00 -8.0494341428339204e+00 -2.5102464346087281e+00 1 2 2
1536 512 2 4.0999999999999998e-01 -1.3149688584640751e+01 -5.3257455759887211e+00 -5.2538696613645168e+00 2 0 2
562 188 1 -8.1999999999999995e-01 -1.3030348786963698e+01 -1.3486087142307156e+01 -2.0361084484552094e+00 3 0 3
2174 725 2 4.0999999999999998e-01 -7.8821675640008033e+00 -1.2454334205487500e+01 -5.9981142019743494e-01 2 1 3
2110 704 1 -8.1999999999999995e-01 -5.8265833555157069e+00 -1.1756526596172518e+01 -4.2443317943701135e+00 1 3 1
874 292 1 -8.1999999999999995e-01 -6.2651628688691776e+00 -8.9488558449862445e+00 -6.3180896398608439e+00 0 2 1
2111 704 2 4.0999999999999998e-01 -5.2047356760597818e+00 -1.2035903656039626e+01 -4.9759762235792113e+00 1 3 1
476 159 2 4.0999999999999998e-01 -8.6407370213523009e+00 -1.3200451288908654e+01 -4.4072778639737056e+00 1 2 2
107 36 2 4.0999999999999998e-01 -3.3638724257609027e+00 -1.4727855914857946e+01 -6.6677203593959273e+00 3 4 5
992 331 2 4.0999999999999998e-01 -2.5156552627570896e+00 -9.2790524199801165e+00 -1.6346896309854113e+00 2 1 2
876 292 2 4.0999999999999998e-01 -6.9722692594056950e+00 -8.2474639016334681e+00 -6.2280920587735977e+00 0 2 1
1864 622 1 -8.1999999999999995e-01 -2.7733076894247173e+00 -1.0673586104378860e+01 -6.4990810389564118e+00 0 2 3
514 172 1 -8.1999999999999995e-01 -2.1005616651893000e+00 -6.4205009660175971e+00 -5.1963381756493519e+00 1 2 1
416 139 2 4.0999999999999998e-01 -4.1427347429649064e+00 -1.0594434207987716e+01 -1.3979509851197971e+00 2 2 3
646 216 1 -8.1999999999999995e-01 -4.0733090649319816e+00 -8.0331172880247799e+00 -1.9512581375466720e+00 2 1 4
278 93 2 4.0999999999999998e-01 -5.0240966437197621e+00 -1.4320024727098920e+01 -2.5918925587737718e-01 0 1 1
2112 704 2 4.0999999999999998e-01 -5.2993385966727438e+00 -1.1545425437593284e+01 -3.4212285497471395e+00 1 3 1
875 292 2 4.0999999999999998e-01 -5.4834209892895451e+00 -8.7098994103208351e+00 -5.7420435220442396e+00 0 2 1
475 159 1 -8.1999999999999995e-01 -8.9142420068798565e+00 -1.3229560030520062e+01 -5.3687337235464412e+00 1 2 2
2511 837 2 4.0999999999999998e-01 -5.8790201725026989e+00 -8.3319734420297156e+00 -8.9748047249542395e-01 3 1 4
269 90 2 4.0999999999999998e-01 -1.4708767094489726e+01 -9.4892864115197497e+00 -2.3563469058543518e+00 2 1 1
2577 859 2 4.0999999999999998e-01 -4.9775570121727597e+00 -1.2687200498083254e+01 -6.9563621859976745e+00 1 4 4
596 199 2 4.0999999999999998e-01 -2.2469205651063593e+00 -1.1867069338840286e+01 -5.3526151127994943e+00 1 0 2
2509 837 1 -8.1999999999999995e-01 -6.6231148267580426e+00 -8.4286465001599069e+00 -2.3640022566882912e-01 3 1 4
1082 361 2 4.0999999999999998e-01 -4.7487391971706039e-01 -7.4200045530659251e+00 -5.5994348423348672e+00 -1 1 3
1391 464 2 4.0999999999999998e-01 -1.3111988778725888e+01 -5.7406761478273722e+00 -1.0255252339238687e+00 3 1 3
1370 457 2 4.0999999999999998e-01 -7.3297725538385725e+00 -1.0829361935749279e+01 -4.0719978835935215e+00 3 -2 1
417 139 2 4.0999999999999998e-01 -4.8258271868359692e+00 -1.2073916603548453e+01 -1.2917648318978596e+00 2 2 3
1866 622 2 4.0999999999999998e-01 -2.3206512287887566e+00 -1.0097930127802689e+01 -7.1800891201279233e+00 0 2 3
595 199 1 -8.1999999999999995e-01 -1.7545148559491874e+00 -1.2726932529957951e+01 -5.2176277084543550e+00 1 0 2
597 199 2 4.0999999999999998e-01 -2.4102428168308219e+00 -1.3478064648765503e+01 -5.1410048319812311e+00 1 0 2
1149 383 2 4.0999999999999998e-01 -2.7572485190298117e+00 -5.6282180181720278e+00 -1.5667898527961928e+00 0 1 2
1865 622 2 4.0999999999999998e-01 -3.7040875996940130e+00 -1.0878769121110068e+01 -6.8017332425885204e+00 0 2 3
927 309 2 4.0999999999999998e-01 -3.9631471895580006e-01 -7.1843910959966024e+00 -8.6090577604988816e-01 1 0 3
516 172 2 4.0999999999999998e-01 -2.3869204627055005e+00 -6.0968035542647421e+00 -4.2945242721451322e+00 1 2 1
993 331 2 4.0999999999999998e-01 -9.2155032993945873e-01 -9.5700246981812604e+00 -1.8369853329806567e+00 2 1 2
2510 837 2 4.0999999999999998e-01 -7.4945791136143587e+00 -8.4936500380715252e+00 -7.2258351150894207e-01 3 1 4
515 172 2 4.0999999999999998e-01 -2.0059849694146816e+00 -5.6410767307887024e+00 -5.8156949306257388e+00 1 2 1
415 139 1 -8.1999999999999995e-01 -4.6728164805837853e+00 -1.1286142538648733e+01 -1.8884635765151856e+00 2 2 3
2575 859 1 -8.1999999999999995e-01 -5.1343139735059022e+00 -1.1722756668208309e+01 -7.1692589470495687e+00 1 4 4
647 216 2 4.0999999999999998e-01 -3.9422154466601178e+00 -7.0835523827372571e+00 -1.6663184522044752e+00 2 1 4
109 37 1 -8.1999999999999995e-01 -3.6952365692826632e+00 -8.7552986086045514e+00 -4.7909764166007598e+00 1 0 2
111 37 2 4.0999999999999998e-01 -3.0427972235686216e+00 -8.0086741197897737e+00 -4.6608824920503711e+00 1 0 2
2576 859 2 4.0999999999999998e-01 -6.1071523338574849e+00 -1.1513400761968743e+01 -7.0702372714370174e+00 1 4 4
991 331 1 -8.1999999999999995e-01 -1.7429367609737465e+00 -9.8377225501296373e+00 -1.3332871603309346e+00 2 1 2
110 37 2 4.0999999999999998e-01 -3.2655678558680670e+00 -9.4843776142584595e+00 -5.3237787109562618e+00 1 0 2
1147 383 1 -8.1999999999999995e-01 -2.8517230488334491e+00 -5.4827885007992876e+00 -2.5516626803614049e+00 0 1 2
648 216 2 4.0999999999999998e-01 -4.3546947334160269e+00 -8.0574397670553317e+00 -2.9105704935591294e+00 2 1 4
2176 726 1 -8.1999999999999995e-01 -1.0305716341396005e+01 -1.4640625614740378e+01 -1.1811261068186614e+00 0 1 2
1410 470 2 4.0999999999999998e-01 -7.5992756744514942e+00 -1.3656699813348188e+01 -6.7719741214345373e+00 1 1 3
2129 710 2 4.0999999999999998e-01 -1.4801372181061632e+01 -1.1330106662609262e+01 -7.0066760079199408e+00 1 2 2
108 36 2 4.0999999999999998e-01 -4.4696383799287283e+00 -1.4672922160773293e+01 -5.4672942413312562e+00 3 4 5
1406 469 2 4.0999999999999998e-01 -4.7282194983228152e+00 -5.4107246563485933e+00 -7.0249713262393598e-02 1 3 3
241 81 1 -8.1999999999999995e-01 -1.4794279830873508e+01 -5.2960833879234972e+00 -2.4145725362212822e-01 1 1 1
1758 586 2 4.0999999999999998e-01 -9.7426255414009617e+00 -5.0178202902991131e+00 -7.0589285062374074e+00 1 1 5
277 93 1 -8.1999999999999995e-01 -4.8040765043810882e+00 -1.3360572530168316e+01 -8.2859183191446917e-02 0 1 1
1209 403 2 4.0999999999999998e-01 -1.4803919216579784e+01 -5.4279296343128820e+00 -7.1948125661015991e+00 1 0 4
1561 521 1 -8.1999999999999995e-01 -3.6507754625829492e-01 -1.3851979688564759e+01 -7.2917489316058228e+00 0 -1 2
1943 648 2 4.0999999999999998e-01 -6.5148457089987328e+00 -5.1125321807123107e+00 -7.3419896826472693e+00 1 0 2
2228 743 2 4.0999999999999998e-01 -8.4861989379638416e+00 -7.0980003768160422e+00 -7.2434473106019679e+00 0 -2 1
983 328 2 4.0999999999999998e-01 -1.1160201607590370e+01 -1.0432044528393394e+01 4.0626731393040583e+00 2 0 2
982 328 1 -8.1999999999999995e-01 -1.1829257956525611e+01 -1.0128577519768477e+01 3.3842034872979863e+00 2 0 2
984 328 2 4.0999999999999998e-01 -1.1405785236674054e+01 -1.0121910385016285e+01 2.4782917339999688e+00 2 0 2
1130 377 2 4.0999999999999998e-01 -1.2231750340890601e+01 -9.4851734349046115e+00 7.1450480443490054e+00 3 4 2
917 306 2 4.0999999999999998e-01 -1.1435465515745541e+01 -7.2196192295683668e+00 3.4553692494551580e+00 2 2 2
200 67 2 4.0999999999999998e-01 -8.3113283930669084e+00 -1.3263528403314059e+01 6.2197394594661954e+00 -1 1 0
918 306 2 4.0999999999999998e-01 -1.2168972172911445e+01 -6.0823321218034199e+00 2.5414190486410053e+00 2 2 2
199 67 1 -8.1999999999999995e-01 -8.0930907706576249e+00 -1.2319968549769063e+01 6.4689718863514347e+00 -1 1 0
804 268 2 4.0999999999999998e-01 -1.4174594429229471e+01 -9.9044893753783505e+00 5.4222051797768795e+00 0 2 0
2533 845 1 -8.1999999999999995e-01 -1.0025629126595993e+01 -1.0939537799109521e+01 5.2828592425696268e+00 0 1 1
916 306 1 -8.1999999999999995e-01 -1.2275869892963087e+01 -6.6933182829553104e+00 3.3258414128551141e+00 2 2 2
120 40 2 4.0999999999999998e-01 -5.5451056683535942e+00 -1.4773235658139065e+01 6.4388800200415819e+00 1 2 2
2534 845 2 4.0999999999999998e-01 -1.0485545645076414e+01 -1.0273650741839168e+01 5.8703291650620510e+00 0 1 1
2535 845 2 4.0999999999999998e-01 -9.3741777846236900e+00 -1.1469331924508730e+01 5.8259789722568573e+00 0 1 1
2179 727 1 -8.1999999999999995e-01 -5.8232706476305651e-01 -7.3335514587854576e+00 4.9805839510613783e+00 -1 0 3
802 268 1 -8.1999999999999995e-01 -1.4041627035333837e+01 -9.4368705025837869e+00 4.5483047727431458e+00 0 2 0
1685 562 2 4.0999999999999998e-01 -9.2303651000416043e+00 -1.2394422169113183e+01 2.2313704999344903e+00 1 3 3
907 303 1 -8.1999999999999995e-01 -1.0561500735810107e+01 -8.7680266350620357e+00 7.0692915404475993e+00 1 -1 2
1684 562 1 -8.1999999999999995e-01 -8.8825770488351843e+00 -1.2810609438968505e+01 3.0715378990731654e+00 1 3 3
1686 562 2 4.0999999999999998e-01 -9.2560449003412355e+00 -1.2326332985109856e+01 3.8627696936167677e+00 1 3 3
2171 724 2 4.0999999999999998e-01 -2.6869447577553842e+00 -5.8106927768306935e+00 1.0458767399770341e+00 2 1 3
1655 552 2 4.0999999999999998e-01 -7.6570745845504220e+00 -1.4360999286777338e+01 1.0907895169084050e+00 1 4 1
2286 762 2 4.0999999999999998e-01 -5.6218326591378300e+00 -9.5982482967182357e+00 7.0188905773114936e+00 2 2 4
803 268 2 4.0999999999999998e-01 -1.3100056603882042e+01 -9.5700711194945676e+00 4.2388659005556359e+00 0 2 0
908 303 2 4.0999999999999998e-01 -1.0619681544148763e+01 -7.7902310761058429e+00 7.2707375441869164e+00 1 -1 2
1059 353 2 4.0999999999999998e-01 -1.0343090144444069e+01 -1.4320119102059307e+01 2.8657178892694635e+00 1 2 3
2224 742 1 -8.1999999999999995e-01 -1.4104350205376717e+01 -6.6760190575073679e+00 5.7079628789734134e+00 0 1 1
2386 796 1 -8.1999999999999995e-01 -1.0896397438423584e+01 -1.4440039346293188e+01 6.0192190886597796e+00 3 3 2
1464 488 2 4.0999999999999998e-01 -2.2847878279534299e+00 -9.4182316245453848e+00 2.0573800393897432e+00 2 1 2
2322 774 2 4.0999999999999998e-01 -1.3316871890273575e+01 -1.1034671486995935e+01 2.6879155081002235e+00 1 3 3
1463 488 2 4.0999999999999998e-01 -3.7907470902346585e+00 -8.8181626546293010e+00 1.8604972732275069e+00 2 1 2
826 276 1 -8.1999999999999995e-01 -1.4017031992390031e+01 -1.2748305742737939e+01 7.2429568338034098e+00 3 0 1
511 171 1 -8.1999999999999995e-01 -4.2116114323839504e-01 -1.4034350249069682e+01 7.0262501386694414e+00 1 0 2
1027 343 1 -8.1999999999999995e-01 -1.0094084817660267e+01 -9.4064665869343465e+00 1.5019917623575569e+00 2 2 1
1129 377 1 -8.1999999999999995e-01 -1.3077403051026764e+01 -1.0007973269517134e+01 7.2527582783743707e+00 3 4 2
601 201 1 -8.1999999999999995e-01 -1.1606708858698223e+01 -1.2423912934560816e+01 4.1083197514860359e-01 1 4 3
2181 727 2 4.0999999999999998e-01 -3.1040762600420813e-01 -6.5736848419662319e+00 5.5711025306965123e+00 -1 0 3
2320 774 1 -8.1999999999999995e-01 -1.3614091952092355e+01 -1.1499522981164731e+01 1.8538753563573902e+00 1 3 3
201 67 2 4.0999999999999998e-01 -7.2160019305405267e+00 -1.2296297323278939e+01 6.9487682050151935e+00 -1 1 0
118 40 1 -8.1999999999999995e-01 -4.6237725811868025e+00 -1.4595473528570244e+01 6.7847060307434131e+00 1 2 2
2256 752 2 4.0999999999999998e-01 -7.6978175079723288e+00 -1.0575899733842945e+01 5.0286411414708017e+00 3 0 0
1032 344 2 4.0999999999999998e-01 -9.5698177162029676e+00 -5.3093469671223659e+00 1.0941929629864067e+00 3 0 3
2387 796 2 4.0999999999999998e-01 -1.1800639306061633e+01 -1.4111195751875639e+01 6.2917226692148365e+00 3 3 2
2225 742 2 4.0999999999999998e-01 -1.4883131348722658e+01 -6.3714942455126256e+00 5.1594975241099217e+00 0 1 1
1557 519 2 4.0999999999999998e-01 -1.3011951714509239e+01 -5.5995111746415933e+00 6.8075268426503275e+00 1 1 2
556 186 1 -8.1999999999999995e-01 -1.0042321274289375e+01 -6.0561018268763203e+00 7.2038584652789925e+00 -1 0 2
1028 343 2 4.0999999999999998e-01 -9.3220286095353213e+00 -9.0130214533858570e+00 2.0011708802875514e+00 2 2 1
1811 604 2 4.0999999999999998e-01 -1.4615321284905795e+01 -1.2713414772303544e+01 1.7799271060286426e+00 2 1 1
369 123 2 4.0999999999999998e-01 -4.7384434183507871e+00 -5.0960079177482971e+00 4.1998238926116027e+00 2 1 0
1030 344 1 -8.1999999999999995e-01 -1.0538530380283401e+01 -5.0652316974361096e+00 1.0488809029602084e+00 3 0 3
2041 681 1 -8.1999999999999995e-01 -7.8627796102777889e+00 -5.3390453373650537e+00 1.6926371280457086e+00 2 3 3
1600 534 1 -8.1999999999999995e-01 -2.4026432414201775e+00 -5.0082180110746624e+00 2.6196254165542303e+00 1 1 3
2321 774 2 4.0999999999999998e-01 -1.2818881482749546e+01 -1.1884563923805109e+01 1.3854381243965381e+00 1 3 3
1029 343 2 4.0999999999999998e-01 -1.0309815468359105e+01 -8.8301958473215514e+00 7.1368853744275107e-01 2 2 1
459 153 2 4.0999999999999998e-01 -1.4098723484396418e+01 -6.9938469450964984e+00 2.9464978700942641e+00 0 0 2
1812 604 2 4.0999999999999998e-01 -1.4501132630115949e+01 -1.4288737827776373e+01 1.3651053208726847e+00 2 1 1
832 278 1 -8.1999999999999995e-01 -7.9301195238493243e+00 -7.0311096679297087e+00 5.5931541051824514e+00 0 2 3