2593
Atoms. Timestep: 18495000
O 8.94749 -2.00556 13.9846
H 8.40883 -1.22623 13.6644
H 9.81677 -2.03519 13.4912
O -4.209 -0.421835 6.39831
H -3.52877 -0.230613 5.69067
H -4.79877 0.376808 6.51824
O 1.63209 7.96163 -9.81807
H 1.92458 7.66077 -8.91035
H 2.01266 7.34914 -10.5109
O 5.6578 -8.82456 -8.80931
H 4.9013 -9.46966 -8.91697
H 6.51242 -9.26385 -9.08624
O -3.9945 -11.8133 -2.85014
H -4.60779 -12.5619 -2.59814
H -4.49343 -10.9474 -2.81465
O -4.81937 7.28152 1.74114
H -4.39641 6.74373 1.01182
H -5.40988 6.69095 2.2912
O 14.2739 -8.03232 9.70141
H 13.6302 -7.92659 8.94339
H 14.7109 -7.15341 9.89266
O -13.9834 -5.31394 -3.48461
H -13.0364 -5.21002 -3.18066
H -14.3635 -6.15889 -3.10825
O 9.47586 -10.665 -13.3885
H 9.69164 -10.6668 -12.4121
H 10.1875 -10.1692 -13.8862
O 0.0720142 1.68153 12.9172
H -0.566364 1.13582 12.3743
H 1.0063 1.36756 12.7482
O 3.77903 -4.70799 6.02311
H 4.03334 -4.13167 6.79978
H 4.19083 -5.61292 6.1306
O -4.61304 9.61038 -5.66747
H -3.98091 10.0213 -6.32441
H -4.35596 8.65704 -5.50905
O -4.58655 -6.31449 -13.6374
H -5.38185 -6.05605 -13.089
H -4.87609 -6.91701 -14.3811
O 8.0301 -10.747 9.36923
H 7.33724 -11.2322 8.83576
H 7.92977 -10.9803 10.3365
O 6.13845 11.4961 -4.88461
H 5.22247 11.448 -4.48625
H 6.66339 12.2142 -4.42756
O -7.78134 -11.5621 -1.78064
H -7.12826 -10.8702 -2.08849
H -8.16344 -12.0362 -2.57393
O -7.92395 10.8161 9.33563
H -8.03931 9.83573 9.17559
H -7.09956 11.1354 8.86823
O 6.18009 -12.1928 -1.5571
H 5.63722 -11.6724 -0.897946
H 5.66341 -12.9957 -1.85441
O 4.89199 -8.10398 -5.08051
H 4.38987 -8.17463 -4.21858
H 4.29597 -7.71406 -5.78248
O -12.9744 4.50061 -8.11095
H -13.2726 5.37654 -8.49023
H -12.2398 4.12535 -8.67634
O -12.8447 4.20792 11.4077
H -12.0727 4.73411 11.0511
H -12.5731 3.25209 11.5202
O -7.8443 7.24983 10.6201
H -6.92203 7.59289 10.7983
H -8.18555 6.77439 11.431
O -13.1462 -1.19152 12.5598
H -12.7637 -1.22176 13.4834
H -12.5079 -1.62042 11.9206
O 1.41493 -13.2957 4.86998
H 0.758183 -14.038 5.00298
H 1.8454 -13.3884 3.97212
O -14.546 2.72255 2.11211
H 14.4135 3.33556 2.48097
H -13.6726 3.20663 2.0584
O 1.88407 -4.30137 3.97344
H 1.83295 -3.32671 3.7556
H 2.08494 -4.41537 4.94642
O -13.3112 5.33523 -5.34824
H -12.5783 5.1966 -4.68221
H -13.0022 5.03594 -6.25102
O -9.71105 -3.75883 -7.26767
H -10.351 -4.17664 -6.62278
H -9.07994 -4.45522 -7.60941
O 7.40263 -7.82147 -12.3423
H 6.6189 -7.79631 -11.7217
H 7.57037 -8.76461 -12.6293
O -2.1487 6.40294 13.4189
H -2.29693 7.12783 12.7461
H -1.95929 5.54261 12.9456
O 1.08161 10.3405 5.46111
H 1.51343 9.82003 4.72443
H 1.6971 10.3772 6.24842
O -13.3534 8.70764 10.685
H -13.7502 8.04074 10.0543
H -13.7421 8.57606 11.597
O 1.30529 -12.0067 12.6228
H 1.16508 -12.1117 11.6383
H 1.65652 -12.8626 13.0026
O 7.30927 2.93838 -0.993142
H 6.45217 2.5001 -0.72237
H 7.96522 2.23968 -1.27875
O -0.785754 -9.45503 -9.22771
H -0.134382 -9.0059 -9.83929
H -0.407607 -9.48569 -8.30246
O 9.40239 -3.12305 -1.09368
H 9.53621 -2.94782 -2.06909
H 10.284 -3.0812 -0.623486
O 10.4437 -1.85798 6.33733
H 11.1946 -2.34485 6.78358
H 9.57163 -2.1827 6.70354
O 12.6214 7.59058 -12.5172
H 12.5587 6.60304 -12.6616
H 12.6258 7.7844 -11.5361
O 10.2036 1.61396 -14.1465
H 11.1854 1.50387 -13.9914
H 9.72264 0.795501 -13.8322
O -14.6022 -11.8852 7.47952
H 14.1164 -12.215 7.38792
H -14.2817 -11.5422 6.59653
O -5.26196 -8.28766 4.42408
H -5.33873 -8.37516 5.4173
H -4.32049 -8.05312 4.18191
O -7.80797 -14.604 -9.31626
H -8.28752 -14.4626 -10.1823
H -6.98705 14.5057 -9.47549
O -12.7085 14.5935 -6.30834
H -12.0488 -14.7304 -6.98143
H -12.4583 13.6667 -6.02816
O 7.20062 -10.4826 -10.1551
H 6.99465 -11.289 -9.60074
H 8.18729 -10.3198 -10.1529
O -9.00876 4.20163 9.42938
H -9.09242 3.51778 10.1542
H -9.11056 3.75781 8.53904
O 4.38664 -3.15562 -4.54494
H 4.53376 -4.09553 -4.23678
H 3.49437 -2.83605 -4.22594
O 10.221 0.52535 -8.7927
H 10.3438 1.14701 -9.56632
H 9.42737 0.813158 -8.25659
O 1.06978 0.803179 4.47082
H 1.20896 -0.0932445 4.05
H 1.35704 0.770225 5.42812
O -6.97785 -10.0184 10.9198
H -6.94543 -9.07975 11.2631
H -6.79881 -10.0198 9.93591
O 3.98884 -12.0888 6.1358
H 4.68234 -11.9955 5.42138
H 3.14394 -12.4441 5.73583
O 8.97188 0.861936 -1.82494
H 9.90696 0.792198 -1.47738
H 8.40081 0.167678 -1.38685
O 4.21551 -13.7017 -4.02945
H 5.10582 -13.5634 -4.46333
H 3.5272 -13.8839 -4.73164
O -3.31138 -8.10255 -8.23342
H -2.64317 -8.2155 -8.96879
H -3.7876 -8.96839 -8.07989
O -1.43098 1.2514 -0.077595
H -1.59616 0.941475 -1.01392
H -0.446706 1.27209 0.0979174
O -14.6184 -6.84317 -7.56448
H -13.8256 -6.26604 -7.36874
H -14.5177 -7.25143 -8.47179
O 8.04069 1.15246 -7.14702
H 8.16678 0.901197 -6.18733
H 7.45934 0.47367 -7.59569
O 2.45618 -14.4599 -5.93018
H 3.00737 14.6197 -6.53146
H 1.62451 14.709 -5.66749
O 4.31081 -1.256 5.89538
H 4.90187 -1.37619 6.69302
H 4.77122 -1.6129 5.08255
O -1.28529 8.55421 4.79758
H -0.648986 8.31064 5.52959
H -2.20116 8.22626 5.02924
O 1.65732 13.3051 -14.7359
H 1.7544 13.1723 -13.7495
H 1.87568 12.4522 14.448
O 1.83108 -3.1709 8.81039
H 2.25337 -4.07658 8.77233
H 0.842312 -3.26865 8.92364
O -10.2324 6.61083 -12.9267
H -9.28366 6.5674 -13.2397
H -10.6378 7.47967 -13.2111
O 10.2611 7.83601 10.9163
H 9.33221 7.84586 10.5461
H 10.7282 8.6845 10.6674
O 1.79368 5.86013 4.41267
H 2.61141 5.5376 4.88945
H 1.24166 5.07576 4.12973
O -1.19697 -12.112 -1.99215
H -1.23321 -13.1101 -1.9418
H -2.11414 -11.7378 -1.85499
O -12.5925 -10.7249 -12.8297
H -12.1038 -11.5465 -13.1233
H -13.2395 -10.4499 -13.5408
O 5.27882 -10.9787 -11.9599
H 5.87167 -10.6924 -11.2071
H 5.81981 -11.0632 -12.7966
O -9.79686 2.55877 -2.33966
H -10.404 3.15874 -1.81871
H -9.99308 2.65217 -3.31577
O -14.566 -10.7871 4.93023
H 14.4776 -10.0093 5.06244
H -13.6916 -10.4633 4.56895
O -10.2295 8.42263 -10.6687
H -10.5357 7.47854 -10.7911
H -10.9471 8.94935 -10.213
O 10.5816 -9.98402 8.73349
H 11.1902 -10.5874 9.24886
H 9.63064 -10.219 8.93469
O 5.9741 -1.1413 8.3008
H 6.73149 -0.919831 8.91509
H 5.25031 -0.459115 8.40464
O 9.96273 6.51995 -14.0256
H 9.9101 7.48499 -13.7688
H 10.8692 6.16364 -13.7989
O 5.26953 4.8279 4.27151
H 6.173 4.39927 4.27905
H 5.37108 5.8207 4.33532
O 11.1299 -7.73254 0.839893
H 11.1615 -7.01094 0.148282
H 10.7503 -8.56492 0.436017
O -8.83704 8.63352 -1.53761
H -9.64928 8.8844 -1.01097
H -9.09032 7.97764 -2.24874
O 13.8453 -5.07327 -5.71831
H 14.5415 -4.94653 -5.01173
H 14.1847 -5.71066 -6.41012
O 9.88412 -10.3756 -10.5702
H 10.2484 -11.1686 -10.0818
H 10.4761 -9.58541 -10.4112
O 12.3385 -7.4884 -3.10626
H 13.3177 -7.59203 -2.93186
H 11.9034 -7.05494 -2.31705
O -6.69796 5.52041 -5.42301
H -5.85261 4.99303 -5.33753
H -7.07347 5.40154 -6.34219
O 10.7085 -5.47679 -4.85828
H 10.5412 -6.32708 -4.35926
H 11.5978 -5.5266 -5.31286
O -14.4959 -11.27 -5.08535
H -13.8354 -11.5057 -5.79821
H -14.0729 -11.3875 -4.18689
O 14.074 -11.9701 -1.78952
H -14.7391 -11.6235 -2.1967
H 13.3047 -11.4037 -2.08522
O 14.5413 -1.32571 -13.3479
H -14.4085 -0.633982 -13.4886
H -14.7355 -2.23355 -13.5224
O -11.2588 14.7881 10.0709
H -12.2015 14.6932 9.75084
H -10.7203 14.0056 9.75839
O -2.35084 0.777235 -2.85429
H -2.86401 0.00146868 -3.22156
H -1.41051 0.494928 -2.66429
O -6.39634 -12.9357 0.359922
H -6.5275 -12.0304 -0.0439921
H -6.31193 -12.8488 1.35257
O -7.30425 4.57641 -0.37662
H -7.3515 4.55284 -1.37524
H -7.143 3.65285 -0.0286646
O -4.04395 -4.02911 -10.0188
H -3.18355 -3.63955 -9.69015
H -4.09762 -3.92813 -11.0122
O 10.6733 -0.078657 -0.00012312
H 10.9499 0.319389 0.874585
H 11.2318 -0.886149 -0.190285
O 6.70217 -5.38894 -1.70616
H 6.68313 -4.66752 -2.39842
H 6.79209 -4.97802 -0.798912
O 14.1495 -1.94115 -10.5794
H 13.4408 -2.64492 -10.5293
H 14.3595 -1.74716 -11.5377
O -3.84555 11.1761 -11.8691
H -4.81086 11.1717 -12.1302
H -3.30058 11.5614 -12.6138
O 14.828 -0.855896 7.27691
H 14.0108 -1.08392 6.74747
H 14.5794 -0.240813 8.02519
O -6.44022 8.30251 -14.4395
H -6.99156 9.04877 -14.0665
H -5.95775 8.62032 14.4024
O -6.53782 -9.35456 -10.0493
H -7.31308 -9.90325 -10.3623
H -6.72896 -8.38602 -10.2088
O 1.0736 12.192 -0.147833
H 0.403003 11.6241 0.329592
H 1.99376 11.9533 0.162576
O -13.5377 1.87862 -0.543056
H -12.9739 1.05318 -0.515309
H -14.1256 1.90803 0.265364
O 11.968 14.1541 -1.71706
H 11.0202 14.3179 -1.44347
H 12.1707 13.1772 -1.6483
O 8.46422 4.91338 -10.5767
H 8.77252 5.86455 -10.5601
H 8.10128 4.69636 -11.4829
O -10.2455 2.11168 3.87107
H -11.1097 1.66812 4.10844
H -10.231 2.31041 2.89111
O -0.802296 0.708581 -13.2623
H -1.72789 0.352777 -13.3916
H -0.792441 1.6898 -13.455
O -5.84446 7.97322 -11.6545
H -6.05114 7.58667 -12.5534
H -4.88429 7.80435 -11.4318
O -5.42174 9.8504 13.0618
H -4.6683 10.4798 12.8716
H -6.28987 10.2908 12.8328
O 3.88299 0.785309 -5.38649
H 4.76536 0.93231 -4.93946
H 3.45499 1.66863 -5.57779
O 7.35482 -7.57884 1.23017
H 7.77986 -8.07596 1.98663
H 7.31601 -8.1688 0.423641
O -4.47339 -14.5924 -12.0102
H -4.29016 -14.0745 -12.8457
H -4.13993 -14.0786 -11.2197
O -10.401 4.87834 -6.00473
H -9.54016 5.11526 -6.45502
H -10.3776 5.19102 -5.05514
O 1.18406 -8.02688 -10.2725
H 1.62772 -7.34661 -9.68903
H 1.83877 -8.74716 -10.5018
O -8.18912 0.0711763 4.70848
H -7.49291 0.121496 3.99237
H -8.86519 0.794418 4.56748
O 14.3758 12.2099 5.3575
H 14.5739 11.8017 4.46635
H 14.4477 13.2051 5.29167
O -11.6606 1.87732 12.0934
H -11.5365 0.977247 11.6756
H -12.1924 1.78364 12.9351
O -3.60187 -7.2423 6.88471
H -3.63961 -8.01479 7.51865
H -3.42152 -7.57826 5.96025
O 9.34441 6.96288 -1.07155
H 10.1975 7.47115 -1.18981
H 8.60966 7.42466 -1.56848
O -7.94443 -3.57101 8.03103
H -7.17783 -4.18194 8.2288
H -7.62505 -2.80546 7.47249
O 4.15448 1.34423 8.60999
H 4.21759 1.89049 9.44525
H 3.22933 1.41206 8.23646
O -0.550623 13.9771 11.611
H -0.696564 12.9956 11.4869
H -1.20582 14.4848 11.0515
O -10.6861 12.8635 0.995079
H -11.4519 13.5001 1.08572
H -10.2011 12.7992 1.86724
O -10.3027 5.40696 -10.0037
H -9.51178 5.08143 -10.5219
H -11.0716 5.5535 -10.6262
O 9.23079 2.0811 6.04038
H 8.87003 2.04916 5.10825
H 10.1429 1.67154 6.05899
O 6.55299 -2.22961 -6.11772
H 5.66653 -2.35787 -5.67301
H 6.45545 -1.58456 -6.87564
O -10.7731 8.7926 12.6123
H -11.4467 9.53072 12.5735
H -11.2395 7.91136 12.5353
O 0.343274 -4.90067 -11.2223
H 0.111126 -5.65 -11.8425
H 0.83943 -4.19309 -11.7254
O -13.7985 -2.70619 9.18333
H -13.6949 -2.19511 8.33004
H -13.0974 -2.41418 9.83394
O 0.801008 -6.23716 -7.52232
H 0.0143182 -5.89376 -8.03538
H 0.491706 -6.60815 -6.64668
O 2.3998 -12.0102 -7.1465
H 2.3793 -12.8832 -6.6591
H 1.52709 -11.8688 -7.61386
O 12.8788 11.7904 2.49778
H 12.6312 11.3078 1.65763
H 12.3892 11.3868 3.27067
O 10.609 -5.95481 -1.14844
H 9.82256 -6.5411 -1.34277
H 10.3345 -4.9956 -1.21627
O 9.89712 6.21106 2.129
H 10.3324 7.1044 2.24078
H 9.827 5.99393 1.15536
O 7.59216 -9.8028 -3.26818
H 8.12215 -9.79785 -4.11619
H 6.62497 -9.94257 -3.48041
O 14.4839 1.97542 -2.90852
H -14.2953 1.93036 -2.43364
H 14.5946 1.64651 -3.8464
O 10.3482 2.69612 -10.9111
H 10.5191 2.58687 -11.8903
H 9.54755 3.27975 -10.7756
O 8.65786 4.01598 -13.2603
H 9.0303 3.21477 -13.7287
H 8.67097 4.80052 -13.8803
O 12.2641 7.82458 -9.53649
H 13.1612 8.22343 -9.72677
H 12.1222 7.7798 -8.5476
O 12.5929 7.66229 4.68637
H 11.9882 7.40403 5.43979
H 13.3317 8.23919 5.03474
O 4.12274 13.6241 -2.3033
H 4.12187 14.5005 -2.78492
H 3.91232 12.8892 -2.94807
O 12.9337 -12.4942 0.802453
H 12.363 -13.2693 1.0735
H 12.9031 -12.3892 -0.19157
O -10.6696 -14.8114 -10.0249
H -10.3141 13.9248 -10.1786
H -11.3326 -14.5864 -10.739
O 9.12561 0.761088 -4.64644
H 9.08042 0.95284 -3.66602
H 10.0581 0.495934 -4.89159
O -13.3273 6.91862 -9.45065
H -13.618 7.86472 -9.5934
H -13.5332 6.37978 -10.2675
O 11.8552 -14.7587 1.57154
H 11.6556 14.0657 1.05665
H 12.1234 14.6589 2.50442
O 10.7153 8.60449 -6.08625
H 11.4305 9.27298 -6.29025
H 11.074 7.91356 -5.45861
O 12.1095 -2.85158 -0.416913
H 12.7485 -2.58717 0.305428
H 12.5788 -3.43461 -1.08013
O 5.56667 5.77736 -2.49363
H 6.17605 5.5653 -3.25764
H 5.78602 6.68438 -2.13415
O 11.1871 2.20192 -2.63908
H 10.6704 3.03085 -2.85337
H 11.6064 1.84539 -3.47398
O -4.6482 -10.5162 -8.45671
H -4.25086 -11.3657 -8.80387
H -5.37884 -10.2152 -9.06954
O 10.285 -1.28086 -12.8084
H 10.6439 -1.9094 -13.4985
H 11.0425 -0.788498 -12.3798
O 11.2356 -1.75589 12.6202
H 12.1958 -2.00762 12.7412
H 11.1695 -0.777147 12.426
O 9.03128 6.6589 13.1152
H 9.51683 7.21277 12.4388
H 9.59741 6.56023 13.9336
O 6.13408 -1.55588 3.79127
H 6.96713 -1.2307 4.23886
H 5.97517 -1.02662 2.95781
O -4.39052 -13.6152 7.08211
H -3.78912 -13.4252 6.30605
H -3.92617 -14.2281 7.72142
O 5.15731 8.70388 -11.6621
H 5.23839 9.55185 -11.1383
H 5.31271 7.92253 -11.0576
O 13.4134 0.954503 0.923961
H 13.2625 0.0861845 1.39649
H 14.0789 1.5 1.43346
O -2.16699 -5.45262 2.38638
H -2.60906 -6.29144 2.0686
H -2.77388 -4.97651 3.02281
O -6.13636 -9.8928 -0.104644
H -6.32026 -9.35778 0.719953
H -5.73749 -9.30016 -0.804441
O -8.71716 -7.65964 11.3611
H -9.22745 -7.79732 10.5122
H -9.13342 -8.20087 12.0917
O 3.96092 14.651 10.8995
H 3.31007 -14.6738 11.5816
H 4.7144 14.1811 11.3594
O 9.83852 -13.0294 5.9243
H 9.79503 -13.2949 4.96115
H 9.01572 -13.3476 6.39524
O -13.3984 -7.65145 -13.9098
H -12.8033 -7.14588 -13.2851
H -14.3499 -7.38915 -13.7493
O -13.7686 -4.37596 2.37642
H -14.2138 -4.64772 1.52322
H -12.8349 -4.73375 2.39384
O -5.0534 -10.2801 -5.83705
H -5.13651 -10.2355 -6.83261
H -4.32882 -10.9242 -5.59159
O 3.21342 -13.4671 -11.3888
H 3.85825 -13.9551 -10.8004
H 3.32301 -12.4818 -11.2581
O 14.2763 2.98073 -7.203
H 14.2272 2.38682 -8.00605
H -14.6618 3.66183 -7.33567
O 1.40047 -3.19714 -13.0773
H 1.34248 -2.30097 -13.5172
H 1.75671 -3.86624 -13.7295
O 7.5656 -11.7083 11.9162
H 7.88187 -10.848 12.316
H 6.60738 -11.857 12.1606
O 10.7023 0.860914 2.80358
H 9.74306 0.657308 2.99956
H 10.7991 1.83207 2.58562
O 11.9775 9.92933 9.88338
H 11.9754 10.6591 9.19963
H 12.3202 9.08587 9.46963
O -11.0756 -5.41108 2.0038
H -10.2724 -4.88227 1.72936
H -11.3614 -5.99976 1.24761
O 4.5591 1.46686 -0.419125
H 4.27436 2.41923 -0.309817
H 4.27466 1.13506 -1.31859
O -11.2005 3.55716 -12.5768
H -11.0413 3.90309 -13.5015
H -10.4084 3.76417 -12.0025
O -10.5057 6.17728 -3.00182
H -11.2358 6.8183 -3.23867
H -10.832 5.54544 -2.29873
O -10.7542 4.24709 14.543
H -10.4157 3.73842 13.7514
H -10.16 5.03318 14.7131
O 13.1183 12.0634 7.94588
H 13.4385 12.5248 7.11849
H 13.6595 12.3696 8.72902
O -9.32841 5.67418 12.4224
H -9.1883 4.78231 11.9923
H -10.2655 5.98108 12.2557
O 13.088 -6.36902 2.97587
H 12.5356 -6.74616 2.23247
H 13.998 -6.13856 2.63115
O 2.92936 -13.151 2.48344
H 3.05168 -14.0797 2.13336
H 3.78839 -12.6464 2.39705
O 14.2478 -7.36715 -10.5946
H 13.2711 -7.56617 -10.6752
H 14.7596 -8.22475 -10.5435
O -13.2136 11.1535 -2.22582
H -14.1195 11.4961 -2.47485
H -12.6232 11.1549 -3.033
O -4.1746 0.737299 11.2487
H -4.13744 1.59045 10.7283
H -5.03282 0.696047 11.7603
O -13.016 2.05779 14.6456
H -12.4143 2.82642 -14.7955
H -12.7183 1.24818 -14.5067
O -8.9857 8.01226 8.30828
H -9.93801 7.75763 8.47653
H -8.39628 7.55859 8.97671
O -10.7604 -12.4126 8.94187
H -10.2992 -12.7682 8.12888
H -11.225 -13.1608 9.41553
O 1.89141 6.12604 12.112
H 1.11186 6.2375 11.4956
H 2.46297 5.36992 11.7932
O -0.220421 1.09499 -5.03078
H -1.11734 0.686191 -5.19947
H -0.0604846 1.83095 -5.68868
O 7.71365 -14.2079 10.5549
H 7.49749 -13.3375 10.9973
H 7.12334 14.7327 10.9246
O -3.8244 -13.4571 -9.60735
H -2.86578 -13.5268 -9.33127
H -4.40189 -13.8995 -8.92118
O 1.94444 12.2874 -8.85693
H 2.71391 12.7622 -8.42968
H 2.27307 11.7543 -9.63653
O 6.03704 11.2458 5.81025
H 6.72022 11.5257 5.13577
H 5.16366 11.0816 5.35167
O 3.36582 -6.77218 -7.07204
H 3.92644 -6.23495 -7.70222
H 2.42659 -6.81249 -7.413
O 7.60916 5.09359 -4.66084
H 8.04111 5.77587 -5.25071
H 8.30458 4.66063 -4.08728
O 0.986292 -0.909265 -14.6128
H 1.61089 -0.404118 14.4498
H 0.311407 -0.280052 -14.2272
O -1.72968 11.445 5.43433
H -1.32928 10.529 5.46159
H -1.56496 11.9068 6.30588
O -8.05025 -12.4687 4.45109
H -8.18787 -11.7126 3.81128
H -8.82589 -13.0975 4.39579
O -4.21733 -6.70052 10.8279
H -3.58119 -7.30874 10.3531
H -4.50665 -7.1249 11.686
O 5.12437 4.60729 -6.35904
H 5.34208 4.67402 -7.33279
H 5.75623 5.17953 -5.83624
O 7.48836 -5.81759 -5.69164
H 7.62835 -5.10947 -4.99955
H 7.05423 -6.61401 -5.27058
O -11.376 -9.61526 -9.22692
H -10.6708 -10.2206 -8.85773
H -11.0263 -8.67907 -9.26288
O 6.95255 14.6243 -7.4363
H 7.88478 14.4658 -7.76166
H 6.97595 -14.4322 -6.63787
O 8.14814 9.04003 9.75793
H 7.97082 9.6645 10.5186
H 8.10684 9.54485 8.89568
O -13.0317 -4.9153 13.1211
H -12.1331 -4.57747 12.8411
H -13.072 -5.90552 12.9874
O 6.51183 2.26765 7.02283
H 7.50994 2.21546 6.98984
H 6.17142 1.68019 7.75702
O 0.789242 -12.6012 9.97293
H -0.146776 -12.4065 10.2662
H 0.784945 -13.3693 9.33252
O 12.8545 9.58938 -14.7988
H 12.6222 8.8483 -14.1688
H 12.6519 10.4688 -14.368
O 6.22963 -3.73691 -9.75197
H 6.24858 -4.62684 -9.29623
H 7.16586 -3.43097 -9.92489
O -10.8519 1.16484 -7.4808
H -11.1316 0.441909 -8.11258
H -10.724 2.01818 -7.98627
O -0.673852 -5.98719 14.7633
H -0.887969 -6.58326 13.9894
H -0.6596 -6.52639 -14.0528
O -2.09271 -10.5536 -11.3522
H -1.62753 -11.4152 -11.5555
H -1.5908 -10.064 -10.6392
O -11.7314 13.0398 14.0118
H -12.128 12.2106 13.6179
H -12.4439 13.7339 14.1142
O 8.94409 -13.6709 13.3789
H 8.01074 -13.75 13.7291
H 8.95981 -13.0262 12.6146
O -1.09672 -5.98328 -1.06686
H -1.67675 -6.65771 -0.609976
H -0.66354 -5.39752 -0.381822
O -5.73151 -7.79679 -4.83333
H -5.88292 -7.7381 -3.84658
H -5.45037 -8.72613 -5.07271
O -8.99486 5.66718 1.11213
H -9.68639 6.33749 0.842862
H -8.48253 5.37417 0.304856
O -9.85762 -7.77749 4.0579
H -9.46566 -6.86552 4.1792
H -10.486 -7.76945 3.28002
O 4.58521 5.52836 10.7699
H 5.15288 6.03039 11.4224
H 4.50309 6.0561 9.92445
O 0.317913 3.50875 4.22416
H -0.647489 3.32004 4.40422
H 0.83254 2.65137 4.23359
O -4.71654 14.6348 -6.50779
H -3.75589 14.3745 -6.41079
H -5.26279 13.8228 -6.71346
O -6.81062 -7.92529 2.04747
H -6.77986 -8.12919 3.026
H -6.78654 -6.93471 1.91249
O -13.9091 13.2602 11.8545
H -13.4801 12.6631 11.1767
H -14.705 13.7085 11.4475
O -4.72598 -11.2283 12.0057
H -5.42183 -10.6726 11.5507
H -4.13738 -10.6385 12.5586
O 12.3278 -9.83794 -13.5203
H 12.7719 -10.0167 -12.6424
H 12.5961 -8.93334 -13.8516
O 4.11504 13.3975 5.69829
H 3.15185 13.4756 5.44101
H 4.25331 13.8066 6.60027
O -12.0953 8.10597 -3.63492
H -13.0768 7.96256 -3.7618
H -11.9172 9.07845 -3.48454
O -9.96399 -9.5516 13.1002
H -10.7368 -10.1839 13.0462
H -9.51706 -9.64662 13.9897
O -0.17543 -7.21267 8.21366
H 0.455855 -6.6794 7.6505
H -0.767953 -6.59286 8.72824
O -14.0319 -14.286 -13.8079
H -14.6009 -13.4904 -13.5999
H -13.0748 -14.0035 -13.8722
O 11.1297 11.5083 -3.11468
H 10.934 12.4176 -3.48196
H 10.3087 10.9405 -3.17511
O -2.39689 8.41262 -13.7159
H -2.73209 8.27551 -12.7838
H -3.0596 8.04153 -14.3664
O 7.52837 4.2311 9.169
H 6.57992 4.33463 8.86939
H 7.63255 4.61773 10.0853
O 4.18865 -11.9937 10.2893
H 3.96523 -12.6062 11.0476
H 3.45775 -11.3202 10.1784
O -11.3995 11.4767 -4.21635
H -11.1648 12.4134 -3.95662
H -10.6326 11.0652 -4.70872
O 12.2285 -13.6246 7.82649
H 11.7358 -13.8594 8.66446
H 11.5768 -13.5176 7.07557
O -12.8534 0.794685 3.71539
H -12.7825 -0.157592 3.41844
H -13.4685 1.29017 3.10212
O -7.94951 -2.24287 -5.77007
H -8.85367 -2.48133 -6.12458
H -7.3121 -2.99166 -5.95184
O 4.32253 14.0595 -7.58834
H 4.44843 13.8197 -8.551
H 5.2153 14.1353 -7.14422
O -9.11002 -13.1639 14.1451
H -8.35982 -12.5136 14.0251
H -9.60222 -13.2681 13.2809
O 2.92097 -9.87287 -11.5388
H 2.27456 -9.74165 -12.2905
H 3.79959 -10.1799 -11.9046
O 6.35473 2.37226 -12.8017
H 7.1495 2.96836 -12.6875
H 6.65964 1.42447 -12.8953
O -2.91606 -3.37399 -1.30642
H -2.80655 -2.6017 -1.93221
H -2.16551 -4.021 -1.44091
O -11.7242 -0.442489 -14.3829
H -12.0688 -1.10058 -13.7135
H -10.7634 -0.638585 -14.5789
O 4.28332 -9.43872 -2.55137
H 4.75482 -8.64471 -2.1676
H 4.06012 -10.0806 -1.81773
O -11.5685 -1.97207 10.4836
H -11.1797 -2.77768 10.9306
H -10.8595 -1.27479 10.3779
O -7.83676 14.4959 8.38459
H -7.53794 14.0207 9.21223
H -7.49959 -14.221 8.40051
O -2.70431 -0.198079 -5.49737
H -3.21634 -0.955549 -5.09228
H -3.05409 -0.0127129 -6.4157
O -0.571102 8.3339 1.78576
H -0.762071 8.37198 2.76664
H -1.23489 7.7333 1.34002
O 2.53261 13.0367 9.3624
H 2.1578 13.6403 8.65863
H 3.11148 13.5667 9.98219
O 14.6983 -8.60458 -5.33422
H 14.6277 -9.59927 -5.40933
H -14.7495 -8.21665 -6.2316
O -10.7829 -4.3354 11.757
H -10.7862 -4.89974 10.9314
H -9.9195 -4.46353 12.2449
O 5.618 14.0858 3.37359
H 4.96326 13.569 2.82194
H 5.33076 14.0723 4.33137
O 7.65305 -3.61733 -3.90721
H 7.05281 -3.04254 -4.4634
H 8.59465 -3.28978 -3.98558
O 8.3298 -10.1212 -6.31053
H 8.34686 -9.18981 -6.67417
H 7.38145 -10.4139 -6.18811
O 13.1438 -10.5635 -11.1058
H 12.473 -10.7555 -10.3894
H 14.0438 -10.4272 -10.6917
O 8.34557 6.80978 -6.78456
H 9.1561 7.39091 -6.71129
H 8.13051 6.6578 -7.74928
O -5.5692 -13.8885 -2.0636
H -6.27228 -13.7405 -1.36804
H -5.24607 14.8246 -2.01511
O 6.07356 4.42066 -9.17251
H 6.9477 4.59487 -9.6259
H 5.76035 3.4976 -9.39589
O -13.0142 14.4534 0.510709
H -13.6932 13.8294 0.123975
H -13.4765 -14.4055 0.894846
O 0.889145 13.7457 2.50281
H 0.703434 14.4585 1.82649
H 0.536459 12.8709 2.1705
O 8.46137 10.1075 -3.74219
H 8.91822 9.32314 -4.16174
H 7.67024 10.3678 -4.29574
O -6.42245 9.57647 1.23511
H -6.72627 9.43539 0.292863
H -5.62025 9.00727 1.41544
O -13.9648 -10.1375 14.5333
H -14.8025 -10.5796 14.2123
H -14.1881 -9.24489 -14.7333
O 11.9901 5.5534 -7.47424
H 11.1153 5.25997 -7.08873
H 12.2447 4.94393 -8.2251
O -5.70123 11.2244 -8.83287
H -6.28139 11.9102 -8.39327
H -6.15239 10.3328 -8.79563
O -7.15508 -1.25581 -3.0861
H -7.4084 -0.290052 -3.02979
H -7.4209 -1.61861 -3.97927
O -13.9214 -12.9335 -8.32771
H -13.8328 -13.6271 -7.61279
H -13.8679 -13.3712 -9.22525
O 12.2929 4.73688 -13.4929
H 12.1167 4.35426 -14.3998
H 12.7039 4.03624 -12.9096
O 8.92366 4.19436 11.9123
H 9.7701 3.90934 11.4625
H 9.08992 5.02911 12.4373
O 10.2272 -9.97411 5.96061
H 9.86006 -10.8907 5.80204
H 10.2966 -9.80846 6.94437
O -4.92511 4.30042 -11.4629
H -4.84496 3.30377 -11.446
H -4.82996 4.62656 -12.4034
O 9.07634 9.62158 1.33257
H 10.0442 9.37011 1.331
H 8.80424 9.90555 0.413136
O 13.3181 -11.2864 13.8357
H 12.8306 -11.1626 14.7
H 13.1081 -12.1895 13.461
O 3.24056 -5.21358 -10.6123
H 2.27621 -5.0528 -10.4021
H 3.6592 -4.36223 -10.9285
O -1.16285 14.0962 14.5608
H -1.26547 14.059 13.5668
H -0.191 14.0851 14.7962
O 1.51031 -3.32557 -7.76675
H 1.49702 -4.02484 -7.05199
H 1.58894 -2.42133 -7.347
O 11.6454 11.4411 -13.0929
H 12.4217 11.9764 -13.4259
H 11.0253 12.036 -12.5813
O 12.0707 10.7228 4.83689
H 12.5311 11.1267 5.62746
H 11.1871 10.35 5.12026
O -9.65977 -3.60458 -2.96023
H -9.20824 -3.70453 -3.84689
H -10.2911 -2.8297 -2.99313
O 1.90175 2.02008 6.79761
H 2.72291 1.88968 6.24197
H 1.73816 2.99822 6.92618
O 2.3695 1.12289 -12.6797
H 1.39476 1.22552 -12.8781
H 2.49861 0.387498 -12.0145
O -9.01481 -3.58667 1.38277
H -9.38136 -3.09988 2.17568
H -8.65599 -2.92645 0.722934
O 1.31602 1.40716 -0.0730956
H 1.20002 2.14672 0.589949
H 1.42608 1.79441 -0.988497
O 11.5202 8.53797 2.17397
H 11.8079 8.32527 3.1078
H 12.1594 8.12401 1.52583
O 6.17791 -12.4057 -8.62224
H 6.0163 -13.3333 -8.28533
H 5.32482 -11.8851 -8.5874
O 13.0111 9.65867 -7.17467
H 13.3294 8.7469 -6.91501
H 13.7563 10.3161 -7.06323
O 11.7564 1.25897 5.87855
H 12.2515 0.552076 5.37336
H 12.3688 2.0277 6.06291
O -9.47787 9.84361 -5.85213
H -10.1426 9.14572 -6.11889
H -8.55924 9.54537 -6.11137
O -11.4665 -6.51053 10.0349
H -12.3858 -6.35603 9.67278
H -11.5309 -6.86159 10.9691
O 5.15012 -4.05346 3.39132
H 5.34599 -3.07675 3.30345
H 4.29803 -4.17811 3.8997
O -6.28394 1.99693 -5.61665
H -6.75022 1.36472 -6.23547
H -6.46103 1.72806 -4.66988
O 11.3215 3.87054 10.7743
H 11.7459 3.02059 10.4621
H 11.2718 4.51742 10.0133
O -10.2804 14.1157 -13.5503
H -10.7512 13.539 -14.2179
H -9.74079 13.5409 -12.9351
O 14.5946 -5.48071 -0.217859
H 14.2093 -5.03654 -1.02672
H 14.2241 -6.40608 -0.137417
O 6.27671 2.36159 -4.76637
H 7.24101 2.10538 -4.83359
H 6.08917 3.12039 -5.39015
O -5.96031 11.6398 -4.51276
H -5.42646 10.838 -4.78152
H -6.69007 11.3604 -3.88871
O -5.91207 -7.3702 13.3554
H -6.25142 -8.06477 13.9897
H -6.68201 -6.96253 12.8644
O -0.646102 10.5381 12.3757
H -0.259578 10.0401 13.152
H -1.6167 10.7126 12.5416
O 2.51051 6.55233 -11.9246
H 1.86998 6.93185 -12.5922
H 3.37782 6.34317 -12.3763
O -7.39268 14.4897 14.2382
H -7.88468 13.8363 13.6629
H -7.98321 -14.3853 14.4331
O 3.44092 2.7579 2.87718
H 4.06723 3.48361 3.16198
H 3.42103 2.0419 3.57502
O 10.6247 -13.1847 -13.9757
H 10.1407 -13.3117 14.8167
H 10.3304 -12.3281 -13.5518
O -14.1036 -12.5381 1.38348
H -13.5403 -11.9079 0.849168
H 14.5935 -12.4202 1.13329
O 9.15228 -12.3667 0.615626
H 8.37188 -12.9526 0.834284
H 9.39129 -11.8173 1.41627
O 11.7935 2.72919 -0.322942
H 11.4015 2.43468 -1.19451
H 12.3749 2.00277 0.0434285
O -12.0984 13.903 4.63088
H -12.2593 12.9797 4.28188
H -12.6675 14.5534 4.1278
O -12.3428 -0.528275 0.134313
H -12.2132 -0.823987 1.08077
H -12.2684 -1.31791 -0.474769
O 5.53806 -7.14888 6.53633
H 5.67296 -7.38514 7.49863
H 6.41807 -7.16861 6.06174
O 11.1724 -2.37356 3.33809
H 10.6378 -3.20318 3.1771
H 10.5617 -1.58186 3.35665
O 2.73793 10.2132 -6.27742
H 3.0041 9.5596 -6.98594
H 1.76539 10.427 -6.36955
O -10.036 12.688 8.45992
H -9.82474 11.8915 9.0264
H -9.18494 13.1086 8.14549
O -13.7748 -9.68897 -10.7412
H -13.2971 -9.93415 -11.5848
H -13.1059 -9.49802 -10.0227
O -11.5409 7.89424 -6.74165
H -11.9939 7.20603 -6.17491
H -11.3255 7.50077 -7.63541
O -0.915964 11.3946 1.80652
H -1.51877 11.9293 2.39884
H -0.850035 10.4596 2.15484
O 5.39109 7.0655 -9.55322
H 5.66348 6.11583 -9.39839
H 5.11477 7.4787 -8.6855
O 3.91135 -10.9627 -9.01762
H 3.35095 -11.4106 -8.32092
H 3.37381 -10.8447 -9.85258
O -2.3291 13.3125 -6.74149
H -2.50072 12.5469 -7.36144
H -1.63667 13.0489 -6.06989
O -11.0297 -8.40604 1.7225
H -11.6289 -9.12467 1.36967
H -10.1162 -8.51096 1.32937
O 3.9053 -2.32265 -9.20222
H 3.42005 -2.84278 -8.49934
H 4.75068 -2.7985 -9.44495
O -5.98776 -0.113576 -9.55289
H -6.44674 -0.332342 -8.69177
H -6.41021 0.69661 -9.95931
O 1.25443 4.50766 7.75537
H 0.296053 4.23064 7.68609
H 1.31413 5.38555 8.23052
O 0.748708 -11.5972 -9.63222
H 0.943079 -11.8595 -10.5774
H 0.191819 -10.7666 -9.62458
O 5.24488 -3.75118 -12.2649
H 5.86476 -3.81171 -13.0473
H 5.77365 -3.78919 -11.417
O -0.380944 -5.70221 5.45396
H 0.167498 -5.5248 4.63678
H -1.11033 -5.02129 5.52016
O 4.11469 -5.59053 -3.70617
H 3.69358 -6.02086 -2.90772
H 3.66163 -5.91399 -4.53692
O 5.96931 10.9329 10.351
H 6.77141 11.5221 10.4491
H 5.47056 11.1842 9.52151
O -11.6796 7.97106 8.44569
H -12.1541 8.06951 7.57096
H -12.1658 8.48985 9.1489
O -2.62434 -0.3772 13.0664
H -2.67816 -1.25003 12.5813
H -3.24067 0.28208 12.6357
O 2.95379 6.79295 -2.26027
H 2.06358 6.56542 -1.86556
H 3.54834 5.98956 -2.22693
O 2.43997 7.48563 -7.36113
H 2.02637 7.87794 -6.5395
H 3.06847 6.75276 -7.1005
O -0.318757 13.2646 8.17453
H 0.0185587 12.5518 8.78947
H 0.426063 13.8944 7.95393
O 2.97624 11.3341 13.5191
H 3.44428 11.2144 12.6435
H 3.41243 10.7594 14.2115
O 14.7298 -10.5832 9.77018
H 14.5832 -9.59401 9.7696
H 14.6764 -10.9287 8.83325
O -3.35254 0.273427 1.74484
H -3.74019 -0.552569 1.33558
H -2.66806 0.661524 1.12768
O 3.84716 -0.141959 1.84622
H 3.97901 -1.06442 1.48329
H 3.8261 0.513425 1.09119
O -10.4558 4.04817 6.36156
H -10.1961 3.3176 5.73002
H -10.2867 4.93547 5.93248
O 3.56418 11.5727 -3.97416
H 3.50148 11.3615 -4.9496
H 2.71752 11.2979 -3.51849
O -2.9996 11.0218 -8.05119
H -2.38173 10.8659 -8.8219
H -3.93999 11.085 -8.3854
O 7.59808 -13.9438 7.83772
H 6.96737 -13.1966 7.62802
H 7.81577 -13.9322 8.81369
O 4.00186 8.3969 -0.426817
H 4.20192 7.80121 0.351105
H 3.5671 7.86317 -1.15218
O -9.98449 0.499108 -0.507634
H -10.0282 1.19131 -1.22803
H -10.9118 0.231433 -0.245886
O -13.0378 5.38883 -11.6567
H -13.6825 5.72366 -12.3439
H -12.3784 4.77423 -12.0897
O 14.6023 8.38061 -3.73139
H 14.4231 7.94138 -4.61173
H 14.6559 9.37115 -3.85788
O -2.81726 11.413 9.58483
H -2.33182 10.6606 9.13962
H -3.68724 11.5711 9.11774
O 11.7337 14.2263 -13.3207
H 12.1061 13.9456 -14.2053
H 11.1882 -14.6019 -13.4369
O -1.4622 0.591751 -10.2495
H -1.42205 1.1497 -11.0785
H -0.573292 0.610438 -9.79179
O 12.2766 10.7188 -0.0807038
H 12.1778 9.85705 -0.578372
H 11.5629 11.3558 -0.372281
O -10.3296 14.1732 -3.5934
H -9.58301 13.6898 -3.13623
H -10.8305 14.7221 -2.92419
O -14.712 12.8442 -14.142
H -13.9041 12.2809 -13.9682
H -14.4967 13.8026 -13.9547
O 8.59869 -12.991 -3.13625
H 9.44573 -12.5149 -3.37275
H 8.06741 -12.4303 -2.50107
O -10.584 -3.39516 7.67524
H -10.9524 -3.20168 8.58456
H -9.62715 -3.67443 7.75575
O 2.90187 -10.3827 8.40035
H 2.00646 -10.0054 8.16394
H 3.2764 -10.8712 7.61219
O 4.24226 8.31336 -4.6006
H 4.04921 8.21307 -3.62453
H 3.76387 9.11723 -4.95412
O 12.1599 14.7809 -5.26051
H 12.2696 -13.8834 -5.24393
H 12.7534 14.3685 -4.56936
O 1.30124 -11.3199 -3.17886
H 0.304339 -11.3696 -3.11753
H 1.67895 -12.2447 -3.22366
O 5.31642 4.62032 7.05493
H 5.67622 3.68735 7.04269
H 5.19414 4.94276 6.11625
O -7.08073 9.01528 -6.63397
H -6.30048 9.49142 -6.22835
H -6.79831 8.58118 -7.48944
O -1.17505 -13.8469 -8.92699
H -1.28007 14.8169 -8.9097
H -0.494445 -13.5955 -9.61519
O 13.9283 11.2673 -3.57596
H 12.9747 11.2136 -3.27971
H 14.0865 12.1424 -4.03329
O -0.735648 8.40506 -7.70267
H -0.133928 8.3718 -8.50071
H -0.623536 7.56898 -7.16561
O 14.0186 -8.1335 0.495547
H 14.4078 -8.63131 -0.279563
H 13.0587 -8.39004 0.60842
O -9.99973 -3.00464 -10.4697
H -9.02852 -2.84087 -10.6428
H -10.1001 -3.61146 -9.68115
O 1.4515 -7.22137 -4.42756
H 1.74408 -8.07648 -4.85559
H 1.32679 -7.36562 -3.44589
O -8.34509 -1.84747 -0.545448
H -8.90421 -1.01957 -0.500556
H -8.11244 -2.04128 -1.49852
O -12.151 1.24734 -3.64875
H -12.8978 1.19595 -4.31183
H -11.3706 1.71709 -4.06144
O 1.85029 2.84922 -2.47617
H 1.44662 2.95286 -3.3852
H 2.84669 2.89672 -2.54654
O 0.633582 11.0844 -12.6345
H 1.3451 10.6184 -12.1086
H 0.885954 12.044 -12.7594
O 6.52988 8.74902 1.92239
H 6.44864 7.77869 1.69457
H 7.46526 9.05563 1.74606
O 11.0002 6.18318 -4.19489
H 10.7139 5.37612 -4.71133
H 11.6651 5.91434 -3.49793