2593
Atoms. Timestep: 1000000
O -6.07354 -14.5521 -1.07949
H -7.06719 -14.5154 -0.973354
H -5.7394 14.3707 -0.782864
O 7.43102 14.1502 4.65279
H 6.90626 13.4635 4.14973
H 6.81933 14.6598 5.25782
O 8.01206 -2.88984 -4.85025
H 8.00913 -2.83135 -5.8485
H 7.07451 -2.82015 -4.50954
O 1.52905 -8.29534 -13.0362
H 2.49494 -8.44498 -12.825
H 1.45092 -7.68802 -13.8268
O 12.3265 13.2219 -2.79454
H 12.7543 13.7076 -3.55678
H 11.3675 13.4956 -2.72124
O 9.88475 7.99431 13.5562
H 9.41379 8.8602 13.7247
H 9.79108 7.74605 12.5921
O 3.81985 -5.25028 12.1649
H 4.25937 -5.62199 12.9826
H 3.73251 -5.97058 11.4768
O -0.424076 -3.57275 4.37304
H -0.266217 -3.57221 5.36048
H -0.150331 -4.45592 3.99223
O 6.50623 -8.74678 -11.3217
H 7.22173 -9.3181 -11.7237
H 6.82398 -8.38094 -10.447
O 11.1701 11.4185 -11.2514
H 10.581 12.0379 -11.7704
H 11.6785 10.8341 -11.8837
O -5.77141 0.246454 -7.97057
H -5.20276 -0.367444 -8.51802
H -5.19072 0.921567 -7.51564
O -0.325981 -9.53469 14.716
H -0.00422724 -10.2614 14.1092
H 0.13741 -9.60833 -14.2183
O -11.6894 5.55173 -2.48093
H -11.9966 5.55509 -1.52935
H -11.7048 4.61586 -2.83286
O -2.82354 -10.6759 10.593
H -2.42957 -10.0253 11.2422
H -2.95969 -10.2254 9.71074
O 4.67722 -11.0035 3.90029
H 4.15443 -10.5979 3.15055
H 5.59884 -11.2255 3.58207
O -3.01991 13.439 -13.195
H -3.78972 13.7402 -12.6323
H -3.09265 13.8469 -14.1051
O -12.6257 -12.366 2.99896
H -12.5576 -12.557 2.01976
H -12.7881 -11.3891 3.13751
O 1.35211 -9.38125 -6.29847
H 1.1725 -10.0781 -5.60412
H 2.29958 -9.45678 -6.60918
O 12.7414 8.20192 -12.0034
H 13.3615 7.43198 -11.8527
H 11.8477 7.8586 -12.2921
O 12.2046 9.30492 10.5512
H 11.2219 9.1391 10.6333
H 12.3865 10.2837 10.6458
O 3.15844 -8.08587 -3.25284
H 3.1467 -7.92667 -4.23998
H 2.29599 -8.50752 -2.97295
O 8.68278 -5.49808 -3.90787
H 8.37626 -4.55764 -4.05467
H 9.35029 -5.74459 -4.61044
O -1.52428 11.4107 -14.3843
H -1.8107 12.0987 -13.7176
H -0.525525 11.3767 -14.4201
O -0.0432354 10.6115 -1.95867
H -0.269689 10.723 -2.92626
H -0.885283 10.5117 -1.42865
O 13.9524 -6.07195 0.844462
H 13.7061 -5.71468 -0.0564423
H 14.8686 -6.47084 0.805753
O 1.85918 -5.73902 0.648069
H 1.20494 -6.49427 0.686835
H 2.74362 -6.08022 0.329803
O -6.67996 11.6058 -2.59287
H -6.48994 12.5034 -2.99065
H -5.90321 10.9976 -2.7563
O -12.8479 -10.6913 -7.67175
H -12.2508 -11.3553 -7.22177
H -13.0901 -9.96854 -7.02452
O 8.93672 -10.0361 -11.9024
H 8.75977 -9.82489 -12.8637
H 8.98921 -11.0275 -11.7831
O -4.97046 9.46498 2.0816
H -4.41498 10.1758 1.65019
H -4.59007 8.56633 1.8633
O -11.5366 -12.6187 -9.92176
H -11.7988 -13.4339 -9.40542
H -12.3143 -11.9922 -9.97311
O -7.46988 2.45507 -2.95973
H -8.30357 1.90397 -2.9943
H -7.70022 3.41737 -3.10414
O -2.57998 11.7012 -10.0771
H -1.69379 11.4721 -10.4798
H -3.27678 11.0749 -10.4266
O -0.279138 -6.93483 11.4929
H -0.453567 -5.99419 11.784
H -0.958277 -7.54248 11.9046
O -13.4066 -2.74575 1.29076
H -12.8927 -3.58616 1.11891
H -14.3069 -2.81169 0.860494
O -4.22354 13.6787 -6.16414
H -4.4914 12.7868 -6.52838
H -4.52919 13.7566 -5.21523
O -9.03563 -9.82224 -5.81289
H -8.44727 -9.9531 -6.6108
H -8.54851 -9.28546 -5.12403
O 14.5212 10.03 -4.27939
H 14.7135 10.4281 -5.17634
H -14.7642 10.5091 -3.58118
O 4.41588 -14.5652 -10.9108
H 3.83673 14.5343 -11.2972
H 5.08444 14.8429 -10.29
O -4.47252 12.9697 7.97181
H -4.85599 13.7997 8.37661
H -4.86619 12.8293 7.06337
O 0.0237375 8.41859 9.37071
H -0.925611 8.68631 9.20638
H 0.521134 9.18588 9.77544
O -3.3793 -3.2981 11.5773
H -3.55582 -3.4673 10.6077
H -3.39856 -2.31384 11.7528
O 7.33982 -11.2824 2.7451
H 7.5004 -10.3372 3.0294
H 7.87129 -11.8998 3.32505
O -8.15857 -0.477303 1.62344
H -8.94522 -0.710315 1.05175
H -8.25849 -0.908986 2.51988
O 12.7739 12.7565 14.7052
H 12.1573 13.4948 -14.839
H 13.03 12.2211 -14.3074
O 1.37002 -0.520745 -10.8511
H 1.90133 -0.89125 -10.0893
H 0.930151 -1.26997 -11.3462
O 10.5978 -12.06 -13.9203
H 10.0298 -12.0225 -13.0982
H 11.3012 -11.3509 -13.8721
O 0.385588 -13.2989 -6.34378
H 1.11722 -12.8422 -5.83777
H 0.405869 -13.0031 -7.29878
O 9.12678 -1.33912 -12.9811
H 8.93548 -1.16589 -12.015
H 9.13854 -0.47213 -13.4792
O -12.017 -12.7103 -6.13386
H -12.2394 -13.3179 -6.8963
H -11.3914 -13.176 -5.50808
O -3.25338 7.21943 1.65613
H -2.48617 7.68286 2.09949
H -3.25243 6.253 1.91293
O -11.3211 -2.64154 -3.6476
H -11.5039 -1.88803 -3.01615
H -11.496 -3.51194 -3.18743
O -9.85718 2.29537 -9.11664
H -9.59439 1.45689 -8.63933
H -10.6158 2.10112 -9.7385
O 7.73416 -4.29061 3.29062
H 6.80308 -4.46827 3.60917
H 7.85186 -4.67392 2.37457
O -4.78297 6.57547 -0.390238
H -5.41205 7.27542 -0.728284
H -4.3501 6.89536 0.452517
O 3.49657 4.74202 8.00895
H 3.64038 4.10205 8.76373
H 2.84472 5.4467 8.28906
O -10.6925 10.1354 11.6362
H -11.5492 10.5087 11.2804
H -10.6712 9.14716 11.485
O 11.6553 4.93284 -5.41981
H 11.733 5.74322 -6.0005
H 10.7239 4.86736 -5.06188
O -14.0605 4.13025 -10.7888
H -14.7403 4.47929 -10.1439
H -14.2814 3.18441 -11.0266
O -7.72059 2.35287 9.16166
H -8.71932 2.34415 9.11265
H -7.36749 3.12259 8.62988
O -10.1042 -13.5132 -14.3964
H -10.1191 -14.0886 -13.5787
H -9.26058 -13.6808 -14.9065
O 0.789524 0.315846 -3.27161
H 0.681068 0.382593 -4.26344
H -0.0735987 0.55199 -2.82529
O 3.86503 -6.00867 8.99091
H 4.78549 -5.9281 9.37327
H 3.54985 -5.10917 8.68845
O -12.2452 -14.81 -8.3261
H -13.2308 -14.6835 -8.21367
H -12.0758 14.2191 -8.91762
O -8.79335 -1.33082 4.28593
H -9.35391 -1.6837 5.03506
H -8.09607 -0.715082 4.65283
O 12.4305 8.90254 14.3304
H 11.5622 8.45732 14.1117
H 12.9224 9.10752 13.4843
O -9.5219 -12.1517 5.44841
H -8.70109 -12.5775 5.82915
H -10.2601 -12.1898 6.12185
O -10.554 -3.92015 1.95242
H -10.652 -3.10811 1.37717
H -9.62337 -3.96069 2.31604
O 10.6153 -8.39572 -10.236
H 10.2825 -9.27129 -10.5861
H 9.85906 -7.74259 -10.1985
O -4.12834 -0.703669 -4.39699
H -5.08276 -0.638761 -4.10574
H -3.60422 -1.20865 -3.71126
O 13.655 13.5281 -8.69969
H 14.4966 12.9952 -8.78698
H 12.8732 12.908 -8.63412
O 8.47209 6.59763 -1.09993
H 7.99427 7.35977 -1.53671
H 7.80331 5.96162 -0.715007
O 3.56363 -6.47329 5.71445
H 4.07792 -6.31538 6.55737
H 2.90944 -7.21597 5.85731
O -11.5566 10.6515 -9.54321
H -11.3654 10.1816 -10.405
H -11.6801 9.97649 -8.81585
O -8.96204 9.64454 6.623
H -9.50625 10.4752 6.74
H -8.11633 9.72303 7.15079
O 9.33886 4.02718 0.80531
H 9.25105 3.44534 -0.00320536
H 9.67866 4.92732 0.53286
O -3.24485 -3.7573 -0.178154
H -2.54966 -4.21082 0.379486
H -3.74904 -3.10271 0.385094
O -5.61094 -9.68755 -9.26867
H -4.72409 -9.4076 -9.63617
H -6.23661 -8.90755 -9.27742
O -5.37699 2.54001 12.3632
H -6.24323 2.56052 12.8624
H -4.98007 3.45768 12.3466
O -12.3145 -0.934113 -1.79851
H -11.84 -0.100076 -1.51704
H -13.3012 -0.772077 -1.7995
O -13.5962 -7.94758 -1.66507
H -13.6711 -7.09966 -1.14033
H -14.3148 -8.5813 -1.37877
O -7.29852 5.37512 14.6369
H -6.86733 4.66424 -14.6249
H -6.82899 6.24531 14.786
O -8.36608 -5.44285 10.7649
H -7.87105 -5.23575 11.6087
H -8.97957 -6.21716 10.9199
O 4.63442 -4.50673 -2.47053
H 4.81757 -3.75845 -3.10808
H 4.94896 -4.25042 -1.55658
O 11.0216 -7.34207 5.05663
H 10.2717 -6.72697 5.30007
H 11.6826 -6.85293 4.48759
O 5.67077 -8.30269 0.802964
H 6.43394 -8.63738 0.250248
H 5.092 -7.70697 0.246106
O -5.52613 -8.01368 -5.98247
H -6.34481 -8.14145 -5.42267
H -5.20413 -7.07131 -5.89185
O -2.05155 7.97555 12.2478
H -2.57111 7.76034 13.0747
H -1.90592 8.96336 12.1933
O -13.7835 12.0489 -2.91945
H -14.1172 12.8089 -3.47711
H -12.8281 11.8621 -3.14806
O -12.0628 -9.29662 -3.4066
H -12.5529 -8.68184 -2.78868
H -11.8205 -8.80496 -4.24295
O -4.64042 11.255 -7.91963
H -5.19684 11.145 -8.74318
H -3.71263 11.5243 -8.17774
O 11.0097 1.76486 -14.3699
H 10.0591 1.7485 -14.0599
H 11.3573 2.70159 -14.3296
O -3.04267 -11.7135 1.86033
H -3.94354 -11.2861 1.93579
H -3.11418 -12.5475 1.31326
O 4.43971 -11.506 -0.515543
H 4.42182 -11.0118 -1.38466
H 4.11568 -10.9059 0.215817
O -9.62528 -3.27248 -11.5925
H -10.2116 -4.08096 -11.5421
H -10.1109 -2.48448 -11.2142
O -14.6207 6.29324 2.7163
H 14.3086 6.56246 2.34371
H -14.4433 5.33429 2.49521
O 7.10298 -13.8263 9.47347
H 6.96622 -12.8797 9.7654
H 6.71823 -13.952 8.55908
O 2.70437 -11.245 7.83403
H 2.22935 -10.9968 8.67825
H 2.47841 -12.1878 7.58924
O 6.21447 1.074 5.56235
H 6.31765 0.0801056 5.60062
H 5.24232 1.3081 5.55403
O 10.0436 -0.668077 8.19466
H 9.56808 -0.693342 9.07399
H 10.4 0.252421 8.03484
O 6.86369 3.59601 -3.21276
H 6.78429 4.59259 -3.23407
H 5.96925 3.18647 -3.39219
O 14.6729 -0.25118 -1.39851
H 14.538 0.739487 -1.38068
H 14.07 -0.681807 -0.726927
O 5.21019 -6.01192 -10.6703
H 4.65336 -5.18411 -10.6024
H 4.61658 -6.81615 -10.6422
O -3.09057 11.519 2.8615
H -2.20142 11.5295 3.31892
H -3.64088 10.7649 3.21995
O 10.1827 5.77794 -14.8482
H 10.2644 6.58096 14.3789
H 9.37895 5.24716 14.7004
O 9.12093 10.3386 9.09887
H 9.38758 9.99458 8.1986
H 9.70581 11.1107 9.34726
O 10.3854 14.7429 -13.6991
H 10.8123 14.6579 -12.7988
H 10.2911 -14.1069 -13.9333
O -10.473 2.94837 0.849873
H -10.6169 2.41325 1.68227
H -9.50583 2.91881 0.597686
O -7.5252 -6.06477 -13.9121
H -8.47807 -5.78947 -13.7849
H -7.37721 -6.95865 -13.489
O -13.1972 6.30507 6.66721
H -12.5604 5.53704 6.59999
H -13.3239 6.54989 7.62844
O 5.30919 -0.689569 -7.7268
H 5.8486 -1.04263 -8.49122
H 5.11237 -1.43217 -7.08669
O -0.247769 -11.7062 8.59683
H -0.0275763 -12.0633 7.68913
H -1.15117 -12.0336 8.87367
O 9.5723 9.81357 -3.30556
H 8.98501 10.5727 -3.58607
H 10.51 10.1419 -3.19206
O 2.62307 2.08039 -2.7087
H 2.28109 3.01537 -2.61493
H 1.85212 1.45276 -2.81666
O 0.359009 5.38648 10.267
H 0.886062 6.22047 10.1038
H 0.485316 4.75706 9.50028
O -9.98205 -1.58834 6.80688
H -10.4934 -1.76405 7.64807
H -9.28467 -0.89287 6.97986
O -0.946633 -14.7455 3.5713
H -1.56562 14.825 4.31684
H -1.15214 -13.8174 3.26097
O 5.39703 10.8151 -14.7349
H 5.82907 11.5839 14.6112
H 5.94314 9.98913 -14.8745
O 7.38439 -5.63656 -12.4236
H 7.60668 -6.48076 -12.9113
H 6.53195 -5.75972 -11.9156
O 6.72625 11.8616 -7.32242
H 5.97386 11.8054 -6.66615
H 7.59755 11.857 -6.83175
O -1.60665 -6.62803 -7.9524
H -1.14424 -5.75765 -7.78341
H -2.52799 -6.45399 -8.29995
O 7.82588 13.1946 -10.7494
H 7.90863 12.7621 -11.6473
H 6.96557 12.9154 -10.323
O -4.86427 -2.14361 1.79564
H -4.23335 -1.85995 2.51774
H -5.62616 -2.65044 2.19886
O 8.21261 -3.72316 -14.4417
H 7.90103 -4.52716 -13.9353
H 8.11073 -2.90906 -13.87
O 14.1462 9.50729 4.10283
H 14.8704 8.83225 4.24376
H 14.0968 9.74551 3.13291
O 8.77817 -12.8813 -7.75302
H 8.06009 -13.3969 -7.28561
H 8.91074 -13.2526 -8.67199
O -1.80325 14.6561 -2.28767
H -1.22458 14.5196 -3.09169
H -1.55288 13.9947 -1.58066
O 7.91027 10.8288 -9.50591
H 7.61909 11.323 -8.68683
H 8.02737 11.4742 -10.2607
O -4.59083 2.76122 -1.74269
H -4.30368 3.1548 -2.61595
H -5.58457 2.83139 -1.65616
O -7.77963 -7.00339 -4.63836
H -7.58803 -7.18601 -3.67406
H -8.13884 -6.07538 -4.73687
O 2.25044 -13.5071 1.20496
H 2.70162 -13.8484 0.380419
H 1.9187 -14.279 1.7472
O -9.63898 -13.9395 -11.4861
H -10.3086 -13.3819 -10.9956
H -9.12091 -14.4905 -10.8319
O -13.5916 9.47398 7.91983
H -13.3252 9.84298 7.02945
H -12.8246 8.96761 8.31384
O -0.464358 7.58146 -0.168455
H -0.892446 6.97902 -0.842056
H 0.187421 7.05801 0.380285
O 10.0145 -2.03933 -2.84793
H 9.21356 -2.22343 -2.27818
H 10.1413 -2.78938 -3.49699
O 6.49318 -14.2199 -6.68332
H 5.78574 -14.746 -6.21143
H 6.09149 -13.3864 -7.0625
O 0.498772 12.9754 -11.2338
H 1.43924 13.2211 -11.4685
H -0.112723 13.7289 -11.4753
O -12.2751 1.52721 6.66138
H -12.5819 0.575753 6.68492
H -11.8511 1.76241 7.53592
O -3.57322 -13.5716 -3.73066
H -3.24001 -13.5457 -4.67313
H -3.08459 -14.2816 -3.22375
O -2.77949 0.132852 -11.3633
H -2.49557 0.64487 -12.174
H -3.77095 0.00387931 -11.3809
O -10.1558 6.84197 5.09926
H -9.4903 7.39943 4.60299
H -9.86886 5.88425 5.07985
O 0.728865 9.57341 -6.73163
H 0.37595 10.4403 -7.08368
H -0.0307298 8.94059 -6.58168
O -5.40002 7.55381 6.57195
H -4.63087 7.18737 7.09547
H -5.94985 8.14795 7.15899
O 11.9698 -14.2764 2.79155
H 12.8783 -14.686 2.7092
H 11.6245 -14.4152 3.71969
O -5.73356 4.32967 2.85533
H -6.11395 3.78689 3.60408
H -6.17319 4.06703 1.99644
O -1.43879 3.18781 -0.414028
H -1.8662 4.05779 -0.659797
H -1.65989 2.5006 -1.10598
O -4.68888 -5.09513 -3.29683
H -4.1894 -4.27836 -3.00812
H -5.25734 -5.42236 -2.54204
O 0.259754 3.56395 8.1932
H -0.567965 3.07187 7.92361
H 0.915217 3.5524 7.43809
O 0.105713 -12.0327 5.66274
H 1.07554 -12.2306 5.52053
H -0.344486 -11.9184 4.77718
O 13.3676 2.89815 11.5064
H 13.5355 3.78605 11.9346
H 14.1043 2.26676 11.7484
O -4.1657 -10.7669 -12.7825
H -4.1291 -11.7483 -12.9707
H -5.05138 -10.5377 -12.3787
O 14.5583 -8.44294 9.2031
H -14.4757 -8.54604 8.59017
H 14.0407 -7.62629 8.94796
O -13.6033 -6.42441 4.90016
H -14.3579 -5.80468 4.68451
H -13.9279 -7.36959 4.86513
O -14.6814 1.61715 8.41796
H -14.7832 1.82499 7.44514
H -13.9296 0.969784 8.54358
O 10.3391 14.4356 11.9373
H 11.2523 14.0328 11.8759
H 10.1559 -14.8443 11.1142
O -0.571372 -6.70888 -11.8061
H -0.0447261 -7.50063 -12.1155
H -1.50191 -6.76554 -12.1678
O -2.98181 -13.4193 6.76552
H -2.31451 -14.1634 6.73438
H -3.79882 -13.6826 6.25257
O 10.5939 -0.597395 -6.26785
H 10.9809 -1.51946 -6.26507
H 9.64275 -0.636033 -6.57392
O -6.89235 11.0993 -6.46956
H -6.1185 11.251 -7.08445
H -7.26001 11.9807 -6.17289
O -4.20303 -0.280778 4.85046
H -3.8917 -1.16358 4.49878
H -4.00042 -0.221154 5.82787
O 1.52994 3.23004 1.71109
H 2.4932 3.48896 1.78202
H 1.17828 3.49687 0.813834
O 13.9283 -14.1724 12.276
H 14.0899 -13.5434 13.0364
H 14.357 -13.8112 11.4479
O -2.94535 -14.0562 -0.0350565
H -3.05735 -14.1397 -1.02522
H -3.15673 14.8856 0.399263
O 2.48613 -0.70947 11.3632
H 1.52771 -0.992883 11.3957
H 2.64406 0.00984418 12.0397
O 10.2374 14.6261 0.800472
H 10.7964 -14.6988 1.46755
H 10.8174 14.3051 0.0518207
O -10.2455 2.63493 11.9684
H -9.36012 2.58502 12.4305
H -10.9347 2.16097 12.5165
O 14.1517 -1.78175 -5.68774
H 13.4237 -1.70118 -5.00693
H 14.6193 -2.65823 -5.57354
O -3.61999 3.61206 -12.0651
H -3.26448 2.78871 -12.5074
H -3.53356 3.52122 -11.073
O 11.0007 12.1352 -8.37612
H 10.9348 11.7469 -9.29527
H 10.3422 11.6824 -7.77501
O -11.2895 -0.989048 -10.7979
H -11.4103 -0.00900269 -10.9556
H -11.4264 -1.18993 -9.82794
O 0.0895692 12.384 7.52552
H 0.50303 11.6301 8.03598
H 0.758066 12.7571 6.88222
O -3.2023 -9.7025 -6.48413
H -4.03031 -9.1629 -6.63635
H -2.44771 -9.31074 -7.01048
O 2.284 4.29553 -13.6896
H 1.90752 3.62601 -13.0493
H 1.5878 4.53913 -14.3648
O -5.61805 8.24982 -9.29002
H -5.51955 7.39105 -9.79276
H -6.38646 8.17757 -8.6542
O -12.9476 -14.2861 5.12048
H -12.6717 -13.871 4.25361
H -12.2823 -14.0514 5.82912
O -6.72676 2.79938 -6.72308
H -7.56948 3.17049 -6.33316
H -6.89191 1.86847 -7.04877
O -3.34912 -2.23631 -7.16311
H -2.62686 -2.83291 -6.81331
H -3.38245 -2.3027 -8.16031
O -3.49293 8.74918 -7.29506
H -4.11517 8.33365 -6.63167
H -3.98765 9.43012 -7.83498
O 9.21574 2.98453 -11.2841
H 8.5036 3.39239 -10.7127
H 10.0636 3.50478 -11.182
O -1.48407 4.63412 -14.1989
H -0.970956 3.99528 -14.7721
H -2.24287 4.15276 -13.7602
O 7.62847 -12.0486 13.6528
H 7.13472 -12.8845 13.8925
H 7.3678 -11.7601 12.7315
O 0.693014 -3.05577 7.00437
H 1.67656 -2.94217 7.14464
H 0.436078 -4.00281 7.19684
O -5.88318 10.5933 -10.5099
H -5.67025 9.72956 -10.0532
H -6.31753 10.4062 -11.3909
O -6.89341 4.72418 -1.15479
H -7.29205 5.44725 -1.71888
H -5.99007 5.0104 -0.835421
O -10.9281 10.5206 -2.36103
H -9.94546 10.6373 -2.21721
H -11.329 10.0623 -1.56782
O -10.9833 -3.67421 5.25057
H -10.6512 -2.92085 5.81815
H -10.7854 -4.54413 5.70226
O -10.6267 12.6966 6.0908
H -11.4466 12.1475 5.92858
H -10.2196 12.9546 5.21465
O -13.0305 13.8096 -5.55599
H -13.2666 14.5342 -6.20342
H -13.0587 14.1726 -4.62465
O 8.69516 4.6587 7.41512
H 8.47558 3.69121 7.28993
H 9.50725 4.88829 6.8787
O -13.5142 7.99192 4.64484
H -14.013 7.32845 4.08723
H -13.1263 7.53157 5.44332
O 11.7489 -10.309 -0.327024
H 11.51 -10.5133 0.622239
H 11.6068 -11.1236 -0.889265
O -11.5724 -6.97627 14.0911
H -11.6745 -6.65418 13.1499
H -12.4539 -7.30773 14.4274
O 10.7607 2.05313 8.78702
H 10.4748 1.83712 9.72056
H 11.4675 2.76018 8.81009
O 3.05627 -7.77805 -10.0037
H 3.30343 -8.72262 -9.78774
H 2.23975 -7.77083 -10.5809
O 6.68122 10.6486 5.75894
H 6.5702 10.8365 6.73479
H 6.896 9.68074 5.62825
O -0.91075 0.974171 -9.69872
H -0.0538945 0.571128 -10.0201
H -1.6417 0.765118 -10.3483
O 1.93724 2.70369 -8.54265
H 1.80456 3.63372 -8.20003
H 1.33836 2.54937 -9.32844
O 8.99579 0.940065 3.70603
H 8.05993 0.705115 3.96854
H 9.56452 1.00899 4.52562
O -2.28978 -12.5698 -6.36615
H -1.32283 -12.5553 -6.6206
H -2.67334 -11.6513 -6.4617
O 12.6834 -11.0463 -11.104
H 13.5754 -11.2471 -10.6991
H 12.0178 -11.7271 -10.7985
O -7.6121 -11.8386 0.5583
H -8.49058 -12.3093 0.476474
H -7.11177 -11.9144 -0.304175
O -11.4593 -11.9384 -2.61152
H -11.7118 -10.9726 -2.66982
H -10.559 -12.073 -3.02548
O 6.54278 8.77287 -10.5606
H 6.82491 9.61792 -10.1065
H 6.92941 7.98864 -10.0754
O -1.23485 2.11525 2.06714
H -1.42473 2.17027 1.0869
H -0.256749 1.96326 2.20914
O -7.1099 -3.55222 -13.0692
H -7.23389 -4.46506 -13.4581
H -7.85771 -3.35572 -12.4351
O 1.70824 6.26773 0.686295
H 1.62841 5.41017 0.178187
H 2.21853 6.10818 1.53133
O 3.81528 2.27849 5.46128
H 3.38119 1.47435 5.05522
H 3.12733 2.82084 5.94348
O -9.4629 -8.94816 14.1226
H -9.39496 -9.47483 -14.8474
H -10.2078 -8.28567 14.2008
O 4.0417 -3.56088 -10.6084
H 3.19202 -3.70455 -11.1156
H 4.0131 -2.66962 -10.1558
O -10.5288 -2.89162 9.44125
H -10.5925 -2.11617 10.0694
H -9.56976 -3.15166 9.32898
O -9.22767 12.2781 -9.22442
H -9.97857 11.7239 -9.58346
H -8.39371 12.0842 -9.741
O 8.93149 -0.411971 10.7112
H 8.17777 0.23569 10.8224
H 9.44224 -0.479398 11.5682
O -4.03538 9.96243 -2.01499
H -3.66348 10.1533 -2.9234
H -4.67709 9.19761 -2.0715
O -4.27459 5.15464 12.3863
H -3.89271 5.47291 13.2539
H -3.65984 5.4069 11.639
O -2.51636 5.97283 10.4139
H -2.67593 6.74901 11.0238
H -1.56774 5.66907 10.5022
O -3.54086 -10.7683 -3.73542
H -2.87357 -10.4543 -4.41077
H -3.58515 -11.7671 -3.75002
O 14.3889 -9.83383 -0.744196
H 13.4716 -9.58744 -0.431426
H 14.7146 -10.6269 -0.229591
O 3.41571 7.44535 13.795
H 2.71179 7.01697 13.2285
H 3.30491 7.15041 14.7441
O -3.96111 9.60273 -12.3405
H -2.99875 9.48601 -12.5858
H -4.19975 8.96025 -11.6123
O 11.7469 -8.6072 -2.37513
H 11.1943 -9.26122 -2.89172
H 11.7745 -8.88039 -1.4136
O 2.20385 -4.9428 -7.80193
H 2.55076 -5.86837 -7.9533
H 1.73136 -4.90378 -6.92149
O -13.754 0.242794 -6.10432
H -13.1214 -0.531679 -6.1038
H -14.6431 -0.0528053 -5.75494
O -0.492584 -13.3264 12.2161
H -0.0270809 -12.4491 12.3327
H -0.833293 -13.4009 11.2789
O 0.766362 -10.9666 0.434214
H 0.336537 -11.7981 0.0823441
H 1.68531 -11.1809 0.765228
O -5.71159 7.24605 -5.40802
H -6.50037 6.94812 -5.9456
H -5.58366 6.62741 -4.63287
O -1.93084 13.9793 6.15333
H -1.21617 13.5255 6.68549
H -2.79262 13.9505 6.65974
O -4.09629 -5.86873 -11.4682
H -3.99936 -6.75337 -11.0122
H -3.88303 -5.13568 -10.8224
O -12.861 10.6767 5.71399
H -13.2863 11.434 5.21838
H -12.724 9.90618 5.09156
O 9.90452 14.5835 -2.00999
H 9.94309 -14.4447 -2.62296
H 8.96652 14.4579 -1.68701
O -6.05995 -11.8778 7.00525
H -6.71638 -11.2401 7.40814
H -6.53778 -12.7043 6.70779
O -7.8232 7.86387 10.4966
H -8.72345 7.77875 10.9235
H -7.36516 6.97501 10.5046
O 13.4322 -14.7454 -4.36871
H 13.6458 -14.2599 -5.21641
H 13.0955 -14.095 -3.68784
O -14.5688 -10.8149 -9.91121
H -13.9758 -10.5307 -9.15786
H -14.5569 -10.1162 -10.6265
O 11.8861 4.19451 -13.4642
H 11.3655 4.92616 -13.9043
H 11.6878 4.18734 -12.4841
O 5.80428 -0.855682 13.5482
H 5.62509 -0.444763 12.6543
H 6.73637 -1.21727 13.568
O 10.9292 -11.3861 2.14044
H 11.038 -10.9959 3.05466
H 10.8758 -12.3824 2.20753
O 9.81992 4.69836 3.45842
H 8.86825 4.76883 3.75725
H 9.87005 4.13099 2.63652
O 3.04808 14.2563 3.42689
H 3.64168 14.2277 2.62267
H 3.46165 13.724 4.16549
O -5.60794 -0.346935 -10.9889
H -6.331 0.343788 -10.9849
H -5.9773 -1.21798 -10.6652
O -11.5816 14.13 13.0098
H -11.2488 14.7848 13.6882
H -12.5099 13.8452 13.2488
O 1.49581 5.02847 -3.53253
H 1.01026 4.4045 -4.14478
H 2.07879 5.63708 -4.07075
O 6.4602 0.535576 -4.55981
H 7.39231 0.881514 -4.45282
H 5.82301 1.30459 -4.61023
O -1.95669 -13.0262 -10.2034
H -1.09124 -12.8774 -9.72502
H -2.1641 -12.2304 -10.7723
O -9.88961 -4.49616 -7.76125
H -10.6226 -4.90088 -7.21462
H -9.08987 -5.09618 -7.74278
O -8.43587 -3.23063 -1.65238
H -8.22776 -3.87074 -2.3919
H -7.72291 -2.53096 -1.60667
O -0.900984 4.44858 -7.60484
H -0.00177127 4.75505 -7.91698
H -0.862719 3.47414 -7.38358
O -7.45771 7.72851 -7.3351
H -8.19258 8.29277 -6.95891
H -7.85188 6.9487 -7.82138
O -13.4336 13.0072 4.04013
H -13.0435 12.9508 3.12114
H -13.2141 13.8963 4.44149
O 11.8672 3.31997 1.56683
H 11.7405 3.06912 0.607162
H 11.7704 4.31008 1.66811
O 6.65259 6.47742 7.12853
H 6.89658 7.07627 6.36578
H 7.43263 5.89537 7.35805
O -7.35325 13.4068 8.75898
H -6.89495 12.9381 8.00386
H -7.86123 12.741 9.30536
O -4.22537 13.028 11.7513
H -4.58113 13.817 11.2504
H -4.11374 12.2575 11.1237
O 5.9007 0.0678389 -13.4481
H 5.72514 -0.354758 -14.3372
H 6.42269 -0.564526 -12.8758
O -14.4603 -12.4451 -5.3538
H -14.6637 -11.9037 -4.5381
H -13.4701 -12.5497 -5.44607
O -7.36941 -4.89569 13.3847
H -6.46397 -5.01256 12.9767
H -7.45848 -5.49939 14.1769
O -6.20064 13.9879 -3.63065
H -5.96532 14.7988 -3.09492
H -6.80599 14.2492 -4.38244
O 14.6373 2.53954 -0.748641
H 14.8898 3.10519 -1.53364
H 13.6411 2.47363 -0.691993
O -5.70621 -5.22759 7.93135
H -4.82871 -5.04811 8.37602
H -5.82457 -6.21349 7.81332
O 6.58021 13.0713 13.9309
H 6.57087 13.5513 13.0537
H 7.52607 12.9148 14.2152
O -5.88248 14.7934 -8.30406
H -5.10923 14.4772 -8.85365
H -5.65703 14.7115 -7.33328
O 4.00314 -9.4058 -7.28488
H 4.29201 -9.50112 -8.23746
H 4.80687 -9.41797 -6.69005
O -2.328 -5.98588 4.9944
H -1.90681 -6.72388 4.46725
H -1.71784 -5.71881 5.74028
O -13.5996 11.6873 -0.193789
H -14.0243 11.9796 -1.05063
H -13.4545 10.6981 -0.214093
O 7.96851 0.27171 -7.02172
H 7.22028 0.423388 -6.37591
H 7.80165 0.798833 -7.85493
O 3.54149 0.760521 13.7642
H 3.70388 1.70973 14.0336
H 4.41378 0.320882 13.5502
O -12.8433 4.74804 -0.0939266
H -11.8977 5.0158 0.0905659
H -13.2284 4.30539 0.715825
O 1.6497 -2.16279 3.10851
H 1.00003 -2.72057 3.62498
H 1.48201 -2.27663 2.12929
O -12.9938 -8.69906 7.75189
H -13.4988 -8.73423 6.88953
H -12.0151 -8.62076 7.56204
O 2.74761 0.516762 9.03793
H 2.12569 0.323632 8.27908
H 2.40799 0.0745422 9.86802
O -9.91319 13.7657 2.93277
H -10.3674 13.1043 2.33589
H -10.2816 14.679 2.75951
O 7.37318 -13.4548 -4.10571
H 7.19102 -14.3826 -3.78011
H 7.1878 -13.4036 -5.087
O 11.7184 -3.12377 -12.151
H 10.8214 -3.31196 -11.7509
H 11.7017 -3.34574 -13.1259
O 7.50186 -14.7896 12.1437
H 7.17329 -14.3319 11.3176
H 8.49947 -14.8523 12.1157
O -0.0898448 -1.92281 13.4153
H -0.889382 -1.78817 14.0005
H -0.0965182 -1.24442 12.6806
O -14.599 -8.63943 -6.17137
H -14.7412 -8.18011 -7.04815
H 14.344 -8.72384 -5.69362
O 12.5026 -10.2503 8.07621
H 11.9711 -10.7206 8.78066
H 13.2539 -9.74854 8.50491
O 4.88702 -10.2664 -3.08928
H 4.33911 -9.45168 -3.27895
H 5.50048 -10.4422 -3.85916
O -6.33404 -7.95252 7.46329
H -6.3152 -8.81783 7.96411
H -7.26921 -7.75955 7.16639
O -14.7121 -3.46206 12.4756
H -14.7398 -2.60139 11.9673
H -14.1852 -4.13723 11.9595
O -10.752 7.84201 7.73204
H -11.0844 7.17041 7.06991
H -9.99852 8.36194 7.32977
O 7.75983 11.9611 -3.78241
H 7.68721 12.5652 -2.9888
H 6.85428 11.8309 -4.18607
O 8.92914 -5.09394 -8.50001
H 9.17324 -5.01398 -9.46643
H 7.97586 -5.38516 -8.42001
O 0.07326 14.5515 9.52222
H 0.088666 13.7531 8.92039
H -0.870156 14.7513 9.78674
O 5.66966 -13.9517 6.63442
H 4.74922 -13.612 6.44115
H 6.28573 -13.1784 6.78405
O 10.0203 -14.5827 -9.72736
H 11.0199 -14.6098 -9.73682
H 9.66023 14.3268 -9.94221
O 12.7223 -10.9649 -5.70613
H 13.6928 -11.1619 -5.84529
H 12.5929 -10.5456 -4.80758
O 0.207408 4.90255 3.40577
H 0.708322 4.24053 2.84832
H -0.435834 5.40542 2.82845
O -2.89483 4.51214 2.3268
H -2.35651 3.72363 2.62414
H -3.84061 4.40469 2.63323
O 2.2497 -13.884 7.70113
H 1.938 -14.1859 6.80021
H 1.62227 -14.2235 8.40189
O -7.64814 -9.02259 -12.8948
H -8.47975 -9.57717 -12.8665
H -7.71267 -8.29032 -12.2168
O -14.5681 -9.48062 11.5792
H 14.845 -9.16937 10.7191
H -14.8099 -8.84346 12.3109
O -7.9015 -7.4289 -10.8637
H -8.8725 -7.4263 -10.6247
H -7.35263 -7.44327 -10.0279
O -0.0215104 2.69267 14.4618
H 0.420116 1.80128 14.5635
H 0.359911 3.16486 13.6671
O 10.5648 -10.5626 -3.7173
H 9.7043 -10.6526 -3.21592
H 10.7044 -11.3721 -4.28764
O 8.4279 -8.88164 4.06533
H 9.40813 -9.04651 3.95621
H 8.22583 -8.69824 5.02735
O -1.55505 5.74021 -1.91211
H -1.40172 5.01848 -2.58706
H -1.90407 6.55715 -2.37116
O 0.348933 -4.09771 -14.6168
H 0.615905 -3.48919 14.4534
H -0.515998 -4.5451 -14.8441
O -13.4651 -5.35158 10.7584
H -13.8864 -6.25717 10.7101
H -13.0582 -5.12553 9.8734
O -11.3594 -8.47486 -6.90135
H -11.9182 -8.97244 -7.56473
H -10.7048 -9.10229 -6.47974
O -2.54877 8.18477 -9.79084
H -2.93757 8.13096 -8.87112
H -1.72354 8.74919 -9.77135
O 9.1442 12.1205 -6.02856
H 9.77966 12.8724 -6.20421
H 8.72398 12.2424 -5.1294
O 14.2846 6.71903 -14.8814
H 13.8667 7.62409 -14.8029
H 14.7494 6.49113 -14.0258
O -8.81959 -7.61844 6.4588
H -9 -7.52534 7.43795
H -9.54925 -7.17134 5.94146
O 1.75272 10.8075 4.95192
H 2.18887 10.1955 5.61154
H 2.16754 11.7152 5.0146
O 12.8963 -1.9956 -3.19178
H 13.3864 -1.82628 -2.33676
H 11.9253 -2.13441 -2.99747
O -11.3879 -6.49454 2.84848
H -12.0933 -6.57813 3.55239
H -11.1842 -5.52782 2.6939
O 9.87716 9.11593 4.46059
H 10.1804 9.95318 4.0056
H 10.6639 8.5197 4.62024
O 9.37938 0.613277 -3.68912
H 9.87607 0.840204 -4.52683
H 9.64828 -0.298503 -3.37882
O 0.774486 -9.19358 -2.15916
H 1.12161 -9.62656 -1.32731
H 0.0885496 -8.5076 -1.91654
O 2.69249 10.0399 13.1891
H 3.58102 9.59013 13.2796
H 2.03413 9.40041 12.7921
O 12.7638 11.1875 6.02075
H 13.0823 10.7081 6.83849
H 13.0076 10.6584 5.20802
O 4.3351 12.8343 -0.964426
H 3.36541 12.7384 -1.18904
H 4.6998 11.9486 -0.677022
O -2.18875 -13.894 9.91513
H -2.37096 -13.5928 10.8511
H -3.05291 -13.9863 9.42051
O 14.3114 -1.5483 -8.58146
H 14.2811 -0.549295 -8.61333
H 14.6522 -1.8431 -7.68877
O 13.5188 -10.9722 5.83818
H 13.8244 -11.9239 5.86727
H 13.0827 -10.7355 6.70635
O 1.14289 14.3183 5.38309
H 0.436508 14.8605 4.92813
H 1.97549 14.3236 4.8293
O 5.2357 13.567 10.8969
H 4.96048 13.1989 11.7849
H 5.93735 14.2671 11.0292
O 3.88639 -13.232 -7.89771
H 3.45383 -14.0725 -8.22382
H 3.58766 -12.4626 -8.46235
O -13.0413 6.12056 9.7769
H -13.8159 6.53921 10.2509
H -12.1872 6.4896 10.1434
O -6.99058 -1.33244 10.3649
H -7.24007 -2.22945 10.0001
H -7.48599 -1.17012 11.2183
O -14.6469 6.4545 -12.3193
H -14.2397 6.89035 -11.5167
H -14.5559 5.46172 -12.2417
O 11.6427 6.95766 -7.60421
H 12.2041 7.40876 -6.91047
H 11.0498 7.63243 -8.04362
O -1.9588 9.96129 -0.11959
H -2.72237 9.77185 -0.736856
H -1.32406 9.18865 -0.127699
O -6.20629 4.62097 8.04477
H -7.11436 5.03616 7.99021
H -5.62054 5.17683 8.63456
O 2.24121 8.0004 -5.16636
H 1.81034 8.74302 -5.679
H 3.0099 7.63515 -5.69139
O 6.37094 -9.53613 -5.73427
H 6.37498 -8.68212 -5.21409
H 7.27256 -9.68286 -6.14109
O -6.5616 -11.1243 -14.6601
H -6.93857 -10.226 -14.4348
H -6.63039 -11.7242 -13.863
O -12.5592 -9.40132 3.3327
H -11.6447 -9.26516 3.71357
H -12.5109 -9.38048 2.33411
O -12.2395 -6.91364 -11.495
H -12.7428 -6.53449 -10.7185
H -11.6812 -6.1967 -11.9124
O -13.7917 6.10143 -6.06421
H -13.1649 5.80642 -6.78534
H -14.6659 6.36718 -6.47058
O -2.72881 -10.6833 -1.09055
H -3.05037 -10.662 -2.03717
H -3.38923 -10.2151 -0.50357
O -12.6856 -13.2753 14.7532
H -11.7175 -13.2147 -14.8213
H -12.9705 -12.4279 14.3053
O -1.71719 10.7768 11.9434
H -1.81335 11.4341 12.6909
H -0.754438 10.7077 11.6821
O 14.6759 -14.4771 1.8651
H -14.15 -14.5401 1.97935
H 14.4098 14.894 1.01073
O -1.66949 6.10204 -11.3218
H -2.07506 5.22188 -11.0752
H -2.06604 6.82271 -10.7531
O 13.9719 -14.1697 -14.0092
H 13.4958 -13.4668 -14.5377
H -14.8618 -14.1029 -14.1759
O 4.35234 3.37212 1.58316
H 5.02203 3.2191 2.30982
H 4.56163 2.77802 0.806508
O -8.44603 -9.17096 -0.494521
H -8.58833 -8.81116 0.427561
H -7.80492 -9.9375 -0.457934
O -10.6996 7.44129 10.6183
H -10.4849 6.46843 10.7044
H -10.631 7.71411 9.65873
O 12.201 -1.01458 -14.6623
H 12.143 -0.0305732 -14.4941
H 11.8722 -1.51014 -13.8584
O 12.2351 6.55658 2.45268
H 12.0602 7.11257 3.26524
H 11.4433 6.59867 1.84335
O -12.1328 8.70947 -7.61526
H -12.3367 9.17206 -6.75247
H -11.9409 7.74412 -7.43862
O -7.37955 -7.82033 3.65332
H -8.09872 -7.67154 4.332
H -7.76057 -8.30181 2.86404
O -10.2502 -1.7606 0.11195
H -11.0015 -1.21443 -0.258536
H -9.85393 -2.3197 -0.616263
O -4.3302 5.70251 -3.47729
H -4.05091 5.12645 -2.70911
H -3.62046 6.38315 -3.65879
O -11.7356 8.43865 2.33375
H -12.372 7.98628 2.95843
H -10.962 8.80303 2.8522
O 4.80316 1.96327 -0.505671
H 5.57887 1.38646 -0.24973
H 4.40353 1.62554 -1.35783
O 1.19441 1.44505 -5.82259
H 0.441352 1.54913 -6.47222
H 2.0317 1.82052 -6.21998
O -7.92259 -12.8529 9.70414
H -6.95756 -12.7388 9.94001
H -8.3421 -13.5133 10.3269
O 14.1581 0.999852 -9.31857
H 14.1641 1.56072 -8.49072
H 13.4146 1.29743 -9.91738
O 1.55696 12.5181 -0.630622
H 1.13298 13.0701 0.0873202
H 0.898736 11.8436 -0.964953
O 12.6594 6.20384 -2.57181
H 13.5827 6.17177 -2.95461
H 12.0299 6.58127 -3.25096
O -11.1307 -10.1026 0.780229
H -11.3797 -11.0235 0.480461
H -10.7223 -9.60256 0.016637
O -6.61546 9.5229 8.28528
H -5.66497 9.74822 8.49915
H -7.07181 9.18678 9.10912
O 6.36739 -2.96925 -12.0431
H 5.50793 -3.13173 -11.5585
H 6.89657 -3.81706 -12.0766
O 9.93976 -4.53383 -0.83118
H 9.05708 -4.07126 -0.913936
H 9.8211 -5.51164 -1.00362
O 6.40514 -6.28323 10.0154
H 6.63015 -6.02397 10.9546
H 6.97418 -5.76117 9.38012
O -3.30329 -14.7495 14.3183
H -3.74731 -14.2506 -14.7548
H -3.28296 -14.1769 13.4988
O 8.87172 -12.8073 0.663289
H 9.52102 -13.5509 0.822709
H 8.67986 -12.3414 1.52706
O 12.6018 -7.9576 -4.68894
H 11.8062 -8.48011 -4.99547
H 12.6351 -7.95662 -3.68952
O -0.846467 -9.27336 -8.09505
H -0.0428109 -9.51452 -7.55106
H -0.947089 -8.27874 -8.11816
O 10.8665 5.38781 5.93198
H 10.8539 5.68211 4.97638
H 11.6044 5.8583 6.41591
O -13.1445 3.0152 10.2783
H -13.8958 2.63703 9.73749
H -13.1507 4.01252 10.2058