LAMMPS data file via write_data, version 15 May 2015, timestep = 23005000

2611 atoms
6 atom types
1749 bonds
4 bond types
894 angles
3 angle types
44 dihedrals
3 dihedral types
10 impropers
1 improper types

-1.5034362847387852e+01 1.5034362847387852e+01 xlo xhi
-1.5034362847387852e+01 1.5034362847387852e+01 ylo yhi
-1.5034362847387852e+01 1.5034362847387852e+01 zlo zhi

Masses

1 15.9994
2 1.00794
3 12.0107
4 1.00794
5 12.0107
6 12.0107

Bond Coeffs # harmonic

1 1000 1
2 469 1.4
3 367 1.08
4 469 0.7

Angle Coeffs # harmonic

1 100 109.47
2 35 120
3 63 120

Dihedral Coeffs # opls

1 0 7.25 0 0
2 0 7.25 0 0
3 0 7.25 0 0

Improper Coeffs # cvff

1 2.5 -1 2

Atoms # full

163 55 1 -8.1999999999999995e-01 -1.2947678338350885e+01 -1.2509477415788808e+01 -1.1260356863927555e+01 -3 -3 -2
1568 523 2 4.0999999999999998e-01 -1.0896716681160200e+01 -1.0192031575798062e+01 -1.1945986089788949e+01 1 0 -2
1176 392 2 4.0999999999999998e-01 -9.8803557860236602e+00 -7.0452460615298005e+00 -1.1783520359186177e+01 -3 5 -1
1174 392 1 -8.1999999999999995e-01 -1.0308493561367239e+01 -6.5657821149233211e+00 -1.2549568721317117e+01 -3 5 -1
1995 665 2 4.0999999999999998e-01 -1.1286489412110047e+01 -1.2805580388201903e+01 -8.7657235388979160e+00 -3 -1 6
1251 417 2 4.0999999999999998e-01 -8.2703096197351371e+00 -5.6854690080323138e+00 -1.1196101954788350e+01 1 3 5
1993 665 1 -8.1999999999999995e-01 -1.0905909395314014e+01 -1.3500514836354787e+01 -9.3758404847653196e+00 -3 -1 6
718 240 1 -8.1999999999999995e-01 -1.3787597910564257e+01 -7.0057134493049738e+00 -8.4490420112478137e+00 -1 2 -2
1994 665 2 4.0999999999999998e-01 -1.1427700609593446e+01 -1.3517091894277817e+01 -1.0228763007785863e+01 -3 -1 6
164 55 2 4.0999999999999998e-01 -1.2540191040312454e+01 -1.3157564135387322e+01 -1.1903750543160699e+01 -3 -3 -2
419 140 2 4.0999999999999998e-01 -8.1954391435973140e+00 -5.2430946959486899e+00 -1.4508672318090339e+01 0 4 0
720 240 2 4.0999999999999998e-01 -1.2828773382011574e+01 -7.0483189423992210e+00 -8.7298586956062554e+00 -1 2 -2
1569 523 2 4.0999999999999998e-01 -1.1739805818752579e+01 -1.0621782287625042e+01 -1.3276846238177953e+01 1 0 -2
726 242 2 4.0999999999999998e-01 -1.1736782923535204e+01 -1.3791955203415577e+01 -1.3304322720061126e+01 1 9 -2
724 242 1 -8.1999999999999995e-01 -1.1387385150402178e+01 -1.4162892816789444e+01 -1.2443890154863256e+01 1 9 -2
689 230 2 4.0999999999999998e-01 -9.9004667505917769e+00 -1.0678046518432838e+01 -1.0298744736998248e+01 6 -2 -1
1567 523 1 -8.1999999999999995e-01 -1.1619420315731640e+01 -9.9153531614234183e+00 -1.2579362944699684e+01 1 0 -2
1613 538 2 4.0999999999999998e-01 -8.2078620904723110e+00 -8.5499489641274984e+00 -1.0385069075891625e+01 4 1 -2
2281 761 1 -8.1999999999999995e-01 -1.0641442305552562e+01 -7.1187303906573121e+00 -8.5073010460932537e+00 -3 -3 3
417 139 2 4.0999999999999998e-01 -8.6713390833918247e+00 -1.0226045002791317e+01 -1.2472536034556171e+01 -1 2 7
725 242 2 4.0999999999999998e-01 -1.0531541282943163e+01 -1.4651182114110860e+01 -1.2614543447917237e+01 1 9 -2
2282 761 2 4.0999999999999998e-01 -1.0292669358036751e+01 -6.2158970674390943e+00 -8.7588306212313398e+00 -3 -3 3
1429 477 1 -8.1999999999999995e-01 -1.0491271042004573e+01 -1.0431369407778345e+01 -8.7498530667212417e+00 1 -8 -2
688 230 1 -8.1999999999999995e-01 -9.5367026041050273e+00 -1.1007411341912274e+01 -1.1170072577308231e+01 6 -2 -1
1612 538 1 -8.1999999999999995e-01 -8.6449194318936335e+00 -7.6506426236556333e+00 -1.0369362746676320e+01 4 1 -2
690 230 2 4.0999999999999998e-01 -9.0202228241926132e+00 -1.1850185505330161e+01 -1.1018421434435437e+01 6 -2 -1
1166 389 2 4.0999999999999998e-01 -1.3979028201231694e+01 -1.2275810390645493e+01 -8.0146304075521542e+00 -1 6 0
2264 755 2 4.0999999999999998e-01 -9.2330304658523552e+00 -1.4968419525996509e+01 -1.4084291142873351e+01 2 1 -1
415 139 1 -8.1999999999999995e-01 -8.3384494033793644e+00 -1.0188653408042532e+01 -1.3414769576552320e+01 -1 2 7
1722 574 2 4.0999999999999998e-01 -9.3126243868805467e+00 -1.3467088752255133e+01 -1.0252751598291734e+01 2 1 -1
63 21 2 4.0999999999999998e-01 -1.3789061403369818e+01 -7.8045744406760891e+00 -1.1329285437029602e+01 0 -5 -3
1175 392 2 4.0999999999999998e-01 -1.1249616966700348e+01 -6.8856956485486620e+00 -1.2658929535966344e+01 -3 5 -1
719 240 2 4.0999999999999998e-01 -1.4372142817539418e+01 -6.9904624450081361e+00 -9.2602709460609489e+00 -1 2 -2
1482 494 2 4.0999999999999998e-01 -1.3979134575088052e+01 -1.3692841264774378e+01 -1.0419132821766514e+01 -2 -2 3
420 140 2 4.0999999999999998e-01 -9.5770907401941585e+00 -5.6775810799617012e+00 -1.3754395067612093e+01 0 4 0
1614 538 2 4.0999999999999998e-01 -9.3363535606576811e+00 -7.6286468192029879e+00 -9.6472459010483718e+00 4 1 -2
1721 574 2 4.0999999999999998e-01 -7.7582558746253030e+00 -1.3459620649725858e+01 -9.7521954102796844e+00 2 1 -1
1720 574 1 -8.1999999999999995e-01 -8.3597766762868169e+00 -1.3400758117006870e+01 -1.0548892125952790e+01 2 1 -1
416 139 2 4.0999999999999998e-01 -9.1134999560423466e+00 -1.0085881834371779e+01 -1.4038269660100035e+01 -1 2 7
61 21 1 -8.1999999999999995e-01 -1.2818341136411750e+01 -7.6854408625601351e+00 -1.1537916848464709e+01 0 -5 -3
1481 494 2 4.0999999999999998e-01 -1.4418534225772092e+01 -1.5031149573537698e+01 -1.1245288098177173e+01 -2 -2 3
2089 697 1 -8.1999999999999995e-01 -1.4482785114203448e+01 -1.3833305016858199e+01 -1.4485597279404848e+01 5 2 -1
1111 371 1 -8.1999999999999995e-01 -1.1777816952309630e+01 -1.2138313214117199e+01 -1.4324003782453204e+01 2 2 1
62 21 2 4.0999999999999998e-01 -1.2455984636633323e+01 -8.5301162786183689e+00 -1.1931920583390287e+01 0 -5 -3
165 55 2 4.0999999999999998e-01 -1.2557853715135954e+01 -1.1600915666041811e+01 -1.1410590080481988e+01 -3 -3 -2
170 57 2 4.0999999999999998e-01 -1.0624256520842536e+01 -8.5261984375814475e+00 -1.4243407150399635e+01 0 -2 -1
1480 494 1 -8.1999999999999995e-01 -1.4598685297835342e+01 -1.4477701907412273e+01 -1.0432109767615920e+01 -2 -2 3
36 12 2 4.0999999999999998e-01 -9.0767265242219448e+00 -1.2820629841050028e+01 -1.3520184755097199e+01 -3 3 2
1112 371 2 4.0999999999999998e-01 -1.2710604114696322e+01 -1.1836467223903004e+01 -1.4521018612225170e+01 2 2 1
2333 778 2 4.0999999999999998e-01 -8.0171491967124933e+00 -1.2701057187548118e+01 -7.7183722445562832e+00 0 -1 1
263 88 2 4.0999999999999998e-01 -1.4975376556213380e+01 -1.0521408993393893e+01 -1.4443912270616408e+01 -5 -6 -1
262 88 1 -8.1999999999999995e-01 -1.4067186302847151e+01 -1.0652817418779097e+01 -1.4841328937517828e+01 -5 -6 -1
378 126 2 4.0999999999999998e-01 -1.1065693352656920e+01 -5.4593143342270540e+00 -1.4831379128590191e+01 4 -2 -3
795 265 2 4.0999999999999998e-01 -1.4070038312882954e+01 -1.0164331772094350e+01 -8.9823138918061929e+00 -1 -4 0
35 12 2 4.0999999999999998e-01 -7.8203723440493249e+00 -1.3568769979287904e+01 -1.2793181151912714e+01 -3 3 2
34 12 1 -8.1999999999999995e-01 -8.4961730621340976e+00 -1.3634831667937139e+01 -1.3527311225131580e+01 -3 3 2
1430 477 2 4.0999999999999998e-01 -9.8518658176659155e+00 -1.1164175678079747e+01 -8.5171007086021806e+00 1 -8 -2
1431 477 2 4.0999999999999998e-01 -1.0705380932465411e+01 -9.9024908338077076e+00 -7.9285966460871045e+00 1 -8 -2
329 110 2 4.0999999999999998e-01 -7.6695646486503222e+00 -5.5182283914823209e+00 -8.3536030148619336e+00 2 2 0
2283 761 2 4.0999999999999998e-01 -1.0496963557132677e+01 -7.2713556515667772e+00 -7.5296256841277245e+00 -3 -3 3
793 265 1 -8.1999999999999995e-01 -1.4934804693656343e+01 -1.0209883229332490e+01 -9.4824357544844453e+00 -1 -4 0
1788 596 2 4.0999999999999998e-01 -1.2683164568485779e+01 -5.6991108855393158e+00 -1.0986899053238204e+01 4 -3 5
2091 697 2 4.0999999999999998e-01 -1.4991017801168347e+01 -1.3342863815901321e+01 -1.3777653308511145e+01 5 2 -1
376 126 1 -8.1999999999999995e-01 -1.2034063067435197e+01 -5.2309928244201647e+00 -1.4932111939216073e+01 4 -2 -3
2255 752 2 4.0999999999999998e-01 -1.2849719949556967e+01 -1.4985671110345340e+01 -1.4686676104063467e+01 3 -2 6
418 140 1 -8.1999999999999995e-01 -9.1897837459457214e+00 -5.1370661034181673e+00 -1.4501291713595220e+01 0 4 0
1511 504 2 4.0999999999999998e-01 -5.9824611411507433e-01 -6.5875428226143224e+00 -1.1123017118119034e+01 1 2 4
1459 487 1 -8.1999999999999995e-01 -3.2181613425214941e+00 -6.8161872871354703e+00 -1.2337054311800719e+01 2 0 3
2421 807 2 4.0999999999999998e-01 -7.6191185155217056e-02 -1.0015433951883097e+01 -1.2519717113303022e+01 1 -2 -2
1461 487 2 4.0999999999999998e-01 -3.0156423030205701e+00 -6.1369588761011080e+00 -1.3042499192248236e+01 2 0 3
2376 792 2 4.0999999999999998e-01 -2.6243614749742505e-01 -1.4207368501571148e+01 -9.4845453665232355e+00 -2 2 -2
1627 543 1 -8.1999999999999995e-01 -5.1336734964660717e+00 -1.1882159354714101e+01 -1.4727384903085575e+01 -2 5 1
1460 487 2 4.0999999999999998e-01 -2.6189561385210052e+00 -6.6683667823723525e+00 -1.1550212564014306e+01 2 0 3
781 261 1 -8.1999999999999995e-01 -6.6010564481035612e+00 -7.9348901617516781e+00 -1.3144935694914889e+01 3 1 2
782 261 2 4.0999999999999998e-01 -7.2693468361468154e+00 -8.6590068076795301e+00 -1.3315407783940264e+01 3 1 2
1652 551 2 4.0999999999999998e-01 -7.0913389487926928e+00 -1.4931776750907042e+01 -1.1930303294949073e+01 4 -2 2
2362 788 1 -8.1999999999999995e-01 -6.8224279785771014e+00 -1.0028011189562374e+01 -9.9585853802337390e+00 0 2 2
1303 435 1 -8.1999999999999995e-01 -4.3119503946658639e+00 -1.2280267993656233e+01 -9.3792258902019991e+00 -4 1 -6
111 37 2 4.0999999999999998e-01 -1.7255575340537987e-01 -7.6164482824346909e+00 -8.6078282480585582e+00 -6 2 5
280 94 1 -8.1999999999999995e-01 -7.4968971229134240e-01 -1.2468431581537583e+01 -8.3693408095810327e+00 3 -1 4
2455 819 1 -8.1999999999999995e-01 -5.3716148075554795e+00 -7.5681716495781926e+00 -1.0532039664363925e+01 4 2 -4
1148 383 2 4.0999999999999998e-01 -2.6073984061692634e-01 -1.3953772640721311e+01 -1.2598240431852162e+01 7 0 -4
2456 819 2 4.0999999999999998e-01 -5.5446300049308466e+00 -6.9909508503275060e+00 -9.7339797629045215e+00 4 2 -4
156 52 2 4.0999999999999998e-01 -5.3608149609698099e+00 -1.2475155134192208e+01 -1.1453708392157553e+01 -1 -9 0
526 176 1 -8.1999999999999995e-01 -1.4308817252266959e+00 -5.1294674904362711e+00 -1.4165555839149768e+01 1 1 1
1147 383 1 -8.1999999999999995e-01 -9.4634594252376836e-01 -1.3381528097247255e+01 -1.3048238396401636e+01 7 0 -4
155 52 2 4.0999999999999998e-01 -4.8773436231279312e+00 -1.3535983628018563e+01 -1.2597199589504573e+01 -1 -9 0
1471 491 1 -8.1999999999999995e-01 -3.6022640630481337e+00 -1.4507615871321974e+01 -1.3386836125820757e+01 2 0 2
154 52 1 -8.1999999999999995e-01 -5.6663855119705531e+00 -1.3172920907493703e+01 -1.2101602891919454e+01 -1 -9 0
2364 788 2 4.0999999999999998e-01 -6.7055119248283024e+00 -1.0251861537480069e+01 -8.9909907496769410e+00 0 2 2
552 184 2 4.0999999999999998e-01 -3.2885052156270316e+00 -8.4692789251292222e+00 -1.3086464612929145e+01 -2 6 -1
2363 788 2 4.0999999999999998e-01 -6.1615625554365678e+00 -9.3245603778464066e+00 -1.0220179649316172e+01 0 2 2
1149 383 2 4.0999999999999998e-01 -1.1339208027559877e+00 -1.2578716980207787e+01 -1.2482263396338318e+01 7 0 -4
550 184 1 -8.1999999999999995e-01 -3.5434540412377551e+00 -9.2797892216386160e+00 -1.3613808792562123e+01 -2 6 -1
2568 856 2 4.0999999999999998e-01 -6.4705853813654457e+00 -1.4749995169521688e+01 -7.8907565588983131e+00 5 8 -9
1357 453 1 -8.1999999999999995e-01 -1.3214136587328014e+00 -1.0311339113650879e+01 -1.4877761150893962e+01 10 0 6
1512 504 2 4.0999999999999998e-01 -9.0287766374855849e-01 -8.1851190419678783e+00 -1.0975967573283773e+01 1 2 4
2419 807 1 -8.1999999999999995e-01 -5.8039315077848386e-01 -1.0007047206987110e+01 -1.1656161812509040e+01 1 -2 -2
970 324 1 -8.1999999999999995e-01 -5.5351156081386232e+00 -5.2926102597983302e+00 -9.1288780829902603e+00 0 -2 -1
23 8 2 4.0999999999999998e-01 -3.4862164355514036e+00 -1.4358452596591949e+01 -9.4216489463885811e+00 3 4 3
1629 543 2 4.0999999999999998e-01 -5.4783794316001000e+00 -1.2002580568730579e+01 -1.3796420749042422e+01 -2 5 1
2457 819 2 4.0999999999999998e-01 -4.6723697699407012e+00 -7.1422263166968518e+00 -1.1106186569074097e+01 4 2 -4
527 176 2 4.0999999999999998e-01 -6.6014849842091472e-01 -5.7624326659395937e+00 -1.4092459396305255e+01 1 1 1
1510 504 1 -8.1999999999999995e-01 -9.1261620728836412e-01 -7.3049751193321093e+00 -1.0501341894654114e+01 1 2 4
1304 435 2 4.0999999999999998e-01 -3.9983855395540751e+00 -1.1962387495286370e+01 -1.0274014580998042e+01 -4 1 -6
1473 491 2 4.0999999999999998e-01 -2.7838851091830872e+00 -1.3934723386996691e+01 -1.3432308589335857e+01 2 0 2
1862 621 2 4.0999999999999998e-01 -3.6707094228321857e+00 -1.0618027840250749e+01 -1.2528201845112303e+01 -2 1 4
1863 621 2 4.0999999999999998e-01 -2.5381364482252327e+00 -1.0913868472479734e+01 -1.1389592834283441e+01 -2 1 4
1861 621 1 -8.1999999999999995e-01 -3.3826935724980878e+00 -1.1248648531959763e+01 -1.1807520197024717e+01 -2 1 4
1305 435 2 4.0999999999999998e-01 -3.8330309114007370e+00 -1.1776851490848220e+01 -8.6600418503717531e+00 -4 1 -6
1808 603 2 4.0999999999999998e-01 -1.4008252397911409e+00 -5.7257766104603416e+00 -9.5861405105186606e+00 1 0 3
1358 453 2 4.0999999999999998e-01 -2.0988152322331892e+00 -9.9200780695362063e+00 -1.4385237778028225e+01 10 0 6
281 94 2 4.0999999999999998e-01 -1.5075726868107964e+00 -1.1845171239513656e+01 -8.1765256920788278e+00 3 -1 4
2566 856 1 -8.1999999999999995e-01 -6.7896990184995509e+00 -1.3859383473046444e+01 -8.2147858732105448e+00 5 8 -9
551 184 2 4.0999999999999998e-01 -4.4929940469535179e+00 -9.1957319501295913e+00 -1.3916010496649918e+01 -2 6 -1
915 305 2 4.0999999999999998e-01 -6.4942470619757220e+00 -6.7206860093463074e+00 -1.4254342247379336e+01 4 -2 5
783 261 2 4.0999999999999998e-01 -6.3280994966774298e+00 -7.9529351869216942e+00 -1.2183069514321096e+01 3 1 2
2567 856 2 4.0999999999999998e-01 -6.0027447953837250e+00 -1.3272839685771856e+01 -8.4063246976650987e+00 5 8 -9
971 324 2 4.0999999999999998e-01 -5.7272652473363639e+00 -5.1306298652081122e+00 -1.0096792640113355e+01 0 -2 -1
1628 543 2 4.0999999999999998e-01 -4.2697297196308739e+00 -1.2375340050705264e+01 -1.4829324399602656e+01 -2 5 1
914 305 2 4.0999999999999998e-01 -5.6353891328377941e+00 -5.4755242046997079e+00 -1.4869654285994622e+01 4 -2 5
1404 468 2 4.0999999999999998e-01 -8.2157758499201172e-01 -1.3765704363848160e+01 -1.4889510873270860e+01 0 -4 1
1065 355 2 4.0999999999999998e-01 -8.6670050079973642e+00 -5.5493687386614656e+00 -2.5918894799399510e+00 2 -3 5
1645 549 1 -8.1999999999999995e-01 -8.1566297401228383e+00 -1.2095679036830489e+01 -4.4102619562276537e+00 -5 6 -1
1797 599 2 4.0999999999999998e-01 -1.3649024601368644e+01 -6.8108170317181056e+00 -5.1449839359053371e+00 0 -2 0
2120 707 2 4.0999999999999998e-01 -1.3140741066594313e+01 -1.0521072157386751e+01 -1.0068075761063824e+00 0 -3 -1
2119 707 1 -8.1999999999999995e-01 -1.2256436354053978e+01 -1.0982354628795594e+01 -1.0792045225128462e+00 0 -3 -1
811 271 1 -8.1999999999999995e-01 -1.0694516480403999e+01 -1.1469358208377221e+01 -3.7226425457791752e+00 3 -4 0
1920 640 2 4.0999999999999998e-01 -1.3259303990763682e+01 -1.3898421193350602e+01 -4.6933050432053225e+00 -5 -2 6
812 271 2 4.0999999999999998e-01 -1.0949473012457091e+01 -1.1232657855097910e+01 -2.7850990658684012e+00 3 -4 0
813 271 2 4.0999999999999998e-01 -9.9491029896419221e+00 -1.2135795056904797e+01 -3.7072035486651735e+00 3 -4 0
2047 683 1 -8.1999999999999995e-01 -1.3483635096758045e+01 -7.0566933717490441e+00 -1.9746220769774858e+00 9 0 1
120 40 2 4.0999999999999998e-01 -1.4143668487581460e+01 -8.6418180958013320e+00 -1.2919663415891751e+00 -2 3 4
1625 542 2 4.0999999999999998e-01 -1.1085903679596056e+01 -9.0015168209599725e+00 -6.0558077533223678e+00 2 8 1
853 285 1 -8.1999999999999995e-01 -1.1558507744856019e+01 -1.0648896413113212e+01 -6.0231027171192331e+00 -1 -1 2
2429 810 2 4.0999999999999998e-01 -1.1917045876933898e+01 -1.4636614574004629e+01 -9.7386882690430809e-01 -5 -1 -3
1626 542 2 4.0999999999999998e-01 -1.1634409534782026e+01 -7.7068570194822614e+00 -5.2253433794163300e+00 2 8 1
1624 542 1 -8.1999999999999995e-01 -1.0944427369286483e+01 -8.0284368808513591e+00 -5.8738252472654242e+00 2 8 1
771 257 2 4.0999999999999998e-01 -1.0917734694158765e+01 -5.0279881355658844e+00 -6.2709989822695000e-01 1 -2 2
855 285 2 4.0999999999999998e-01 -1.1555362110434528e+01 -1.1047553252332436e+01 -5.1059982799751360e+00 -1 -1 2
2049 683 2 4.0999999999999998e-01 -1.3429996978461178e+01 -7.1557030034578455e+00 -2.9682707863651583e+00 9 0 1
2031 677 2 4.0999999999999998e-01 -9.3333533257612054e+00 -8.6763483858709307e+00 -5.5145951152512271e+00 2 6 -1
2048 683 2 4.0999999999999998e-01 -1.2690341440052038e+01 -6.5431702004231358e+00 -1.6475183700004727e+00 9 0 1
255 85 2 4.0999999999999998e-01 -1.3408004601939629e+01 -1.3310692136060686e+01 -2.5168095421231200e+00 -6 1 0
2332 778 1 -8.1999999999999995e-01 -8.6071111378295448e+00 -1.1939093928238259e+01 -7.4512119741465188e+00 0 -1 1
2334 778 2 4.0999999999999998e-01 -8.9062197098123619e+00 -1.2064888087951086e+01 -6.5053115558624253e+00 0 -1 1
2029 677 1 -8.1999999999999995e-01 -8.5178910988026502e+00 -9.2156661513781977e+00 -5.7247746326781623e+00 2 6 -1
1795 599 1 -8.1999999999999995e-01 -1.2797805226698115e+01 -6.5543437626928132e+00 -4.6870922821865548e+00 0 -2 0
1796 599 2 4.0999999999999998e-01 -1.2449321309203684e+01 -5.7046841270759181e+00 -5.0828891925807795e+00 0 -2 0
254 85 2 4.0999999999999998e-01 -1.2960490722675511e+01 -1.1982903011102486e+01 -3.3554877252509048e+00 -6 1 0
2030 677 2 4.0999999999999998e-01 -8.5424174780117781e+00 -1.0071894176624333e+01 -5.2087419477950299e+00 2 6 -1
2070 690 2 4.0999999999999998e-01 -8.0403898695055460e+00 -6.6329352540242574e+00 -4.2661221545661476e-01 -2 -6 2
1918 640 1 -8.1999999999999995e-01 -1.2978497435896148e+01 -1.4255901408647109e+01 -5.5840200591609754e+00 -5 -2 6
2352 784 2 4.0999999999999998e-01 -1.1700214723664061e+01 -5.3359042382444368e+00 -3.5797209433309813e+00 3 3 3
118 40 1 -8.1999999999999995e-01 -1.4574875411822998e+01 -9.4932738314004474e+00 -9.9346768012339837e-01 -2 3 4
253 85 1 -8.1999999999999995e-01 -1.3422859451316322e+01 -1.2867718574098616e+01 -3.4132310328799456e+00 -6 1 0
2428 810 1 -8.1999999999999995e-01 -1.2557750952876839e+01 -1.3908531447257957e+01 -1.2176098041769272e+00 -5 -1 -3
770 257 2 4.0999999999999998e-01 -1.0250871644310068e+01 -6.5123432366439733e+00 -7.6369179327317305e-01 1 -2 2
854 285 2 4.0999999999999998e-01 -1.1993383207317304e+01 -1.1284253667988875e+01 -6.6612423629725761e+00 -1 -1 2
1240 414 1 -8.1999999999999995e-01 -8.6117107971239477e+00 -5.3689445801384057e+00 -4.5062036176204909e+00 6 9 -1
2430 810 2 4.0999999999999998e-01 -1.2459464769979952e+01 -1.3148981401976730e+01 -5.7461582540958567e-01 -5 -1 -3
769 257 1 -8.1999999999999995e-01 -1.1042045665713538e+01 -6.0003065318345676e+00 -4.2920741742660695e-01 1 -2 2
1919 640 2 4.0999999999999998e-01 -1.2021323160799069e+01 -1.4542309599158850e+01 -5.5415295979484736e+00 -5 -2 6
1242 414 2 4.0999999999999998e-01 -8.3274502783752311e+00 -5.5874410770466323e+00 -5.4397307764448062e+00 6 9 -1
328 110 1 -8.1999999999999995e-01 -7.7734805788883508e+00 -5.3954704425617361e+00 -7.3666128064043948e+00 2 2 0
1647 549 2 4.0999999999999998e-01 -7.9281503669920870e+00 -1.3053617570992049e+01 -4.5839532159820777e+00 -5 6 -1
119 40 2 4.0999999999999998e-01 -1.4887786053163735e+01 -9.3950858883273813e+00 -4.8764660338809662e-02 -2 3 4
754 252 1 -8.1999999999999995e-01 -9.1429362925976747e+00 -1.3894232578714368e+01 -6.5823545806587980e-01 2 -1 -3
755 252 2 4.0999999999999998e-01 -9.8077937942207463e+00 -1.4464092787994545e+01 -1.1411863543557530e+00 2 -1 -3
1063 355 1 -8.1999999999999995e-01 -8.2735454958936927e+00 -5.4581373737036003e+00 -1.6770757428999765e+00 2 -3 5
2121 707 2 4.0999999999999998e-01 -1.1593843549349620e+01 -1.0528194961445758e+01 -4.8361449980247428e-01 0 -3 -1
1167 389 2 4.0999999999999998e-01 -1.3176471702711744e+01 -1.2875370378727629e+01 -6.7250162703173348e+00 -1 6 0
2229 743 2 4.0999999999999998e-01 -1.4756238764615011e+01 -7.1063041207845163e+00 -6.8638883080082831e+00 -2 -1 -1
1165 389 1 -8.1999999999999995e-01 -1.3121068796649142e+01 -1.2247853421821391e+01 -7.5016569381606057e+00 -1 6 0
84 28 2 4.0999999999999998e-01 -7.7647521434893410e+00 -1.2743903135056449e+01 -8.6967349086061319e-01 1 -6 0
1655 552 2 4.0999999999999998e-01 -2.7014699614618642e-01 -1.3459955254975826e+01 -7.9263105892648511e-01 -1 5 -6
330 110 2 4.0999999999999998e-01 -6.8744013176902889e+00 -5.2561392236292228e+00 -6.9515694027206099e+00 2 2 0
665 222 2 4.0999999999999998e-01 -7.4573808272796738e+00 -6.9689880014025061e+00 -3.4851977868456760e+00 -1 0 -2
1969 657 1 -8.1999999999999995e-01 -5.4723767749428767e+00 -8.0880974957787508e+00 -3.8109411815103300e-01 -2 6 1
664 222 1 -8.1999999999999995e-01 -6.9385265447860363e+00 -7.7566516373789263e+00 -3.8174536348199481e+00 -1 0 -2
666 222 2 4.0999999999999998e-01 -7.3312729972878605e+00 -8.0745126952992337e+00 -4.6804323664233358e+00 -1 0 -2
83 28 2 4.0999999999999998e-01 -6.7668560064876289e+00 -1.1809849885067512e+01 -1.7632178772064986e+00 1 -6 0
569 190 2 4.0999999999999998e-01 -4.2510352012989649e-01 -1.1543972871043788e+01 -4.3205035606801392e+00 4 -4 -3
2380 794 1 -8.1999999999999995e-01 -2.8830213087693615e+00 -1.0949462312089658e+01 -7.3765138930266438e+00 -1 3 4
546 182 2 4.0999999999999998e-01 -2.8423763013461478e+00 -1.4586687377580636e+01 -5.7912022061100785e+00 0 -2 0
1646 549 2 4.0999999999999998e-01 -7.3476307685346010e+00 -1.1616504962861180e+01 -4.0697762334074810e+00 -5 6 -1
2538 846 2 4.0999999999999998e-01 -4.9072263745992704e+00 -8.1867372750040843e+00 -7.3571823290551448e+00 -2 3 -1
1135 379 1 -8.1999999999999995e-01 -1.5462289598063936e+00 -8.8678140206456142e+00 -6.0244031299499508e+00 -1 2 2
2097 699 2 4.0999999999999998e-01 -5.3878443270201775e+00 -1.0246982614434874e+01 -2.4040059139882750e+00 3 5 -4
2096 699 2 4.0999999999999998e-01 -6.8461932853265317e+00 -9.6825318974809598e+00 -2.8744178834943241e+00 3 5 -4
2095 699 1 -8.1999999999999995e-01 -6.2573548010042188e+00 -1.0489789306440375e+01 -2.8341386218826319e+00 3 5 -4
1309 437 1 -8.1999999999999995e-01 -6.0841583815258602e+00 -1.4565991532905331e+01 -5.6445614838056937e+00 -2 -1 -1
386 129 2 4.0999999999999998e-01 -6.8874060072654775e+00 -9.4253717674195858e+00 -6.6262569046723510e+00 1 8 2
568 190 1 -8.1999999999999995e-01 -1.3235595799412057e+00 -1.1195529977103195e+01 -4.5876776435816904e+00 4 -4 -3
1324 442 1 -8.1999999999999995e-01 -5.3981271755269287e+00 -5.2074806549381467e+00 -5.9120553102470979e+00 -4 4 2
181 61 1 -8.1999999999999995e-01 -5.1575632267693532e+00 -1.1888386347805207e+01 -5.5626069329646057e+00 2 2 1
2382 794 2 4.0999999999999998e-01 -3.6687560497863494e+00 -1.1210441401478244e+01 -6.8156854327421534e+00 -1 3 4
182 61 2 4.0999999999999998e-01 -5.6028789886783663e+00 -1.2769064667549124e+01 -5.7242154085711388e+00 2 2 1
183 61 2 4.0999999999999998e-01 -4.9170534385253877e+00 -1.1809044015399813e+01 -4.5951993017606103e+00 2 2 1
82 28 1 -8.1999999999999995e-01 -6.8414209319362183e+00 -1.2365496678942250e+01 -9.3513912129531462e-01 1 -6 0
570 190 2 4.0999999999999998e-01 -1.8836863362865408e+00 -1.1948337855612756e+01 -4.9334463140375409e+00 4 -4 -3
385 129 1 -8.1999999999999995e-01 -6.1141077296917477e+00 -9.8620184012611851e+00 -7.0860037989016069e+00 1 8 2
1136 379 2 4.0999999999999998e-01 -8.4979935493072922e-01 -8.1902967457215041e+00 -5.7878151839790561e+00 -1 2 2
545 182 2 4.0999999999999998e-01 -1.2734873842127783e+00 -1.4147503474304637e+01 -5.6799420870821944e+00 0 -2 0
365 122 2 4.0999999999999998e-01 -2.7491325275056333e-01 -5.8828099456403731e+00 -5.7929033177147140e+00 -2 1 0
978 326 2 4.0999999999999998e-01 -3.9067283671983315e+00 -7.2194042666765013e+00 -2.7906936487375162e+00 1 1 0
1546 516 1 -8.1999999999999995e-01 -1.2515512833875899e+00 -6.4021389476369617e+00 -4.9121676566247530e-01 1 3 7
837 279 2 4.0999999999999998e-01 -2.8064458534687571e+00 -1.3166486262464172e+01 -1.6204149106354873e+00 1 4 7
835 279 1 -8.1999999999999995e-01 -2.3842642608256792e+00 -1.2540368337621926e+01 -9.6485656396790986e-01 1 4 7
2140 714 1 -8.1999999999999995e-01 -3.6669807436859472e+00 -1.4236165347117804e+01 -2.7857877533421167e+00 -3 -1 5
2127 709 2 4.0999999999999998e-01 -3.1933963501346341e-01 -8.0142048716097740e+00 -1.3106060334095595e+00 7 -2 2
1110 370 2 4.0999999999999998e-01 -3.6188988257738615e+00 -9.5915355906023514e+00 -2.6997966867462342e+00 1 -1 3
1108 370 1 -8.1999999999999995e-01 -3.0963082388540837e+00 -1.0043023788906227e+01 -1.9765573139139612e+00 1 -1 3
2306 769 2 4.0999999999999998e-01 -3.9846079412809772e+00 -7.9672821849184521e+00 -4.9779462368384539e+00 4 1 2
1109 370 2 4.0999999999999998e-01 -2.1373765823983639e+00 -9.7655135873019230e+00 -2.0353441306959787e+00 1 -1 3
836 279 2 4.0999999999999998e-01 -2.4307810388162672e+00 -1.1606198721789966e+01 -1.3186659098303508e+00 1 4 7
2125 709 1 -8.1999999999999995e-01 -4.5641206679208324e-01 -8.7984197404861035e+00 -1.9157803135794609e+00 7 -2 2
2536 846 1 -8.1999999999999995e-01 -4.3337060795096622e+00 -7.4801406206890677e+00 -6.9426785886131572e+00 -2 3 -1
977 326 2 4.0999999999999998e-01 -4.3339390028914178e+00 -5.6916822339573230e+00 -2.4030982403188901e+00 1 1 0
1970 657 2 4.0999999999999998e-01 -4.9462971485629303e+00 -7.4650516172636543e+00 -9.5994794987869625e-01 -2 6 1
1325 442 2 4.0999999999999998e-01 -5.0296672248851042e+00 -6.0878345968004144e+00 -6.2107724791743397e+00 -4 4 2
2307 769 2 4.0999999999999998e-01 -5.2825473208512026e+00 -8.2780662902706936e+00 -4.0369678353112608e+00 4 1 2
1548 516 2 4.0999999999999998e-01 -2.0682584734139891e+00 -6.4440808332355868e+00 -1.0667582067833461e+00 1 3 7
976 326 1 -8.1999999999999995e-01 -3.8881763481177654e+00 -6.5236244213582069e+00 -2.0726658192529150e+00 1 1 0
387 129 2 4.0999999999999998e-01 -5.9858245790528990e+00 -1.0783702599387905e+01 -6.7198625758618018e+00 1 8 2
2305 769 1 -8.1999999999999995e-01 -4.2868701903070949e+00 -8.3441484264816399e+00 -4.1023737991946945e+00 4 1 2
1137 379 2 4.0999999999999998e-01 -1.3983356343817785e+00 -9.6989809511239180e+00 -5.4883930337105600e+00 -1 2 2
2141 714 2 4.0999999999999998e-01 -3.2063976361532429e+00 -1.4418315494199922e+01 -3.6545237499537429e+00 -3 -1 5
2537 846 2 4.0999999999999998e-01 -3.3787235797083390e+00 -7.6351344649375497e+00 -7.1956668229953147e+00 -2 3 -1
2381 794 2 4.0999999999999998e-01 -2.3411047650463459e+00 -1.0262714232589584e+01 -6.8920334809607162e+00 -1 3 4
544 182 1 -8.1999999999999995e-01 -2.1116446837300487e+00 -1.4320367595875391e+01 -5.1626142860037394e+00 0 -2 0
282 94 2 4.0999999999999998e-01 -4.3608261933283110e-01 -1.2885755800378055e+01 -7.5163995440479860e+00 3 -1 4
1812 604 2 4.0999999999999998e-01 -1.4462027022773157e+01 -9.7027477514722555e+00 1.8456355284567980e+00 1 -4 -2
2035 679 1 -8.1999999999999995e-01 -1.4902731206584351e+01 -7.0822515827738002e+00 5.9017649539941939e+00 1 -2 4
2036 679 2 4.0999999999999998e-01 -1.4355850935313134e+01 -7.2750847801568623e+00 6.7164765624718843e+00 1 -2 4
379 127 1 -8.1999999999999995e-01 -1.3192929607102133e+01 -1.0742314109093650e+01 2.1391421294414084e+00 4 -1 2
756 252 2 4.0999999999999998e-01 -9.3712733247390325e+00 -1.3867720220260036e+01 3.1499474002426808e-01 2 -1 -3
2371 791 1 -8.1999999999999995e-01 -1.1999767891785275e+01 -1.3304370059299961e+01 3.6550365184963223e+00 2 -2 0
359 120 2 4.0999999999999998e-01 -1.0645785675920099e+01 -7.7505493365533455e+00 5.2318746514850343e+00 -6 4 3
2224 742 1 -8.1999999999999995e-01 -1.3185042630035664e+01 -6.5364513664515833e+00 1.5597552779737835e+00 2 0 4
332 111 2 4.0999999999999998e-01 -1.0289478675359728e+01 -9.1028234946082875e+00 1.5541831635130432e+00 2 3 -2
331 111 1 -8.1999999999999995e-01 -1.0402504288597093e+01 -9.8760903079534330e+00 9.3024296417496011e-01 2 3 -2
2075 692 2 4.0999999999999998e-01 -1.0074347591253346e+01 -6.4475101647421678e+00 2.8552406799092100e+00 2 0 -1
2076 692 2 4.0999999999999998e-01 -9.2234408782594066e+00 -7.1634552284027686e+00 1.6593919977929463e+00 2 0 -1
2074 692 1 -8.1999999999999995e-01 -9.6657046124310497e+00 -7.3058372958761604e+00 2.5449132355462201e+00 2 0 -1
358 120 1 -8.1999999999999995e-01 -1.0394075165997531e+01 -7.4804235504896601e+00 6.1612247403246254e+00 -6 4 3
9 3 2 4.0999999999999998e-01 -1.1294440087055825e+01 -8.5259640659369964e+00 7.1440726159832391e+00 1 3 -2
333 111 2 4.0999999999999998e-01 -9.6015869699146492e+00 -1.0471949964803542e+01 9.8940760742659073e-01 2 3 -2
7 3 1 -8.1999999999999995e-01 -1.1704465718675069e+01 -9.3815539275294952e+00 7.4600831176443858e+00 1 3 -2
8 3 2 4.0999999999999998e-01 -1.2176355949327313e+01 -9.8261869518826916e+00 6.6987430103999248e+00 1 3 -2
381 127 2 4.0999999999999998e-01 -1.2208461525178887e+01 -1.0571370644097753e+01 2.1793743465914961e+00 4 -1 2
2373 791 2 4.0999999999999998e-01 -1.2860781749465971e+01 -1.3476044621512905e+01 3.1762874458730952e+00 2 -2 0
380 127 2 4.0999999999999998e-01 -1.3359942992039077e+01 -1.1628767368156389e+01 1.7074885475324866e+00 4 -1 2
2372 791 2 4.0999999999999998e-01 -1.1767756664209022e+01 -1.4097371255791249e+01 4.2183637609778284e+00 2 -2 0
1228 410 1 -8.1999999999999995e-01 -8.1280093382680221e+00 -1.1139651422477959e+01 1.4648690442904435e+00 0 3 -2
285 95 2 4.0999999999999998e-01 -8.0094174055340481e+00 -1.2673613590705934e+01 5.2257562127921187e+00 -2 1 7
2226 742 2 4.0999999999999998e-01 -1.3631323682041744e+01 -7.4170596005335510e+00 1.4004440124870481e+00 2 0 4
1485 495 2 4.0999999999999998e-01 -1.1985565739551737e+01 -1.1757458368768667e+01 4.8475917466883143e+00 1 -7 6
2021 674 2 4.0999999999999998e-01 -1.5022940402871408e+01 -1.2781127876908471e+01 1.5695790926598310e+00 -4 2 0
2225 742 2 4.0999999999999998e-01 -1.2334029151420609e+01 -6.4945202707833989e+00 1.0362712168922901e+00 2 0 4