2611
Atoms. Timestep: 8000000
O 12.6655 -9.64485 -5.45144
H 13.48 -9.67199 -4.87208
H 12.5958 -10.4978 -5.96864
O 4.02347 10.653 5.78489
H 3.64909 11.0862 6.6047
H 3.40515 10.8075 5.01436
O 4.34423 5.88665 -4.0812
H 4.88243 6.24835 -3.32
H 4.95238 5.66325 -4.84288
O 3.3711 -5.38175 -14.3954
H 3.10326 -6.12668 -15.0063
H 4.36869 -5.33158 -14.3484
O -12.273 -12.7568 -0.077175
H -12.1985 -11.8953 0.424964
H -11.5427 -12.8098 -0.758239
O 5.10074 -12.7796 12.0814
H 4.95133 -13.5027 12.7557
H 5.80288 -13.0699 11.4313
O 9.3753 11.7112 13.4049
H 9.97534 11.1394 13.9643
H 9.64564 11.6386 12.4449
O 8.16604 6.09233 11.1516
H 7.84269 7.02214 10.9761
H 7.38173 5.48133 11.2586
O 8.77376 6.20869 1.24838
H 8.4454 6.7612 0.482335
H 8.87627 6.78773 2.05714
O 11.8446 0.542838 7.89521
H 10.8523 0.542322 8.01895
H 12.1572 1.47496 7.71272
O -0.530371 -11.472 -6.43913
H -0.771412 -11.375 -7.40474
H -0.498451 -10.5688 -6.01123
O -9.31 -8.17023 5.08517
H -8.64715 -8.90379 4.93545
H -9.22588 -7.8311 6.02209
O -7.3758 4.77103 -1.34803
H -7.05362 4.08246 -0.698441
H -7.06677 5.67584 -1.05526
O 13.0314 -7.1433 -6.57376
H 13.6893 -7.15253 -7.32679
H 12.8065 -8.08296 -6.31616
O 14.4309 5.89778 -2.15796
H 13.5773 5.74688 -1.65948
H 14.9101 5.02726 -2.2694
O -13.4188 -14.3455 -6.94197
H -13.5552 -13.3551 -6.96341
H -12.4975 -14.5621 -7.26465
O 2.5229 6.73074 -12.087
H 1.63007 7.13051 -11.8798
H 3.21978 7.15296 -11.5074
O 4.63652 15.0186 3.47655
H 5.27198 -14.3994 3.14351
H 4.88754 14.7566 4.40836
O -3.16942 -10.8989 5.42454
H -2.53927 -11.6655 5.54802
H -2.87433 -10.1302 5.99184
O -4.10533 4.4902 13.1165
H -4.94713 4.91281 13.4522
H -3.83494 3.75063 13.7328
O -13.2634 2.3095 -8.16316
H -12.876 2.93914 -8.83648
H -12.5236 1.83532 -7.68592
O -7.9115 -8.4158 -1.20197
H -6.92481 -8.29563 -1.3111
H -8.37859 -8.1061 -2.03011
O -5.65893 -8.00707 11.4425
H -5.22505 -8.44544 10.6554
H -5.35959 -8.45909 12.2827
O 7.03761 -0.180887 9.3963
H 7.24057 -0.295705 10.3687
H 6.05758 -0.0221653 9.27685
O 2.81289 12.168 7.78499
H 3.12244 13.1095 7.652
H 1.82158 12.1226 7.66193
O 10.8359 -5.93115 12.0463
H 11.2561 -5.11258 11.6547
H 10.3894 -5.69615 12.9096
O 3.30576 -8.20856 9.97948
H 3.96731 -8.81399 10.4219
H 2.86433 -7.63577 10.6701
O -9.94774 -14.8353 -13.0179
H -8.98886 -14.8469 -13.3013
H -10.3378 14.3646 -13.1242
O 9.81871 6.84263 3.82256
H 10.6253 6.9102 3.23544
H 9.98998 6.17707 4.54892
O -1.9053 -8.48459 -14.8989
H -2.13742 -8.01687 -14.0461
H -2.25759 -7.95953 14.441
O 8.40883 -9.37679 1.13715
H 8.68087 -9.53448 2.08638
H 7.43837 -9.13806 1.10382
O -8.44271 14.5975 13.5558
H -9.00078 14.0784 12.9086
H -8.31328 -14.5866 13.213
O 1.66168 2.80768 10.6582
H 0.885241 2.82084 11.2882
H 1.70204 3.67421 10.1608
O 6.85363 2.16523 -12.7789
H 6.08125 2.06922 -13.4066
H 6.55574 1.95085 -11.8487
O -1.81745 4.12005 8.82966
H -2.68137 3.61983 8.77217
H -1.05965 3.50132 8.62275
O 4.62545 5.82047 -9.33496
H 3.89293 5.73568 -8.65958
H 4.6569 6.75981 -9.67638
O -14.7746 8.5116 -1.96561
H 15.0242 8.56691 -1.01843
H 15.0227 7.65537 -2.37323
O -8.10957 -5.12206 6.19003
H -8.42628 -5.672 6.96279
H -8.89549 -4.70598 5.73274
O 0.416481 -10.9432 -0.237283
H -0.318202 -11.3502 -0.779964
H 1.20614 -11.5567 -0.232128
O 9.5165 -6.03883 1.46078
H 8.97903 -5.653 2.21056
H 10.2031 -5.37416 1.16645
O 10.4498 -13.8911 2.21034
H 11.1438 -14.4873 2.61376
H 9.58171 -14.0178 2.69025
O 14.1894 -8.48648 1.23459
H 14.8204 -7.81598 1.62458
H 13.6661 -8.91826 1.96916
O 8.83081 -13.8202 -0.206302
H 9.12523 -14.3405 -1.00786
H 9.59011 -13.7458 0.440094
O -4.73534 -6.69691 7.86212
H -5.46882 -6.20627 7.39182
H -3.85012 -6.35448 7.54744
O 1.21563 -6.95789 -13.1988
H 0.375958 -6.71993 -13.6869
H 1.99781 -6.86062 -13.8141
O 1.21648 6.23299 1.09879
H 0.827534 6.3379 2.01401
H 0.712329 6.80796 0.454472
O 4.24983 0.22272 9.42394
H 3.8949 0.676866 10.2411
H 3.77447 0.570931 8.61605
O 8.34732 10.8291 -6.02358
H 7.39079 11.0772 -5.87078
H 8.40532 10.173 -6.77595
O 5.30468 14.4673 6.12842
H 5.30846 -14.818 6.68726
H 5.8607 13.7642 6.57156
O 8.79355 -12.7035 -12.7678
H 9.53139 -13.2441 -12.3638
H 8.08236 -12.5457 -12.0829
O 0.691639 13.8482 0.666296
H 0.830125 13.4021 -0.217826
H -0.239067 14.2107 0.714579
O 8.89008 12.5748 -11.3089
H 8.57898 13.4701 -11.6278
H 8.14082 12.1103 -10.837
O 1.35741 -12.6218 14.7125
H 1.61844 -13.5822 14.6155
H 0.367702 -12.5566 14.8395
O 14.4848 6.86763 1.58492
H -14.7326 7.20628 1.86865
H 14.1331 7.43743 0.842283
O -11.4434 7.26188 4.68856
H -10.9691 6.42971 4.40138
H -11.6419 7.21148 5.66732
O -1.84512 13.6856 7.09815
H -1.57397 14.5656 7.48812
H -2.3188 13.8373 6.23066
O -2.52353 -8.55715 7.15609
H -1.7828 -7.96746 7.47778
H -3.28241 -8.52384 7.8064
O -12.4649 11.2574 11.8071
H -13.007 11.8701 11.2321
H -12.8283 11.2661 12.7387
O -6.71754 -5.7525 13.4784
H -5.87625 -5.33678 13.133
H -7.05394 -6.42288 12.8171
O 0.619153 -5.644 3.51412
H 1.35785 -5.02479 3.24803
H 0.87085 -6.12054 4.35641
O 14.1557 6.51474 8.35572
H 13.9812 6.36728 7.38223
H 14.8167 7.25679 8.46718
O 8.34388 10.3351 8.56272
H 7.80587 9.67569 8.03777
H 8.04007 11.2624 8.34411
O 12.8558 -7.25476 -0.791919
H 11.8807 -7.37304 -0.605053
H 13.3865 -7.8327 -0.171998
O -13.9528 -0.460726 -4.85
H -13.0859 -0.859414 -4.55076
H -14.0598 -0.596686 -5.83487
O -9.40919 5.11323 -3.10776
H -8.64401 5.07551 -2.46512
H -9.48597 4.23858 -3.58629
O -6.8499 -1.9001 10.394
H -7.82936 -1.70575 10.3413
H -6.37423 -1.11185 10.7843
O -6.53948 0.429283 3.94295
H -7.16784 -0.234286 4.34885
H -6.02825 0.890857 4.66787
O 13.8119 3.05757 4.07583
H 14.173 3.58429 3.30635
H 12.8823 2.75508 3.86567
O -1.2681 14.4003 -2.30736
H -1.07796 13.7377 -3.03169
H -0.500545 15.0362 -2.22751
O 11.6308 2.30695 -5.70583
H 12.2976 1.62542 -6.007
H 12.0956 3.01726 -5.17735
O 2.00242 11.902 -13.927
H 1.77547 12.6763 -13.3364
H 2.91939 11.5708 -13.7048
O -5.35284 -11.7781 12.6338
H -5.47645 -10.8091 12.8476
H -4.92083 -11.8691 11.7366
O 14.6794 -8.43558 11.1611
H -14.7019 -9.11436 11.1221
H 14.9636 -7.67062 11.7389
O -2.4259 -1.57446 6.47987
H -2.58277 -0.698396 6.02402
H -2.98836 -2.27993 6.04876
O 12.2435 -4.6362 -1.91053
H 12.0938 -4.8161 -2.8827
H 12.5565 -5.47284 -1.4611
O 6.57369 -4.44533 12.6764
H 7.46546 -4.20823 13.0617
H 5.85795 -3.93712 13.1553
O -10.7481 -12.0641 11.242
H -10.8399 -12.4882 10.3411
H -10.2932 -12.7002 11.8651
O -7.72796 -10.4389 4.44899
H -6.89459 -10.8959 4.75964
H -8.3855 -11.123 4.13354
O -11.4414 -8.21915 10.8834
H -11.9602 -8.70115 11.5893
H -10.7046 -8.80773 10.5509
O 6.89283 14.2284 -2.36029
H 6.17813 13.6891 -2.80556
H 7.17669 14.971 -2.96683
O -12.1195 5.24332 10.2157
H -11.896 4.50951 10.8572
H -11.5161 6.02386 10.3789
O 4.75761 11.3119 -13.2618
H 5.45464 11.4892 -13.9566
H 4.9241 10.4194 -12.8428
O 9.75871 -10.4511 -7.81104
H 8.91861 -10.5605 -8.34223
H 10.5255 -10.8492 -8.31443
O 8.06332 -7.97203 -3.01107
H 9.01035 -8.2923 -2.98935
H 7.44746 -8.757 -3.07771
O 5.78844 5.53852 -6.31743
H 5.82237 5.39616 -7.30662
H 6.15389 6.44311 -6.09816
O -12.297 -6.57938 -0.131742
H -12.8999 -6.77976 0.64046
H -11.3788 -6.92337 0.0642794
O 4.73175 -8.35249 -11.9165
H 4.93875 -7.96596 -12.8152
H 5.18416 -9.23932 -11.8229
O -2.7837 -0.922512 -11.1231
H -2.55308 -1.62729 -11.794
H -3.20373 -1.34931 -10.3223
O -9.4321 -8.02209 -3.37716
H -9.3104 -7.39581 -4.14713
H -10.3677 -7.94816 -3.03205
O -0.411765 -14.2555 7.81013
H 0.555282 -14.1104 8.01909
H -0.969731 -13.9377 8.57666
O 1.31646 -6.20601 -10.4894
H 1.15735 -6.51857 -11.4258
H 1.33133 -5.20636 -10.4697
O -10.358 4.43862 12.7013
H -10.9732 3.65744 12.8069
H -9.94344 4.65809 13.5844
O -5.96535 -3.07671 -5.01954
H -6.66034 -2.65912 -4.43429
H -5.10366 -2.57907 -4.92083
O 0.370623 -9.49122 14.5265
H -0.573702 -9.4579 14.8536
H 0.898289 -10.1222 -15.0195
O -4.80423 -9.14654 8.82508
H -5.49823 -9.64099 8.30182
H -4.76829 -8.19615 8.51627
O -9.67584 -1.4049 9.98275
H -10.0745 -2.21527 10.412
H -10.4075 -0.798768 9.67111
O -5.18788 7.78986 7.02457
H -4.99971 8.77118 7.06352
H -4.32473 7.28593 6.99429
O 6.53172 -14.6223 -4.73703
H 6.9542 -14.8505 -5.61413
H 5.92334 -13.8374 -4.85434
O -1.92059 14.697 1.46905
H -2.84746 14.3639 1.64182
H -1.62455 -14.8444 2.23313
O -11.6055 6.64564 13.0564
H -11.1091 5.79132 12.9027
H -11.0139 7.41991 12.832
O -13.3269 -0.533084 14.6059
H -13.8149 -0.59271 -14.6379
H -13.9184 -0.108383 13.9206
O 2.15926 8.38356 -4.97685
H 1.24901 8.20985 -4.60111
H 2.64453 7.51649 -5.08912
O 8.78512 8.11148 -0.612886
H 9.3976 7.77753 -1.3293
H 8.06885 8.6759 -1.02313
O -13.7083 1.06808 -2.27895
H -14.6909 1.05098 -2.09416
H -13.528 0.638071 -3.16354
O -7.57952 2.274 0.0226284
H -7.99739 1.94723 -0.825025
H -8.23666 2.191 0.771753
O 14.7088 -14.4705 2.42517
H 14.9398 -14.3168 1.46448
H -14.8111 -13.9128 3.00428
O 12.3315 2.09116 12.1317
H 11.7884 1.53608 11.5017
H 13.2513 1.70633 12.2068
O -12.4708 -14.9274 4.61397
H -12.2628 14.9128 3.67517
H -12.9956 14.4645 5.06383
O 4.69092 13.1739 -7.93267
H 3.74756 13.2727 -7.61614
H 4.79449 13.6265 -8.81829
O -14.9191 -3.86886 12.9597
H 14.5692 -3.22529 13.3997
H -14.247 -3.36308 12.4189
O 4.30871 -4.50877 0.855729
H 3.97604 -4.20838 1.7496
H 4.78045 -3.7516 0.403996
O -13.3295 10.7948 -5.90021
H -13.1422 11.7493 -5.66839
H -12.7695 10.1965 -5.3271
O -1.91106 -4.90892 4.13045
H -2.41972 -5.67219 3.73222
H -0.957631 -4.95198 3.83209
O 8.31986 6.78691 -12.0192
H 7.41834 6.42568 -12.2573
H 8.98702 6.04207 -12.0155
O -12.9455 10.8147 -12.1318
H -12.5131 11.2712 -11.3543
H -12.4065 10.0127 -12.3893
O 12.1737 9.02066 4.64106
H 11.583 9.63395 5.16535
H 11.7431 8.12075 4.57293
O 14.5635 1.9244 10.1746
H 14.2858 1.26767 9.4735
H 15.0025 2.71055 9.73966
O -4.24563 12.0416 -8.37085
H -4.20747 12.9227 -8.84212
H -4.50947 12.1849 -7.41704
O 4.44369 8.08456 -10.4666
H 5.12636 8.37214 -11.1383
H 4.488 8.68508 -9.66826
O -3.42584 14.8175 -9.58115
H -4.02128 -14.6924 -9.0522
H -2.49808 14.8553 -9.21002
O 9.65023 -5.27866 14.5606
H 9.75709 -5.45733 -14.5759
H 8.94179 -5.87784 14.1878
O -5.27826 -5.52449 -14.0599
H -5.61303 -5.78917 -14.9642
H -5.19265 -4.52925 -14.0144
O 7.46716 -13.427 10.2406
H 7.31625 -14.411 10.3348
H 8.21422 -13.1453 10.8426
O -8.49859 -2.15976 -0.103012
H -8.10772 -2.92443 -0.615254
H -7.77365 -1.51423 0.137149
O 13.2307 -14.1124 9.72831
H 13.0479 -13.1293 9.7327
H 14.0315 -14.3 9.15964
O -1.43881 -9.17679 -5.02001
H -0.881403 -8.96755 -4.21663
H -2.09911 -9.8918 -4.79051
O 8.39664 2.11379 -2.00677
H 9.08249 1.74242 -2.63254
H 8.33924 1.53483 -1.19349
O -10.4571 3.06526 3.96784
H -10.0306 3.96971 3.96644
H -11.4174 3.14917 3.70194
O -3.42788 -1.96356 -4.70252
H -3.28046 -1.8261 -5.68195
H -2.9731 -1.23426 -4.19143
O -14.1144 -12.7845 4.61087
H -14.287 -12.499 5.55353
H -13.4487 -13.5306 4.60519
O 2.2183 3.84365 -4.89545
H 2.97954 4.45875 -4.69031
H 1.54726 3.88545 -4.15527
O -4.73375 -1.6523 -9.31716
H -5.21703 -0.824446 -9.60176
H -5.38429 -2.29628 -8.91467
O 4.83561 4.61261 -14.945
H 4.11454 5.28469 -14.7769
H 4.67024 3.79964 -14.3868
O -4.96451 15.0512 10.5181
H -4.77597 14.488 11.3226
H -5.86488 -14.6386 10.6122
O -6.31641 5.93027 5.39608
H -5.68147 5.26917 4.99645
H -5.81485 6.5534 5.99611
O 11.6981 -3.41098 11.7244
H 12.4631 -3.30666 11.089
H 12.0253 -3.29377 12.662
O -5.21924 6.76783 1.14021
H -5.47502 5.83633 1.39865
H -5.78339 7.06704 0.37073
O 5.75351 2.68544 0.980548
H 5.72686 3.01692 0.0375141
H 5.92341 3.45272 1.59887
O 7.48427 0.146662 -9.48146
H 7.13648 -0.731999 -9.80841
H 6.78332 0.849137 -9.60431
O -7.57524 13.0684 9.64121
H -7.52233 13.9757 10.0583
H -6.77085 12.5345 9.90157
O 6.29387 0.766821 13.8431
H 6.78967 0.168167 13.214
H 6.18231 1.66896 13.4264
O -7.43818 -14.0575 10.5821
H -7.56224 -13.6741 9.6669
H -7.5919 -13.3443 11.2659
O -7.13369 -13.7773 3.06927
H -6.73129 -13.2321 2.33394
H -7.95982 -14.2305 2.73445
O -13.3067 -13.3608 13.3213
H -13.6916 -12.4711 13.5666
H -13.1978 -13.4147 12.3288
O 13.8648 9.14858 0.351847
H 12.9973 9.55624 0.0669882
H 14.2825 9.71582 1.06153
O -4.27783 -7.01801 2.98861
H -3.5871 -7.47184 3.55149
H -5.11874 -7.55909 2.99217
O -2.08959 -8.77683 -10.2213
H -2.83128 -8.10896 -10.1601
H -1.545 -8.74792 -9.38317
O 14.5058 -5.11146 0.465083
H 13.768 -5.77366 0.334452
H 14.9423 -5.26927 1.35075
O 7.75812 7.20515 -5.42816
H 8.52494 6.59039 -5.2439
H 7.76187 7.95144 -4.76262
O 11.1362 10.5211 2.05603
H 11.0443 11.5056 1.90696
H 10.4934 10.2299 2.76443
O -0.213177 2.09435 -13.0289
H 0.60705 1.75005 -12.5722
H -1.00442 1.972 -12.4299
O 9.52881 13.6439 5.78288
H 9.58122 14.64 5.71266
H 9.38397 13.2529 4.87402
O -10.8954 -1.13034 3.44215
H -10.0736 -0.72371 3.04331
H -10.69 -2.05722 3.75613
O -5.7826 7.4807 -14.7976
H -5.83159 7.33504 14.3289
H -5.69714 6.59858 -14.3345
O 10.5215 -7.78018 3.81763
H 10.2322 -8.7324 3.91499
H 10.1519 -7.40478 2.96769
O 10.8371 7.26146 -2.74166
H 11.4178 6.87364 -2.02594
H 10.4882 6.52618 -3.32264
O 0.560644 -5.7014 -5.87463
H 1.20796 -5.66106 -5.11354
H 0.858367 -6.39651 -6.5289
O -11.8051 12.0357 2.20717
H -11.8268 11.1593 1.72609
H -12.1869 11.922 3.12433
O 14.0855 -2.26841 1.72573
H 14.192 -1.74394 0.88104
H 14.7759 -1.97737 2.38799
O -11.5999 -8.29909 8.19181
H -11.7919 -8.02608 9.13442
H -12.4612 -8.44288 7.7045
O 12.6104 -3.73846 -6.71459
H 12.6518 -4.18394 -7.60887
H 11.9293 -4.19791 -6.14456
O 4.39494 -5.90431 -1.72177
H 4.20668 -5.67839 -0.76604
H 5.07055 -5.26483 -2.08856
O 11.4008 -11.5256 -10.1364
H 12.0687 -12.2155 -9.85748
H 11.8654 -10.6528 -10.2853
O -13.5962 -12.4229 7.14341
H -12.6133 -12.2394 7.13282
H -14.0349 -11.8494 7.83511
O 7.10906 -8.78122 -6.19223
H 8.09262 -8.72612 -6.02051
H 6.63058 -8.13236 -5.60066
O -8.7612 10.3009 8.96243
H -8.5507 10.0759 8.01112
H -8.33857 11.1756 9.19946
O 5.36518 -12.0851 -5.93308
H 5.02258 -11.5049 -5.19424
H 6.35562 -11.9731 -6.01289
O -6.62308 -8.76354 2.72562
H -6.96015 -9.39723 3.42185
H -6.5751 -9.2322 1.8436
O 5.62696 9.22245 3.6537
H 6.2065 9.85293 3.13743
H 4.95694 9.743 4.18285
O -2.26235 9.89919 -6.74223
H -1.86679 9.02652 -7.02838
H -3.25299 9.87609 -6.87646
O 10.8951 -1.18787 14.8723
H 10.1043 -1.51957 14.358
H 10.7527 -0.230006 -14.993
O -9.68617 11.693 14.9907
H -9.91938 10.7213 14.9547
H -9.26181 11.9016 -14.2428
O 1.77033 -11.8364 -4.09796
H 1.9381 -12.6311 -4.68127
H 1.10569 -11.2335 -4.53916
O 2.63997 -7.93622 14.5257
H 3.4498 -8.5227 14.515
H 1.83891 -8.47866 14.7786
O -14.042 12.6193 9.8722
H -14.7275 13.0977 10.4209
H -14.3753 11.7039 9.64658
O -6.09888 -9.78859 -8.61992
H -6.59129 -10.6292 -8.8455
H -5.54688 -9.50503 -9.40401
O 12.6254 -11.5013 9.29309
H 12.8505 -10.8004 8.61637
H 11.7769 -11.2531 9.76037
O -1.42925 2.46963 -7.1911
H -1.29392 1.51436 -6.92832
H -2.38116 2.6086 -7.46396
O -5.53943 -14.1456 14.4187
H -6.30095 -13.7018 14.8909
H -5.53438 -13.8663 13.4585
O 14.4553 10.4185 9.09016
H 13.4835 10.1926 9.15763
H 15.0011 9.6337 9.38373
O 10.9401 5.5102 -13.1534
H 11.4968 5.65295 -13.9717
H 10.8501 4.52981 -12.9784
O -13.3167 4.07955 5.70434
H -13.5023 3.29641 6.29774
H -12.634 4.66974 6.13513
O 5.59547 -6.70721 -4.90894
H 6.13972 -6.06683 -4.36709
H 5.16325 -6.21889 -5.667
O -5.52102 4.71107 -13.8987
H -5.10729 3.9192 -14.3478
H -6.16409 4.3993 -13.1993
O 11.7552 -8.44473 11.2354
H 12.6655 -8.83632 11.102
H 11.8397 -7.53784 11.6481
O 1.84281 9.36954 -8.10164
H 2.49876 9.18302 -7.37031
H 2.07684 10.2338 -8.54684
O -6.64786 -11.9426 -14.1518
H -7.64222 -12.0319 -14.0955
H -6.40756 -10.9844 -14.3071
O 2.73252 -5.69203 12.4702
H 2.47286 -4.80502 12.8519
H 1.90921 -6.2256 12.2769
O -8.6664 -1.89156 -10.3086
H -7.94343 -1.35995 -9.86745
H -8.48675 -1.9479 -11.2906
O 3.03365 -10.9218 -11.5401
H 2.96217 -10.86 -12.5356
H 2.54611 -10.1549 -11.1228
O -13.3829 -13.659 10.5602
H -13.9728 -13.263 9.85659
H -12.7052 -14.2553 10.1299
O -11.0336 -5.39103 -10.6986
H -10.8454 -6.3483 -10.4793
H -11.1305 -4.86794 -9.8519
O -14.6879 -6.65767 8.50956
H -14.3088 -6.19681 9.31191
H 14.4381 -6.51059 8.4768
O -13.523 0.280667 1.91139
H -13.1882 0.788127 2.70529
H -14.3978 0.6641 1.61544
O -9.94142 -5.98461 11.6223
H -10.5947 -6.69643 11.3646
H -9.07925 -6.13226 11.1378
O -8.21813 9.70668 6.3243
H -7.25894 9.82242 6.06648
H -8.79275 10.2727 5.7333
O -13.9644 8.60548 9.78182
H -13.0349 8.96959 9.72466
H -14.0467 8.02774 10.5938
O 11.6774 -14.2333 -14.1054
H 11.2278 -14.8352 -14.7652
H 12.6465 -14.1492 -14.3374
O -11.6529 2.07925 13.0963
H -12.5911 1.73849 13.1552
H -11.1947 1.9476 13.9753
O -11.1665 -0.636112 -4.28937
H -10.8625 -1.51411 -4.659
H -10.7558 -0.493462 -3.38887
O 9.77865 -8.34106 -6.12017
H 10.5301 -8.48054 -5.4753
H 9.75021 -9.1019 -6.76841
O 12.7731 -13.7579 -9.32983
H 12.3882 -14.218 -10.1299
H 12.917 -14.4249 -8.59888
O 13.3039 -3.10412 9.54966
H 12.6482 -2.88249 8.82796
H 14.1689 -2.63597 9.36934
O 7.11448 -0.606187 -13.5331
H 7.11434 0.225843 -12.9785
H 7.14627 -0.360877 -14.502
O -14.7541 0.465976 12.4449
H -14.2787 -0.354022 12.1263
H -15.0426 1.01099 11.6578
O 1.18402 -3.13703 -10.3235
H 0.70295 -3.1367 -9.44683
H 1.61579 -2.24661 -10.467
O -11.4843 -9.61741 -0.325028
H -10.9117 -10.3501 -0.692662
H -10.9109 -8.95873 0.162046
O 14.2836 13.3291 14.0739
H 13.572 12.6753 14.3312
H 14.2784 13.4541 13.0818
O 0.664477 7.19911 4.28781
H 0.441041 7.79992 3.52034
H 0.265621 7.56826 5.12718
O -0.443813 -8.86694 2.8583
H 0.425246 -8.7503 3.33896
H -0.509679 -8.19478 2.12089
O 0.830037 4.59843 -7.04078
H 1.51107 4.38 -6.34194
H 0.131701 3.883 -7.06075
O 3.7651 -8.82234 -1.43487
H 2.91409 -8.73841 -0.91655
H 4.1238 -7.91098 -1.6365
O -5.93077 -5.79145 0.570845
H -5.4072 -6.43416 0.0116411
H -5.71972 -5.94134 1.53671
O 5.76412 11.5739 -6.14975
H 5.55939 12.3967 -6.67984
H 5.46707 11.7044 -5.20389
O -7.23651 7.41644 -0.700007
H -6.63055 8.1212 -1.06885
H -8.13979 7.80976 -0.528865
O 4.51879 9.47298 -3.89919
H 4.53095 8.87394 -3.09862
H 3.7441 9.23227 -4.48385
O -8.27311 3.96377 -8.20623
H -7.71394 3.25675 -8.63908
H -8.47895 4.68033 -8.87261
O -12.6224 -11.5093 -13.2814
H -12.0786 -11.9577 -13.9907
H -13.5094 -11.9644 -13.2038
O 3.90095 -14.3614 -3.58977
H 3.75687 -14.2347 -2.6084
H 4.81384 -14.7381 -3.74671
O -2.14067 13.8183 -5.8199
H -1.81074 13.3306 -6.62807
H -1.59414 14.6444 -5.68297
O -11.7597 6.00627 -12.157
H -12.2758 5.85611 -13.0002
H -12.3925 6.06464 -11.3849
O -11.7513 9.72691 14.8382
H -11.7909 9.31123 -14.3678
H -12.5181 10.3591 14.7272
O 7.38679 3.4384 12.8665
H 7.71713 2.87361 12.1104
H 6.62082 3.99976 12.5534
O 8.15847 -7.11679 13.7358
H 8.01154 -7.09542 12.7469
H 8.88871 -7.76535 13.9503
O -8.47585 2.32099 -14.2634
H -9.26117 1.7225 -14.1053
H -8.12013 2.16758 14.9293
O 2.84759 -0.996515 -10.1045
H 3.02829 -0.395929 -9.32569
H 3.70698 -1.20427 -10.5716
O 12.7994 6.26734 14.9024
H 12.8676 6.926 14.1531
H 12.4541 5.39721 14.5508
O 6.86664 -10.1335 7.47037
H 7.04265 -9.81733 8.40253
H 7.6389 -10.6843 7.15385
O 10.7103 12.2356 -6.8942
H 9.95166 11.6315 -6.65031
H 11.0697 11.9743 -7.78996
O 5.40969 -3.79851 -7.25699
H 5.21042 -2.94581 -6.77418
H 4.92196 -3.80911 -8.12986
O 11.5688 -13.2342 -0.379362
H 11.6606 -12.2476 -0.245294
H 11.4381 -13.6802 0.506049
O 1.4046 14.5943 -13.4006
H 1.75958 -14.9338 -12.6726
H 0.479086 14.2963 -13.1671
O -14.5425 -6.41879 -2.81609
H -14.9173 -5.95412 -2.01388
H -14.8755 -5.97158 -3.64616
O -3.43821 -11.5742 -1.70554
H -2.88512 -11.2305 -2.46439
H -4.15188 -12.1783 -2.06011
O -11.2355 -1.64257 13.5473
H -10.3217 -1.24796 13.6433
H -11.8815 -1.12871 14.1117
O -12.0779 -0.0323786 9.26303
H -13.0742 0.0517537 9.24757
H -11.6666 0.816455 8.9311
O -4.06301 9.39951 -14.2575
H -3.73459 9.13671 -13.3503
H -4.6566 8.68024 -14.6183
O 11.0679 3.02654 -8.60839
H 10.8999 2.80871 -7.64702
H 11.9637 3.46128 -8.69999
O 8.79758 12.5604 -1.40259
H 7.99269 13.153 -1.43308
H 8.88735 12.0752 -2.2723
O 11.0637 -1.97144 -4.17972
H 11.6328 -2.33104 -3.44033
H 11.634 -1.7887 -4.98054
O 12.0042 5.63119 -0.581312
H 11.7202 6.32843 0.0767911
H 11.2618 4.97409 -0.711918
O -6.35057 2.53285 -5.94617
H -6.99599 1.83087 -6.24709
H -6.79953 3.13903 -5.28976
O -8.9187 6.52942 -9.20243
H -9.79778 6.72404 -8.76741
H -8.19159 7.01369 -8.7159
O 0.0108833 2.04241 7.99862
H 0.920147 1.9207 8.39653
H -0.518311 1.20173 8.11317
O -5.61712 3.24141 11.0051
H -6.06072 4.13133 10.8994
H -4.8268 3.33278 11.6109
O 14.2309 -11.4579 -1.18107
H 15.0203 -10.8904 -0.947244
H 13.3893 -10.9683 -0.953196
O 5.06048 -0.459598 6.07658
H 5.41014 -0.312176 5.15143
H 5.21733 0.360508 6.62679
O -2.37237 -12.6049 12.1028
H -3.06705 -12.4373 12.8023
H -1.66881 -11.8962 12.1554
O -8.6282 -2.56608 -13.2617
H -9.58457 -2.3169 -13.1095
H -8.48373 -2.75598 -14.2328
O 8.77703 9.24206 4.1518
H 8.93522 8.25564 4.19492
H 7.8628 9.41735 3.7866
O 14.452 4.66869 11.9649
H 13.6219 4.35693 12.427
H 14.4702 4.30747 11.0326
O -5.64049 13.3109 -1.87477
H -5.29562 12.6171 -2.50695
H -4.91093 13.9612 -1.66327
O -10.2038 11.1593 4.81546
H -11.1786 11.3127 4.97685
H -10.0787 10.7142 3.92879
O -7.53465 -6.22934 10.3036
H -7.02548 -5.67874 9.64214
H -6.94447 -6.95456 10.6581
O -2.86443 0.733323 4.89989
H -2.32786 1.47628 5.29991
H -2.75064 0.737436 3.90644
O 10.3609 12.9206 -13.5837
H 9.73087 12.9156 -14.3603
H 9.83994 12.871 -12.7316
O 11.0554 -8.61056 -3.52741
H 11.6591 -7.93738 -3.10037
H 11.4974 -8.98486 -4.34255
O 9.96375 0.521215 -4.09963
H 10.4567 -0.341096 -4.21489
H 10.3463 1.20887 -4.71666
O 11.6322 -5.47358 -4.47507
H 10.818 -5.27197 -5.01948
H 12.1228 -6.2441 -4.88192
O -1.32431 -0.188961 11.1673
H -1.87058 0.237295 10.4464
H -0.527963 -0.637114 10.7612
O 5.14722 1.7997 -10.6656
H 4.79206 2.65241 -11.0486
H 4.78215 1.67086 -9.74363
O 14.7622 -12.0291 -9.79165
H 13.8973 -12.4543 -9.52496
H 14.8971 -12.1374 -10.7765
O 5.86374 -0.318884 1.09087
H 6.12114 -0.642918 2.00117
H 5.45247 0.589605 1.16443
O 13.9461 0.898243 0.884572
H 13.8802 1.89206 0.795736
H 13.0657 0.483912 0.653875
O -10.0407 -10.5004 8.03653
H -10.5355 -9.63194 8.00804
H -10.5166 -11.1738 7.47087
O -3.14355 6.00759 7.12597
H -3.60545 5.45092 6.43556
H -2.82545 5.41983 7.86978
O 9.25208 -1.67571 3.02567
H 9.34003 -1.9904 2.08061
H 10.0493 -1.12311 3.26851
O 14.2845 3.15318 -4.39249
H 14.3111 4.10036 -4.71193
H 14.8601 2.5864 -4.98189
O -1.54176 14.6629 -12.9105
H -1.18926 -14.5192 -12.832
H -2.48222 14.6895 -13.2492
O 5.85132 5.74741 -12.7407
H 5.02023 5.46056 -12.2643
H 5.87161 5.33674 -13.6522
O 7.44206 5.20418 -8.82917
H 7.49969 4.26876 -8.4805
H 6.77784 5.24128 -9.57572
O 2.56997 -13.5486 7.60026
H 3.2087 -12.9813 7.08052
H 3.03095 -14.3858 7.89416
O -13.7539 -1.99985 3.46838
H -12.9642 -2.58373 3.65636
H -13.4887 -1.27502 2.83261
O -4.48717 11.3409 0.252671
H -4.47485 11.3036 1.25185
H -5.06655 12.0994 -0.0454254
O -0.538225 10.5647 -11.0636
H -1.1564 11.3136 -11.302
H 0.32188 10.9396 -10.7179
O 8.91664 -0.0774863 -0.14531
H 8.91871 -1.07077 -0.260617
H 8.12607 0.192612 0.404194
O -12.1463 -7.79445 -2.99938
H -12.2269 -8.36537 -2.1824
H -12.8805 -7.11572 -3.00551
O -7.12583 -9.74441 -11.9339
H -7.04139 -8.75535 -12.0544
H -7.50561 -9.93872 -11.0295
O -7.14162 8.10181 3.79028
H -7.0829 7.47382 4.56623
H -6.3533 7.96511 3.19048
O 7.4004 7.97159 14.1617
H 7.70388 7.17749 13.6352
H 6.9768 8.63692 13.547
O 5.09205 -2.94826 14.7643
H 4.31869 -3.2098 14.1869
H 4.82887 -2.17797 -14.7694
O -14.6522 13.7923 -8.44715
H -14.5971 14.6818 -7.99354
H 14.833 13.2001 -7.94412
O -8.79197 -14.0901 5.31617
H -8.93861 15.0445 5.45128
H -7.98864 -13.95 4.73744
O -13.2542 -10.3242 11.3806
H -12.5184 -10.9916 11.2669
H -13.7634 -10.5286 12.2165
O -10.0052 1.40145 -9.48682
H -10.5614 2.02509 -10.0361
H -10.2673 0.457362 -9.68659
O -1.56187 13.1126 13.1075
H -1.59429 12.5321 13.9211
H -2.47934 13.4554 12.9059
O 10.4603 -8.32675 14.9463
H 10.4364 -8.45032 -14.1762
H 11.4062 -8.19614 14.6495
O 0.469259 13.0043 5.15414
H 1.05834 13.636 4.65034
H -0.0458788 13.5093 5.84659
O 5.15487 3.0981 5.45272
H 4.66997 3.77505 4.89909
H 5.26575 3.44638 6.38348
O 14.0952 -8.24424 4.66012
H 13.932 -9.20852 4.45178
H 13.2201 -7.77927 4.79352
O 3.91506 -7.41455 4.45247
H 3.05361 -7.92213 4.43954
H 4.32956 -7.48452 5.35977
O 5.13003 11.0312 12.7511
H 4.43248 10.7829 12.079
H 5.01129 10.477 13.575
O 12.4818 -5.93431 4.91136
H 12.0921 -5.02032 4.79854
H 11.7632 -6.61975 4.7939
O -9.79455 4.65998 -14.8021
H -9.55178 3.7317 -14.5206
H -9.91815 5.23249 -13.9916
O 4.78048 12.3061 -3.58942
H 4.00362 12.7885 -3.1848
H 4.55943 11.3351 -3.67994
O 12.0248 9.49535 -3.97587
H 13.0113 9.58162 -4.11468
H 11.8302 8.64544 -3.4863
O -8.70964 13.3887 5.16517
H -8.80592 13.8585 4.28768
H -9.27529 12.5641 5.16564
O -7.33794 -8.49822 -14.6222
H -7.83779 -8.27433 14.6557
H -7.95165 -8.95754 -13.9801
O -11.4283 -4.91113 -2.12208
H -11.2156 -4.22593 -1.42554
H -12.014 -5.61829 -1.72609
O 8.60183 8.85478 -13.7597
H 8.57889 8.12625 -13.0751
H 8.28419 8.49711 -14.6378
O 15.0473 -4.9305 -5.15783
H 14.1502 -4.84918 -5.59199
H -14.9002 -4.12809 -4.58498
O -9.8617 3.17437 -5.61321
H -10.5006 2.53746 -6.04451
H -9.23086 3.53129 -6.30208
O 9.40064 -2.74858 0.491829
H 10.187 -3.35368 0.615991
H 8.55682 -3.2633 0.643283
O 3.68111 -4.13554 -9.54728
H 2.85999 -3.80252 -10.0107
H 3.72461 -5.13181 -9.62111
O -3.96146 -6.86911 -6.16029
H -3.0678 -6.64083 -5.77409
H -3.8584 -7.61018 -6.82369
O 9.49109 -14.1078 -4.25641
H 9.75362 15.0449 -4.17989
H 10.2953 -13.5305 -4.11535
O 2.99709 -15.0241 -0.202768
H 3.68283 14.3742 -0.332317
H 2.11924 14.6728 0.0315474
O 1.18034 -12.0045 5.22318
H 0.266442 -12.3951 5.11301
H 1.69251 -12.5392 5.89528
O 11.1867 11.9724 -9.81299
H 10.5234 12.3215 -10.4749
H 12.0973 12.3177 -10.0399
O -11.3346 -2.12395 -12.8933
H -11.9745 -1.7074 -12.2476
H -11.8303 -2.7461 -13.4993
O -13.0421 -2.39301 -7.04208
H -12.2411 -1.94778 -7.44233
H -12.7537 -2.98105 -6.28647
O 6.09296 -13.0931 7.48298
H 5.39043 -12.3931 7.3553
H 6.34838 -13.1367 8.44878
O 13.317 -11.6546 13.9888
H 12.8689 -11.6558 14.8827
H 12.6268 -11.5706 13.2701
O -2.88187 7.67264 -10.9461
H -2.09291 7.7492 -10.3366
H -3.25622 8.58292 -11.1227
O 0.361718 -2.71512 -14.6988
H 1.32837 -2.82991 -14.47
H 0.12209 -1.74523 -14.6564
O 13.5958 12.2551 -6.43386
H 12.843 11.6587 -6.15554
H 14.3192 12.2228 -5.74422
O -1.74071 -3.78468 11.5816
H -1.7216 -3.92245 12.5718
H -2.19603 -2.91888 11.3743
O -0.627415 6.37807 -14.3639
H -1.38953 6.04714 -13.8075
H -0.204396 7.16527 -13.9153
O -4.90608 13.0953 -5.93712
H -4.08712 13.6687 -5.95878
H -4.81805 12.4158 -5.20879
O 1.77672 -7.36831 -7.92032
H 1.87326 -6.97011 -8.83247
H 2.63699 -7.80265 -7.6535
O -9.33702 5.70913 3.44575
H -9.82028 5.76907 2.57239
H -8.62731 6.41258 3.48293
O -13.425 -5.14599 6.58357
H -14.067 -4.54968 6.10184
H -13.9309 -5.76215 7.18709
O 12.3185 6.12512 3.04547
H 13.1109 6.44663 2.52718
H 11.921 5.32998 2.58758
O -12.0677 9.90334 0.897637
H -12.5039 9.10673 1.31601
H -12.5961 10.1917 0.0991692
O 5.46458 -9.42086 11.5462
H 5.08233 -9.86909 12.3543
H 5.64434 -8.45904 11.7524
O -12.3321 -14.9426 -3.21454
H -13.0378 -14.7372 -2.53651
H -12.6224 14.3947 -3.77279
O -13.6499 11.1528 -8.64007
H -13.612 10.7626 -7.72016
H -13.0768 11.9712 -8.67889
O -12.0052 14.6523 2.04049
H -11.9921 -14.9743 1.16775
H -11.9727 13.6671 1.8721
O -7.25008 -10.6321 0.589241
H -7.67598 -9.95673 -0.0126937
H -6.69094 -11.2578 0.0453069
O 7.06154 -4.8764 -2.42275
H 7.30623 -5.84545 -2.45383
H 7.81094 -4.3312 -2.79834
O 9.81485 5.3715 -4.66981
H 9.08526 4.68768 -4.67083
H 9.91306 5.75547 -5.58786
O -9.55991 15.0121 -3.7205
H -9.08147 14.1478 -3.56574
H -10.4825 14.9553 -3.3391
O 11.666 -0.46712 3.06989
H 11.8923 -0.771068 2.14454
H 12.4685 -0.56463 3.65841
O 3.69424 -0.891724 -13.3086
H 3.36672 -0.676684 -14.2286
H 3.22871 -1.71015 -12.9719
O -0.522331 -11.4723 2.40089
H -0.419174 -10.5676 2.81413
H -0.347484 -11.4118 1.41821
O -0.62747 -14.0963 3.16721
H -0.276887 -13.2178 2.84272
H 0.079676 -14.7958 3.06459
O -4.81258 -3.825 12.1079
H -5.40655 -3.66824 11.3189
H -3.86032 -3.8653 11.8054
O -11.3962 5.72033 7.45853
H -10.6074 6.33174 7.39651
H -11.536 5.45218 8.41167
O 3.64985 4.90206 0.399481
H 3.58573 4.0953 -0.187831
H 2.77438 5.38522 0.398844
O -10.6485 -4.56707 -6.96434
H -10.1003 -4.52774 -6.129
H -11.4894 -5.07852 -6.78741
O -2.34659 -8.0048 4.45615
H -1.64568 -8.60387 4.06918
H -2.3677 -8.11501 5.44979
O -4.00542 -3.41713 5.18499
H -3.42912 -4.03061 4.64515
H -4.26319 -2.62688 4.62914
O 3.11056 -10.2021 2.02584
H 3.01442 -11.0936 1.58325
H 3.10138 -9.48253 1.33151
O 10.5361 7.51148 7.69218
H 10.5807 6.72273 7.07917
H 10.9025 7.25877 8.58764
O 0.496579 -7.1979 12.4024
H -0.250434 -6.73529 12.8798
H 0.782417 -7.99912 12.928
O 10.4587 11.0336 5.47258
H 10.2227 11.9738 5.71794
H 9.64265 10.5611 5.13993
O -1.13074 -14.3307 -8.40759
H -0.975013 -14.5984 -7.45682
H -0.509641 -13.5854 -8.65
O -3.53228 -9.7064 0.235707
H -3.33821 -10.2981 1.01807
H -3.39568 -10.219 -0.611901
O -12.2423 5.07721 -2.76475
H -11.2734 5.0558 -3.011
H -12.7228 5.72288 -3.35815
O -10.6457 -9.5809 -12.2483
H -10.5499 -9.17612 -11.339
H -11.4269 -10.2051 -12.2546
O -14.966 -13.7907 -0.194555
H 14.4463 -13.1344 -0.470335
H -14.0683 -13.3514 -0.226473
O -14.2107 7.18207 12.232
H -14.6408 6.28296 12.1515
H -13.5106 7.15395 12.9455
O 7.25577 -8.0632 3.98485
H 6.91092 -8.99875 4.06056
H 6.74031 -7.57387 3.28146
O 11.1925 2.10962 4.01514
H 10.5269 2.06277 4.7599
H 11.3475 1.19233 3.64845
O -1.57097 6.25168 -5.44995
H -0.984416 6.29213 -6.25879
H -2.43343 5.80395 -5.68573
O 7.77989 14.6003 -12.8698
H 7.67514 -14.5223 -12.7997
H 7.79767 14.3344 -13.8336
O -12.5053 4.47248 -6.11212
H -11.7553 4.05227 -5.60137
H -12.8951 3.8023 -6.74363
O 11.9569 10.039 7.9251
H 11.4148 9.2048 7.82449
H 11.5821 10.7534 7.33433
O -10.4452 -1.67414 -8.18278
H -10.4582 -2.59699 -7.79795
H -9.734 -1.61516 -8.88327
O 3.90974 3.31701 12.979
H 3.01438 2.92504 13.1902
H 4.23703 3.84268 13.7642
O 10.6616 0.377142 10.6786
H 10.9526 0.257352 9.72944
H 10.8263 -0.468117 11.1869
O 10.972 13.0087 8.43749
H 10.6695 13.428 7.58154
H 11.9709 13.0226 8.48069
O -13.0001 -14.3902 -14.249
H -13.1564 -14.146 14.9085
H -12.8111 14.7448 -14.1816
O 11.1111 -0.181164 -8.89268
H 11.8939 0.0571994 -9.4675
H 10.2636 0.0359287 -9.37692
O -0.0647298 7.7415 -3.56338
H -0.510306 8.62361 -3.71587
H -0.509356 7.04231 -4.12316