2611
Atoms. Timestep: 23000000
O -7.86443 5.15738 3.7843
H -7.89001 6.01382 4.29992
H -7.47743 5.32558 2.87769
O -10.9925 -14.4877 11.2574
H -10.2572 -14.7043 11.8996
H -11.8674 -14.785 11.6398
O -9.01016 -8.7958 3.54233
H -8.4163 -9.57362 3.33659
H -8.49835 -8.11516 4.06653
O 14.6748 9.92185 3.34064
H 13.8959 9.43049 3.73029
H 14.9505 9.48445 2.48465
O -3.0156 12.4097 -0.740307
H -2.02792 12.5048 -0.86452
H -3.47166 12.4828 -1.62725
O 1.65283 -11.4406 10.0935
H 2.36486 -11.7739 10.7115
H 1.67328 -11.9698 9.24526
O 13.3909 0.69163 13.4254
H 13.6238 -0.278303 13.3547
H 12.417 0.786403 13.6317
O -1.24376 13.1594 -10.1737
H -1.1291 14.1527 -10.1582
H -1.94508 12.9153 -10.8435
O 0.836217 -9.47617 -12.0077
H 1.36347 -10.0222 -12.6588
H 0.131536 -8.96256 -12.4973
O 2.09007 -5.42326 10.3313
H 2.74644 -4.99654 9.70915
H 1.17681 -5.05566 10.1557
O 2.98526 -13.0648 0.0346216
H 3.55927 -12.3752 -0.406932
H 3.44546 -13.952 0.002106
O -7.59451 -12.4503 -13.3633
H -6.65867 -12.6369 -13.6623
H -7.65534 -12.5589 -12.3711
O 11.8864 -9.34259 0.861412
H 12.1038 -8.40965 1.14839
H 12.2323 -9.49571 -0.0642958
O -6.29269 1.94232 2.42537
H -5.87066 2.75934 2.03246
H -7.22817 2.15377 2.70854
O 7.2829 0.947772 -6.89179
H 8.27267 0.82974 -6.81159
H 6.8218 0.351826 -6.23435
O 13.4705 -2.08504 -4.72873
H 14.0838 -2.56935 -5.35264
H 12.5253 -2.19971 -5.0346
O -3.02868 -0.767019 5.30185
H -3.56022 -0.557814 4.48106
H -2.36639 -0.0358389 5.46541
O 6.51761 -7.19913 6.89183
H 5.61495 -7.58231 7.08773
H 6.69846 -7.25722 5.91003
O -5.17881 -0.0418376 -7.67474
H -5.02397 -0.26297 -8.63761
H -5.48705 -0.860465 -7.19014
O -14.6615 -8.7632 12.1324
H 14.8639 -8.13785 12.7765
H -13.9972 -8.25943 11.5802
O -12.5435 -8.20857 14.3357
H -11.7365 -8.29675 13.7518
H -13.206 -8.91895 14.0982
O -9.41886 5.46856 -0.210741
H -8.83148 6.14032 -0.662096
H -9.68563 4.76389 -0.868217
O -8.23402 6.27022 -3.08555
H -8.80041 5.57209 -3.52353
H -8.5259 7.17642 -3.39152
O 2.7677 3.27861 -8.11463
H 3.66355 3.31719 -7.67195
H 2.12435 3.85977 -7.61628
O -6.88483 -13.9268 9.92817
H -6.67477 -13.5248 9.03695
H -7.71857 -14.4745 9.85859
O -6.39277 4.8704 -8.54997
H -7.22896 5.13982 -9.02768
H -5.84637 5.68369 -8.34998
O 1.76844 8.06016 -3.95772
H 2.63666 8.55095 -3.88486
H 1.80453 7.23375 -3.39581
O -6.10215 -14.4743 -0.773311
H -6.96164 -14.691 -0.310374
H -6.19316 -13.6021 -1.25393
O -6.30474 13.6376 7.05355
H -6.74405 13.2509 7.86442
H -6.67767 13.2035 6.23347
O 1.00277 -8.50888 14.5832
H 1.87341 -8.07576 14.3499
H 0.434369 -7.86204 -14.8743
O -9.28721 -0.11351 1.3541
H -9.49235 -0.620202 2.19147
H -9.91401 -0.399644 0.629353
O 4.41757 7.86094 10.3363
H 4.61691 8.41866 9.53053
H 3.87769 7.06416 10.0649
O -14.646 5.12601 -13.5823
H -14.1612 4.67053 -14.329
H 14.5528 4.55677 -13.2868
O 6.65999 12.0525 -9.56997
H 6.11202 11.2162 -9.58911
H 6.80426 12.3779 -10.5045
O -5.07351 -5.02258 5.47529
H -5.61575 -5.55227 6.12752
H -4.41739 -4.45399 5.97149
O -10.3201 12.3969 1.32151
H -10.0719 11.4303 1.38433
H -10.2469 12.6988 0.370963
O 0.920762 -8.9623 -8.40607
H 1.72851 -8.53021 -8.005
H 0.261263 -8.25771 -8.66801
O 11.8949 0.987227 8.94247
H 12.7031 1.42784 8.55159
H 11.4521 1.61278 9.5848
O 14.8544 9.18907 14.1427
H -14.69 8.8239 14.9727
H 14.6369 10.1559 14.2769
O -14.5559 -8.99539 -0.178639
H -14.6381 -9.75591 0.465456
H 14.5521 -8.89032 -0.681519
O -3.84102 -7.61106 8.71517
H -4.39632 -8.133 8.0677
H -3.70005 -8.15145 9.54469
O 11.5736 11.2424 -4.01095
H 10.9247 10.6226 -4.45223
H 11.2218 11.5098 -3.11389
O 10.7353 0.0193444 -12.7666
H 10.3117 0.0561887 -11.8614
H 11.7268 0.110985 -12.6746
O 3.57107 -11.9738 -11.1101
H 2.8314 -11.9954 -10.4375
H 3.21433 -12.2373 -12.0064
O -7.41769 -6.22844 7.24982
H -7.69984 -5.2697 7.28468
H -7.77041 -6.7091 8.05266
O 3.13704 8.47586 -13.9672
H 2.30281 8.50627 -13.4166
H 2.9056 8.23602 -14.91
O 14.0734 -5.21126 9.46904
H 14.3344 -5.00771 10.4127
H 13.4516 -4.50289 9.135
O -7.96999 5.90785 -6.61175
H -7.39196 5.34267 -7.20036
H -7.40355 6.35803 -5.92147
O -12.8582 -2.44897 -5.98801
H -13.1002 -1.82032 -5.24895
H -12.7286 -1.93347 -6.83505
O 4.92776 8.22458 -0.918964
H 4.42278 7.36245 -0.877358
H 4.28778 8.97901 -1.06484
O -13.0119 5.93866 9.33412
H -12.6489 6.66636 9.91606
H -13.9323 6.18358 9.02922
O -5.08052 -12.343 -14.6059
H -4.14953 -12.6669 -14.4375
H -5.3487 -12.5713 14.4242
O 3.60017 -10.6279 4.34397
H 4.06803 -10.2464 3.5467
H 3.52047 -11.6193 4.24094
O 9.33724 9.4062 13.7146
H 9.10213 9.77175 12.814
H 8.52194 9.0097 14.1366
O -13.1821 -9.56671 -11.0976
H -12.5797 -9.26346 -11.8359
H -14.1338 -9.39504 -11.3522
O -11.094 0.403892 -14.5053
H -11.0917 1.27513 -14.0144
H -11.9654 -0.0622945 -14.3529
O -8.86282 -8.42432 13.9663
H -8.8214 -7.82277 14.764
H -8.58879 -7.91522 13.1503
O -10.7513 -9.44833 7.29296
H -11.3896 -9.70489 8.01875
H -10.1735 -10.232 7.06485
O -0.365262 12.1206 8.49914
H -1.29671 12.3857 8.74845
H 0.197691 12.9404 8.39391
O 9.77825 -9.42817 -7.04814
H 9.88959 -10.2431 -7.6169
H 10.5481 -8.8082 -7.1997
O -4.45429 -12.839 -3.26089
H -5.15381 -12.3314 -2.75788
H -4.51929 -13.8106 -3.03345
O 13.1087 -6.06312 -5.61365
H 13.5045 -5.32401 -6.15869
H 12.2805 -5.73532 -5.15897
O 11.7244 11.086 13.9832
H 11.0228 10.392 13.8214
H 11.3321 11.9953 13.8441
O 10.7776 3.66946 3.86069
H 10.5586 3.16394 4.69526
H 11.6623 4.12315 3.96823
O -14.0623 14.2884 -6.2573
H -14.0022 14.8891 -7.05449
H -13.1412 14.0519 -5.94796
O 9.97443 0.444906 -5.29765
H 10.1822 1.06488 -6.05426
H 10.3227 -0.468192 -5.50968
O -4.36487 -4.6866 8.82918
H -4.25719 -5.67053 8.68674
H -3.84594 -4.1903 8.1332
O -6.34815 5.54408 -1.35369
H -6.13645 4.56684 -1.36746
H -6.90501 5.77576 -2.15133
O -8.82899 -4.29731 14.8355
H -7.9269 -4.00449 14.5185
H -8.75216 -5.18868 -14.6837
O -11.2488 7.41727 -6.22921
H -10.6558 7.14844 -5.4702
H -12.1821 7.10657 -6.04921
O -6.06591 -2.08302 -9.87058
H -5.23925 -2.27479 -10.3996
H -5.99253 -2.51215 -8.97032
O 0.0916883 -14.3722 7.14252
H -0.753726 -14.5497 7.64627
H -0.047042 -14.581 6.17445
O 8.52459 -5.38945 -4.88523
H 8.24886 -6.24064 -5.33183
H 7.84516 -4.67985 -5.07186
O 5.30153 -9.49795 14.3362
H 6.12463 -10.0087 14.088
H 5.24713 -9.41661 -14.6346
O 4.94069 -3.80929 -7.69559
H 3.96502 -3.98776 -7.56826
H 5.22709 -4.14704 -8.5922
O -10.9807 12.0342 13.6732
H -11.3166 11.2218 14.1498
H -11.0505 12.8279 14.2775
O -14.0255 4.00161 -11.0203
H -13.9613 4.49232 -11.8892
H -13.3479 4.36537 -10.3811
O -2.99134 -4.87621 -14.9666
H -3.43056 -5.108 14.1314
H -3.23512 -5.55822 -14.2771
O -14.9186 -13.9086 -14.4583
H 14.5132 -13.8215 -13.6175
H -14.6354 -13.0012 -14.7689
O 5.85593 -6.56498 -12.3443
H 6.18763 -7.38076 -11.8705
H 6.63181 -6.06238 -12.7257
O -6.05457 -10.6716 0.771826
H -5.08865 -10.5218 0.982912
H -6.56297 -10.815 1.62094
O -13.356 11.353 -12.8746
H -13.1172 12.2792 -12.5831
H -14.3097 11.3334 -13.1748
O 6.95694 -6.66857 1.36154
H 6.93153 -7.21396 2.19933
H 7.73702 -6.95123 0.803341
O 0.359129 13.8329 4.87849
H 1.1579 13.8441 5.48002
H -0.240845 13.0752 5.13518
O -14.3967 -12.4824 -4.51512
H -13.4216 -12.4731 -4.73678
H -14.5276 -12.8716 -3.60334
O -4.35023 -7.95368 3.17099
H -4.05832 -8.60706 2.47251
H -4.10529 -7.02753 2.88421
O -13.0673 9.76311 -10.8097
H -13.198 10.376 -11.589
H -13.8859 9.20243 -10.6856
O -14.4313 -11.4496 14.4515
H -14.6063 -11.3611 13.4709
H -14.9427 -10.7469 14.9462
O 11.2289 1.11835 -2.97825
H 10.8886 0.914781 -3.89625
H 11.6674 0.304358 -2.5972
O -10.6343 3.8487 9.65347
H -11.4179 4.04508 9.06411
H -10.6379 2.87985 9.9011
O 8.79091 2.65716 12.8619
H 8.2489 2.08606 12.2454
H 8.19995 3.34277 13.287
O -5.47951 11.3147 -5.44823
H -5.38457 11.9487 -6.21575
H -5.32777 10.3794 -5.76776
O -7.1956 2.36904 -7.36474
H -6.42014 1.82069 -7.05174
H -6.89441 2.98951 -8.08883
O 0.56114 -13.0391 -8.09063
H -0.350315 -13.3759 -7.85438
H 1.07445 -12.8512 -7.25325
O -6.64819 -13.2846 7.12548
H -5.82556 -12.7391 6.96527
H -6.51059 -14.2082 6.76757
O 1.10426 5.64775 8.08844
H 1.39092 6.52051 7.69333
H 1.70548 5.41436 8.85269
O -1.75271 5.90764 4.0436
H -1.36291 6.45316 3.30167
H -1.0241 5.62385 4.66698
O 6.0475 -0.866721 -5.15532
H 6.34648 -1.8054 -5.32705
H 5.92987 -0.729023 -4.17186
O -7.30998 -3.24933 6.2864
H -6.8058 -3.93433 5.76049
H -7.24632 -2.3633 5.82716
O 10.2015 12.2264 -1.59212
H 10.0728 11.7691 -0.712187
H 9.31224 12.3694 -2.02666
O -10.4739 0.237383 9.25192
H -11.2103 0.759733 8.82186
H -10.2914 -0.585931 8.71447
O 5.70112 12.7223 7.91895
H 5.28633 13.6323 7.91804
H 5.67662 12.3439 6.99363
O -1.74649 -0.997308 11.1968
H -2.18659 -1.8949 11.2221
H -1.09408 -0.967216 10.4395
O 4.07799 12.812 -5.67452
H 3.51045 12.9235 -6.49029
H 4.65734 13.6189 -5.55876
O 8.67731 8.70681 -7.40323
H 8.9496 8.17598 -8.20578
H 7.68669 8.64345 -7.2821
O -7.9306 3.50661 8.93594
H -7.79336 3.60689 7.95049
H -8.78157 3.9596 9.20176
O 12.0559 -5.29014 14.7826
H 11.879 -4.34747 14.4997
H 12.6772 -5.29192 -14.3997
O -3.55924 -11.2861 12.0105
H -2.80692 -11.8677 11.701
H -4.38752 -11.8375 12.1102
O 3.91204 6.04397 -6.30924
H 4.54888 6.12336 -7.07614
H 4.31156 6.47196 -5.49855
O -9.54519 -8.81994 -2.83499
H -10.3449 -9.15818 -2.33889
H -9.84421 -8.31693 -3.64591
O -9.99921 -11.4114 1.70521
H -9.8048 -10.483 1.38852
H -9.34669 -11.6633 2.4199
O 6.3306 -6.81754 10.4883
H 6.43165 -5.82615 10.405
H 5.36262 -7.04641 10.5915
O 1.87583 -8.02722 11.2705
H 1.83029 -7.08788 10.9305
H 1.02017 -8.25542 11.735
O 0.354384 2.23617 9.62734
H 0.189397 2.85289 10.397
H -0.486535 1.73981 9.41175
O -1.98209 12.404 -6.10319
H -1.64779 11.6099 -5.59548
H -2.45468 13.0248 -5.47766
O 0.211192 10.1875 4.22431
H 0.0931849 9.61244 5.03385
H 0.773605 10.9807 4.45799
O 10.5802 2.26646 6.19007
H 10.9463 2.91596 6.85652
H 9.6818 1.94869 6.49309
O -13.806 3.66023 4.31709
H -13.9017 2.74919 3.91601
H -13.1043 3.63895 5.02919
O 2.128 -12.9493 -6.01181
H 3.04339 -12.6684 -6.30024
H 1.75481 -12.2704 -5.37951
O -10.5417 -6.31602 5.26305
H -9.85124 -6.42773 5.97775
H -11.253 -7.00985 5.37543
O -9.78536 11.3852 7.07175
H -8.97762 11.7056 6.57688
H -10.1409 10.5609 6.6312
O 1.41912 -6.37891 -6.80405
H 0.534632 -6.64123 -6.41822
H 2.13102 -6.48829 -6.11033
O 2.58305 10.3417 -9.67037
H 2.39304 10.344 -10.6521
H 3.56139 10.1988 -9.52056
O 8.26231 -10.6925 3.86232
H 8.56156 -11.0551 2.97972
H 8.30552 -11.4156 4.5517
O 5.89562 -7.96802 -7.68987
H 5.36374 -7.72787 -8.50192
H 5.45187 -8.72686 -7.21317
O -12.8823 -4.78347 13.7678
H -12.0519 -5.19205 13.389
H -12.8512 -4.83025 14.7662
O -12.5864 -12.2005 3.2678
H -12.6538 -13.1982 3.26023
H -11.8031 -11.9151 2.71544
O -14.4379 0.6638 -2.47709
H -13.4543 0.819735 -2.56719
H -14.6057 -0.30248 -2.28175
O -6.41231 -10.5655 -7.89329
H -6.67107 -9.70683 -7.45098
H -7.2043 -11.1752 -7.92667
O -8.32979 -7.88496 9.55168
H -9.13664 -7.65568 9.00723
H -8.1769 -8.87274 9.52134
O -10.4529 -3.52478 5.00278
H -10.6052 -3.21158 5.94018
H -10.4794 -4.5241 4.97679
O 13.209 -12.4381 -6.63897
H 13.9958 -12.4484 -6.02175
H 13.4151 -12.9845 -7.45074
O -0.952137 6.17657 12.9963
H -0.795272 6.43555 12.0433
H -1.75682 6.65758 13.3443
O -14.193 -9.79729 7.51552
H -14.809 -9.63582 8.28656
H -14.2247 -9.01457 6.89396
O 7.66434 -1.22015 14.4863
H 6.86578 -1.81901 14.4258
H 8.27538 -1.40047 13.7155
O 2.19023 -1.95114 14.0036
H 1.37275 -1.37544 13.9865
H 2.9329 -1.46195 14.461
O 0.154218 -9.21199 1.38435
H -0.374672 -8.58076 1.95164
H -0.438774 -9.60557 0.681879
O 3.33305 10.5529 -1.51022
H 3.09347 11.2744 -2.15981
H 3.74046 10.9615 -0.693481
O -7.39669 -9.22072 -12.206
H -6.75619 -9.02597 -12.9488
H -8.275 -9.50628 -12.5894
O -12.156 -4.75307 -13.5554
H -12.3331 -4.7524 -12.5712
H -11.3927 -5.36699 -13.7563
O 7.59438 6.05221 -5.56116
H 6.93787 5.3766 -5.22567
H 7.52019 6.12372 -6.55584
O 14.8591 -4.5997 2.46995
H -14.4029 -4.01185 2.8686
H -14.8053 -4.91845 1.57137
O -13.5555 -6.0187 7.98267
H -14.4055 -5.75054 8.43609
H -13.7609 -6.65382 7.23807
O 9.44682 -7.35125 0.13822
H 9.9021 -8.23047 0.278581
H 9.08991 -7.30592 -0.79482
O 1.03485 -11.507 7.14097
H 0.64314 -10.7699 6.59017
H 0.417973 -12.294 7.13175
O 8.8958 -0.500101 3.38823
H 9.84122 -0.735309 3.16269
H 8.5347 -1.16318 4.04392
O -3.30675 4.45741 -12.815
H -2.66193 4.68124 -13.5458
H -3.73388 3.57372 -13.0064
O -9.05641 2.34249 2.66412
H -9.29889 1.45941 2.2624
H -9.59153 3.06558 2.22731
O 7.85121 -14.1559 -10.2202
H 7.68049 -14.8554 -10.9143
H 7.61594 -14.5173 -9.31797
O 5.65603 -13.3441 13.2962
H 5.72016 -12.934 14.2059
H 5.07833 -14.1593 13.338
O -5.38867 7.87323 -2.64529
H -4.549 8.40924 -2.55778
H -5.22217 6.93904 -2.32974
O 0.301801 -12.906 13.5704
H 1.16774 -12.423 13.7004
H -0.409761 -12.2515 13.3148
O -7.45566 1.65258 -12.5335
H -6.80171 1.20317 -13.1422
H -7.7864 0.995554 -11.8561
O -7.1976 -3.38734 -12.4915
H -7.11672 -2.49284 -12.0518
H -6.87811 -3.32411 -13.4369
O 3.73115 -12.1757 11.7424
H 3.7907 -11.1838 11.8544
H 4.4826 -12.6127 12.2368
O -13.7613 8.00485 -13.3391
H -13.7593 8.39711 -12.4193
H -13.8945 7.01558 -13.2793
O 5.47121 -2.76656 14.9471
H 5.00474 -2.39647 -14.2154
H 4.85189 -3.37764 14.4542
O 12.4054 -12.6649 13.2464
H 11.7179 -12.1894 13.7953
H 13.0579 -12.0009 12.8812
O 1.90696 -2.91893 -13.0611
H 2.72187 -2.37226 -12.8685
H 1.30759 -2.41586 -13.6837
O 7.09507 3.73445 10.1368
H 7.24515 4.55599 9.58678
H 6.88787 3.99746 11.0791
O -4.19653 8.04932 3.59083
H -3.62289 8.86368 3.50282
H -3.62563 7.26364 3.82913
O 4.22105 12.637 10.1554
H 4.35861 13.5964 10.4016
H 4.84645 12.3899 9.41521
O 5.16164 4.7842 3.29405
H 4.26281 5.21737 3.36088
H 5.31999 4.21845 4.10329
O -0.306564 7.27701 0.196883
H 0.0289581 8.20131 0.0149421
H -1.30637 7.28304 0.215743
O -6.41516 8.9917 4.4505
H -5.62678 8.62843 3.95401
H -6.81504 8.2697 5.01514
O 0.992611 -4.44722 13.3116
H 0.406962 -4.63535 12.5232
H 0.774434 -3.54386 13.6809
O 9.19917 -14.1819 2.15014
H 8.47125 -14.1238 2.83334
H 9.67811 14.9115 2.24683
O -3.38998 -10.6391 1.96638
H -3.77921 -11.243 2.66194
H -3.42073 -11.093 1.07587
O -12.3737 11.8122 11.2594
H -12.9771 11.037 11.4468
H -11.8062 11.9946 12.0624
O 13.8935 -6.49368 13.0267
H 13.2797 -6.43124 13.8137
H 14.3318 -5.6078 12.8747
O -4.00791 -12.3705 6.52208
H -3.09863 -12.4006 6.93717
H -3.95999 -12.7252 5.58833
O -2.94028 1.45541 11.5535
H -2.49351 0.561363 11.5863
H -3.9299 1.33667 11.6344
O 14.9309 7.5185 -3.67958
H -14.4243 6.83237 -3.28439
H 14.1747 7.06142 -4.14785
O -5.6309 7.33897 7.79481
H -5.50698 8.31493 7.61553
H -5.07204 6.80928 7.15675
O 12.5049 10.8981 7.12944
H 13.3903 11.0932 6.70743
H 12.6273 10.7605 8.11235
O -3.79253 -2.80705 -11.1548
H -2.87929 -2.56224 -10.8291
H -3.8595 -2.61599 -12.1341
O -3.32194 -3.24017 11.0669
H -3.81751 -3.81837 10.4187
H -3.95624 -2.59149 11.4875
O -9.7481 3.79789 12.8331
H -8.83698 3.99725 12.4723
H -9.98397 4.47141 13.5336
O 3.2063 13.0253 -8.2333
H 3.25163 12.1864 -8.77564
H 2.72047 13.7303 -8.74991
O -5.02134 5.58615 12.4367
H -4.92666 5.1738 11.5306
H -4.1647 5.48119 12.9418
O 12.0926 7.13296 9.36693
H 12.3047 7.70352 10.1603
H 11.2745 6.58995 9.55598
O -1.65311 14.1047 -3.94906
H -1.33541 13.4693 -3.24523
H -0.86629 14.554 -4.37215
O 0.465565 3.69749 5.72592
H 0.912615 4.0968 6.52635
H 1.15039 3.50478 5.02315
O -3.8183 -6.69855 -13.0188
H -4.38558 -7.44586 -13.3648
H -4.34896 -6.14813 -12.3743
O 2.89496 11.588 7.12978
H 2.70898 11.3909 6.16719
H 3.32113 12.4892 7.2092
O 13.297 3.19089 -13.0832
H 13.5249 2.2176 -13.1109
H 13.0026 3.4902 -13.9908
O -14.3094 3.9936 -7.7234
H -13.7309 3.1933 -7.88101
H 14.9548 4.04276 -8.43412
O -11.7688 5.50399 -9.59262
H -12.0156 5.69717 -8.64301
H -11.7392 6.35929 -10.1099
O -14.5901 7.61089 1.35934
H 14.9636 6.72697 1.13871
H -14.1353 7.97833 0.548066
O 0.690665 -11.213 -4.40766
H 0.9566 -11.6107 -3.52955
H 0.513334 -10.2358 -4.2909
O -11.5121 5.83742 -3.01194
H -12.3934 5.74542 -2.54843
H -11.3481 5.03052 -3.5794
O 3.99379 5.16147 -0.693766
H 4.44816 4.28154 -0.554943
H 3.01258 5.01397 -0.81817
O 9.8359 7.88797 1.09932
H 9.64756 8.86889 1.05092
H 9.3736 7.42217 0.34479
O -12.2438 2.03572 -7.75935
H -11.8044 2.42026 -8.57118
H -12.7958 1.2444 -8.02233
O 13.1864 -2.87131 6.12857
H 12.9016 -2.92043 5.17124
H 14.1605 -2.65023 6.1756
O 6.17944 -3.77546 -3.18873
H 6.14982 -4.70496 -2.8211
H 6.57405 -3.1597 -2.50674
O -9.61582 -13.6841 0.346066
H -10.4199 -14.072 -0.104384
H -9.86426 -12.8214 0.786615
O -13.0846 11.4706 8.26756
H -12.7034 11.7035 9.16222
H -13.6643 10.6602 8.35296
O 4.56567 -7.84047 3.28065
H 4.68249 -7.8154 2.28781
H 5.4465 -7.67485 3.72418
O -12.0242 13.5691 6.03019
H -11.4757 13.141 5.31192
H -11.9807 13.012 6.85948
O -2.46806 10.3015 3.02614
H -3.24882 10.6413 3.55048
H -1.62695 10.7147 3.3751
O -1.6734 -7.74632 13.1811
H -2.18695 -6.97535 12.8044
H -0.785121 -7.4261 13.5104
O 10.071 5.6918 6.56543
H 10.983 5.30748 6.70911
H 10.1191 6.68967 6.60955
O 8.94113 -4.85525 -9.18639
H 9.41818 -5.72483 -9.05888
H 7.97829 -5.03032 -9.39207
O 6.46869 0.102599 11.6985
H 6.28479 -0.880311 11.7071
H 5.79469 0.57278 12.2683
O 1.67298 13.9752 8.76067
H 1.02105 14.6428 8.40103
H 2.11409 14.3468 9.57759
O -12.7762 10.4516 -3.48381
H -12.4051 10.4018 -4.41107
H -13.7658 10.3106 -3.51284
O -8.31476 -3.7955 1.30686
H -8.50981 -3.12841 2.02586
H -9.17121 -4.0846 0.879174
O 13.1911 -8.74461 8.07573
H 12.5205 -8.32523 7.46385
H 13.1283 -8.32117 8.97948
O -4.74261 1.82834 -4.89746
H -4.31025 2.31014 -5.65965
H -4.20942 1.01256 -4.67337
O -3.51901 1.58853 -13.7097
H -4.21464 0.88508 -13.5639
H -2.88231 1.28578 -14.4189
O -14.0811 -1.01717 4.25244
H -14.2983 -0.11792 3.87276
H -13.6975 -0.907968 5.16949
O -7.54893 1.08229 10.2542
H -7.67434 2.02301 9.93901
H -8.41267 0.585164 10.1716
O 9.33262 -12.7329 5.96154
H 9.1883 -13.6764 6.25962
H 10.3104 -12.5715 5.82732
O 14.099 13.5065 -4.09957
H 14.4136 14.1406 -4.80591
H 14.8768 13.2157 -3.54231
O 8.51429 11.4616 -7.8415
H 8.6806 10.4853 -7.70271
H 7.76089 11.5828 -8.48781
O -5.50466 -0.244779 -13.6744
H -4.83741 -0.988782 -13.7097
H -6.04344 -0.240055 -14.5168
O -1.85059 10.7804 -14.6629
H -2.688 11.0867 -14.2102
H -2.04697 10.571 14.3451
O -4.31058 3.63073 -7.09595
H -4.20585 4.44945 -6.53138
H -4.99603 3.79968 -7.8042
O 11.0149 -5.1587 -0.969092
H 11.0421 -4.17735 -0.778787
H 10.1364 -5.53187 -0.670771
O 6.84133 8.36367 14.22
H 6.22361 9.14959 14.1927
H 6.59757 7.72271 13.4922
O -7.2286 -10.3545 -3.45378
H -7.98069 -9.69556 -3.46644
H -6.63277 -10.1954 -4.24098
O 12.8129 -12.4022 4.89339
H 12.9007 -11.9211 4.0211
H 12.7175 -11.7362 5.63321
O -7.75205 12.9292 9.48809
H -8.59013 13.3471 9.13746
H -7.75816 12.958 10.4877
O -11.0458 2.80023 -10.1271
H -10.7301 2.75378 -11.0748
H -11.1029 3.75682 -9.84131
O -8.62086 0.794643 -1.98005
H -8.84639 1.64443 -1.5036
H -7.84374 0.355748 -1.52897
O 12.9461 -13.2199 -1.32134
H 12.7183 -14.0778 -1.78184
H 13.1204 -13.3976 -0.352802
O 5.95928 11.663 5.4496
H 5.06813 11.535 5.01429
H 6.40939 12.4655 5.058
O 4.6182 -11.9392 -6.80802
H 5.57317 -11.9768 -6.51368
H 4.55693 -11.4529 -7.67964
O -8.18955 -12.6599 -10.8894
H -8.52108 -11.8217 -10.4563
H -7.98054 -13.3386 -10.1854
O 0.997822 12.2629 14.0669
H 0.713019 12.869 14.8095
H 1.9764 12.3801 13.8977
O 0.95396 10.6253 -7.1304
H 1.52946 10.6716 -7.94689
H 0.288639 11.3716 -7.14879
O 12.4317 6.07067 -3.97402
H 12.5282 6.2075 -2.98813
H 11.4945 6.28384 -4.24992
O -11.3048 -13.7346 6.90118
H -12.0151 -13.0442 6.76418
H -11.6633 -14.6351 6.65523
O 7.19497 -8.9168 -4.14785
H 6.31899 -9.07502 -4.6035
H 7.78003 -8.35764 -4.73526
O -1.70309 10.3936 10.6648
H -0.717922 10.5365 10.7599
H -1.88447 9.42522 10.4936
O -2.59737 0.328216 -11.2185
H -2.24665 1.25129 -11.3764
H -3.26418 0.0991785 -11.9276
O 12.3317 4.41521 11.8026
H 12.0684 5.2504 11.3198
H 11.8901 3.62803 11.3721
O -9.49365 0.869146 13.3187
H -10.155 0.508218 13.9762
H -9.61461 1.85809 13.233
O -11.9281 -7.66884 -9.4545
H -12.3103 -8.50744 -9.84268
H -10.9357 -7.76132 -9.37316
O 5.73071 13.6469 1.79527
H 5.13332 13.9563 1.05541
H 5.37836 13.9803 2.66973
O -11.4868 -13.4554 -12.2365
H -11.4117 -12.8942 -11.4123
H -10.9208 -13.0615 -12.9608
O 8.02385 1.13373 9.8152
H 7.49483 0.533903 10.4155
H 7.6962 2.07372 9.91046
O 7.82687 3.86592 -14.1242
H 8.43336 3.39519 -13.4834
H 7.16292 3.21574 -14.4935
O 0.513771 3.97794 11.9238
H 1.29184 4.18542 12.5168
H -0.231133 4.61697 12.1156
O 1.48389 13.3304 -0.0591897
H 1.15723 13.8215 0.748385
H 0.710981 13.1245 -0.659369
O -12.3147 -3.37355 7.96921
H -12.5159 -4.35256 7.93665
H -12.7224 -2.97664 8.79153
O -5.87644 10.0003 0.984365
H -6.5951 9.5163 1.48367
H -5.03587 9.45883 1.00186
O -4.28351 -13.3939 9.80887
H -4.7436 -12.5298 10.0129
H -4.96131 -14.1269 9.75116
O 7.35102 -1.65068 5.34364
H 6.79943 -0.84881 5.57336
H 6.77053 -2.34273 4.91457
O -11.9051 -12.7532 9.48619
H -11.4439 -13.2067 10.2488
H -11.7147 -13.2492 8.63899
O -7.63725 14.8846 1.54645
H -7.73799 13.8935 1.63413
H -8.52066 -14.6761 1.31126
O -1.36038 1.66942 14.3152
H -1.1463 2.60641 14.5913
H -1.78405 1.67738 13.4094
O -6.48445 -4.93896 12.0618
H -6.68487 -4.19504 11.4243
H -7.27731 -5.54488 12.1269
O 9.31477 -1.25626 12.2996
H 9.73015 -1.90156 11.6585
H 8.63066 -0.705266 11.8217
O -12.8276 -7.3241 10.4952
H -12.4002 -8.21003 10.3152
H -13.2996 -7.00831 9.67205
O -10.6609 -5.99118 -2.0527
H -9.88677 -6.30936 -1.50551
H -10.4137 -5.14087 -2.51726
O 9.59447 1.71233 1.90803
H 9.95423 2.45433 2.47373
H 9.01584 1.11791 2.46648
O -1.4284 12.9393 12.9944
H -1.82458 13.0902 13.9001
H -0.472095 12.6632 13.0907
O 12.3663 -5.0853 -9.53915
H 13.3387 -5.27856 -9.40871
H 11.846 -5.93707 -9.47761
O -6.4174 -7.53716 -9.82305
H -6.58476 -8.20595 -10.5474
H -6.28994 -6.63184 -10.2282
O 3.05245 3.26673 -12.7147
H 3.92897 3.00735 -12.3092
H 2.34006 3.24077 -12.0134
O -6.58467 1.50069 6.64927
H -7.22581 2.14355 6.23013
H -5.71933 1.96626 6.83488
O -12.7649 11.4784 -8.80514
H -11.7713 11.3823 -8.86563
H -13.189 11.0705 -9.6137
O 14.4206 -7.52835 -9.00065
H 13.4759 -7.45673 -8.68088
H 14.793 -8.42002 -8.74319
O 2.5182 -9.71235 0.138581
H 3.20854 -9.67529 0.861118
H 1.62899 -9.45001 0.513397
O 10.3157 13.5786 -7.95326
H 11.1271 13.2719 -7.45561
H 9.65833 12.8275 -8.0141
O 4.35311 -9.34293 11.4234
H 4.87133 -9.20942 12.2682
H 3.44668 -8.93174 11.5199
O 5.73051 11.8507 -12.924
H 4.75756 11.8088 -12.6968
H 5.84662 11.7512 -13.9122
O 8.11593 6.67085 -0.752747
H 7.9665 7.567 -1.1706
H 7.36766 6.46876 -0.120874
O -11.848 -11.2703 -3.6842
H -12.2059 -10.7505 -2.90847
H -11.2013 -11.9581 -3.3546
O -3.05628 -8.91722 10.8076
H -3.21172 -9.82906 11.1876
H -2.71691 -8.31011 11.5261
O 9.50401 -3.18317 -11.4068
H 9.64452 -3.70385 -10.5647
H 10.3417 -2.68736 -11.6359
O 11.1279 5.30518 -10.4563
H 12.0118 4.94106 -10.1628
H 11.0334 5.19383 -11.4456
O -2.88279 9.18577 6.46519
H -3.13712 8.23098 6.31126
H -1.92723 9.23342 6.75612
O -8.09503 12.237 12.3954
H -7.55256 11.4243 12.1829
H -9.02198 11.9618 12.6503
O 6.18517 -0.624527 -8.8093
H 6.92716 -1.10385 -9.27802
H 6.56176 0.134509 -8.27822
O 7.22517 13.9666 4.62278
H 8.0321 14.0461 5.20805
H 6.98564 14.8676 4.2611
O -3.18695 -11.7325 -0.675427
H -2.70093 -10.8615 -0.747217
H -3.95183 -11.7414 -1.31954
O -7.93794 -13.068 -4.58249
H -7.18177 -12.647 -5.08349
H -7.66384 -13.9764 -4.2668
O -1.80138 5.38881 8.25646
H -0.847147 5.1707 8.05186
H -2.11678 4.8227 9.01808
O 6.06806 8.80472 -7.2648
H 5.13715 9.14645 -7.13587
H 6.05527 8.03556 -7.90373
O 14.1174 12.0134 5.08795
H 14.2682 11.282 4.42297
H 14.9789 12.4918 5.25828
O -4.35643 -13.0555 3.826
H -5.21026 -13.5676 3.73263
H -3.68734 -13.4001 3.16754
O -12.0755 -9.91882 -6.12574
H -12.315 -10.448 -6.93974
H -12.0502 -10.5242 -5.33016
O -4.46745 3.87106 1.35876
H -4.29933 4.04038 0.387647
H -4.88885 4.67935 1.76997
O -7.72532 -0.572971 14.8948
H -8.20719 -0.89591 -14.2566
H -8.36763 -0.0962516 14.2947
O 5.582 3.32669 5.65278
H 5.49806 2.40062 6.02068
H 5.19162 3.97979 6.30168
O -12.6343 10.3309 -6.32529
H -13.0802 9.48502 -6.61782
H -12.624 10.982 -7.08426
O 0.789786 9.86133 0.620768
H 1.61014 9.65187 1.15289
H 0.430812 10.7524 0.89854
O -11.3119 -10.1765 10.1963
H -11.3553 -11.1543 9.99137
H -11.2084 -10.0469 11.1825
O -7.23804 0.688099 -4.61775
H -8.02521 1.24008 -4.34264
H -6.41516 1.25632 -4.61489
O -1.5955 6.92032 -4.53128
H -0.918737 7.1436 -5.23282
H -1.23458 6.20188 -3.93665
O -1.98701 11.8857 5.59212
H -2.58201 12.4634 6.15089
H -2.25844 10.9288 5.69587
O -4.29332 -5.29721 2.99205
H -4.81122 -4.83707 2.2709
H -4.76814 -5.18745 3.86527
O 13.1551 6.84688 -13.1565
H 12.4321 6.2095 -12.89
H 13.9418 6.33387 -13.4999
O -10.2617 12.6275 4.1648
H -10.3323 12.6933 3.16946
H -10.1514 11.6693 4.42849
O 7.74969 -1.86406 1.53964
H 7.91834 -1.11867 2.18459
H 7.70857 -2.73129 2.03587
O 10.7156 8.27874 7.10295
H 10.4699 9.20222 7.39768
H 11.3183 7.86113 7.78286
O -11.46 7.80717 2.23202
H -12.3655 7.54542 2.56602
H -11.0312 7.02355 1.78252
O 1.98093 -8.33265 4.48474
H 2.64027 -7.84743 3.91043
H 2.10509 -9.31878 4.3745
O -0.56215 -4.81785 10.8029
H -1.27485 -4.11821 10.7523
H -0.861145 -5.63456 10.3093
O -0.753917 -8.72427 6.51999
H -0.183362 -8.85534 7.33073
H -0.560692 -7.82945 6.11755
O 10.0774 10.7418 0.805256
H 10.6362 10.8547 1.62684
H 9.23743 11.2765 0.897354
O -8.89717 -6.99129 -13.498
H -8.20888 -7.11472 -12.7831
H -9.71591 -7.5168 -13.2667
O 14.2556 11.9186 14.9778
H 13.3751 11.6763 14.5704
H 14.1559 11.9874 -13.9956
O 10.4544 -7.25201 -9.3037
H 10.0795 -7.62153 -10.1539
H 10.5265 -7.9834 -8.62556
O 12.357 9.64376 -13.7514
H 12.1157 8.67476 -13.8045
H 11.969 10.1274 -14.536
O -5.76877 10.8154 9.68542
H -6.36182 11.5932 9.47714
H -5.28475 10.534 8.85683
O -10.8727 -4.5063 0.393013
H -11.0229 -5.1926 -0.318619
H -11.621 -3.84308 0.379777
O -6.51955 9.51092 -9.15281
H -6.97745 10.2797 -9.59917
H -6.66175 9.56646 -8.16453
O 3.23705 -8.33504 -10.9793
H 2.37712 -8.80865 -11.1696
H 3.12473 -7.75003 -10.1761
O -14.8417 -12.8249 10.1706
H 14.9533 -12.6094 9.20918
H -13.8559 -12.8453 10.3374
O 1.99958 0.492126 -11.7877
H 2.58039 -0.022357 -11.1568
H 1.59129 1.26827 -11.3072
O 14.557 -1.96023 -13.5354
H 14.1139 -1.92163 -14.431
H -14.4176 -2.01217 -13.6559
O 6.26331 5.82877 -8.25788
H 5.92377 4.96761 -7.87957
H 6.06962 5.86145 -9.2384
O -9.39742 1.24333 -8.45266
H -8.79027 1.61322 -7.74941
H -9.77314 1.9935 -8.9968
O 4.54707 -2.4267 11.5302
H 4.38814 -3.07461 12.2752
H 3.67998 -2.00565 11.264
O 9.45913 -6.05448 10.9892
H 9.96185 -6.91837 10.958
H 8.54803 -6.18472 10.5981
O 10.5752 -11.2828 10.421
H 11.2584 -11.3348 9.69267
H 10.876 -11.8329 11.2001
O 7.73946 2.7299 -9.83608
H 8.22752 3.0659 -10.6416
H 8.22742 3.01061 -9.00958
O 4.13951 14.5941 13.8926
H 3.89801 14.8482 14.8291
H 4.00708 13.6105 13.7695
O -10.6651 5.39308 -13.0147
H -10.777 6.27557 -13.4716
H -10.2612 5.53444 -12.1109
O -6.05168 -6.33341 -6.55232
H -6.049 -6.31463 -7.55214
H -5.41899 -5.64164 -6.20424
O 5.04045 2.782 -10.3061
H 6.02382 2.75863 -10.126
H 4.55067 2.97947 -9.45692
O -3.74138 -5.35652 -0.542781
H -4.31978 -5.89655 -1.1542
H -4.31345 -4.89163 0.132944
O -1.89677 1.96978 6.01779
H -2.37913 2.19316 5.17077
H -0.969783 2.34316 5.98187
O -1.83392 0.327944 8.32148
H -1.60603 0.894486 7.52959
H -2.82663 0.223776 8.38218
O 1.65218 11.242 10.1579
H 2.44929 11.8458 10.1543
H 0.986948 11.5641 9.48432
O 1.4628 4.79466 -6.14132
H 0.689721 5.39986 -6.33129
H 2.31852 5.28765 -6.29854
O 6.89055 9.04654 6.78112
H 7.62106 8.37417 6.66161
H 7.0851 9.85292 6.22263
O 7.24957 11.3305 -5.09233
H 6.64433 10.5951 -5.39711
H 7.81965 11.6314 -5.85683
O -14.5866 1.3095 3.15797
H 14.3872 1.41391 3.08933
H -14.1828 1.35374 2.24419
O -12.2418 2.59484 -3.17626
H -13.0188 3.03773 -3.62352
H -11.5325 2.40208 -3.85426
O -14.9149 -4.10478 12.0904
H -14.1242 -4.3626 12.6457
H -14.6201 -3.49783 11.3523
O -6.30276 -2.68916 -6.99449
H -7.10446 -2.92756 -6.44635
H -5.51342 -3.21436 -6.6765
O 13.0751 -14.1958 1.22201
H 12.5152 -14.9474 0.873303
H 13.559 -14.4944 2.04459
O 10.6494 -14.1825 -9.78365
H 9.67361 -14.0917 -9.98256
H 10.7728 -14.7604 -8.97698
O 11.0437 13.6832 0.989104
H 10.2437 13.2762 0.548187
H 11.866 13.1864 0.711464
O -4.79717 12.1947 -2.8942
H -5.60709 12.0587 -2.32365
H -4.98802 11.8806 -3.82422
O -9.83764 12.4956 -1.54771
H -8.84498 12.4695 -1.42957
H -10.062 13.0231 -2.36711
O -13.1172 3.71415 14.5747
H -12.2393 4.0419 14.9236
H -13.3152 4.158 13.7007
O 13.268 4.48095 3.68881
H 14.0683 4.04749 4.10294
H 13.5301 4.90653 2.8227
O 6.47589 14.234 -8.09223
H 5.75159 14.7633 -8.53405
H 6.44552 13.2896 -8.41951
O -4.7275 -9.81178 7.00866
H -5.12497 -9.46394 6.15952
H -4.37929 -10.7372 6.85911
O -8.91844 14.8768 5.20836
H -9.53088 -14.6222 5.84621
H -9.36564 14.0532 4.85936
O -8.65283 -10.6869 9.63878
H -8.65841 -11.3039 8.85181
H -9.53896 -10.2289 9.70953
O 12.482 -2.53493 -10.4632
H 11.9655 -1.96889 -9.82071
H 12.779 -3.37275 -10.0051
O 10.5025 -12.6384 -6.30585
H 11.4376 -12.383 -6.55146
H 10.4711 -13.6121 -6.08045
O 1.30419 5.57422 -1.52849
H 0.627555 5.10155 -2.09308
H 0.83586 6.1645 -0.871038
O 1.66477 7.61361 -8.98342
H 0.732551 7.6028 -9.34517
H 2.03341 8.54147 -9.03976
O -2.69121 12.7972 -12.3038
H -3.55678 12.3842 -12.587
H -2.62308 13.7206 -12.6816
O 11.4402 -10.2691 -11.8909
H 10.9704 -10.6362 -11.0881
H 12.4277 -10.2817 -11.734
O -9.64162 14.77 8.84755
H -10.3058 14.8051 9.59433
H -10.071 -14.8729 8.00416
O -5.36856 -1.38341 -4.27031
H -5.77623 -2.19986 -3.86137
H -6.07178 -0.681876 -4.38579
O 9.87009 -14.2358 -2.24884
H 10.5571 -14.9204 -2.49268
H 9.14644 -14.6671 -1.71001
O 11.4708 -1.05728 3.45024
H 11.2061 -0.911538 4.4035
H 11.827 -1.98532 3.34138
O -10.9646 8.3082 -10.4722
H -10.5249 8.39007 -9.57784
H -11.8504 8.77187 -10.4518
O -1.19825 -6.70966 9.25821
H -2.0975 -7.05396 8.98837
H -0.533365 -7.45608 9.23007
O -10.9732 10.0193 -1.66137
H -11.8854 10.1549 -2.04814
H -10.4763 10.8871 -1.66742
O 14.0276 -0.556131 10.0666
H 13.0931 -0.32332 9.79747
H 14.4111 0.186423 10.6158
O 12.1925 -11.3967 8.12618
H 12.5308 -10.4579 8.06131
H 12.9 -12.0286 7.80971
O 14.2164 -8.34726 -11.6822
H 13.9203 -7.51183 -12.1453
H 14.3393 -8.16228 -10.7072
O 2.67719 -10.4965 14.7251
H 1.85125 -9.93287 14.712
H 3.44156 -9.97665 14.3437
O 14.5603 -12.8333 7.59263
H 14.3216 -13.7736 7.34996
H -14.5451 -12.5828 7.14904
O 12.1115 14.3198 -2.44743