LAMMPS data file via write_data, version 15 May 2015, timestep = 1000000

4560 atoms
7 atom types
5040 bonds
3 bond types
7200 angles
2 angle types
10560 dihedrals
3 dihedral types
2400 impropers
1 improper types

-1.0763502675555259e-01 4.1387635026745990e+01 xlo xhi
-4.0433884491974936e-02 3.5938433884472119e+01 ylo yhi
-3.5711112484589691e-01 2.9555111124838550e+01 zlo zhi
-6.7234083837551181e-02 -1.7036217651000683e+01 -4.1707816797290791e-02 xy xz yz

Masses

1 12.0107
2 1.008
3 12.0107
4 12.0107
5 12.0107
6 12.0107
7 12.0107

Pair Coeffs # lj/cut/coul/long

1 0.07 3.55
2 0.03 2.42
3 0.07 3.55
4 0.07 3.55
5 0.07 3.55
6 0 0
7 0.07 3.55

Bond Coeffs # harmonic

1 469 1.4
2 367 1.08
3 469 0.7

Angle Coeffs # harmonic

1 35 120
2 63 120

Dihedral Coeffs # opls

1 0 7.25 0 0
2 0 7.25 0 0
3 0 7.25 0 0

Improper Coeffs # cvff

1 2.5 -1 2

Atoms # full

219 13 3 0.0000000000000000e+00 -2.3133185636215958e-01 3.1160271158342749e+00 3.1280797396702331e+00 1 0 0
220 13 4 -1.1500000000000000e-01 3.2863534430690500e-01 4.1019141332907694e+00 2.3677288195497503e+00 1 0 0
224 13 2 1.1500000000000000e-01 4.9336095663972590e-01 5.0810397235046372e+00 2.7784307204531222e+00 1 0 0
580 33 4 -1.1500000000000000e-01 2.6594194645919593e+00 6.6995931833009230e+00 4.0205494347870347e+00 1 0 0
228 13 3 0.0000000000000000e+00 -5.5398780357843669e-01 1.8384691382843887e+00 2.6660779812723177e+00 1 0 0
989 53 4 -1.1500000000000000e-01 -1.4147854900736481e+00 7.0553862761717170e+00 3.4667331414548261e+00 1 0 0
600 34 2 1.1500000000000000e-01 1.4148832417270096e-01 5.7799769591579997e+00 6.9012537558298837e+00 1 0 0
245 14 4 -1.1500000000000000e-01 -4.9198725797765164e+00 1.4262318437326853e+00 9.0674088466395677e+00 1 0 0
227 13 4 -1.1500000000000000e-01 -2.1368231903008938e-01 1.5896404499782668e+00 1.3016607305760399e+00 1 0 0
4390 233 1 -1.1500000000000000e-01 2.3929046635008397e+00 7.6399564363276040e-01 5.5337906680242384e+00 1 1 0
733 13 6 0.0000000000000000e+00 -4.7148646481461931e-01 2.5029456117613638e+00 2.8881912170490374e+00 1 0 0
993 53 2 1.1500000000000000e-01 -1.8578229399063946e+00 6.2576514995801782e+00 2.8979358128397146e+00 1 0 0
230 13 1 -1.1500000000000000e-01 6.3693130200655723e-01 3.7809658504119814e+00 1.0236663536966784e+00 1 0 0
217 13 7 -1.1500000000000000e-01 -1.2534953366485093e+00 2.3333615174449367e+00 5.2733931198429094e+00 1 0 0
218 13 5 -1.1500000000000000e-01 -6.3040677206504725e-01 3.3663772980571132e+00 4.5081565942382236e+00 1 0 0
221 13 1 -1.1500000000000000e-01 -1.6121590850675733e+00 1.0762166885072046e+00 4.7304951297352202e+00 1 0 0
222 13 2 1.1500000000000000e-01 -1.3741288106844016e+00 2.3995338620446516e+00 6.3331719364093013e+00 1 0 0
223 13 2 1.1500000000000000e-01 -2.1713037884037023e-01 4.1729494095109292e+00 5.1078076066898754e+00 1 0 0
248 14 1 -1.1500000000000000e-01 -3.5891475571615397e+00 3.4053853845408439e+00 8.6681569220005592e+00 1 0 0
4380 233 4 -1.1500000000000000e-01 2.6123871542572208e+00 1.1432967081043643e+00 4.2067970414388238e+00 1 1 0
244 14 1 -1.1500000000000000e-01 -4.2369264611324065e+00 2.2761580987450794e+00 8.1606348815942162e+00 1 0 0
603 34 2 1.1500000000000000e-01 1.0436392765790288e+00 3.6744621823421602e+00 7.5647371276244106e+00 1 0 0
4396 234 5 -1.1500000000000000e-01 -7.6293038008520409e-01 2.7089246449675541e-01 9.2033041675171745e+00 1 1 0
4394 233 2 1.1500000000000000e-01 1.8602417645585501e+00 1.3404405392994378e+00 6.2427873119619486e+00 1 1 0
579 33 3 0.0000000000000000e+00 3.3016878760130002e+00 5.8055966692110532e+00 3.1544743132952240e+00 1 0 0
252 14 2 1.1500000000000000e-01 -3.0593475594084789e+00 4.0833339088390890e+00 8.0465131309679592e+00 1 0 0
581 33 1 -1.1500000000000000e-01 4.6744008744951380e+00 3.9934832562660421e+00 1.4495951015602404e+00 1 0 0
596 34 5 -1.1500000000000000e-01 -5.0957061876763365e-01 6.3139436736080503e+00 8.8758764404202211e+00 1 0 0
577 33 7 -1.1500000000000000e-01 4.1300144555675322e+00 5.2004964350300042e+00 9.7663900460760544e-01 1 0 0
588 33 3 0.0000000000000000e+00 3.8588084256838919e+00 4.6229340421290379e+00 3.7426653614674521e+00 1 0 0
589 33 4 -1.1500000000000000e-01 4.5229938329476003e+00 3.7329175449522882e+00 2.8668896557938930e+00 1 0 0
593 33 2 1.1500000000000000e-01 5.0086078244952308e+00 2.8672237160779597e+00 3.3054330507616605e+00 1 0 0
753 33 6 0.0000000000000000e+00 3.6697928723059778e+00 5.1748855197353274e+00 3.3171075935449945e+00 1 0 0
4383 233 2 1.1500000000000000e-01 2.8914856720358029e+00 1.4551330765673387e+00 1.5612177612792695e+00 1 1 0
4379 233 3 0.0000000000000000e+00 3.3082718664077575e+00 2.5047152413072843e-01 3.3412240120137722e+00 1 1 0
578 33 5 -1.1500000000000000e-01 3.4389938953972634e+00 6.0921064517079682e+00 1.7774977378083303e+00 1 0 0
226 13 1 -1.1500000000000000e-01 3.8745266884549356e-01 2.5409933463941292e+00 4.6034222708769024e-01 1 0 0
4384 233 2 1.1500000000000000e-01 2.2222154395231137e+00 2.0604071419625121e+00 3.7976356591537712e+00 1 1 0
586 33 1 -1.1500000000000000e-01 3.1458780089095697e+00 5.3345779345652131e+00 6.0039001475300964e+00 1 0 0
587 33 4 -1.1500000000000000e-01 3.8532428258866438e+00 4.4328951966480501e+00 5.1385265264216633e+00 1 0 0
585 33 2 1.1500000000000000e-01 5.2197875349722933e+00 3.3147344928596576e+00 7.6451942966870101e-01 1 0 0
591 33 2 1.1500000000000000e-01 3.1260330184396530e+00 5.1496501258064002e+00 7.0477581371295122e+00 1 0 0
592 33 2 1.1500000000000000e-01 4.1791077774967826e+00 3.4523487708180589e+00 5.5757194304377222e+00 1 0 0
590 33 1 -1.1500000000000000e-01 2.5609203292058531e+00 6.4573856595834771e+00 5.3821098130627556e+00 1 0 0
987 53 4 -1.1500000000000000e-01 -8.3325291384700839e-01 7.9568446396914947e+00 1.2816637928240335e+00 1 0 0
234 13 2 1.1500000000000000e-01 9.7454085660107914e-01 4.6016188927602801e+00 3.7318275314318150e-01 1 0 0
229 13 4 -1.1500000000000000e-01 -1.2774184707567002e+00 8.5909906021131111e-01 3.4180805834126335e+00 1 0 0
249 14 2 1.1500000000000000e-01 -4.1429430382078207e+00 2.0305110331582878e+00 7.1048758297094841e+00 1 0 0
985 53 2 1.1500000000000000e-01 -1.8837750923515282e+00 6.3644303170979253e+00 5.3931236763376118e+00 1 0 0
599 34 1 -1.1500000000000000e-01 5.3219790905773579e-01 4.2475325791998637e+00 8.3383468630664979e+00 1 0 0
4401 234 2 1.1500000000000000e-01 -1.0315098969542511e+00 1.2931313458578961e+00 8.9051451377352642e+00 1 1 0
225 13 2 1.1500000000000000e-01 -2.0879035111168722e+00 2.5395683035283173e-01 5.2543024917407433e+00 1 0 0
595 34 7 -1.1500000000000000e-01 3.4731369855695249e-02 5.4990178575657822e+00 7.9285997862458562e+00 1 0 0
981 53 1 -1.1500000000000000e-01 -1.4187306558999186e+00 7.1770556738994769e+00 4.8584004541059684e+00 1 0 0
4378 233 5 -1.1500000000000000e-01 3.3929093648106221e+00 4.9401876510001203e-01 1.9532611916188456e+00 1 1 0
582 33 2 1.1500000000000000e-01 4.4660678292664411e+00 5.4278698669965175e+00 -4.9390410074372115e-02 1 0 0
583 33 2 1.1500000000000000e-01 2.9598771362345224e+00 6.9629983339203898e+00 1.3518642940228911e+00 1 0 0
584 33 2 1.1500000000000000e-01 2.2593186309404829e+00 7.5190276877792659e+00 3.4759855551913335e+00 1 0 0
232 13 2 1.1500000000000000e-01 -3.1565799130881395e-01 6.0433967566937896e-01 1.0148523564230487e+00 1 0 0
1493 53 6 0.0000000000000000e+00 -6.3431486032907158e-01 8.6833042494860031e+00 2.9605497330246138e+00 1 0 0
1009 54 2 1.1500000000000000e-01 -3.5033561003662470e+00 7.3750220366057038e+00 7.0318513809731753e+00 1 0 0
1005 54 4 -1.1500000000000000e-01 -4.4834594658306495e+00 7.1311082092375857e+00 8.9165250593768164e+00 1 0 0
594 33 2 1.1500000000000000e-01 2.1044926574630098e+00 7.1926438259013041e+00 5.9847631916238599e+00 1 0 0
977 53 7 -1.1500000000000000e-01 -8.1466000507709024e-01 8.3222324322761132e+00 5.4975305268312500e+00 1 0 0
982 53 2 1.1500000000000000e-01 -1.0489933143648908e+00 8.5724186510955906e+00 6.5834333603489181e+00 1 0 0
1004 54 1 -1.1500000000000000e-01 -3.6120280308127848e+00 7.7645153944812684e+00 8.0335511961441544e+00 1 0 0
988 53 3 0.0000000000000000e+00 -7.8707662534779499e-01 8.0299040408493720e+00 2.6815002773077796e+00 1 0 0
1010 54 2 1.1500000000000000e-01 -4.9741369228637469e+00 6.1722737980788231e+00 8.7801748952339587e+00 1 0 0
601 34 2 1.1500000000000000e-01 -8.2819577091699159e-01 7.2944338602296801e+00 8.6653340723489301e+00 1 0 0
322 18 2 1.1500000000000000e-01 2.6825111095140750e+00 2.3264952297344374e-01 9.1050261569555389e+00 1 0 0
1064 57 2 1.1500000000000000e-01 7.1455668896646118e+00 6.3972491173378696e+00 9.3381775911948983e-01 1 0 0
986 53 1 -1.1500000000000000e-01 -1.8407177587913692e-01 8.9451149547189388e+00 5.4022663650980540e-01 1 0 0
1353 73 2 1.1500000000000000e-01 4.9635193766608356e+00 8.7935585332389312e+00 2.9493791042408342e+00 1 0 0
235 14 7 -1.1500000000000000e-01 -5.2449920485003032e+00 2.2624626751837726e+00 1.3180796860689114e+01 1 0 0
236 14 5 -1.1500000000000000e-01 -4.5917754739921044e+00 3.1850693624811668e+00 1.2309718225716335e+01 1 0 0
597 34 3 0.0000000000000000e+00 -6.2438245056013830e-01 5.8710497317916426e+00 1.0226953028185768e+01 1 0 0
734 14 6 0.0000000000000000e+00 -4.7294827539295303e+00 2.3763047824829782e+00 1.0515298800365194e+01 1 0 0
239 14 1 -1.1500000000000000e-01 -5.7261597818333252e+00 1.0105830631752342e+00 1.2660400489045950e+01 1 0 0
240 14 2 1.1500000000000000e-01 -5.4454538742252954e+00 2.4293894857848670e+00 1.4248423258913911e+01 1 0 0
243 14 2 1.1500000000000000e-01 -6.2656265989579820e+00 3.7729372640912284e-01 1.3300765878392149e+01 1 0 0
4416 235 4 -1.1500000000000000e-01 -5.8817445443820038e+00 8.6340021792869737e-01 1.9027552790001099e+01 1 1 0
4420 235 2 1.1500000000000000e-01 -6.1788643851518579e+00 1.9107879871627989e+00 1.8670045690545681e+01 1 1 0
237 14 3 0.0000000000000000e+00 -4.5013148242843961e+00 2.9308638248832368e+00 1.0933723786239563e+01 1 0 0
4402 234 2 1.1500000000000000e-01 -2.1204258638908238e+00 1.6358363125544564e+00 1.1056694151066015e+01 1 1 0
620 35 2 1.1500000000000000e-01 -6.5094187026131829e+00 7.3583760452545359e+00 1.9256524669282637e+01 1 0 0
242 14 2 1.1500000000000000e-01 -3.2820523021640335e+00 4.6554992033687030e+00 1.0333348710175228e+01 1 0 0
255 15 3 0.0000000000000000e+00 -8.8069250756891488e+00 3.1449249095382732e+00 1.8183116590707275e+01 1 0 0
256 15 4 -1.1500000000000000e-01 -8.1106929539576491e+00 3.9326385095512864e+00 1.7228807048572492e+01 1 0 0
260 15 2 1.1500000000000000e-01 -7.7281051261859020e+00 4.9136055850889484e+00 1.7377276069008968e+01 1 0 0
1011 54 2 1.1500000000000000e-01 -6.2265786403524022e+00 6.1212010478873289e+00 1.0706622915377062e+01 1 0 0
4414 235 5 -1.1500000000000000e-01 -4.9233859595922729e+00 3.1696104368920880e-01 1.6856140223668298e+01 1 1 0
264 15 3 0.0000000000000000e+00 -9.3241608068428068e+00 1.8727442398670027e+00 1.7805486414749197e+01 1 0 0
262 15 1 -1.1500000000000000e-01 -8.4307860409082291e+00 2.1298299672882841e+00 1.5556960397332602e+01 1 0 0
266 15 1 -1.1500000000000000e-01 -7.8660857038013603e+00 3.3504471963520976e+00 1.5952786647306478e+01 1 0 0
4408 234 1 -1.1500000000000000e-01 -1.9264321708805046e+00 3.0945925432531285e-01 1.2714798644663105e+01 1 1 0
238 14 4 -1.1500000000000000e-01 -3.7636848833673451e+00 3.7574128125865265e+00 1.0031600243413342e+01 1 0 0
263 15 4 -1.1500000000000000e-01 -9.1537840806955533e+00 1.4113206089213195e+00 1.6505953625224237e+01 1 0 0
735 15 6 0.0000000000000000e+00 -8.9861249026634891e+00 2.4552903266080568e+00 1.8091682644778899e+01 1 0 0
246 14 3 0.0000000000000000e+00 -5.0103370310024085e+00 1.7348930353064203e+00 1.0431096824921610e+01 1 0 0
265 15 4 -1.1500000000000000e-01 -1.0021683838607986e+01 1.1063432217236389e+00 1.8719701208325638e+01 1 0 0
604 34 1 -1.1500000000000000e-01 -7.3181279852263081e-01 5.0178243823437656e+00 1.2889822542582516e+01 1 0 0
605 34 4 -1.1500000000000000e-01 -2.9446026992165031e-01 4.1376518601625367e+00 1.1910997840163164e+01 1 0 0
606 34 3 0.0000000000000000e+00 -1.6068137752282841e-01 4.5751852770518333e+00 1.0585724815871714e+01 1 0 0
611 34 2 1.1500000000000000e-01 7.0299835841420322e-01 2.7011575985860872e+00 9.7557666133465180e+00 1 0 0
1006 54 3 0.0000000000000000e+00 -4.8120863613984870e+00 7.7299359721962695e+00 1.0104309212685385e+01 1 0 0
1029 55 2 1.1500000000000000e-01 -1.0255939394192426e+01 5.8998936424165054e+00 1.7910470766114855e+01 1 0 0
610 34 2 1.1500000000000000e-01 -2.1275922236752010e-02 3.0863937587791206e+00 1.2161989131888006e+01 1 0 0
241 14 2 1.1500000000000000e-01 -4.2439809175250147e+00 4.2208715907057348e+00 1.2576725929448864e+01 1 0 0
1024 55 3 0.0000000000000000e+00 -9.1846417663422866e+00 7.7104614401128782e+00 1.7467401321413114e+01 1 0 0
598 34 4 -1.1500000000000000e-01 -1.0876492226944654e+00 6.7773412443342025e+00 1.1201909815156945e+01 1 0 0
754 34 6 0.0000000000000000e+00 -4.2596314050355577e-01 5.2579759929047887e+00 1.0458946419315065e+01 1 0 0
609 34 2 1.1500000000000000e-01 -6.9808727921965907e-01 4.7354702710723071e+00 1.3930888869515393e+01 1 0 0
613 35 7 -1.1500000000000000e-01 -4.4809324051261887e+00 5.5497339413837246e+00 1.6094647796360423e+01 1 0 0
618 35 2 1.1500000000000000e-01 -4.5498063270036377e+00 5.9624393267128690e+00 1.5101184773559471e+01 1 0 0
615 35 3 0.0000000000000000e+00 -5.2378311814349701e+00 5.7534224420259807e+00 1.8416089031249502e+01 1 0 0
617 35 1 -1.1500000000000000e-01 -3.8458995245720837e+00 4.3333472484104201e+00 1.6384029947696973e+01 1 0 0
621 35 2 1.1500000000000000e-01 -3.3211049426159160e+00 3.8212541633773496e+00 1.5605812313611636e+01 1 0 0
624 35 3 0.0000000000000000e+00 -4.6737618055825942e+00 4.5062238264432333e+00 1.8727210361171526e+01 1 0 0
625 35 4 -1.1500000000000000e-01 -3.9265513867050732e+00 3.8198153098615482e+00 1.7726302411973403e+01 1 0 0
629 35 2 1.1500000000000000e-01 -3.5277577448628143e+00 2.8719179086719206e+00 1.8022100504486279e+01 1 0 0
755 35 6 0.0000000000000000e+00 -4.9377375541750128e+00 5.1178583784801477e+00 1.8519848092087464e+01 1 0 0
270 15 2 1.1500000000000000e-01 -7.1413717291999834e+00 3.7969543076036638e+00 1.5346546843793627e+01 1 0 0
4398 234 4 -1.1500000000000000e-01 -1.6576064215514652e+00 7.2380142675002046e-01 1.1383562883940668e+01 1 1 0
4412 234 2 1.1500000000000000e-01 -2.4562895755605778e+00 9.0613596967437349e-01 1.3445048499119007e+01 1 1 0
614 35 5 -1.1500000000000000e-01 -5.1995764518162559e+00 6.2367649244685515e+00 1.7040192987645892e+01 1 0 0
247 14 4 -1.1500000000000000e-01 -5.7244760997655009e+00 8.1059392840536260e-01 1.1226327715793895e+01 1 0 0
4419 235 2 1.1500000000000000e-01 -5.2882770049418584e+00 1.2611211558105859e+00 1.6427548888301761e+01 1 1 0
1025 55 4 -1.1500000000000000e-01 -9.7902015451356021e+00 6.7940111238830667e+00 1.8342600257432018e+01 1 0 0
608 34 1 -1.1500000000000000e-01 -1.1385325574368652e+00 6.3208892397850667e+00 1.2492550212169979e+01 1 0 0
616 35 4 -1.1500000000000000e-01 -5.9437145065900649e+00 6.4620639055099787e+00 1.9422413624502482e+01 1 0 0
612 34 2 1.1500000000000000e-01 -1.5854120510458607e+00 6.9827746957897157e+00 1.3306557559367651e+01 1 0 0
267 15 2 1.1500000000000000e-01 -8.2632636601550509e+00 1.6739887230534478e+00 1.4601201669342496e+01 1 0 0
1022 55 1 -1.1500000000000000e-01 -8.5297804704045923e+00 8.3231451565033829e+00 1.5227768895162448e+01 1 0 0
269 15 2 1.1500000000000000e-01 -1.0454717203024053e+01 1.0017456485365661e-01 1.8469458878695232e+01 1 0 0
1007 54 4 -1.1500000000000000e-01 -5.7331589928327924e+00 7.0800810302488824e+00 1.1027911630038700e+01 1 0 0
1023 55 4 -1.1500000000000000e-01 -9.1552914069877733e+00 7.4490410524773862e+00 1.6097583786743847e+01 1 0 0
619 35 2 1.1500000000000000e-01 -5.8698144274276824e+00 7.0150250767775573e+00 1.6841630979604400e+01 1 0 0
1015 55 3 0.0000000000000000e+00 -8.5967995354409457e+00 8.8551884467295512e+00 1.8028401265479804e+01 1 0 0
1494 54 6 0.0000000000000000e+00 -4.5454760342103677e+00 8.4063279486483502e+00 1.0236340447735076e+01 1 0 0
1003 54 2 1.1500000000000000e-01 -6.7910596135998782e+00 7.2353948945292395e+00 1.2791397704563854e+01 1 0 0
1495 55 6 0.0000000000000000e+00 -8.8794362082693077e+00 8.3339025140261782e+00 1.7650920092861881e+01 1 0 0
999 54 1 -1.1500000000000000e-01 -6.1103349621902829e+00 7.8622922048556454e+00 1.2136680750790587e+01 1 0 0
602 34 2 1.1500000000000000e-01 -1.4308577468303829e+00 7.8195650153875302e+00 1.1009844844741327e+01 1 0 0
254 15 5 -1.1500000000000000e-01 -8.9136972230354594e+00 3.5541247264212270e+00 1.9544471423012567e+01 1 0 0
251 14 2 1.1500000000000000e-01 -6.1877338629524390e+00 -4.5932015360054861e-02 1.0812508701171319e+01 1 0 0
4415 235 3 0.0000000000000000e+00 -5.2052474325091644e+00 -2.5073374849456615e-02 1.8159281050349673e+01 1 1 0
1100 59 2 1.1500000000000000e-01 -1.1476314966391605e+00 6.5368948573620873e+00 1.5977254939747276e+01 1 0 0
1389 75 2 1.1500000000000000e-01 -3.1613190790181935e+00 8.9083470837570093e+00 1.7123254380620168e+01 1 0 0
607 34 4 -1.1500000000000000e-01 3.8850299541963196e-01 3.7290565541883587e+00 9.6367862807448184e+00 1 0 0
280 16 1 -1.1500000000000000e-01 -1.2803879549969659e+01 2.4092210836716288e+00 2.3049531249812571e+01 1 0 0
1047 56 2 1.1500000000000000e-01 -1.4780222593834422e+01 6.2089479495869382e+00 2.5956225984739344e+01 1 0 0
258 15 2 1.1500000000000000e-01 -9.8751191990076066e+00 3.0979059118434966e+00 2.1462712267871041e+01 1 0 0
634 36 4 -1.1500000000000000e-01 -1.0200852930959003e+01 6.3786171518436712e+00 2.6156194168339205e+01 1 0 0
4433 236 3 0.0000000000000000e+00 -9.5528068325548858e+00 2.2400082945858456e-02 2.5588148856288150e+01 1 1 0
257 15 1 -1.1500000000000000e-01 -1.0199587085943698e+01 1.5381202224886437e+00 2.0026755751308315e+01 1 0 0
284 16 1 -1.1500000000000000e-01 -1.2245370915478304e+01 3.5956274787455933e+00 2.3529268654557320e+01 1 0 0
279 16 2 1.1500000000000000e-01 -1.4813205720763371e+01 5.8452358714461394e-01 2.8262014480089299e+01 1 0 0
287 16 2 1.1500000000000000e-01 -1.4391668481478934e+01 -5.5418419576399036e-02 2.5793866537889357e+01 1 0 0
288 16 2 1.1500000000000000e-01 -1.1789877835207360e+01 4.2794169581549468e+00 2.2817041713723125e+01 1 0 0
271 16 7 -1.1500000000000000e-01 -1.3821618282897832e+01 2.5236054214202635e+00 2.8043238749627189e+01 1 0 0
272 16 5 -1.1500000000000000e-01 -1.3223581124055166e+01 3.3810215523155804e+00 2.7145111463139870e+01 1 0 0
273 16 3 0.0000000000000000e+00 -1.3000509959735922e+01 3.0465720589602872e+00 2.5792711967920415e+01 1 0 0
274 16 4 -1.1500000000000000e-01 -1.2318749569737763e+01 3.9436977455771678e+00 2.4910128257982628e+01 1 0 0
275 16 1 -1.1500000000000000e-01 -1.4294835513751224e+01 1.2405691373341350e+00 2.7605520887169888e+01 1 0 0
1042 56 3 0.0000000000000000e+00 -1.3602189168163610e+01 7.8566541763746951e+00 2.5235335221709537e+01 1 0 0
277 16 2 1.1500000000000000e-01 -1.2766588377280858e+01 4.2978448773020990e+00 2.7439445151147197e+01 1 0 0
278 16 2 1.1500000000000000e-01 -1.2026006833294517e+01 4.9253998111505162e+00 2.5188386385778919e+01 1 0 0
261 15 2 1.1500000000000000e-01 -1.0710010851803723e+01 9.8221455243500555e-01 2.0781987324870951e+01 1 0 0
282 16 3 0.0000000000000000e+00 -1.3414832120380908e+01 1.7582828180176748e+00 2.5340029372717318e+01 1 0 0
1043 56 4 -1.1500000000000000e-01 -1.4372989222570510e+01 7.1900638494418834e+00 2.6229873859463794e+01 1 0 0
736 16 6 0.0000000000000000e+00 -1.3240494840570719e+01 2.3916000846389784e+00 2.5661087728909745e+01 1 0 0
632 36 5 -1.1500000000000000e-01 -9.1794634653381770e+00 6.1574885575613170e+00 2.3841531902519517e+01 1 0 0
636 36 2 1.1500000000000000e-01 -8.4896692556544586e+00 5.5367652196802837e+00 2.1932732356121878e+01 1 0 0
4438 236 2 1.1500000000000000e-01 -1.0754907976845740e+01 1.7179459983767380e+00 2.6368326599840174e+01 1 1 0
253 15 7 -1.1500000000000000e-01 -9.7060796249168124e+00 2.8039637871874858e+00 2.0460355362754083e+01 1 0 0
623 35 4 -1.1500000000000000e-01 -4.7612132587323330e+00 4.0002085971828967e+00 2.0017167830902292e+01 1 0 0
627 35 2 1.1500000000000000e-01 -5.3156615582467435e+00 4.3620830435834996e+00 2.2058228959533892e+01 1 0 0
644 36 1 -1.1500000000000000e-01 -1.0521928098756572e+01 5.8612477310336750e+00 2.7410811613393509e+01 1 0 0
631 36 7 -1.1500000000000000e-01 -8.5440419578713449e+00 5.2716802161797087e+00 2.2929079237813202e+01 1 0 0
635 36 1 -1.1500000000000000e-01 -7.9933767745151814e+00 4.0767003273713387e+00 2.3412450499737801e+01 1 0 0
628 35 2 1.1500000000000000e-01 -4.1950806126414166e+00 3.0888913318861806e+00 2.0249317753195939e+01 1 0 0
639 36 2 1.1500000000000000e-01 -7.5668646468088552e+00 3.3778456133304142e+00 2.2703200871967478e+01 1 0 0
283 16 4 -1.1500000000000000e-01 -1.4069652568135849e+01 9.0096053574062351e-01 2.6243930148698773e+01 1 0 0
4430 235 2 1.1500000000000000e-01 -6.6023592475766320e+00 1.1588881788994456e+00 2.1028588410241714e+01 1 1 0
4444 236 1 -1.1500000000000000e-01 -1.0092754070149031e+01 3.9498168482905421e-01 2.7950571592217898e+01 1 1 0
259 15 2 1.1500000000000000e-01 -8.5338778023481936e+00 4.5436847943480680e+00 1.9719178586163274e+01 1 0 0
633 36 3 0.0000000000000000e+00 -9.4299136758815365e+00 5.6928734036355788e+00 2.5196407460695067e+01 1 0 0
4437 236 2 1.1500000000000000e-01 -9.9896771384308600e+00 1.4810267214014390e+00 2.3931230673179623e+01 1 1 0
640 36 1 -1.1500000000000000e-01 -9.8412114578040164e+00 4.6915914318259970e+00 2.7893186693971455e+01 1 0 0
641 36 4 -1.1500000000000000e-01 -9.0337579173127160e+00 4.0137789037333578e+00 2.6956140272827565e+01 1 0 0
642 36 3 0.0000000000000000e+00 -8.9054173151218876e+00 4.4632991590121227e+00 2.5653849996912797e+01 1 0 0
643 36 4 -1.1500000000000000e-01 -8.1199942574088659e+00 3.6719960278199082e+00 2.4779249702330866e+01 1 0 0
622 35 1 -1.1500000000000000e-01 -5.4874337848969885e+00 4.6804098147300355e+00 2.1032527666918792e+01 1 0 0
646 36 2 1.1500000000000000e-01 -8.4942644494201414e+00 3.1389926959315382e+00 2.7206905717505574e+01 1 0 0
647 36 2 1.1500000000000000e-01 -7.6012199603130295e+00 2.8145468332087558e+00 2.5225226091048274e+01 1 0 0
756 36 6 0.0000000000000000e+00 -9.2721146585739085e+00 5.0165362383105769e+00 2.5421276613569834e+01 1 0 0
281 16 4 -1.1500000000000000e-01 -1.3327786824379132e+01 1.4874994298709274e+00 2.3951684735457974e+01 1 0 0
4434 236 4 -1.1500000000000000e-01 -1.0164057500383407e+01 8.2859594490663568e-01 2.6614588000859982e+01 1 1 0
1013 55 7 -1.1500000000000000e-01 -9.1649561118714598e+00 8.1619245287563480e+00 2.0301016467465988e+01 1 0 0
1407 76 2 1.1500000000000000e-01 -8.1656990835569800e+00 8.7725094757420763e+00 2.4390798398921071e+01 1 0 0
648 36 2 1.1500000000000000e-01 -1.1033617359315073e+01 6.5465760021846853e+00 2.8026645468158296e+01 1 0 0
4432 236 5 -1.1500000000000000e-01 -9.5291732342667430e+00 5.1615158011914775e-01 2.4241727060155142e+01 1 1 0
1039 56 2 1.1500000000000000e-01 -1.5133183900775343e+01 7.1616876839389452e+00 2.8227454454371848e+01 1 0 0
626 35 1 -1.1500000000000000e-01 -6.0580246123037300e+00 5.9212318094899041e+00 2.0713419675612176e+01 1 0 0
4448 236 2 1.1500000000000000e-01 -1.0582558066556180e+01 9.5462637220857638e-01 2.8776222616004272e+01 1 1 0
4426 235 1 -1.1500000000000000e-01 -6.1039094526605959e+00 4.8520702041090330e-01 2.0334135870938439e+01 1 1 0
276 16 2 1.1500000000000000e-01 -1.3926143370902681e+01 2.8438268011920531e+00 2.9048617183977999e+01 1 0 0
630 35 2 1.1500000000000000e-01 -6.5511895997460288e+00 6.3945135151290868e+00 2.1591010692240733e+01 1 0 0
1021 55 2 1.1500000000000000e-01 -1.0159264706211045e+01 6.2148500914644265e+00 2.0448504588243328e+01 1 0 0
637 36 2 1.1500000000000000e-01 -9.6940332624417778e+00 7.0051118979912861e+00 2.3517461066794329e+01 1 0 0
645 36 2 1.1500000000000000e-01 -9.6333512962433794e+00 4.3209160110359930e+00 2.8904245144294361e+01 1 0 0
638 36 2 1.1500000000000000e-01 -1.0615425110753286e+01 7.3497489499111506e+00 2.5854118797465642e+01 1 0 0
1045 56 2 1.1500000000000000e-01 -1.2633879572427189e+01 7.5117164889286840e+00 2.2090697249569182e+01 1 0 0
1035 56 1 -1.1500000000000000e-01 -1.4600402917525409e+01 7.7575314901610630e+00 2.7505557980464761e+01 1 0 0
1018 55 2 1.1500000000000000e-01 -9.0904011720712479e+00 8.3251635662410717e+00 2.1367022763080236e+01 1 0 0
1496 56 6 0.0000000000000000e+00 -1.3452287841993828e+01 8.5179461195729189e+00 2.5499843354069750e+01 1 0 0
1040 56 1 -1.1500000000000000e-01 -1.2617770441370993e+01 7.9750810421827572e+00 2.3026934706929417e+01 1 0 0
1041 56 4 -1.1500000000000000e-01 -1.3411192673634721e+01 7.2764380088347691e+00 2.3996468248792024e+01 1 0 0
4436 236 2 1.1500000000000000e-01 -8.9016165651162034e+00 -4.8658701273399656e-02 2.2262025987551311e+01 1 1 0
231 13 2 1.1500000000000000e-01 -1.6323284692620248e+01 2.3179184385084479e+00 2.9299396073640512e+01 1 0 -1
1017 55 1 -1.1500000000000000e-01 -9.7457814081966347e+00 6.9889994504019004e+00 1.9752102106176860e+01 1 0 0
1046 56 2 1.1500000000000000e-01 -1.3746297495256027e+01 6.2700815561708527e+00 2.3780414281596315e+01 1 0 0
286 16 2 1.1500000000000000e-01 -1.3726450646829766e+01 5.0272326712418203e-01 2.3646227169709054e+01 1 0 0
1118 60 2 1.1500000000000000e-01 -5.6224923102934010e+00 6.1258427093041776e+00 2.3630447301088626e+01 1 0 0
1119 60 2 1.1500000000000000e-01 -6.7797935511917906e+00 5.8143811308780862e+00 2.5856793199404198e+01 1 0 0
979 53 3 0.0000000000000000e+00 -1.0554430975017626e-01 9.0482799522217334e+00 3.3329671264595797e+00 1 0 0
980 53 4 -1.1500000000000000e-01 5.6029101626413946e-01 1.0022785965647037e+01 2.5615159815466924e+00 1 0 0
984 53 2 1.1500000000000000e-01 1.0402246629180554e+00 1.0816278621434947e+01 3.1174352681877791e+00 1 0 0
1361 74 2 1.1500000000000000e-01 -1.3472664777446361e+00 1.3256071637150088e+01 8.6029783054830116e+00 1 0 0
990 53 1 -1.1500000000000000e-01 5.3190118963459709e-01 9.9721035618671561e+00 1.1640990447486825e+00 1 0 0
2253 93 6 0.0000000000000000e+00 -3.8333462831574927e-01 1.4260082046377647e+01 3.0342051457418400e+00 1 0 0
994 53 2 1.1500000000000000e-01 1.0502249764311320e+00 1.0641856497532112e+01 4.3939307092642954e-01 1 0 0
1741 93 1 -1.1500000000000000e-01 -1.5491011271963497e+00 1.3546232309053593e+01 4.8908720287910379e+00 1 0 0
978 53 5 -1.1500000000000000e-01 -1.0893239291431911e-01 9.2274655779500865e+00 4.7235953245507680e+00 1 0 0
983 53 2 1.1500000000000000e-01 2.8105005673131078e-01 1.0134351451908740e+01 5.1685128634005020e+00 1 0 0
1012 54 2 1.1500000000000000e-01 -2.5205511266375002e+00 9.5997585948971054e+00 7.6703309573555991e+00 1 0 0
1363 74 2 1.1500000000000000e-01 9.1994488140294806e-01 9.6666735970337641e+00 7.5841277763610879e+00 1 0 0
1745 93 2 1.1500000000000000e-01 -2.1181382847968804e+00 1.3050414557465789e+01 5.6470365084381120e+00 1 0 0
1742 93 2 1.1500000000000000e-01 -9.5899639773294298e-01 1.5060913506202834e+01 6.2965292530158852e+00 1 0 0
1338 73 5 -1.1500000000000000e-01 3.7893155273974433e+00 1.2287599456907252e+01 1.7019949676972193e+00 1 0 0
1339 73 3 0.0000000000000000e+00 3.5194722066807227e+00 1.1943280397165648e+01 3.0457142880654424e+00 1 0 0
1340 73 4 -1.1500000000000000e-01 2.7549333580927171e+00 1.2762940478849425e+01 3.9182536744623979e+00 1 0 0
1341 73 1 -1.1500000000000000e-01 4.9592839902888342e+00 1.0200768301321297e+01 1.3188626710249047e+00 1 0 0
1337 73 7 -1.1500000000000000e-01 4.4163883757289515e+00 1.1393041234601847e+01 8.4596493392359440e-01 1 0 0
1343 73 2 1.1500000000000000e-01 3.5935821564549792e+00 1.3284221463347992e+01 1.3038978425339298e+00 1 0 0
1348 73 3 0.0000000000000000e+00 3.9169214085793054e+00 1.0623277756509262e+01 3.4717494799786741e+00 1 0 0
1349 73 4 -1.1500000000000000e-01 4.6705007772545954e+00 9.7837582302933477e+00 2.6336663046702480e+00 1 0 0
1513 73 6 0.0000000000000000e+00 3.7184364296011090e+00 1.1270071540185095e+01 3.2550206413229352e+00 1 0 0
1356 74 5 -1.1500000000000000e-01 -7.1602204326543273e-01 1.2357477266559098e+01 8.8241228277126744e+00 1 0 0
1354 73 2 1.1500000000000000e-01 2.1379362656617320e+00 1.2917551059936535e+01 5.9829059156932143e+00 1 0 0
1346 73 1 -1.1500000000000000e-01 2.9418256120289201e+00 1.1067747346865064e+01 5.6697197189237283e+00 1 0 0
1347 73 4 -1.1500000000000000e-01 3.6314793143259849e+00 1.0237500109161038e+01 4.7936046235918113e+00 1 0 0
1350 73 1 -1.1500000000000000e-01 2.5750616901377397e+00 1.2310027099271933e+01 5.2377114296082476e+00 1 0 0
1351 73 2 1.1500000000000000e-01 2.7818427062382671e+00 1.0737729337500324e+01 6.6723525501737599e+00 1 0 0
1352 73 2 1.1500000000000000e-01 3.9095886715251660e+00 9.2782493105087340e+00 5.0887417620653528e+00 1 0 0
1345 73 2 1.1500000000000000e-01 5.6701093040504382e+00 9.6461495943669302e+00 7.7173347004760062e-01 1 0 0
1355 74 7 -1.1500000000000000e-01 -5.3924742195526676e-02 1.1532102918905206e+01 7.8969974928272197e+00 1 0 0
1359 74 1 -1.1500000000000000e-01 5.8071636184843189e-01 1.0372454758597513e+01 8.3368328618643321e+00 1 0 0
1360 74 2 1.1500000000000000e-01 -3.3661317212585473e-03 1.1892249276409075e+01 6.8736761167357967e+00 1 0 0
1747 93 4 -1.1500000000000000e-01 -6.3440803522882527e-01 1.3251757825577625e+01 1.2938654425855005e+00 1 0 0
1748 93 3 0.0000000000000000e+00 -6.5820460979958506e-01 1.3682242409232391e+01 2.6298943716667278e+00 1 0 0
2127 114 4 -1.1500000000000000e-01 6.5620076154024343e-01 1.5459487647163414e+01 9.5500699011268697e+00 1 0 0
1746 93 1 -1.1500000000000000e-01 2.0013118944375857e-01 1.3940787235886836e+01 3.7313952998218158e-01 1 0 0
2105 113 2 1.1500000000000000e-01 5.4439484549934534e+00 1.5442075909370484e+01 1.1675170647466278e+00 1 0 0
1749 93 4 -1.1500000000000000e-01 -1.4469054154881036e+00 1.3075006892934450e+01 3.5523353323972304e+00 1 0 0
1008 54 1 -1.1500000000000000e-01 -3.0862927321997145e+00 9.0756835308037154e+00 8.3809790916154139e+00 1 0 0
1344 73 2 1.1500000000000000e-01 2.4094271223751074e+00 1.3747548098639456e+01 3.5758536363655162e+00 1 0 0
1737 93 7 -1.1500000000000000e-01 -8.2807053645913475e-01 1.4679733340971806e+01 5.2932951241352368e+00 1 0 0