LAMMPS (15 May 2015)
Reading data file ...
  triclinic box = (-0.107635 -0.0404339 -0.357111) to (41.3876 35.9384 29.5551) with tilt (-0.0672341 -17.0362 -0.0417078)
  5 by 4 by 3 MPI processor grid
  reading atoms ...
  4560 atoms
  reading velocities ...
  4560 velocities
  scanning bonds ...
  3 = max bonds/atom
  scanning angles ...
  3 = max angles/atom
  scanning dihedrals ...
  8 = max dihedrals/atom
  scanning impropers ...
  1 = max impropers/atom
  reading bonds ...
  5040 bonds
  reading angles ...
  7200 angles
  reading dihedrals ...
  10560 dihedrals
  reading impropers ...
  2400 impropers
Finding 1-2 1-3 1-4 neighbors ...
 Special bond factors lj:   0          0          0         
 Special bond factors coul: 0          0          0         
  4 = max # of 1-2 neighbors
  8 = max # of 1-3 neighbors
  20 = max # of 1-4 neighbors
  16 = max # of special neighbors
4560 atoms in group all
720 atoms in group C
480 atoms in group S
1920 atoms in group H
720 atoms in group Si
240 atoms in group Na
240 atoms in group Ba
240 atoms in group O
4560 atoms in group naphthalene
1200 atoms in group fixed
960 atoms in group CO
Setting atom values ...
  720 settings made for charge
Setting atom values ...
  720 settings made for charge
Setting atom values ...
  1920 settings made for charge
Setting atom values ...
  480 settings made for charge
Setting atom values ...
  240 settings made for charge
Setting atom values ...
  240 settings made for charge
Setting atom values ...
  240 settings made for charge
Finding 1-2 1-3 1-4 neighbors ...
 Special bond factors lj:   0          0          0.5       
 Special bond factors coul: 0          0          0.5       
  4 = max # of 1-2 neighbors
  8 = max # of 1-3 neighbors
  20 = max # of 1-4 neighbors
  16 = max # of special neighbors
PPPM initialization ...
  G vector (1/distance) = 0.246499
  grid = 16 16 20
  stencil order = 5
  estimated absolute RMS force accuracy = 0.00242397
  estimated relative force accuracy = 7.2997e-06
  using double precision FFTs
  3d grid and FFT values/proc = 1053 112
Neighbor list info ...
  4 neighbor list requests
  update every 1 steps, delay 0 steps, check yes
  master list distance cutoff = 12
Setting up run ...
Memory usage per processor = 13.288 Mbytes
Step Temp Density PotEng E_vdwl E_tail E_coul E_long Press Volume Xy Xz Yz E_mol E_bond E_angle E_dihed 14[1] 14[2] 14[3] msd[4] msd2[4] msd3[4] msd4[4] naphthal Cella Cellb Cellc CellAlpha CellBeta CellGamma 27[2] 27[3] 28[1] 28[2] 28[3] 
       0          298    1.2509986    2087.5869   -1173.1339   -211.49952    2070.8667    -2308.979    790.88859    44657.537 -0.067234084   -17.036218 -0.041707817     3498.833    1521.0094     935.4334    889.67826    28.379601    18.846571    14.337846 2.3535127e-29 2.3910021e-29 2.7538641e-29 3.294809e-29          298     41.49527    35.978931    34.423473    90.016431    119.66323    90.107069    18.846182    14.337739    28.379557    18.849013    14.339638 
    1000    299.25401    1.2509986    1911.4921   -1224.9301   -211.49952    2069.7137   -2309.5221   -366.30536    44657.537 -0.067234084   -17.036218 -0.041707817    3376.2306    1475.9333    894.58725    853.01038    28.382657    18.845485    14.337611 0.0044378176 0.0044363165 0.0048545841 0.0048519782    299.25401     41.49527    35.978931    34.423473    90.016431    119.66323    90.107069    18.845453    14.337374    28.379246    18.847653    14.340451 
    2000     302.9321    1.2509986    1968.1277   -1227.3059   -211.49952    2073.2334   -2309.3578   -319.27303    44657.537 -0.067234084   -17.036218 -0.041707817    3431.5579    1548.7495    904.01475    837.54705    28.380631    18.846935    14.337549 0.0043893477 0.0043836784 0.0045286735 0.0045178504     302.9321     41.49527    35.978931    34.423473    90.016431    119.66323    90.107069    18.846904    14.338357    28.382122    18.850666    14.340866 
    3000     294.3863    1.2509986    1951.2661   -1194.2466   -211.49952    2068.0311   -2309.6365   -74.712697    44657.537 -0.067234084   -17.036218 -0.041707817    3387.1181    1484.5879    880.70865    871.49271    28.381392    18.847265    14.338506 0.0045375175 0.0045356219 0.0044836381 0.0044555029     294.3863     41.49527    35.978931    34.423473    90.016431    119.66323    90.107069    18.847154    14.338532    28.375495    18.846239    14.341625 
    4000    301.63465    1.2509986    1961.6792   -1222.2698   -211.49952    2072.5503    -2309.485   -619.92349    44657.537 -0.067234084   -17.036218 -0.041707817    3420.8836    1527.6411    880.39124    864.29913    28.379857    18.846389    14.337907 0.0042987135 0.0042956364 0.0042081357 0.0041870248    301.63465     41.49527    35.978931    34.423473    90.016431    119.66323    90.107069    18.847494    14.338879    28.376223    18.847401    14.342359 
    5000    299.66672    1.2509986    1992.5838   -1204.7976   -211.49952    2076.1802   -2309.2745    994.45505    44657.537 -0.067234084   -17.036218 -0.041707817    3430.4758    1515.8631    896.08219    867.59497    28.380871    18.846382    14.337859 0.0043098615 0.0043097122 0.0047280608 0.0047193072    299.66672     41.49527    35.978931    34.423473    90.016431    119.66323    90.107069    18.846157     14.33774     28.38055     18.84805    14.342254 
    6000    300.09494    1.2509986    1991.1182   -1225.4731   -211.49952    2074.6921   -2309.2101    -1340.147    44657.537 -0.067234084   -17.036218 -0.041707817    3451.1093    1529.9687    880.50696    880.36832    28.379232    18.845987    14.336945 0.0040730871 0.0040714071 0.0040030112 0.0039799052    300.09494     41.49527    35.978931    34.423473    90.016431    119.66323    90.107069    18.846753    14.337106    28.378943     18.84668     14.33548 
    7000    296.13427    1.2509986    1988.9525   -1205.6408   -211.49952    2072.2827   -2309.4942    364.84709    44657.537 -0.067234084   -17.036218 -0.041707817    3431.8048    1511.5441    901.49898    868.50286    28.380553    18.844757    14.337689 0.0046218129 0.0046178786 0.0050411207 0.0050337849    296.13427     41.49527    35.978931    34.423473    90.016431    119.66323    90.107069    18.844241    14.337433    28.379019    18.846401    14.339165 
    8000     298.1156    1.2509986    1901.8438   -1205.8144   -211.49952    2070.8925   -2309.0341     596.7381    44657.537 -0.067234084   -17.036218 -0.041707817    3345.7999    1515.4026    881.16434    806.31249    28.379739    18.846758    14.336925  0.004339183 0.0043364276 0.0041560521 0.0041311821     298.1156     41.49527    35.978931    34.423473    90.016431    119.66323    90.107069    18.846432     14.33664     28.37546    18.846721    14.337955 
    9000    294.78672    1.2509986    1924.4668   -1194.0419   -211.49952    2071.8821   -2309.1102    2000.0317    44657.537 -0.067234084   -17.036218 -0.041707817    3355.7368    1453.4672    874.13691    875.30942    28.378013    18.846092    14.337064 0.0042559234 0.0042538486 0.0044550067 0.0044088636    294.78672     41.49527    35.978931    34.423473    90.016431    119.66323    90.107069    18.845735    14.339042    28.381814    18.845889    14.345232 
   10000    299.72384    1.2509986    1951.1115   -1233.1949   -211.49952    2071.9782    -2309.491   -1401.3434    44657.537 -0.067234084   -17.036218 -0.041707817    3421.8191    1514.2787    909.60491    850.63822    28.378502    18.845975    14.337552 0.0044053152  0.004402776 0.0043332226 0.0043156838    299.72384     41.49527    35.978931    34.423473    90.016431    119.66323    90.107069    18.845951      14.3379    28.376929    18.845797     14.34018 
   11000    295.00169    1.2509986    1999.6896   -1208.1709   -211.49952     2070.372   -2309.2202   -127.73929    44657.537 -0.067234084   -17.036218 -0.041707817    3446.7087    1555.0239    889.81515    851.35504     28.38276    18.846559    14.338691 0.0046191922 0.0046167326 0.0045388712 0.0045344337    295.00169     41.49527    35.978931    34.423473    90.016431    119.66323    90.107069    18.846088    14.338957    28.378976    18.847514    14.338276 
   12000    294.35252    1.2509986    1991.5234    -1234.632   -211.49952    2069.7756   -2309.7656   -1571.9143    44657.537 -0.067234084   -17.036218 -0.041707817    3466.1455    1562.2817    913.11082    844.37342    28.381211    18.846721    14.337774  0.004482903 0.0044812728 0.0043357704 0.0043196867    294.35252     41.49527    35.978931    34.423473    90.016431    119.66323    90.107069    18.847157    14.337276    28.383325    18.850008    14.340583 
   13000    299.17626    1.2509986    1932.1063   -1198.0874   -211.49952    2067.2573   -2309.8918    970.37088    44657.537 -0.067234084   -17.036218 -0.041707817    3372.8281    1501.0949    920.85676    808.68339    28.378189    18.846023     14.33735 0.0045281653 0.0045279019 0.0047293626 0.0047141329    299.17626     41.49527    35.978931    34.423473    90.016431    119.66323    90.107069    18.846094    14.337754    28.378808    18.846188    14.342225 
   14000    297.00677    1.2509986    1944.2911   -1188.5611   -211.49952    2068.8954   -2309.7724    1260.9791    44657.537 -0.067234084   -17.036218 -0.041707817    3373.7292    1484.9417    896.71613    845.04012    28.379414    18.845083    14.337539 0.0045386354 0.0045382342 0.0046753519 0.0046719867    297.00677     41.49527    35.978931    34.423473    90.016431    119.66323    90.107069    18.845706    14.338154    28.378134    18.847884    14.339901 
   15000    299.15228    1.2509986    2023.6953   -1194.9675   -211.49952    2069.7135   -2309.6592    1550.7822    44657.537 -0.067234084   -17.036218 -0.041707817    3458.6086    1545.8563    900.40405    862.34245    28.380167    18.846109    14.337099 0.0045314699    0.0045284 0.0046557141 0.0046371567    299.15228     41.49527    35.978931    34.423473    90.016431    119.66323    90.107069    18.845504    14.337364    28.376226    18.846322     14.34011 
   16000    291.85119    1.2509986    1954.5807   -1219.2516   -211.49952    2071.1028    -2309.841   -638.94955    44657.537 -0.067234084   -17.036218 -0.041707817    3412.5706    1495.8305    892.14538    877.99324    28.378586    18.845222    14.337345  0.004555878 0.0045514295 0.0044235522  0.004413099    291.85119     41.49527    35.978931    34.423473    90.016431    119.66323    90.107069    18.847538    14.337434    28.380248    18.850485    14.342433 
   17000    297.82057    1.2509986    1984.2714   -1220.4861   -211.49952      2071.69   -2310.1123   -510.06252    44657.537 -0.067234084   -17.036218 -0.041707817    3443.1799    1540.0147    922.28343    836.61581    28.378349    18.845835    14.337898  0.004346335 0.0043457031 0.0045152543 0.0045059389    297.82057     41.49527    35.978931    34.423473    90.016431    119.66323    90.107069    18.845844    14.338446    28.378407    18.846195    14.339875 
   18000    293.19069    1.2509986     2002.915   -1188.4524   -211.49952    2072.7015   -2309.1882    2204.5208    44657.537 -0.067234084   -17.036218 -0.041707817    3427.8541    1510.7639    864.75354    895.85164    28.377706    18.844681    14.337009 0.0045190373  0.004517676 0.0047822404 0.0047777665    293.19069     41.49527    35.978931    34.423473    90.016431    119.66323    90.107069    18.845108    14.337864    28.377507    18.848534    14.339851 
   19000     300.4199    1.2509986    1888.8432   -1199.2197   -211.49952    2071.0002   -2309.7046    1897.1067    44657.537 -0.067234084   -17.036218 -0.041707817    3326.7673    1457.8801    894.96177    828.70455    28.382411    18.846801    14.338668 0.0044544475  0.004452705 0.0049741347 0.0049658262     300.4199     41.49527    35.978931    34.423473    90.016431    119.66323    90.107069    18.847451    14.337377     28.37821    18.850334    14.337459 
   20000    288.77996    1.2509986    1969.7171   -1203.4671   -211.49952    2072.1689   -2309.5202   -1378.2491    44657.537 -0.067234084   -17.036218 -0.041707817    3410.5355    1522.3995    858.49857     879.3027    28.379409    18.845044    14.337487 0.0043492737 0.0043460768 0.0046091473 0.0045900859    288.77996     41.49527    35.978931    34.423473    90.016431    119.66323    90.107069    18.846751    14.336444    28.378864    18.849307    14.335338 
   21000    291.47825    1.2509986    1992.5467   -1188.9718   -211.49952    2074.0553   -2309.0555    1460.2447    44657.537 -0.067234084   -17.036218 -0.041707817    3416.5188    1518.3793    880.30544    866.43695    28.378696    18.845334    14.337269  0.004497741 0.0044948339 0.0044598451 0.0044234651    291.47825     41.49527    35.978931    34.423473    90.016431    119.66323    90.107069    18.844629    14.338442      28.3842    18.846164    14.342227 
   22000    296.07882    1.2509986     1981.847   -1198.8296   -211.49952    2072.7202   -2309.4276    211.17968    44657.537 -0.067234084   -17.036218 -0.041707817    3417.3839    1502.7332    883.23233    883.19501    28.379752    18.846387    14.338105 0.0043486643 0.0043452336 0.0044230588 0.0043890475    296.07882     41.49527    35.978931    34.423473    90.016431    119.66323    90.107069    18.847514    14.338963    28.381993    18.849475    14.344917 
   23000    301.78647    1.2509986    1969.6149   -1201.9127   -211.49952    2069.2421   -2309.5066   -217.79205    44657.537 -0.067234084   -17.036218 -0.041707817    3411.7921    1542.6181    864.48624    850.86146    28.380276    18.845331    14.337822 0.0045083163 0.0045070429 0.0045358045 0.0045317422    301.78647     41.49527    35.978931    34.423473    90.016431    119.66323    90.107069    18.846654    14.337781    28.377715    18.848799    14.338848 
   24000    295.78867    1.2509986    2002.4081   -1209.1453   -211.49952    2074.5433   -2309.4022     659.6336    44657.537 -0.067234084   -17.036218 -0.041707817    3446.4123    1520.2298    929.69344     848.2391    28.380227    18.846525     14.33775 0.0043386478 0.0043377848 0.0044499721 0.0044480461    295.78867     41.49527    35.978931    34.423473    90.016431    119.66323    90.107069    18.846803    14.337724    28.378392    18.848974    14.340391 
   25000    302.00705    1.2509986     1951.492   -1222.8614   -211.49952    2073.2997   -2309.1867    190.90014    44657.537 -0.067234084   -17.036218 -0.041707817    3410.2403    1512.9224    888.97153    855.17466     28.37988    18.847388    14.337459 0.0044989084 0.0044979209 0.0046001001 0.0045885738    302.00705     41.49527    35.978931    34.423473    90.016431    119.66323    90.107069    18.847029     14.33798     28.38172    18.850311     14.34191 
   26000    298.32475    1.2509986    2012.7482   -1202.1021   -211.49952    2074.1343   -2309.2375   -275.15055    44657.537 -0.067234084   -17.036218 -0.041707817    3449.9535      1517.87    939.80752    844.25784    28.379491    18.847867    14.338222 0.0042809134  0.004279895 0.0046006326 0.0045976918    298.32475     41.49527    35.978931    34.423473    90.016431    119.66323    90.107069    18.846843    14.338239    28.381161     18.84951    14.339294 
   27000    299.69271    1.2509986    2037.7873   -1202.8295   -211.49952    2070.3295   -2309.5066   -337.19038    44657.537 -0.067234084   -17.036218 -0.041707817    3479.7939    1512.6658    916.47064    897.06769     28.37879    18.847141    14.337372 0.0044355505 0.0044325496 0.0046012293 0.0046001113    299.69271     41.49527    35.978931    34.423473    90.016431    119.66323    90.107069     18.84707    14.337127    28.379375    18.849687    14.338844 
   28000     302.0997    1.2509986    1968.2426   -1208.0641   -211.49952    2072.7227   -2309.4391    1122.4895    44657.537 -0.067234084   -17.036218 -0.041707817    3413.0231    1535.5774     890.3056    842.63982    28.378052    18.845083    14.337383  0.004372643 0.0043707723 0.0043637196 0.0043629155     302.0997     41.49527    35.978931    34.423473    90.016431    119.66323    90.107069    18.847249    14.338517    28.380252    18.848918    14.340196 
   29000    300.76867    1.2509986    2012.9252   -1201.3741   -211.49952    2074.1758    -2309.135    441.05999    44657.537 -0.067234084   -17.036218 -0.041707817    3449.2585    1522.6213    905.64242    870.09051    28.378997    18.846531     14.33708 0.0044404722 0.0044392558 0.0047939383   0.00478966    300.76867     41.49527    35.978931    34.423473    90.016431    119.66323    90.107069    18.846797    14.337014    28.380769    18.849556    14.338052 
   30000    297.49366    1.2509986    2014.2144   -1191.4975   -211.49952    2068.6854    -2309.114    1053.3467    44657.537 -0.067234084   -17.036218 -0.041707817    3446.1405    1500.5941    940.85212    854.13021    28.378444    18.845559    14.336627 0.0046416962 0.0046396101 0.0046266825 0.0046239758    297.49366     41.49527    35.978931    34.423473    90.016431    119.66323    90.107069    18.845965    14.336683     28.38077    18.848296    14.338789 
   31000    294.68488    1.2509986    2006.1676   -1216.2357   -211.49952    2073.4288   -2309.8547   -259.21194    44657.537 -0.067234084   -17.036218 -0.041707817    3458.8293     1553.087    909.40348    845.92789    28.379083    18.847989    14.337317 0.0045627981 0.0045597567 0.0045480477 0.0045339364    294.68488     41.49527    35.978931    34.423473    90.016431    119.66323    90.107069     18.84791    14.337633    28.376583    18.848085    14.341738 
   32000    300.55195    1.2509986    2033.0019   -1216.6488   -211.49952    2074.6863   -2309.2885   -563.69746    44657.537 -0.067234084   -17.036218 -0.041707817    3484.2529    1551.3654    943.42535    840.10049    28.381198    18.845577    14.338347 0.0044302833 0.0044302322 0.0045152577 0.0045092972    300.55195     41.49527    35.978931    34.423473    90.016431    119.66323    90.107069    18.846131    14.337937    28.377338     18.84836    14.340421 
   33000    298.23223    1.2509986    1980.9724   -1211.8834   -211.49952    2071.4112   -2309.2194   -145.49706    44657.537 -0.067234084   -17.036218 -0.041707817     3430.664    1477.7671    917.67356    882.31161    28.378241    18.845228    14.336804  0.004499101  0.004497009 0.0046692293 0.0046607135    298.23223     41.49527    35.978931    34.423473    90.016431    119.66323    90.107069    18.845898    14.336565    28.378522    18.847548    14.337336 
   34000    295.61824    1.2509986    1968.0081   -1222.2722   -211.49952    2072.7342   -2309.8505   -878.31861    44657.537 -0.067234084   -17.036218 -0.041707817    3427.3966    1521.9206    887.99342    866.50127    28.380546     18.84541    14.337721 0.0045761349 0.0045748977 0.0044443843 0.0044306413    295.61824     41.49527    35.978931    34.423473    90.016431    119.66323    90.107069    18.845616    14.337182     28.37795    18.846342    14.341645 
   35000    288.04212    1.2509986    1940.6755   -1213.3238   -211.49952    2076.8582   -2309.0713    156.91909    44657.537 -0.067234084   -17.036218 -0.041707817    3386.2123    1471.2809    898.05729    869.54031    28.384328    18.847338    14.339268 0.0045722584 0.0045656893 0.0044033133 0.0044002604    288.04212     41.49527    35.978931    34.423473    90.016431    119.66323    90.107069    18.847761    14.338099    28.380396    18.849824    14.338338 
   36000    298.46544    1.2509986     2025.082   -1217.6952   -211.49952    2075.1768   -2309.2414   -1331.5295    44657.537 -0.067234084   -17.036218 -0.041707817    3476.8417    1532.9124    922.19369     871.0794    28.381952    18.846117    14.337826 0.0042686517 0.0042660359 0.0044238495 0.0044175394    298.46544     41.49527    35.978931    34.423473    90.016431    119.66323    90.107069    18.846083     14.33812    28.380948    18.848109    14.337752 
   37000    298.78984    1.2509986    1966.5757   -1222.9239   -211.49952    2070.8815   -2309.1978   -1370.8684    44657.537 -0.067234084   -17.036218 -0.041707817    3427.8158    1537.1588    892.78306    848.66872    28.380014    18.845009    14.337813 0.0045535577 0.0045513151 0.0045713444 0.0045673996    298.78984     41.49527    35.978931    34.423473    90.016431    119.66323    90.107069    18.847657     14.33799    28.380675     18.85055    14.339062 
   38000    296.06792    1.2509986     1959.459   -1233.9648   -211.49952    2071.7158    -2309.533     -1475.13    44657.537 -0.067234084   -17.036218 -0.041707817     3431.241    1490.0801    915.79083    873.00206    28.380293    18.846253    14.337522 0.0044812067 0.0044811094 0.0048779573 0.0048674752    296.06792     41.49527    35.978931    34.423473    90.016431    119.66323    90.107069    18.845885    14.337802    28.379532     18.84584     14.34028 
   39000    294.68963    1.2509986    1946.4235   -1211.2423   -211.49952    2070.5563    -2309.468    166.83653    44657.537 -0.067234084   -17.036218 -0.041707817    3396.5774     1504.478    893.16548    850.36038    28.380012    18.846068    14.337368   0.00457354 0.0045716335 0.0048763299 0.0048339715    294.68963     41.49527    35.978931    34.423473    90.016431    119.66323    90.107069    18.847086    14.338363    28.376458    18.847805    14.345233 
   40000    298.99122    1.2509986    1967.9868   -1230.2859   -211.49952    2071.9526   -2309.8697   -1750.4137    44657.537 -0.067234084   -17.036218 -0.041707817    3436.1898    1524.5669    904.49027    858.69187    28.381035    18.846272    14.337452 0.0044704816  0.004466205 0.0045503422 0.0045501307    298.99122     41.49527    35.978931    34.423473    90.016431    119.66323    90.107069    18.846779    14.338268    28.379889    18.848755    14.339825 
   41000    296.63988    1.2509986    2019.0635   -1188.5268   -211.49952    2070.2508   -2309.8112    664.04882    44657.537 -0.067234084   -17.036218 -0.041707817    3447.1507    1535.5202    925.85633    836.06035    28.378429    18.846282    14.337596 0.0044203146 0.0044191617 0.0042931742 0.0042843409    296.63988     41.49527    35.978931    34.423473    90.016431    119.66323    90.107069    18.846896    14.337596    28.379476    18.851956     14.34004 
   42000     298.7744    1.2509986    2016.6829   -1225.1619   -211.49952    2070.0112   -2309.3512   -1151.5856    44657.537 -0.067234084   -17.036218 -0.041707817    3481.1847    1533.0341    893.54553    898.63759    28.379163    18.847501    14.337556  0.004341928  0.004338679 0.0043416844 0.0043321593     298.7744     41.49527    35.978931    34.423473    90.016431    119.66323    90.107069    18.847624    14.338455     28.37989    18.847592    14.342358 
   43000    301.95928    1.2509986    1942.5549   -1199.7623   -211.49952      2069.47   -2309.3079    224.72537    44657.537 -0.067234084   -17.036218 -0.041707817    3382.1552    1508.4627    886.24955     846.4746    28.381314    18.846185    14.338146 0.0044635654 0.0044593797 0.0046892055 0.0046852061    301.95928     41.49527    35.978931    34.423473    90.016431    119.66323    90.107069    18.846461    14.338244     28.37929    18.847647    14.338202 
   44000    296.28402    1.2509986    2000.5418   -1223.3715   -211.49952    2073.8079   -2309.4556    225.53943    44657.537 -0.067234084   -17.036218 -0.041707817    3459.5609    1532.7881    904.29797    867.43797    28.379122    18.846015    14.337153 0.0045419783 0.0045411164 0.0046850821 0.0046699417    296.28402     41.49527    35.978931    34.423473    90.016431    119.66323    90.107069    18.846055    14.338093    28.379805    18.847306    14.343126 
   45000    299.45026    1.2509986    2041.1757   -1200.5568   -211.49952     2074.092   -2309.2287     1164.925    44657.537 -0.067234084   -17.036218 -0.041707817    3476.8692    1551.9959    932.69537    844.91524    28.378714    18.845649     14.33692 0.0044931234 0.0044916466 0.0045839091 0.0044869104    299.45026     41.49527    35.978931    34.423473    90.016431    119.66323    90.107069    18.846135    14.337829    28.370341    18.847439    14.342736 
   46000    302.19768    1.2509986    1956.9015   -1211.5587   -211.49952    2071.7893   -2309.2665    379.53634    44657.537 -0.067234084   -17.036218 -0.041707817    3405.9373    1526.9013    922.90343    815.11894     28.38115     18.84449     14.33732 0.0045659829 0.0045628221 0.0050802478 0.0050436009    302.19768     41.49527    35.978931    34.423473    90.016431    119.66323    90.107069     18.84487    14.336575    28.378169    18.843425    14.337768 
   47000    296.49742    1.2509986     1969.934   -1211.7603   -211.49952    2069.9891   -2309.2767   -735.19016    44657.537 -0.067234084   -17.036218 -0.041707817    3420.9819    1524.2824    923.58683    833.29739    28.379876    18.844826     14.33757 0.0045396483 0.0045385454 0.0049244514 0.0049122226    296.49742     41.49527    35.978931    34.423473    90.016431    119.66323    90.107069    18.845454    14.337769    28.381555    18.846269    14.340478 
   48000    292.10117    1.2509986    1951.7865   -1216.3138   -211.49952    2072.0768   -2309.3477     -946.122    44657.537 -0.067234084   -17.036218 -0.041707817    3405.3711    1522.2694    905.02581    834.52498    28.377929     18.84516    14.337096 0.0044243236 0.0044222994 0.0047092481 0.0047020081    292.10117     41.49527    35.978931    34.423473    90.016431    119.66323    90.107069    18.846238    14.337084      28.3788    18.846939      14.3381 
   49000    297.36522    1.2509986    1938.4561   -1206.4491   -211.49952    2070.5875   -2309.5142   -663.24899    44657.537 -0.067234084   -17.036218 -0.041707817    3383.8319    1494.4148    883.99158    849.34787    28.378816    18.846397    14.336983  0.004355525 0.0043509009 0.0041730652 0.0041717463    297.36522     41.49527    35.978931    34.423473    90.016431    119.66323    90.107069    18.846653    14.337313    28.380357    18.848264    14.339297 
   50000    293.01033    1.2509986    1988.6912   -1228.5545   -211.49952    2072.2459   -2309.7439   -1029.0205    44657.537 -0.067234084   -17.036218 -0.041707817    3454.7437    1553.5115     912.5882    838.05951    28.379918    18.846068    14.337775 0.0046306405 0.0046305945 0.0046222869 0.0046058777    293.01033     41.49527    35.978931    34.423473    90.016431    119.66323    90.107069    18.846205    14.337683    28.382492    18.848953    14.342429 
   51000    302.13983    1.2509986    1956.0346   -1221.5272   -211.49952    2066.8303   -2309.9749    -709.3727    44657.537 -0.067234084   -17.036218 -0.041707817    3420.7064     1521.951     889.5521    859.76942    28.380259    18.844834    14.337528 0.0043519875 0.0043514437 0.0041945815 0.0041908712    302.13983     41.49527    35.978931    34.423473    90.016431    119.66323    90.107069    18.846445    14.337224    28.380249    18.850672    14.338947 
   52000    296.00514    1.2509986    1927.4432   -1214.3292   -211.49952    2071.5838   -2309.5011    -219.9025    44657.537 -0.067234084   -17.036218 -0.041707817    3379.6897    1518.6314    896.93418    822.60126    28.380836    18.846109    14.337457  0.004556829 0.0045562142 0.0041109675 0.0040920506    296.00514     41.49527    35.978931    34.423473    90.016431    119.66323    90.107069    18.846441    14.337038    28.378892    18.847628    14.335569 
   53000    305.08076    1.2509986    1989.7772   -1244.9512   -211.49952    2070.8981   -2309.6143   -2681.9839    44657.537 -0.067234084   -17.036218 -0.041707817    3473.4446    1546.7274    898.21321    872.10207    28.381216     18.84519    14.338826 0.0044380053 0.0044328632 0.0047237961 0.0046706634    305.08076     41.49527    35.978931    34.423473    90.016431    119.66323    90.107069    18.845772    14.339586    28.383122    18.846605    14.345522 
   54000    298.73823    1.2509986    1951.5898    -1222.402   -211.49952    2073.3626   -2309.6431    753.43283    44657.537 -0.067234084   -17.036218 -0.041707817    3410.2724     1530.195    871.99532    854.93316    28.379152    18.846152    14.336678 0.0045087444 0.0045057151 0.0043821909 0.0043661588    298.73823     41.49527    35.978931    34.423473    90.016431    119.66323    90.107069    18.846896      14.3369    28.378809    18.845386     14.34116 
   55000    302.19025    1.2509986    1983.9243   -1237.2462   -211.49952      2066.65   -2309.7045   -2392.5392    44657.537 -0.067234084   -17.036218 -0.041707817     3464.225    1540.1587    877.04581    889.40896    28.379084    18.846645    14.337597 0.0046544266    0.0046537 0.0049870324 0.0049564387    302.19025     41.49527    35.978931    34.423473    90.016431    119.66323    90.107069     18.84573    14.338461    28.381751    18.844735    14.342372 
   56000    295.09374    1.2509986    1945.0117   -1235.4826   -211.49952    2073.7927   -2309.0901    -1645.005    44657.537 -0.067234084   -17.036218 -0.041707817    3415.7918    1562.5238    857.42361    844.31057    28.381364    18.847061    14.338174 0.0043827387 0.0043817556 0.0051196557 0.0051027407    295.09374     41.49527    35.978931    34.423473    90.016431    119.66323    90.107069    18.846902    14.338378    28.376065    18.847044    14.340559 
   57000    297.81526    1.2509986    1995.9937   -1202.0858   -211.49952    2069.3179   -2309.8353   -478.54665    44657.537 -0.067234084   -17.036218 -0.041707817    3438.5968     1516.089    906.23418    863.91993    28.382507    18.846251    14.337718 0.0045096363  0.004508282 0.0048073592 0.0047939276    297.81526     41.49527    35.978931    34.423473    90.016431    119.66323    90.107069    18.846197     14.33804     28.38113    18.845713    14.339383 
   58000    299.52479    1.2509986    1942.1555   -1235.5797   -211.49952    2076.6544   -2308.6527    -1679.549    44657.537 -0.067234084   -17.036218 -0.041707817    3409.7335     1512.097    896.46849    849.37907    28.379316    18.845703    14.337201 0.0044304504 0.0044254631 0.0047779495 0.0047659809    299.52479     41.49527    35.978931    34.423473    90.016431    119.66323    90.107069     18.84578    14.337491    28.376471    18.847473    14.339358 
   59000     302.5621    1.2509986    1948.1834   -1212.6444   -211.49952    2073.0835   -2309.1052    715.12881    44657.537 -0.067234084   -17.036218 -0.041707817    3396.8495    1482.3124    882.31685    874.94702    28.381124    18.846522    14.337595 0.0044049121 0.0044038431 0.0046096124 0.0046030247     302.5621     41.49527    35.978931    34.423473    90.016431    119.66323    90.107069    18.847045    14.337304    28.379353    18.847061    14.337984 
   60000    299.39285    1.2509986    1991.6245   -1198.6113   -211.49952    2072.3735   -2309.6489     998.2759    44657.537 -0.067234084   -17.036218 -0.041707817    3427.5113    1522.7929    887.11624    866.04739    28.380589    18.846586    14.337699 0.0042909423 0.0042903027 0.0041157567 0.0040974134    299.39285     41.49527    35.978931    34.423473    90.016431    119.66323    90.107069    18.846596    14.337883    28.381121    18.849971    14.343508 
   61000    296.40715    1.2509986    2028.0543   -1199.0937   -211.49952    2075.6913   -2309.2237    1010.9845    44657.537 -0.067234084   -17.036218 -0.041707817    3460.6804    1559.9087    865.38678    882.58817    28.379967    18.848066    14.337775 0.0043275144 0.0043266083  0.004668815 0.0046655264    296.40715     41.49527    35.978931    34.423473    90.016431    119.66323    90.107069    18.847004    14.338011    28.381356    18.848793    14.339694 
   62000    298.31396    1.2509986    1944.7393   -1195.9352   -211.49952    2070.1987   -2309.3664    875.75756    44657.537 -0.067234084   -17.036218 -0.041707817    3379.8422    1509.5828    882.02898    840.43766    28.380279     18.84547    14.337158 0.0045081565 0.0045074738 0.0048781197 0.0048693622    298.31396     41.49527    35.978931    34.423473    90.016431    119.66323    90.107069    18.846162    14.337443    28.381893    18.848298    14.337969 
   63000    295.94548    1.2509986    1999.2175   -1205.1562   -211.49952      2069.17   -2309.6129   -404.27023    44657.537 -0.067234084   -17.036218 -0.041707817    3444.8165    1502.5399     931.5648     855.9461    28.378102    18.844827    14.337155 0.0044171202 0.0044167707 0.0046676968 0.0046650826    295.94548     41.49527    35.978931    34.423473    90.016431    119.66323    90.107069    18.845602    14.337839    28.380961    18.848541    14.340284 
   64000    298.01448    1.2509986    2000.7227   -1196.0303   -211.49952    2072.3071   -2309.5375   -242.04173    44657.537 -0.067234084   -17.036218 -0.041707817    3433.9834    1529.5875    891.48347    861.24827    28.380959    18.845763    14.337697 0.0045292757  0.004525781 0.0045867043 0.0045805649    298.01448     41.49527    35.978931    34.423473    90.016431    119.66323    90.107069    18.846175    14.338578    28.380962    18.850419    14.341117 
   65000    294.13951    1.2509986    2053.7524   -1191.1425   -211.49952    2077.0697   -2309.2911    1480.8419    44657.537 -0.067234084   -17.036218 -0.041707817    3477.1164    1511.6447    953.46874    861.95729    28.378906    18.847612    14.336781 0.0044972597 0.0044935837 0.0046508783 0.0046496793    294.13951     41.49527    35.978931    34.423473    90.016431    119.66323    90.107069    18.847448    14.336574    28.379944    18.849077    14.338616 
   66000    289.77836    1.2509986    2045.6741   -1204.3911   -211.49952    2074.5214   -2309.4592    606.53732    44657.537 -0.067234084   -17.036218 -0.041707817    3485.0031    1554.2317    903.38518    870.95713    28.379369    18.846127    14.337617  0.004691577 0.0046892876 0.0046397346 0.0046327185    289.77836     41.49527    35.978931    34.423473    90.016431    119.66323    90.107069     18.84688    14.338614    28.377535    18.848426    14.341246 
   67000    295.51089    1.2509986    1902.8652   -1205.3013   -211.49952    2074.3522     -2309.37     1138.888    44657.537 -0.067234084   -17.036218 -0.041707817    3343.1843    1482.1176    852.64729    860.61556      28.3767    18.846079    14.336967 0.0044616722 0.0044584654 0.0044482474 0.0044244819    295.51089     41.49527    35.978931    34.423473    90.016431    119.66323    90.107069    18.847347     14.33767    28.377107    18.850297    14.343653 
   68000    299.16989    1.2509986    1920.1967    -1220.864   -211.49952    2072.2048   -2309.5982   -1588.3285    44657.537 -0.067234084   -17.036218 -0.041707817     3378.454     1514.538    884.39998    832.86234    28.380707    18.844279    14.337605 0.0045751472 0.0045743438 0.0050790287 0.0050647389    299.16989     41.49527    35.978931    34.423473    90.016431    119.66323    90.107069    18.846106    14.338595    28.379538    18.848328    14.343356 
   69000    304.53076    1.2509986    1946.7681   -1194.8734   -211.49952     2070.422    -2309.521    2206.1057    44657.537 -0.067234084   -17.036218 -0.041707817    3380.7405    1452.1886    918.90243    858.14805     28.37896    18.847345    14.337504 0.0044171627 0.0044147788 0.0043161777 0.0043140739    304.53076     41.49527    35.978931    34.423473    90.016431    119.66323    90.107069    18.847712    14.337539       28.381    18.848906     14.33973 
   70000     296.3511    1.2509986    1894.8653   -1220.0426   -211.49952    2072.9607   -2309.1444    950.99928    44657.537 -0.067234084   -17.036218 -0.041707817    3351.0916     1465.537    886.67004    847.98673    28.377563     18.84671    14.336782 0.0045854855 0.0045844785 0.0051103571 0.0051082627     296.3511     41.49527    35.978931    34.423473    90.016431    119.66323    90.107069    18.847019    14.337859    28.380988    18.848909    14.339452 
   71000    295.99103    1.2509986    1975.4022    -1218.455   -211.49952    2072.6435   -2309.8367    475.49198    44657.537 -0.067234084   -17.036218 -0.041707817    3431.0504    1568.5587    867.16708    844.42611     28.37627    18.846085    14.336473 0.0044315738 0.0044294999 0.0049794787 0.0049448173    295.99103     41.49527    35.978931    34.423473    90.016431    119.66323    90.107069    18.845506    14.337299    28.382146    18.845014    14.343097 
   72000    295.36712    1.2509986    1982.4973   -1200.0239   -211.49952    2072.4066   -2309.5915    722.92572    44657.537 -0.067234084   -17.036218 -0.041707817    3419.7061    1526.5886    883.52516    858.83868    28.376644    18.846693    14.337595 0.0044258796 0.0044223573 0.0047889324 0.0047754254    295.36712     41.49527    35.978931    34.423473    90.016431    119.66323    90.107069    18.845781    14.338675    28.376164    18.847614    14.339831 
   73000    302.39202    1.2509986    1976.5239   -1211.8969   -211.49952    2078.3332   -2308.7746    1139.5863    44657.537 -0.067234084   -17.036218 -0.041707817    3418.8621    1504.4285    918.30601    845.07972    28.379099     18.84518    14.337545  0.004371175 0.0043696475 0.0041944015 0.0041445649    302.39202     41.49527    35.978931    34.423473    90.016431    119.66323    90.107069     18.84626    14.337714     28.37281     18.84813    14.341518 
   74000    296.25875    1.2509986    2004.7893   -1226.7664   -211.49952    2074.3502   -2309.3619   -397.02765    44657.537 -0.067234084   -17.036218 -0.041707817    3466.5673    1478.2343     930.1325    899.95096    28.378643    18.846498    14.336833 0.0044903122 0.0044868757 0.0047942569 0.0047860247    296.25875     41.49527    35.978931    34.423473    90.016431    119.66323    90.107069    18.846323    14.336124    28.378967    18.850549    14.337288 
   75000    302.67034    1.2509986    1889.5185   -1217.0841   -211.49952    2072.1176   -2309.0751   -983.59735    44657.537 -0.067234084   -17.036218 -0.041707817    3343.5601    1475.9415    839.70309    873.65792     28.37956    18.846266    14.337148 0.0044473579  0.004445892 0.0046397436  0.004612111    302.67034     41.49527    35.978931    34.423473    90.016431    119.66323    90.107069    18.846315    14.336788    28.377105     18.84701    14.335442 
   76000    299.93411    1.2509986    2002.2969   -1197.8156   -211.49952    2073.7574   -2309.2112    32.229981    44657.537 -0.067234084   -17.036218 -0.041707817    3435.5663    1514.7834    876.06157    889.23646    28.378754    18.846263    14.337572 0.0044215583  0.004420429 0.0044283464 0.0044186218    299.93411     41.49527    35.978931    34.423473    90.016431    119.66323    90.107069    18.846456    14.338503    28.380007    18.848212    14.342618 
   77000    301.56199    1.2509986    1984.3417   -1222.6233   -211.49952    2071.3318   -2309.2075   -484.65172    44657.537 -0.067234084   -17.036218 -0.041707817    3444.8407    1541.9737    896.52621    859.45505    28.379333    18.845597    14.337014  0.004383027 0.0043789845 0.0044246089 0.0044084483    301.56199     41.49527    35.978931    34.423473    90.016431    119.66323    90.107069    18.844931    14.337019    28.381542    18.847696      14.3364 
   78000    296.67063    1.2509986    1978.6517   -1219.5202   -211.49952     2070.033   -2309.5135   -1385.2419    44657.537 -0.067234084   -17.036218 -0.041707817    3437.6524    1558.8483    879.14244    851.69565     28.38031    18.846031    14.337423 0.0043450813 0.0043430456  0.004587921 0.0045700831    296.67063     41.49527    35.978931    34.423473    90.016431    119.66323    90.107069    18.846721    14.336621    28.379176    18.848009    14.335553 
   79000    297.16297    1.2509986    2053.9717   -1209.6625   -211.49952    2070.5467   -2309.3423   -455.46826    44657.537 -0.067234084   -17.036218 -0.041707817    3502.4297    1603.6434    909.71948    841.89947    28.380787    18.846212    14.337694 0.0043384251 0.0043383828 0.0044155905 0.0044145251    297.16297     41.49527    35.978931    34.423473    90.016431    119.66323    90.107069    18.846157    14.337764    28.379029    18.848312    14.339094 
   80000    299.44767    1.2509986    2009.6392   -1199.2723   -211.49952    2070.2079    -2309.344    294.82308    44657.537 -0.067234084   -17.036218 -0.041707817    3448.0477    1555.0365      900.534    845.99008     28.38107    18.845869    14.338247 0.0044183929 0.0044157689 0.0043325229 0.0043226209    299.44767     41.49527    35.978931    34.423473    90.016431    119.66323    90.107069    18.846741    14.338156    28.381927    18.847033    14.340241 
   81000    299.73478    1.2509986    2024.3284   -1185.5654   -211.49952    2070.8354   -2309.4856    1137.2659    44657.537 -0.067234084   -17.036218 -0.041707817    3448.5441     1501.935    911.01749    881.47152    28.380911    18.845487    14.337164 0.0043499432  0.004348379 0.0044645791 0.0044469303    299.73478     41.49527    35.978931    34.423473    90.016431    119.66323    90.107069    18.845397    14.336955    28.375698    18.850657    14.339882 
   82000    293.44858    1.2509986    1916.0368   -1225.1862   -211.49952    2076.6479   -2308.8909   -406.06865    44657.537 -0.067234084   -17.036218 -0.041707817     3373.466    1500.3497    887.44739     836.3922    28.377678    18.846117    14.337191 0.0044406726 0.0044393413 0.0041760796  0.004162273    293.44858     41.49527    35.978931    34.423473    90.016431    119.66323    90.107069     18.84685    14.338634    28.382256    18.849936    14.342019 
   83000    295.94026    1.2509986    1938.5627   -1211.1043   -211.49952    2070.1834   -2309.6986   -497.84972    44657.537 -0.067234084   -17.036218 -0.041707817    3389.1822    1498.0882    896.00071    845.99212    28.378563    18.845175    14.337117 0.0045102598 0.0045074916 0.0046231602 0.0046004268    295.94026     41.49527    35.978931    34.423473    90.016431    119.66323    90.107069    18.846148    14.336918    28.380101    18.845855    14.336107 
   84000    297.96806    1.2509986    2052.0239   -1225.4974   -211.49952    2071.5463   -2309.1979   -1105.5622    44657.537 -0.067234084   -17.036218 -0.041707817    3515.1729    1539.7649    916.52184    900.73663    28.379111     18.84394    14.338265 0.0044181678  0.004415479 0.0045157268 0.0044882081    297.96806     41.49527    35.978931    34.423473    90.016431    119.66323    90.107069    18.845834    14.338696    28.375954    18.847989    14.343311 
   85000    298.00659    1.2509986    1942.7842   -1199.6681   -211.49952    2069.7879   -2309.4149   -340.73802    44657.537 -0.067234084   -17.036218 -0.041707817    3382.0793    1512.6618    863.51399    859.42093    28.380832    18.846163    14.337295 0.0044640545 0.0044601998 0.0043681159 0.0043663768    298.00659     41.49527    35.978931    34.423473    90.016431    119.66323    90.107069    18.847644    14.337007    28.380844    18.849242    14.339465 
   86000    296.73229    1.2509986    1987.1561   -1196.8416   -211.49952    2075.4449   -2309.2797    1830.4465    44657.537 -0.067234084   -17.036218 -0.041707817    3417.8324    1518.8024    903.48212    848.72731     28.38023    18.846584    14.336953 0.0043626176 0.0043567934 0.0046860582 0.0046717981    296.73229     41.49527    35.978931    34.423473    90.016431    119.66323    90.107069    18.847118    14.336977    28.379806    18.850223     14.33607 
   87000    298.30996    1.2509986    1940.9702   -1203.9157   -211.49952    2072.5232    -2309.177   -34.094149    44657.537 -0.067234084   -17.036218 -0.041707817    3381.5396    1491.1653    893.71706    850.36408    28.380776    18.845392    14.337321 0.0044187368 0.0044174572 0.0043909295 0.0043542516    298.30996     41.49527    35.978931    34.423473    90.016431    119.66323    90.107069     18.84661    14.336701      28.3774    18.850045    14.334074 
   88000    299.36738    1.2509986    1963.5512   -1208.7239   -211.49952    2070.4208   -2309.2916    118.38794    44657.537 -0.067234084   -17.036218 -0.041707817     3411.146     1527.154    892.38344    842.56216    28.380739    18.844946    14.337542 0.0043306072  0.004327264 0.0044090526 0.0043986557    299.36738     41.49527    35.978931    34.423473    90.016431    119.66323    90.107069    18.844917    14.337349    28.379292    18.846194    14.341182 
   89000    301.40481    1.2509986    1994.7784   -1218.5738   -211.49952    2076.7117   -2309.3771    236.95675    44657.537 -0.067234084   -17.036218 -0.041707817    3446.0177    1501.0654    908.99128    880.78775    28.378181    18.846259    14.337397 0.0044866117 0.0044857732 0.0045728226 0.0045654369    301.40481     41.49527    35.978931    34.423473    90.016431    119.66323    90.107069    18.846787    14.338425    28.377996    18.849255     14.34185 
   90000    301.60032    1.2509986    2040.8444   -1217.9722   -211.49952    2068.6214   -2309.6931   -2221.5298    44657.537 -0.067234084   -17.036218 -0.041707817    3499.8882    1577.2169    887.42276    883.63824    28.379291     18.84492    14.337554 0.0044116868 0.0044111773 0.0045525679 0.0045332614    301.60032     41.49527    35.978931    34.423473    90.016431    119.66323    90.107069    18.846389     14.33811    28.376722    18.850839    14.342455 
   91000    298.24193    1.2509986    1991.0794   -1201.8986   -211.49952    2071.4846   -2309.3849   -161.79506    44657.537 -0.067234084   -17.036218 -0.041707817    3430.8784    1527.7734    911.34522    844.35811    28.378625    18.846367    14.336871 0.0044980388 0.0044961894  0.005264736  0.005218248    298.24193     41.49527    35.978931    34.423473    90.016431    119.66323    90.107069     18.84602    14.337233    28.373144    18.846722    14.339982 
   92000    298.31096    1.2509986     1966.214   -1209.4608   -211.49952    2072.8607   -2309.5198    272.48061    44657.537 -0.067234084   -17.036218 -0.041707817     3412.334    1516.6423    901.46072    849.05455     28.38035    18.847395    14.337142 0.0044117072 0.0044047638 0.0047233063 0.0047097011    298.31096     41.49527    35.978931    34.423473    90.016431    119.66323    90.107069    18.847553    14.338056    28.383243    18.848994    14.339525 
   93000    296.41102    1.2509986    1944.4785   -1227.7173   -211.49952    2073.4275   -2309.5184   -1853.9175    44657.537 -0.067234084   -17.036218 -0.041707817    3408.2867    1534.9634    893.78655    838.49022    28.382602    18.846943    14.338915 0.0044070424 0.0044016681 0.0049582185 0.0049481219    296.41102     41.49527    35.978931    34.423473    90.016431    119.66323    90.107069    18.847598    14.338858    28.380937     18.85161     14.34084 
   94000    298.31935    1.2509986     1960.227   -1230.6079   -211.49952    2072.9322   -2309.5111   -1452.2848    44657.537 -0.067234084   -17.036218 -0.041707817    3427.4137    1531.9835     879.3687    869.28093    28.381072    18.847005    14.337225  0.004361304  0.004360713 0.0047224458 0.0047020813    298.31935     41.49527    35.978931    34.423473    90.016431    119.66323    90.107069    18.845765    14.337854     28.37845     18.84516    14.337566 
   95000    302.81865    1.2509986    2005.8544   -1230.7497   -211.49952     2071.041   -2309.0837   -1149.9816    44657.537 -0.067234084   -17.036218 -0.041707817    3474.6469    1528.1034    919.44274     876.4002    28.378074    18.845693     14.33738 0.0044672806 0.0044638715 0.0048070436 0.0047968238    302.81865     41.49527    35.978931    34.423473    90.016431    119.66323    90.107069    18.846088    14.337673    28.377561    18.846626    14.340375 
   96000    300.97578    1.2509986    1963.0642    -1210.238   -211.49952    2070.7535   -2309.6234    709.48898    44657.537 -0.067234084   -17.036218 -0.041707817    3412.1721    1505.5553    876.01728    874.37971    28.382848    18.844541    14.338336 0.0043611663 0.0043574358 0.0040042894 0.0039996567    300.97578     41.49527    35.978931    34.423473    90.016431    119.66323    90.107069     18.84597    14.337826    28.379057     18.84701    14.339028 
   97000    293.82131    1.2509986    2026.6626   -1217.7223   -211.49952    2074.3686   -2309.4466   -803.38542    44657.537 -0.067234084   -17.036218 -0.041707817     3479.463    1568.3525    909.58989     856.5565    28.380566    18.846476    14.337223 0.0043101022 0.0043084825 0.0043577499 0.0043532349    293.82131     41.49527    35.978931    34.423473    90.016431    119.66323    90.107069    18.846981    14.337252    28.379982      18.8487     14.33758 
   98000     293.1873    1.2509986    1931.7066   -1216.7882   -211.49952    2076.9356   -2308.8031   -584.60936    44657.537 -0.067234084   -17.036218 -0.041707817    3380.3623    1503.7361    900.30096    827.34387    28.379661    18.845691    14.337336 0.0043620736 0.0043586008 0.0043545672 0.0043490433     293.1873     41.49527    35.978931    34.423473    90.016431    119.66323    90.107069    18.847613    14.337941    28.379087    18.848458    14.341873 
   99000    300.20985    1.2509986     1908.181   -1207.2966   -211.49952    2073.5635   -2309.4787    258.36985    44657.537 -0.067234084   -17.036218 -0.041707817    3351.3929    1471.9388    881.27617     848.0576    28.379385    18.846036    14.337578 0.0043149119 0.0043143232 0.0045167207 0.0044965805    300.20985     41.49527    35.978931    34.423473    90.016431    119.66323    90.107069    18.846676    14.337167    28.383936    18.849519    14.340478 
  100000    303.15803    1.2509986    1934.1496   -1204.4264   -211.49952    2071.0101    -2309.765    239.85639    44657.537 -0.067234084   -17.036218 -0.041707817    3377.3309    1492.5948    862.20846    870.88626    28.377309    18.847354    14.336796 0.0044973319 0.0044893282 0.0042558143 0.0042485839    303.15803     41.49527    35.978931    34.423473    90.016431    119.66323    90.107069    18.847519    14.336795    28.377833    18.850822    14.338644 
  101000    295.30806    1.2509986       1962.5   -1200.2098   -211.49952    2071.4827   -2309.5266   -299.44221    44657.537 -0.067234084   -17.036218 -0.041707817    3400.7536    1490.7719    906.12548    854.76486    28.379639    18.844767    14.337265 0.0043753924 0.0043747059 0.0046619007 0.0046480096    295.30806     41.49527    35.978931    34.423473    90.016431    119.66323    90.107069    18.846663    14.337151    28.383229    18.848951    14.339008 
  102000    299.74576    1.2509986    2065.6456   -1217.5973   -211.49952    2074.8953   -2309.1129   -267.26045    44657.537 -0.067234084   -17.036218 -0.041707817    3517.4604    1551.0011    930.31855    882.73977    28.379017    18.847016    14.336702 0.0045046741 0.0045007046  0.004446024 0.0044388082    299.74576     41.49527    35.978931    34.423473    90.016431    119.66323    90.107069    18.848135    14.337536    28.378857    18.851605    14.339544 
  103000    293.01736    1.2509986    2020.5741   -1218.2848   -211.49952    2070.1969   -2309.5814   -1291.2884    44657.537 -0.067234084   -17.036218 -0.041707817    3478.2434    1543.1492     923.9102    864.88039    28.380263    18.844874    14.337353 0.0043799564 0.0043798936 0.0045081867 0.0045063526    293.01736     41.49527    35.978931    34.423473    90.016431    119.66323    90.107069    18.846291    14.337843    28.379922    18.848093    14.340562 
  104000    300.99437    1.2509986    1947.1192   -1233.2171   -211.49952    2070.6617   -2309.4238   -1959.6089    44657.537 -0.067234084   -17.036218 -0.041707817    3419.0984    1506.9887    894.00565    866.40596    28.380883    18.846377    14.337499 0.0045914975 0.0045900124 0.0047443525 0.0047399681    300.99437     41.49527    35.978931    34.423473    90.016431    119.66323    90.107069    18.846195    14.336806    28.378844    18.848839    14.337677 
  105000    297.42663    1.2509986    2019.6021    -1219.753   -211.49952    2073.8551   -2309.2493    225.16799    44657.537 -0.067234084   -17.036218 -0.041707817    3474.7492    1520.1955    910.78203    890.61416    28.380839    18.845684    14.337261 0.0043271681 0.0043249367 0.0047155076 0.0047127922    297.42663     41.49527    35.978931    34.423473    90.016431    119.66323    90.107069    18.846272    14.336829    28.380137    18.847645    14.338926 
  106000    297.52337    1.2509986    2027.8286   -1210.2458   -211.49952    2073.7653   -2309.1942    688.16678    44657.537 -0.067234084   -17.036218 -0.041707817    3473.5032    1528.9412    913.19226    877.93317    28.380566    18.846029    14.337429  0.004505495 0.0045037443 0.0051033969  0.005100873    297.52337     41.49527    35.978931    34.423473    90.016431    119.66323    90.107069     18.84731      14.3377    28.380742    18.849196    14.338597 
  107000    295.54002    1.2509986    2082.1627   -1184.5144   -211.49952    2073.8409   -2309.0516    1626.3157    44657.537 -0.067234084   -17.036218 -0.041707817    3501.8878    1520.8999    944.49189    884.42861    28.378824    18.847052    14.337217 0.0045442455 0.0045429177  0.005050798 0.0050424796    295.54002     41.49527    35.978931    34.423473    90.016431    119.66323    90.107069     18.84724    14.337599    28.376782    18.849255    14.338888 
  108000    294.89136    1.2509986    1882.6638   -1197.8188   -211.49952    2070.6342   -2309.5635   -278.04325    44657.537 -0.067234084   -17.036218 -0.041707817     3319.412    1481.1634    880.85378     813.8265    28.379893    18.845791    14.337183 0.0042440231 0.0042413344 0.0044533045 0.0044448419    294.89136     41.49527    35.978931    34.423473    90.016431    119.66323    90.107069     18.84682    14.336435    28.379232     18.85091    14.337457 
  109000    288.42011    1.2509986    1976.9208   -1209.8864   -211.49952    2073.5902   -2309.3462   -600.71762    44657.537 -0.067234084   -17.036218 -0.041707817    3422.5633    1541.4022     861.8134    867.36625    28.379351    18.845591    14.337396 0.0042919821 0.0042913179 0.0042734528 0.0042678512    288.42011     41.49527    35.978931    34.423473    90.016431    119.66323    90.107069    18.846944    14.337888    28.378392    18.848733    14.341679 
  110000    298.34966    1.2509986     1925.297   -1204.0634   -211.49952    2068.7267   -2309.7143    490.04508    44657.537 -0.067234084   -17.036218 -0.041707817     3370.348    1490.4393    879.23119    850.70905    28.379528    18.845759    14.337771 0.0045314417 0.0045305629 0.0047788619 0.0047619009    298.34966     41.49527    35.978931    34.423473    90.016431    119.66323    90.107069    18.845602    14.337879     28.37761    18.845832    14.341386 
  111000    300.37178    1.2509986    2023.1462   -1225.5928   -211.49952    2074.3677   -2309.5659    40.802819    44657.537 -0.067234084   -17.036218 -0.041707817    3483.9372    1563.0871    892.80645    879.86202    28.379657    18.847069    14.337506 0.0044586628 0.0044551757 0.0044460592 0.0044377646    300.37178     41.49527    35.978931    34.423473    90.016431    119.66323    90.107069    18.847455    14.338662    28.379268    18.847202    14.341859 
  112000    291.65703    1.2509986    2025.0766   -1217.4102   -211.49952    2075.2081   -2309.4944   -990.41986    44657.537 -0.067234084   -17.036218 -0.041707817    3476.7731    1532.0346    930.58614    862.52108    28.379952    18.846916    14.338131 0.0043823213 0.0043782813 0.0039269536 0.0039179804    291.65703     41.49527    35.978931    34.423473    90.016431    119.66323    90.107069    18.845333    14.338797    28.377565    18.849962    14.341664 
  113000    303.74051    1.2509986    2018.2033   -1200.0141   -211.49952    2067.6759   -2309.2986   -320.94443    44657.537 -0.067234084   -17.036218 -0.041707817      3459.84    1515.3593    885.17352    899.32609    28.379615    18.846383    14.337335 0.0044409243 0.0044404722 0.0046619494 0.0046400366    303.74051     41.49527    35.978931    34.423473    90.016431    119.66323    90.107069    18.846521    14.337173     28.37646    18.845804    14.338214 
  114000    299.45967    1.2509986     2001.141   -1207.0555   -211.49952    2072.2308   -2309.3831    69.991807    44657.537 -0.067234084   -17.036218 -0.041707817    3445.3488    1541.1715    906.35891      851.689    28.378917    18.848157    14.338093 0.0042317572 0.0042269754 0.0043489894 0.0043368664    299.45967     41.49527    35.978931    34.423473    90.016431    119.66323    90.107069    18.847828    14.338379    28.377031     18.85131    14.340324 
  115000    296.06845    1.2509986    1925.7407   -1215.5848   -211.49952    2073.1233   -2309.6849    534.63973    44657.537 -0.067234084   -17.036218 -0.041707817    3377.8871    1530.2743    836.07107    859.49045    28.380595    18.847852    14.338156 0.0044441346 0.0044375771 0.0043439625 0.0042780898    296.06845     41.49527    35.978931    34.423473    90.016431    119.66323    90.107069    18.847968    14.338098    28.386609    18.849717    14.343593 
  116000    293.71795    1.2509986    1942.4118   -1231.8693   -211.49952    2071.4882   -2309.6541   -1122.8688    44657.537 -0.067234084   -17.036218 -0.041707817    3412.4469    1534.6982    881.27733    845.96615    28.381503    18.846812    14.338162 0.0045585437  0.004557459 0.0049326644 0.0049278561    293.71795     41.49527    35.978931    34.423473    90.016431    119.66323    90.107069    18.846574    14.337827    28.379485    18.849768    14.337581 
  117000     306.0025    1.2509986    1994.7198   -1213.3077   -211.49952    2069.8195   -2309.6825   -694.08685    44657.537 -0.067234084   -17.036218 -0.041707817    3447.8905    1522.1215    943.97318    839.02032    28.379854    18.845901    14.337825 0.0044145421 0.0044133733 0.0041348297  0.004109336     306.0025     41.49527    35.978931    34.423473    90.016431    119.66323    90.107069    18.846249    14.338618    28.376649    18.846249    14.342704 
  118000    295.16988    1.2509986    1929.1933   -1227.6244   -211.49952    2070.7791   -2309.4657   -4.8311016    44657.537 -0.067234084   -17.036218 -0.041707817    3395.5044    1500.2342      873.119    873.19783    28.379214    18.845951    14.336588 0.0044548293 0.0044536369  0.004853461 0.0048063003    295.16988     41.49527    35.978931    34.423473    90.016431    119.66323    90.107069    18.845536    14.337194    28.385379    18.845587    14.338403 
  119000    293.63076    1.2509986    2015.6908   -1199.7156   -211.49952    2072.1312   -2309.2053    939.45516    44657.537 -0.067234084   -17.036218 -0.041707817    3452.4805    1563.9237    869.42738    865.82608    28.380987    18.846602    14.337758 0.0043600373 0.0043584243 0.0046751937 0.0046461361    293.63076     41.49527    35.978931    34.423473    90.016431    119.66323    90.107069     18.84639    14.338795    28.379444    18.849308    14.345019 
  120000    299.88046    1.2509986    2000.3146   -1198.4247   -211.49952    2073.9643   -2309.5427     1442.323    44657.537 -0.067234084   -17.036218 -0.041707817    3434.3177    1541.9788    917.80951    833.11699    28.379171    18.845837    14.336969 0.0042639602 0.0042595771 0.0044793485 0.0044597331    299.88046     41.49527    35.978931    34.423473    90.016431    119.66323    90.107069    18.845053    14.336402    28.378397    18.845885    14.342551 
  121000    294.25215    1.2509986    1977.7994   -1210.1028   -211.49952    2068.1767    -2309.707   -60.361666    44657.537 -0.067234084   -17.036218 -0.041707817    3429.4325    1529.8676    904.37577    846.77541    28.376409    18.845884    14.336546 0.0044149042 0.0044119425 0.0046602801 0.0046381477    294.25215     41.49527    35.978931    34.423473    90.016431    119.66323    90.107069    18.845811    14.337219    28.376579    18.846205    14.337319 
  122000    299.43433    1.2509986    1981.1165   -1208.4126   -211.49952    2074.6786   -2309.2522    819.00704    44657.537 -0.067234084   -17.036218 -0.041707817    3424.1027    1486.6562    924.05949    864.19295    28.381843    18.846507    14.337788  0.004484509 0.0044835435 0.0044246503 0.0044035438    299.43433     41.49527    35.978931    34.423473    90.016431    119.66323    90.107069    18.846353    14.338316    28.381692    18.851294    14.343006 
  123000    297.73725    1.2509986    1976.9727   -1218.0407   -211.49952    2073.9864    -2309.237   -378.82927    44657.537 -0.067234084   -17.036218 -0.041707817     3430.264     1505.938    924.32924     853.7391    28.381236     18.84361    14.337721 0.0045317562 0.0045275324  0.004379488 0.0043694293    297.73725     41.49527    35.978931    34.423473    90.016431    119.66323    90.107069    18.844203    14.338281    28.380566      18.8475    14.342236 
  124000    299.30416    1.2509986     2000.226   -1191.5709   -211.49952    2074.6091   -2309.4007    1509.2908    44657.537 -0.067234084   -17.036218 -0.041707817    3426.5885     1519.749    913.10573    847.50856     28.37929    18.845599    14.336999 0.0043797087 0.0043780578 0.0045933334 0.0045717484    299.30416     41.49527    35.978931    34.423473    90.016431    119.66323    90.107069    18.845637    14.337174    28.377218    18.846122    14.336853 
  125000    300.17517    1.2509986    2006.6162   -1226.2863   -211.49952    2073.8537   -2309.5445   -571.47516    44657.537 -0.067234084   -17.036218 -0.041707817    3468.5933    1532.6645    915.92383    867.47712    28.380087    18.844993    14.337382 0.0045784693 0.0045777728 0.0046902726 0.0046773415    300.17517     41.49527    35.978931    34.423473    90.016431    119.66323    90.107069    18.845358    14.337748     28.37981     18.84546    14.339143 
  126000    290.99693    1.2509986    1954.9092   -1202.8892   -211.49952    2071.0159   -2309.7363    1228.8695    44657.537 -0.067234084   -17.036218 -0.041707817    3396.5188    1502.2046    885.59822    859.81081    28.380463    18.846585    14.337772 0.0044327172 0.0044322869 0.0047162487 0.0047150198    290.99693     41.49527    35.978931    34.423473    90.016431    119.66323    90.107069     18.84669    14.338154    28.378676    18.848696    14.340233 
  127000    291.25175    1.2509986    1983.8578   -1215.6849   -211.49952    2069.7341   -2309.6456    741.09789    44657.537 -0.067234084   -17.036218 -0.041707817    3439.4542    1472.3726    933.98716    878.29739    28.377605    18.847282    14.336542 0.0044146823 0.0044142541 0.0045629631 0.0045467559    291.25175     41.49527    35.978931    34.423473    90.016431    119.66323    90.107069    18.846521     14.33755    28.381863    18.848552    14.342906 
  128000    305.63551    1.2509986    1943.1858   -1220.6732   -211.49952    2075.8847   -2309.4755   -425.08259    44657.537 -0.067234084   -17.036218 -0.041707817    3397.4498    1477.5422    908.26754    863.40247    28.378118    18.846363     14.33716 0.0046064571 0.0046043721 0.0047434687 0.0047168427    305.63551     41.49527    35.978931    34.423473    90.016431    119.66323    90.107069    18.847229    14.338084    28.379233    18.852891    14.343027 
  129000    296.05297    1.2509986    1972.1832   -1214.6083   -211.49952    2071.1136   -2309.8286    709.03623    44657.537 -0.067234084   -17.036218 -0.041707817    3425.5065    1523.8436    890.06479    863.01209    28.377091     18.84622    14.337275 0.0043921791 0.0043891094 0.0044134863 0.0043987832    296.05297     41.49527    35.978931    34.423473    90.016431    119.66323    90.107069     18.84678     14.33798    28.377826    18.851801    14.341621 
  130000     298.7337    1.2509986    1953.3409   -1207.9181   -211.49952    2069.7157   -2309.5011   -734.34689    44657.537 -0.067234084   -17.036218 -0.041707817    3401.0444    1527.5666     863.5619    861.05492    28.377085    18.846077    14.336283   0.00453056 0.0045301383 0.0048509138 0.0048211345     298.7337     41.49527    35.978931    34.423473    90.016431    119.66323    90.107069    18.845825    14.337204    28.379209     18.84439    14.336759 
  131000    298.69987    1.2509986    1980.4615   -1177.2897   -211.49952    2074.3137   -2309.2424    1832.8493    44657.537 -0.067234084   -17.036218 -0.041707817    3392.6799    1508.3397    881.27555    855.19931    28.377738    18.845529    14.336676 0.0044725487 0.0044705074 0.0049851552 0.0049557991    298.69987     41.49527    35.978931    34.423473    90.016431    119.66323    90.107069    18.844833    14.337969    28.382012    18.844241     14.33889 
  132000    294.83179    1.2509986    1967.6812   -1186.0257   -211.49952    2070.1193   -2309.6047    1334.7966    44657.537 -0.067234084   -17.036218 -0.041707817    3393.1923    1512.1006    914.39168    824.01723    28.379687    18.846298    14.336747  0.004391969  0.004389596 0.0042866179 0.0042752526    294.83179     41.49527    35.978931    34.423473    90.016431    119.66323    90.107069    18.846887    14.336832    28.376919    18.846922    14.339445 
  133000    291.05768    1.2509986    1979.6911   -1213.4245   -211.49952    2072.4486   -2309.0781   -332.30838    44657.537 -0.067234084   -17.036218 -0.041707817    3429.7451    1531.8625    898.65562    850.28219    28.379868    18.846223     14.33755 0.0045235591 0.0045221642 0.0043636755 0.0043568048    291.05768     41.49527    35.978931    34.423473    90.016431    119.66323    90.107069    18.847308    14.338094    28.379818    18.848894    14.342244 
  134000    290.47148    1.2509986     2056.239   -1210.0856   -211.49952    2071.5956   -2309.5628    573.81446    44657.537 -0.067234084   -17.036218 -0.041707817    3504.2918    1561.1924     922.2054    864.32432    28.381771    18.846484    14.338547 0.0045947578 0.0045873341 0.0048055147 0.0047713252    290.47148     41.49527    35.978931    34.423473    90.016431    119.66323    90.107069    18.845422    14.339117    28.379646    18.846087      14.3447 
  135000    297.31155    1.2509986    2041.6636   -1188.8757   -211.49952    2073.8306   -2309.3931     167.5741    44657.537 -0.067234084   -17.036218 -0.041707817    3466.1019    1542.3237     883.8143    886.24987    28.378509    18.845596    14.337484 0.0045391105  0.004538873  0.004605032 0.0045793984    297.31155     41.49527    35.978931    34.423473    90.016431    119.66323    90.107069    18.846327    14.338198    28.375223    18.846458    14.339064 
  136000    297.90231    1.2509986     1938.644   -1216.2838   -211.49952    2076.4832    -2309.334   -329.37987    44657.537 -0.067234084   -17.036218 -0.041707817    3387.7786    1480.7801    906.27025    853.50227    28.378906    18.844303    14.337398 0.0045750346 0.0045725065 0.0048310042  0.004799084    297.90231     41.49527    35.978931    34.423473    90.016431    119.66323    90.107069    18.844631      14.3377    28.374912    18.845857    14.340262 
  137000    295.88433    1.2509986    2002.5367   -1215.7268   -211.49952    2073.8644   -2309.4744    -224.2462    44657.537 -0.067234084   -17.036218 -0.041707817    3453.8734    1532.3655    893.39396    873.77796    28.379186    18.846638    14.336603 0.0043113492 0.0043105898 0.0044577808 0.0044530639    295.88433     41.49527    35.978931    34.423473    90.016431    119.66323    90.107069    18.846588    14.337045     28.37791    18.849886    14.338523 
  138000    297.48245    1.2509986    2032.3428   -1227.5014   -211.49952    2074.6386   -2309.1043     -1301.58    44657.537 -0.067234084   -17.036218 -0.041707817    3494.3098    1540.3625    926.73607    872.81432     28.38178    18.846266    14.338712 0.0045677703 0.0045638338 0.0047597438 0.0047256593    297.48245     41.49527    35.978931    34.423473    90.016431    119.66323    90.107069    18.845524      14.3384    28.383775    18.848412     14.34363 
  139000     300.8122    1.2509986    1946.6723   -1236.0255   -211.49952    2070.0516   -2309.7774   -1948.9282    44657.537 -0.067234084   -17.036218 -0.041707817    3422.4237    1518.8646     881.9626    869.15519    28.381924    18.846151    14.337841 0.0043818865 0.0043807607 0.0045439094 0.0045370956     300.8122     41.49527    35.978931    34.423473    90.016431    119.66323    90.107069    18.847034    14.338369    28.380619    18.851393    14.339769 
  140000    293.21957    1.2509986    1976.9957   -1223.3956   -211.49952    2072.3584   -2309.3625   -1404.0019    44657.537 -0.067234084   -17.036218 -0.041707817    3437.3953    1523.4915    911.37433    854.11064    28.382249    18.845888     14.33783 0.0044701502 0.0044690465 0.0045975023 0.0045902995    293.21957     41.49527    35.978931    34.423473    90.016431    119.66323    90.107069    18.846298     14.33761    28.378976    18.846419     14.34001 
  141000    299.31272    1.2509986    1973.0035   -1196.9647   -211.49952    2071.3714   -2309.1175    13.508717    44657.537 -0.067234084   -17.036218 -0.041707817    3407.7143    1510.2887    886.25988    860.97536    28.378083    18.845457    14.336985 0.0045143047 0.0045120518 0.0046229511 0.0046143373    299.31272     41.49527    35.978931    34.423473    90.016431    119.66323    90.107069    18.845431    14.337264    28.378951    18.848567    14.336801 
  142000    296.32281    1.2509986     1994.918   -1225.9789   -211.49952     2072.692   -2309.6852   -1358.6702    44657.537 -0.067234084   -17.036218 -0.041707817      3457.89    1549.5321    881.29022     869.5894    28.379842    18.844199     14.33832 0.0044878632 0.0044835166  0.004633658  0.004627595    296.32281     41.49527    35.978931    34.423473    90.016431    119.66323    90.107069    18.847123    14.337902    28.377674    18.849667    14.338193 
  143000    291.31236    1.2509986    2021.8163   -1208.2085   -211.49952    2073.2136   -2309.3622    78.959685    44657.537 -0.067234084   -17.036218 -0.041707817    3466.1735    1557.8752    904.83686    854.04075    28.379745     18.84549    14.338197  0.004371913 0.0043687176 0.0043999293  0.004354779    291.31236     41.49527    35.978931    34.423473    90.016431    119.66323    90.107069     18.84591    14.339434    28.380143    18.843329    14.343173 
  144000    303.55552    1.2509986    2010.8321   -1212.5611   -211.49952    2069.2908   -2309.7624     -1388.54    44657.537 -0.067234084   -17.036218 -0.041707817    3463.8648    1609.6548    866.37586    844.54986    28.377725    18.845463    14.336915 0.0044868194 0.0044798591 0.0044952501 0.0044513288    303.55552     41.49527    35.978931    34.423473    90.016431    119.66323    90.107069    18.845952    14.335907    28.375989     18.84719    14.334359 
  145000    295.12513    1.2509986    1882.2901   -1232.1693   -211.49952    2070.9604   -2309.6349   -1586.9897    44657.537 -0.067234084   -17.036218 -0.041707817     3353.134    1468.3003    882.01335    851.67254    28.379094       18.847    14.337717 0.0044547741 0.0044491445 0.0050262339 0.0050152136    295.12513     41.49527    35.978931    34.423473    90.016431    119.66323    90.107069     18.84811    14.337452    28.376763    18.848589    14.341381 
  146000    300.84266    1.2509986    2021.2889   -1211.2137   -211.49952    2072.8461   -2308.9473   -799.63733    44657.537 -0.067234084   -17.036218 -0.041707817    3468.6038    1544.2426    899.18744    876.26231    28.378268    18.846649    14.336932 0.0045086502 0.0045077404   0.00463335 0.0046142621    300.84266     41.49527    35.978931    34.423473    90.016431    119.66323    90.107069    18.845702    14.337226    28.379889    18.845023    14.341388 
  147000    297.07829    1.2509986    1994.4467   -1216.2348   -211.49952    2069.2964   -2309.7976   -200.68568    44657.537 -0.067234084   -17.036218 -0.041707817    3451.1827    1530.6003    897.89505    873.03643     28.38071    18.845312    14.337898 0.0042486526   0.00424729 0.0041258131 0.0041204349    297.07829     41.49527    35.978931    34.423473    90.016431    119.66323    90.107069    18.846131    14.338295    28.378639    18.846883    14.339647 
  148000    297.08461    1.2509986    1940.7786   -1221.4194   -211.49952    2073.3174    -2309.384   -792.92802    44657.537 -0.067234084   -17.036218 -0.041707817    3398.2646    1534.0786    881.54516    835.02802    28.381283    18.845262    14.337525 0.0042702897 0.0042693726 0.0048284753 0.0048163471    297.08461     41.49527    35.978931    34.423473    90.016431    119.66323    90.107069    18.847064    14.337444    28.376328    18.848821    14.338348 
  149000     299.1241    1.2509986    1937.2145   -1199.3822   -211.49952    2075.6427   -2309.0342    1906.2852    44657.537 -0.067234084   -17.036218 -0.041707817    3369.9883    1446.4105    894.09021    880.84001    28.381844    18.846033    14.338659 0.0044608251 0.0044553496 0.0049579009 0.0049509093     299.1241     41.49527    35.978931    34.423473    90.016431    119.66323    90.107069     18.84622    14.338929    28.377016    18.849129    14.340363 
  150000    297.63634    1.2509986    1954.8538   -1186.3542   -211.49952    2068.7517    -2309.431    1185.0132    44657.537 -0.067234084   -17.036218 -0.041707817    3381.8874    1459.2293    887.65156    879.67161    28.380985    18.845435    14.338238  0.004425832 0.0044230309 0.0051984028 0.0051612712    297.63634     41.49527    35.978931    34.423473    90.016431    119.66323    90.107069    18.845228    14.339088    28.379566    18.846213     14.34505 
  151000    295.44599    1.2509986    2101.8201   -1209.2782   -211.49952    2073.1744   -2309.3171   -186.20823    44657.537 -0.067234084   -17.036218 -0.041707817     3547.241    1552.8594     926.4981     906.1163     28.38101    18.846351    14.337997 0.0046840323 0.0046836583 0.0049868465 0.0049526663    295.44599     41.49527    35.978931    34.423473    90.016431    119.66323    90.107069    18.845892    14.338139    28.373856     18.85031    14.339698 
  152000    299.87219    1.2509986    1950.6377   -1200.2791   -211.49952    2072.7018   -2309.6242   -384.99325    44657.537 -0.067234084   -17.036218 -0.041707817    3387.8393    1497.3257    900.09449    845.74795    28.383234     18.84633    14.338299 0.0045813639 0.0045810082   0.00531321 0.0052846354    299.87219     41.49527    35.978931    34.423473    90.016431    119.66323    90.107069    18.846716    14.337565    28.374519    18.847474    14.340551 
  153000    299.51547    1.2509986    2032.0412   -1203.9786   -211.49952    2069.6239   -2309.8672   -186.75047    44657.537 -0.067234084   -17.036218 -0.041707817    3476.2632    1532.1877      902.315    887.37723    28.381898    18.847169    14.337789 0.0044552379 0.0044501216 0.0046658495 0.0046617201    299.51547     41.49527    35.978931    34.423473    90.016431    119.66323    90.107069    18.846987    14.338423     28.38101    18.847696    14.340168 
  154000    296.83269    1.2509986     2000.762   -1209.7064   -211.49952    2072.3772   -2309.7304    -638.3701    44657.537 -0.067234084   -17.036218 -0.041707817    3447.8215    1504.9868    910.22043    877.00835     28.37752    18.846356    14.336972 0.0045323676 0.0045294251 0.0045333148 0.0045244957    296.83269     41.49527    35.978931    34.423473    90.016431    119.66323    90.107069    18.846876     14.33746    28.377841    18.849883    14.341901 
  155000    300.39049    1.2509986    1952.8278   -1195.0906   -211.49952    2074.9967   -2309.1501    1140.5207    44657.537 -0.067234084   -17.036218 -0.041707817    3382.0718    1495.3746    896.11037    843.47078    28.381397     18.84562    14.337957 0.0044929422  0.004491948 0.0046274137 0.0046233706    300.39049     41.49527    35.978931    34.423473    90.016431    119.66323    90.107069    18.846868    14.338024    28.377938    18.849995     14.33896 
  156000    307.36275    1.2509986    1976.0935   -1196.0505   -211.49952    2070.6245   -2309.1165    989.20078    44657.537 -0.067234084   -17.036218 -0.041707817     3410.636    1509.0869    903.21301    852.34102    28.376559    18.845313    14.336918 0.0044684534 0.0044667285 0.0044120661 0.0043998526    307.36275     41.49527    35.978931    34.423473    90.016431    119.66323    90.107069    18.845187    14.337763    28.380671    18.846279    14.341508 
  157000    290.74345    1.2509986    1934.2518   -1182.9644   -211.49952    2068.9108   -2309.3533     846.7828    44657.537 -0.067234084   -17.036218 -0.041707817    3357.6586    1515.5696    886.49821    815.49737    28.379624    18.846281     14.33676 0.0045229582 0.0045205498 0.0046721152 0.0046513594    290.74345     41.49527    35.978931    34.423473    90.016431    119.66323    90.107069    18.846947    14.336402    28.382108    18.846319    14.336995 
  158000    298.41201    1.2509986    1945.1028   -1200.9315   -211.49952    2072.2887   -2309.5513    212.51586    44657.537 -0.067234084   -17.036218 -0.041707817    3383.2968    1473.5877    874.56846    881.07698    28.380121    18.846783    14.338584 0.0045154961 0.0045130661 0.0052431985 0.0052274213    298.41201     41.49527    35.978931    34.423473    90.016431    119.66323    90.107069    18.847259    14.338817    28.379034    18.847795    14.343383 
  159000    297.12845    1.2509986    2044.8195   -1217.7704   -211.49952    2074.3892   -2309.7909   -1033.7632    44657.537 -0.067234084   -17.036218 -0.041707817    3497.9916    1579.2416    908.93312    858.22162    28.379948    18.847051    14.337198 0.0043655584 0.0043594651 0.0046771572 0.0046680407    297.12845     41.49527    35.978931    34.423473    90.016431    119.66323    90.107069    18.846273    14.338552     28.38222    18.849766    14.340843 
  160000    294.55965    1.2509986    2019.6965   -1202.1609   -211.49952    2071.1415   -2309.7864    91.477575    44657.537 -0.067234084   -17.036218 -0.041707817    3460.5024    1559.4065    901.13255    852.98062    28.378948    18.845192    14.336419 0.0046652843 0.0046578499  0.004907113 0.0048782713    294.55965     41.49527    35.978931    34.423473    90.016431    119.66323    90.107069    18.844262    14.335896    28.380765    18.844699    14.336676 
  161000    302.23986    1.2509986     1934.355    -1199.762   -211.49952    2070.0641    -2309.527    1531.8754    44657.537 -0.067234084   -17.036218 -0.041707817      3373.58    1491.2153    851.46809    877.12028    28.378165    18.845718     14.33651 0.0042052087 0.0042040896 0.0047958755 0.0047885194    302.23986     41.49527    35.978931    34.423473    90.016431    119.66323    90.107069    18.846309    14.336944     28.38115    18.848291    14.341711 
  162000    290.66372    1.2509986    2041.8903    -1212.973   -211.49952    2073.2644   -2309.4343    103.15337    44657.537 -0.067234084   -17.036218 -0.041707817    3491.0332    1509.2339    947.32639    881.93122    28.380827    18.845549    14.338829 0.0044503204 0.0044442844 0.0042781084 0.0042391269    290.66372     41.49527    35.978931    34.423473    90.016431    119.66323    90.107069    18.846269    14.339986    28.375999    18.847926    14.344652 
  163000    301.91936    1.2509986    1979.2191   -1223.4718   -211.49952    2070.8957   -2309.5578   -206.74732    44657.537 -0.067234084   -17.036218 -0.041707817     3441.353    1519.4229    927.83095    846.14595    28.381103    18.845086    14.338388 0.0044692221 0.0044681639 0.0045586751 0.0045537593    301.91936     41.49527    35.978931    34.423473    90.016431    119.66323    90.107069    18.846571    14.337814    28.380455    18.848796    14.341653 
  164000    297.44471    1.2509986    2019.2984   -1233.5126   -211.49952    2072.2224   -2309.7345   -893.82908    44657.537 -0.067234084   -17.036218 -0.041707817    3490.3231     1525.121    929.15548    880.99881    28.378825     18.84723    14.336396 0.0043372935 0.0043335799 0.0041192122 0.0040881466    297.44471     41.49527    35.978931    34.423473    90.016431    119.66323    90.107069    18.846909    14.336022    28.382114    18.848467    14.334716 
  165000    296.09985    1.2509986    1930.2248   -1191.6609   -211.49952    2070.0486   -2309.3543    969.50359    44657.537 -0.067234084   -17.036218 -0.041707817    3361.1914    1514.6435    879.41217    823.37602     28.37982    18.845336    14.337338 0.0045373919 0.0045364443 0.0048085343 0.0047789893    296.09985     41.49527    35.978931    34.423473    90.016431    119.66323    90.107069    18.845652    14.336932    28.378901    18.846485    14.334871 
[...]
  961000    296.85167    1.2509986    1970.0109    -1204.943   -211.49952    2075.7374   -2309.2348    312.12535    44657.537 -0.067234084   -17.036218 -0.041707817    3408.4512    1505.0535    896.05519    855.19768    28.377973    18.845513    14.336778 0.0044246013 0.0044228066 0.0046098072 0.0046004742    296.85167     41.49527    35.978931    34.423473    90.016431    119.66323    90.107069     18.84534    14.337441    28.379946    18.846038    14.340214 
  962000    297.46337    1.2509986     1982.659   -1190.2284   -211.49952    2068.9602   -2309.5855    1504.3531    44657.537 -0.067234084   -17.036218 -0.041707817    3413.5127    1518.1864    884.86827    860.24977    28.380317    18.846509    14.337038 0.0047134536 0.0047125911 0.0042446353 0.0042332991    297.46337     41.49527    35.978931    34.423473    90.016431    119.66323    90.107069    18.846049    14.337883    28.380439    18.848625    14.342864 
  963000    301.23455    1.2509986    1987.1733   -1224.4943   -211.49952    2069.9014   -2309.4705   -1090.3138    44657.537 -0.067234084   -17.036218 -0.041707817    3451.2367    1579.1064     889.5329     840.0288    28.378924    18.845734      14.3375 0.0044501035 0.0044489811 0.0045074117 0.0044884426    301.23455     41.49527    35.978931    34.423473    90.016431    119.66323    90.107069    18.846359    14.338765    28.376895    18.846967    14.342413 
  964000    300.02249    1.2509986       1858.8   -1215.7181   -211.49952    2070.3044   -2309.5637    677.24189    44657.537 -0.067234084   -17.036218 -0.041707817    3313.7775    1479.4691    876.97172    816.08712    28.380818    18.844705    14.337698 0.0043869849 0.0043816402 0.0045653262 0.0045311076    300.02249     41.49527    35.978931    34.423473    90.016431    119.66323    90.107069    18.844676    14.337576    28.383348    18.844905    14.341362 
  965000    285.59769    1.2509986    2047.8913     -1212.87   -211.49952    2072.0706   -2309.2305   -374.73516    44657.537 -0.067234084   -17.036218 -0.041707817    3497.9212    1528.3901    943.61755    875.42136    28.380937    18.845996    14.337515 0.0045686318 0.0045682571  0.004301095 0.0042895922    285.59769     41.49527    35.978931    34.423473    90.016431    119.66323    90.107069    18.845682     14.33746    28.378915    18.845723    14.340157 
  966000    298.31257    1.2509986    2029.2904   -1200.2935   -211.49952     2070.283    -2309.433   -957.61489    44657.537 -0.067234084   -17.036218 -0.041707817    3468.7339    1562.3958    912.73167    847.77465    28.378869    18.846365    14.337294  0.004471341 0.0044673225 0.0044680126 0.0044054853    298.31257     41.49527    35.978931    34.423473    90.016431    119.66323    90.107069    18.847544    14.338127    28.372011    18.851376    14.339524 
  967000    295.38359    1.2509986    1997.5863   -1203.4238   -211.49952    2073.3879   -2309.3737    166.95809    44657.537 -0.067234084   -17.036218 -0.041707817    3436.9958    1495.8695    917.46002    870.92021    28.380846    18.845326    14.337788 0.0044632342 0.0044626291 0.0045352238 0.0045200261    295.38359     41.49527    35.978931    34.423473    90.016431    119.66323    90.107069    18.846576    14.337288    28.382215     18.84823    14.336896 
  968000    302.73908    1.2509986    1966.7994   -1200.8901   -211.49952    2075.4209   -2309.2377    1014.9023    44657.537 -0.067234084   -17.036218 -0.041707817    3401.5063    1502.3262    860.93212    884.82564    28.379153    18.846604    14.337227 0.0044739393 0.0044715139 0.0046609961 0.0046390356    302.73908     41.49527    35.978931    34.423473    90.016431    119.66323    90.107069    18.846535    14.336845    28.378341    18.848986    14.335112 
  969000    292.90398    1.2509986    1954.5363   -1210.4326   -211.49952    2070.3017   -2309.7091   -313.14593    44657.537 -0.067234084   -17.036218 -0.041707817    3404.3762    1502.9034    895.72548     854.8163    28.381955    18.845223    14.337212 0.0044626877 0.0044603715 0.0048127425 0.0047689431    292.90398     41.49527    35.978931    34.423473    90.016431    119.66323    90.107069     18.84595    14.336658    28.385149    18.848745     14.33611 
  970000     302.4263    1.2509986     1954.178   -1236.3038   -211.49952    2072.2847   -2309.5797   -1433.5197    44657.537 -0.067234084   -17.036218 -0.041707817    3427.7767    1522.8782    897.17025    854.59734     28.37898    18.845963    14.337536 0.0045915534 0.0045894472 0.0046784293 0.0046677927     302.4263     41.49527    35.978931    34.423473    90.016431    119.66323    90.107069    18.847063    14.338196     28.38156    18.848503    14.342161 
  971000     301.7936    1.2509986    1949.1366   -1175.6421   -211.49952     2068.393   -2309.8734     1850.841    44657.537 -0.067234084   -17.036218 -0.041707817    3366.2591    1499.0399     858.4778    860.80755     28.37917    18.846486    14.337615 0.0041301988 0.0041275368 0.0044909519 0.0044536932     301.7936     41.49527    35.978931    34.423473    90.016431    119.66323    90.107069    18.846366      14.3385    28.382099    18.847204    14.344884 
  972000    300.00655    1.2509986    1968.9325   -1207.4009   -211.49952    2076.2057    -2309.348    590.44717    44657.537 -0.067234084   -17.036218 -0.041707817    3409.4757    1502.1281    891.45815    862.74162    28.380256    18.846316    14.337041 0.0044108033 0.0044084632 0.0043594979 0.0043583892    300.00655     41.49527    35.978931    34.423473    90.016431    119.66323    90.107069    18.847237    14.336885    28.380445    18.848653    14.339203 
  973000    297.52863    1.2509986    1973.4504   -1207.0254   -211.49952    2073.0723   -2309.8007    480.58738    44657.537 -0.067234084   -17.036218 -0.041707817    3417.2042    1514.3157    891.73367    860.16964     28.37867    18.847413    14.337405 0.0045162075 0.0045125219  0.004533796  0.004501279    297.52863     41.49527    35.978931    34.423473    90.016431    119.66323    90.107069    18.847463    14.338475    28.383497    18.853129    14.339857 
  974000    299.24928    1.2509986    1985.0041   -1221.0568   -211.49952    2075.1986   -2309.3039    -137.0407    44657.537 -0.067234084   -17.036218 -0.041707817    3440.1662    1515.7613    916.02574    856.18013    28.382286    18.845881     14.33894 0.0046227033 0.0046183258 0.0046262135 0.0046231263    299.24928     41.49527    35.978931    34.423473    90.016431    119.66323    90.107069    18.846227    14.338846    28.381228    18.848609    14.339276 
  975000    296.84704    1.2509986    1924.6282   -1206.7932   -211.49952    2069.4376   -2309.3228    572.86991    44657.537 -0.067234084   -17.036218 -0.041707817    3371.3067    1557.2053    846.02432    832.80533    28.378886    18.844882    14.338277  0.004471239 0.0044679605   0.00473874 0.0047229061    296.84704     41.49527    35.978931    34.423473    90.016431    119.66323    90.107069    18.844566    14.338022    28.380492    18.845149    14.339468 
  976000    299.28165    1.2509986     2001.191   -1222.3705   -211.49952    2069.8995   -2309.4567   -863.82043    44657.537 -0.067234084   -17.036218 -0.041707817    3463.1186    1536.0441    906.29689    865.37964    28.379517    18.846848    14.337586 0.0046201336 0.0046194423 0.0048701948 0.0048603812    299.28165     41.49527    35.978931    34.423473    90.016431    119.66323    90.107069    18.846944    14.338071    28.376464    18.848527    14.339754 
  977000    294.82259    1.2509986    2013.4993   -1237.0541   -211.49952    2070.0993   -2309.6955   -1991.9981    44657.537 -0.067234084   -17.036218 -0.041707817    3490.1497    1538.2344    947.07557    856.45641    28.379471    18.844287    14.337456 0.0043711127 0.0043684067 0.0044634559  0.004452521    294.82259     41.49527    35.978931    34.423473    90.016431    119.66323    90.107069    18.844625    14.337607    28.380305    18.847366    14.342407 
  978000    304.50768    1.2509986    2050.2381   -1213.7188   -211.49952    2074.0027     -2309.41   -321.73234    44657.537 -0.067234084   -17.036218 -0.041707817    3499.3641     1571.065    893.38797    882.18993    28.379371    18.846712    14.337436 0.0044356176 0.0044330349 0.0044281476 0.0043908257    304.50768     41.49527    35.978931    34.423473    90.016431    119.66323    90.107069       18.847    14.338591    28.375852    18.845812    14.343292 
  979000    301.57673    1.2509986    2009.0163   -1199.4534   -211.49952    2070.0038   -2309.3871    804.13743    44657.537 -0.067234084   -17.036218 -0.041707817    3447.8529    1493.8922    949.83379    856.37594    28.382081    18.848224    14.339049 0.0045430681 0.0045370192 0.0047056556 0.0046981871    301.57673     41.49527    35.978931    34.423473    90.016431    119.66323    90.107069    18.847487     14.33924    28.381935    18.847724     14.34003 
  980000    301.85459    1.2509986    2018.7629   -1192.2409   -211.49952    2072.1792   -2309.7907    1797.5348    44657.537 -0.067234084   -17.036218 -0.041707817    3448.6153    1513.3035    925.92465    858.28459    28.379229    18.843713    14.336666 0.0043528755 0.0043514622 0.0047619778 0.0047506412    301.85459     41.49527    35.978931    34.423473    90.016431    119.66323    90.107069    18.845138    14.337301    28.382139    18.847341     14.33827 
  981000    297.39728    1.2509986    1942.8615   -1239.3367   -211.49952    2070.2187   -2309.6811   -1686.8136    44657.537 -0.067234084   -17.036218 -0.041707817    3421.6606     1516.411    894.45459    861.03851    28.378772    18.845823    14.337602 0.0044950338 0.0044936969 0.0045948358 0.0045912551    297.39728     41.49527    35.978931    34.423473    90.016431    119.66323    90.107069    18.845141    14.337818    28.380523    18.848634    14.338056 
  982000    300.85332    1.2509986    1979.0019   -1230.1419   -211.49952    2069.7853   -2309.7719   -148.18128    44657.537 -0.067234084   -17.036218 -0.041707817    3449.1304    1536.4879    890.39006    870.46362    28.378431    18.846342    14.336978 0.0043815279 0.0043806962 0.0042845906 0.0042706852    300.85332     41.49527    35.978931    34.423473    90.016431    119.66323    90.107069    18.847039    14.337664    28.380226    18.849992    14.343174 
  983000    296.24205    1.2509986    1993.1403   -1201.3612   -211.49952    2071.9336   -2309.4517   -636.03415    44657.537 -0.067234084   -17.036218 -0.041707817    3432.0197     1504.532    921.74935    859.97437    28.380131    18.846184    14.337278 0.0043498331 0.0043481711 0.0044291548   0.00442394    296.24205     41.49527    35.978931    34.423473    90.016431    119.66323    90.107069     18.84695    14.336937    28.380954    18.850519    14.340635 
  984000    294.25755    1.2509986    2003.2522   -1183.0457   -211.49952     2074.429   -2309.4694    1102.9272    44657.537 -0.067234084   -17.036218 -0.041707817    3421.3382    1498.0778    911.10103    858.92261    28.380623    18.844591    14.337888 0.0044359221 0.0044334261 0.0041402552 0.0041192935    294.25755     41.49527    35.978931    34.423473    90.016431    119.66323    90.107069    18.844929    14.338497    28.377808    18.845842     14.34244 
  985000    297.24361    1.2509986    1957.7381   -1214.0725   -211.49952     2075.281   -2309.5738   -183.03932    44657.537 -0.067234084   -17.036218 -0.041707817    3406.1035    1540.2825    872.78376     847.4187    28.380418    18.846229    14.338092 0.0042221275 0.0042202938  0.004148129 0.0041350888    297.24361     41.49527    35.978931    34.423473    90.016431    119.66323    90.107069    18.845986     14.33833     28.37732    18.847113    14.341742 
  986000    298.05766    1.2509986    1927.8399   -1212.9112   -211.49952    2073.7705   -2309.2113    -22.84297    44657.537 -0.067234084   -17.036218 -0.041707817    3376.1918    1528.8827     879.5966    822.79514    28.380913     18.84644    14.337516  0.004409185 0.0044087172 0.0042980508 0.0042788243    298.05766     41.49527    35.978931    34.423473    90.016431    119.66323    90.107069    18.846641     14.33795     28.38336    18.849105    14.341818 
  987000    295.07689    1.2509986    2016.4016   -1200.8769   -211.49952    2073.4244    -2309.512   -552.03202    44657.537 -0.067234084   -17.036218 -0.041707817    3453.3661    1531.2206    927.43807    841.72113    28.380766    18.846688    14.337579 0.0046290359 0.0046287346 0.0047694238   0.00475619    295.07689     41.49527    35.978931    34.423473    90.016431    119.66323    90.107069    18.846392    14.337681    28.378314    18.849716    14.342984 
  988000    297.80044    1.2509986    1976.1676    -1211.801   -211.49952    2071.0496   -2309.3005   -47.679251    44657.537 -0.067234084   -17.036218 -0.041707817    3426.2194    1538.2796    883.58229    853.77324    28.377311    18.844446    14.336979 0.0046789697 0.0046697396 0.0047539359 0.0047492871    297.80044     41.49527    35.978931    34.423473    90.016431    119.66323    90.107069    18.846101    14.337391    28.377516     18.84877    14.338985 
  989000    298.38754    1.2509986    1948.6006   -1220.7131   -211.49952    2072.3852   -2309.1404   -863.46969    44657.537 -0.067234084   -17.036218 -0.041707817    3406.0689    1514.3131    891.85889    857.44189    28.380249    18.846096    14.337379 0.0045289784 0.0045280653 0.0045605471 0.0045484952    298.38754     41.49527    35.978931    34.423473    90.016431    119.66323    90.107069    18.845299     14.33746    28.379061    18.845727    14.338634 
  990000    298.63035    1.2509986    1997.7466   -1222.5604   -211.49952    2071.6539   -2309.4161   -1338.9112    44657.537 -0.067234084   -17.036218 -0.041707817    3458.0692     1559.365    901.30125     843.4557    28.377378    18.847353    14.336814 0.0044752582 0.0044742406 0.0045019373 0.0044783024    298.63035     41.49527    35.978931    34.423473    90.016431    119.66323    90.107069       18.847    14.337181    28.380797    18.848288    14.334994 
  991000    300.17573    1.2509986    1983.7843   -1221.5593   -211.49952       2075.6   -2309.5586   -546.00481    44657.537 -0.067234084   -17.036218 -0.041707817    3439.3022    1537.9202    925.20172    832.95541     28.38015    18.846706    14.337801 0.0043181431 0.0043165521 0.0044810797 0.0044568735    300.17573     41.49527    35.978931    34.423473    90.016431    119.66323    90.107069    18.846327    14.337933    28.383232    18.845903    14.340654 
  992000    295.37036    1.2509986    1977.7148   -1221.2899   -211.49952    2074.0959   -2309.6745   -250.25489    44657.537 -0.067234084   -17.036218 -0.041707817    3434.5833    1549.8532    869.00126    865.90869    28.377406    18.846197    14.337166 0.0043607916 0.0043543081 0.0049972885 0.0049433851    295.37036     41.49527    35.978931    34.423473    90.016431    119.66323    90.107069    18.847048    14.337982    28.372304    18.849649    14.340588 
  993000    293.34769    1.2509986    1976.7743   -1207.1774   -211.49952    2072.8543   -2309.0201    572.55383    44657.537 -0.067234084   -17.036218 -0.041707817    3420.1176    1506.2179    889.92697    870.98164    28.380982    18.846906    14.338121  0.004314478 0.0043090866 0.0044632868 0.0044608106    293.34769     41.49527    35.978931    34.423473    90.016431    119.66323    90.107069    18.847266    14.338454    28.379327     18.84907    14.341194 
  994000    295.66544    1.2509986    1893.5878   -1219.2752   -211.49952    2075.4461   -2309.3863    509.08626    44657.537 -0.067234084   -17.036218 -0.041707817    3346.8033    1443.0642    881.73899    873.23929    28.376772    18.844845    14.336791 0.0043643074 0.0043614804  0.004394853 0.0043824916    295.66544     41.49527    35.978931    34.423473    90.016431    119.66323    90.107069    18.845892    14.337565    28.377508    18.847065    14.341728 
  995000    295.17429    1.2509986    1965.4322   -1206.0537   -211.49952    2074.2037   -2309.5051    921.22361    44657.537 -0.067234084   -17.036218 -0.041707817    3406.7873    1525.6424    865.02549    863.98892    28.381296    18.845135    14.338063 0.0045340696 0.0045333121 0.0042396158  0.004212092    295.17429     41.49527    35.978931    34.423473    90.016431    119.66323    90.107069    18.845755    14.337464    28.383574    18.845708    14.340319 
  996000    293.07207    1.2509986    2008.0863   -1220.2627   -211.49952    2071.7744   -2309.9495    33.253664    44657.537 -0.067234084   -17.036218 -0.041707817    3466.5242    1533.2131    894.90841    880.55875    28.382915       18.846    14.338549 0.0043526557  0.004347877 0.0044873566 0.0044688263    293.07207     41.49527    35.978931    34.423473    90.016431    119.66323    90.107069    18.846871    14.338333    28.376613    18.848396    14.342718 
  997000    297.58198    1.2509986    1995.8038    -1219.612   -211.49952    2071.8172   -2310.0128   -167.51102    44657.537 -0.067234084   -17.036218 -0.041707817    3453.6114    1550.3362    906.16254    849.17095    28.379815    18.844748    14.337926 0.0044872197  0.004484769 0.0045586657 0.0045353021    297.58198     41.49527    35.978931    34.423473    90.016431    119.66323    90.107069    18.845057    14.337488    28.383605    18.847156     14.33776 
  998000    292.96468    1.2509986    2049.5996   -1202.1508   -211.49952    2076.9194   -2309.4681    1065.5606    44657.537 -0.067234084   -17.036218 -0.041707817    3484.2991    1556.3118    894.38476    880.14899    28.379035      18.8477    14.337466  0.004416921 0.0044151933 0.0045623455 0.0045226849    292.96468     41.49527    35.978931    34.423473    90.016431    119.66323    90.107069    18.847061    14.338715    28.380145    18.850075    14.345818 
  999000    295.44894    1.2509986    1875.6045   -1216.5105   -211.49952    2073.6801   -2309.2204   -819.13237    44657.537 -0.067234084   -17.036218 -0.041707817    3327.6554    1469.1465    880.44801    833.18571    28.378893    18.845943    14.337623 0.0044481193  0.004447017 0.0045222784 0.0045052516    295.44894     41.49527    35.978931    34.423473    90.016431    119.66323    90.107069    18.846727    14.338491    28.381006    18.852779    14.338777 
 1000000    295.66939    1.2509986    2040.6457   -1195.9917   -211.49952    2068.8179   -2309.6057    603.36426    44657.537 -0.067234084   -17.036218 -0.041707817    3477.4252    1506.7034    928.58122    888.76318    28.380754    18.845399    14.337571 0.0046345373 0.0046338665 0.0044928448 0.0044905116    295.66939     41.49527    35.978931    34.423473    90.016431    119.66323    90.107069    18.846665    14.337305    28.379428    18.848202     14.33835 
Loop time of 2986.83 on 60 procs for 1000000 steps with 4560 atoms

Pair  time (%) = 544.01 (18.2136)
Bond  time (%) = 59.1727 (1.98112)
Kspce time (%) = 1552.56 (51.9803)
Neigh time (%) = 4.77232 (0.159779)
Comm  time (%) = 572.06 (19.1527)
Outpt time (%) = 3.00212 (0.100512)
Other time (%) = 251.248 (8.41186)

Nlocal:    76 ave 86 max 67 min
Histogram: 1 1 6 15 15 8 6 6 1 1
Nghost:    3991.87 ave 4063 max 3891 min
Histogram: 3 6 11 0 0 3 6 12 9 10
Neighs:    28105 ave 31943 max 24548 min
Histogram: 1 0 8 12 14 9 8 5 1 2

Total # of neighbors = 1686302
Ave neighs/atom = 369.803
Ave special neighs/atom = 10.6316
Neighbor list builds = 2178
Dangerous builds = 0
System init for write_data ...
PPPM initialization ...
  G vector (1/distance) = 0.246499
  grid = 16 16 20
  stencil order = 5
  estimated absolute RMS force accuracy = 0.00242397
  estimated relative force accuracy = 7.2997e-06
  using double precision FFTs
  3d grid and FFT values/proc = 1053 112
