LAMMPS data file via write_data, version 15 May 2015, timestep = 23005000

2611 atoms
6 atom types
1749 bonds
4 bond types
894 angles
3 angle types
44 dihedrals
3 dihedral types
10 impropers
1 improper types

-1.4924256340466952e+01 1.4924256340466952e+01 xlo xhi
-1.4924256340466952e+01 1.4924256340466952e+01 ylo yhi
-1.4924256340466952e+01 1.4924256340466952e+01 zlo zhi

Masses

1 15.9994
2 1.00794
3 12.0107
4 1.00794
5 12.0107
6 12.0107

Bond Coeffs # harmonic

1 1000 1
2 469 1.4
3 367 1.08
4 469 0.7

Angle Coeffs # harmonic

1 100 109.47
2 35 120
3 63 120

Dihedral Coeffs # opls

1 0 7.25 0 0
2 0 7.25 0 0
3 0 7.25 0 0

Improper Coeffs # cvff

1 2.5 -1 2

Atoms # full

2383 795 1 -8.1999999999999995e-01 -1.1376290906988700e+01 -5.8421799855523773e+00 -1.0867099179551847e+01 7 4 3
2385 795 2 4.0999999999999998e-01 -1.0621715635636207e+01 -5.9519829048188377e+00 -1.0220167623196620e+01 7 4 3
2493 831 2 4.0999999999999998e-01 -1.1716176308027968e+01 -9.8800143559357192e+00 -9.9985615128849012e+00 4 1 -1
2491 831 1 -8.1999999999999995e-01 -1.0943426780435789e+01 -1.0358677532940781e+01 -9.5817873128481050e+00 4 1 -1
93 31 2 4.0999999999999998e-01 -1.3712555402455369e+01 -1.0117095549203142e+01 -1.1286600984044675e+01 3 0 7
1519 507 1 -8.1999999999999995e-01 -1.4076147357292829e+01 -5.8613339643141416e+00 -1.4349656808324962e+01 -1 2 -1
636 212 2 4.0999999999999998e-01 -1.2649854030569337e+01 -8.5564093970662825e+00 -1.2276374936710065e+01 7 1 1
886 296 1 -8.1999999999999995e-01 -1.4165313373672483e+01 -5.7452114339905087e+00 -9.6964080780050779e+00 -2 6 4
634 212 1 -8.1999999999999995e-01 -1.2511521828844538e+01 -8.5062741770381507e+00 -1.1287278569216603e+01 7 1 1
1492 498 1 -8.1999999999999995e-01 -1.3207803513395493e+01 -8.5838434505612593e+00 -1.4301514871666674e+01 7 4 4
635 212 2 4.0999999999999998e-01 -1.1879923571648284e+01 -7.7602195937240106e+00 -1.1076453571213875e+01 7 1 1
1493 498 2 4.0999999999999998e-01 -1.3736425579518652e+01 -7.7531123832046953e+00 -1.4127142872347610e+01 7 4 4
1715 572 2 4.0999999999999998e-01 -9.9707869671989062e+00 -1.1148404573203260e+01 -1.4537372321197358e+01 4 1 -2
888 296 2 4.0999999999999998e-01 -1.3204598324431631e+01 -5.7571873591150062e+00 -9.9736158609817700e+00 -2 6 4
1494 498 2 4.0999999999999998e-01 -1.3795889802181451e+01 -9.3839965034752630e+00 -1.4183741315798699e+01 7 4 4
1714 572 1 -8.1999999999999995e-01 -9.9582530150198423e+00 -1.1241330853461241e+01 -1.3541797796925982e+01 4 1 -2
1754 585 2 4.0999999999999998e-01 -1.2318526429741279e+01 -1.2072443056572268e+01 -1.1514196323056659e+01 5 1 2
1755 585 2 4.0999999999999998e-01 -1.1088653784977916e+01 -1.2061032500179056e+01 -1.2588349693823023e+01 5 1 2
1753 585 1 -8.1999999999999995e-01 -1.1690945109171526e+01 -1.2643886640672289e+01 -1.2042925813294797e+01 5 1 2
1716 572 2 4.0999999999999998e-01 -9.6587123618214807e+00 -1.0380505830031190e+01 -1.3130438258512298e+01 4 1 -2
887 296 2 4.0999999999999998e-01 -1.4649907209169236e+01 -5.0330328361799666e+00 -1.0204277580444217e+01 -2 6 4
2156 719 2 4.0999999999999998e-01 -1.2460036086119640e+01 -1.4179241424270137e+01 -1.1569217411627877e+01 4 2 7
614 205 2 4.0999999999999998e-01 -9.3813779848927581e+00 -7.3803810914308619e+00 -8.7374607393960790e+00 0 2 -1
942 314 2 4.0999999999999998e-01 -9.1322807189195618e+00 -1.3034401051747743e+01 -8.9228082183085355e+00 -2 3 0
557 186 2 4.0999999999999998e-01 -1.2070599361650688e+01 -1.3882123668385953e+01 -1.4205182907992391e+01 1 3 4
92 31 2 4.0999999999999998e-01 -1.4127577056890475e+01 -1.1265909841978868e+01 -1.0202855107907693e+01 3 0 7
27 9 2 4.0999999999999998e-01 -1.2935096607257602e+01 -7.6789610710278771e+00 -8.4297297524859474e+00 1 -1 2
2384 795 2 4.0999999999999998e-01 -1.1012871230746009e+01 -5.5853231261259833e+00 -1.1762594375003477e+01 7 4 3
940 314 1 -8.1999999999999995e-01 -8.1644223007720171e+00 -1.2807940591043803e+01 -9.0320178490858716e+00 -2 3 0
613 205 1 -8.1999999999999995e-01 -9.5326902256164914e+00 -6.4063811917569407e+00 -8.9059533739570256e+00 0 2 -1
1479 493 2 4.0999999999999998e-01 -8.7131919726366185e+00 -1.2339675349517091e+01 -1.2453160894952145e+01 3 1 -2
658 220 1 -8.1999999999999995e-01 -1.0531119096784744e+01 -1.3994774087384039e+01 -8.7776797137164042e+00 2 2 -4
425 142 2 4.0999999999999998e-01 -1.0945323506633272e+01 -5.4148317893672058e+00 -1.4435780427810634e+01 2 -8 6
2492 831 2 4.0999999999999998e-01 -1.1283835466660248e+01 -1.1090241176755528e+01 -8.9911118248823385e+00 4 1 -1
2199 733 2 4.0999999999999998e-01 -1.1311882044620114e+01 -8.0451757597234703e+00 -1.4827642073871479e+01 -1 -3 2
941 314 2 4.0999999999999998e-01 -7.8024878328865084e+00 -1.2464999178135532e+01 -8.1652101407150752e+00 -2 3 0
1477 493 1 -8.1999999999999995e-01 -8.4168547401220195e+00 -1.3130628067951539e+01 -1.1917867510164738e+01 3 1 -2
421 141 1 -8.1999999999999995e-01 -1.4211439569308567e+01 -1.1111720764490613e+01 -1.3758683921050251e+01 -4 -1 0
1642 548 1 -8.1999999999999995e-01 -8.4419631949251297e+00 -7.6567755525768408e+00 -1.4013950025578133e+01 -5 -2 -2
424 142 1 -8.1999999999999995e-01 -1.0524642140151331e+01 -5.0632640797701018e+00 -1.3599486033699192e+01 2 -8 6
91 31 1 -8.1999999999999995e-01 -1.3791838994947403e+01 -1.1101605800003908e+01 -1.1130349107409639e+01 3 0 7
1643 548 2 4.0999999999999998e-01 -8.6022399038540378e+00 -8.2527569839244386e+00 -1.3227134594657727e+01 -5 -2 -2
1478 493 2 4.0999999999999998e-01 -8.7809234205207147e+00 -1.3059928171660381e+01 -1.0989203691879649e+01 3 1 -2
624 208 2 4.0999999999999998e-01 -1.2444342298103045e+01 -1.2697490836321787e+01 -7.7201220435749827e+00 2 0 2
2196 732 2 4.0999999999999998e-01 -8.7850840394929754e+00 -9.3064095311149604e+00 -1.0971549046819234e+01 4 4 0
622 208 1 -8.1999999999999995e-01 -1.2472774849159082e+01 -1.1697915591245186e+01 -7.7214942798207096e+00 2 0 2
660 220 2 4.0999999999999998e-01 -1.1174419480805106e+01 -1.4229816893778006e+01 -9.5062951612036493e+00 2 2 -4
2155 719 1 -8.1999999999999995e-01 -1.2833659732824316e+01 -1.4897751701259368e+01 -1.0982609084258286e+01 4 2 7
1091 364 2 4.0999999999999998e-01 -7.7172740419752293e+00 -5.8057074731525926e+00 -1.3100728412441850e+01 -1 -1 3
2194 732 1 -8.1999999999999995e-01 -8.5207508358250994e+00 -9.3998623124415488e+00 -1.1931421689379679e+01 4 4 0
1520 507 2 4.0999999999999998e-01 -1.4256997016561378e+01 -5.1487195491586100e+00 -1.3671840421972149e+01 -1 2 -1
623 208 2 4.0999999999999998e-01 -1.3415068909636293e+01 -1.1391461792795102e+01 -7.8561380929895135e+00 2 0 2
803 268 2 4.0999999999999998e-01 -8.2408274102859735e+00 -1.0225185861928477e+01 -7.5114734552547366e+00 4 -1 0
2195 732 2 4.0999999999999998e-01 -7.5568652368846099e+00 -9.1554526749548835e+00 -1.2037012778580625e+01 4 4 0
422 141 2 4.0999999999999998e-01 -1.3824348997606092e+01 -1.1820477012246020e+01 -1.4348418122614138e+01 -4 -1 0
556 186 1 -8.1999999999999995e-01 -1.1375177676587404e+01 -1.4400309086619529e+01 -1.4703011698827227e+01 1 3 4
659 220 2 4.0999999999999998e-01 -1.0316267704373267e+01 -1.4813808988682107e+01 -8.2457194282116273e+00 2 2 -4
25 9 1 -8.1999999999999995e-01 -1.2276113110873402e+01 -8.0376368960258375e+00 -7.7686296392698244e+00 1 -1 2
1366 456 1 -8.1999999999999995e-01 -1.3374949884225986e+01 -1.4415898480383946e+01 -8.3665263851709568e+00 -1 4 6
804 268 2 4.0999999999999998e-01 -9.2755771161860192e+00 -9.7608755112987993e+00 -8.6863059508935301e+00 4 -1 0
423 141 2 4.0999999999999998e-01 -1.4042621747296428e+01 -1.1345887821762268e+01 -1.2801277375044700e+01 -4 -1 0
1644 548 2 4.0999999999999998e-01 -9.3188816011108706e+00 -7.3488713088328623e+00 -1.4382962333389655e+01 -5 -2 -2
802 268 1 -8.1999999999999995e-01 -8.9070806669180236e+00 -9.5316247873604141e+00 -7.7854089348153526e+00 4 -1 0
615 205 2 4.0999999999999998e-01 -8.8261502293871921e+00 -5.8738126035451383e+00 -8.4399781498484554e+00 0 2 -1
26 9 2 4.0999999999999998e-01 -1.2003091430035454e+01 -8.9612268696483284e+00 -8.0377052766901063e+00 1 -1 2
885 295 2 4.0999999999999998e-01 -9.0841838193916757e+00 -1.4903875416945411e+01 -1.2472862577961868e+01 0 5 2
1955 652 2 4.0999999999999998e-01 -8.0434398077371991e+00 -5.0875012874486423e+00 -9.9619222924426225e+00 -1 5 -4
1367 456 2 4.0999999999999998e-01 -1.3465602188285864e+01 -1.4552376942432833e+01 -9.3529931919134857e+00 -1 4 6
558 186 2 4.0999999999999998e-01 -1.0789197102421710e+01 -1.4882641390491608e+01 -1.4051902404552813e+01 1 3 4
128 43 2 4.0999999999999998e-01 -3.4033051201292572e+00 -1.0131350407087192e+01 -1.3703539377240780e+01 2 -1 9
207 69 2 4.0999999999999998e-01 -6.2665654256538161e+00 -1.1373190794846854e+01 -1.4716415835546629e+01 -1 1 -1
1822 608 1 -8.1999999999999995e-01 -4.5934596714374720e+00 -1.1904056915426256e+01 -1.4069874631759548e+01 -3 6 -3
1558 520 1 -8.1999999999999995e-01 -4.8597468521526608e+00 -1.4827690090790925e+01 -8.1133691946509661e+00 8 2 -6
652 218 1 -8.1999999999999995e-01 -3.2633770371235151e+00 -1.0340995501701883e+01 -9.3045253134877139e+00 1 6 2
1280 427 2 4.0999999999999998e-01 -9.1162843750622180e-01 -1.1215993593038789e+01 -1.1543303614516393e+01 -3 2 -1
1072 358 1 -8.1999999999999995e-01 -4.5248591495923005e+00 -1.2048745987379892e+01 -7.5977970707502847e+00 -1 7 4
816 272 2 4.0999999999999998e-01 -4.4744734424474721e+00 -5.3359593200684348e+00 -8.3453570393920522e+00 0 -3 2
1851 617 2 4.0999999999999998e-01 -4.1810826411906810e+00 -6.5808773501056805e+00 -1.2423897676106680e+01 2 8 4
348 116 2 4.0999999999999998e-01 -1.4012550789757228e+00 -1.4279448258967660e+01 -1.4491196646267317e+01 1 1 4
2148 716 2 4.0999999999999998e-01 -3.0890201082979338e+00 -1.4439118395496964e+01 -1.1146335539693101e+01 4 9 1
1495 499 1 -8.1999999999999995e-01 -5.0319722529039037e+00 -8.3287436208821362e+00 -8.7020888619028902e+00 4 5 6
1622 541 2 4.0999999999999998e-01 -5.7334116291835002e-01 -7.3403422193201466e+00 -1.0941300200382249e+01 4 8 6
1389 463 2 4.0999999999999998e-01 -3.7679303727495927e-01 -5.5722863604198789e+00 -9.6119316381660749e+00 -4 0 5
989 330 2 4.0999999999999998e-01 -5.3996762910712182e+00 -8.3643524436258048e+00 -1.2049475644378672e+01 5 1 8
1279 427 1 -8.1999999999999995e-01 -6.7382241524259712e-01 -1.0466717292702578e+01 -1.0925246740880930e+01 -3 2 -1
1623 541 2 4.0999999999999998e-01 -9.6846350999059361e-01 -8.6449982223596731e+00 -1.1840340517996813e+01 4 8 6
1140 380 2 4.0999999999999998e-01 -7.0768606205225293e+00 -1.1971221292887002e+01 -1.0236271397408212e+01 4 2 0
1309 437 1 -8.1999999999999995e-01 -1.8859693857536719e-01 -7.6751357616121281e+00 -7.7694628865582835e+00 4 7 0
1560 520 2 4.0999999999999998e-01 -5.0891715001821840e+00 -1.3877891594013363e+01 -7.9007471521605481e+00 8 2 -6
654 218 2 4.0999999999999998e-01 -3.7896522280616303e+00 -9.4934597257382691e+00 -9.3729248224735038e+00 1 6 2
1849 617 1 -8.1999999999999995e-01 -3.6840244725387432e+00 -7.4067146886530653e+00 -1.2690143512160923e+01 2 8 4
645 215 2 4.0999999999999998e-01 -6.7693516405865388e+00 -1.3358942104098531e+01 -1.2386036080014957e+01 1 -1 0
346 116 1 -8.1999999999999995e-01 -1.0560236972218302e+00 -1.4848059075800384e+01 -1.3744565544409413e+01 1 1 4
1850 617 2 4.0999999999999998e-01 -2.8476940866503071e+00 -7.4819911513046709e+00 -1.2147146315718089e+01 2 8 4
1710 570 2 4.0999999999999998e-01 -4.3610110809252838e+00 -1.4044372646353235e+01 -9.6840745383354232e+00 2 2 8
54 18 2 4.0999999999999998e-01 -6.4717353026105666e+00 -1.4721422911800362e+01 -1.3830087366407241e+01 5 6 8
2107 703 1 -8.1999999999999995e-01 -5.5778594102396717e-01 -1.1886161776192781e+01 -1.3234993537976289e+01 8 10 2
1708 570 1 -8.1999999999999995e-01 -4.2278978993313370e+00 -1.3405117791335838e+01 -1.0441435147652404e+01 2 2 8
653 218 2 4.0999999999999998e-01 -2.5298585527029118e+00 -1.0333623558836496e+01 -9.9841261301095638e+00 1 6 2
1709 570 2 4.0999999999999998e-01 -4.8220825076985818e+00 -1.2610741421855673e+01 -1.0315451669712509e+01 2 2 8
814 272 1 -8.1999999999999995e-01 -4.6493743516818569e+00 -5.6569543281465062e+00 -9.2761271014633149e+00 0 -3 2
1956 652 2 4.0999999999999998e-01 -6.5629041014940253e+00 -5.1240148996570003e+00 -1.0649820004532987e+01 -1 5 -4
643 215 1 -8.1999999999999995e-01 -5.8981558017114963e+00 -1.3818114708710722e+01 -1.2559642833013688e+01 1 -1 0
990 330 2 4.0999999999999998e-01 -5.8356722708209858e+00 -8.6426705962598955e+00 -1.0500615110759199e+01 5 1 8
2439 813 2 4.0999999999999998e-01 -1.5706174367892967e+00 -1.2157721776479626e+01 -1.4596736051283992e+01 -3 -2 4
1621 541 1 -8.1999999999999995e-01 -1.2678295405993563e+00 -7.7393946916841774e+00 -1.1539968734160633e+01 4 8 6
1074 358 2 4.0999999999999998e-01 -4.2169938677630103e+00 -1.1277721909147884e+01 -8.1552034086816079e+00 -1 7 4
1823 608 2 4.0999999999999998e-01 -4.9435875818745796e+00 -1.2705206543509465e+01 -1.3584559558473856e+01 -3 6 -3
1497 499 2 4.0999999999999998e-01 -4.7925631194382827e+00 -7.3991124116637339e+00 -8.9821425463424696e+00 4 5 6
644 215 2 4.0999999999999998e-01 -5.2801122845923256e+00 -1.3662717422207253e+01 -1.1789036013000013e+01 1 -1 0
129 43 2 4.0999999999999998e-01 -2.9137331560513111e+00 -8.5740070260094114e+00 -1.3742569178681226e+01 2 -1 9
1138 380 1 -8.1999999999999995e-01 -6.1991846320954860e+00 -1.1545701434404696e+01 -1.0456677122272060e+01 4 2 0
988 330 1 -8.1999999999999995e-01 -6.0473196865987777e+00 -8.8435078598613188e+00 -1.1457082963257825e+01 5 1 8
1139 380 2 4.0999999999999998e-01 -6.3544211801863941e+00 -1.0617850242741905e+01 -1.0795726867860196e+01 4 2 0
1090 364 1 -8.1999999999999995e-01 -7.2456315922160242e+00 -4.9883319847173162e+00 -1.3431502751564345e+01 -1 -1 3
127 43 1 -8.1999999999999995e-01 -2.7663606253234239e+00 -9.4860386710149989e+00 -1.4125244787979904e+01 2 -1 9
1824 608 2 4.0999999999999998e-01 -3.6435859760202796e+00 -1.2065346521045264e+01 -1.4337618222628807e+01 -3 6 -3
476 159 2 4.0999999999999998e-01 -1.5654874718929968e-01 -6.6636459052309043e+00 -1.2887357237987878e+01 -6 2 5
566 189 2 4.0999999999999998e-01 -1.7195065577049569e+00 -1.1256354422374788e+01 -8.6662808930530417e+00 5 -1 -2
1496 499 2 4.0999999999999998e-01 -5.2217588749789758e+00 -8.3426555164424787e+00 -7.7203819573644816e+00 4 5 6
565 189 1 -8.1999999999999995e-01 -1.4516351565444978e+00 -1.1865168296495934e+01 -7.9195871612697051e+00 5 -1 -2
2108 703 2 4.0999999999999998e-01 -1.0866866496897210e-01 -1.1011450435605461e+01 -1.3417022943391919e+01 8 10 2
347 116 2 4.0999999999999998e-01 -1.5794167961400447e+00 -1.4660585889657828e+01 -1.2913376972290637e+01 1 1 4
567 189 2 4.0999999999999998e-01 -2.2303015888477713e+00 -1.2436059867932615e+01 -7.6593519671311769e+00 5 -1 -2
1310 437 2 4.0999999999999998e-01 -1.1701018289314860e+00 -7.5773522549122445e+00 -7.6050016523996149e+00 4 7 0
206 69 2 4.0999999999999998e-01 -6.7381031579071902e+00 -9.8228727496436594e+00 -1.4918130202225390e+01 -1 1 -1
994 332 1 -8.1999999999999995e-01 -1.1215088970711083e+01 -1.3271061729214296e+01 -5.0407082666029766e+00 3 4 2
996 332 2 4.0999999999999998e-01 -1.1243553395748243e+01 -1.3544314637756832e+01 -6.0022089556335025e+00 3 4 2
995 332 2 4.0999999999999998e-01 -1.1017752095433522e+01 -1.2292757915343159e+01 -4.9779326717991115e+00 3 4 2
343 115 1 -8.1999999999999995e-01 -1.0533053666221438e+01 -1.0829294273781755e+01 -5.9627068891040480e-01 -2 2 2
2591 864 2 4.0999999999999998e-01 -1.1963334361235576e+01 -1.2038684943075136e+01 -3.2723464924600041e+00 2 7 0
2590 864 1 -8.1999999999999995e-01 -1.2491303957773205e+01 -1.2193795209273084e+01 -2.4373914829073922e+00 2 7 0
2041 681 1 -8.1999999999999995e-01 -1.4242116707817875e+01 -9.1505314615311306e+00 -5.7851152177106400e+00 1 2 2
2043 681 2 4.0999999999999998e-01 -1.3678794103717022e+01 -8.6879641124232325e+00 -6.4697027209541513e+00 1 2 2
2592 864 2 4.0999999999999998e-01 -1.1913358941371531e+01 -1.2018993211214656e+01 -1.6402812149044870e+00 2 7 0
1081 361 1 -8.1999999999999995e-01 -1.4866628063077714e+01 -1.3763526198078187e+01 -2.7355007422634188e+00 -2 4 4
345 115 2 4.0999999999999998e-01 -9.6827374917655433e+00 -1.0453764020285266e+01 -9.6491742431006600e-01 -2 2 2
1082 361 2 4.0999999999999998e-01 -1.4147992980630859e+01 -1.3103646208293165e+01 -2.5162224015791921e+00 -2 4 4
918 306 2 4.0999999999999998e-01 -1.2414093971631608e+01 -7.0076306966697945e+00 -4.1620801627501134e+00 -2 2 1
1237 413 1 -8.1999999999999995e-01 -1.3731844349032983e+01 -5.4987426219975450e+00 -1.7259324700379075e+00 1 6 2
1317 439 2 4.0999999999999998e-01 -9.5569025583680105e+00 -1.3819938729595169e+01 -4.0522061058616288e+00 2 2 1
222 74 2 4.0999999999999998e-01 -8.2571803933585919e+00 -1.0729277934760615e+01 -3.9216941123272964e+00 7 2 3
2242 748 1 -8.1999999999999995e-01 -8.7915116421780120e+00 -8.2690420449186970e+00 -5.1643194414263629e+00 -3 6 -1
2083 695 1 -8.1999999999999995e-01 -9.8206680129481789e+00 -5.0775422159660177e+00 -2.2601667950730384e+00 0 4 4
917 306 2 4.0999999999999998e-01 -1.3845705664283695e+01 -7.7429708181062074e+00 -4.4382781949683281e+00 -2 2 1
2290 764 1 -8.1999999999999995e-01 -8.3658718740175644e+00 -9.5155509796910067e+00 -2.2390617659593790e+00 4 7 2
1083 361 2 4.0999999999999998e-01 -1.4450566483915425e+01 -1.4625418022034014e+01 -3.0253217963593215e+00 -2 4 4
832 278 1 -8.1999999999999995e-01 -1.1645877145938398e+01 -1.4875373323129057e+01 -1.2446429055355992e+00 -1 5 3
907 303 1 -8.1999999999999995e-01 -1.0866575834759232e+01 -6.8224470844144776e+00 -4.4616776994950165e+00 1 4 -2
909 303 2 4.0999999999999998e-01 -1.1112551938479704e+01 -6.4418269259765211e+00 -5.3530726951209768e+00 1 4 -2
220 74 1 -8.1999999999999995e-01 -7.7343034301440605e+00 -1.1427459765238691e+01 -4.4106754688644294e+00 7 2 3
834 278 2 4.0999999999999998e-01 -1.2272976835512655e+01 -1.4543014042806444e+01 -5.4019683828202147e-01 -1 5 3
2005 669 1 -8.1999999999999995e-01 -1.2008484710278168e+01 -5.4484802296638133e+00 -6.5569942400668850e+00 3 3 3
916 306 1 -8.1999999999999995e-01 -1.3399350871210757e+01 -6.9647491424492918e+00 -3.9965775971527577e+00 -2 2 1
2243 748 2 4.0999999999999998e-01 -8.7294907885621704e+00 -8.5422161190199475e+00 -6.1242623067716107e+00 -3 6 -1
908 303 2 4.0999999999999998e-01 -1.0126129076252013e+01 -7.4849168419467036e+00 -4.5749622979278382e+00 1 4 -2
1890 630 2 4.0999999999999998e-01 -1.4137912911412419e+01 -1.1240981485944639e+01 -3.0186615250406259e+00 3 -2 6
2292 764 2 4.0999999999999998e-01 -8.4284794055253869e+00 -8.5394412233003134e+00 -2.0310930124507482e+00 4 7 2
1794 598 2 4.0999999999999998e-01 -8.4068833720576386e+00 -6.0714352881875584e+00 -2.2804574868652683e+00 -4 -4 1
2006 669 2 4.0999999999999998e-01 -1.1948626938047180e+01 -6.2676326290174966e+00 -7.1274040907804954e+00 3 3 3
1214 405 2 4.0999999999999998e-01 -1.2743602651231143e+01 -8.7460342026652604e+00 -3.7488583058548386e-01 0 -1 4
2244 748 2 4.0999999999999998e-01 -8.2205825931337415e+00 -8.8730903954987284e+00 -4.6083279259895562e+00 -3 6 -1
1792 598 1 -8.1999999999999995e-01 -7.5271008511206254e+00 -6.5454675660960397e+00 -2.2452841024931747e+00 -4 -4 1
1239 413 2 4.0999999999999998e-01 -1.3538774941835248e+01 -6.0384203278066266e+00 -2.5453427791916763e+00 1 6 2
1238 413 2 4.0999999999999998e-01 -1.4265518858442718e+01 -6.0481673445764628e+00 -1.0830600333574321e+00 1 6 2
1316 439 2 4.0999999999999998e-01 -8.2216208730146736e+00 -1.4755888392772901e+01 -4.1390589180120827e+00 2 2 1
1315 439 1 -8.1999999999999995e-01 -8.5857508578365653e+00 -1.3880335756347090e+01 -3.8216035747127570e+00 2 2 1
221 74 2 4.0999999999999998e-01 -8.0192823633546144e+00 -1.2334760841735671e+01 -4.1015594000174573e+00 7 2 3
2268 756 2 4.0999999999999998e-01 -1.0588091968173813e+01 -9.6820800972883632e+00 -5.7081743727126817e+00 2 1 2
1889 630 2 4.0999999999999998e-01 -1.4516530179761371e+01 -1.0229869904168766e+01 -4.2437430314349776e+00 3 -2 6
2291 764 2 4.0999999999999998e-01 -7.6697799477741881e+00 -9.9363000387911029e+00 -1.6573511472242402e+00 4 7 2
280 94 1 -8.1999999999999995e-01 -1.4039201592969770e+01 -9.3143862870085030e+00 -1.4051959482173881e+00 2 2 2
2085 695 2 4.0999999999999998e-01 -1.0549896706064285e+01 -5.4985971012083361e+00 -2.7995175757842627e+00 0 4 4
833 278 2 4.0999999999999998e-01 -1.2100553409826732e+01 -1.4849180907837106e+01 -2.1348925476415239e+00 -1 5 3
282 94 2 4.0999999999999998e-01 -1.4774939514069818e+01 -8.6599015483408941e+00 -1.2311258291817015e+00 2 2 2
281 94 2 4.0999999999999998e-01 -1.3994284805208757e+01 -9.5127481518624144e+00 -2.3842751086523837e+00 2 2 2
344 115 2 4.0999999999999998e-01 -1.1199792279748980e+01 -1.0093132939285365e+01 -4.8013660049633522e-01 -2 2 2
2267 756 2 4.0999999999999998e-01 -1.1629716812467610e+01 -1.0762141729628386e+01 -6.3523847071111099e+00 2 1 2
1888 630 1 -8.1999999999999995e-01 -1.4872898985488034e+01 -1.0712894602501034e+01 -3.4439621991718656e+00 3 -2 6
2534 845 2 4.0999999999999998e-01 -1.4418214994219582e+01 -1.0922136762832217e+01 -4.4666447079241678e-01 -2 4 -2
2266 756 1 -8.1999999999999995e-01 -1.0978537984144790e+01 -1.0597598753072271e+01 -5.6115387334533970e+00 2 1 2
6 2 2 4.0999999999999998e-01 -8.1374836701574473e+00 -1.3787356153795061e+01 -5.9185281549504332e-01 6 8 4
1258 420 1 -8.1999999999999995e-01 -4.4672412158541537e+00 -5.1092530688641897e+00 -6.7065129658241016e+00 -2 4 1
1793 598 2 4.0999999999999998e-01 -6.9794303263550921e+00 -6.1764173674971694e+00 -1.4944046817044701e+00 -4 -4 1
997 333 1 -8.1999999999999995e-01 -5.1218634071219604e+00 -7.6059879522022502e+00 -3.2275904239288788e+00 6 5 6
741 247 2 4.0999999999999998e-01 -2.9569372747897926e+00 -5.3380681877371359e+00 -2.2435934983583721e+00 8 5 4
2474 825 2 4.0999999999999998e-01 -4.6954693174042710e+00 -8.9050340201348774e+00 -4.3548020361384410e-01 4 3 3
2190 730 2 4.0999999999999998e-01 -3.2219923108646249e+00 -6.5841084764800080e+00 -7.0904480773780731e+00 -3 -3 3
1974 658 2 4.0999999999999998e-01 -5.7736911868354923e+00 -7.0516861580422967e+00 -4.8471384881280617e+00 4 6 3
974 325 2 4.0999999999999998e-01 -1.9419451319347125e+00 -1.0130942518954615e+01 -5.1483504320073177e+00 0 5 -3
801 267 2 4.0999999999999998e-01 -3.2437653750218587e-01 -1.0720104349291654e+01 -7.2079431902772040e+00 -1 0 -5
1175 392 2 4.0999999999999998e-01 -6.6813218834283994e-01 -5.9305287149827617e+00 -6.3910946878340429e+00 3 0 3
1174 392 1 -8.1999999999999995e-01 -2.0376309169533435e-01 -5.3210098154986571e+00 -5.7485924821266945e+00 3 0 3
1073 358 2 4.0999999999999998e-01 -3.7981044860094588e+00 -1.2312814148058241e+01 -6.9637177079235482e+00 -1 7 4
1009 337 1 -8.1999999999999995e-01 -2.0308228310081553e+00 -1.3198283772067830e+01 -5.8249388309225480e-01 2 2 7
973 325 1 -8.1999999999999995e-01 -1.8240877675247642e+00 -1.0239952128108126e+01 -4.1613410500097192e+00 0 5 -3
975 325 2 4.0999999999999998e-01 -1.0946179656896575e+00 -9.6341195990019539e+00 -3.8438481925198964e+00 0 5 -3
1077 359 2 4.0999999999999998e-01 -6.1115775010434312e+00 -1.1605734875068400e+01 -7.3295660754036209e+00 -3 3 2
1218 406 2 4.0999999999999998e-01 -4.6968294899928331e-01 -1.3715858046309428e+01 -3.6983473062956538e+00 0 4 6
295 99 1 -8.1999999999999995e-01 -4.9301123600783594e+00 -1.1390831235591198e+01 -3.8358412225083658e+00 3 5 2
1973 658 2 4.0999999999999998e-01 -7.2714827382850551e+00 -7.3236096657416185e+00 -5.4380703335582936e+00 4 6 3
1657 553 1 -8.1999999999999995e-01 -2.2694271484716264e+00 -1.2841721070370316e+01 -3.2896702503152362e+00 0 4 -1
297 99 2 4.0999999999999998e-01 -4.6055807327358682e+00 -1.2274936861998333e+01 -3.4996903318157173e+00 3 5 2
1972 658 1 -8.1999999999999995e-01 -6.3817258221083613e+00 -6.9086283996200493e+00 -5.6280285860048043e+00 4 6 3
1314 438 2 4.0999999999999998e-01 -4.4047039245966637e+00 -8.6500603789076926e+00 -4.9890118401652472e+00 4 2 -2
739 247 1 -8.1999999999999995e-01 -3.9528284099489905e+00 -5.3366500241938954e+00 -2.1532619008790590e+00 8 5 4
1658 553 2 4.0999999999999998e-01 -2.2569597521224960e+00 -1.1906105229012327e+01 -3.6424145764592755e+00 0 4 -1
2498 833 2 4.0999999999999998e-01 -5.7878276772069128e+00 -1.4460859024548132e+01 -1.5881214454609633e+00 -2 0 -3
1405 469 1 -8.1999999999999995e-01 -6.5228002135409238e+00 -1.1013012853410984e+01 -8.4549954838794861e-01 3 -1 5
326 109 2 4.0999999999999998e-01 -4.3365843374051849e-01 -9.9925255361957319e+00 -1.3086880090504280e+00 7 4 3
1659 553 2 4.0999999999999998e-01 -2.3426185097524730e+00 -1.2821062885061581e+01 -2.2925858733845246e+00 0 4 -1
1406 469 2 4.0999999999999998e-01 -6.3521921673347510e+00 -1.1965162961572322e+01 -1.0990030357005036e+00 3 -1 5
998 333 2 4.0999999999999998e-01 -4.6585218250998004e+00 -8.3475393948697683e+00 -2.7424337444056945e+00 6 5 6
1407 469 2 4.0999999999999998e-01 -5.8506961995389375e+00 -1.0724034598302564e+01 -1.6378940842334977e-01 3 -1 5
1075 359 1 -8.1999999999999995e-01 -7.0697595908997659e+00 -1.1463865297885992e+01 -7.0811287661590603e+00 -3 3 2
2188 730 1 -8.1999999999999995e-01 -2.7659571959312697e+00 -7.3879844056526531e+00 -6.7086412906401929e+00 -3 -3 3
1313 438 2 4.0999999999999998e-01 -4.5825316824644915e+00 -1.0236060700210841e+01 -5.3347033966485533e+00 4 2 -2
1312 438 1 -8.1999999999999995e-01 -4.5115772099265605e+00 -9.3182439838198334e+00 -5.7252656917158617e+00 4 2 -2
325 109 1 -8.1999999999999995e-01 -9.5059682061873296e-01 -9.2220396706071099e+00 -1.6816319575974106e+00 7 4 3
1259 420 2 4.0999999999999998e-01 -5.2458784875324831e+00 -5.7342197621513780e+00 -6.6508204891774891e+00 -2 4 1
2499 833 2 4.0999999999999998e-01 -6.4470286970119659e+00 -1.4002399556496142e+01 -3.0100185317736408e+00 -2 0 -3
2189 730 2 4.0999999999999998e-01 -3.3194833735145206e+00 -8.2014242844745322e+00 -6.8872057943245704e+00 -3 -3 3
999 333 2 4.0999999999999998e-01 -6.0339544970085015e+00 -7.4727776236196917e+00 -2.8398974908129890e+00 6 5 6
1076 359 2 4.0999999999999998e-01 -7.2117910775965468e+00 -1.1738914246749609e+01 -6.1302680482019500e+00 -3 3 2
327 109 2 4.0999999999999998e-01 -1.0983478270546243e+00 -8.5413109280406143e+00 -9.6417882868927052e-01 7 4 3
1228 410 1 -8.1999999999999995e-01 -3.7087162673281036e+00 -9.5135802855281142e+00 -1.9879301581583153e+00 2 -2 5
2497 833 1 -8.1999999999999995e-01 -5.9961768502725175e+00 -1.3680393290290073e+01 -2.1775489916236541e+00 -2 0 -3
1229 410 2 4.0999999999999998e-01 -2.7556741846870825e+00 -9.5192407455068313e+00 -2.2906507214623257e+00 2 -2 5
1806 602 2 4.0999999999999998e-01 -2.6389521476771343e+00 -1.3292455773253993e+01 -4.8341721874632153e+00 4 5 -3
1096 366 1 -8.1999999999999995e-01 -1.2885911028552197e+00 -5.1407952380559330e+00 -2.9257117642653867e+00 1 3 -2
1805 602 2 4.0999999999999998e-01 -2.8575405768547171e+00 -1.4342919076187284e+01 -6.0651345356451376e+00 4 5 -3
1230 410 2 4.0999999999999998e-01 -4.2082715995217903e+00 -1.0248886488868189e+01 -2.4458933116995674e+00 2 -2 5
296 99 2 4.0999999999999998e-01 -5.9277566549738214e+00 -1.1357397599356551e+01 -3.7762675080222152e+00 3 5 2
1804 602 1 -8.1999999999999995e-01 -2.8985800069135923e+00 -1.3380763410760874e+01 -5.7958146022002257e+00 4 5 -3
740 247 2 4.0999999999999998e-01 -4.3248950350199475e+00 -6.1746628550545495e+00 -2.5523381933230009e+00 8 5 4
1098 366 2 4.0999999999999998e-01 -5.3317953617814418e-01 -5.6226295519837421e+00 -2.4816959885738150e+00 1 3 -2
1097 366 2 4.0999999999999998e-01 -1.1837990317005573e+00 -5.1995886029036242e+00 -3.9184468339483978e+00 1 3 -2
1329 443 2 4.0999999999999998e-01 -7.3761992359005895e+00 -5.2500681347365621e+00 -6.6263541173221583e+00 2 -1 0
1010 337 2 4.0999999999999998e-01 -2.9920573775618156e+00 -1.3165047366814957e+01 -3.0884363145603189e-01 2 2 7
2411 804 2 4.0999999999999998e-01 -1.1304914216523793e+01 -1.3545680134928087e+01 7.8206591070277831e-01 0 0 1
1836 612 2 4.0999999999999998e-01 -9.0429841668293562e+00 -1.3103463697382356e+01 3.8923935106760670e+00 7 1 10
1770 590 2 4.0999999999999998e-01 -9.9806880962920310e+00 -1.4857808111436913e+01 5.1429372607922641e+00 1 0 -1
1834 612 1 -8.1999999999999995e-01 -9.3254157623084275e+00 -1.2226691785076103e+01 3.5032092444587217e+00 7 1 10
2392 798 1 -8.1999999999999995e-01 -1.2207345014090734e+01 -9.3595422383373936e+00 3.3384428161821997e+00 2 1 4
1565 522 2 4.0999999999999998e-01 -1.2466801311809817e+01 -1.4419249450783358e+01 5.0803900730839597e+00 -4 7 1
2394 798 2 4.0999999999999998e-01 -1.1460889350639963e+01 -8.8260998833270463e+00 2.9406939332064734e+00 2 1 4
2393 798 2 4.0999999999999998e-01 -1.2591480930826908e+01 -8.8653451578319036e+00 4.1182952531246269e+00 2 1 4
2395 799 1 -8.1999999999999995e-01 -1.3147150905923887e+01 -7.7718418246959162e+00 5.3106657648929048e+00 2 4 9
1809 603 2 4.0999999999999998e-01 -1.0954968319599777e+01 -5.5578334530186932e+00 1.5290477042052029e+00 7 -1 -1
4 2 1 -8.1999999999999995e-01 -8.3632947716295725e+00 -1.4072232152377637e+01 3.3971358655983153e-01 6 8 4
1213 405 1 -8.1999999999999995e-01 -1.2109504221637746e+01 -8.5982309920010351e+00 3.8408344994296506e-01 0 -1 4
2533 845 1 -8.1999999999999995e-01 -1.4888234639872577e+01 -1.1428663568686668e+01 2.7615852725550916e-01 -2 4 -2
51 17 2 4.0999999999999998e-01 -8.3685091110803160e+00 -1.1372834153142310e+01 4.9552083578200605e+00 -3 2 3
50 17 2 4.0999999999999998e-01 -9.3507265352851263e+00 -1.0995555788636311e+01 6.2039806886562356e+00 -3 2 3
506 169 2 4.0999999999999998e-01 -1.4092790496025090e+01 -1.3055891666316981e+01 4.2417247676039160e-01 0 -6 -2
1835 612 2 4.0999999999999998e-01 -9.9311834813355375e+00 -1.2387548683823503e+01 2.7240228152909243e+00 7 1 10
1499 500 2 4.0999999999999998e-01 -1.2879045401317093e+01 -1.0883241663983897e+01 3.0517879448008909e+00 2 4 4
2410 804 1 -8.1999999999999995e-01 -1.0732008199874858e+01 -1.2839930456564341e+01 1.1987877474362403e+00 0 0 1
507 169 2 4.0999999999999998e-01 -1.3797834277775419e+01 -1.4625007661639255e+01 7.6680670319524147e-01 0 -6 -2
1768 590 1 -8.1999999999999995e-01 -9.2386457329659102e+00 -1.4787775360834660e+01 4.4762818028469535e+00 1 0 -1