LAMMPS data file via write_data, version 15 May 2015, timestep = 8008000

2611 atoms
6 atom types
1749 bonds
4 bond types
894 angles
3 angle types
44 dihedrals
3 dihedral types
10 impropers
1 improper types

-1.5066833327854356e+01 1.5066833327854356e+01 xlo xhi
-1.5066833327854356e+01 1.5066833327854356e+01 ylo yhi
-1.5066833327854356e+01 1.5066833327854356e+01 zlo zhi

Masses

1 15.9994
2 1.00794
3 12.0107
4 1.00794
5 12.0107
6 12.0107

Bond Coeffs # harmonic

1 1000 1
2 469 1.4
3 367 1.08
4 469 0.7

Angle Coeffs # harmonic

1 100 109.47
2 35 120
3 63 120

Dihedral Coeffs # opls

1 0 7.25 0 0
2 0 7.25 0 0
3 0 7.25 0 0

Improper Coeffs # cvff

1 2.5 -1 2

Atoms # full

2029 677 1 -8.1999999999999995e-01 -9.3809905152556148e+00 -1.0508248946814549e+01 -1.1534856945379925e+01 3 3 1
2047 683 1 -8.1999999999999995e-01 -9.6453986396091604e+00 -1.3363171129836605e+01 -1.0401160775297566e+01 1 1 3
381 127 2 4.0999999999999998e-01 -1.2782691913080679e+01 -1.3273483454067282e+01 -8.0184981381878160e+00 3 2 4
2375 792 2 4.0999999999999998e-01 -1.3983367975122254e+01 -7.1662408403631925e+00 -1.1797287056908516e+01 2 0 4
1525 509 1 -8.1999999999999995e-01 -1.0003847617764656e+01 -1.1376687168671122e+01 -8.3060595333409957e+00 1 0 6
2030 677 2 4.0999999999999998e-01 -9.1730116978801206e+00 -1.0763248478811359e+01 -1.2479213859111484e+01 3 3 1
2049 683 2 4.0999999999999998e-01 -8.6558801019543754e+00 -1.3219831573616794e+01 -1.0421080704209466e+01 1 1 3
2048 683 2 4.0999999999999998e-01 -9.9678576216316728e+00 -1.3590391344497684e+01 -1.1320117333692334e+01 1 1 3
2150 717 2 4.0999999999999998e-01 -1.2130795996921888e+01 -1.1793412965973269e+01 -1.0341575518559768e+01 5 2 4
2151 717 2 4.0999999999999998e-01 -1.1010067968905076e+01 -1.1034800164608978e+01 -1.1255545694766097e+01 5 2 4
2149 717 1 -8.1999999999999995e-01 -1.1901709027278075e+01 -1.1487528169481042e+01 -1.1265720279371966e+01 5 2 4
956 319 2 4.0999999999999998e-01 -7.7518203087706139e+00 -7.8575842268322473e+00 -1.3047413818990458e+01 0 3 6
1052 351 2 4.0999999999999998e-01 -1.2317731848898244e+01 -9.8707705173995812e+00 -1.0737421713621885e+01 2 4 4
955 319 1 -8.1999999999999995e-01 -8.6556169804575749e+00 -8.2614785003222799e+00 -1.2905600939303270e+01 0 3 6
957 319 2 4.0999999999999998e-01 -8.6240003346924485e+00 -8.8825735914805932e+00 -1.2122446329669293e+01 0 3 6
2108 703 2 4.0999999999999998e-01 -1.0583433229856432e+01 -9.4438867473836225e+00 -8.0561123809895143e+00 6 4 5
1443 481 2 4.0999999999999998e-01 -1.4629106252342702e+01 -6.5287049677867355e+00 -1.0054194884486225e+01 2 -1 2
1053 351 2 4.0999999999999998e-01 -1.2893669365099358e+01 -8.3429042796021164e+00 -1.0709366164018881e+01 2 4 4
1051 351 1 -8.1999999999999995e-01 -1.2814121821528209e+01 -9.1951564226465745e+00 -1.0192231321261392e+01 2 4 4
1094 365 2 4.0999999999999998e-01 -1.3315325367838888e+01 -6.0350665482209909e+00 -8.6073959242260134e+00 6 4 -2
2109 703 2 4.0999999999999998e-01 -1.1844291566944849e+01 -8.8483797538757187e+00 -8.9060970558069901e+00 6 4 5
226 76 1 -8.1999999999999995e-01 -1.3209457296051946e+01 -1.3130171099380636e+01 -1.3955629153951373e+01 2 -4 1
2031 677 2 4.0999999999999998e-01 -8.6958218745956231e+00 -1.0904897180504189e+01 -1.0923870856468366e+01 3 3 1
379 127 1 -8.1999999999999995e-01 -1.2648949481951547e+01 -1.2285634217675671e+01 -7.9387684073580393e+00 3 2 4
113 38 2 4.0999999999999998e-01 -1.0552496630051522e+01 -6.7193317572435465e+00 -9.2050495742816700e+00 3 2 3
1093 365 1 -8.1999999999999995e-01 -1.3226494277191488e+01 -5.8792607511698556e+00 -9.5912269655791569e+00 6 4 -2
846 282 2 4.0999999999999998e-01 -1.4245664208181141e+01 -9.8654437377164221e+00 -9.3197512402921863e+00 3 4 2
503 168 2 4.0999999999999998e-01 -1.1049620734176209e+01 -5.5312206332020679e+00 -1.2794496488458917e+01 2 3 2
2316 772 2 4.0999999999999998e-01 -8.3002114136287339e+00 -8.8547411957817150e+00 -1.4783795075320645e+01 4 1 4
112 38 1 -8.1999999999999995e-01 -1.0529856606254210e+01 -5.7292819125296770e+00 -9.3442569458805167e+00 3 2 3
228 76 2 4.0999999999999998e-01 -1.3466954341895049e+01 -1.3614049849055915e+01 -1.3119180384985023e+01 2 -4 1
2250 750 2 4.0999999999999998e-01 -8.4671720940742539e+00 -1.2890531635773819e+01 -1.4143902586151308e+01 4 -2 5
2374 792 1 -8.1999999999999995e-01 -1.3153096873510467e+01 -7.4223475545205444e+00 -1.2292412361665104e+01 2 0 4
2107 703 1 -8.1999999999999995e-01 -1.1150921187227862e+01 -8.6363886088002708e+00 -8.2173393166662727e+00 6 4 5
1095 365 2 4.0999999999999998e-01 -1.2304098953577640e+01 -5.5508511566341081e+00 -9.7947555522448972e+00 6 4 -2
227 76 2 4.0999999999999998e-01 -1.2667393275922151e+01 -1.2323334484882459e+01 -1.3720530835899257e+01 2 -4 1
415 139 1 -8.1999999999999995e-01 -1.3057436643712723e+01 -1.4698623253944003e+01 -1.1294716989511995e+01 3 2 2
1526 509 2 4.0999999999999998e-01 -9.8481515146010103e+00 -1.2041031502341429e+01 -9.0371513658622789e+00 1 0 6
114 38 2 4.0999999999999998e-01 -9.6037544249002202e+00 -5.4493554427950706e+00 -9.5973693680196384e+00 3 2 3
1236 412 2 4.0999999999999998e-01 -1.1853890210138342e+01 -6.9533370525854643e+00 -1.4510551200426333e+01 3 3 5
2249 750 2 4.0999999999999998e-01 -8.3123871962498193e+00 -1.1391171840734827e+01 -1.4772256171401969e+01 4 -2 5
2376 792 2 4.0999999999999998e-01 -1.3401183040500680e+01 -7.9111871044992661e+00 -1.3128820808502047e+01 2 0 4
387 129 2 4.0999999999999998e-01 -1.4454741012728936e+01 -1.1720650483426644e+01 -1.2825374709597288e+01 4 4 4
2248 750 1 -8.1999999999999995e-01 -8.5044925458067961e+00 -1.1912101917386472e+01 -1.3940500619273989e+01 4 -2 5
504 168 2 4.0999999999999998e-01 -1.0836579702478925e+01 -5.4845650179049645e+00 -1.1176070390141000e+01 2 3 2
844 282 1 -8.1999999999999995e-01 -1.4751208913624218e+01 -1.0435364063699467e+01 -8.6719045410816058e+00 3 4 2
2284 762 1 -8.1999999999999995e-01 -7.6152232404078859e+00 -1.4577843926007484e+01 -1.3997341577379572e+01 2 2 -2
1884 628 2 4.0999999999999998e-01 -1.4414555499693138e+01 -1.5017737149846754e+01 -1.2223163462893513e+01 5 2 4
845 282 2 4.0999999999999998e-01 -1.4157700302268402e+01 -1.1168089456177718e+01 -8.3388114687384345e+00 3 4 2
416 139 2 4.0999999999999998e-01 -1.2995612619787558e+01 -1.4785527148602212e+01 -1.0300375278624099e+01 3 2 2
417 139 2 4.0999999999999998e-01 -1.2137122874179967e+01 -1.4648700282048605e+01 -1.1682815179563866e+01 3 2 2
1235 412 2 4.0999999999999998e-01 -1.0429543190380093e+01 -7.3790367535092134e+00 -1.3834621319219353e+01 3 3 5
1234 412 1 -8.1999999999999995e-01 -1.0937079855831367e+01 -6.6350096758694921e+00 -1.4269270701654660e+01 3 3 5
2378 793 2 4.0999999999999998e-01 -7.7583288547993687e+00 -5.4070042908809963e+00 -8.7946801286253979e+00 4 2 4
722 241 2 4.0999999999999998e-01 -8.4002403902344511e+00 -5.1760408478303255e+00 -1.4874262206162978e+01 0 2 1
380 127 2 4.0999999999999998e-01 -1.1689709117624444e+01 -1.2094907180196468e+01 -7.7300316042803559e+00 3 2 4
1374 458 2 4.0999999999999998e-01 -8.4548010959367943e+00 -5.2089175762698616e+00 -1.2559004666071786e+01 -2 3 1
1799 600 2 4.0999999999999998e-01 -9.7451122697961488e+00 -1.4749374918038649e+01 -9.3900129613959749e+00 5 3 3
1527 509 2 4.0999999999999998e-01 -9.3129151146892681e+00 -1.1497441387891879e+01 -7.5932337270554262e+00 1 0 6
1123 375 1 -8.1999999999999995e-01 -3.2760899019854133e+00 -6.2400271972555643e+00 -8.8645267186407608e+00 1 2 4
2251 751 1 -8.1999999999999995e-01 -4.0394086857526617e+00 -1.4561882952330727e+01 -1.4667370254254802e+01 3 1 4
125 42 2 4.0999999999999998e-01 -5.6263093157092747e-01 -8.3218063864941989e+00 -8.4542802435241704e+00 2 -1 0
474 158 2 4.0999999999999998e-01 -5.2843803766601507e+00 -9.6397727708650827e+00 -8.4610645133289850e+00 4 -2 2
2104 702 1 -8.1999999999999995e-01 -1.2203697238983064e+00 -8.6562569198369523e+00 -1.4340824979248385e+01 -1 -2 1
1934 645 2 4.0999999999999998e-01 -6.4653703991501938e+00 -1.0300348078145106e+01 -1.3355758812699140e+01 0 0 4
473 158 2 4.0999999999999998e-01 -6.3570138071042184e+00 -9.2451741683023982e+00 -9.6275189211753620e+00 4 -2 2
2575 859 1 -8.1999999999999995e-01 -1.9592032374778690e-01 -1.1894027708515397e+01 -1.5055450157078802e+01 2 3 3
543 181 2 4.0999999999999998e-01 -3.4948839634593618e+00 -1.1447580595008823e+01 -1.4742625866268726e+01 0 -1 4
233 78 2 4.0999999999999998e-01 -9.0690953837792065e-01 -5.6596570669194808e+00 -1.3281098335835388e+01 1 4 3
1090 364 1 -8.1999999999999995e-01 -6.0666023403784113e+00 -7.3673279110327927e+00 -1.3185265664384826e+01 -1 0 4
1092 364 2 4.0999999999999998e-01 -6.0148554906834022e+00 -6.4467898637928549e+00 -1.3572592307732512e+01 -1 0 4
2252 751 2 4.0999999999999998e-01 -4.4998357225511398e+00 -1.4573630845594090e+01 -1.3779699750597716e+01 3 1 4
2271 757 2 4.0999999999999998e-01 -7.0556512155540734e+00 -1.4378687575974164e+01 -8.2356734564989438e+00 0 2 3
2576 859 2 4.0999999999999998e-01 -9.7751472602718437e-01 -1.1701336017935327e+01 -1.4462095332341873e+01 2 3 3
1842 614 2 4.0999999999999998e-01 -3.8031544590509263e+00 -1.3981065942580617e+01 -9.3823091889378407e+00 0 1 3
472 158 1 -8.1999999999999995e-01 -5.7177524291491526e+00 -8.8823104732046687e+00 -8.9494593392488522e+00 4 -2 2
2106 702 2 4.0999999999999998e-01 -8.6590215578226015e-01 -9.1733517551967161e+00 -1.3561687248416373e+01 -1 -2 1
1437 479 2 4.0999999999999998e-01 -1.1720611798325660e+00 -5.3904498871148689e+00 -1.1173284903182187e+01 4 -1 1
124 42 1 -8.1999999999999995e-01 -1.3308201281562759e+00 -8.3860646422531673e+00 -9.0913408112633629e+00 2 -1 0
1091 364 2 4.0999999999999998e-01 -5.6722060131342342e+00 -7.3649424702733821e+00 -1.2266279365917104e+01 -1 0 4
1125 375 2 4.0999999999999998e-01 -3.9217659531285864e+00 -5.7987361148066690e+00 -8.2412654535407359e+00 1 2 4
2185 729 1 -8.1999999999999995e-01 -3.2353628986432632e+00 -9.8262286058849533e+00 -1.2364234603866723e+01 3 3 5
1109 370 2 4.0999999999999998e-01 -6.5001643491548400e+00 -7.1896951788326691e+00 -8.1749319994264411e+00 3 -2 2
232 78 1 -8.1999999999999995e-01 -8.2901456457509681e-01 -6.4625479357916529e+00 -1.2690007322751168e+01 1 4 3
1124 375 2 4.0999999999999998e-01 -2.8550726123356007e+00 -5.5491669087639846e+00 -9.4523587383562351e+00 1 2 4
126 42 2 4.0999999999999998e-01 -1.9568349586978879e+00 -7.6216559394777299e+00 -8.9368264128418762e+00 2 -1 0
2186 729 2 4.0999999999999998e-01 -2.2541884389046096e+00 -9.7078298060316577e+00 -1.2211367397185670e+01 3 3 5
1677 559 2 4.0999999999999998e-01 -9.9470380965883187e-01 -9.2629566576563747e+00 -1.0792022983751004e+01 2 0 3
61 21 1 -8.1999999999999995e-01 -7.1840655441590835e+00 -1.1653691594317424e+01 -1.0203158387971232e+01 -1 -3 4
62 21 2 4.0999999999999998e-01 -6.9273718563318827e+00 -1.2474416526019793e+01 -9.6926597103776242e+00 -1 -3 4
1892 631 2 4.0999999999999998e-01 -3.6507089434798843e+00 -7.2256399949056176e+00 -1.0345275012577986e+01 0 4 1
2187 729 2 4.0999999999999998e-01 -3.3802251859781638e+00 -1.0459173399832729e+01 -1.3124817139050574e+01 3 3 5
63 21 2 4.0999999999999998e-01 -6.5857937494739716e+00 -1.1555074343998598e+01 -1.0998416458662383e+01 -1 -3 4
1891 631 1 -8.1999999999999995e-01 -3.9720571954522512e+00 -7.2346163502580811e+00 -1.1292240990594133e+01 0 4 1
1893 631 2 4.0999999999999998e-01 -3.8790488113076638e+00 -8.1570815868832227e+00 -1.1667070594032612e+01 0 4 1
531 177 2 4.0999999999999998e-01 -2.4769155747540594e-01 -5.3567096465310193e+00 -9.4198496536861995e+00 4 -3 3
1009 337 1 -8.1999999999999995e-01 -3.7029452031586008e+00 -1.2199577246540610e+01 -1.0128880364694890e+01 0 0 5
541 181 1 -8.1999999999999995e-01 -3.0529445846806560e+00 -1.1908818581843617e+01 -1.3973185122222743e+01 0 -1 4
2274 758 2 4.0999999999999998e-01 -4.1423710856833988e+00 -5.7136552466851604e+00 -1.1987596803653672e+01 2 2 5
1675 559 1 -8.1999999999999995e-01 -5.0450422001751427e-01 -9.5408083559536010e+00 -1.1618214711347772e+01 2 0 3
1010 337 2 4.0999999999999998e-01 -3.9550276250880412e+00 -1.1747295244353541e+01 -9.2733188992046642e+00 0 0 5
2269 757 1 -8.1999999999999995e-01 -6.9546451640364033e+00 -1.4322309083521752e+01 -9.2290057416513669e+00 0 2 3
1935 645 2 4.0999999999999998e-01 -5.1435494593310249e+00 -1.0211479897042583e+01 -1.2400898550365534e+01 0 0 4
1933 645 1 -8.1999999999999995e-01 -6.0453627714486231e+00 -1.0629698831920148e+01 -1.2510057002560192e+01 0 0 4
2270 757 2 4.0999999999999998e-01 -6.0876057974622029e+00 -1.4740414239421973e+01 -9.5001528412038798e+00 0 2 3
212 71 2 4.0999999999999998e-01 -4.7191804532688835e+00 -1.3783851896693227e+01 -1.1577903857823873e+01 1 1 6
542 181 2 4.0999999999999998e-01 -3.2815961067832475e+00 -1.2882189162042781e+01 -1.3992110758855281e+01 0 -1 4
1011 337 2 4.0999999999999998e-01 -3.1340444226657134e+00 -1.1585193093982184e+01 -1.0675665452988184e+01 0 0 5
211 71 1 -8.1999999999999995e-01 -5.1147800705347386e+00 -1.4315620596588284e+01 -1.2326778329483369e+01 1 1 6
2286 762 2 4.0999999999999998e-01 -6.9754187021629459e+00 -1.4230674349708931e+01 -1.3311620625714438e+01 2 2 -2
234 78 2 4.0999999999999998e-01 -9.8135199924463556e-01 -7.2902205285826565e+00 -1.3230230714162705e+01 1 4 3
1840 614 1 -8.1999999999999995e-01 -4.2248048487263947e+00 -1.4887864110740772e+01 -9.3865488437468265e+00 0 1 3
2315 772 2 4.0999999999999998e-01 -6.6842944411180696e+00 -8.7031203657660470e+00 -1.4964598508934623e+01 4 1 4
2324 775 2 4.0999999999999998e-01 -1.0740629079906583e+01 -1.1574936542385853e+01 -4.8078154167831659e+00 5 0 2
2325 775 2 4.0999999999999998e-01 -1.2230830579376848e+01 -1.2201270605115672e+01 -5.0399178897649328e+00 5 0 2
2323 775 1 -8.1999999999999995e-01 -1.1250005541053380e+01 -1.2393462995263889e+01 -5.0735973747000802e+00 5 0 2
1407 469 2 4.0999999999999998e-01 -1.2436903428155027e+01 -6.2753112111246043e+00 -3.3406866861357543e+00 2 -3 6
526 176 1 -8.1999999999999995e-01 -1.3835516612459511e+01 -1.1654325227756768e+01 -4.2344751163766130e+00 0 -1 4
1469 490 2 4.0999999999999998e-01 -1.1311115197188274e+01 -7.2028450604488787e+00 -5.1384918658416066e+00 1 -1 7
669 223 2 4.0999999999999998e-01 -1.1985557229053088e+01 -1.4913900871362340e+01 -6.4221625325727096e+00 4 2 1
1470 490 2 4.0999999999999998e-01 -1.0843947355562939e+01 -7.9058732961100686e+00 -6.5364803982414159e+00 1 -1 7
1468 490 1 -8.1999999999999995e-01 -1.0605003298223057e+01 -7.7592793140744973e+00 -5.5765293977327719e+00 1 -1 7
527 176 2 4.0999999999999998e-01 -1.3911297901295262e+01 -1.1494445267513310e+01 -3.2502060583772305e+00 0 -1 4
1480 494 1 -8.1999999999999995e-01 -1.3896720863951245e+01 -9.4226553717828967e+00 -5.8999594393415933e+00 1 2 4
1481 494 2 4.0999999999999998e-01 -1.3709014277949082e+01 -8.4406209536511234e+00 -5.9215104131691820e+00 1 2 4
1765 589 1 -8.1999999999999995e-01 -1.3453225372075682e+01 -6.1400996059007777e+00 -6.6739762830724096e+00 5 0 0
528 176 2 4.0999999999999998e-01 -1.3704059329489697e+01 -1.0781617240545010e+01 -4.7047832421371112e+00 0 -1 4
2110 704 1 -8.1999999999999995e-01 -1.4186241389628593e+01 -1.3761455820301537e+01 -5.9530859633247051e+00 3 -1 1
2112 704 2 4.0999999999999998e-01 -1.4043011119383284e+01 -1.3390348459112310e+01 -5.0355597326084780e+00 3 -1 1
1482 494 2 4.0999999999999998e-01 -1.4179924504699887e+01 -9.7279184121080107e+00 -6.8091899179453961e+00 1 2 4
536 179 2 4.0999999999999998e-01 -8.0697891099555275e+00 -1.4704798277617646e+01 -5.6707570381109775e+00 -2 1 6
1439 480 2 4.0999999999999998e-01 -8.8186570980807009e+00 -7.6416389423315216e+00 -5.2570960329934575e+00 0 3 4
444 148 2 4.0999999999999998e-01 -9.7069964947351544e+00 -9.4724481311396591e+00 -4.8495505229115956e+00 4 0 2
1440 480 2 4.0999999999999998e-01 -8.0755765523509595e+00 -7.4642436105885031e+00 -3.8137566522515645e+00 0 3 4
1438 480 1 -8.1999999999999995e-01 -7.9371175200842599e+00 -7.5120697221634369e+00 -4.8030148169056730e+00 0 3 4
2111 704 2 4.0999999999999998e-01 -1.3919454884115172e+01 -1.3079296802968253e+01 -6.6339486345712775e+00 3 -1 1
442 148 1 -8.1999999999999995e-01 -9.6304927188065825e+00 -1.0326405821777819e+01 -4.3347754437747774e+00 4 0 2
583 195 1 -8.1999999999999995e-01 -1.2904166833080504e+01 -7.4843824503516121e+00 -2.0616924210612666e+00 1 -2 -1
443 148 2 4.0999999999999998e-01 -9.6683837230517646e+00 -1.0129549803408082e+01 -3.3550295778661283e+00 4 0 2
2061 687 2 4.0999999999999998e-01 -1.3980270539221147e+01 -1.1151053427675127e+01 -8.5200623884490057e-01 2 2 0
825 275 2 4.0999999999999998e-01 -1.1086522256197624e+01 -1.3303857664923296e+01 -3.5154438150745566e+00 1 3 3
2059 687 1 -8.1999999999999995e-01 -1.3331801901778498e+01 -1.1327363153391129e+01 -1.5926095079019422e+00 2 2 0
1766 589 2 4.0999999999999998e-01 -1.2921033999869412e+01 -6.0247136194577244e+00 -5.8351983947811288e+00 5 0 0
584 195 2 4.0999999999999998e-01 -1.3391051820446197e+01 -8.0011123872956702e+00 -1.3574033131947356e+00 1 -2 -1
1405 469 1 -8.1999999999999995e-01 -1.2101022986449399e+01 -5.8811055480853618e+00 -4.1961842507967120e+00 2 -3 6
823 275 1 -8.1999999999999995e-01 -1.1068730006825955e+01 -1.3861876133190123e+01 -2.6857518470433668e+00 1 3 3
1767 589 2 4.0999999999999998e-01 -1.4371437871087135e+01 -5.7672024911271329e+00 -6.5400976802497883e+00 5 0 0
239 80 2 4.0999999999999998e-01 -1.3426213063491236e+01 -5.9579656902512426e+00 -1.7336294597227031e+00 3 2 6
2060 687 2 4.0999999999999998e-01 -1.2720586598883134e+01 -1.2073976251022779e+01 -1.3297888404112665e+00 2 2 0
1006 336 1 -8.1999999999999995e-01 -9.7910451699667469e+00 -9.2740387437416540e+00 -1.6024546319028978e+00 2 0 2
1007 336 2 4.0999999999999998e-01 -9.8061814332482804e+00 -9.4842771185215291e+00 -6.2487563566861404e-01 2 0 2
585 195 2 4.0999999999999998e-01 -1.1920131723064243e+01 -7.5326339387173018e+00 -1.8901212521973463e+00 1 -2 -1
668 223 2 4.0999999999999998e-01 -1.0741270394789467e+01 -1.3995431693915958e+01 -5.8977285937198030e+00 4 2 1
631 211 1 -8.1999999999999995e-01 -1.4917616632036232e+01 -1.5049663335359980e+01 -8.3351137972888800e-01 2 0 3
2239 747 1 -8.1999999999999995e-01 -1.4669296794502907e+01 -9.1771564882731127e+00 -4.7854655358433007e-01 1 -1 4
1645 549 1 -8.1999999999999995e-01 -1.1349534778459601e+01 -1.3148140926580258e+01 -2.1612822006050791e-01 2 2 5
1713 571 2 4.0999999999999998e-01 -8.3033770549471360e+00 -1.3622060356150447e+01 -3.3585708151911309e+00 3 5 7
2072 691 2 4.0999999999999998e-01 -9.1460943981086835e+00 -6.1521527204225155e+00 -1.0333087988158276e+00 5 1 7
1712 571 2 4.0999999999999998e-01 -9.4578323332113783e+00 -1.4724236471238296e+01 -3.7039794942240789e+00 3 5 7
1008 336 2 4.0999999999999998e-01 -9.3087554807176058e+00 -8.4105359484865474e+00 -1.7502705616041894e+00 2 0 2
2071 691 1 -8.1999999999999995e-01 -9.2621720014591276e+00 -6.5089339452160910e+00 -1.9603056263949519e+00 5 1 7
1711 571 1 -8.1999999999999995e-01 -8.5221687535145438e+00 -1.4432272201084238e+01 -3.9024245815065068e+00 3 5 7
824 275 2 4.0999999999999998e-01 -1.1047632498505799e+01 -1.3265450888678714e+01 -1.8833044703929556e+00 1 3 3
2418 806 2 4.0999999999999998e-01 -8.3298544986726810e+00 -5.7568412723122666e+00 -6.5333924067665574e+00 3 0 3
1406 469 2 4.0999999999999998e-01 -1.1620697711011200e+01 -5.0255028812130842e+00 -4.0029960924591279e+00 2 -3 6
2073 691 2 4.0999999999999998e-01 -9.2249545643586988e+00 -5.7540002658897684e+00 -2.6151185553454201e+00 5 1 7
240 80 2 4.0999999999999998e-01 -1.3840665993742871e+01 -5.0711351727781206e+00 -4.2648493085208905e-01 3 2 6
667 223 1 -8.1999999999999995e-01 -1.1069996953398386e+01 -1.4931920605544208e+01 -6.0202737328297502e+00 4 2 1
291 97 2 4.0999999999999998e-01 -1.2686034828835334e+01 -9.4126218676560498e+00 -1.2214914938823540e-02 3 2 7
238 80 1 -8.1999999999999995e-01 -1.3670013184512619e+01 -5.0431644060815692e+00 -1.4114647439298338e+00 3 2 6
1881 627 2 4.0999999999999998e-01 -1.3852177600306845e+00 -1.4916679959761439e+01 -1.0671385728487586e+00 1 0 3
185 62 2 4.0999999999999998e-01 -5.9297399515646028e+00 -9.8001540317983817e+00 -5.7069186905495251e-01 -1 1 4
537 179 2 4.0999999999999998e-01 -6.4716199757573776e+00 -1.4775399166169853e+01 -5.9989902190131517e+00 -2 1 6
2169 723 2 4.0999999999999998e-01 -6.7849798161626254e+00 -1.0929826348856942e+01 -5.2099633447281928e+00 4 2 3
2167 723 1 -8.1999999999999995e-01 -5.8698840026356063e+00 -1.1272015014257811e+01 -4.9964299149652280e+00 4 2 3
670 224 1 -8.1999999999999995e-01 -1.1461349405684373e-01 -5.8013283742039388e+00 -1.2872711505740373e+00 2 2 3
1595 532 2 4.0999999999999998e-01 -2.7236173771499477e+00 -1.0773193664934528e+01 -1.3161157128713441e-01 0 0 0
1156 386 1 -8.1999999999999995e-01 -3.6644627993651060e+00 -6.3044212406533049e+00 -5.2150274926518083e+00 2 6 0
1471 491 1 -8.1999999999999995e-01 -1.8412154311387976e+00 -1.1112521425454272e+01 -6.0164082108729886e+00 1 3 0
1017 339 2 4.0999999999999998e-01 -5.3177747831697531e-01 -5.8628165863448789e+00 -7.1408346952497261e+00 1 1 1
2168 723 2 4.0999999999999998e-01 -5.8963981223782866e+00 -1.1779653490490336e+01 -4.1352155615073993e+00 4 2 3
783 261 2 4.0999999999999998e-01 -3.4579916207689436e+00 -1.1104036492006601e+01 -7.1028336501412026e+00 5 0 5
1351 451 1 -8.1999999999999995e-01 -4.9199447055005923e+00 -8.2464512221720980e+00 -6.0397356900885768e-01 5 -5 5
1594 532 1 -8.1999999999999995e-01 -2.5380547420353263e+00 -9.8401492080789517e+00 -4.3996936093216732e-01 0 0 0
1088 363 2 4.0999999999999998e-01 -2.7562404266442613e+00 -7.5167671422201936e+00 -2.6758458974081112e+00 4 -1 5
535 179 1 -8.1999999999999995e-01 -7.3886993018217275e+00 -1.4796561541831540e+01 -6.3972458619438903e+00 -2 1 6
1110 370 2 4.0999999999999998e-01 -6.2172788139682140e+00 -6.8627841002801127e+00 -6.6001395272083254e+00 3 -2 2
782 261 2 4.0999999999999998e-01 -5.0458889803923483e+00 -1.1032616867852601e+01 -6.7282036747862755e+00 5 0 5
1016 339 2 4.0999999999999998e-01 -1.9415786342721795e+00 -6.1844452430970573e+00 -6.3819657410445743e+00 1 1 1
1473 491 2 4.0999999999999998e-01 -1.3822786218831258e+00 -1.0341532574329682e+01 -6.4580451314359077e+00 1 3 0
1869 623 2 4.0999999999999998e-01 -7.8280034417037569e-03 -9.8167104728071966e+00 -2.4785548637668509e+00 -2 -3 4
1328 443 2 4.0999999999999998e-01 -1.3033977796775584e+00 -1.2201745608733059e+01 -3.1880194366733168e+00 3 -2 -1
1596 532 2 4.0999999999999998e-01 -3.3729385764902506e+00 -9.2939987850070978e+00 -3.7084134205028363e-01 0 0 0
1867 623 1 -8.1999999999999995e-01 -3.2236872457162846e-01 -1.0501899495496215e+01 -1.8215388666644934e+00 -2 -3 4
1909 637 1 -8.1999999999999995e-01 -6.4441483119003724e+00 -1.2419325803617218e+01 -2.5479446478972694e+00 2 -2 1
64 22 1 -8.1999999999999995e-01 -5.3101642956089030e+00 -1.4763647277625406e+01 -4.7248397326085971e+00 3 1 -1
1861 621 1 -8.1999999999999995e-01 -2.7410853766738850e+00 -5.8314567130198078e+00 -2.3346418389239680e+00 0 1 4
2426 809 2 4.0999999999999998e-01 -5.1073945236184741e+00 -9.4761219334545999e+00 -4.8914396711196702e+00 3 -1 5
1862 621 2 4.0999999999999998e-01 -1.8076858860207619e+00 -5.5534747289878439e+00 -2.1075264755211141e+00 0 1 4
2009 670 2 4.0999999999999998e-01 -6.3420594125337004e-01 -7.8867049704064165e+00 -3.2492331417062772e+00 2 2 6
1087 363 1 -8.1999999999999995e-01 -2.5923256831223860e+00 -8.4783126943070144e+00 -2.8964180627490830e+00 4 -1 5
1108 370 1 -8.1999999999999995e-01 -6.7581303455683290e+00 -6.6095522701831975e+00 -7.4022886575944629e+00 3 -2 2
1863 621 2 4.0999999999999998e-01 -3.3663211362824885e+00 -5.5136185583280479e+00 -1.6217960438457695e+00 0 1 4
1089 363 2 4.0999999999999998e-01 -2.1829331892752357e+00 -8.9362298153457562e+00 -2.1072415062281440e+00 4 -1 5
1157 386 2 4.0999999999999998e-01 -3.9769154316951933e+00 -7.2472890467848368e+00 -5.3310598551519810e+00 2 6 0
817 273 1 -8.1999999999999995e-01 -3.3714979465413268e+00 -1.3969663666660363e+01 -1.7800446104154979e+00 1 0 3
2425 809 1 -8.1999999999999995e-01 -4.3961522532763500e+00 -8.7780709067945395e+00 -4.9748011049055343e+00 3 -1 5
1015 339 1 -8.1999999999999995e-01 -1.0204400285455648e+00 -6.5243309281438133e+00 -6.5718903655538909e+00 1 1 1
1158 386 2 4.0999999999999998e-01 -3.3973794986677852e+00 -6.1565816386967338e+00 -4.2627145850986636e+00 2 6 0
65 22 2 4.0999999999999998e-01 -5.0612151400955838e+00 -1.3797686882145316e+01 -4.6538835189589935e+00 3 1 -1
1910 637 2 4.0999999999999998e-01 -6.7727948393861208e+00 -1.1526647571140716e+01 -2.2393884886340878e+00 2 -2 1
819 273 2 4.0999999999999998e-01 -3.0123297407541667e+00 -1.3524442747582384e+01 -2.6003290360521181e+00 1 0 3
2405 802 2 4.0999999999999998e-01 -9.0486856121927417e-02 -1.3833059990171652e+01 -5.0115475594764440e+00 -1 2 1
1911 637 2 4.0999999999999998e-01 -6.4021666875270515e+00 -1.3046217670979633e+01 -1.7699124442666783e+00 2 -2 1
1868 623 2 4.0999999999999998e-01 -1.1774895137567327e+00 -1.0195056522678009e+01 -1.4035607484561723e+00 -2 -3 4
2427 809 2 4.0999999999999998e-01 -3.7038256510602050e+00 -8.9214861936477945e+00 -4.2675487802137280e+00 3 -1 5
1327 443 1 -8.1999999999999995e-01 -2.2527192672878531e+00 -1.2225527666954598e+01 -3.5015686413297988e+00 3 -2 -1
1329 443 2 4.0999999999999998e-01 -2.3698267618295592e+00 -1.1582979438998684e+01 -4.2588714279205018e+00 3 -2 -1
818 273 2 4.0999999999999998e-01 -3.6856535346789254e+00 -1.3274184305475725e+01 -1.1337438192152565e+00 1 0 3
1879 627 1 -8.1999999999999995e-01 -3.8732158204833844e-01 -1.4914840308872797e+01 -1.0016422452178091e+00 1 0 3
672 224 2 4.0999999999999998e-01 -3.7969882111259246e-01 -5.7495664306172181e+00 -3.2438981777920617e-01 2 2 3
1030 344 1 -8.1999999999999995e-01 -6.8111687485231531e+00 -1.4517539044658491e+01 -5.1638702961916394e-01 1 2 2
184 62 1 -8.1999999999999995e-01 -6.5992220709438865e+00 -1.0534727798937617e+01 -4.5985389420084744e-01 -1 1 4
1352 451 2 4.0999999999999998e-01 -5.1472064787586014e+00 -7.8220332041397738e+00 -1.4805072432168860e+00 5 -5 5
1472 491 2 4.0999999999999998e-01 -1.1768308293918963e+00 -1.1838521316955177e+01 -5.8386242796967878e+00 1 3 0
1305 435 2 4.0999999999999998e-01 -5.2610889909620422e+00 -1.2111915275081838e+01 -1.2157904598678115e-01 1 -1 2
1001 334 2 4.0999999999999998e-01 -4.2171721019298403e-01 -8.1836484320420766e+00 -6.5056674236372540e+00 -1 1 6
1188 396 2 4.0999999999999998e-01 -3.9898670784888086e+00 -5.3150521356064946e+00 -6.3610673922677510e+00 3 1 2
781 261 1 -8.1999999999999995e-01 -4.3863790712442707e+00 -1.1216879599441823e+01 -7.4570273255683119e+00 5 0 5
51 17 2 4.0999999999999998e-01 -1.4769758846885344e+01 -1.3282122461399016e+01 3.7806435706465180e-01 -1 3 5
2121 707 2 4.0999999999999998e-01 -1.4286849451569777e+01 -1.0788763143267765e+01 6.0105751156731966e+00 3 2 2
1998 666 2 4.0999999999999998e-01 -1.4308490332225041e+01 -1.1472040448307489e+01 2.4801864734306047e+00 4 1 3
2472 824 2 4.0999999999999998e-01 -1.0668508720307708e+01 -8.9868557523656651e+00 1.4659654516033935e+00 1 3 0
1996 666 1 -8.1999999999999995e-01 -1.3912502531780364e+01 -1.0613575011877497e+01 2.8062549976202842e+00 4 1 3
2470 824 1 -8.1999999999999995e-01 -9.6827379079026059e+00 -9.0125350341746611e+00 1.2995729630898314e+00 1 3 0
989 330 2 4.0999999999999998e-01 -1.0590160708349064e+01 -6.5702615965922817e+00 1.4825837082555129e+00 0 2 6
990 330 2 4.0999999999999998e-01 -1.2112489387027662e+01 -7.0888696776731903e+00 1.1989864263253356e+00 0 2 6
1997 666 2 4.0999999999999998e-01 -1.4145012476231077e+01 -1.0484174105959266e+01 3.7702490297030291e+00 4 1 3
1531 511 1 -8.1999999999999995e-01 -1.4336673503351919e+01 -1.3115077571511657e+01 4.4667270307992890e+00 5 3 1
988 330 1 -8.1999999999999995e-01 -1.1383957212965623e+01 -6.4822012787573335e+00 8.8073450590663782e-01 0 2 6
2289 763 2 4.0999999999999998e-01 -1.2487537716015350e+01 -1.1814698055960005e+01 2.7466854312709810e+00 2 1 4
176 59 2 4.0999999999999998e-01 -1.0557752127176641e+01 -1.0843983362064487e+01 5.5560734494961661e+00 3 -2 2
2390 797 2 4.0999999999999998e-01 -8.0988108712401008e+00 -8.1699047153036339e+00 1.0057349802534628e+00 3 1 3
1401 467 2 4.0999999999999998e-01 -9.4498985252045973e+00 -1.2320092405652083e+01 1.8465342686700286e+00 2 -1 4
2539 847 1 -8.1999999999999995e-01 -9.2268577712935791e+00 -1.1964916110793295e+01 6.4818462404361785e+00 2 0 2
40 14 1 -8.1999999999999995e-01 -1.3443885515136699e+01 -5.5615749527880638e+00 3.6343462445755659e+00 1 1 0
1982 661 2 4.0999999999999998e-01 -1.0014393419366414e+01 -7.9160696789220077e+00 7.4018423251038197e+00 0 1 4
2287 763 1 -8.1999999999999995e-01 -1.1616451285822995e+01 -1.2303005196374453e+01 2.6932579911151411e+00 2 1 4
2288 763 2 4.0999999999999998e-01 -1.1723243890193121e+01 -1.3218592479506983e+01 3.0810531951121138e+00 2 1 4
290 97 2 4.0999999999999998e-01 -1.3004045457704251e+01 -9.5331368703511892e+00 1.5850363759898034e+00 3 2 7
2541 847 2 4.0999999999999998e-01 -8.2621652307803739e+00 -1.1945092245224561e+01 6.2190436612255571e+00 2 0 2
289 97 1 -8.1999999999999995e-01 -1.2342399696207195e+01 -9.2151196397558017e+00 9.0593413114125099e-01 3 2 7
1244 415 2 4.0999999999999998e-01 -7.8903572270428279e+00 -1.1873028402904252e+01 3.4277328385122967e+00 1 -1 1
177 59 2 4.0999999999999998e-01 -1.1058531412631909e+01 -1.1246126982373323e+01 4.0546185014809932e+00 3 -2 2
175 59 1 -8.1999999999999995e-01 -1.1080148920167861e+01 -1.0537761349415199e+01 4.7601968216831079e+00 3 -2 2
827 276 2 4.0999999999999998e-01 -1.1303145889022506e+01 -7.7981079079579123e+00 4.2844246486002060e+00 2 2 0
828 276 2 4.0999999999999998e-01 -1.2238966875162317e+01 -9.0507598949586434e+00 4.7555599574575513e+00 2 2 0
2540 847 2 4.0999999999999998e-01 -9.6129465151190256e+00 -1.2861667460790679e+01 6.2653688456437298e+00 2 0 2
1533 511 2 4.0999999999999998e-01 -1.3775579243995027e+01 -1.2999172885696671e+01 5.2863789498560205e+00 5 3 1
1569 523 2 4.0999999999999998e-01 -8.6598540685111267e+00 -8.2928029679655673e+00 4.4894762471200362e+00 1 -2 4
1567 523 1 -8.1999999999999995e-01 -7.6787798899345123e+00 -8.1860376639096017e+00 4.3276598485127220e+00 1 -2 4