2611
Atoms. Timestep: 8000000
O -4.06381 -14.2976 3.87745
H -3.72467 14.7553 3.81368
H -3.8088 -13.9106 4.76354
O 2.03364 4.77882 -5.70213
H 3.00474 5.01736 -5.69423
H 1.48532 5.61463 -5.72968
O 2.02844 9.87856 2.82009
H 1.75984 10.8333 2.94775
H 2.90015 9.71302 3.28131
O -12.8575 -8.71006 -1.99545
H -13.816 -8.98497 -2.07176
H -12.6102 -8.14186 -2.78031
O -0.238925 0.363276 -8.58814
H -0.887403 1.03947 -8.23851
H 0.694786 0.672405 -8.40753
O 3.74234 1.61234 -14.933
H 3.39736 2.45091 -14.5113
H 4.70653 1.73081 14.8212
O -8.65575 11.6896 -14.6934
H -8.20489 10.7997 -14.6234
H -9.25963 11.8201 -13.9071
O 4.99613 -0.0280831 -5.03854
H 4.73153 0.379481 -4.16454
H 4.50512 -0.88975 -5.16674
O 11.4442 11.5629 -11.2694
H 11.8745 10.8972 -11.879
H 11.6764 11.3456 -10.3213
O 1.58001 -10.8919 -10.7721
H 1.71633 -11.14 -11.7312
H 1.05893 -10.0401 -10.719
O -8.64473 10.4285 8.38332
H -9.15937 10.8948 9.10286
H -9.20056 9.69042 8.00082
O -6.45686 9.02565 4.55163
H -5.46538 9.13391 4.62416
H -6.82153 9.70976 3.91995
O 5.79375 11.2082 -13.0035
H 6.45856 10.6249 -13.4701
H 4.99392 11.337 -13.5897
O -12.3102 -6.34743 3.96932
H -13.2498 -6.00519 3.97393
H -11.9955 -6.47017 4.91056
O 8.72502 4.05055 14.2732
H 9.00946 4.94673 13.9326
H 8.75426 4.04917 -14.7187
O -1.342 -7.50211 14.736
H -1.47313 -6.53924 14.5
H -0.618187 -7.88962 14.1651
O -14.2702 -10.771 1.84165
H -14.8949 -9.9902 1.85346
H -14.4408 -11.322 1.02478
O -6.00303 -12.5311 0.862103
H -6.49058 -13.3816 0.66466
H -5.06551 -12.7411 1.13955
O 7.1076 -10.4464 -13.9811
H 6.63501 -11.3203 -14.0947
H 6.62355 -9.8912 -13.3047
O -9.81993 7.95791 7.43886
H -9.89433 7.15031 6.85384
H -9.58241 7.67549 8.36828
O -8.14955 -11.4616 -10.7464
H -7.78728 -12.1734 -10.1445
H -7.54595 -10.6648 -10.7212
O -5.70502 -11.8869 -3.63087
H -6.37613 -11.2293 -3.28862
H -4.78562 -11.5894 -3.37362
O 0.284736 8.09024 -0.0515014
H 0.329763 8.25403 0.933963
H -0.669763 8.1085 -0.349155
O 1.88989 -12.04 4.35009
H 1.23152 -11.3858 4.72239
H 2.30707 -12.5556 5.09851
O 4.23552 0.87171 11.2285
H 3.37193 0.37131 11.2902
H 4.09401 1.81791 11.5195
O 2.52584 -3.51379 14.8195
H 2.84846 -2.68697 14.3587
H 2.65341 -3.41664 -14.1849
O 11.9632 3.63813 4.5446
H 12.1753 4.38778 3.91765
H 12.7139 2.97753 4.54028
O -0.976405 3.29629 -8.24557
H -1.35144 4.16142 -7.91255
H -0.0127256 3.22926 -7.98706
O -12.6939 13.8329 -5.57694
H -13.4505 13.5682 -6.1748
H -12.0569 14.4143 -6.08301
O 12.8482 -8.27935 13.9002
H 13.5088 -8.71464 13.2886
H 12.0056 -8.81753 13.918
O 6.50429 2.07065 6.47729
H 6.2557 2.86055 5.9167
H 7.48222 1.88645 6.37867
O -1.74706 -6.89861 9.82617
H -1.47941 -7.85902 9.74885
H -1.24974 -6.35832 9.14737
O -7.79468 12.1762 6.3445
H -8.7409 12.4826 6.44841
H -7.63144 11.3902 6.9408
O 12.3383 9.00507 5.76861
H 12.9568 8.27497 6.05917
H 11.4808 8.93813 6.27864
O 9.885 3.22187 12.0285
H 10.5481 2.47337 12.0279
H 9.38691 3.22527 12.8956
O 14.3801 8.96433 -6.44421
H -14.8619 9.59299 -6.23691
H 13.805 9.35652 -7.16217
O -8.8051 -1.90666 -14.8205
H -9.50622 -1.32037 14.7651
H -8.68846 -1.66831 -13.8563
O -12.9669 -3.06497 -10.981
H -13.4369 -3.9467 -10.9403
H -12.9304 -2.6642 -10.0656
O 3.13058 2.53423 -11.5651
H 2.27969 2.156 -11.2005
H 2.94065 3.02063 -12.418
O 9.89178 5.50799 10.7252
H 9.79074 4.63713 11.2063
H 9.29015 5.51936 9.92654
O 5.79594 13.9681 8.93971
H 6.09525 14.9222 8.94854
H 4.8049 13.9308 8.81146
O -0.364245 -6.82268 -7.6585
H -0.433996 -7.75694 -7.30878
H -0.477464 -6.82938 -8.65205
O 1.28289 6.7987 8.64864
H 1.72685 6.34328 7.87696
H 1.56259 7.75842 8.67509
O -3.18969 -0.483284 6.0601
H -2.64226 0.303732 6.34458
H -3.83584 -0.201043 5.351
O -5.311 -2.40775 -12.079
H -4.39044 -2.71807 -12.3162
H -5.39976 -1.4346 -12.2914
O -3.61323 8.69865 3.93425
H -3.28256 7.98926 3.31182
H -3.4206 8.43017 4.87808
O -2.42701 3.88769 6.61325
H -3.27402 3.92518 7.1435
H -2.63742 3.64788 5.66551
O 4.82288 -5.77813 12.9979
H 3.86117 -5.7198 13.2657
H 4.9337 -5.41586 12.0724
O 9.32255 3.57659 1.42036
H 9.97314 2.8176 1.3945
H 8.39291 3.21625 1.4973
O -14.9376 9.8357 -2.63902
H -14.1892 10.4216 -2.94978
H 14.6858 10.1924 -1.78032
O -13.3107 1.46655 14.4879
H -13.98 1.41138 13.747
H -13.7876 1.49703 -14.6251
O 7.77647 -4.93366 9.90051
H 8.25894 -5.79536 10.0576
H 7.94199 -4.31425 10.6679
O 9.0114 -3.95361 -3.67867
H 8.32527 -3.25703 -3.46888
H 8.6898 -4.52045 -4.43713
O -6.77892 14.4468 -12.4158
H -6.51614 14.5356 -11.4551
H -6.13133 13.8458 -12.8843
O -8.41149 14.597 9.35103
H -7.72053 14.6047 10.0739
H -9.31216 14.7714 9.74898
O 12.775 -8.12213 -12.1133
H 12.7726 -7.40032 -11.4212
H 13.5748 -8.01501 -12.7039
O 5.59896 -8.43693 -12.4531
H 5.07857 -7.66812 -12.8248
H 5.1722 -8.749 -11.6043
O -14.523 13.6873 11.9804
H -14.895 13.1749 11.2064
H -14.2559 13.0509 12.704
O -8.32831 -7.51039 5.1833
H -8.45833 -7.33083 6.15842
H -9.16385 -7.90704 4.80312
O 11.406 12.3702 4.40725
H 11.2777 12.4915 3.42297
H 12.209 12.8865 4.70487
O 12.8289 -13.0745 -14.2264
H 11.9865 -13.4745 -13.8655
H 12.6022 -12.3274 -14.8512
O -5.0525 -8.87338 1.35851
H -5.00737 -8.58729 2.31564
H -5.99712 -9.10212 1.12318
O -14.7714 -14.121 14.9041
H -14.75 -13.5944 14.0543
H 14.4308 -13.8405 -14.5412
O 4.21975 7.90051 14.8666
H 3.84743 7.29732 -14.4195
H 5.09403 7.5371 14.5447
O -6.45563 1.79958 12.658
H -6.96717 1.38822 11.9037
H -5.59845 1.30176 12.7901
O -12.3317 12.8913 2.4727
H -11.5409 13.2486 1.97571
H -12.0758 12.7141 3.42304
O 11.0264 -11.3069 2.61748
H 11.6103 -10.9608 1.88313
H 10.9529 -12.3015 2.54406
O 6.48819 -0.0868919 8.51297
H 6.33407 0.407845 7.65771
H 5.92279 0.311643 9.23511
O -11.2276 2.76836 -14.1251
H -11.5774 3.29873 -13.3529
H -11.7973 2.93564 -14.9297
O -14.4473 1.44958 -12.2835
H -14.685 0.59272 -11.8261
H -14.3095 2.16566 -11.5993
O -4.66301 -11.5451 -11.2755
H -5.3036 -10.8242 -11.0111
H -4.25768 -11.9482 -10.4549
O -6.54425 -9.88159 -14.5444
H -6.43427 -10.8734 -14.6101
H -7.51424 -9.65966 -14.4451
O 11.3079 -11.2616 14.0189
H 10.9804 -10.9876 14.9232
H 10.7719 -10.7956 13.315
O -9.38024 9.15047 12.8849
H -9.24422 8.19781 13.1568
H -8.49165 9.58698 12.7439
O -5.97906 7.2552 8.77274
H -6.09532 6.66248 7.97577
H -5.93893 8.2092 8.47561
O -12.8001 -7.42452 13.1119
H -12.9977 -7.7955 14.0193
H -12.4793 -6.48146 13.2
O 8.83473 6.96976 -14.2783
H 9.33142 6.68282 14.894
H 9.38323 6.7659 -13.4674
O -3.34864 -4.03821 -13.3999
H -3.99674 -4.055 -14.1613
H -3.30658 -4.94384 -12.9779
O 7.17756 10.7178 -7.66301
H 7.15935 9.9644 -8.32038
H 7.484 10.3772 -6.77414
O 14.9797 -2.40532 -1.32341
H -14.381 -2.48257 -2.09556
H -14.5617 -2.73036 -0.491638
O 0.838717 5.27466 -11.5865
H 1.04857 5.71229 -12.4608
H 1.67291 5.20624 -11.0393
O 0.0858303 -14.3779 -10.2374
H -0.408472 -13.6649 -9.74015
H 0.34703 -14.035 -11.1397
O 13.73 8.39015 -10.4711
H 13.2234 8.97608 -9.83867
H 13.9501 7.52505 -10.0204
O -13.9017 -14.8309 -3.39405
H -13.4723 14.9416 -4.27024
H -14.5271 14.4241 -3.13614
O -11.4711 8.50138 -10.7762
H -11.9579 8.09033 -10.0054
H -10.7342 9.0837 -10.4327
O 9.29193 2.63086 -6.27928
H 8.51569 2.10055 -5.93835
H 9.66078 2.19254 -7.09892
O 5.67351 14.5942 -5.33335
H 5.66273 14.103 -6.20433
H 6.61943 14.778 -5.06604
O -1.04845 13.3806 -12.3624
H -0.398295 13.7571 -11.7025
H -1.87309 13.0797 -11.8833
O 11.5734 -1.31207 9.04932
H 12.0246 -1.43556 9.93316
H 10.6083 -1.09435 9.19528
O -10.5272 11.6134 13.2273
H -10.3052 10.6408 13.158
H -10.0114 12.0201 13.9814
O -0.455559 10.322 -9.63571
H 0.194358 9.91305 -8.99514
H -0.202677 11.2747 -9.80435
O 1.0396 5.33679 10.9923
H 0.9774 5.99014 10.2378
H 1.80002 5.58976 11.5905
O 6.49435 5.07319 -11.7068
H 6.58886 6.06787 -11.7477
H 7.0708 4.65446 -12.4085
O -3.50114 8.46583 6.62384
H -2.89937 8.07645 7.32115
H -3.60343 9.44785 6.78248
O 3.74857 -11.2211 -8.95561
H 4.5139 -10.5822 -9.0332
H 3.07375 -11.0207 -9.66586
O 5.61342 -2.62237 13.9785
H 5.00746 -1.84811 13.7959
H 6.15016 -2.82589 13.1596
O -11.6237 -5.26319 -0.0505312
H -11.0018 -5.60992 0.651573
H -11.9769 -6.02761 -0.589872
O -14.7586 -13.4551 12.1406
H -14.1983 -13.0702 11.4072
H -14.6508 -14.4492 12.1556
O 2.28135 2.05753 4.63445
H 2.69753 2.59737 3.90277
H 1.65507 1.38606 4.23834
O 2.26992 9.35053 -8.94666
H 2.52426 10.0259 -9.63889
H 2.12659 9.80962 -8.06991
O -5.40853 6.94348 -9.20927
H -4.93178 6.22929 -8.69679
H -6.01576 6.52168 -9.88259
O -5.11019 0.475328 4.37781
H -5.90756 0.884933 4.82101
H -5.41309 -0.194235 3.69962
O 7.21854 -4.88532 -7.11708
H 6.59805 -5.27888 -7.79538
H 7.74083 -5.61694 -6.67897
O 11.2044 6.53598 2.68474
H 10.4315 7.15344 2.83123
H 11.4253 6.50391 1.70996
O -5.94979 11.4199 13.6413
H -5.74274 10.4476 13.7498
H -6.49715 11.5539 12.8152
O 11.2315 14.708 8.10533
H 11.6297 -14.7473 7.361
H 11.5205 13.7544 8.02081
O 7.04768 10.5111 12.6256
H 7.38726 11.3336 12.1693
H 6.09822 10.6531 12.9055
O 11.1292 13.1569 -3.2604
H 11.3014 13.8267 -3.98269
H 11.8414 12.4552 -3.27985
O 13.6414 7.43241 3.65159
H 12.6653 7.23064 3.57147
H 13.764 8.39419 3.89646
O -9.28897 5.22555 -2.92521
H -9.96472 5.91324 -3.19062
H -9.75848 4.3936 -2.62957
O -3.49299 9.94601 -6.9594
H -3.46074 9.87707 -7.95649
H -3.87281 10.8336 -6.69877
O 13.9743 1.50894 2.45139
H 13.1214 1.33663 1.9586
H 14.5631 2.10142 1.90156
O 0.61729 12.9871 -9.70054
H 1.254 12.8878 -8.93586
H 0.456875 13.9583 -9.8767
O -4.07529 7.45631 -4.84291
H -4.12808 8.30094 -5.37565
H -4.5824 6.7337 -5.31267
O -8.43834 -14.5512 4.73738
H -9.39071 -14.538 5.04205
H -8.28326 14.6366 4.16289
O 3.08291 -8.81323 13.2168
H 3.38696 -9.24075 14.0682
H 3.15972 -7.81941 13.297
O -3.47058 6.10448 14.7942
H -2.84551 5.81228 14.0704
H -2.9465 6.33629 -14.3778
O -5.54194 12.896 10.0346
H -4.90184 13.3125 10.6802
H -5.91206 12.0545 10.4282
O -12.0287 5.62119 14.7661
H -12.1308 6.28674 14.0267
H -11.9955 6.10002 -14.3481
O -6.118 -1.32108 14.5714
H -7.11454 -1.37077 14.5049
H -5.86203 -0.58371 -14.795
O -3.44519 -13.3223 1.39975
H -2.60385 -12.7974 1.52851
H -3.66301 -13.8148 2.24235
O 7.53314 13.2329 -11.1415
H 6.79572 12.7714 -11.6347
H 8.10795 13.7307 -11.7909
O -13.9863 7.70683 -0.147443
H -13.7988 8.60541 0.24929
H -14.5008 7.81862 -0.997577
O 0.711028 -9.74704 5.38537
H -0.215334 -9.962 5.69464
H 1.35609 -9.8989 6.13425
O -10.2223 -0.858381 -0.540508
H -10.5354 -1.79278 -0.710518
H -9.59184 -0.85411 0.235661
O 4.53874 -5.80659 -13.3564
H 4.34229 -5.36106 -14.2299
H 4.67266 -5.1113 -12.6503
O -11.9875 -11.0097 -8.59661
H -11.6013 -11.9153 -8.77197
H -11.6933 -10.3774 -9.31327
O 0.51081 -5.7258 4.16721
H 1.11726 -4.97518 4.4295
H 1.05564 -6.48755 3.81666
O -14.9205 -10.0762 -14.9304
H -14.9529 -10.1116 14.0622
H -14.3151 -10.7961 -14.5908
O 14.5165 11.8195 -0.495976
H -14.6054 11.3507 -0.340984
H 14.0651 11.9832 0.381214
O -7.31161 9.0661 -14.1855
H -8.07652 8.43439 -14.3114
H -6.68328 8.98713 -14.9595
O 11.693 -1.43533 -8.4432
H 11.6515 -2.42035 -8.27582
H 12.0866 -1.26708 -9.34695
O -13.4429 -2.11345 13.6796
H -13.8026 -1.19761 13.501
H -12.7015 -2.05586 14.3481
O -0.965621 7.1816 5.36276
H -1.5891 7.30915 6.13413
H -0.795048 6.20524 5.22997
O 5.89436 6.42115 -9.47367
H 6.46853 6.12487 -8.71043
H 5.89095 5.71515 -10.1819
O -2.30441 -5.11813 0.0165882
H -2.54626 -4.88004 -0.924061
H -2.68209 -6.01654 0.240643
O 4.31662 -9.92512 -14.6934
H 4.80519 -10.5581 14.6976
H 4.96224 -9.2658 -14.308
O 0.87643 8.06571 14.0266
H 1.70487 8.58841 14.2277
H 0.278834 8.6039 13.4322
O -11.2258 -14.547 -10.6993
H -11.7528 14.7879 -10.1596
H -10.8434 14.9858 -11.5014
O -3.01299 14.9093 -1.65998
H -3.1441 -14.3396 -1.00323
H -2.03888 14.6944 -1.73003
O -10.2053 7.65659 2.00896
H -11.0136 7.37906 2.52809
H -10.4466 7.75462 1.04348
O 13.3308 6.32781 7.19001
H 14.0958 5.68704 7.25381
H 12.6053 5.92618 6.63105
O 8.62915 -7.05542 -10.6271
H 8.33125 -6.38382 -9.94876
H 9.09303 -6.58666 -11.3789
O 2.69107 -0.342418 8.34134
H 2.01486 -1.07629 8.40592
H 3.04575 -0.134818 9.25299
O -8.19164 -1.73243 -12.1148
H -7.28998 -2.12815 -12.2892
H -8.16049 -1.18885 -11.276
O 7.07582 -2.17541 -3.59296
H 7.07796 -1.28503 -4.04818
H 6.38348 -2.76254 -4.01241
O 14.3185 -3.60136 10.9577
H 14.8663 -4.00875 10.227
H 14.6666 -3.90572 11.8444
O -7.44097 -10.896 2.2856
H -7.06694 -10.9625 3.21062
H -7.00561 -11.5798 1.70005
O -14.6218 4.68847 -14.7825
H -13.6831 4.98697 -14.9549
H -14.7253 4.45608 -13.8154
O 7.47456 -11.339 -11.0845
H 7.55255 -10.4214 -11.4742
H 8.3856 -11.7413 -10.9942
O -13.0967 7.28503 -8.88739
H -13.9676 6.80988 -9.0132
H -13.1098 7.7806 -8.01892
O 11.0462 -11.6337 -8.64227
H 10.7862 -11.732 -9.60286
H 11.9757 -11.2694 -8.58415
O -14.0956 6.28199 -12.2376
H -14.815 6.7285 -11.7054
H -13.6135 6.96544 -12.7857
O 2.9965 -13.3593 14.9275
H 2.56378 -12.6177 -14.5513
H 2.297 -14.0044 14.6201
O 14.8058 6.46011 11.1763
H 14.0629 6.48575 10.5074
H 14.4713 6.79049 12.0589
O -12.4332 -9.96521 9.04763
H -13.4005 -10.0021 9.29822
H -11.9298 -9.44473 9.73734
O -2.40843 -1.06283 12.3729
H -1.75345 -1.70459 12.7719
H -2.16441 -0.129877 12.6376
O -7.72521 -10.4331 -7.93784
H -8.51392 -10.1807 -7.37727
H -8.04027 -10.7566 -8.83008
O 11.9029 3.31085 -6.44789
H 12.0372 2.58747 -7.12515
H 10.9545 3.29887 -6.13102
O -6.32075 5.05007 -3.57554
H -5.93871 4.28235 -3.06109
H -7.31881 5.02592 -3.51829
O 2.47068 -5.48169 7.21145
H 2.48572 -4.53279 6.89623
H 3.00576 -6.04929 6.58574
O 7.76234 3.42293 3.90452
H 8.50953 3.08611 4.47746
H 8.0637 4.23724 3.40846
O 2.66545 -11.375 10.5207
H 3.47171 -11.2672 11.1024
H 2.341 -10.4747 10.2305
O 3.35132 -0.903622 13.8473
H 2.74309 -0.860675 13.0547
H 3.59339 0.0238268 14.1323
O -6.77635 -14.6656 11.6789
H -7.23151 14.7816 12.3835
H -5.84948 14.9786 11.5363
O 6.99648 -13.4726 8.99573
H 7.72029 -12.835 8.73199
H 6.58889 -13.1755 9.85921
O 6.37472 7.89552 -11.9928
H 7.3707 7.82428 -12.0471
H 6.12714 8.64199 -11.3751
O 14.9045 -1.59022 -11.8558
H 14.6478 -1.94023 -12.7566
H -14.3812 -2.177 -11.4589
O 2.91213 7.34993 -1.1881
H 2.62263 6.92202 -2.0443
H 2.1106 7.53065 -0.618113
O 2.95728 -14.1443 5.9316
H 3.04618 -13.8896 6.89453
H 3.83104 -14.4987 5.59852
O 9.27762 -3.21137 14.4602
H 10.0518 -3.7029 14.8589
H 8.4389 -3.73604 14.6061
O -1.95163 4.97491 -11.6388
H -2.09709 5.77218 -12.2247
H -0.984748 4.91567 -11.3906
O 14.397 -4.27647 -13.8264
H 14.546 -5.25007 -13.9993
H 13.4201 -4.10669 -13.6967
O 14.4523 1.77704 10.0707
H 13.8746 2.52057 10.4076
H -14.5772 2.03238 10.1672
O 14.0881 -8.6219 1.87064
H 13.6433 -8.51682 2.76006
H 14.1902 -7.72472 1.44093
O -11.8544 -9.18926 -4.85804
H -11.525 -9.80769 -4.14458
H -11.1669 -9.1176 -5.5806
O 0.372875 -1.65721 -11.6523
H 0.205785 -2.04312 -10.745
H 1.14181 -1.01951 -11.6068
O 2.67743 9.45423 9.34021
H 3.11383 10.2522 8.92443
H 1.99659 9.75651 10.0074
O -8.23053 -14.9233 -6.82417
H -8.16553 -13.9874 -6.47811
H -9.18705 14.8501 -7.0179
O -9.93297 5.66937 5.91465
H -9.28595 5.71565 5.15359
H -10.3145 4.7468 5.97215
O -3.84534 -10.051 -13.697
H -3.78937 -10.4632 -12.7876
H -4.79722 -10.0477 -14.0034
O 6.52176 -7.78145 5.17536
H 6.26814 -7.73598 4.20912
H 6.94291 -8.66774 5.36806
O -13.0234 -1.64479 -8.28949
H -12.1937 -1.223 -8.65504
H -12.7924 -2.19294 -7.48566
O -7.74344 12.3992 -9.64714
H -7.39364 12.7001 -10.5343
H -6.97941 12.2624 -9.01663
O -6.31318 12.9062 -7.03063
H -7.11233 13.504 -6.96726
H -5.95344 12.7324 -6.11391
O 8.32299 -3.69052 7.58482
H 7.39104 -3.87931 7.27528
H 8.4655 -4.10338 8.48439
O 4.31936 8.8582 1.27904
H 3.88817 8.5033 0.449508
H 5.20868 9.25365 1.04939
O -10.6533 2.29687 8.02836
H -9.83527 2.74089 8.39403
H -10.7922 1.42123 8.49092
O -13.2127 13.6996 -14.3218
H -12.222 13.8064 -14.4053
H -13.6654 14.5358 -14.6317
O 14.6765 -10.1625 9.31086
H 14.3672 -9.75523 10.1702
H 13.8886 -10.5176 8.80768
O -3.68195 3.66918 4.10272
H -4.33156 4.29997 3.67833
H -3.8652 2.73868 3.78556
O 3.17944 5.3468 -10.1087
H 2.91887 4.60919 -9.48579
H 3.89439 5.90342 -9.68561
O 3.09815 -13.5398 -0.561026
H 2.15168 -13.6361 -0.869105
H 3.11246 -13.1144 0.343903
O -0.869477 -9.35192 9.62116
H -0.48655 -10.1817 9.21512
H -1.63488 -9.59503 10.217
O -10.585 -3.36794 -2.04736
H -9.66919 -3.69567 -2.27935
H -10.9102 -3.83962 -1.22772
O 1.22913 2.23106 13.5124
H 1.07487 2.18073 12.5256
H 2.15597 2.56273 13.6883
O -11.4925 3.67305 13.0427
H -12.0265 4.08101 12.3021
H -11.2962 4.36824 13.7342
O 1.72339 -3.19299 6.24161
H 1.10429 -2.60289 6.75978
H 2.46708 -2.64338 5.86101
O -8.59507 6.74741 -0.75342
H -8.48599 6.31764 -1.64974
H -9.20289 6.18974 -0.188124
O 11.5345 7.9173 -6.91505
H 11.7852 7.85816 -5.94879
H 11.8056 7.07552 -7.38186
O 12.4141 -3.50429 -1.90896
H 12.4064 -4.48252 -1.70157
H 13.2688 -3.10097 -1.58234
O -14.4425 -4.84748 8.80115
H -14.6888 -5.81221 8.70817
H -13.9562 -4.54702 7.98061
O -9.31178 -4.94263 7.83899
H -8.69891 -4.48904 8.48602
H -9.24048 -5.93376 7.95114
O -9.0497 12.9594 3.56929
H -8.63085 12.0965 3.85204
H -9.9366 13.0627 4.01954
O -11.3571 8.2533 10.4716
H -10.902 8.85406 11.1289
H -12.2091 8.67831 10.1659
O -14.7612 6.70282 -5.11979
H 14.8363 6.08618 -5.80136
H -14.7913 7.64168 -5.46277
O 5.56835 -4.94533 -1.01452
H 5.48913 -5.74964 -1.60343
H 5.73446 -4.13541 -1.57704
O -12.7735 3.44176 -4.38912
H -13.648 3.18078 -3.98044
H -12.3607 2.64487 -4.8302
O -0.117943 -1.15168 6.71431
H -0.244826 -0.169622 6.85383
H -0.880687 -1.51347 6.17828
O 5.11684 11.914 -0.637819
H 5.55037 12.5411 -1.28503
H 5.80474 11.2908 -0.265816
O 14.7402 -12.1978 -0.425727
H -14.6553 -12.4067 -1.20106
H 14.1347 -12.9746 -0.252064
O 0.0689968 -2.48794 13.4277
H 0.730749 -3.23761 13.419
H 0.511787 -1.65638 13.763
O -7.26697 10.7517 -1.24897
H -7.22965 9.823 -0.880069
H -6.51132 10.8864 -1.88995
O -5.43344 13.9876 7.70325
H -5.23194 13.4696 8.53457
H -6.39097 13.8511 7.44932
O 6.37742 -7.9764 2.28307
H 5.50806 -7.86146 1.80245
H 7.05988 -7.36056 1.88939
O 5.60421 2.73274 -10.3215
H 4.71727 2.63382 -10.7727
H 6.07114 3.54195 -10.6781
O -6.46003 -13.0563 3.80297
H -5.53001 -13.4078 3.69556
H -6.9984 -13.6991 4.34793
O 12.6936 -1.67492 11.7774
H 11.9629 -2.27529 12.1026
H 13.4132 -2.22502 11.3538
O 12.06 7.72693 -4.01362
H 12.7671 7.57898 -3.32209
H 11.2959 8.22791 -3.6072
O 8.25576 3.67976 -8.84439
H 8.10109 4.42334 -8.19387
H 7.41831 3.14187 -8.94104
O 11.89 1.20914 11.7577
H 12.3242 0.314533 11.6522
H 12.5544 1.92823 11.5541
O 13.185 11.1264 1.8218
H 12.4215 11.7661 1.91042
H 13.4263 10.7684 2.72379
O -11.2834 -13.655 -6.10365
H -10.5471 -13.6464 -5.42698
H -10.8953 -13.5535 -7.0197
O 1.58118 -6.60762 -1.46953
H 0.847346 -6.95553 -2.053
H 1.57741 -7.10067 -0.599537
O 5.45103 14.6042 12.9868
H 6.03841 14.1135 12.3432
H 5.45197 -14.4127 12.7626
O 12.756 3.73166 10.8106
H 12.2385 4.51999 10.4777
H 13.1711 3.95384 11.6928
O 5.02127 -4.01727 -4.10461
H 4.10928 -4.39245 -3.93878
H 5.70006 -4.74834 -4.03554
O 11.0404 -12.7382 -1.8012
H 11.3874 -12.0652 -1.14802
H 11.8047 -13.1318 -2.31195
O -12.8472 -9.77488 5.43025
H -13.0902 -10.6558 5.83633
H -13.6734 -9.22493 5.30809
O -7.98486 -13.4649 7.50179
H -8.29524 -13.8365 6.62681
H -7.84301 -14.213 8.15008
O -1.81058 -4.52678 13.8364
H -2.7547 -4.25408 14.0215
H -1.26215 -3.71478 13.6367
O 4.17805 -1.84163 6.04985
H 3.97055 -1.24689 6.82653
H 4.68034 -1.32312 5.35786
O -6.54714 0.546254 0.755041
H -7.09138 1.14671 1.34092
H -6.1018 -0.152023 1.31546
O 3.8713 3.46972 12.6053
H 3.47093 4.38607 12.6028
H 4.66542 3.45464 13.2129
O -4.7868 3.2794 8.52428
H -4.70402 3.79116 9.37941
H -5.16824 2.37447 8.71299
O -7.88693 -1.65278 10.0829
H -7.06313 -1.76704 9.5277
H -8.16614 -0.692619 10.0714
O 10.9596 -6.35501 -7.09746
H 11.5326 -6.79069 -6.40332
H 11.0226 -6.86959 -7.95259
O 5.96911 -7.70873 10.1192
H 6.50143 -7.6161 9.27776
H 5.04142 -7.3683 9.96593
O 7.44686 5.64787 -7.23657
H 8.21055 5.90042 -6.64243
H 6.65154 5.4157 -6.67661
O 7.66794 8.23311 -9.09226
H 8.11385 8.03654 -8.21903
H 7.02292 7.50049 -9.3095
O -13.053 -3.32969 -13.7823
H -12.7875 -3.32208 -12.8182
H -14.0076 -3.61665 -13.8629
O 9.21888 12.7336 -5.83945
H 8.48439 12.7366 -6.51806
H 10.0772 12.4677 -6.27839
O 10.6747 4.89912 6.70253
H 11.1045 4.15663 6.18877
H 9.68022 4.81993 6.63373
O -9.53957 1.13208 -10.8784
H -9.72752 1.19031 -11.8588
H -8.56707 0.947968 -10.7358
O 4.53723 4.2608 5.68179
H 4.43995 3.42771 6.2263
H 4.46373 4.03462 4.71048
O 6.41256 6.18292 10.7125
H 5.70669 6.73107 10.2638
H 7.11252 5.92967 10.0447
O 4.03327 3.56764 9.28715
H 3.40726 3.57915 10.0669
H 3.52785 3.33095 8.45738
O 4.703 2.84818 -3.3509
H 4.55158 3.81375 -3.13934
H 5.52899 2.53049 -2.88528
O -4.42288 -3.50193 14.182
H -4.70313 -3.76887 13.2599
H -4.80535 -2.604 14.3998
O -1.4858 5.54829 13.0773
H -0.54127 5.72546 12.8008
H -2.10982 5.9262 12.3934
O 8.85927 12.3109 -14.9066
H 8.7457 11.3799 -14.5597
H 9.30401 12.2811 14.1897
O 9.19428 -4.9108 5.05103
H 9.39154 -4.10356 5.60731
H 8.20599 -4.99401 4.92306
O 14.6447 -13.8224 8.694
H 14.9627 -13.2191 7.9626
H -14.7277 -14.6036 8.77445
O 3.27031 -9.43064 -2.17232
H 2.88366 -9.73892 -1.30315
H 4.19579 -9.08339 -2.02094
O -1.44693 8.13739 -3.44955
H -2.23615 7.60774 -3.76035
H -1.56283 8.37322 -2.48469
O 13.6187 9.3211 11.3605
H 13.6213 9.18612 10.3696
H 13.1707 8.54352 11.8016
O 7.84542 9.74457 4.6369
H 7.56324 9.43818 5.54602
H 8.31771 10.6227 4.71281
O 0.248971 -9.67832 13.5979
H 0.0271066 -10.0212 14.5107
H 1.16831 -9.97843 13.3435
O 6.60493 3.29634 10.0964
H 6.33728 3.94142 10.8121
H 5.89534 3.26628 9.39241
O -0.795316 9.28575 -12.1944
H 0.128767 8.95306 -12.3825
H -0.819488 9.70816 -11.2883
O -2.76267 -9.07668 -8.20469
H -2.1307 -9.60295 -7.63577
H -3.47077 -8.66979 -7.6276
O -12.3644 -2.78182 10.1912
H -13.2998 -3.08854 10.3669
H -11.7414 -3.22683 10.8345
O 12.1767 -7.28622 -4.94245
H 11.4193 -7.09925 -4.31682
H 12.4448 -8.24638 -4.8637
O -12.7538 5.12909 11.102
H -13.6033 5.62514 11.2815
H -12.6177 5.04739 10.1147
O 8.70096 -2.85204 11.7345
H 9.11904 -2.03645 11.3345
H 8.98353 -2.9369 12.69
O 4.19185 -2.52773 -6.29327
H 4.43474 -3.24174 -5.63661
H 3.3139 -2.74969 -6.71745
O 9.96818 0.627862 -8.11769
H 9.96575 1.02678 -9.03467
H 10.6674 -0.0852378 -8.06627
O 9.16889 -0.501467 -2.16619
H 8.60726 -1.18635 -2.63042
H 9.84764 -0.138633 -2.80466
O 9.59421 12.4752 12.38
H 10.4717 12.0346 12.1905
H 9.74726 13.307 12.9134
O -9.68499 9.89024 4.58162
H -8.88933 9.28501 4.60645
H -10.4341 9.43631 4.09919
O 7.29282 -5.1053 14.5695
H 6.37674 -5.4058 14.304
H 7.97507 -5.69935 14.1433
O 1.04757 14.5941 2.47293
H 1.073 14.908 3.42203
H 0.935602 13.6006 2.45336
O -3.15114 -11.0821 -2.99475
H -2.39992 -11.6419 -2.64504
H -3.74188 -10.8058 -2.23665
O 2.3847 11.3255 -0.430682
H 2.13553 10.8242 0.397944
H 3.32949 11.6445 -0.355838
O -11.4004 -13.8729 -1.18851
H -12.1629 -14.3483 -1.62738
H -10.6589 -13.7518 -1.84845
O -8.66126 -4.69874 5.2471
H -8.75934 -4.69832 6.24228
H -8.45975 -5.62629 4.93242
O 2.54471 -13.5188 -8.80708
H 2.98216 -12.6273 -8.68896
H 1.68375 -13.4045 -9.30275
O -6.89272 4.3503 6.68516
H -6.24362 3.58966 6.69514
H -6.39788 5.20903 6.55207
O 10.8383 -6.37865 0.751565
H 11.6009 -6.0963 1.33356
H 10.4099 -5.57019 0.348046
O -3.27103 14.6021 14.2093
H -3.36285 -14.4316 14.4817
H -3.79424 14.0254 14.8368
O 13.0649 -14.4551 -0.0302528
H 12.2166 -14.2309 0.449507
H 12.8705 -14.6017 -1.00017
O 12.4485 -9.95024 -5.1204
H 11.6434 -10.476 -4.84577
H 12.7457 -10.2457 -6.02834
O -2.10886 9.67088 -14.7225
H -2.03849 10.6495 -14.9157
H -1.76628 9.48761 -13.801
O 1.50721 -5.27926 -11.3468
H 0.680612 -5.29273 -11.9095
H 2.14126 -4.59255 -11.7024
O -0.743002 1.95967 7.48768
H -1.34897 2.6487 7.09013
H -1.16552 1.57889 8.31016
O 13.4463 -12.8898 -11.3799
H 13.2436 -13.7623 -10.9354
H 13.0564 -12.8863 -12.3007
O 0.66447 12.0849 12.8493
H 1.31498 11.4167 13.2104
H -0.0496308 12.2554 13.5283
O -14.4515 -0.574192 4.02246
H 14.8786 -1.2958 4.22724
H -14.9118 0.173816 3.54428
O 13.7442 0.148677 7.93308
H 12.98 -0.381592 8.30014
H 14.1092 0.745748 8.64744
O -10.7936 11.8887 -12.1278
H -10.5947 11.3119 -11.3355
H -10.411 12.8008 -11.9805
O 1.01553 6.93131 -8.83021
H 1.43744 7.83768 -8.80834
H 0.900051 6.64024 -9.77992
O 8.93156 3.53702 -12.7467
H 9.20157 2.63608 -13.0864
H 9.48735 3.77298 -11.9495
O 2.17712 -12.9265 8.41379
H 2.23397 -12.1543 9.04665
H 2.10112 -13.7779 8.93277
O -7.20581 -0.154438 -4.00093
H -8.14623 -0.480426 -3.90425
H -7.20841 0.837142 -4.13039
O 13.3184 -6.38452 -1.28235
H 13.8642 -6.74497 -2.03875
H 13.8825 -6.33523 -0.458121
O -5.73167 2.84566 -8.29194
H -5.81702 1.96628 -7.82354
H -4.80121 2.94682 -8.64408
O -4.88504 8.62253 14.4791
H -4.1743 9.05209 -14.9553
H -4.62822 7.67621 14.2828
O 0.110709 -7.18873 12.0613
H 0.525996 -8.01422 11.6791
H -0.545624 -6.81237 11.4074
O 10.8391 -9.89522 -12.8053
H 11.6813 -9.42295 -12.5451
H 10.3643 -9.36667 -13.5091
O -2.9877 10.4981 10.2524
H -3.31354 11.2829 9.72527
H -3.13038 9.66023 9.72548
O -6.82454 3.67776 -10.957
H -7.06442 4.64752 -10.912
H -6.62984 3.33948 -10.0363
O 10.5819 14.6349 13.9327
H 11.3742 -14.9324 13.494
H 10.642 14.7611 14.9229
O 6.534 2.16946 14.2713
H 7.05987 1.3295 14.4052
H 7.15923 2.92939 14.0936
O -5.14807 0.718989 9.48921
H -6.05325 0.717517 9.0642
H -5.11809 0.0285646 10.212
O -10.514 1.06358 12.2744
H -10.7826 0.388578 12.9616
H -10.7198 1.98232 12.6114
O 9.73513 -7.86541 -3.6916
H 9.54648 -7.94292 -2.71262
H 9.43157 -8.69715 -4.15642
O -13.8476 -4.80044 -7.69372
H -13.3927 -4.34187 -6.93033
H -14.2991 -4.11951 -8.27032
O 6.14496 13.7671 -2.22032
H 5.39608 13.7083 -2.88041
H 6.94803 13.2954 -2.58444
O -6.0949 8.83192 -11.7404
H -6.40596 9.06873 -12.6608
H -6.36661 7.89328 -11.5279
O -7.1352 4.47539 3.92805
H -7.3819 4.10057 4.82172
H -7.4725 5.414 3.85562
O -1.37039 12.6333 14.9209
H -2.10398 13.2037 14.5515
H -1.32082 12.7546 -14.0792
O 13.0112 1.09751 -1.79897
H 12.386 0.909611 -2.55647
H 13.2139 2.07628 -1.76907
O -3.66942 -5.30676 11.7102
H -3.2502 -5.80184 10.9492
H -2.9734 -5.10202 12.3984
O -13.8991 9.56254 8.78522
H -14.8152 9.30089 8.48151
H -13.2233 9.23874 8.12308
O 2.64316 -5.31107 -3.46356
H 2.39564 -5.6904 -2.57202
H 1.81604 -5.17337 -4.00847
O -14.8938 -4.44245 13.4712
H 14.8149 -4.53495 14.4259
H -14.181 -3.74467 13.4008
O 10.8442 12.9838 1.81039
H 9.86069 12.9261 1.98189
H 11.0038 13.4419 0.935937
O -0.914852 13.9711 5.5862
H -1.69756 13.7042 5.02398
H -1.0436 13.6335 6.51862
O -12.8903 -6.72991 -9.38599
H -13.3011 -6.07432 -8.75235
H -11.9454 -6.46317 -9.57545
O -10.856 8.02163 -4.09853
H -11.5583 7.40067 -3.75055
H -10.7119 8.76287 -3.44292
O 7.58315 -4.31459 -12.8756
H 8.40292 -3.74192 -12.8796
H 7.28602 -4.47788 -13.8164
O 6.81127 1.58197 -1.82641
H 7.69245 1.12684 -1.95431
H 6.6917 1.81137 -0.860448
O 4.25594 7.13038 9.4098
H 3.79242 6.53447 8.75402
H 3.79294 8.01621 9.44036
O 6.07405 -0.975075 4.13126
H 6.04095 -1.4441 3.2487
H 7.02639 -0.871517 4.41817
O -4.79351 7.61561 0.827716
H -3.99204 7.99114 0.362299
H -4.49839 6.9624 1.52501
O -10.9881 -5.75641 10.8988
H -10.4547 -4.94196 11.1271
H -11.3365 -5.67572 9.96492
O 13.6499 11.5655 -14.7695
H 13.0632 11.5692 14.4121
H 13.6892 10.6409 -14.3906
O 14.2858 6.09023 -9.59945
H 13.3937 6.09782 -9.14772
H 14.8502 5.3622 -9.21037
O -14.2444 3.40304 -9.93599
H -13.8423 3.02803 -9.10072
H 14.752 3.31198 -9.89688
O -7.85477 -4.45751 2.45503
H -7.70084 -4.26069 3.42331
H -8.71565 -4.9551 2.3488
O -5.40461 -0.0389803 -13.0573
H -5.90861 0.80293 -13.2501
H -4.43995 0.177119 -12.9065
O 9.22428 8.32863 2.9987
H 9.50609 9.00058 2.31382
H 8.92223 8.8024 3.82593
O -12.1162 11.5511 -8.09193
H -12.5885 10.672 -8.1558
H -11.2177 11.4791 -8.52502
O -0.35592 -9.39352 -6.64782
H -0.684283 -9.70604 -5.75646
H 0.432097 -9.94358 -6.92432
O 9.58978 2.19282 5.31373
H 10.3647 2.73702 4.99219
H 9.70511 1.99076 6.28629
O -7.64212 -8.35484 0.145246
H -8.12956 -8.51623 1.00336
H -8.28691 -8.03616 -0.549512
O -2.32696 -6.14708 -10.0881
H -2.35303 -6.16842 -9.08866
H -2.17393 -5.20857 -10.3976
O -10.6191 9.31958 -1.81221
H -10.6001 10.2467 -1.43788
H -10.7892 8.66584 -1.07485
O 0.399276 -5.32468 -5.18916
H -0.137097 -4.59751 -5.61757
H 0.665716 -5.99472 -5.88202
O -3.6563 14.2688 11.3627
H -2.85069 14.649 10.9083
H -3.49917 14.2389 12.3498
O 3.07665 2.11948 7.0883
H 2.85825 2.16242 6.11338
H 2.92534 1.18942 7.42311
O 2.08365 10.1835 -3.8944
H 2.62885 10.2676 -4.72846
H 2.32426 9.33492 -3.42313
O -2.16116 -6.1987 4.02025
H -2.36401 -5.46051 3.37688
H -1.17709 -6.22686 4.19574
O -7.75427 -14.5004 0.430941
H -8.41323 -13.7671 0.598484
H -8.23749 14.6184 0.360284
O -6.27089 -7.63699 -12.6914
H -6.13398 -6.73624 -13.1036
H -6.48726 -8.30146 -13.4067
O 4.4818 -10.1661 3.35578
H 4.82882 -10.431 4.25544
H 5.24868 -10.0413 2.72624
O -5.61837 -4.26894 -1.56508
H -5.91964 -3.32112 -1.46082
H -5.88821 -4.79508 -0.758628
O -3.5978 -2.27735 8.23175
H -4.55776 -2.16836 8.48983
H -3.37656 -1.63972 7.49386
O 0.250197 13.7706 -4.63442
H -0.713383 13.7991 -4.90032
H 0.791731 14.3012 -5.28649
O -3.31669 -5.26164 -2.87962
H -4.19356 -4.99496 -2.47964
H -2.94323 -4.49661 -3.40428
O -12.9047 -8.67859 -11.0998
H -12.9213 -8.02431 -10.3437
H -13.5826 -9.39512 -10.9355
O 14.547 4.33404 -7.12203
H -14.8003 3.57139 -7.18052
H 13.6274 4.01151 -7.3461
O 8.19171 -0.0592098 13.9272
H 9.15223 0.02156 14.1934
H 8.12418 -0.581831 13.0773
O 11.0016 9.62341 9.62931
H 10.4433 9.88915 10.4152
H 10.6187 8.79931 9.21187
O 14.0767 13.5905 4.71704
H 14.1382 13.525 3.72109
H 14.4551 12.7619 5.1296
O 6.25581 -4.83994 3.27611
H 5.77263 -5.50474 2.70639
H 6.31569 -3.96708 2.79184
O -4.49575 5.37424 10.4726
H -3.5582 5.67252 10.6516
H -4.95524 6.04822 9.8941
O -14.9567 0.304083 -6.2752
H 14.6355 0.69274 -7.10561
H 14.8937 -0.685901 -6.26936
O 0.554698 1.29597 -11.1596
H 0.332995 0.942929 -10.2507
H -0.243419 1.76381 -11.5393
O -4.16635 -7.63483 14.5332
H -3.85938 -7.87088 -14.5363
H -3.43463 -7.15256 14.0516
O 12.512 11.9281 8.551
H 12.2146 10.9742 8.511
H 13.4405 11.9726 8.9196
O -9.33721 1.07453 -13.6502
H -8.41561 1.34334 -13.9302
H -9.97365 1.82319 -13.8359
O -1.20517 -9.3756 -3.98117
H -1.94829 -9.80388 -3.46702
H -0.967156 -8.50164 -3.55744
O -10.6064 -6.17524 -10.6589
H -10.6798 -6.92298 -11.3188
H -10.1615 -5.39122 -11.0917
O -14.3294 -6.93945 -3.92879
H -14.3345 -7.92953 -4.06914
H -14.7685 -6.49022 -4.70687
O -11.6432 6.55528 -0.460921
H -12.4757 7.10787 -0.502548
H -11.8827 5.58652 -0.525314