2611
Atoms. Timestep: 23000000
O -6.11768 11.4938 5.34831
H -7.02649 11.6807 4.97518
H -6.20581 10.9576 6.18777
O -7.89371 -13.8361 1.82192
H -8.65768 -13.8164 1.17693
H -7.10309 -13.3774 1.41625
O -5.75213 -7.55185 6.3867
H -6.28674 -6.7099 6.45995
H -6.34556 -8.33914 6.55433
O 13.9708 -4.19534 7.10333
H 13.0848 -4.00724 7.52718
H 14.0476 -3.68097 6.24917
O 11.6424 5.4644 -11.9878
H 11.467 5.40981 -12.9708
H 11.8803 6.40447 -11.7433
O -4.08607 -4.16413 7.83554
H -3.16131 -3.82018 7.99862
H -4.18356 -4.4144 6.87226
O -6.39394 -2.8207 -5.27668
H -6.78561 -3.21574 -6.1077
H -5.83883 -3.5092 -4.8099
O 9.38256 0.832715 -14.3983
H 8.88766 0.774365 14.582
H 9.67333 1.77691 -14.2434
O -11.2096 -7.51647 -7.31507
H -10.2843 -7.25912 -7.59367
H -11.8481 -7.3222 -8.05981
O 5.40879 9.28277 -1.28686
H 5.07786 8.38254 -1.00379
H 5.4272 9.33226 -2.2855
O 1.0011 -7.24759 11.0254
H 0.874944 -8.20959 10.7831
H 0.109034 -6.8001 11.0889
O 7.55805 -4.05116 7.73531
H 7.36103 -4.26321 8.69254
H 8.5468 -4.06907 7.58663
O -9.93867 8.89896 9.42936
H -10.6161 9.27636 8.79795
H -9.14958 9.51146 9.47673
O 13.4807 2.33012 5.15867
H 12.6186 1.8531 5.32977
H 14.2438 1.69801 5.29334
O 13.8733 -12.2431 3.17156
H 14.032 -11.8997 4.09729
H 14.2345 -11.5889 2.50695
O -2.5778 7.38521 10.5176
H -3.18359 7.69064 9.78294
H -3.05685 6.71917 11.0895
O -9.65384 -8.31702 5.50188
H -10.4337 -8.31695 4.87592
H -9.4903 -7.38688 5.83074
O -6.74295 12.4842 -14.526
H -6.62247 13.4561 -14.7284
H -5.84777 12.042 -14.4696
O -9.59053 2.10865 -2.74044
H -10.3992 1.5732 -2.49675
H -8.94798 2.10946 -1.97416
O 11.7617 10.6935 -13.9007
H 11.1445 11.4693 -13.7697
H 12.628 11.0172 -14.2813
O -10.326 -10.0403 12.0874
H -10.2754 -9.53811 12.9507
H -10.5277 -11.0021 12.2726
O 12.9172 -5.01534 3.47835
H 13.5774 -5.76536 3.43772
H 12.0015 -5.38544 3.63547
O 12.6564 -6.68853 -0.726617
H 11.6984 -6.4022 -0.745987
H 13.0815 -6.49029 -1.60983
O -7.40493 -9.78912 12.1317
H -7.10848 -8.93903 11.6963
H -8.39285 -9.89487 12.0181
O -6.03356 0.636245 -9.30736
H -6.61416 0.621799 -10.1215
H -5.10208 0.372026 -9.55754
O 5.78752 -5.07299 3.77834
H 5.94976 -4.19082 4.22053
H 5.56934 -5.75878 4.47271
O -5.16333 3.69205 -11.824
H -4.1711 3.59817 -11.906
H -5.40571 3.84366 -10.8657
O 5.1685 5.7912 -12.0808
H 5.36669 6.4963 -12.7616
H 4.75996 6.2143 -11.272
O 8.06137 -9.3861 11.4655
H 7.08627 -9.52737 11.2944
H 8.35961 -8.54303 11.0179
O 3.65381 -3.30386 -6.58992
H 4.17956 -3.01425 -7.38977
H 4.24661 -3.30671 -5.78454
O -13.3447 -9.36953 -11.1662
H -13.8565 -9.94221 -11.8066
H -12.7346 -8.76278 -11.6758
O 11.1536 1.4381 10.1753
H 10.6968 1.01125 9.39475
H 10.6531 2.26067 10.4454
O -3.38254 -4.1716 -1.67162
H -3.16585 -4.93255 -1.06001
H -2.57395 -3.93703 -2.21126
O -7.81807 -0.89958 -12.0755
H -7.91746 0.069337 -11.8489
H -8.31649 -1.09725 -12.9197
O 10.3325 3.93535 10.6127
H 10.0713 3.90322 11.5775
H 11.0858 4.58202 10.4926
O -4.1061 11.9432 -14.0307
H -3.48755 12.1649 -14.7846
H -3.7217 12.2843 -13.1728
O 7.91316 -14.7142 -5.06956
H 8.14089 -13.7664 -4.8463
H 7.6546 14.6468 -4.2348
O 9.88132 0.785005 3.90149
H 8.90029 0.976891 3.87284
H 10.2909 1.25814 4.68154
O 1.96096 -11.7306 -6.78582
H 1.48361 -11.3877 -7.59491
H 2.36328 -10.9635 -6.2861
O 11.3416 5.39176 -14.6771
H 11.2916 6.37883 -14.8295
H 11.0934 4.91156 14.3289
O -4.09701 6.07711 -7.26357
H -3.13172 6.08224 -7.5248
H -4.381 7.00419 -7.01875
O 1.318 10.6519 11.7179
H 2.28937 10.5345 11.9245
H 0.85965 9.76387 11.7548
O -4.4038 -9.26688 -13.3678
H -4.26092 -10.2474 -13.5028
H -3.55201 -8.84572 -13.0561
O -12.932 -3.36603 13.0622
H -13.8202 -3.27988 13.5135
H -13.0478 -3.25749 12.0748
O 4.7742 -6.3774 -14.4234
H 4.00295 -6.68874 14.8686
H 4.4506 -5.7215 -13.7414
O -8.85376 14.3355 -3.3725
H -8.53845 13.4134 -3.59727
H -8.10286 -14.8632 -3.49686
O 1.04434 9.17062 7.84619
H 1.15255 9.86792 8.5548
H 1.93536 8.96637 7.44071
O 7.4178 11.0703 -7.08708
H 7.2122 10.2643 -7.64216
H 7.11874 11.8931 -7.57052
O 6.72518 9.73349 -14.7896
H 6.98308 9.99209 14.1267
H 7.23801 8.91991 -14.5155
O -0.429163 13.401 -5.35688
H -0.0222061 14.3133 -5.40344
H -0.919139 13.2984 -4.49117
O 6.42208 4.7374 11.3135
H 6.82867 5.49177 10.798
H 6.26394 3.96255 10.7014
O -5.59177 9.71357 -1.40813
H -4.9366 9.53453 -2.14213
H -5.88771 10.6678 -1.45093
O 3.73738 -9.04863 -0.947834
H 4.22688 -9.26756 -0.10372
H 4.28264 -9.33904 -1.73423
O 6.49651 -10.3766 -8.99213
H 7.41953 -10.0528 -8.78412
H 6.28232 -11.1655 -8.41614
O -10.8985 7.74874 4.81595
H -9.93796 7.5728 4.60047
H -11.4761 7.10525 4.31356
O 0.717758 14.1586 -12.8239
H 1.13783 13.2791 -12.5997
H 0.943313 14.4051 -13.7664
O -5.53296 4.69224 9.91771
H -5.84192 5.44812 9.34043
H -4.93085 4.09373 9.38921
O -8.46464 0.772515 1.82639
H -8.23182 -0.0823199 1.36258
H -8.35435 1.53707 1.19129
O -9.61365 -1.85709 6.34097
H -8.86858 -2.03916 5.69927
H -9.31779 -2.08507 7.26863
O -1.94288 12.231 7.80798
H -2.62336 12.5905 8.4465
H -1.05695 12.6577 7.98976
O 7.14828 -13.4708 6.54762
H 8.13935 -13.4666 6.68112
H 6.88015 -12.6674 6.0159
O 9.5172 7.40275 -2.8874
H 9.22385 8.07957 -2.21218
H 9.63819 6.51652 -2.44016
O -5.43762 2.21742 -4.42763
H -5.22818 1.7598 -3.56347
H -6.38238 2.01965 -4.68911
O -13.9892 1.22101 7.32292
H -13.237 0.587838 7.14025
H -13.8513 1.65429 8.21361
O -4.68 8.60724 -12.7108
H -4.86617 9.33647 -13.3693
H -4.3305 7.8039 -13.1931
O 0.772108 6.83723 -1.99943
H 0.21713 6.27094 -2.60883
H 1.53047 6.29433 -1.63858
O 10.5196 -10.1356 10.3008
H 10.4025 -10.1613 9.30802
H 9.63745 -9.95527 10.736
O 6.97635 -13.4713 14.1865
H 6.51019 -13.029 -14.8946
H 6.56895 -13.1644 13.3264
O -6.80968 -10.8541 14.7102
H -6.99551 -10.5337 13.7813
H -5.94776 -10.462 -14.8155
O -8.48748 2.35615 -8.43776
H -9.4802 2.47688 -8.43817
H -8.26248 1.44642 -8.08872
O -0.816959 -7.4679 6.11419
H -1.68527 -7.64468 6.5777
H -0.463086 -6.57664 6.39788
O 10.252 -1.705 9.59276
H 10.397 -1.1503 8.7734
H 10.9623 -2.40655 9.65035
O -0.369071 -3.10495 11.159
H -0.36455 -2.10635 11.2123
H 0.539014 -3.45512 11.3888
O -9.01113 -12.2377 -5.50554
H -8.63078 -11.3522 -5.77243
H -9.88236 -12.3814 -5.97498
O -2.16996 -3.31971 14.5038
H -1.22938 -3.00184 14.3841
H -2.44528 -3.85446 13.7048
O 14.9134 -2.59871 0.238355
H 14.5106 -2.73018 -0.667499
H 14.4139 -3.14824 0.908147
O -13.6216 6.59014 -1.93455
H -14.0427 7.28859 -2.51321
H -13.1097 7.03195 -1.19774
O 13.6598 -1.72405 9.9352
H 13.792 -0.849243 10.4013
H 13.9811 -1.65052 8.99102
O 3.55428 -12.2146 7.76933
H 3.69093 -13.127 8.15516
H 4.20672 -12.0658 7.0262
O 10.3068 -10.3855 -11.3768
H 11.2784 -10.5296 -11.1887
H 10.1878 -9.52763 -11.8768
O -12.6313 12.8759 12.986
H -12.2906 12.1011 12.4534
H -13.2235 12.5417 13.7193
O 13.9086 14.7401 2.1658
H 13.9616 -14.1353 2.39534
H 14.0475 14.6217 1.18257
O -12.6235 -9.1985 8.20725
H -12.4293 -10.0891 8.6186
H -12.7209 -8.51241 8.92826
O 10.6226 -12.1438 3.07474
H 11.4044 -11.5463 2.89626
H 10.0674 -11.7557 3.81037
O 11.6138 4.10354 0.519896
H 12.4222 4.1367 -0.0678759
H 11.8994 4.05675 1.47714
O 0.637713 9.46753 -14.8807
H 1.1385 10.2597 14.6176
H 0.896482 8.65384 14.446
O 5.74051 -13.0612 11.638
H 5.12287 -12.2778 11.568
H 6.09347 -13.2896 10.7306
O 10.2695 -7.11424 -3.47386
H 9.67632 -7.80663 -3.88478
H 9.98953 -6.20687 -3.78752
O -13.7032 2.36185 -0.713078
H -14.1831 3.23381 -0.615753
H -13.5303 1.97367 0.192178
O -3.75438 13.7139 9.53736
H -4.74108 13.8324 9.64895
H -3.27419 14.4499 10.0146
O -1.27221 -3.95745 8.7621
H -0.995449 -3.62991 9.66552
H -1.54291 -4.91813 8.82436
O -13.6682 2.32443 9.57018
H -13.0458 2.91484 10.0841
H -14.3232 1.90386 10.198
O -4.67385 -1.93459 4.71842
H -3.80599 -1.57552 5.06186
H -4.60699 -2.92718 4.61665
O -14.3117 -10.0223 -1.998
H 14.7224 -10.1064 -2.57384
H -13.8098 -9.19444 -2.24884
O 9.68986 -13.5023 7.18501
H 9.45742 -13.4192 8.15409
H 10.6689 -13.6836 7.09142
O 12.8645 12.8211 -2.02691
H 11.9605 13.1467 -2.30402
H 13.521 12.9957 -2.76077
O 4.27197 -10.7276 1.29605
H 4.86227 -11.41 1.72736
H 4.48378 -9.82263 1.66506
O 5.29367 -14.8504 1.25918
H 5.95647 14.2569 1.14443
H 4.38596 14.6093 1.42023
O -4.861 -10.2726 -3.79299
H -5.05017 -11.1147 -3.28784
H -4.2923 -10.4818 -4.58854
O 0.333916 -2.27791 14.0318
H 0.864312 -1.59512 13.5292
H 0.7744 -3.17158 13.9458
O 3.85878 -11.348 12.9533
H 3.31147 -11.1584 13.7685
H 3.26205 -11.6719 12.2191
O -13.382 10.1496 -8.45508
H -12.8923 10.9744 -8.17242
H -14.265 10.4047 -8.84902
O -1.55621 3.75204 4.60654
H -1.92923 4.39107 3.93381
H -2.18579 2.98357 4.72116
O -1.70987 0.786699 14.3611
H -1.43146 1.73829 14.2307
H -1.00236 0.29961 14.8732
O 13.5122 -3.27073 -4.7791
H 13.1952 -2.46051 -4.28603
H 12.9265 -3.4273 -5.57439
O -2.67346 3.17152 -3.4473
H -2.5103 2.32851 -3.95991
H -3.6401 3.22783 -3.19731
O 9.44382 -7.29556 9.89534
H 8.74739 -6.75683 10.3695
H 10.3434 -6.88648 10.0488
O 7.55491 -4.91779 1.72199
H 7.28761 -5.18853 0.797157
H 6.81034 -5.12231 2.35748
O -0.665778 -10.1204 2.04127
H -0.147983 -10.9644 2.18127
H -0.0481175 -9.39813 1.72992
O -7.9388 2.58527 -0.297391
H -7.03293 2.2815 -0.00211403
H -8.22222 3.37138 0.251935
O 7.45204 -9.28862 4.72599
H 7.45127 -8.31217 4.94186
H 6.53365 -9.66059 4.86113
O -3.76571 -1.12382 -8.60721
H -4.30339 -0.439403 -8.11473
H -4.28037 -1.97984 -8.65631
O 6.63404 -2.86523 5.44441
H 6.74028 -3.32362 6.32682
H 6.95801 -1.92197 5.51765
O -1.64433 4.67391 11.6527
H -2.62669 4.85252 11.5967
H -1.18699 5.07427 10.8586
O -10.197 -10.5625 -2.39441
H -9.73766 -9.88239 -2.96586
H -9.52259 -11.0234 -1.81752
O -1.96264 12.5605 14.0395
H -2.61564 12.4692 13.2876
H -2.10134 13.439 14.4966
O 14.2766 -1.15615 7.36188
H 14.8257 -0.320492 7.37529
H 14.2271 -1.50748 6.42691
O -9.70737 9.65043 2.66322
H -9.48892 9.83008 3.62242
H -8.9217 9.88856 2.09218
O -9.64259 -10.728 6.91359
H -9.78499 -10.0249 6.21685
H -8.84117 -11.2764 6.6748
O -10.4212 13.3743 3.50577
H -10.8791 12.5082 3.30504
H -9.45257 13.3022 3.26781
O 5.43781 8.64752 -4.15806
H 5.11081 7.72043 -3.97464
H 6.36413 8.60624 -4.53262
O 11.2953 -9.10401 -7.16807
H 11.8284 -9.70161 -6.56914
H 11.6406 -8.16812 -7.09823
O -13.7771 4.47974 5.5681
H -14.5738 3.93063 5.82079
H -13.0857 3.89099 5.14917
O 12.1413 6.5595 -7.12202
H 12.4746 5.67736 -6.78917
H 11.1764 6.47845 -7.37209
O 8.61295 -3.20159 11.2993
H 9.20046 -2.79295 10.6008
H 9.13881 -3.33825 12.1389
O 0.810289 -9.6974 10.032
H 1.45268 -10.446 10.1961
H 0.257097 -9.90379 9.22483
O 9.91317 -5.84199 -0.858491
H 9.42859 -6.25902 -1.62747
H 10.3095 -4.9705 -1.14741
O 4.17406 -3.35263 9.68168
H 3.43787 -3.85738 10.1326
H 4.90826 -3.17712 10.3376
O 5.3546 -11.5603 -11.1832
H 5.80519 -11.3557 -12.0522
H 5.82988 -11.0867 -10.4417
O 14.739 9.07215 -2.82145
H 13.8796 8.65997 -2.51885
H -14.9026 9.8691 -2.25344
O 14.0176 10.59 11.8724
H 14.1917 9.92365 12.5975
H 14.1306 10.1502 10.9814
O -13.6998 6.52678 -6.10942
H -14.4567 6.40791 -6.7521
H -12.9162 6.92423 -6.58707
O 6.35021 -10.4207 13.5139
H 5.48375 -10.2977 13.03
H 7.09338 -10.5065 12.8503
O -12.6839 13.3552 0.660772
H -11.9786 12.7146 0.357167
H -13.2965 12.8961 1.30424
O -4.24028 9.641 4.59405
H -4.97688 10.2641 4.85725
H -4.62444 8.85962 4.1022
O 8.59262 7.52761 0.306394
H 8.02185 8.33806 0.43851
H 8.1873 6.75197 0.790291
O 5.5114 10.7245 10.4046
H 5.11664 11.5525 10.0062
H 5.61999 10.031 9.69232
O -2.53993 7.53108 1.69443
H -2.14831 7.01385 0.93339
H -3.40554 7.94177 1.40788
O 1.80183 -11.133 -14.6459
H 1.56389 -11.7253 -13.876
H 0.96985 -10.7256 14.8247
O 5.98943 0.72952 -1.8259
H 5.93613 -0.0299862 -2.47426
H 5.236 1.36513 -1.99441
O -14.0092 -11.0846 -13.1562
H -14.4485 -10.405 -13.7437
H -14.5763 -11.9074 -13.1166
O -10.3972 -3.32342 14.6879
H -10.1627 -4.28978 14.582
H -11.2594 -3.13611 14.2173
O 13.7945 9.75337 2.25321
H 12.9213 10.1301 1.94399
H 13.9981 10.0939 3.17116
O 5.4893 4.83289 7.07577
H 4.86623 4.24412 6.5608
H 6.00522 4.28042 7.73049
O 3.94512 -7.63731 11.1793
H 3.02163 -7.29708 11.0019
H 4.44951 -6.96526 11.7216
O 14.3032 -3.45864 12.6318
H 14.2711 -2.89567 11.8059
H 14.5151 -4.40375 12.3829
O 4.47153 7.82387 -13.749
H 3.62693 7.97548 -13.2354
H 4.72784 8.66521 -14.2249
O -13.343 0.615599 -14.1085
H -14.0761 0.954112 -13.5185
H -13.1482 -0.339141 -13.8837
O -2.34077 -4.68907 -13.0234
H -2.40348 -4.12029 -13.8435
H -1.38105 -4.7924 -12.762
O -4.97495 2.03963 13.6975
H -5.28037 2.27798 12.7756
H -4.33207 1.27519 13.6485
O -0.808063 5.46507 -3.72553
H -1.40303 4.66331 -3.78271
H -1.23277 6.23047 -4.2091
O -3.39522 1.04693 -13.0919
H -3.77733 0.157914 -13.3443
H -2.87354 1.41604 -13.8611
O 6.18811 -6.20428 -0.737026
H 6.37798 -5.42505 -1.33436
H 6.54227 -7.04005 -1.15668
O 6.26922 -1.16781 -14.091
H 6.21571 -0.201698 -13.8384
H 7.07328 -1.58029 -13.6627
O 3.5595 4.38549 -13.7888
H 3.85216 4.61718 -14.7165
H 4.1078 4.89861 -13.1284
O -2.62128 -4.50568 12.0134
H -3.01063 -5.35427 11.6551
H -1.99879 -4.11269 11.3365
O 2.42396 -12.6083 -0.0896973
H 1.54498 -12.1314 -0.0826913
H 3.15889 -11.9554 0.0936173
O -9.81732 4.54096 -4.66915
H -10.7435 4.53492 -4.2921
H -9.21073 4.01662 -4.07152
O 2.56052 -8.02069 -11.5773
H 1.6131 -7.7364 -11.7244
H 2.88824 -7.65115 -10.7078
O 2.20036 -4.22326 -8.64071
H 2.70185 -3.91231 -7.83332
H 2.02732 -3.44585 -9.24549
O -0.330673 -10.1016 7.56855
H -0.876181 -9.4872 6.99852
H 0.503625 -10.3569 7.0798
O 7.296 -8.28319 -2.26772
H 8.07791 -8.84302 -1.99337
H 6.56084 -8.87587 -2.59686
O 11.5853 7.1035 12.7808
H 12.3174 7.76389 12.6133
H 11.792 6.24887 12.3044
O 3.23612 13.2925 10.8254
H 2.38376 12.7721 10.7737
H 3.25299 13.8209 11.6743
O 13.2214 -10.478 -11.225
H 14.1782 -10.712 -11.3973
H 13.131 -9.48567 -11.1398
O -0.387084 -9.77963 14.3079
H -0.585637 -8.81664 14.4903
H -0.488407 -9.96134 13.3297
O -7.17613 10.622 -9.2898
H -6.41526 10.7208 -8.64842
H -6.94553 11.0721 -10.1525
O -14.3804 2.20822 -8.38884
H -13.5562 2.74325 -8.20316
H -14.6836 1.76037 -7.54767
O -12.4103 -13.8903 1.77353
H -13.0218 -13.2534 1.30401
H -12.5645 -14.8162 1.42839
O 8.1272 -4.6072 -8.44296
H 9.07712 -4.80796 -8.68257
H 8.08041 -3.72301 -7.97813
O 1.24155 4.7216 4.95209
H 0.306719 4.6022 4.61757
H 1.32452 4.31483 5.86188
O -0.561077 -7.30565 -14.3739
H -1.38153 -6.73624 -14.3222
H -0.245277 -7.52004 -13.4496
O 10.6778 -6.03288 -7.42415
H 11.5711 -6.38958 -7.15039
H 10.6925 -5.80974 -8.39886
O 1.12121 -12.3238 2.73327
H 1.77696 -11.6775 3.1236
H 0.816151 -12.9587 3.44309
O -0.705007 8.36385 12.1932
H -1.29053 7.99123 11.4732
H -0.444931 7.63218 12.8233
O 14.7918 0.219955 1.17587
H 13.9448 0.699802 0.94689
H 14.8895 -0.582817 0.5876
O 12.3808 12.7591 -9.53558
H 13.2642 12.331 -9.72647
H 12.4669 13.3614 -8.74195
O 10.9009 -0.244296 12.7316
H 11.0257 0.0178749 11.7747
H 10.7069 -1.22381 12.7863
O -9.58156 -5.08841 -6.75578
H -8.77658 -5.45983 -7.21852
H -10.2322 -4.75249 -7.43689
O 10.3748 -1.73618 -8.44581
H 10.6902 -0.787592 -8.47366
H 10.4117 -2.12686 -9.36563
O 0.247421 13.9159 -1.0755
H 0.203224 14.9033 -1.2271
H 0.207469 13.7272 -0.0942513
O 4.7924 13.8285 -14.1054
H 4.47782 14.5222 -13.4574
H 4.47243 12.9279 -13.811
O -14.8871 -14.227 13.5922
H 14.1992 -14.8294 13.8332
H -14.1193 -14.3963 14.2101
O -7.97869 -6.58218 2.62712
H -7.21742 -6.60342 3.27525
H -8.2457 -7.51772 2.39577
O -12.0591 10.5912 -11.0606
H -11.5114 9.75638 -11.0049
H -12.3 10.894 -10.1385
O -10.601 14.6374 -12.4911
H -10.4863 -14.308 -12.0746
H -9.7084 14.283 -12.7699
O -13.6479 -9.27784 -8.36996
H -13.6806 -9.4299 -9.35782
H -13.7448 -8.30086 -8.17971
O 12.8868 7.63742 -10.8649
H 13.5565 7.8674 -11.571
H 13.2927 7.77868 -9.96186
O -1.1848 -11.1469 -6.93853
H -0.952526 -10.1746 -6.91223
H -0.662681 -11.5948 -7.66436
O 10.5317 -5.53719 -14.0741
H 11.2801 -4.94513 -14.3731
H 9.76246 -5.44731 -14.7068
O 6.73118 -7.52122 13.8038
H 6.65845 -8.4251 13.3821
H 6.19724 -7.50381 14.6491
O -9.1054 4.52002 4.83189
H -9.27358 5.47082 5.09218
H -8.38185 4.13971 5.40799
O -4.92424 12.1831 0.0647339
H -4.34005 12.7462 0.649329
H -5.35124 12.7585 -0.63291
O -10.6332 7.52239 -13.2371
H -11.0157 7.86121 -12.3775
H -11.3059 7.63486 -13.9685
O -1.53153 9.85186 -5.95872
H -1.06331 10.476 -6.58423
H -1.37686 10.1468 -5.01577
O 12.3378 1.14487 0.367631
H 12.3421 1.60129 -0.522158
H 11.4155 0.814542 0.568362
O -2.4609 2.25895 9.97948
H -3.19036 1.57779 10.0425
H -1.79959 2.10805 10.7143
O -10.8618 -4.76202 7.89657
H -11.7267 -5.22134 7.69402
H -11.0416 -3.81503 8.16285
O 8.90461 10.1342 -2.1839
H 8.22795 10.0625 -1.45107
H 8.51099 10.638 -2.95291
O 8.62469 -11.7176 -5.20093
H 9.17395 -10.9915 -4.78717
H 9.18838 -12.2372 -5.84307
O 13.9532 -2.04292 -10.6795
H 14.7876 -2.53362 -10.9305
H 14.0518 -1.07586 -10.9143
O -12.2475 12.45 -2.67826
H -11.8827 12.9099 -1.86868
H -12.0822 11.4664 -2.6057
O -6.68515 -5.55777 13.2272
H -6.86478 -6.53469 13.3429
H -6.37013 -5.38509 12.2939
O -12.6385 -7.73247 14.4047
H -13.125 -8.00666 13.5751
H -12.9801 -6.84478 14.7135
O -8.67042 -7.03331 -8.86478
H -8.49063 -7.88122 -9.36357
H -7.89664 -6.82883 -8.26519
O -7.51399 -5.26958 6.81729
H -7.80067 -4.85647 7.68171
H -8.26432 -5.21802 6.15819
O -8.60273 11.4286 -3.97652
H -9.12033 10.6979 -3.53118
H -8.26187 11.1052 -4.85932
O -14.4219 -10.9899 -6.54599
H -14.2015 -10.295 -7.23062
H -14.3819 -11.8964 -6.96626
O -9.70518 -12.7959 9.90073
H -10.2671 -12.2055 9.3212
H -10.0972 -12.8312 10.82
O 12.1371 8.85182 -5.9743
H 11.311 9.33488 -6.26445
H 12.1822 7.96388 -6.43213
O 1.9139 8.44771 -12.6309
H 1.60237 8.97547 -11.8407
H 1.41422 8.74141 -13.4458
O -10.172 -9.00913 -10.5471
H -10.7852 -8.23496 -10.7042
H -10.5913 -9.63913 -9.89336
O 11.7993 8.19125 0.692703
H 12.0385 9.0813 0.304543
H 10.8373 7.99328 0.504755
O -9.85677 5.28823 -10.8599
H -9.0243 5.82973 -10.9774
H -10.397 5.32056 -11.7008
O -4.4128 -14.2256 -12.5136
H -4.2357 14.7397 -12.0767
H -5.09643 -13.7229 -11.9844
O 0.318288 10.6809 0.389676
H 1.05372 10.1192 0.0106375
H -0.437623 10.7254 -0.263529
O 3.51203 -13.3012 -2.73885
H 2.89302 -13.2091 -3.51885
H 3.00673 -13.1387 -1.8913
O -2.05165 -7.87605 -7.93376
H -1.88198 -8.01369 -8.90963
H -2.95554 -8.23364 -7.6989
O 10.0539 13.5327 -2.0638
H 10.0548 14.1257 -1.25855
H 9.1184 13.2395 -2.26084
O -10.1839 14.9021 -9.06707
H -9.96077 14.0712 -9.57672
H -11.135 -14.6913 -9.24333
O 5.20502 8.35139 1.67162
H 4.50459 9.03233 1.45765
H 5.33983 8.31167 2.66173
O -9.34994 -7.25193 8.42539
H -9.92037 -7.93775 7.97336
H -9.73039 -6.34167 8.26186
O 0.563096 -1.11966 -6.06805
H 1.34514 -0.548709 -5.81808
H 0.719444 -2.0557 -5.75271
O -13.9569 -6.55364 4.14029
H -13.712 -6.77718 3.19684
H -13.7131 -5.60286 4.33163
O 9.46938 0.605823 7.85562
H 8.74711 0.936039 7.24787
H 9.9683 -0.136283 7.40794
O 13.356 3.21399 -10.5465
H 14.0559 3.39036 -9.85436
H 13.1085 4.07209 -10.9965
O -10.6744 11.5583 -0.0266692
H -9.94944 11.5943 0.6612
H -10.5074 10.7921 -0.647268
O 3.89136 2.86445 9.09603
H 3.48503 2.15136 8.52467
H 4.8865 2.84194 8.99982
O 4.74038 -0.217956 11.7239
H 4.58278 -0.272186 10.7379
H 5.3512 0.54863 11.9222
O -2.95018 -6.43781 2.17961
H -2.74672 -6.76577 1.25706
H -2.09526 -6.29005 2.67694
O 12.7982 -1.43869 -2.75516
H 13.5808 -0.818824 -2.81247
H 11.9543 -0.925433 -2.91172
O -0.460346 6.07906 9.48708
H -1.27279 6.5814 9.78313
H -0.230379 6.33999 8.54948
O 10.4945 -5.30524 -10.0515
H 10.7597 -4.44384 -10.4848
H 9.64328 -5.63539 -10.4596
O -4.80235 -2.94449 11.9793
H -3.94993 -3.43074 12.1717
H -5.46118 -3.57583 11.5701
O -10.7225 7.6783 -1.53802
H -11.4265 7.52947 -0.843559
H -10.2621 6.81307 -1.73671
O 9.74237 3.57906 -5.9969
H 9.89913 3.93902 -6.91663
H 8.9299 4.01009 -5.60426
O -9.75166 -5.58071 5.41248
H -10.2767 -5.09695 6.11273
H -10.2401 -5.53832 4.5409
O -10.013 6.16679 6.93651
H -9.78459 6.23582 7.90766
H -9.42741 6.78462 6.41166
O -6.88577 4.52307 -3.0524
H -6.95726 5.44384 -2.66883
H -6.31105 4.54645 -3.87045
O -8.12531 -2.96808 -2.35654
H -7.29351 -2.42105 -2.45097
H -8.63736 -2.94707 -3.21527
O -3.20389 13.6659 1.65493
H -3.21189 14.5005 2.2058
H -3.04048 12.877 2.2474
O 5.10203 -5.64192 12.5186
H 5.68045 -5.85151 13.307
H 5.18838 -4.67214 12.2903
O -9.1316 10.1307 12.7306
H -9.27139 10.8995 13.3548
H -8.21691 9.75098 12.8692
O 7.08678 7.95235 -8.21799
H 7.86661 7.45076 -7.84338
H 6.24854 7.42951 -8.06288
O -8.10345 1.73784 -11.5977
H -8.34919 2.16688 -10.7284
H -7.72238 2.4273 -12.2137
O -3.44291 -10.9092 7.21021
H -3.0863 -11.5445 6.52512
H -3.55743 -11.3877 8.08083
O -2.52667 -6.8623 -0.686193
H -3.29137 -7.4164 -1.01525
H -1.6646 -7.2796 -0.973859
O -9.19174 -4.32596 1.39729
H -8.75017 -5.05903 1.91467
H -9.48486 -4.6758 0.50749
O 10.7667 13.604 9.0775
H 10.4705 13.8187 10.0082
H 9.96989 13.5667 8.47436
O 5.7261 8.68203 8.51777
H 5.71896 8.46853 7.54082
H 6.17277 7.94009 9.01784
O -10.1178 14.2066 12.791
H -10.9955 13.8903 12.4309
H -9.74394 13.5169 13.4111
O 8.32319 0.578063 -8.81262
H 9.105 0.833822 -8.24392
H 8.46995 0.903362 -9.74681
O 9.87044 -14.406 4.28292
H 9.69965 -13.9311 5.14624
H 10.0695 -13.7361 3.56765
O 12.1321 14.0792 13.4057
H 11.859 13.1375 13.6021
H 11.8152 14.3345 12.4922
O 5.10272 11.2173 -12.8084
H 5.56825 10.9422 -13.6496
H 5.72695 11.1164 -12.0336
O -14.4511 -0.894585 -4.48578
H -14.8123 -1.48026 -5.21145
H -13.5675 -1.24929 -4.17992
O -5.96067 4.19439 -9.12085
H -5.94252 4.67429 -8.24368
H -6.49457 3.35371 -9.02989
O -2.79971 10.8436 -1.20095
H -2.7894 10.0155 -0.640422
H -3.51646 11.4591 -0.873113
O 10.9712 11.1033 2.07161
H 10.6262 11.0885 1.13309
H 11.3624 12.0023 2.26881
O -12.2517 11.1108 3.55575
H -12.1457 10.1842 3.19508
H -12.8273 11.6455 2.93693
O -7.33639 9.5012 7.56401
H -6.39838 9.2577 7.81079
H -7.70054 10.1473 8.23487
O 11.4115 13.603 3.00628
H 10.8954 14.1561 3.66033
H 12.2979 14.0323 2.83306
O -4.10138 -0.399809 12.5112
H -4.30931 -1.36083 12.3288
H -4.25152 0.137096 11.681
O 4.08651 4.70471 13.2622
H 4.91697 4.88391 12.7347
H 3.47291 4.12139 12.73
O -7.75034 13.5975 9.55774
H -7.26202 14.0702 8.8242
H -8.63176 14.0436 9.71296
O 5.67229 -5.35621 -9.95383
H 4.91447 -5.9925 -9.80924
H 6.50943 -5.74103 -9.56501
O 0.0616879 -8.09222 -4.39909
H -0.0579232 -7.45916 -5.16394
H -0.833364 -8.41114 -4.08726
O -7.45812 -10.2013 -9.35878
H -6.64342 -10.7599 -9.51456
H -8.16038 -10.4419 -10.0289
O -14.4502 12.6579 2.6519
H -14.5063 12.2755 3.57421
H 14.8087 13.4641 2.58895
O 11.2524 -2.71102 -10.7913
H 10.9091 -2.02171 -11.4293
H 12.2497 -2.65437 -10.7442
O 7.00332 13.8688 5.54422
H 7.44778 13.8524 4.64854
H 7.03486 14.797 5.91506
O -3.05423 -4.50133 -8.52652
H -2.50978 -3.66594 -8.60248
H -3.26785 -4.67368 -7.5649
O -6.58889 13.1315 12.1256
H -7.00883 13.1727 11.219
H -6.74631 13.9947 12.6054
O -4.24605 5.66598 11.9276
H -4.82185 5.30272 11.1951
H -4.67271 5.47657 12.812
O 1.53077 -8.84673 0.614887
H 1.9134 -8.10608 1.16723
H 2.20689 -9.14295 -0.0597767
O 9.88773 -4.69495 -4.80444
H 10.1792 -3.7385 -4.78739
H 10.1639 -5.1122 -5.67027
O 11.5247 1.66251 -12.2122
H 11.8368 1.1259 -12.9962
H 12.2548 2.27983 -11.919
O -10.7843 -14.9184 -1.75711
H -10.3679 14.8997 -0.848335
H -10.1164 14.6316 -2.43945
O -14.8685 -5.29372 -5.91721
H -13.9798 -5.35356 -5.46259
H 14.4252 -4.58771 -5.47541
O 7.03193 4.70426 -1.56506
H 7.94304 4.99814 -1.27599
H 6.92925 3.7237 -1.39768
O -6.45006 6.48016 8.13083
H -7.35173 6.47775 8.56332
H -6.55541 6.57607 7.141
O 14.2355 4.79274 9.32346
H 14.8626 4.02129 9.43157
H 13.9041 5.08135 10.2218
O 0.647797 9.52598 -10.5523
H 1.15985 9.71217 -9.71377
H -0.0167756 10.2572 -10.7064
O 5.42004 12.2754 -1.87106
H 4.54793 12.5831 -1.49058
H 5.7545 11.4921 -1.34692
O 6.84237 -7.55519 -12.73
H 6.12174 -6.9409 -13.0515
H 6.62479 -8.49361 -12.9985
O 7.2538 14.2012 -2.68299
H 6.56886 13.4728 -2.70155
H 6.8751 -14.8442 -2.22089
O 4.13006 -14.2935 -11.6345
H 3.66929 -14.7066 -10.849
H 4.59369 -13.4556 -11.3462
O 11.9731 6.03333 8.95699
H 11.6697 6.13642 8.00968
H 12.8115 5.48873 8.98112
O 6.45329 14.0381 -11.2978
H 5.53401 14.4105 -11.4254
H 6.39468 13.0522 -11.1409
O -5.20672 -7.35875 3.56041
H -4.44433 -7.04096 2.99663
H -4.93087 -7.36418 4.52162
O -3.10075 4.1752 -9.65685
H -4.04784 4.14135 -9.33759
H -2.48366 4.17914 -8.86993
O -7.57495 6.95128 -7.28315
H -7.04025 7.08515 -8.11756
H -7.52072 5.99293 -7.00267
O 1.60961 14.6639 14.4913
H 2.41197 14.8727 13.9321
H 1.07809 13.9385 14.0538
O 0.868603 -0.58114 6.40048
H 0.470015 -0.670074 7.31332
H 0.496151 0.231304 5.95184
O -7.92123 14.0496 -11.1627
H -7.65876 14.5478 -10.3363
H -8.48385 13.2616 -10.9122
O -13.1469 -6.67245 -8.83178
H -13.4253 -5.72425 -8.67847
H -12.7214 -6.75333 -9.73312
O 5.46284 -9.90302 10.7682
H 4.71732 -9.23753 10.8053
H 5.61758 -10.1776 9.81916
O 1.87176 5.70218 -8.52632
H 1.10365 5.79773 -9.15951
H 2.10561 4.73471 -8.42955
O -10.0998 -4.65074 -1.24325
H -9.56462 -3.94962 -1.71451
H -11.0648 -4.38839 -1.24147
O -7.416 10.8339 -6.39115
H -6.58193 11.2769 -6.71996
H -8.16508 11.0199 -7.02705
O 4.91102 -0.781162 -4.60975
H 4.23952 -0.622725 -5.33366
H 4.88513 -1.74256 -4.33568
O -7.50825 -2.31257 4.28185
H -6.61266 -2.1331 4.68899
H -7.44892 -2.21272 3.28859
O -8.79095 -8.83214 -4.09159
H -8.69188 -9.1925 -5.01916
H -7.88865 -8.6094 -3.72239
O 2.51728 3.62045 11.3371
H 2.89827 3.17353 10.5277
H 1.67069 3.1602 11.6045
O 4.83598 3.43692 -7.80409
H 3.83846 3.39125 -7.85823
H 5.2345 2.74541 -8.40662
O -14.3877 -7.01336 -0.326437
H 14.472 -6.91181 -0.206186
H -14.1688 -7.01146 -1.30221
O 12.3665 4.36105 3.19001
H 12.8417 3.63273 3.68376
H 13.0173 5.08212 2.9522
O -1.77693 9.30793 -13.8344
H -2.27117 9.49987 -14.6824
H -0.812313 9.54507 -13.9499
O 12.3764 -12.9163 -10.2581
H 11.5078 -12.8525 -10.7494
H 12.7368 -11.9974 -10.0974
O -9.3093 -0.802969 -6.03266
H -8.7228 -1.07047 -6.7972
H -9.53115 -1.60953 -5.48466
O 1.9602 3.75573 7.33291
H 2.5711 4.03697 8.07302
H 1.13659 3.34107 7.71992
O 13.1246 -14.3139 -5.31172
H 13.7292 14.8431 -5.70937
H 12.2734 -14.7471 -5.01544
O -13.5607 -3.4225 10.283
H -13.6568 -4.09976 9.55355
H -13.5114 -2.50704 9.88356
O -7.22905 -13.76 -9.05556
H -6.47456 -13.6518 -8.4082
H -8.068 -13.977 -8.5564
O 14.3897 8.90776 14.0975
H 14.2163 8.28549 14.8608
H -14.8643 9.65267 14.4028
O -11.4004 7.99131 -10.6234
H -11.7503 7.09537 -10.3496
H -10.5571 8.18705 -10.1228
O 2.17711 -4.55583 11.3288
H 2.03241 -5.5311 11.1615
H 2.32629 -4.40377 12.3059
O -3.84429 7.61973 7.82018
H -3.7417 7.25029 6.89657
H -4.72473 7.33309 8.19795
O -14.7782 13.6932 -3.45911
H -13.9884 14.3041 -3.40407
H -14.7884 13.2411 -4.35109
O 3.53765 9.01551 6.44379
H 3.9835 8.15024 6.21445
H 4.07668 9.49493 7.13637
O -12.7928 2.1286 -4.01607
H -12.6234 3.11116 -3.93894
H -12.9947 1.75315 -3.11146
O 13.9116 1.50887 11.0511
H 13.9114 1.07877 11.9539
H 12.969 1.66189 10.7545
O 11.9867 -3.81782 9.55095
H 12.2646 -4.69437 9.944
H 12.7009 -3.13738 9.71538
O -10.9343 10.1099 -5.40443
H -11.2907 10.1155 -4.4701
H -11.0589 9.20137 -5.8033
O -1.73008 -10.3189 -4.34478
H -1.62707 -10.9219 -5.13593
H -2.50362 -10.6259 -3.79026
O 9.66141 9.28435 12.9412
H 8.78885 9.70512 12.6929
H 9.74326 8.39565 12.49
O -5.82021 -1.60113 -2.81223
H -5.02581 -0.996096 -2.75818
H -6.26245 -1.49187 -3.70248
O 7.84273 8.05663 3.24286
H 8.79577 7.82979 3.04205
H 7.25249 7.30343 2.95239
O -10.708 -12.8562 12.6681
H -10.6419 -13.8368 12.8531
H -11.634 -12.5398 12.8742
O -3.74457 -9.38151 -9.95582
H -3.91991 -8.56159 -10.5008
H -4.38197 -9.41255 -9.18587
O -3.15327 -0.102341 6.5217
H -2.49957 -0.583732 7.10565
H -3.77706 0.433409 7.09083
O -11.5442 -12.5696 -6.3852
H -11.9524 -12.0119 -5.66242
H -12.2493 -13.1432 -6.80211
O -4.50397 -8.36371 -1.63814
H -4.24087 -9.16346 -2.1778
H -5.42651 -8.49527 -1.27526
O -11.2793 12.1072 -13.5106
H -11.4142 11.5382 -12.6993
H -11.2644 13.0707 -13.2432
O -11.4695 14.5863 7.19186
H -12.0225 -14.9017 6.44003
H -12.0696 14.1943 7.88922
O 12.9613 -6.91018 -6.37209
H 13.1741 -6.89127 -5.39515
H 13.5745 -6.28808 -6.85894
O -0.0740465 -12.8541 -1.53304
H 0.336345 -12.5605 -2.39643
H -0.989768 -12.4612 -1.44862
O 6.10609 1.61001 -13.586
H 5.87016 2.28858 -12.8903
H 7.05456 1.74332 -13.8735
O 1.33814 7.04277 13.8805
H 1.85784 6.94878 13.0313
H 1.47178 6.22816 14.445
O 14.7779 12.8857 -6.32073
H 14.2735 12.0838 -6.00062
H -14.1488 12.6113 -6.59899
O 9.17017 -10.0215 -1.27554
H 8.65172 -10.7524 -1.71947
H 9.10097 -10.1194 -0.282721
O 7.4244 5.70627 1.86262
H 6.46084 5.53279 1.65888
H 7.93671 4.84934 1.80541
O -2.55953 4.83651 1.8831
H -1.70226 4.81489 1.36863
H -2.8671 5.78325 1.97872
O -8.91985 6.33789 9.39904
H -9.28145 5.88788 10.2156
H -9.19541 7.2992 9.39857
O 6.55085 -12.6815 1.88926
H 7.44803 -12.6878 1.44758
H 6.0589 -13.5205 1.65677
O -11.1528 2.64755 -10.2039
H -11.4878 3.55317 -9.94381
H -11.1639 2.56144 -11.2001
O -6.99752 -8.4393 9.73459
H -6.60042 -8.98282 8.99502
H -7.93544 -8.1871 9.49635
O 2.88194 13.2356 -5.53361
H 3.4677 12.5012 -5.19068
H 2.08322 12.8405 -5.98748
O -12.0826 13.7544 -5.08366
H -12.0326 14.6864 -4.72467
H -12.1734 13.1093 -4.32487
O 9.76278 12.7532 6.58722
H 9.28856 12.9723 5.73447
H 9.41816 11.8861 6.94697
O 0.303647 13.9296 8.47112
H 0.474896 13.9171 9.4563
H 0.0277034 14.8495 8.19238
O 8.28592 13.6677 3.04733
H 8.41221 13.7369 2.05772
H 8.95216 14.2526 3.51005
O -4.1964 10.3105 8.13438
H -3.98218 9.36077 7.90586
H -3.41988 10.8939 7.89631
O -3.14515 2.16209 -6.4301
H -2.75372 3.08224 -6.44313
H -4.04749 2.18978 -5.99989
O -7.67581 3.21967 10.5242
H -7.61511 2.66035 9.69747
H -7.02822 3.97909 10.4612
O 7.97216 -3.0999 -12.6942
H 8.29081 -3.90774 -12.1983
H 8.75954 -2.56709 -13.0044
O 0.142629 1.82303 5.33251
H -0.443269 2.59932 5.0998
H 1.03261 1.93264 4.88981
O -3.70477 -11.6763 -6.21997
H -3.39149 -12.4735 -5.70392
H -2.92403 -11.2426 -6.6699
O -6.32771 -13.4926 -6.44935
H -7.14399 -13.4497 -5.87324
H -5.60751 -12.9254 -6.04978
O -12.6113 4.82631 -3.97677
H -13.0759 4.88487 -3.09311
H -13.104 5.3784 -4.64953
O -13.1784 -13.9353 -2.80545
H -12.8764 -13.0986 -3.26242
H -12.4198 -14.3205 -2.27995
O 6.17322 0.44768 -7.3102
H 6.13093 1.2022 -6.65523
H 6.97848 0.556939 -7.89301
O 2.48062 -4.25157 14.0962
H 3.24689 -3.90143 14.635
H 2.26658 -5.18388 14.3878
O -6.15991 -6.35079 -11.5971
H -6.90477 -7.01391 -11.6714
H -6.15466 -5.76339 -12.4065
O -9.29973 7.14903 1.36618
H -9.907 7.29666 0.585484
H -9.33435 7.94498 1.9706
O -0.477933 -8.47146 -1.62084