2611
Atoms. Timestep: 8000000
O 0.961512 -10.7625 -0.624133
H 1.68081 -10.0715 -0.552153
H 0.0693566 -10.3123 -0.661824
O -12.2853 -6.51099 8.49808
H -11.5212 -6.67995 7.87543
H -12.6732 -7.38384 8.79422
O 7.74058 -14.4694 -12.1733
H 8.59793 -14.8488 -12.5212
H 7.34631 -13.8551 -12.8569
O -1.85308 -7.87366 -13.1754
H -2.31028 -8.00394 -14.0552
H -0.866018 -7.98254 -13.2933
O 13.6226 0.11149 2.0139
H 14.5286 -0.171531 2.32874
H 12.9255 -0.459744 2.44742
O -1.41625 -14.9354 9.68934
H -1.77592 14.9178 10.6109
H -2.02596 -14.3221 9.18709
O -7.34484 0.578457 -9.02041
H -8.27894 0.883935 -9.20536
H -6.70056 1.29432 -9.28969
O -6.70605 -10.5315 -3.35581
H -6.21789 -10.0395 -4.0767
H -7.00282 -11.4216 -3.70189
O -4.65119 3.95213 -13.9787
H -4.43561 3.07064 -14.3989
H -4.62882 4.6683 -14.6763
O -8.16646 9.61685 -11.5852
H -8.85909 9.28845 -12.2275
H -7.28493 9.19764 -11.8026
O 12.2901 -6.09714 -3.1797
H 12.7463 -5.80362 -4.01978
H 12.2154 -7.09435 -3.17189
O -13.2447 7.06538 -0.619465
H -13.157 6.26794 -1.2165
H -12.3547 7.28019 -0.217204
O 3.55013 -8.35677 11.5942
H 3.77714 -9.014 10.8755
H 3.94283 -8.66252 12.4616
O 7.84034 -3.24981 4.6918
H 8.16335 -4.08224 5.14211
H 7.73624 -3.41988 3.71185
O -3.84542 7.28526 -12.9602
H -3.94286 6.87088 -13.8651
H -3.22505 8.06755 -13.0168
O -5.81946 9.26438 12.2076
H -5.42724 9.86966 11.5149
H -5.61089 9.62087 13.1184
O -7.92886 0.414078 -14.5141
H -7.93912 0.553968 14.4954
H -7.04031 0.690221 -14.1476
O -10.4374 -12.8915 -7.20971
H -10.4216 -12.3891 -8.07421
H -10.4628 -12.2439 -6.44817
O -4.15073 6.85791 8.06367
H -3.97374 6.13979 8.73675
H -4.79708 7.51938 8.44413
O -13.693 -2.87207 -6.42289
H -14.4885 -2.96038 -7.0224
H -13.8339 -2.10891 -5.79221
O 14.0071 14.1436 9.75215
H 13.1066 14.1863 9.31936
H 14.717 14.1774 9.0486
O -8.11655 0.351588 12.7061
H -7.99611 1.33206 12.5504
H -8.41429 -0.0864856 11.8579
O -11.9432 14.8866 0.807363
H -10.9935 14.6053 0.945469
H -12.0339 -14.137 1.00556
O -5.87746 1.86242 1.95622
H -4.95015 1.61831 2.24005
H -6.23408 2.57533 2.56008
O -5.99694 -11.756 11.8844
H -5.92327 -12.173 10.9785
H -6.52154 -10.9071 11.819
O 8.04149 9.66472 4.1332
H 8.49192 10.3021 4.75844
H 8.71434 9.01708 3.77556
O 14.5107 10.0102 -14.6255
H 14.5581 10.2246 14.3984
H 13.7551 10.5161 -14.2094
O -4.34189 10.535 14.3577
H -3.34619 10.4561 14.4069
H -4.70908 10.6971 -14.7259
O -7.41754 4.15365 -7.58623
H -6.80834 3.38768 -7.79172
H -6.88975 5.00278 -7.56453
O 0.59098 -5.88862 11.3386
H 0.524432 -4.9675 11.7223
H 0.503394 -6.56242 12.0724
O -4.97739 14.0843 12.231
H -5.86188 13.6247 12.3117
H -4.77822 14.5752 13.0792
O 0.145272 11.7003 -0.85196
H 0.61642 12.3831 -0.293588
H 0.816671 11.1825 -1.38224
O 2.45156 9.43199 -8.56596
H 3.35515 9.67737 -8.91721
H 1.92698 8.97603 -9.28497
O 13.2463 14.552 0.0562636
H 13.9039 14.7477 0.783821
H 13.5869 13.7992 -0.507138
O -14.3751 -13.5195 5.53402
H -13.5149 -13.6901 5.0535
H 14.8904 -13.3895 4.86742
O 4.45909 -10.6904 -11.4326
H 4.4281 -11.6611 -11.6711
H 5.06383 -10.5594 -10.6469
O -5.47575 -3.51796 -7.61063
H -5.01859 -4.32243 -7.2313
H -5.3294 -2.7352 -7.0057
O -12.0032 5.90282 -12.4507
H -12.8385 6.42337 -12.6277
H -11.7746 5.95969 -11.4788
O -8.55018 14.465 -5.20251
H -8.23538 13.5787 -5.5424
H -9.53961 14.5378 -5.32814
O -1.49807 3.62721 -9.15977
H -2.09281 3.96698 -9.8884
H -0.810054 3.01493 -9.54941
O -11.9992 -14.2592 4.375
H -12.0861 -13.603 3.62537
H -12.033 14.8102 4.00936
O 5.69646 5.63258 9.10959
H 5.66176 5.81885 10.0915
H 5.37608 6.43529 8.60652
O 0.608895 -13.8187 -13.2159
H 0.979862 -13.4629 -12.3581
H 0.607994 -14.8184 -13.1894
O 13.7059 11.7247 -10.2361
H 13.9414 12.0461 -9.31884
H 14.4343 11.9745 -10.8741
O -9.17185 -13.514 3.7596
H -8.89837 -13.2949 2.82296
H -10.1696 -13.5522 3.81522
O 10.5219 -6.91004 13.1001
H 9.59981 -7.28427 13.0015
H 11.1023 -7.57368 13.5722
O -3.16746 14.6195 -7.53762
H -3.77051 14.0688 -8.1148
H -3.70188 -14.9557 -6.80663
O 8.91639 10.2375 -12.5138
H 9.44416 9.42079 -12.2803
H 8.76835 10.7854 -11.6904
O 3.55424 -5.93079 3.90298
H 3.26833 -5.4467 4.73002
H 2.74814 -6.17252 3.36276
O -11.2191 -4.21562 9.65818
H -11.6528 -3.98405 10.529
H -11.4889 -5.13947 9.38664
O -8.92746 14.2983 -12.1966
H -9.71519 14.8382 -11.8998
H -8.59929 14.6432 -13.0761
O -7.51378 -13.8177 12.8948
H -8.17436 -14.009 12.1688
H -6.7947 -13.219 12.542
O 12.8932 14.0098 -14.1183
H 12.0041 14.0085 -13.6606
H 13.6106 14.2147 -13.4524
O 11.9551 -3.22526 13.1176
H 12.4764 -2.57686 13.6725
H 12.4258 -4.10751 13.1056
O 10.0107 12.9429 0.497182
H 9.1792 12.585 0.922125
H 10.695 12.2159 0.439363
O -4.55821 -3.14725 14.1968
H -4.18104 -2.37737 13.6819
H -3.92603 -3.40012 14.9292
O -8.8056 3.30384 -2.58687
H -8.8436 2.44733 -2.07208
H -8.19243 3.19549 -3.36939
O -5.11815 7.63906 3.91401
H -4.45419 8.37542 4.04433
H -5.35623 7.57254 2.94501
O 11.5969 -3.88904 -13.4939
H 11.0688 -3.24398 -14.0462
H 12.5707 -3.67479 -13.5713
O 8.20614 -0.000950021 -14.5359
H 7.33054 -0.483514 -14.5585
H 8.52881 0.0600278 -13.5913
O 2.21586 10.4846 11.2092
H 2.77582 11.0766 11.7889
H 1.48543 10.0763 11.7567
O 2.75309 14.9569 11.8766
H 2.29929 -14.6665 12.6844
H 2.19394 -14.8645 11.0668
O -4.557 -4.18909 4.68843
H -5.15056 -3.90272 5.44059
H -4.90224 -3.81166 3.82912
O 3.25826 -12.3902 -5.05076
H 3.07133 -12.8623 -5.9123
H 2.60765 -12.6955 -4.35538
O -13.9025 4.47126 8.82993
H -14.1005 3.59407 8.39244
H -14.0503 4.39291 9.81587
O -4.33173 -9.30735 4.6576
H -5.25907 -9.31908 4.28348
H -3.68685 -9.03958 3.94171
O -3.79247 -14.2958 2.54851
H -3.36259 -13.4122 2.73445
H -3.31925 -14.7436 1.78984
O -7.13615 2.99344 -4.65237
H -7.67548 2.32063 -5.15884
H -6.9736 3.79341 -5.23002
O 3.39557 -0.585757 -7.25609
H 4.14229 -1.22915 -7.08721
H 3.02425 -0.739015 -8.1719
O 1.57659 11.681 -6.67692
H 1.51603 12.4015 -7.36786
H 1.63344 10.7904 -7.1281
O 4.00403 13.8632 8.72869
H 3.81584 14.6583 9.3053
H 3.93653 14.126 7.76618
O 10.8163 8.55783 10.3093
H 11.4363 8.34358 11.0641
H 11.0876 8.04013 9.49784
O 3.51105 -3.14252 12.2586
H 3.30211 -2.3303 12.8033
H 4.03233 -2.87527 11.4481
O 8.74501 -4.31012 2.07011
H 9.30361 -5.11169 2.28345
H 9.27416 -3.67542 1.50688
O 10.7119 0.547093 -0.2082
H 11.0008 0.975182 -1.06456
H 10.6113 1.24831 0.497669
O -13.1061 11.7951 -0.0737018
H -13.1445 12.5531 -0.72495
H -12.2128 11.3496 -0.133028
O 3.46301 -9.36084 -0.531456
H 3.48133 -8.69348 0.21309
H 4.14183 -10.0741 -0.356583
O -14.7171 14.5919 1.99061
H -13.8888 14.5231 1.43444
H -14.7437 13.8353 2.64395
O -5.2893 0.0708699 10.9024
H -6.22913 0.286411 11.1676
H -5.23899 -0.034159 9.90922
O -10.7457 -0.58084 6.10891
H -10.6578 -1.02794 5.21871
H -10.5744 0.39924 6.00802
O -0.740615 4.19277 8.62505
H -0.187068 4.12246 9.45493
H -0.398483 3.5489 7.94062
O 4.82057 9.25821 -4.53012
H 5.76936 9.09739 -4.80215
H 4.7173 9.0697 -3.55347
O -1.20724 -13.0722 1.10329
H -0.419301 -12.6231 1.52454
H -1.76396 -12.3914 0.627304
O 11.715 -1.46566 10.9093
H 12.4193 -1.64617 10.2227
H 11.9074 -1.99974 11.7326
O -14.8653 7.78029 9.9247
H -14.9217 7.16076 9.14172
H -14.1549 7.46099 10.5519
O 14.2289 14.8556 -11.6015
H 14.6646 13.9896 -11.3559
H 14.9296 -14.4409 -11.7228
O 1.51646 -7.59874 13.3733
H 2.00869 -6.95533 13.9597
H 2.00961 -7.70751 12.5102
O -12.5869 0.44052 -12.0477
H -12.6682 0.601166 -11.064
H -11.8246 -0.182888 -12.2218
O 3.70197 1.8812 6.71759
H 4.43261 2.564 6.71438
H 3.76359 1.32319 5.89001
O -7.50686 -9.39591 -7.74992
H -7.19681 -8.46469 -7.94165
H -8.39751 -9.36393 -7.29628
O 5.03329 8.62252 -11.8679
H 4.2029 9.1717 -11.9624
H 5.78984 9.07894 -12.3363
O -6.68815 11.161 -1.89543
H -7.2572 10.3697 -2.11951
H -6.36655 11.59 -2.73955
O -9.00532 -14.5831 -8.73144
H -9.68034 -14.0959 -8.17732
H -8.08588 -14.2844 -8.47558
O 2.76098 -13.117 0.0231248
H 2.37828 -13.7947 -0.604795
H 2.30898 -12.2366 -0.120751
O 4.38477 -8.1011 -7.66428
H 4.66038 -8.70531 -6.91659
H 4.18632 -7.19067 -7.30122
O 10.8646 8.07301 6.73539
H 10.0946 7.96784 7.3647
H 10.5242 8.11361 5.79595
O -1.23478 -14.0857 -4.343
H -0.773555 -13.5376 -3.64518
H -1.59839 -14.9188 -3.92607
O -13.3003 9.4567 -7.72215
H -12.6174 9.43747 -8.45242
H -13.2789 10.348 -7.26912
O 13.0546 -13.9384 13.4337
H 13.8045 -14.4826 13.0573
H 12.6128 -14.4461 14.1733
O 8.73496 5.01665 -1.79397
H 8.00718 4.50494 -1.33729
H 8.33607 5.61584 -2.48817
O 5.59966 -6.22413 -0.915204
H 6.24991 -6.09899 -0.165812
H 5.97935 -6.865 -1.58244
O 1.08284 -10.4023 -8.08399
H 0.23182 -9.87734 -8.06896
H 1.5069 -10.324 -8.98627
O -11.839 0.766992 -8.9628
H -12.5954 1.38809 -8.75751
H -11.8879 -0.0287445 -8.35907
O 10.4919 7.63356 -3.1806
H 11.419 7.6353 -2.80567
H 9.90498 8.21871 -2.621
O 7.43229 -2.96044 9.28702
H 6.97899 -3.38808 8.50491
H 8.31379 -2.5869 8.99807
O -1.66122 10.2699 -2.84466
H -1.05323 10.3666 -3.63273
H -1.16278 10.5003 -2.00888
O -8.52375 12.479 -0.413394
H -7.82538 11.8809 -0.806631
H -8.68668 13.2504 -1.02848
O 6.80807 -7.274 -4.93889
H 7.06759 -8.21634 -5.15033
H 7.53378 -6.65363 -5.23646
O -2.9379 1.30653 -8.47219
H -3.64404 1.38909 -9.17548
H -2.69728 2.21601 -8.13306
O -9.88836 6.8018 7.34645
H -9.90756 7.78542 7.52584
H -10.5338 6.33943 7.9545
O 13.4991 -1.87416 6.67485
H 12.9882 -2.37983 5.97966
H 13.3764 -0.892266 6.53034
O -4.42143 13.4773 -2.27117
H -4.81333 12.8926 -2.98152
H -3.50742 13.7727 -2.54932
O 0.940777 -1.69536 6.99873
H 0.628208 -2.62808 7.17869
H 0.16864 -1.13821 6.69302
O 5.8987 3.78808 6.84409
H 5.69677 4.2419 7.71204
H 6.15225 4.47296 6.16093
O -9.07194 0.805565 -1.64986
H -9.58541 0.79071 -2.50788
H -8.70386 -0.105876 -1.46586
O -11.1878 -11.2987 0.00189544
H -11.337 -10.8173 -0.861874
H -12.0028 -11.2148 0.575319
O -4.98953 -7.61696 -8.31724
H -4.52862 -8.22809 -7.6737
H -4.30729 -7.08313 -8.81688
O -8.89199 8.93455 -9.13011
H -8.26312 9.23431 -8.41266
H -8.61542 9.33416 -10.0041
O -11.4721 5.34189 -5.12138
H -12.0566 6.04716 -5.52269
H -10.6944 5.77374 -4.66447
O -10.6385 2.15235 0.135133
H -10.8154 3.10521 -0.111503
H -9.8807 1.80088 -0.414726
O 8.49613 11.7723 -10.2348
H 7.55129 12.0965 -10.187
H 8.84381 11.621 -9.30945
O -1.35503 -11.5628 3.64935
H -0.772305 -10.7533 3.57738
H -2.18153 -11.4282 3.10268
O -6.48484 -13.7192 2.50289
H -5.497 -13.8656 2.55566
H -6.96076 -14.5331 2.8361
O -1.15304 13.887 14.475
H -0.50653 14.616 14.2499
H -1.01516 13.6002 -14.5765
O 12.041 -7.15834 4.8164
H 12.444 -6.55519 5.50475
H 12.1957 -8.11143 5.0767
O -14.7928 3.18645 4.44032
H -13.9247 3.67844 4.50652
H -14.6394 2.21436 4.61799
O 10.167 -2.21092 8.52355
H 10.5274 -2.06993 9.44567
H 10.5472 -3.05366 8.14234
O 1.21484 -3.38486 -14.0555
H 0.280098 -3.16005 -14.3308
H 1.72959 -2.54107 -13.9034
O -0.507218 13.0819 4.3656
H -1.47616 13.291 4.49787
H -0.234993 12.3523 4.99304
O -3.36553 11.6299 -6.00787
H -2.95419 11.9786 -6.85004
H -2.6661 11.1696 -5.46103
O 5.98169 2.34426 4.53594
H 6.02666 2.66112 5.48338
H 5.39735 1.53446 4.48268
O 13.5676 -13.6278 3.64723
H 14.2258 -13.9578 2.97053
H 12.6554 -13.968 3.41857
O 13.527 6.37559 -6.04383
H 12.6222 6.80066 -6.07244
H 13.6122 5.72226 -6.79613
O -12.2792 -7.56324 0.98639
H -11.6393 -7.60921 1.75354
H -11.7714 -7.60466 0.125861
O 12.0131 10.9785 9.43868
H 11.4502 11.6578 8.96776
H 11.4259 10.2607 9.81301
O -2.78121 -3.66179 6.87734
H -1.81318 -3.8851 6.76279
H -3.28281 -3.9199 6.0516
O -10.5099 9.38221 2.94272
H -10.7905 8.99951 2.06244
H -9.7309 8.86534 3.2978
O 7.38128 1.09054 0.938486
H 7.05787 0.187645 1.22177
H 8.15812 1.36004 1.50765
O -1.05678 2.81957 12.8296
H -0.49083 2.32448 13.4889
H -0.637381 3.70493 12.6288
O -14.3369 14.4822 7.42375
H -14.2824 -14.6957 6.85631
H -14.5858 13.6993 6.85358
O 5.50723 -1.89767 -10.7697
H 6.32379 -1.81946 -10.1977
H 5.27576 -2.86308 -10.8901
O 2.03689 11.8955 2.78825
H 1.31629 11.883 3.48155
H 2.89995 11.6017 3.19921
O -0.812533 -1.52534 -7.13516
H -1.50501 -1.25292 -6.46708
H -0.368384 -0.709819 -7.50627
O -5.88089 8.45043 -11.6421
H -5.25354 7.91161 -12.2044
H -6.36752 7.84509 -11.0121
O 12.6166 12.3211 1.55505
H 12.8767 12.9167 0.795005
H 13.4403 11.9657 1.99699
O -13.6956 3.54611 -11.9398
H -14.438 4.21588 -11.9601
H -13.2431 3.52299 -12.8312
O 0.115099 0.94936 -11.9315
H 0.484813 1.76269 -12.3808
H -0.878801 0.931074 -12.0405
O -10.5422 -4.84169 -3.36391
H -10.9073 -4.40377 -2.54233
H -9.72638 -4.35037 -3.66896
O 0.510024 -11.1792 -14.0755
H -0.0134112 -10.6928 -13.3759
H 0.631798 -12.1323 -13.7981
O -7.46011 -14.4377 -14.2158
H -6.84916 -13.8161 -13.7254
H -7.29414 -14.3613 14.8006
O -4.48722 2.38514 -0.582596
H -5.08737 2.04385 -1.30607
H -5.02921 2.58389 0.233989
O 8.1046 -8.16171 -14.0547
H 7.58359 -7.45981 -14.5404
H 7.9056 -8.10716 -13.0762
O 0.465718 7.62263 -12.6308
H 0.397037 7.28649 -11.6915
H 0.962716 6.95696 -13.1875
O 0.0426035 4.32695 -6.36445
H -0.0117151 3.72134 -7.15839
H -0.781103 4.22093 -5.80737
O -6.13311 8.65148 8.8482
H -5.45908 9.30411 9.19434
H -7.0526 8.96343 9.08756
O 8.41391 7.2712 7.4255
H 8.35751 6.7485 8.27619
H 8.31279 6.65219 6.64662
O 1.69323 -5.50151 8.98124
H 1.33079 -5.34518 9.90008
H 2.42503 -6.18181 9.02287
O 0.0434999 3.80114 3.97218
H 0.147941 3.5608 4.93727
H -0.924681 3.9453 3.76747
O 3.50906 -7.09458 6.94998
H 4.44103 -6.99308 7.2981
H 3.06625 -6.19854 6.91669
O 5.13776 0.797246 -5.77052
H 4.6195 0.0134844 -6.11284
H 4.52258 1.57625 -5.64897
O -2.24592 -5.17795 11.5227
H -2.87191 -5.02315 12.2871
H -1.44418 -5.68123 11.8451
O 8.18183 5.29329 -8.76719
H 8.79805 4.53346 -8.55984
H 7.66352 5.08527 -9.59673
O 11.2707 -1.33443 -3.63782
H 11.3565 -0.344139 -3.74749
H 12.1738 -1.75742 -3.71136
O -14.8741 -5.83312 -2.29257
H -14.3332 -5.41553 -1.56243
H 14.1685 -5.55911 -2.19686
O -3.5097 -1.15177 12.4274
H -2.8372 -1.3619 11.7177
H -4.31228 -0.725246 12.0103
O -14.6719 7.98404 -3.82096
H -14.2375 7.64741 -4.65646
H -14.3051 7.49043 -3.03239
O 2.48745 -5.77509 -14.443
H 3.40815 -5.38671 -14.4039
H 1.8141 -5.03583 -14.4555
O -10.3695 -1.87251 8.57703
H -10.4873 -1.70153 7.59879
H -10.6937 -2.79285 8.79597
O -7.4912 -2.18262 -8.75262
H -7.31885 -1.1983 -8.71416
H -6.66683 -2.67643 -8.47582
O 5.78286 -6.00094 8.14497
H 5.7527 -5.09723 7.71782
H 5.26075 -5.98416 8.99772
O 8.74842 -5.48227 -9.03681
H 8.85986 -6.33362 -9.5495
H 7.82501 -5.1258 -9.17929
O -2.13187 7.65212 13.0016
H -2.1351 8.45242 13.6013
H -1.96028 7.94185 12.06
O -7.32075 6.08611 -2.63636
H -8.11313 5.47693 -2.60322
H -7.09428 6.28687 -3.58949
O 7.33782 14.9392 -9.42318
H 6.75797 14.1292 -9.33503
H 7.60081 -14.9413 -10.3806
O -11.5498 8.65645 -9.68595
H -10.5719 8.52852 -9.52006
H -11.9215 7.84217 -10.1318
O 9.18503 5.86002 1.47141
H 9.88371 5.68375 0.77798
H 8.75867 4.99683 1.74194
O 8.61043 5.65711 -14.4203
H 7.81109 5.57539 -13.8249
H 8.77363 6.62148 -14.6287
O -12.2615 -7.78038 13.6259
H -11.8535 -7.66863 12.7198
H -11.5654 -8.10269 14.2675
O -2.5493 8.29074 6.5979
H -3.20292 7.78364 7.15976
H -3.02539 8.69827 5.8186
O 8.2496 2.06469 13.6385
H 8.19294 1.20483 14.1459
H 9.0174 2.02438 12.999
O -9.82501 -10.6661 11.9048
H -9.23152 -10.7285 11.1024
H -9.38862 -11.1253 12.6786
O 4.2306 14.519 0.471036
H 4.21837 -14.5939 0.933236
H 4.78297 14.5839 -0.360069
O -6.802 -11.1295 1.12076
H -6.24439 -10.9879 0.302779
H -6.68626 -12.0685 1.44464
O -12.1237 9.6379 11.43
H -12.4895 10.3128 10.7891
H -12.3739 8.71891 11.1251
O 13.2547 -0.784562 -0.599983
H 13.4729 -0.364766 0.281048
H 12.2823 -0.659635 -0.79699
O 12.4792 -12.2136 -6.32894
H 12.5253 -12.8151 -7.12656
H 12.6715 -11.2731 -6.60915
O 7.11518 -7.79337 -2.33208
H 7.85107 -8.47051 -2.32935
H 6.89442 -7.54482 -3.27523
O 4.83843 -12.1199 7.2667
H 5.48119 -12.8474 7.50689
H 5.19114 -11.6089 6.48277
O -13.3208 -9.34201 -8.89398
H -13.2954 -9.92063 -8.07874
H -14.2123 -9.43109 -9.33827
O -3.87789 13.2811 0.585471
H -2.91219 13.5401 0.565832
H -4.30513 13.5209 -0.286307
O 10.9679 8.61614 13.2958
H 10.2873 8.72459 12.5711
H 11.806 8.22953 12.9108
O -13.7026 -8.71336 9.91142
H -13.6773 -9.51832 9.31858
H -14.5056 -8.16046 9.68866
O -8.30948 7.92399 4.0125
H -7.90951 8.2202 4.87988
H -7.77828 7.16115 3.64376
O -6.37307 4.1233 -11.8139
H -5.85061 4.0259 -12.661
H -7.34185 3.95801 -11.9989
O -1.961 7.05018 -3.5273
H -1.24107 7.29459 -4.17694
H -2.23632 7.8628 -3.01358
O 13.808 -2.8995 -7.41677
H 12.9535 -2.38078 -7.44468
H 13.707 -3.73735 -7.95332
O 10.8795 9.48827 -7.13672
H 11.7314 9.72768 -7.60246
H 10.895 8.51905 -6.89087
O -8.95208 12.2642 3.68676
H -9.26995 13.1979 3.52149
H -9.64757 11.7613 4.19997
O -2.93782 4.64193 -0.778345
H -3.4697 3.83522 -0.520706
H -3.55848 5.39823 -0.985384
O -6.51259 -0.641239 0.984104
H -6.24701 -0.849993 0.0428534
H -6.26803 0.304664 1.19746
O 13.5463 3.67734 11.0621
H 14.4493 3.37231 11.365
H 13.0173 3.9881 11.8518
O 8.78982 14.2264 14.9713
H 7.79272 14.187 14.9058
H 9.16132 14.6544 14.1474
O -13.8168 -12.1643 -7.32183
H -13.4229 -13.059 -7.11122
H -14.4865 -12.26 -8.05831
O -6.41611 -14.3931 -7.95673
H -5.84342 -13.7851 -7.40675
H -5.83454 -14.9737 -8.52654
O 11.4567 14.2258 8.60356
H 10.9931 14.8693 7.99439
H 10.8007 13.8608 9.26432
O -3.19988 1.84338 2.80321
H -2.75549 2.09227 3.66381
H -2.57138 2.00947 2.04331
O -3.10505 13.7914 -12.3298
H -2.63315 14.6587 -12.4888
H -4.05717 13.871 -12.6251
O -8.19303 -10.147 -14.0671
H -7.79419 -9.77722 -14.9063
H -7.46211 -10.4578 -13.4594
O -12.8388 10.8873 13.6597
H -12.4154 10.4836 12.8486
H -13.7746 11.1657 13.4437
O -12.8402 -7.01438 -11.2868
H -11.9927 -6.74609 -11.7449
H -12.9528 -8.00615 -11.3483
O -0.0941481 -12.6995 -2.20423
H 0.369061 -13.5559 -1.97628
H 0.460261 -11.9276 -1.89296
O -14.2721 1.84004 7.80975
H -13.2831 1.73139 7.91067
H -14.5351 1.63768 6.86639
O -8.95817 -5.17612 13.5517
H -8.16212 -4.57358 13.6093
H -9.79158 -4.64178 13.693
O 2.89313 -1.08699 13.7242
H 2.96261 -0.229094 13.215
H 2.54079 -0.902444 14.6417
O 0.687585 -5.93117 3.45909
H 0.138363 -6.06125 4.28462
H 0.627675 -4.97699 3.16581
O -1.75014 -2.18374 -9.97468
H -1.75733 -1.42948 -9.3181
H -0.925043 -2.73305 -9.84229
O -14.0662 12.474 -11.6181
H -13.7008 12.9927 -12.3912
H -13.3193 11.9998 -11.152
O -12.1439 -1.68149 1.06833
H -12.0364 -2.59821 1.4532
H -11.2494 -1.23865 1.00714
O 0.0675738 7.27053 -5.50735
H 1.01694 7.57652 -5.57904
H -0.117521 6.58946 -6.21583
O 6.16432 -6.69566 4.04881
H 6.75352 -6.32899 4.76885
H 5.23149 -6.35911 4.17781
O -4.32078 5.43233 -3.8135
H -3.60203 6.0279 -3.45468
H -4.90775 5.12879 -3.06291
O -9.72122 8.18041 -6.47714
H -10.0975 8.88749 -5.87841
H -9.8616 8.44272 -7.43189
O 7.42163 -5.61101 10.7925
H 6.72863 -5.73311 11.503
H 7.31102 -4.71134 10.3701
O -2.35179 13.5803 11.7784
H -3.33146 13.6465 11.9679
H -1.8379 13.7334 12.6225
O -0.0490551 -8.9063 7.06183
H -0.401774 -9.81379 7.2901
H 0.950633 -8.93023 7.05111
O -9.66024 -7.71936 -14.8848
H -8.96221 -8.38287 14.8454
H -9.45673 -6.83354 14.6977
O 0.422943 13.4806 -13.0926
H 1.29754 13.1288 -13.4263
H 0.337722 13.2887 -12.1148
O 13.8018 12.6027 -7.54438
H 13.5443 11.9923 -6.79526
H 12.9767 12.9668 -7.97632
O 13.3378 7.13618 11.9698
H 14.0008 7.51685 11.3252
H 13.8209 6.74944 12.7554
O 14.7524 -12.8358 -1.44897
H 13.8389 -13.1753 -1.22471
H 14.7117 -12.3024 -2.29385
O -14.5025 -7.79539 -14.6598
H -13.6765 -7.65049 14.795
H 14.8652 -8.38512 14.8368
O -5.76426 13.4846 -13.061
H -5.96196 12.5281 -13.2756
H -6.49816 14.0642 -13.4152
O -13.979 14.1728 -6.99596
H -14.8282 13.7639 -7.33026
H -14.0811 14.4105 -6.02998
O -9.93678 -2.14355 14.7669
H -9.82436 -1.54483 -14.4397
H -9.06273 -2.2314 14.289
O -3.3732 13.4633 4.54038
H -3.87674 12.8904 3.89363
H -3.46658 14.4237 4.27773
O -6.27324 10.8541 -13.579
H -7.08679 10.7135 -14.1434
H -6.23789 10.1546 -12.8651
O -7.92225 11.3385 6.643
H -8.83274 10.925 6.65445
H -7.86922 12.0074 5.90149
O 6.35568 -14.4041 6.87939
H 6.69812 -14.2047 5.96122
H 6.26276 14.6063 6.99293
O -11.823 -9.96526 -2.57606
H -12.5722 -10.535 -2.91381
H -12.0248 -9.00383 -2.76305
O 0.110215 0.880646 9.57669
H 0.307502 -0.0752574 9.79438
H -0.780289 1.13196 9.95605
O -3.84016 -12.0033 13.2753
H -4.68785 -11.8227 12.7765
H -3.81075 -12.9659 13.545
O 6.84187 2.54315 -12.5377
H 6.5949 1.67341 -12.1103
H 6.96815 3.23829 -11.8299
O 10.419 2.74325 1.30374
H 10.3931 3.5657 0.73544
H 10.8783 2.94948 2.16781
O 2.63738 -9.58685 6.46421
H 3.13429 -8.7271 6.58246
H 3.14712 -10.184 5.84479
O -13.7829 -5.46695 0.037337
H -13.3418 -6.30485 0.359012
H -14.0631 -4.9151 0.822815
O -6.97026 -12.8635 -4.69926
H -7.46447 -13.5519 -5.23023
H -6.46872 -13.3106 -3.95858
O -5.15645 -11.2723 -1.0204
H -4.21105 -11.225 -1.34298
H -5.77747 -11.2505 -1.80393
O 10.2649 11.8321 3.42606
H 11.0471 11.9355 2.81165
H 10.5468 11.3285 4.24275
O -4.37327 -5.69506 13.4746
H -4.84361 -6.0798 14.2689
H -4.42561 -4.69694 13.5074
O -10.3843 7.24485 0.669547
H -9.47475 7.11858 0.273535
H -10.7074 6.37655 1.04598
O -7.15414 -4.8844 1.13303
H -6.82548 -5.81488 0.971004
H -8.02313 -4.75015 0.656685
O -8.93301 5.7086 -13.0177
H -8.22772 5.73385 -13.7262
H -9.12848 4.75819 -12.7757
O -1.99402 8.22013 10.2371
H -2.30574 9.16667 10.3205
H -2.25461 7.86112 9.34081
O -12.5249 -3.60456 11.9566
H -13.1595 -2.87508 12.2119
H -12.9354 -4.49202 12.1664
O 11.5133 3.1404 -11.9886
H 10.9914 3.2761 -12.8307
H 12.3296 2.5975 -12.1861
O 2.31654 2.48249 -13.2436
H 2.92311 3.08302 -13.7646
H 2.75124 2.2412 -12.3759
O 10.0481 -1.86472 0.551399
H 10.2149 -0.893 0.384036
H 9.61252 -2.2713 -0.251716
O -11.4589 -11.6527 6.81687
H -11.0764 -10.7331 6.90746
H -11.4637 -11.9182 5.85275
O -10.3412 14.4227 -2.58235
H -11.196 14.0552 -2.21573
H -10.4641 14.6521 -3.54794
O -6.571 -3.58735 6.774
H -7.14662 -3.76037 5.97475
H -7.1501 -3.40579 7.56882
O 6.05794 3.24309 14.8651
H 6.72133 2.80686 14.2571
H 6.48992 3.43619 -14.2534
O -6.33692 -10.1765 8.51071
H -6.98832 -9.74719 7.88506
H -6.59192 -9.96481 9.45423
O -7.56078 6.79717 -10.4409
H -8.2475 6.25215 -10.9219
H -7.98407 7.24881 -9.65542
O -7.13924 -2.41578 14.02
H -6.23526 -2.80434 14.1986
H -7.04195 -1.46145 13.7374
O -9.72867 -5.98027 6.38758
H -9.19494 -5.85617 7.22412
H -9.12232 -5.92599 5.5942
O -9.08677 3.09066 -12.1659
H -9.49027 2.80266 -11.2974
H -8.45639 2.38552 -12.4907
O -2.52007 1.48302 -12.211
H -3.17802 0.80032 -11.8931
H -2.93648 2.39134 -12.1707
O 10.2137 -14.503 12.6636
H 10.2989 -13.5572 12.35
H 10.7683 14.9014 12.0821
O 13.3195 -8.05106 13.1442
H 13.0746 -8.98184 13.4157
H 13.9509 -8.08509 12.3695
O -12.1426 12.0738 -6.98844
H -12.6076 12.9476 -6.84585
H -11.3385 12.2145 -7.56618
O -5.76438 5.02683 9.9299
H -6.53353 5.17591 9.30841
H -5.11645 4.39018 9.51167
O -3.63911 -4.81646 -5.7913
H -3.68147 -5.77946 -6.05754
H -2.99331 -4.3349 -6.38385
O -10.9196 4.43053 -1.27745
H -10.166 3.98028 -1.75641
H -11.7825 4.21084 -1.73268
O -10.2306 10.4532 -0.0397421
H -10.0982 9.79628 0.702562
H -9.50788 11.1436 -0.0067625
O -0.612756 -9.82263 11.1936
H -1.23055 -9.30669 10.6002
H 0.229511 -10.0317 10.6967
O 13.367 -2.94362 -4.31798
H 14.2602 -2.69355 -3.94414
H 13.4901 -3.58851 -5.07233
O -1.57306 -1.03097 5.46978
H -1.73108 -0.046304 5.54419
H -2.45123 -1.50903 5.45135
O -7.03053 6.24989 -5.22827
H -6.3105 6.33325 -5.91725
H -7.88082 6.63565 -5.58641
O -4.75456 6.85826 -1.43712
H -4.59605 7.67441 -1.99286
H -5.72359 6.61377 -1.47276
O -9.06635 14.4178 1.77903
H -8.929 -14.7113 1.30627
H -8.56008 13.6975 1.30487
O 11.1992 14.8998 2.97432
H 11.7132 14.2283 2.44063
H 10.4159 14.453 3.40669
O -6.31792 -0.583075 -1.71967
H -6.11162 -0.0321916 -2.52839
H -7.26823 -0.891839 -1.76024
O 13.1893 10.9117 -5.61781
H 13.3695 10.0477 -6.08794
H 12.4825 10.7726 -4.92413
O 12.4774 -0.779516 -12.1826
H 12.1814 -0.692245 -13.1338
H 13.0261 0.0174596 -11.9298
O -8.54665 -6.76065 11.1792
H -9.31089 -7.40224 11.1131
H -8.79558 -6.00723 11.7878
O 4.61046 -13.4295 10.0402
H 4.97113 -12.7219 9.43248
H 3.94302 -13.0239 10.6648
O -10.12 4.51713 -7.73421
H -9.15629 4.33061 -7.54296
H -10.5843 4.77452 -6.88671
O 12.1441 -9.55794 -7.32173
H 11.5224 -10.2701 -7.64775
H 11.6248 -8.86639 -6.81963
O -8.43942 8.26906 12.0771
H -7.57366 8.76196 12.1642
H -8.65071 8.13498 11.1089
O -4.8987 -1.56244 -5.86274
H -3.99509 -1.2544 -6.1605
H -5.38102 -0.804735 -5.42306
O -0.318123 8.6426 -8.71331
H -0.914887 8.34078 -7.96978
H -0.189934 7.89318 -9.36294
O 5.20191 0.493749 14.8528
H 5.27802 1.48047 14.709
H 4.83602 0.0639216 14.0273
O 13.7111 9.47747 -8.15011
H 13.8102 9.89982 -9.05115
H 14.3514 8.71375 -8.06772
O 7.90754 1.22882 -9.04117
H 7.26721 0.499608 -8.79971
H 8.78163 0.827646 -9.31521
O 4.08623 -11.6898 1.90007
H 3.4421 -12.101 1.25504
H 4.8881 -11.3569 1.40385
O 12.0466 -4.55459 9.03784
H 11.3749 -5.27139 9.22493
H 12.5849 -4.37887 9.86211
O 10.372 10.5457 -4.24777
H 9.77407 9.98446 -3.67545
H 10.3783 10.1827 -5.17956
O -7.79433 -8.70278 6.67772
H -8.04164 -8.44192 5.74452
H -7.09377 -8.07863 7.02372
O -2.60123 -11.4262 -2.0851
H -1.66351 -11.7722 -2.05293
H -2.70184 -10.8079 -2.86463
O -4.63969 6.12534 -10.2555
H -5.46751 5.70913 -10.6318
H -4.21413 6.70669 -10.9491
O 7.23168 -12.7087 11.5727
H 8.04754 -13.2821 11.4976
H 7.18654 -12.0889 10.7892
O 8.49402 6.75079 12.0469
H 8.2057 6.0979 12.7474
H 8.6178 6.27333 11.177
O -14.5768 -10.776 12.1299
H -14.4462 -9.86262 11.7441
H 14.4568 -10.909 12.3518
O -4.11809 1.65982 14.1031
H -4.82112 2.22997 13.678
H -3.24461 1.80587 13.6386
O 4.15248 -10.4794 9.89167
H 3.55445 -10.9846 10.5139
H 3.92908 -10.7188 8.94678
O 11.5352 -1.62776 -7.63667
H 11.067 -1.04269 -6.97443
H 10.9026 -1.87174 -8.37173
O -0.271137 7.90105 1.42418
H -0.817975 8.64099 1.03236
H -0.280245 7.1159 0.804891
O -12.1284 -11.9127 13.3404
H -11.1618 -11.6951 13.2049
H -12.6923 -11.2163 12.8966
O -11.4996 0.434318 9.39164
H -11.3311 -0.522624 9.15508
H -11.1171 1.02551 8.68151
O -4.02463 -9.75192 7.19387
H -4.91503 -10.0758 7.51385
H -4.05147 -9.62905 6.20178
O 1.69134 7.23475 -2.9958
H 1.84177 6.33266 -3.40036
H 1.41019 7.12958 -2.04189
O 7.75451 11.9082 1.89895
H 8.14324 11.4273 2.68484
H 6.7892 11.6651 1.80347
O 11.7931 4.23274 13.2214
H 12.1972 5.10081 13.5098
H 11.2504 3.85251 13.9704
O -13.2976 0.315812 -5.41468
H -13.1412 1.30232 -5.46375
H -13.7186 0.00232024 -6.26588
O -1.19899 9.96503 14.1029
H -1.14429 10.568 13.3069
H -0.349084 9.44462 14.1859
O 7.3069 14.7193 2.00118
H 7.34098 13.7201 1.98102
H 6.41656 -14.984 2.34701
O 9.19079 -14.4442 0.189716
H 8.28924 -14.4509 0.622402
H 9.51121 14.6154 0.0723111
O 0.746841 -5.77335 -11.0123
H 1.66767 -6.01159 -10.7035
H 0.684012 -5.90031 -12.0022
O -9.85098 -4.83753 0.231431
H -9.64152 -5.76957 -0.0643801
H -10.6069 -4.47647 -0.314655
O -11.4501 -4.56482 -5.94907
H -12.2242 -3.96592 -6.1541
H -11.1826 -4.44821 -4.99255
O -4.5685 -12.9168 -6.3961
H -4.182 -12.1346 -6.88482
H -5.15506 -12.59 -5.65498
O 14.8021 10.5724 9.97896
H 13.8863 10.9205 9.77839
H 14.8102 9.57757 9.87705
O 1.60901 9.86449 -2.92987
H 2.32407 10.1451 -3.57017
H 1.60315 8.86744 -2.85284
O -7.83725 7.16623 -0.264263
H -7.04468 7.7053 0.0208802
H -7.74826 6.92871 -1.23159
O 2.10028 5.03144 2.43489
H 1.62308 5.82012 2.82262
H 1.72585 4.19033 2.82527
O -1.45713 -6.10958 -9.42613
H -0.686937 -5.73694 -9.94382
H -2.23497 -6.24811 -10.0392
O 12.8992 2.83503 2.42922
H 13.6112 3.19268 3.03352
H 12.9646 1.83789 2.39071
O 13.8694 1.71187 -5.0734
H 14.4146 1.09448 -5.64059
H 13.5254 1.21564 -4.27626
O -5.38317 0.955357 -3.77202
H -4.39466 1.06047 -3.88095
H -5.84067 1.80074 -4.04785
O 7.79786 -14.023 4.69706
H 7.99245 -14.896 4.24976
H 8.47861 -13.346 4.41716
O 3.23819 -9.57447 -13.5794
H 3.17816 -10.3997 -14.1411
H 3.6785 -9.79495 -12.709
O -3.67465 1.45587 7.77496
H -4.56355 1.04193 7.97135
H -2.94641 0.834874 8.06494
O 10.1702 -3.16462 -5.12403
H 10.9626 -3.5353 -5.60852
H 10.449 -2.36541 -4.59149
O -8.28811 -14.7284 -1.23357
H -7.43046 -14.704 -1.74729
H -9.02118 14.9344 -1.82452
O -11.8298 -11.7839 -13.6208
H -11.512 -11.0165 -13.0639
H -11.2094 -11.9138 -14.3944
O -1.08926 -12.4137 12.6367
H -2.0107 -12.1603 12.9313
H -0.756141 -11.745 11.972
O 6.35553 13.9721 10.1354
H 6.07094 14.8156 10.5911
H 5.64603 13.6853 9.49167
O -8.06948 -7.01415 -4.86216
H -7.41594 -7.22563 -5.58895
H -8.98867 -6.94553 -5.25003
O -14.2236 7.51389 -13.2304
H -14.9916 7.80114 -13.8029
H -13.5539 8.25446 -13.1749
O -0.40588 11.4109 11.8243
H -1.05805 12.0146 11.3657
H 0.459718 11.4134 11.3235
O 6.79886 3.26382 -1.0262
H 6.85832 2.5501 -0.328256
H 6.09098 3.92219 -0.770238
O -1.12954 14.2503 -10.1643
H -1.80909 13.8445 -9.55308
H -1.57558 14.5464 -11.009
O 4.71354 -8.87541 14.279
H 5.47353 -9.52092 14.2029
H 4.19251 -9.07043 -14.8896
O 0.833281 -7.46816 -13.1583
H 1.30777 -8.32105 -12.9404
H 1.43961 -6.87552 -13.6886
O 10.6298 -4.88857 -1.07609
H 9.90937 -4.27721 -1.40359
H 11.1867 -5.19174 -1.84938
O -14.3083 -14.7213 -4.39161
H -14.0048 14.9015 -3.51641
H 14.8642 -14.1771 -4.25135
O 12.6458 -13.6895 -8.70018
H 12.1949 -14.2407 -9.40221
H 13.3525 -13.123 -9.12413
O 13.0549 7.68393 -2.36465
H 13.743 7.94544 -3.0416
H 13.3329 6.83334 -1.91825
O 6.15127 13.624 14.9781
H 6.0942 14.3265 14.2687
H 5.51452 13.8441 -14.2824
O 8.14348 8.28909 14.9091
H 7.59601 9.04633 -14.7342
H 8.6642 8.59952 14.1138
O -8.72133 -5.42864 8.87183
H -9.59882 -4.98185 9.04635
H -8.43208 -5.92608 9.68973
O 7.85264 -1.53633 11.6885
H 7.16486 -1.57633 10.9637
H 8.39283 -2.37789 11.6823
O -8.44145 -1.1833 10.2705
H -7.84295 -1.97468 10.3953
H -9.2061 -1.43399 9.67679
O 11.7501 -14.588 -11.1473
H 12.7122 -14.6986 -11.3967
H 11.1797 14.8844 -11.7773
O 4.95219 -13.5052 -11.7466
H 5.93942 -13.479 -11.9039
H 4.54008 -14.2047 -12.3305
O 8.03557 -8.09573 11.7897
H 7.66201 -8.84394 11.2414
H 7.80224 -7.22155 11.3638
O -1.4261 -8.67131 13.7977
H -0.627656 -8.23371 14.2112
H -1.13273 -9.24686 13.0343
O -7.53047 5.74831 7.84694
H -8.292 6.35124 7.60902
H -6.69029 6.09064 7.42626
O 3.64639 -14.9628 -13.8626
H 3.20153 14.2198 -14.2297
H 3.10823 -14.1544 -14.1014
O 6.20263 7.77519 -9.28402
H 6.517 6.85157 -9.06454
H 5.94378 7.81868 -10.249
O 11.6289 -13.2413 0.374195
H 12.2264 -14.0198 0.181676
H 10.6888 -13.5628 0.487739
O 7.39086 8.19336 -4.36987
H 6.88277 7.38995 -4.05932
H 7.73585 8.03262 -5.29465
O 3.60185 8.07359 -14.4335
H 4.42 7.79368 -14.9358
H 3.69829 9.02575 -14.1434
O -9.5105 1.60137 -5.92831
H -9.42483 0.608208 -6.00797
H -10.4221 1.83101 -5.58724