LAMMPS data file via write_data, version 15 May 2015, timestep = 18500000

2593 atoms
6 atom types
1728 bonds
4 bond types
864 angles
3 angle types
0 dihedrals
3 dihedral types
0 impropers
1 improper types

-1.4924884383545187e+01 1.4924884383545187e+01 xlo xhi
-1.4924884383545187e+01 1.4924884383545187e+01 ylo yhi
-1.4924884383545187e+01 1.4924884383545187e+01 zlo zhi

Masses

1 15.9994
2 1.00794
3 12.0107
4 1.00794
5 12.0107
6 12.0107

Bond Coeffs # harmonic

1 1000 1
2 469 1.4
3 367 1.08
4 469 0.7

Angle Coeffs # harmonic

1 100 109.47
2 35 120
3 63 120

Dihedral Coeffs # opls

1 0 7.25 0 0
2 0 7.25 0 0
3 0 7.25 0 0

Improper Coeffs # cvff

1 2.5 -1 2

Atoms # full

1254 418 2 4.0999999999999998e-01 -1.1707205036062483e+01 -1.3419817015232004e+01 -1.2700702109132772e+01 -3 -3 3
366 122 2 4.0999999999999998e-01 -1.4029796626265226e+01 -1.0541167437371854e+01 -1.3237986378768611e+01 -6 5 4
2436 812 2 4.0999999999999998e-01 -1.3053495182018239e+01 -1.0682055146307139e+01 -9.5425646272825038e+00 -2 0 -7
2434 812 1 -8.1999999999999995e-01 -1.2330976961812969e+01 -1.0200599596255827e+01 -1.0038737817361417e+01 -2 0 -7
2435 812 2 4.0999999999999998e-01 -1.2517213058060555e+01 -1.0240512825252161e+01 -1.1020441880044892e+01 -2 0 -7
594 198 2 4.0999999999999998e-01 -1.3846549945318266e+01 -8.5618342248747332e+00 -1.2892543745063888e+01 -3 -3 -4
1867 623 1 -8.1999999999999995e-01 -1.1115647747402924e+01 -1.3770226685467820e+01 -9.0530812443425877e+00 -4 6 1
593 198 2 4.0999999999999998e-01 -1.3209528570577236e+01 -7.4920454634949616e+00 -1.3949158679000949e+01 -3 -3 -4
592 198 1 -8.1999999999999995e-01 -1.3619508371407701e+01 -7.5996981835592763e+00 -1.3043428440600188e+01 -3 -3 -4
266 89 2 4.0999999999999998e-01 -9.9759057540141551e+00 -1.1652416180395360e+01 -1.2947358754172193e+01 -3 -3 1
1033 345 1 -8.1999999999999995e-01 -1.1237422646240930e+01 -6.1370861101760443e+00 -9.6385907599375642e+00 3 1 2
1408 470 1 -8.1999999999999995e-01 -1.4771972164763360e+01 -1.3531317974056469e+01 -1.2140509137000295e+01 3 3 -1
364 122 1 -8.1999999999999995e-01 -1.4210155245016841e+01 -1.0176313487519710e+01 -1.2324546610297185e+01 -6 5 4
1034 345 2 4.0999999999999998e-01 -1.0446529778089918e+01 -6.5018840914759899e+00 -1.0129946755298381e+01 3 1 2
265 89 1 -8.1999999999999995e-01 -1.0578382418540485e+01 -1.2313436305169926e+01 -1.3394677527380663e+01 -3 -3 1
2222 741 2 4.0999999999999998e-01 -8.1409188732450470e+00 -8.5503231807892881e+00 -1.3609781083719922e+01 -4 3 1
267 89 2 4.0999999999999998e-01 -1.0987248401127117e+01 -1.1895893242265196e+01 -1.4206161504753059e+01 -3 -3 1
1383 461 2 4.0999999999999998e-01 -1.3084090029557464e+01 -6.2961770131358392e+00 -1.2193633059886951e+01 -1 0 -6
1273 425 1 -8.1999999999999995e-01 -8.6266960943334432e+00 -1.3905972205898365e+01 -1.0096690942325232e+01 -5 -1 0
1315 439 1 -8.1999999999999995e-01 -7.8887660184112356e+00 -1.1018143173057808e+01 -1.2435314250866433e+01 -4 6 -2
1275 425 2 4.0999999999999998e-01 -9.5565617725800251e+00 -1.3973429244377021e+01 -9.7350015828979934e+00 -5 -1 0
1316 439 2 4.0999999999999998e-01 -7.9355848272774967e+00 -1.2000222173599107e+01 -1.2252698140968690e+01 -4 6 -2
1885 629 1 -8.1999999999999995e-01 -1.3904193943283506e+01 -1.1743339185801450e+01 -8.6675834926423754e+00 -5 1 1
1623 541 2 4.0999999999999998e-01 -8.4662901944424238e+00 -9.7331621127148509e+00 -8.9965649775820857e+00 -4 5 -3
1466 489 2 4.0999999999999998e-01 -1.3799901146641224e+01 -8.6942504615672593e+00 -9.6715978263564555e+00 2 -2 0
1868 623 2 4.0999999999999998e-01 -1.1705096800978041e+01 -1.3226156045810876e+01 -9.6502049774464620e+00 -4 6 1
1887 629 2 4.0999999999999998e-01 -1.3688003915294907e+01 -1.2119332232007951e+01 -7.7665225033153709e+00 -5 1 1
866 289 2 4.0999999999999998e-01 -1.1989273864044062e+01 -7.2152089331804534e+00 -8.2396678267503383e+00 -6 -2 -3
2526 842 2 4.0999999999999998e-01 -1.0746880510156316e+01 -1.0956506130376368e+01 -9.7041404721555118e+00 -5 0 -2
1252 418 1 -8.1999999999999995e-01 -1.2268786544507027e+01 -1.4137728342863914e+01 -1.2289302832233584e+01 -3 -3 3
1886 629 2 4.0999999999999998e-01 -1.4359916973925138e+01 -1.2441665807332225e+01 -9.2195583624458628e+00 -5 1 1
1094 365 2 4.0999999999999998e-01 -8.1666952288130155e+00 -7.4143426218762869e+00 -9.3949037040373859e+00 -4 1 0
1274 425 2 4.0999999999999998e-01 -7.9730241269196309e+00 -1.4167410751861688e+01 -9.3864919004183065e+00 -5 -1 0
1761 587 2 4.0999999999999998e-01 -7.8596681997641085e+00 -6.3447073370160627e+00 -1.1506373705469022e+01 -4 -4 -3
452 151 2 4.0999999999999998e-01 -1.4632138416692998e+01 -5.3095383142078401e+00 -1.0639976078821419e+01 -4 -5 -2
2221 741 1 -8.1999999999999995e-01 -7.6778205874899177e+00 -7.8280222027763413e+00 -1.4123435706190289e+01 -4 3 1
1381 461 1 -8.1999999999999995e-01 -1.3151575640849464e+01 -5.3849873877403063e+00 -1.1787186175468364e+01 -1 0 -6
1093 365 1 -8.1999999999999995e-01 -8.5143961406831892e+00 -6.5974518504724138e+00 -9.8551355483969036e+00 -4 1 0
2524 842 1 -8.1999999999999995e-01 -9.8244740638526480e+00 -1.1093752596470146e+01 -9.3431009063271073e+00 -5 0 -2
2525 842 2 4.0999999999999998e-01 -9.3842996493846087e+00 -1.1847548213678953e+01 -9.8310132556999719e+00 -5 0 -2
1869 623 2 4.0999999999999998e-01 -1.1279979581230689e+01 -1.3515131242962156e+01 -8.1002217540807617e+00 -4 6 1
1035 345 2 4.0999999999999998e-01 -1.1747726535788422e+01 -5.5212182868734825e+00 -1.0238854515620282e+01 3 1 2
1020 340 2 4.0999999999999998e-01 -1.0676083572906670e+01 -5.5142740431024020e+00 -7.9643911575848518e+00 -7 -3 3
1409 470 2 4.0999999999999998e-01 -1.3778117954634602e+01 -1.3591939092054579e+01 -1.2233238380465856e+01 3 3 -1
1465 489 1 -8.1999999999999995e-01 -1.4605049867789321e+01 -8.1222869037674492e+00 -9.5147124175227127e+00 2 -2 0
865 289 1 -8.1999999999999995e-01 -1.2687881992697807e+01 -7.4335526746625753e+00 -7.5582776864432706e+00 -6 -2 -3
1913 638 2 4.0999999999999998e-01 -1.4910030348732262e+01 -6.4820375506500625e+00 -1.3423298838318507e+01 -6 0 2
1095 365 2 4.0999999999999998e-01 -8.0200082589543626e+00 -5.7931868851323305e+00 -9.5253503125107244e+00 -4 1 0
867 289 2 4.0999999999999998e-01 -1.3595104114676841e+01 -7.2816870142919115e+00 -7.9505845377772264e+00 -6 -2 -3
375 125 2 4.0999999999999998e-01 -8.1297384329250377e+00 -1.4764224135104577e+01 -1.1601518659475303e+01 -3 3 2
1621 541 1 -8.1999999999999995e-01 -7.5770960509402148e+00 -9.2757222047791714e+00 -8.9864499855144935e+00 -4 5 -3
152 51 2 4.0999999999999998e-01 -3.2540706992589978e+00 -1.3715265384658178e+01 -1.1534250933979397e+01 -6 0 -7
826 276 1 -8.1999999999999995e-01 -5.0995692842521905e+00 -1.3952481458693843e+01 -1.2195325704441581e+01 2 0 -4
492 164 2 4.0999999999999998e-01 -3.0467004803348097e+00 -5.1795256981820312e+00 -8.2638945042555108e+00 -8 1 0
828 276 2 4.0999999999999998e-01 -5.0883853079507464e+00 -1.3332799604136566e+01 -1.2980111739953323e+01 2 0 -4
1759 587 1 -8.1999999999999995e-01 -7.4589520821282678e+00 -5.7871259368315737e+00 -1.2233387755211670e+01 -4 -4 -3
2223 741 2 4.0999999999999998e-01 -7.3918228365155967e+00 -7.1037431350295757e+00 -1.3496024419250961e+01 -4 3 1
2204 735 2 4.0999999999999998e-01 -3.9985613200416079e+00 -1.4495343536235323e+01 -8.5492118922564977e+00 2 -1 -2
287 96 2 4.0999999999999998e-01 -2.8233686114449448e+00 -7.1628707747666622e+00 -9.5902405873457912e+00 -3 5 3
1317 439 2 4.0999999999999998e-01 -7.1140566013918924e+00 -1.0623763656228203e+01 -1.1941037086595980e+01 -4 6 -2
1209 403 2 4.0999999999999998e-01 -4.8526420304969164e+00 -9.5976044167544252e+00 -1.0929764065472272e+01 3 0 1
1262 421 2 4.0999999999999998e-01 -3.0649290797583291e+00 -9.1668782287872652e+00 -1.2557606975560997e+01 -2 -4 5
151 51 1 -8.1999999999999995e-01 -2.2633988604485751e+00 -1.3715122503573888e+01 -1.1397909035831685e+01 -6 0 -7
2203 735 1 -8.1999999999999995e-01 -3.3078711103181391e+00 -1.4315717586617749e+01 -7.8487110949654397e+00 2 -1 -2
30 10 2 4.0999999999999998e-01 -1.3490169307646891e+00 -9.7485596578837601e+00 -1.4418088139298625e+01 -2 -1 1
1440 480 2 4.0999999999999998e-01 -8.9640932559193587e-01 -8.9130086722447253e+00 -1.2211275560557045e+01 -1 -1 0
128 43 2 4.0999999999999998e-01 -6.0961881950224370e+00 -8.8822954635217997e+00 -1.4878426710817694e+01 -1 2 3
160 54 1 -8.1999999999999995e-01 -1.3261991051559630e+00 -1.2256271919109098e+01 -7.5712854038050121e+00 -6 5 -4
162 54 2 4.0999999999999998e-01 -1.7548046274943427e+00 -1.3063180372258179e+01 -7.9777529619512837e+00 -6 5 -4
1263 421 2 4.0999999999999998e-01 -4.3095759378651035e+00 -9.1209816358176994e+00 -1.3613744862359596e+01 -2 -4 5
2026 676 1 -8.1999999999999995e-01 -5.8476032398099722e+00 -7.5041810005929479e+00 -7.6372814897267434e+00 -9 0 -1
1451 484 2 4.0999999999999998e-01 -3.5140052275572966e+00 -1.2191004920218319e+01 -8.6646721112651797e+00 2 7 -9
1389 463 2 4.0999999999999998e-01 -5.9383288420714440e+00 -5.6689058256433356e+00 -8.1937055192461461e+00 -7 -1 0
1208 403 2 4.0999999999999998e-01 -4.7725104038263026e+00 -1.1040787859740572e+01 -1.0169843121062858e+01 3 0 1
153 51 2 4.0999999999999998e-01 -1.9058809876982465e+00 -1.4636577986814768e+01 -1.1549963542863024e+01 -6 0 -7
1452 484 2 4.0999999999999998e-01 -3.0454013661652368e+00 -1.2563168053316099e+01 -1.0184074724523143e+01 2 7 -9
2028 676 2 4.0999999999999998e-01 -6.5369467644120700e+00 -8.1291497172212299e+00 -8.0036684725273517e+00 -9 0 -1
1577 526 2 4.0999999999999998e-01 -5.5932648762919168e+00 -6.3295494739459315e+00 -1.2142080045537517e+01 0 -3 1
827 276 2 4.0999999999999998e-01 -5.9902880741204481e+00 -1.4403619452564342e+01 -1.2139519358302717e+01 2 0 -4
393 131 2 4.0999999999999998e-01 -9.1199215712930126e-01 -1.2583331149812642e+01 -1.1174629009700062e+01 0 -3 -8
286 96 1 -8.1999999999999995e-01 -2.9394941784589115e+00 -7.7323584364990046e+00 -8.7764725012791907e+00 -3 5 3
1578 526 2 4.0999999999999998e-01 -4.2235722728252725e+00 -7.1579067909669893e+00 -1.1818899383106643e+01 0 -3 1
391 131 1 -8.1999999999999995e-01 -1.7063500312552193e-01 -1.1912655859367112e+01 -1.1199206423818321e+01 0 -3 -8
1293 431 2 4.0999999999999998e-01 -8.1452304076942816e-01 -6.3178409741655415e+00 -1.1355087143904209e+01 -1 -3 1
1292 431 2 4.0999999999999998e-01 -2.4051235566596993e+00 -6.1627526167655429e+00 -1.1690671537610074e+01 -1 -3 1
1976 659 2 4.0999999999999998e-01 -1.2957921128623351e+00 -8.3907335759135826e+00 -8.5677044426609275e+00 -7 4 4
1291 431 1 -8.1999999999999995e-01 -1.7273395517908732e+00 -6.6818553927930324e+00 -1.1169940365444260e+01 -1 -3 1
1975 659 1 -8.1999999999999995e-01 -5.4319991345100327e-01 -9.0479852726335963e+00 -8.5271457946187610e+00 -7 4 4
1340 447 2 4.0999999999999998e-01 -3.7039892831808299e+00 -1.0325091254291783e+01 -7.7555200767213357e+00 -9 -1 -3
1261 421 1 -8.1999999999999995e-01 -4.0553180414795857e+00 -9.0624216725103537e+00 -1.2648372641675692e+01 -2 -4 5
1977 659 2 4.0999999999999998e-01 -8.5351964758972798e-01 -9.9320319632423448e+00 -8.8766925150740938e+00 -7 4 4
1438 480 1 -8.1999999999999995e-01 -1.2654731391596190e+00 -9.7699573416995413e+00 -1.2571068135496436e+01 -1 -1 0
1622 541 2 4.0999999999999998e-01 -6.9647415522809437e+00 -9.7229676729927768e+00 -9.6383803999826689e+00 -4 5 -3
1439 480 2 4.0999999999999998e-01 -7.8748874414924330e-01 -1.0541244642109632e+01 -1.2150750807060385e+01 -1 -1 0
1207 403 1 -8.1999999999999995e-01 -5.3854299131929970e+00 -1.0313205566635251e+01 -1.0478020858330439e+01 3 0 1
1884 628 2 4.0999999999999998e-01 -5.0593943135751243e+00 -1.1077271258404465e+01 -1.3718634518798822e+01 4 -1 -2
288 96 2 4.0999999999999998e-01 -3.8767580032807647e+00 -7.6444364186197200e+00 -8.4390913328861785e+00 -3 5 3
1450 484 1 -8.1999999999999995e-01 -3.6008546429950066e+00 -1.1943410168171098e+01 -9.6296456014356515e+00 2 7 -9
1576 526 1 -8.1999999999999995e-01 -4.5951005327176304e+00 -6.2768955099894352e+00 -1.2111825488511393e+01 0 -3 1
1882 628 1 -8.1999999999999995e-01 -5.3470043033559005e+00 -1.2007382312639175e+01 -1.3947093981400281e+01 4 -1 -2
1746 582 2 4.0999999999999998e-01 -3.7315414895900290e-01 -1.3117804073800778e+01 -1.4899653508006578e+01 -4 -4 -2
554 185 2 4.0999999999999998e-01 -1.1024820591084927e+01 -5.7785596264759338e+00 -2.8366029148423113e+00 -6 -1 -4
1243 415 1 -8.1999999999999995e-01 -1.3196702727403503e+01 -1.0371737765346502e+01 -7.4075288938453632e-01 -9 2 -5
433 145 1 -8.1999999999999995e-01 -1.0765912649661349e+01 -1.1705363066939045e+01 -1.7517473002906918e+00 -3 2 3
1678 560 1 -8.1999999999999995e-01 -1.0497385463261770e+01 -1.4080081939722406e+01 -4.1005360652550671e+00 -1 4 0
875 292 2 4.0999999999999998e-01 -1.1320714412829911e+01 -1.0932680959714931e+01 -2.9929216917948462e+00 -3 -1 -8
2413 805 1 -8.1999999999999995e-01 -1.0367101586833591e+01 -7.4466670222554683e+00 -2.7738006514740192e+00 -7 0 -1
2414 805 2 4.0999999999999998e-01 -9.8526151382281490e+00 -7.2926876554103330e+00 -1.9302285343434438e+00 -7 0 -1
2415 805 2 4.0999999999999998e-01 -1.0326260614861756e+01 -8.4158088853655180e+00 -3.0169382758921319e+00 -7 0 -1
2345 782 2 4.0999999999999998e-01 -1.0287449903829122e+01 -9.6272893091408882e+00 -6.7704464436754357e+00 -2 -4 3
495 165 2 4.0999999999999998e-01 -1.3280141992801356e+01 -8.3877605042128796e+00 -6.1477774152041160e+00 -2 1 1
434 145 2 4.0999999999999998e-01 -1.1254229861826147e+01 -1.2566383579727862e+01 -1.6095859876387415e+00 -3 2 3
1245 415 2 4.0999999999999998e-01 -1.3249835573324662e+01 -1.0662459394228993e+01 -1.6960945518746531e+00 -9 2 -5
874 292 1 -8.1999999999999995e-01 -1.1652599761417555e+01 -1.0472054773695440e+01 -3.8161443196724285e+00 -3 -1 -8
955 319 1 -8.1999999999999995e-01 -1.4232994064110370e+01 -1.2804307705869824e+01 -6.0226572225930415e+00 -6 3 -3
435 145 2 4.0999999999999998e-01 -1.0277423260085097e+01 -1.1457163075770037e+01 -9.1520997868486020e-01 -3 2 3
876 292 2 4.0999999999999998e-01 -1.0894303136588665e+01 -1.0344749788375815e+01 -4.4555186094914045e+00 -3 -1 -8
956 319 2 4.0999999999999998e-01 -1.4439492695848028e+01 -1.2120704778024553e+01 -5.3226106797073207e+00 -6 3 -3
396 132 2 4.0999999999999998e-01 -1.3325983310048318e+01 -6.7366079697423000e+00 -5.2658361837305261e+00 -9 -1 -2
2344 782 1 -8.1999999999999995e-01 -9.8819031339134753e+00 -1.0445150225441193e+01 -6.3622122442352058e+00 -2 -4 3
493 165 1 -8.1999999999999995e-01 -1.3431929076628011e+01 -8.6953274345026745e+00 -5.2084249413584924e+00 -2 1 1
1680 560 2 4.0999999999999998e-01 -1.0536823065468106e+01 -1.3329548961641070e+01 -3.4408659059638911e+00 -1 4 0
1695 565 2 4.0999999999999998e-01 -9.1302258911095837e+00 -1.0020500353486458e+01 -4.3047206564601783e+00 -4 1 -5
1109 370 2 4.0999999999999998e-01 -7.6757216168272064e+00 -9.4833837447764395e+00 -2.1019234280980577e+00 -3 -1 -4
1904 635 2 4.0999999999999998e-01 -1.2639012228160087e+01 -1.3120872528287308e+01 -6.2487399096146401e+00 0 -3 1
494 165 2 4.0999999999999998e-01 -1.2566193306938894e+01 -9.0047513907855574e+00 -4.8150063082159278e+00 -2 1 1
394 132 1 -8.1999999999999995e-01 -1.3417300519787107e+01 -5.8026299732016646e+00 -4.9203421470188626e+00 -9 -1 -2
108 36 2 4.0999999999999998e-01 -9.3268619868324460e+00 -6.7403300514812976e+00 -4.2499968513757445e+00 -1 2 1
957 319 2 4.0999999999999998e-01 -1.4815497274344676e+01 -1.3605894167958734e+01 -5.8878649000731791e+00 -6 3 -3
1679 560 2 4.0999999999999998e-01 -9.8405301876661220e+00 -1.4765636063085932e+01 -3.7865671394354710e+00 -1 4 0
1905 635 2 4.0999999999999998e-01 -1.1254420916263905e+01 -1.3772582104983071e+01 -5.6787741941651255e+00 0 -3 1
1419 473 2 4.0999999999999998e-01 -1.3456012974727008e+01 -1.3589349621388759e+01 -5.6011761259031267e-01 -5 0 2
985 329 1 -8.1999999999999995e-01 -1.2211592954466262e+01 -1.4506681002458148e+01 -1.4821795992397355e+00 -2 7 4
1693 565 1 -8.1999999999999995e-01 -8.4321299144266835e+00 -1.0239286621207068e+01 -3.6229476732852444e+00 -4 1 -5
1694 565 2 4.0999999999999998e-01 -7.7495701100474808e+00 -1.0847525172395663e+01 -4.0281362676013739e+00 -4 1 -5
2528 843 2 4.0999999999999998e-01 -8.3328543326154936e+00 -7.8655879016397829e+00 -6.0150355431354541e-01 -6 2 -3
2527 843 1 -8.1999999999999995e-01 -9.0890501640620993e+00 -7.2280437063683305e+00 -4.5410924545464226e-01 -6 2 -3
1491 497 2 4.0999999999999998e-01 -1.4355071200670855e+01 -1.0306706451412715e+01 -4.5380334393638613e+00 -3 -6 -3
555 185 2 4.0999999999999998e-01 -1.2339013151879705e+01 -5.2447026713771852e+00 -3.6456603586047898e+00 -6 -1 -4
612 204 2 4.0999999999999998e-01 -1.4335262241492629e+01 -7.2369730949676034e+00 -9.2750489852231333e-01 -1 -2 -1
106 36 1 -8.1999999999999995e-01 -8.9880476508025300e+00 -6.5976940542680484e+00 -5.1799859183138608e+00 -1 2 1
553 185 1 -8.1999999999999995e-01 -1.1591537934641805e+01 -4.9792965448787392e+00 -3.0366774199380426e+00 -6 -1 -4
1903 635 1 -8.1999999999999995e-01 -1.1746481797395946e+01 -1.3493179366985890e+01 -6.5032922704450353e+00 0 -3 1
107 36 2 4.0999999999999998e-01 -8.0747832815771616e+00 -6.1919443265026661e+00 -5.1434460057393334e+00 -1 2 1
986 329 2 4.0999999999999998e-01 -1.2526959803424543e+01 -1.4538908330995596e+01 -2.4306125085839430e+00 -2 7 4
2150 717 2 4.0999999999999998e-01 -1.4005117630797201e+01 -1.4348103251413633e+01 -4.2926772500418480e+00 2 0 4
610 204 1 -8.1999999999999995e-01 -1.3852650373309835e+01 -7.6794635458932454e+00 -1.7165579276825049e-01 -1 -2 -1
2529 843 2 4.0999999999999998e-01 -8.7258936716178432e+00 -6.3387800941753127e+00 -1.7599522489399533e-01 -6 2 -3
1674 558 2 4.0999999999999998e-01 -7.8946945173743899e+00 -1.3126981639811182e+01 -5.6600863737303442e-02 -7 1 2
1019 340 2 4.0999999999999998e-01 -9.7936737153057223e+00 -5.5133913481088719e+00 -6.5903346225911488e+00 -7 -3 3
2552 851 2 4.0999999999999998e-01 -1.4544462378098824e+01 -6.5537008984663139e+00 -3.5238951903399443e+00 -3 1 -4
1489 497 1 -8.1999999999999995e-01 -1.4848565621531623e+01 -1.0942912650079728e+01 -3.9449695676234011e+00 -3 -6 -3
2346 782 2 4.0999999999999998e-01 -9.7164491651738292e+00 -1.1126543962799456e+01 -7.0751970664616461e+00 -2 -4 3
1244 415 2 4.0999999999999998e-01 -1.3517382587844475e+01 -9.4278827021081710e+00 -6.6124267337731091e-01 -9 2 -5
395 132 2 4.0999999999999998e-01 -1.3608115536652104e+01 -5.1828193746963649e+00 -5.6815545298934111e+00 -9 -1 -2
1417 473 1 -8.1999999999999995e-01 -1.4145054540325891e+01 -1.3014370533562815e+01 -1.1893669800949702e-01 -5 0 2
2091 697 2 4.0999999999999998e-01 -7.3947702714205477e-02 -1.2177141824293251e+01 -7.1621319346410672e-01 0 0 -1
1222 408 1 -8.1999999999999995e-01 -4.7886312930540509e+00 -7.8335328366720818e+00 -9.5506239429673379e-01 -6 3 1
21 7 2 4.0999999999999998e-01 -3.3266966395342230e+00 -1.4456563437195879e+01 -1.7334264723584187e+00 0 -1 2
1572 524 2 4.0999999999999998e-01 -5.1723212428349470e+00 -6.2495275664166812e+00 -8.8518403382825994e-01 -6 -1 0
1108 370 1 -8.1999999999999995e-01 -7.3237312276488051e+00 -9.3573309403326697e+00 -1.1744357981800579e+00 -3 -1 -4
362 121 2 4.0999999999999998e-01 -1.0409216401971833e-01 -9.7860443320373278e+00 -4.1871599405212621e+00 -1 0 -8
303 101 2 4.0999999999999998e-01 -7.8725285622947183e-01 -9.4364797021739282e+00 -6.4508270648436934e+00 -9 0 -7
155 52 2 4.0999999999999998e-01 -5.3277934343605438e-01 -7.3339454055006001e+00 -5.9287048135569709e+00 -1 1 3
149 50 2 4.0999999999999998e-01 -6.8636080527644499e+00 -1.4650246637980427e+01 -1.4540951234114114e+00 -6 -2 -1
2205 735 2 4.0999999999999998e-01 -3.6191932385006691e+00 -1.4682256448254000e+01 -6.9719285492572194e+00 2 -1 -2
1647 549 2 4.0999999999999998e-01 -9.1643042930778407e-01 -7.4693824743013666e+00 -1.2219425588999933e+00 -3 1 -2
1110 370 2 4.0999999999999998e-01 -6.5235129154148339e+00 -9.9416409525568188e+00 -1.0393347349172579e+00 -3 -1 -4
361 121 1 -8.1999999999999995e-01 -1.2215072195496646e-01 -1.0199075444456913e+01 -3.2766112103949734e+00 -1 0 -8
735 245 2 4.0999999999999998e-01 -6.4622726942148052e+00 -1.2576644953376512e+01 -2.9810328097858179e+00 -4 3 -5
556 186 1 -8.1999999999999995e-01 -5.5050111718032859e+00 -1.1322817606439587e+01 -7.0485541821226150e-01 -6 -1 4
1223 408 2 4.0999999999999998e-01 -5.4564024087738350e+00 -7.8673772380919180e+00 -1.6986725843212032e+00 -6 3 1
161 54 2 4.0999999999999998e-01 -2.0326404882994442e+00 -1.1660201935965649e+01 -7.1896298242928909e+00 -6 5 -4
2027 676 2 4.0999999999999998e-01 -5.6752072528865600e+00 -7.7239210984036557e+00 -6.6770660099957695e+00 -9 0 -1
660 220 2 4.0999999999999998e-01 -8.0764841956303179e-01 -5.1006713845328449e+00 -4.5422069910829350e+00 -7 -3 -7
1224 408 2 4.0999999999999998e-01 -4.4015973756097537e+00 -8.7445861122036774e+00 -8.1291289499535502e-01 -6 3 1
883 295 1 -8.1999999999999995e-01 -1.9573610010562028e+00 -1.3388216854029990e+01 -4.5121269545096023e+00 -1 -4 -5
491 164 2 4.0999999999999998e-01 -1.8693654694629345e+00 -5.5411683325434620e+00 -7.1916182808675346e+00 -8 1 0
734 245 2 4.0999999999999998e-01 -7.2621711019183346e+00 -1.2949403855884629e+01 -4.3550388796410413e+00 -4 3 -5
885 295 2 4.0999999999999998e-01 -2.3421226059245992e+00 -1.2528435268517008e+01 -4.8479155209115969e+00 -1 -4 -5
884 295 2 4.0999999999999998e-01 -1.5442313348302594e+00 -1.3240085043202273e+01 -3.6135721867434647e+00 -1 -4 -5
154 52 1 -8.1999999999999995e-01 -6.0606281622004055e-01 -6.3546814236627434e+00 -6.1176264761144505e+00 -1 1 3
1079 360 2 4.0999999999999998e-01 -4.9941276879942347e+00 -9.6025435151554035e+00 -4.2217659050070822e+00 -8 3 -1
2019 673 2 4.0999999999999998e-01 -3.0353472819181526e+00 -6.1395628913893265e+00 -5.3261271630874294e+00 -6 0 -6
363 121 2 4.0999999999999998e-01 -1.0547086513129695e+00 -1.0488002219296691e+01 -3.0601006282568814e+00 -1 0 -8
1078 360 1 -8.1999999999999995e-01 -4.8907260759448672e+00 -1.0391783799994556e+01 -4.8270986218060568e+00 -8 3 -1
2569 857 1 -8.1999999999999995e-01 -3.5078092670097121e+00 -1.3219974695871667e+01 -3.2168744402983229e-01 -5 5 2
1570 524 1 -8.1999999999999995e-01 -5.5555937624587841e+00 -5.3485673030607224e+00 -6.8173232377455051e-01 -6 -1 0
733 245 1 -8.1999999999999995e-01 -6.6072891997199257e+00 -1.2320056793436018e+01 -3.9366229850039236e+00 -4 3 -5
148 50 1 -8.1999999999999995e-01 -6.2134242904704191e+00 -1.4004116061052457e+01 -1.8538402567818331e+00 -6 -2 -1
1384 462 1 -8.1999999999999995e-01 -7.1453205762742584e+00 -5.1707237885005899e+00 -4.0200842912539070e+00 -4 3 4
2017 673 1 -8.1999999999999995e-01 -3.1624778191634064e+00 -6.9864666094958494e+00 -4.8097824761502981e+00 -6 0 -6
558 186 2 4.0999999999999998e-01 -4.7700383197286911e+00 -1.1999549697231537e+01 -7.4808044412674768e-01 -6 -1 4
2018 673 2 4.0999999999999998e-01 -2.7800300927300174e+00 -7.7524771385575866e+00 -5.3264849151990177e+00 -6 0 -6
1045 349 1 -8.1999999999999995e-01 -3.2374339292303702e+00 -5.0418875095376201e+00 -2.5508312144979470e+00 2 -2 -2
963 321 2 4.0999999999999998e-01 -3.5757879024664607e+00 -1.1153593811573483e+01 -2.7790019742272474e+00 -6 1 -2
301 101 1 -8.1999999999999995e-01 -2.1991110262808000e-01 -9.1394637156961878e+00 -5.6827615345730589e+00 -9 0 -7
1339 447 1 -8.1999999999999995e-01 -3.2214369438542274e+00 -1.0622786415335732e+01 -6.9317842960864473e+00 -9 -1 -3
2140 714 1 -8.1999999999999995e-01 -5.6486067242596754e+00 -7.8778621832482383e+00 -3.7824074066163167e+00 -1 -4 -2
150 50 2 4.0999999999999998e-01 -5.3782958183195060e+00 -1.4489144202773279e+01 -2.1133165803727145e+00 -6 -2 -1
1734 578 2 4.0999999999999998e-01 -5.2752317070012644e-01 -1.4414850915828097e+01 -5.4201380095029315e+00 -5 -1 -2
2142 714 2 4.0999999999999998e-01 -6.4834818878872351e+00 -7.3295342154936955e+00 -3.8307779680527805e+00 -1 -4 -2
490 164 1 -8.1999999999999995e-01 -2.8246288384035179e+00 -5.2630921282809151e+00 -7.2924416260036065e+00 -8 1 0
961 321 1 -8.1999999999999995e-01 -2.6386252401441137e+00 -1.0878145951041368e+01 -2.5648188376964303e+00 -6 1 -2
962 321 2 4.0999999999999998e-01 -2.5951082289625464e+00 -1.0549802931078897e+01 -1.6212527604908171e+00 -6 1 -2
1341 447 2 4.0999999999999998e-01 -3.8188683675081343e+00 -1.0512839477917691e+01 -6.1374246641813546e+00 -9 -1 -3
1080 360 2 4.0999999999999998e-01 -5.5603080183491294e+00 -1.1091953768629033e+01 -4.5792239488369972e+00 -8 3 -1
1047 349 2 4.0999999999999998e-01 -3.1792055083392921e+00 -5.8531440182718875e+00 -3.1326319925793236e+00 2 -2 -2
2141 714 2 4.0999999999999998e-01 -4.8658250045833871e+00 -7.3178344317423036e+00 -4.0537770892855693e+00 -1 -4 -2
1046 349 2 4.0999999999999998e-01 -4.1133195456762603e+00 -5.0399412618935742e+00 -2.0682957870670737e+00 2 -2 -2
2054 685 2 4.0999999999999998e-01 -3.5518679494193179e+00 -1.4456384218740856e+01 -4.9749059731166216e+00 0 -2 -6
83 28 2 4.0999999999999998e-01 -2.0427304199925107e+00 -9.0211823568267882e+00 -3.1385961284000174e-02 -1 2 -5
1543 515 1 -8.1999999999999995e-01 -1.0791022855924357e+01 -1.3172224908804257e+01 1.0039033552153231e+00 0 1 -2
246 82 2 4.0999999999999998e-01 -1.0698008414388209e+01 -5.6659509775430372e+00 4.6493332938882261e+00 -4 1 -5
499 167 1 -8.1999999999999995e-01 -9.1815794806714770e+00 -1.1031967418961637e+01 4.1694388060764673e+00 2 3 -1
40 14 1 -8.1999999999999995e-01 -9.4042268441332197e+00 -8.9878659490750206e+00 2.6101861196252756e+00 -6 5 0
42 14 2 4.0999999999999998e-01 -9.8940586182074242e+00 -8.1178598940482303e+00 2.5538468304204827e+00 -6 5 0
462 154 2 4.0999999999999998e-01 -1.2180244589716207e+01 -5.9014301467492967e+00 3.8605492671986674e+00 2 0 -1
2270 757 2 4.0999999999999998e-01 -1.1654559948826664e+01 -1.4602662653446599e+01 1.1471972921225806e+00 -2 -7 5
346 116 1 -8.1999999999999995e-01 -8.5253343991531665e+00 -8.9209505470682604e+00 6.2722844968786866e+00 -5 4 -2
500 167 2 4.0999999999999998e-01 -9.2865695256026228e+00 -1.0178608449080201e+01 3.6587771172603851e+00 2 3 -1
2245 749 1 -8.1999999999999995e-01 -1.0423546338395136e+01 -6.8542219362956409e+00 6.0592562752929027e+00 -2 1 -4
1421 474 2 4.0999999999999998e-01 -1.2357959215844161e+01 -1.0743973653594173e+01 8.6477077324581231e-01 0 -6 -3
460 154 1 -8.1999999999999995e-01 -1.3161832942673941e+01 -6.0641708018109473e+00 3.7604513545831253e+00 2 0 -1
348 116 2 4.0999999999999998e-01 -8.8324664568171425e+00 -9.8427869811849646e+00 6.0358372842850017e+00 -5 4 -2
2246 749 2 4.0999999999999998e-01 -1.1126397738197202e+01 -6.9858678513739108e+00 6.7583192681860318e+00 -2 1 -4
923 308 2 4.0999999999999998e-01 -1.1625910759922434e+01 -1.2999958300139888e+01 4.7897897430525980e+00 -7 0 -4
2247 749 2 4.0999999999999998e-01 -9.6400110005194666e+00 -7.4424505570106145e+00 6.2594544828247294e+00 -2 1 -4
1420 474 1 -8.1999999999999995e-01 -1.2332959510921427e+01 -1.0930132486530868e+01 1.8469824503224004e+00 0 -6 -3
924 308 2 4.0999999999999998e-01 -1.0244384572726844e+01 -1.2147973321638007e+01 4.9691951392386855e+00 -7 0 -4
791 264 2 4.0999999999999998e-01 -8.4152388576860915e+00 -1.4298401774070387e+01 6.2995925088366782e+00 -5 4 2
1422 474 2 4.0999999999999998e-01 -1.1734293007610010e+01 -1.0267299859217594e+01 2.2967281400112078e+00 0 -6 -3
461 154 2 4.0999999999999998e-01 -1.3454018926932804e+01 -5.7869901724788537e+00 2.8451273233340473e+00 2 0 -1
922 308 1 -8.1999999999999995e-01 -1.0889523316396838e+01 -1.2762461046819434e+01 5.4233103801563161e+00 -7 0 -4
2361 787 2 4.0999999999999998e-01 -1.0530362372194087e+01 -6.1498037267667378e+00 2.2463592464557536e+00 -3 -3 -1
997 333 1 -8.1999999999999995e-01 -1.2381979372569774e+01 -1.1507501126614267e+01 7.3211002022016700e+00 -6 -4 0
998 333 2 4.0999999999999998e-01 -1.1779330738953266e+01 -1.1993986398055799e+01 6.6885130235912662e+00 -6 -4 0
737 246 2 4.0999999999999998e-01 -1.3767036419123258e+01 -1.0380719655665056e+01 2.7635628181470970e+00 -1 5 4
1544 515 2 4.0999999999999998e-01 -9.8072265640837273e+00 -1.3013808991226540e+01 9.1982557635365048e-01 0 1 -2
41 14 2 4.0999999999999998e-01 -8.5721652761630374e+00 -8.9382986106507900e+00 2.0577040322254128e+00 -6 5 0
1219 407 1 -8.1999999999999995e-01 -1.3179640097526871e+01 -1.3031822129441178e+01 3.5369528458779378e+00 -10 3 -2
1418 473 2 4.0999999999999998e-01 -1.3700214014325116e+01 -1.2405687407799727e+01 5.3805765551701157e-01 -5 0 2
347 116 2 4.0999999999999998e-01 -8.1871604869592041e+00 -8.9134179485156348e+00 7.2133485128108852e+00 -5 4 -2
2360 787 2 4.0999999999999998e-01 -1.0301944486490786e+01 -6.9803362686448907e+00 8.5901637081064486e-01 -3 -3 -1
2359 787 1 -8.1999999999999995e-01 -1.0850738235640936e+01 -6.9184601624471078e+00 1.6926929142612614e+00 -3 -3 -1
1545 515 2 4.0999999999999998e-01 -1.1221082574977405e+01 -1.2377854268272470e+01 1.4329065259817995e+00 0 1 -2
1220 407 2 4.0999999999999998e-01 -1.2770462831725844e+01 -1.2275205781498045e+01 3.0269278192043352e+00 -10 3 -2
1221 407 2 4.0999999999999998e-01 -1.4097438164307182e+01 -1.3213885359853110e+01 3.1840795103215314e+00 -10 3 -2
2051 684 2 4.0999999999999998e-01 -7.7640872206520761e+00 -8.0173879785216489e+00 4.5271676863971244e+00 -3 -2 2
501 167 2 4.0999999999999998e-01 -8.2218589588400199e+00 -1.1312629624348428e+01 4.1558351368806754e+00 2 3 -1
792 264 2 4.0999999999999998e-01 -9.8790131765435074e+00 -1.3609718534873261e+01 6.5226608044850032e+00 -5 4 2
1199 400 2 4.0999999999999998e-01 -1.3964778406494093e+01 -1.0632163000948545e+01 7.2704235579289147e+00 -5 -1 1
1672 558 1 -8.1999999999999995e-01 -8.0845409801306332e+00 -1.2697297288793710e+01 8.2620686765957885e-01 -7 1 2
2324 775 2 4.0999999999999998e-01 -1.2903714793602520e+01 -1.4098973210443033e+01 6.7084475297707087e+00 -7 3 -1
1675 559 1 -8.1999999999999995e-01 -8.0864412632154465e+00 -5.0093130276368605e+00 2.4275819490634447e+00 -4 4 1
2325 775 2 4.0999999999999998e-01 -1.3592913169672984e+01 -1.3517554515786335e+01 5.3469640784808306e+00 -7 3 -1
1676 559 2 4.0999999999999998e-01 -7.5639585506442035e+00 -5.7577891716586969e+00 2.8360119777111770e+00 -4 4 1
1454 485 2 4.0999999999999998e-01 -1.3301099956637310e+01 -5.4541045844547860e+00 3.6593595329055262e-01 -8 -2 -1