LAMMPS data file via write_data, version 15 May 2015, timestep = 1009000

2593 atoms
6 atom types
1728 bonds
4 bond types
864 angles
3 angle types
0 dihedrals
3 dihedral types
0 impropers
1 improper types

-1.5032003710916955e+01 1.5032003710916955e+01 xlo xhi
-1.5032003710916955e+01 1.5032003710916955e+01 ylo yhi
-1.5032003710916955e+01 1.5032003710916955e+01 zlo zhi

Masses

1 15.9994
2 1.00794
3 12.0107
4 1.00794
5 12.0107
6 12.0107

Bond Coeffs # harmonic

1 1000 1
2 469 1.4
3 367 1.08
4 469 0.7

Angle Coeffs # harmonic

1 100 109.47
2 35 120
3 63 120

Dihedral Coeffs # opls

1 0 7.25 0 0
2 0 7.25 0 0
3 0 7.25 0 0

Improper Coeffs # cvff

1 2.5 -1 2

Atoms # full

2389 797 1 -8.1999999999999995e-01 -1.2520975728661469e+01 -9.2335334623335399e+00 -1.3310659476490201e+01 0 2 1
2302 768 1 -8.1999999999999995e-01 -7.2604377494048391e+00 -1.0052933093548218e+01 -1.0804454329967985e+01 0 3 2
684 228 2 4.0999999999999998e-01 -1.1352443245979597e+01 -1.3095905039988084e+01 -1.0126818486498824e+01 -2 2 1
2571 857 2 4.0999999999999998e-01 -3.2518133819481854e-01 -1.2968027532723594e+01 -1.4078294305937121e+01 0 1 2
1586 529 2 4.0999999999999998e-01 -1.2697312890733423e+01 -1.3147618878521609e+01 -1.1826940802535043e+01 0 1 0
2303 768 2 4.0999999999999998e-01 -7.7130758865331988e+00 -9.2791625778133202e+00 -1.0361298557051612e+01 0 3 2
1559 520 2 4.0999999999999998e-01 -9.0844237641696068e+00 -7.6494690087484383e+00 -9.2568557711871513e+00 0 2 3
861 287 2 4.0999999999999998e-01 -1.0180565403346858e+01 -1.0860671572018004e+01 -1.2032873448063969e+01 0 2 1
336 112 2 4.0999999999999998e-01 -1.3244205041884623e+01 -5.4807336754007601e+00 -8.4134778975061266e+00 -2 1 2
2403 801 2 4.0999999999999998e-01 -1.4333092234652209e+01 -9.9077569896428770e+00 -1.3532129525060764e+01 1 0 2
860 287 2 4.0999999999999998e-01 -1.0429339757356377e+01 -1.1357127528359872e+01 -1.0497217137562053e+01 0 2 1
38 13 2 4.0999999999999998e-01 -1.3530349165712918e+01 -9.3535599824277540e+00 -9.4117220722713206e+00 -1 1 2
682 228 1 -8.1999999999999995e-01 -1.2314465547768219e+01 -1.3216480758187878e+01 -9.8819436235855296e+00 -2 2 1
683 228 2 4.0999999999999998e-01 -1.2427827156629762e+01 -1.3078196271164034e+01 -8.8980657522957252e+00 -2 2 1
859 287 1 -8.1999999999999995e-01 -1.0077209068275684e+01 -1.1623407309923774e+01 -1.1394484213430028e+01 0 2 1
485 162 2 4.0999999999999998e-01 -1.1289697402983528e+01 -1.4568285478136970e+01 -1.3364781601653947e+01 -1 1 3
2390 797 2 4.0999999999999998e-01 -1.1539434986026585e+01 -9.3553412820542459e+00 -1.3163249283296043e+01 0 2 1
37 13 1 -8.1999999999999995e-01 -1.3788360139789159e+01 -8.6729791182499447e+00 -8.7259895106276844e+00 -1 1 2
1585 529 1 -8.1999999999999995e-01 -1.2170850418355297e+01 -1.3044580491988539e+01 -1.2670865832566637e+01 0 1 0
1587 529 2 4.0999999999999998e-01 -1.1338305588995933e+01 -1.2523521009240586e+01 -1.2482835992430953e+01 0 1 0
1558 520 1 -8.1999999999999995e-01 -9.2474422687341793e+00 -8.3725988430061502e+00 -9.9280467498634337e+00 0 2 3
1560 520 2 4.0999999999999998e-01 -9.7604157211991076e+00 -9.1160937551627548e+00 -9.4990214983012944e+00 0 2 3
621 207 2 4.0999999999999998e-01 -9.0034502325872019e+00 -8.9481180854244631e+00 -1.2288963494022205e+01 -1 2 3
1781 594 2 4.0999999999999998e-01 -1.0966099025175145e+01 -7.4036015319029138e+00 -1.0399302243351666e+01 -2 4 1
619 207 1 -8.1999999999999995e-01 -9.7504615680880278e+00 -9.3012015495512657e+00 -1.2852253134663819e+01 -1 2 3
1828 610 1 -8.1999999999999995e-01 -1.3050772503571718e+01 -1.0174014769130086e+01 -1.0828963784898701e+01 1 2 2
620 207 2 4.0999999999999998e-01 -9.5101831701291104e+00 -9.2115684694479736e+00 -1.3818804378555090e+01 -1 2 3
1830 610 2 4.0999999999999998e-01 -1.2875551672150102e+01 -9.6866768337837978e+00 -1.1684410141850490e+01 1 2 2
2426 809 2 4.0999999999999998e-01 -1.9128517026071012e+00 -1.0786590958041648e+01 -1.4456499733466481e+01 1 2 2
613 205 1 -8.1999999999999995e-01 -1.0580540741159158e+01 -1.0394969184728510e+01 -8.6315682367519457e+00 1 -1 2
2348 783 2 4.0999999999999998e-01 -3.5144804623532000e+00 -5.5981710414983894e+00 -8.3001325476006542e+00 0 2 3
614 205 2 4.0999999999999998e-01 -9.9686546095209607e+00 -1.0972838970609269e+01 -8.0915210237818442e+00 1 -1 2
1013 338 2 4.0999999999999998e-01 -7.3519732365448514e+00 -1.4314260974083130e+01 -1.2135438255389799e+01 0 4 2
1452 484 2 4.0999999999999998e-01 -8.5467810846894050e+00 -1.2300336685111734e+01 -1.2273979025763847e+01 3 2 -1
1780 594 1 -8.1999999999999995e-01 -1.1264466263175120e+01 -6.4524829944126907e+00 -1.0478924085780339e+01 -2 4 1
334 112 1 -8.1999999999999995e-01 -1.3558995198948042e+01 -5.0619796438280371e+00 -9.2652650559085217e+00 -2 1 2
1293 431 2 4.0999999999999998e-01 -9.3432275308832331e+00 -5.7223670606506012e+00 -8.1549878633697830e+00 1 3 0
2381 794 2 4.0999999999999998e-01 -1.2970861557435024e+01 -1.2623898776013027e+01 -1.4077495784062346e+01 1 1 0
864 288 2 4.0999999999999998e-01 -1.2687231859857119e+01 -1.4900623417848095e+01 -1.0318262313179863e+01 0 2 1
2492 831 2 4.0999999999999998e-01 -9.2788725121144573e+00 -1.4320423360747087e+01 -1.4747513935633716e+01 1 3 -1
1231 411 1 -8.1999999999999995e-01 -5.9195536424736268e+00 -6.5349480177258243e+00 -1.0959690964652527e+01 1 2 1
1829 610 2 4.0999999999999998e-01 -1.3642182801009502e+01 -1.0960175336923562e+01 -1.1008336379139232e+01 1 2 2
1782 594 2 4.0999999999999998e-01 -1.1053503855231259e+01 -5.9649398823682560e+00 -9.6317017412409012e+00 -2 4 1
2391 797 2 4.0999999999999998e-01 -1.2670421231259942e+01 -8.7342676227667866e+00 -1.4164116441476915e+01 0 2 1
2304 768 2 4.0999999999999998e-01 -7.5546248239444616e+00 -1.0904403697945197e+01 -1.0370356530875185e+01 0 3 2
2382 794 2 4.0999999999999998e-01 -1.4276468751120683e+01 -1.1940369637280924e+01 -1.4780898321245955e+01 1 1 0
825 275 2 4.0999999999999998e-01 -4.7755650732989707e-02 -1.0901714245303880e+01 -7.7834638668074874e+00 -2 2 -1
773 258 2 4.0999999999999998e-01 -7.0087335461021532e+00 -5.1269027956971289e+00 -7.7554373911180603e+00 -2 1 1
1602 534 2 4.0999999999999998e-01 -5.5050985376768047e-01 -1.4519976972391090e+01 -1.0578705653816360e+01 -1 2 2
2251 751 1 -8.1999999999999995e-01 -1.3301946954582908e+01 -5.6343588568166592e+00 -1.2460252670193348e+01 1 2 3
2347 783 1 -8.1999999999999995e-01 -3.0156055187036603e+00 -5.2874625064580201e+00 -9.1091894737489554e+00 0 2 3
1127 376 2 4.0999999999999998e-01 -1.0100300565534610e+01 -5.9168865440904046e+00 -1.2053204731163529e+01 1 2 3
1191 397 2 4.0999999999999998e-01 -5.9306152662774849e+00 -9.7798558675879690e+00 -1.2071155548407289e+01 0 3 2
726 242 2 4.0999999999999998e-01 -1.1199850827539581e+00 -8.8621712539105371e+00 -1.2850516630426309e+01 -1 3 0
1601 534 2 4.0999999999999998e-01 -1.1286510793548352e+00 -1.3064333836909086e+01 -1.1040715672099669e+01 -1 2 2
2103 701 2 4.0999999999999998e-01 -4.7028194442130467e+00 -9.5524622051184593e+00 -1.4341330327390363e+01 0 2 1
1450 484 1 -8.1999999999999995e-01 -7.6007478148715775e+00 -1.2501929802595338e+01 -1.2527692057390000e+01 3 2 -1
2491 831 1 -8.1999999999999995e-01 -8.4398375804560253e+00 -1.3789399463367335e+01 -1.4865933021204761e+01 1 3 -1
2493 831 2 4.0999999999999998e-01 -8.0752571449409309e+00 -1.3537844450264988e+01 -1.3969389525496783e+01 1 3 -1
1416 472 2 4.0999999999999998e-01 -1.4739757606130043e+01 -6.0850552317692141e+00 -1.3344891931902755e+01 0 3 1
2089 697 1 -8.1999999999999995e-01 -2.8125947155833995e+00 -1.2999939952607850e+01 -8.3460460051191614e+00 0 1 2
1662 554 2 4.0999999999999998e-01 -5.6646848426964684e+00 -7.4352458846017537e+00 -9.4417109681316909e+00 0 1 -1
2569 857 1 -8.1999999999999995e-01 -1.2117138459531773e+00 -1.2714986567770538e+01 -1.4465617771093939e+01 0 1 2
724 242 1 -8.1999999999999995e-01 -1.4173929441826800e+00 -8.7329671193338072e+00 -1.1904554701200222e+01 -1 3 0
1306 436 1 -8.1999999999999995e-01 -3.3260077507648624e+00 -5.4056054352602505e+00 -1.4322319432646886e+01 2 -1 2
1600 534 1 -8.1999999999999995e-01 -3.0815758325123355e-01 -1.3631341622824882e+01 -1.0968040593463495e+01 -1 2 2
248 83 2 4.0999999999999998e-01 -2.9231624396160392e+00 -5.9378797359104247e+00 -1.0807232535820662e+01 -1 2 0
1232 411 2 4.0999999999999998e-01 -6.1817999734397908e+00 -5.8431557061710393e+00 -1.1632475756491877e+01 1 2 1
17 6 2 4.0999999999999998e-01 -2.3479512087442860e+00 -1.1225352435306057e+01 -7.9739707240011226e+00 -3 2 0
16 6 1 -8.1999999999999995e-01 -1.7499957739661287e+00 -1.0454624034345322e+01 -7.7539340255191904e+00 -3 2 0
1233 411 2 4.0999999999999998e-01 -4.9399696967678963e+00 -6.7205252863675895e+00 -1.1036927536552129e+01 1 2 1
247 83 1 -8.1999999999999995e-01 -3.0396986474158787e+00 -6.4568611128272284e+00 -1.1654030495252950e+01 -1 2 0
1307 436 2 4.0999999999999998e-01 -3.2602726966848952e+00 -5.7717758534801895e+00 -1.3394102212323240e+01 2 -1 2
1824 608 2 4.0999999999999998e-01 -6.3495514629626193e-01 -9.0402133301381902e+00 -8.8372868713246362e+00 0 1 1
2174 725 2 4.0999999999999998e-01 -4.4514293263357505e+00 -1.0809634314709243e+01 -9.2617481418059668e+00 1 2 1
39 13 2 4.0999999999999998e-01 -1.4301439790842975e+01 -7.9354112325381285e+00 -9.1650020170466373e+00 -1 1 2
1660 554 1 -8.1999999999999995e-01 -5.5832718468025249e+00 -7.9247731998615798e+00 -8.5735381525688936e+00 0 1 -1
1867 623 1 -8.1999999999999995e-01 -2.4985148180371741e+00 -7.9835980803506770e+00 -8.5247400922330208e+00 -1 3 3
2091 697 2 4.0999999999999998e-01 -2.4949058462318394e+00 -1.3749253539954088e+01 -7.7650193060546888e+00 0 1 2
2252 751 2 4.0999999999999998e-01 -1.3211303387707279e+01 -6.0790344992201710e+00 -1.1569165442426854e+01 1 2 3
1868 623 2 4.0999999999999998e-01 -2.0787239338196208e+00 -7.2803384087836998e+00 -9.0984914087358675e+00 -1 3 3
1661 554 2 4.0999999999999998e-01 -5.3533382976612867e+00 -8.8817029410214854e+00 -8.7507530633350896e+00 0 1 -1
778 260 1 -8.1999999999999995e-01 -3.5006768628238074e+00 -1.0887971312317006e+01 -1.0642284329157345e+01 1 3 1
1126 376 1 -8.1999999999999995e-01 -9.6257152810499846e+00 -5.5127644212729212e+00 -1.2835153046757139e+01 1 2 3
60 20 2 4.0999999999999998e-01 -6.0321774283050686e+00 -1.4428868345077317e+01 -8.1457045050509969e+00 -2 3 2
1308 436 2 4.0999999999999998e-01 -4.1509497357639003e+00 -5.7598593910425695e+00 -1.4762732847061518e+01 2 -1 2
1833 611 2 4.0999999999999998e-01 -2.5153246696805791e+00 -1.3234352485423615e+01 -1.2775201006976697e+01 -1 -1 1
2090 697 2 4.0999999999999998e-01 -3.4267750236811487e+00 -1.3360024537484653e+01 -9.0482644583833114e+00 0 1 2
779 260 2 4.0999999999999998e-01 -3.4530670093781506e+00 -1.1882730108549804e+01 -1.0732713022138086e+01 1 3 1
1831 611 1 -8.1999999999999995e-01 -2.9752681426906857e+00 -1.3373139534724473e+01 -1.1898172420627253e+01 -1 -1 1
1869 623 2 4.0999999999999998e-01 -3.4437974665156510e+00 -7.7279466900508487e+00 -8.3220775326492777e+00 -1 3 3
1189 397 1 -8.1999999999999995e-01 -5.3304986318016798e+00 -1.0229828198959762e+01 -1.2732498156577734e+01 0 3 2
2173 725 1 -8.1999999999999995e-01 -5.0286309718698607e+00 -1.0775675655720862e+01 -8.4458595753045298e+00 1 2 1
249 83 2 4.0999999999999998e-01 -2.3662543924132287e+00 -7.1953228943113334e+00 -1.1687736687362710e+01 -1 2 0
1832 611 2 4.0999999999999998e-01 -3.6299097977495887e+00 -1.4124590583570049e+01 -1.1980359244284360e+01 -1 -1 1
2175 725 2 4.0999999999999998e-01 -5.0874228352455173e+00 -1.1688134526906911e+01 -8.0409504826958056e+00 1 2 1
1451 484 2 4.0999999999999998e-01 -6.9985178717458645e+00 -1.1794323444657886e+01 -1.2158095812063349e+01 3 2 -1
18 6 2 4.0999999999999998e-01 -2.1184155680377419e+00 -9.6196422654052789e+00 -8.1626655374077473e+00 -3 2 0
780 260 2 4.0999999999999998e-01 -2.8456158036825734e+00 -1.0464660595758533e+01 -1.1268137492221763e+01 1 3 1
1395 465 2 4.0999999999999998e-01 -1.2482165353406485e+01 -5.5687829339514483e+00 -1.4069756305006750e+01 0 2 2
2425 809 1 -8.1999999999999995e-01 -1.9002178753699202e+00 -9.8293480712257910e+00 -1.4745490271096104e+01 1 2 2
1190 397 2 4.0999999999999998e-01 -4.6935703323908182e+00 -1.0830789871577553e+01 -1.2249635298367041e+01 0 3 2
725 242 2 4.0999999999999998e-01 -6.6976689381350063e-01 -8.9711428388867915e+00 -1.1284621982258450e+01 -1 3 0
438 146 2 4.0999999999999998e-01 -6.3083887055149983e+00 -5.1990692572071833e+00 -1.4425631336635306e+01 1 4 0
2379 793 2 4.0999999999999998e-01 -7.4838785623953967e+00 -1.2597788480758460e+01 -7.7656065111996799e+00 1 1 1
615 205 2 4.0999999999999998e-01 -1.1183864124866574e+01 -9.8844503882578501e+00 -8.0189014557452793e+00 1 -1 2
2380 794 1 -8.1999999999999995e-01 -1.3467068675433172e+01 -1.2506299228225879e+01 -1.4937692229830281e+01 1 1 0
1128 376 2 4.0999999999999998e-01 -8.6377699137192661e+00 -5.5698272022791819e+00 -1.2691288829914596e+01 1 2 3
2377 793 1 -8.1999999999999995e-01 -8.2655479698478871e+00 -1.1987555361830294e+01 -7.6367747545420892e+00 1 1 1
1291 431 1 -8.1999999999999995e-01 -8.9130849216920200e+00 -6.4880774402361858e+00 -7.6768100021868131e+00 1 3 0
484 162 1 -8.1999999999999995e-01 -1.0557162316525925e+01 -1.5015347513861149e+01 -1.3878120656082286e+01 -1 1 3
1961 654 2 4.0999999999999998e-01 -7.1072958845334835e+00 -8.8889768354014951e+00 -7.8560113741979860e+00 0 1 0
58 20 1 -8.1999999999999995e-01 -6.1230143125980110e+00 -1.3520891051778561e+01 -7.7366629311311010e+00 -2 3 2
1415 472 2 4.0999999999999998e-01 -1.4838522782911612e+01 -6.3121798616839264e+00 -1.4958972884403670e+01 0 3 1
2378 793 2 4.0999999999999998e-01 -7.9406087510799876e+00 -1.1048113942926619e+01 -7.5279010331751852e+00 1 1 1
767 256 2 4.0999999999999998e-01 -1.2677379975159067e+01 -9.5345553562647787e+00 -4.6187987232951961e+00 -3 4 0
673 225 1 -8.1999999999999995e-01 -1.3414536161535086e+01 -6.2552723521781797e+00 -4.4397623726602760e+00 1 2 1
2354 785 2 4.0999999999999998e-01 -1.3171649804672711e+01 -9.1028474135880835e+00 -2.0585744371843298e+00 2 1 0
165 55 2 4.0999999999999998e-01 -1.2714021155300896e+01 -1.2850835618241460e+01 -1.1016355279940235e+00 -1 -2 1
2233 745 1 -8.1999999999999995e-01 -1.0268191953370961e+01 -1.0654623742047924e+01 -3.7948859093902740e+00 0 3 0
2353 785 1 -8.1999999999999995e-01 -1.3586614586613743e+01 -8.9319212002180386e+00 -1.1649427539060806e+00 2 1 0
766 256 1 -8.1999999999999995e-01 -1.3213986309709517e+01 -9.4254490314838204e+00 -3.7820558902110388e+00 -3 4 0
2217 739 2 4.0999999999999998e-01 -1.1653198571741537e+01 -1.3107734739066764e+01 -4.8682606566487685e+00 -1 2 1
2235 745 2 4.0999999999999998e-01 -1.0042043717618972e+01 -1.0273727585510006e+01 -2.8983569277278001e+00 0 3 0
1019 340 2 4.0999999999999998e-01 -1.1039560409362313e+01 -7.9366500989592916e+00 -2.4040839055920173e+00 -1 3 2
2234 745 2 4.0999999999999998e-01 -1.1092163308711868e+01 -1.1216299947334893e+01 -3.7201862491262752e+00 0 3 0
163 55 1 -8.1999999999999995e-01 -1.2353444111413323e+01 -1.3658520030161403e+01 -1.5681322956427515e+00 -1 -2 1
1018 340 1 -8.1999999999999995e-01 -1.1349269432122949e+01 -7.0464075565849607e+00 -2.7380564665684766e+00 -1 3 2
1962 654 2 4.0999999999999998e-01 -8.0838426646677011e+00 -8.9302120163486514e+00 -6.5478624723409293e+00 0 1 0
1020 340 2 4.0999999999999998e-01 -1.1136749223497006e+01 -6.3434470665158695e+00 -2.0593291475077535e+00 -1 3 2
674 225 2 4.0999999999999998e-01 -1.4169954635379252e+01 -6.8955032276670885e+00 -4.3003475047578714e+00 1 2 1
1791 597 2 4.0999999999999998e-01 -1.2695207661416436e+01 -6.2856919989535456e+00 -6.1738683777329246e+00 2 -1 1
2396 799 2 4.0999999999999998e-01 -1.0803391639241282e+01 -9.3604924756291137e+00 -5.4394094749911357e+00 0 3 0
164 55 2 4.0999999999999998e-01 -1.2329653771997048e+01 -1.3491300618143779e+01 -2.5537594226327602e+00 -1 -2 1
373 125 1 -8.1999999999999995e-01 -9.6814071003565800e+00 -1.4599794434156751e+01 -1.6875227623161280e+00 -1 1 0
1949 650 2 4.0999999999999998e-01 -9.0073963387024314e+00 -1.3459924592008086e+01 -4.5076439224841884e+00 -1 3 0
675 225 2 4.0999999999999998e-01 -1.2590849789274836e+01 -6.6102586037390800e+00 -3.9975919731643614e+00 1 2 1
2528 843 2 4.0999999999999998e-01 -5.8126561119515543e+00 -1.4564014439983984e+01 -3.7128751093471255e+00 1 2 1
768 256 2 4.0999999999999998e-01 -1.4024446117606427e+01 -1.0009483312267282e+01 -3.8273104284525452e+00 -3 4 0
2215 739 1 -8.1999999999999995e-01 -1.2324551331089632e+01 -1.2771758728079044e+01 -4.2076588987071926e+00 -1 2 1
678 226 2 4.0999999999999998e-01 -1.3252530593537424e+01 -5.4775537311309499e+00 -1.0064674709260633e+00 0 3 0
2216 739 2 4.0999999999999998e-01 -1.3214107956757772e+01 -1.2678106479712515e+01 -4.6547688181482414e+00 -1 2 1
2397 799 2 4.0999999999999998e-01 -1.0876046548036587e+01 -7.9518358139437098e+00 -6.2622127058118373e+00 0 3 0
2395 799 1 -8.1999999999999995e-01 -1.1050134030854061e+01 -8.9353872123078162e+00 -6.3102669666259299e+00 0 3 0
676 226 1 -8.1999999999999995e-01 -1.4002575842714100e+01 -5.7002517086743136e+00 -1.6292249434801622e+00 0 3 0
1948 650 1 -8.1999999999999995e-01 -9.6054165472990327e+00 -1.3807567069003978e+01 -5.2297973592334834e+00 -1 3 0
1789 597 1 -8.1999999999999995e-01 -1.2494758204094069e+01 -6.4438579467268582e+00 -7.1407151102172719e+00 2 -1 1
2009 670 2 4.0999999999999998e-01 -1.4124068342215319e+01 -1.0649360949062299e+01 -5.0260169428020163e-01 0 4 2
1840 614 1 -8.1999999999999995e-01 -9.9697188334170903e+00 -6.3961151812728758e+00 -5.0930714123642353e+00 0 -1 -1
1841 614 2 4.0999999999999998e-01 -1.0535643922757112e+01 -6.6775667189027974e+00 -4.3181501571422700e+00 0 -1 -1
1950 650 2 4.0999999999999998e-01 -9.4083875585819232e+00 -1.3328460432570349e+01 -6.0851484335274684e+00 -1 3 0
252 84 2 4.0999999999999998e-01 -6.7343737072069025e+00 -7.8423925120347660e+00 -8.2340022302985894e-01 -2 1 0
627 209 2 4.0999999999999998e-01 -9.0695333957730515e+00 -8.7236018626424539e+00 -1.0408681247469556e+00 -1 2 0
625 209 1 -8.1999999999999995e-01 -9.9009844375158345e+00 -9.2106583905547037e+00 -1.3081774047884966e+00 -1 2 0
1569 523 2 4.0999999999999998e-01 -1.0991954264291515e-01 -9.7760278095130744e+00 -6.1121295117798446e-01 -2 1 0
2022 674 2 4.0999999999999998e-01 -1.3634162006945546e+01 -1.3878722904515941e+01 -6.5352160275341635e+00 -1 1 2
1842 614 2 4.0999999999999998e-01 -9.2084087097352167e+00 -5.8373036711389261e+00 -4.7642466933648961e+00 0 -1 -1
59 20 2 4.0999999999999998e-01 -5.9885350762750136e+00 -1.3585791547701971e+01 -6.7478796561351508e+00 -2 3 2
2021 674 2 4.0999999999999998e-01 -1.3022137087627348e+01 -1.2482713359914188e+01 -7.1210318627390343e+00 -1 1 2
1292 431 2 4.0999999999999998e-01 -9.1944842342223208e+00 -6.4822105276442503e+00 -6.7172428553208992e+00 1 3 0
374 125 2 4.0999999999999998e-01 -1.0464289473291348e+01 -1.3999636000373391e+01 -1.8515171814041356e+00 -1 1 0
2355 785 2 4.0999999999999998e-01 -1.3680683180565524e+01 -7.9463668316470732e+00 -1.0241494117052348e+00 2 1 0
1925 642 2 4.0999999999999998e-01 -8.3723086214519249e+00 -1.3384852867689874e+01 -7.7744709024134728e-01 -1 4 1
504 168 2 4.0999999999999998e-01 -7.5530046336875181e+00 -1.2369043911907331e+01 -2.6850324292346333e+00 0 3 1
2020 674 1 -8.1999999999999995e-01 -1.2968052882813318e+01 -1.3480244933331919e+01 -7.1656944391131248e+00 -1 1 2
1423 475 1 -8.1999999999999995e-01 -4.8317809328147998e+00 -7.4146817415729256e+00 -9.1484749349528549e-01 -1 0 -1
1924 642 1 -8.1999999999999995e-01 -7.8137875897961280e+00 -1.2558434081140323e+01 -8.4868858433480909e-01 -1 4 1
677 226 2 4.0999999999999998e-01 -1.3736673278256921e+01 -6.4701194414232379e+00 -2.2093875150432822e+00 0 3 0
1851 617 2 4.0999999999999998e-01 -3.5141523875294425e+00 -8.6770137841384720e+00 -2.3986856410622792e-01 -2 2 0
2008 670 1 -8.1999999999999995e-01 -1.4220564879053606e+01 -1.1636128064725725e+01 -3.7233966008762565e-01 0 4 2
1145 382 2 4.0999999999999998e-01 -9.5783412675631432e+00 -5.0721182257952293e+00 -1.0022600066164742e+00 0 0 3
1203 401 2 4.0999999999999998e-01 -1.2412892087560666e+01 -1.4824703316831371e+01 -3.8162644944449475e-01 2 0 0
1931 644 2 4.0999999999999998e-01 -1.4205530586146141e+01 -1.0663936070029477e+01 -6.2788030840893008e+00 1 1 -1
1960 654 1 -8.1999999999999995e-01 -7.6455666374142410e+00 -9.4821100228769239e+00 -7.2573071945244862e+00 0 1 0
2293 765 1 -8.1999999999999995e-01 -1.4853642554636705e+01 -1.4311973710236339e+01 -5.5415589628431352e+00 0 1 1
1186 396 1 -8.1999999999999995e-01 -5.3969898711906250e+00 -1.0261187143775270e+01 -5.8497020176267984e+00 -1 3 1
2027 676 2 4.0999999999999998e-01 -2.0404537798584990e+00 -1.2376979368266559e+01 -5.2513046640355192e+00 -1 0 -2
646 216 1 -8.1999999999999995e-01 -3.0677482523316524e+00 -5.6262490112007004e+00 -1.8312456381066777e+00 0 2 2
1425 475 2 4.0999999999999998e-01 -4.3319418502485050e+00 -6.5795556661265486e+00 -1.1444437645308856e+00 -1 0 -1
1977 659 2 4.0999999999999998e-01 -8.1436792508524292e-01 -5.7644298818364934e+00 -3.1570059767688186e+00 -1 2 1
1187 396 2 4.0999999999999998e-01 -5.2214880548552820e+00 -1.0028848359577179e+01 -6.8063664350833584e+00 -1 3 1
1424 475 2 4.0999999999999998e-01 -4.8321802503516444e+00 -8.0302227255046699e+00 -1.7029453662839593e+00 -1 0 -1
1932 644 2 4.0999999999999998e-01 -1.3026485895609589e+01 -1.0110413306748008e+01 -7.2637211226571772e+00 1 1 -1
1227 409 2 4.0999999999999998e-01 -3.9379177632295015e+00 -1.2992496874135449e+01 -3.7373448857988336e+00 -1 2 1
503 168 2 4.0999999999999998e-01 -8.3161867648291103e+00 -1.1394545322884092e+01 -3.7501629072895000e+00 0 3 1
626 209 2 4.0999999999999998e-01 -1.0344628420643296e+01 -9.5846361079087021e+00 -4.9373905962761988e-01 -1 2 0
1568 523 2 4.0999999999999998e-01 -6.6577389330065984e-01 -9.5321085312571778e+00 -2.1271703188950539e+00 -2 1 0
1225 409 1 -8.1999999999999995e-01 -4.1630523638753871e+00 -1.2847651765116458e+01 -4.7008403085735502e+00 -1 2 1
1226 409 2 4.0999999999999998e-01 -4.6048134489758237e+00 -1.1957152159930143e+01 -4.8096829596179376e+00 -1 2 1
1333 445 1 -8.1999999999999995e-01 -2.0806618343056602e+00 -5.5243828640314714e+00 -6.2791725390390720e+00 -1 1 0
1188 396 2 4.0999999999999998e-01 -6.3834878039425273e+00 -1.0317462101546333e+01 -5.6959358523404333e+00 -1 3 1
1567 523 1 -8.1999999999999995e-01 -8.3014802687603506e-01 -1.0010023717152329e+01 -1.2642871567252243e+00 -2 1 0
1311 437 2 4.0999999999999998e-01 -4.2352476924759355e+00 -1.3850555339104178e+01 -1.1180329457973865e+00 -1 1 2
1768 590 1 -8.1999999999999995e-01 -5.8477047261723740e+00 -6.3153363204106050e+00 -3.5786088073031532e+00 0 2 3
2272 758 1 -8.1999999999999995e-01 -5.5486648759955930e+00 -1.0850652914264462e+01 -1.5675597225609135e+00 0 2 0
2539 847 1 -8.1999999999999995e-01 -3.5376014430462899e+00 -1.5019899827583385e+01 -6.2158755813239495e+00 0 1 0
2026 676 1 -8.1999999999999995e-01 -1.4616125091416112e+00 -1.1562703373484720e+01 -5.2078706438360172e+00 -1 0 -2
1769 590 2 4.0999999999999998e-01 -5.5652589199366052e+00 -7.1992983672296269e+00 -3.9512005064991822e+00 0 2 3
1310 437 2 4.0999999999999998e-01 -2.6908907598649900e+00 -1.3321793191352009e+01 -1.1624146296549416e+00 -1 1 2
1309 437 1 -8.1999999999999995e-01 -3.5936155000476777e+00 -1.3242236559193454e+01 -1.5852005013370789e+00 -1 1 2
1335 445 2 4.0999999999999998e-01 -1.8728192170869100e+00 -5.9842920555261756e+00 -5.4158799697290103e+00 -1 1 0
2028 676 2 4.0999999999999998e-01 -1.6950283965999144e+00 -1.0947286440958978e+01 -5.9607107005656221e+00 -1 0 -2
2273 758 2 4.0999999999999998e-01 -6.3802401585908566e+00 -1.1232358066781842e+01 -1.1641085810386347e+00 0 2 0
2172 724 2 4.0999999999999998e-01 -2.9658546306779954e-01 -1.1858187357262871e+01 -1.3403242748776201e+00 0 2 0
2051 684 2 4.0999999999999998e-01 -1.4384004289560970e+00 -8.1302587818464129e+00 -4.1284603356038225e+00 -1 1 2
502 168 1 -8.1999999999999995e-01 -7.5241660832977084e+00 -1.1988573675562353e+01 -3.6093699542993622e+00 0 3 1
2170 724 1 -8.1999999999999995e-01 -7.0035227190119898e-02 -1.2815956101923426e+01 -1.5173642166778993e+00 0 2 0
2130 710 2 4.0999999999999998e-01 -4.9950536946075523e+00 -9.1100715503008729e+00 -4.3473949297555254e+00 1 1 0
2129 710 2 4.0999999999999998e-01 -5.1264856582432969e+00 -9.8385698837142499e+00 -2.8918492486646112e+00 1 1 0
1334 445 2 4.0999999999999998e-01 -1.3247444681801142e+00 -5.6601701364524306e+00 -6.9195941895846449e+00 -1 1 0
2394 798 2 4.0999999999999998e-01 -2.1048660480936192e+00 -6.5023804797401592e+00 -2.4112380574505821e-01 1 4 1
2540 847 2 4.0999999999999998e-01 -3.7038370078681613e+00 -1.4191365999198009e+01 -5.6811919575110714e+00 0 1 0
2128 710 1 -8.1999999999999995e-01 -4.8404484768163023e+00 -9.0053192044213262e+00 -3.3649931256377599e+00 1 1 0
2050 684 1 -8.1999999999999995e-01 -2.2933071787499539e+00 -7.6680468398331927e+00 -3.8929105694877570e+00 -1 1 2
1770 590 2 4.0999999999999998e-01 -6.2951110326955462e+00 -5.7794409111825438e+00 -4.2945926098220415e+00 0 2 3
1930 644 1 -8.1999999999999995e-01 -1.3341811976929710e+01 -1.0893377902126005e+01 -6.7275075547351531e+00 1 1 -1
251 84 2 4.0999999999999998e-01 -7.8494400195541774e+00 -6.6679304560349326e+00 -6.1396416195717052e-01 -2 1 0
2052 684 2 4.0999999999999998e-01 -2.9635622510976987e+00 -8.3434054542689697e+00 -3.5852776736577319e+00 -1 1 2
2274 758 2 4.0999999999999998e-01 -4.8580661294378302e+00 -1.1569162933917838e+01 -1.6500572751266596e+00 0 2 0
1850 617 2 4.0999999999999998e-01 -2.1916993286456776e+00 -9.6244463265733593e+00 -9.8140307398313809e-02 -2 2 0
648 216 2 4.0999999999999998e-01 -3.6980680377873192e+00 -5.7725790491110498e+00 -2.5936586616640120e+00 0 2 2
250 84 1 -8.1999999999999995e-01 -7.7133807126528904e+00 -7.6469425984980637e+00 -7.6566196412108667e-01 -2 1 0
1790 597 2 4.0999999999999998e-01 -1.2763336526532681e+01 -7.3745942901013963e+00 -7.3888776991162217e+00 2 -1 1
890 297 2 4.0999999999999998e-01 -1.0130632387088152e+01 -1.1408304465688806e+01 1.8344690050992423e+00 -1 -1 2
889 297 1 -8.1999999999999995e-01 -1.0014156844186916e+01 -1.0420009053568499e+01 1.7360072745087063e+00 -1 -1 2
891 297 2 4.0999999999999998e-01 -9.0455163579285269e+00 -1.0188045952355431e+01 1.8249896043448306e+00 -1 -1 2
670 224 1 -8.1999999999999995e-01 -1.1495221675435289e+01 -9.5035831082691189e+00 3.9705408809104075e+00 -1 3 0
536 179 2 4.0999999999999998e-01 -9.9483154718889928e+00 -7.0438245720630670e+00 2.4197752053225035e+00 2 2 -1
671 224 2 4.0999999999999998e-01 -1.0964440536424181e+01 -8.8266398942704019e+00 4.4804510678862872e+00 -1 3 0
1204 402 1 -8.1999999999999995e-01 -9.3492353388285423e+00 -6.4115062110306127e+00 3.7580903779428834e+00 1 0 0
672 224 2 4.0999999999999998e-01 -1.0984549112601389e+01 -9.7842138641148875e+00 3.1578607177064431e+00 -1 3 0
1648 550 1 -8.1999999999999995e-01 -3.4097108063783086e+00 -1.1719577752280488e+01 1.6227725259794763e+00 -1 1 1
1347 449 2 4.0999999999999998e-01 -8.7647460719829198e+00 -1.1973366600142684e+01 6.0437369188740586e+00 0 2 0
1580 527 2 4.0999999999999998e-01 -1.4679696972175222e+01 -1.1705534096086254e+01 2.7775243419684141e+00 0 2 0
535 179 1 -8.1999999999999995e-01 -1.0416647357148570e+01 -7.4399710673144757e+00 1.6300142599385605e+00 2 2 -1
735 245 2 4.0999999999999998e-01 -9.3231622232534725e+00 -7.8454881227588542e+00 6.1781077784919542e+00 0 4 0
733 245 1 -8.1999999999999995e-01 -1.0264883174857367e+01 -7.5107505466101454e+00 6.2112966377943142e+00 0 4 0
734 245 2 4.0999999999999998e-01 -1.0275152547151546e+01 -6.5801951400073211e+00 6.5772888436658707e+00 0 4 0
1206 402 2 4.0999999999999998e-01 -8.5128594171263661e+00 -5.9571889478983380e+00 4.0647827073442091e+00 1 0 0
1653 551 2 4.0999999999999998e-01 -1.1699054298220751e+01 -7.5272748489966910e+00 7.2287567684941560e+00 2 2 1
189 63 2 4.0999999999999998e-01 -1.4214804095036733e+01 -1.3290129462737983e+01 5.7656188565263147e+00 -2 1 1
1205 402 2 4.0999999999999998e-01 -9.9459963476953135e+00 -6.5766321273783621e+00 4.5433284472669779e+00 1 0 0
835 279 1 -8.1999999999999995e-01 -1.2924777329990251e+01 -1.1896467664887075e+01 3.6596484373478919e+00 0 1 1
2134 712 1 -8.1999999999999995e-01 -8.2104694645665077e+00 -5.0647948749784568e+00 2.0681092801881462e-02 0 3 0
837 279 2 4.0999999999999998e-01 -1.3125413150954699e+01 -1.2465800335321159e+01 4.4568903636696628e+00 0 1 1
1714 572 1 -8.1999999999999995e-01 -1.1084265398989050e+01 -1.3389370563957371e+01 1.9858760905602661e+00 0 1 0
2289 763 2 4.0999999999999998e-01 -2.7158330948194198e-01 -1.4683588758869151e+01 2.6773611901055414e+00 0 -1 0
836 279 2 4.0999999999999998e-01 -1.2488029274220169e+01 -1.1047675710891683e+01 3.9576291033324242e+00 0 1 1
1207 403 1 -8.1999999999999995e-01 -4.5020294378825128e+00 -1.4063025763941642e+01 6.4752962671114940e+00 0 0 2
2409 803 2 4.0999999999999998e-01 -5.3940026749289292e+00 -9.6058812400329661e+00 4.2761475401782381e+00 0 1 2
1681 561 1 -8.1999999999999995e-01 -1.4137836916067140e+01 -7.7341886799045936e+00 5.0653314856843554e+00 1 1 0
2312 771 2 4.0999999999999998e-01 -7.1853001611882856e+00 -1.2955867947565556e+01 4.8727997426801455e+00 2 2 1
1683 561 2 4.0999999999999998e-01 -1.3367988811462041e+01 -7.7074282075187179e+00 5.7029888249937972e+00 1 1 0
1682 561 2 4.0999999999999998e-01 -1.3903299232549312e+01 -8.3121705396106726e+00 4.2837189652990393e+00 1 1 0
1715 572 2 4.0999999999999998e-01 -1.1733741152608022e+01 -1.2772633188386031e+01 2.4306292727310268e+00 0 1 0
2356 786 1 -8.1999999999999995e-01 -1.2247566840860156e+01 -5.4047655029133210e+00 5.9042292045806377e-01 0 2 3
2358 786 2 4.0999999999999998e-01 -1.1730684702264519e+01 -6.1761957946512727e+00 9.6152574683138603e-01 0 2 3
197 66 2 4.0999999999999998e-01 -5.3312077222018779e+00 -6.7551801827736693e+00 2.6680310502362321e+00 -2 1 1
187 63 1 -8.1999999999999995e-01 -1.3411507038754888e+01 -1.3866125157366966e+01 5.9170518544787978e+00 -2 1 1
1793 598 2 4.0999999999999998e-01 -7.2859756631415742e+00 -8.4994579459466060e+00 2.2120777268217626e+00 1 2 1
459 153 2 4.0999999999999998e-01 -3.2147817570104920e-01 -8.5509888079062044e+00 2.5340097200212650e+00 -1 0 0