2593
Atoms. Timestep: 1000000
O -0.575659 3.11938 3.83327
H -1.2297 3.39818 3.13012
H 0.286475 2.85563 3.40075
O -4.9649 -4.08506 -5.94765
H -5.78187 -4.13326 -6.52223
H -4.29121 -3.48293 -6.37601
O 7.28712 -2.26998 -4.42137
H 7.76487 -2.66456 -3.63654
H 7.92125 -2.18641 -5.19002
O -1.01821 7.2359 12.9939
H -0.173263 7.20533 13.5278
H -1.12385 8.14402 12.5888
O -8.90707 -6.00307 -4.42308
H -9.31316 -5.11035 -4.22801
H -8.64303 -6.04576 -5.3866
O -5.21642 -12.8777 -3.61871
H -5.84406 -12.7865 -2.84563
H -5.32993 -12.0977 -4.23403
O -1.10944 8.4521 -7.36752
H -0.445757 8.72572 -8.06363
H -0.705795 8.56474 -6.45962
O 6.69211 10.2407 -10.9719
H 7.44532 10.8962 -11.0254
H 6.52954 9.997 -10.0158
O 6.04922 7.75961 1.5562
H 5.83331 8.49417 0.912997
H 7.00956 7.8253 1.82701
O 5.54844 10.3454 -8.16373
H 5.78397 11.0646 -7.51005
H 5.78383 9.45369 -7.77736
O -8.87596 -8.17084 14.0603
H -8.77623 -7.17608 14.0809
H -9.28246 -8.48296 14.9189
O -12.9806 5.9808 8.39467
H -12.5015 6.08518 7.5232
H -12.3171 5.98851 9.14279
O -13.539 -7.47039 -9.64671
H -13.7654 -6.61478 -10.1121
H -14.1658 -8.18924 -9.94735
O 9.94249 -2.46351 10.3937
H 9.53594 -3.36301 10.2339
H 10.6093 -2.26674 9.67498
O -5.34072 -11.4996 11.1107
H -6.1304 -11.2295 11.6615
H -4.50004 -11.2153 11.5716
O 3.7549 6.70469 -0.095509
H 4.62757 6.21943 -0.0419514
H 3.92399 7.68752 -0.168633
O -6.60021 7.14102 1.52958
H -7.21273 6.37617 1.72889
H -6.52336 7.72567 2.33717
O 8.93747 -10.3868 -13.4539
H 8.41324 -10.1492 -12.6362
H 8.58329 -11.238 -13.8413
O -6.2685 11.0026 -7.23806
H -6.67351 11.7879 -7.70616
H -6.64604 10.1577 -7.61691
O -7.58933 -12.559 -10.0175
H -8.5483 -12.4312 -10.2703
H -7.00259 -12.2079 -10.7471
O 1.25206 -14.4242 10.474
H 0.456391 -13.8253 10.5646
H 1.49161 -14.7979 11.3701
O -9.75265 -0.930275 11.7632
H -10.1505 -0.105935 12.1658
H -8.76091 -0.822413 11.6946
O -14.4751 -12.5195 6.67123
H -14.7171 -12.3999 5.7084
H -14.717 -11.6938 7.18073
O 8.81579 13.7262 11.9521
H 8.46934 14.3223 11.2278
H 8.13306 13.0267 12.1632
O -1.28115 12.7611 -0.112793
H -0.58671 12.0819 -0.350382
H -0.909214 13.6794 -0.247892
O 9.67504 2.43128 5.02099
H 8.84915 2.98438 4.91194
H 10.3051 2.89264 5.64557
O 8.2867 8.36813 -2.89839
H 7.59778 7.77123 -3.3095
H 7.83316 9.11376 -2.41029
O 6.97949 -9.93532 -11.4717
H 6.33337 -9.85562 -12.2307
H 6.47723 -9.95715 -10.6073
O 12.1671 -9.44606 -0.794063
H 12.0369 -9.45023 0.197364
H 11.8823 -8.56176 -1.16392
O -7.45048 6.97429 -1.77354
H -7.7079 6.48363 -2.60594
H -7.32835 6.32139 -1.02607
O -9.55661 -4.16607 11.9509
H -10.217 -4.75177 12.4208
H -9.4046 -4.51136 11.0248
O -6.41075 -9.44206 13.7692
H -6.58599 -10.3427 13.3716
H -7.25932 -8.91325 13.7836
O 6.21671 -10.6284 11.5187
H 6.08501 -10.151 10.65
H 6.19548 -11.6159 11.363
O -6.94322 8.6373 -14.8091
H -6.43776 8.59234 14.2184
H -6.40477 8.20809 -14.084
O -5.19218 10.139 10.6223
H -5.97797 10.7301 10.4405
H -4.99024 9.59354 9.80889
O 11.6056 -11.4962 -6.72435
H 11.9214 -12.4117 -6.47546
H 11.0952 -11.5416 -7.58303
O 0.216855 5.44774 6.25088
H 1.16602 5.45034 6.56552
H 0.0578314 4.64376 5.67797
O 5.50107 -4.90739 -0.581946
H 5.35516 -5.69317 0.019031
H 5.39593 -5.19237 -1.53465
O 12.4484 10.6036 -2.56719
H 12.4982 10.2082 -1.6501
H 13.3201 10.4656 -3.03739
O -1.33605 12.7798 -9.59278
H -1.10205 12.1788 -8.82863
H -2.32158 12.9491 -9.59401
O 13.8813 -8.74201 -9.58985
H 13.1761 -9.4482 -9.52776
H 13.454 -7.86118 -9.79337
O -8.6967 0.514119 -11.7075
H -8.563 0.945071 -10.8151
H -8.38286 1.13346 -12.4271
O 10.6717 -6.06216 -13.6606
H 11.1022 -6.93104 -13.4166
H 9.77465 -6.0002 -13.2232
O 0.808938 -1.86653 -13.0828
H 1.12517 -1.45192 -13.936
H -0.171091 -2.05457 -13.1468
O 0.049243 -9.33359 12.7787
H -0.563415 -8.94691 13.4679
H -0.476259 -9.57303 11.9623
O 5.13135 -0.125739 7.50283
H 5.9871 0.357303 7.68793
H 4.47094 0.0772521 8.22573
O -0.752773 -2.65732 13.2861
H -0.132453 -3.0485 12.6063
H -0.77283 -3.24393 14.0956
O 12.947 -1.623 2.15338
H 13.0083 -0.645181 2.35343
H 13.7783 -1.91978 1.68345
O 9.31222 6.59959 10.2943
H 9.30858 5.60848 10.427
H 9.99327 6.84081 9.60303
O 14.4039 9.81484 6.80804
H -14.5185 9.57939 6.90799
H 14.3122 10.587 6.17933
O 9.7766 12.8025 -7.78576
H 10.5203 12.4464 -8.35143
H 9.1596 12.0558 -7.53761
O -13.7013 -3.92741 -1.65688
H -14.0951 -4.83762 -1.78462
H -12.7048 -3.99852 -1.61326
O -7.75031 3.72297 3.21798
H -6.92598 3.57002 2.67302
H -7.69562 4.61768 3.66116
O -9.81719 9.03125 6.8088
H -9.14509 8.94473 7.54412
H -9.7958 9.96267 6.4456
O -11.4632 -12.6331 -2.63388
H -11.4095 -11.9288 -1.92612
H -10.7104 -12.5133 -3.28109
O 12.5451 2.66883 -13.6733
H 12.2748 3.47105 -13.141
H 13.3625 2.25983 -13.2678
O -7.66981 5.72125 12.3935
H -6.70967 5.98915 12.3143
H -8.0517 6.09572 13.2384
O -3.50684 12.2278 5.4596
H -3.25051 13.148 5.75538
H -3.06589 12.0237 4.58563
O -4.1467 -13.0125 14.2368
H -5.07306 -13.2941 14.4867
H -3.68809 -13.7616 13.759
O -9.85698 -3.33042 -4.80063
H -9.38063 -2.4863 -4.55473
H -10.6102 -3.11879 -5.42334
O -6.56782 10.2595 0.466193
H -5.70394 10.3941 -0.0190996
H -7.05097 9.47597 0.0756304
O -3.14884 13.5397 -14.1666
H -2.93935 14.4492 -13.8075
H -2.58571 13.3622 14.9155
O -13.7463 -9.39513 10.6184
H -12.928 -9.30481 10.0508
H -13.517 -9.88753 11.4579
O 8.40643 10.2233 -6.79148
H 8.3265 9.53897 -7.51617
H 9.06828 9.91131 -6.10993
O -6.14045 -2.67655 9.28671
H -5.38568 -3.13817 8.82072
H -6.39831 -1.85804 8.77343
O -6.16347 -4.76739 -0.378752
H -6.84436 -4.0754 -0.139095
H -6.19836 -4.94262 -1.36262
O 14.2049 -14.2615 13.0716
H 13.8964 -13.6122 12.3765
H 13.7357 -14.0738 13.9345
O 14.1102 -12.2861 10.8739
H 13.618 -12.9476 10.3081
H 13.6017 -11.4255 10.8992
O 12.1485 -2.01524 -2.82048
H 11.6286 -1.16187 -2.78231
H 12.0265 -2.51834 -1.96496
O 6.19752 -12.568 1.70574
H 5.79538 -11.808 2.21612
H 7.08519 -12.2903 1.33855
O 11.5884 -8.79447 -13.073
H 11.1798 -9.57618 -13.544
H 12.4114 -8.50409 -13.5612
O 2.02991 -7.74978 5.0462
H 2.25301 -6.93978 5.58846
H 2.11155 -8.56629 5.61765
O 6.22772 -2.16363 9.18468
H 6.02811 -1.83651 8.26107
H 6.22619 -3.16356 9.19171
O -13.194 11.1691 14.5413
H -13.2832 11.0354 13.5544
H -12.591 11.9466 14.7193
O -14.8101 1.79061 -13.0789
H -14.9022 1.11482 -13.8102
H -14.7316 2.70435 -13.4774
O -1.14253 -0.450243 -5.28483
H -0.35615 -0.552176 -4.67564
H -0.909564 -0.80185 -6.19148
O 9.6793 -4.3254 -6.92155
H 9.03629 -3.56289 -6.85062
H 10.5721 -4.04223 -6.57124
O -0.927494 -4.02098 0.654306
H -0.662101 -3.34726 -0.0353144
H -1.8973 -4.24097 0.549452
O 8.89761 -8.4971 8.40653
H 9.10201 -9.4246 8.0937
H 8.34557 -8.02714 7.71784
O -5.58188 1.83223 -11.283
H -6.36142 2.34432 -10.9224
H -5.06009 1.44174 -10.5246
O -3.98881 -9.63968 7.1866
H -3.56836 -9.08518 6.4685
H -3.58821 -10.5558 7.17783
O 1.15587 -0.795136 14.3736
H 0.424271 -1.39431 14.0486
H 1.17651 0.0367263 13.8191
O 0.0195019 -4.24626 -10.5563
H 0.956722 -4.26899 -10.9042
H -0.612597 -4.51293 -11.2838
O -6.71435 -9.2216 -2.47697
H -7.66743 -9.4312 -2.69519
H -6.49553 -9.57384 -1.56706
O -7.24079 11.3916 -11.3694
H -7.21088 11.2387 -12.3572
H -8.12157 11.0824 -11.0109
O -1.24018 -11.6453 -8.32449
H -0.439645 -11.3335 -7.81276
H -1.94923 -11.9429 -7.68528
O 12.3984 -1.68332 -7.41303
H 12.0469 -0.962941 -8.01085
H 13.1663 -2.14214 -7.85996
O 10.2966 2.29155 0.0813375
H 11.1004 2.14121 -0.494186
H 10.4347 1.85109 0.968371
O 3.20842 1.99049 -11.9649
H 2.59913 2.718 -11.6496
H 3.51634 2.19306 -12.8944
O 2.28824 4.41821 0.353209
H 2.70042 5.32908 0.37104
H 2.97713 3.74588 0.082443
O 6.44764 -11.5092 8.31535
H 6.0346 -10.9354 7.60828
H 7.3742 -11.1861 8.50771
O -1.13237 12.9629 14.0054
H -1.18728 12.1824 13.3826
H -0.184258 13.2748 14.066
O 10.477 -2.72295 6.5816
H 10.8881 -3.01544 5.71825
H 11.1979 -2.55588 7.25423
O -3.11204 -5.81941 12.758
H -3.76178 -6.4893 13.1171
H -2.36554 -5.6955 13.4117
O 12.4871 -6.33697 -9.42509
H 11.6571 -5.93624 -9.81304
H 12.2984 -6.6624 -8.49859
O 4.22272 13.9239 -8.68684
H 3.63438 13.1909 -9.02827
H 5.18113 13.6668 -8.81036
O 8.20467 5.79345 14.6975
H 7.56263 5.65332 13.9438
H 7.83158 5.38937 -14.3565
O -11.2904 10.8787 3.556
H -10.4771 11.141 4.07536
H -11.9831 11.5953 3.637
O 12.7012 9.41216 3.8436
H 11.9726 9.74015 3.24237
H 13.5812 9.4928 3.37555
O 10.1273 -6.96353 0.651326
H 9.12741 -6.96093 0.663022
H 10.4662 -6.06436 0.927972
O 9.94179 -5.98616 4.74113
H 9.57873 -5.51421 5.54447
H 10.7555 -6.5066 4.99976
O -3.90489 11.8481 12.3804
H -3.38158 12.4873 11.8169
H -4.27849 11.1228 11.8022
O -13.1736 8.67834 -11.7646
H -14.1645 8.79523 -11.8299
H -12.7729 8.71171 -12.6802
O 11.8336 -10.0559 5.96616
H 12.4132 -10.4776 5.26891
H 11.9248 -9.06122 5.9184
O 13.599 10.5126 9.22144
H 13.6384 11.4841 8.98769
H 13.8272 9.96639 8.41557
O -5.48181 5.65903 -9.07513
H -5.31253 6.64158 -8.99875
H -5.30893 5.36306 -10.0145
O 7.39109 -10.4845 -1.6014
H 6.97679 -9.92893 -0.880564
H 6.68821 -10.7551 -2.25916
O -14.0411 -5.91487 -11.9338
H -13.1543 -6.17654 -12.3145
H -14.0122 -4.95653 -11.6498
O 7.09026 -7.62294 6.472
H 7.34163 -7.80616 5.52165
H 6.16884 -7.23584 6.50434
O -3.99569 11.3969 -5.73376
H -4.83318 11.3173 -6.27431
H -4.23031 11.4703 -4.7645
O 7.41802 2.74668 10.5152
H 7.95055 3.32717 9.89932
H 8.03847 2.21246 11.0893
O -13.3739 -3.64219 -9.72955
H -14.3 -3.90616 -9.46007
H -12.7545 -3.76034 -8.95347
O -7.63343 9.10117 3.69514
H -8.37947 9.11343 3.02942
H -7.82831 9.75498 4.42621
O -3.65818 -13.0376 9.7753
H -4.41626 -12.5435 10.2009
H -3.7531 -13.001 8.78054
O 3.43429 9.14587 -2.56643
H 2.51917 8.76012 -2.44955
H 3.80551 8.8614 -3.45027
O 9.50081 14.8933 14.4553
H 10.4989 14.9082 14.3963
H 9.11483 14.7669 13.5415
O 5.6591 -7.76006 -5.90396
H 5.93573 -8.51793 -6.49472
H 6.46347 -7.38713 -5.44156
O -0.698275 11.1997 -11.8145
H -0.91967 11.7384 -11.0017
H -1.54332 10.9318 -12.2771
O 14.8922 5.14387 -11.5288
H -14.5221 5.12782 -12.4087
H -14.3957 4.77747 -10.8188
O 11.4336 7.40406 8.57313
H 12.4297 7.32254 8.60499
H 11.18 8.36941 8.51242
O -4.70585 -1.2523 -6.80308
H -3.80039 -0.847086 -6.92895
H -4.94615 -1.23635 -5.83256
O 1.93379 9.79107 -12.9116
H 1.06413 10.171 -12.5966
H 1.84978 9.51543 -13.8692
O 12.3628 12.7729 -5.87111
H 11.6445 12.4335 -6.4784
H 13.2486 12.421 -6.17336
O -9.74039 11.1683 -10.3208
H -9.89196 11.9532 -9.72007
H -9.87678 10.3226 -9.80501
O -10.9256 -14.8208 -0.876715
H -11.0174 -13.987 -1.42111
H -10.6868 14.3039 -1.47549
O 14.7791 14.2013 -10.6569
H 13.9263 14.0511 -11.157
H 14.6808 -14.8895 -10.0627
O 3.59366 -10.85 9.06912
H 4.54744 -11.0353 9.30551
H 3.13861 -10.4077 9.84191
O 6.22423 -3.74612 -13.082
H 6.9395 -3.04828 -13.1185
H 5.34873 -3.31496 -12.8641
O 2.5807 -13.7867 4.17502
H 2.36729 -14.4007 4.93492
H 2.9733 -14.3134 3.42114
O -10.1016 12.7975 -2.23151
H -10.3391 12.4296 -3.13049
H -9.13823 12.6111 -2.03898
O -6.09998 11.6063 5.02698
H -5.11504 11.7065 5.16756
H -6.38809 12.1836 4.26305
O 13.2991 9.95022 -10.6084
H 13.3109 9.01182 -10.2632
H 13.93 10.0295 -11.3801
O 11.5346 8.7633 -13.7886
H 11.7388 8.91417 -14.7558
H 10.5449 8.69259 -13.664
O 6.92679 1.54539 -8.8133
H 7.75174 2.11051 -8.81304
H 6.68576 1.30791 -9.75426
O 12.2567 -1.56858 14.9288
H 13.0411 -2.14022 14.6882
H 11.4472 -2.14442 -14.8458
O -2.81685 6.83875 -14.6648
H -2.32211 7.27155 -13.9112
H -2.40349 7.10967 14.3551
O -0.60032 12.7596 7.67065
H 0.0124787 12.7471 8.46073
H -0.889022 11.8262 7.4579
O 2.14416 -8.49606 -8.5169
H 2.21415 -7.99282 -9.37815
H 2.52327 -7.94232 -7.77557
O 1.22782 -0.00582986 -11.2414
H 1.18292 -0.760987 -11.8953
H 2.01623 0.571753 -11.4529
O 5.28678 3.34149 7.83891
H 5.26701 2.69506 7.07626
H 4.6334 3.05191 8.5383
O -13.2321 1.13768 -5.2922
H -13.1062 1.79403 -4.54839
H -13.5462 1.61809 -6.11101
O 11.078 2.93346 7.85995
H 10.2769 3.49438 8.06832
H 11.8053 3.13414 8.5163
O 12.5791 -7.28979 3.0699
H 12.8801 -6.46814 2.58594
H 12.2663 -7.97079 2.40786
O 1.89158 10.0305 14.3839
H 1.09857 10.0129 13.775
H 2.65579 10.4815 13.9229
O -8.06712 2.7205 11.5512
H -8.94434 2.54442 11.1047
H -8.17622 3.453 12.2231
O -4.48006 -6.74275 -13.0065
H -4.96426 -7.40984 -12.4404
H -4.74843 -5.81839 -12.7355
O 10.1749 9.99636 -4.07775
H 9.52908 9.38142 -3.62539
H 10.8827 10.273 -3.42784
O -10.4716 6.06575 -3.24106
H -9.64831 6.47443 -3.63494
H -10.792 6.62941 -2.47981
O 3.64362 7.34985 -12.5973
H 3.15122 8.19846 -12.7904
H 2.98721 6.61287 -12.4363
O -14.8503 -10.3021 8.05464
H -14.5707 -10.1216 8.99758
H 14.8473 -9.43645 7.59222
O 3.96743 11.0842 2.31391
H 4.10954 10.2913 1.7214
H 3.07742 11.4941 2.11443
O -13.9912 -4.21068 5.027
H -13.5495 -4.46481 5.88735
H -14.5697 -3.40835 5.17363
O -0.341049 -7.27061 3.49701
H -0.579579 -7.48983 4.44303
H 0.644571 -7.11622 3.429
O 8.59874 -4.13147 -0.0399615
H 9.08936 -4.004 0.821988
H 7.77598 -4.67614 0.122235
O -12.9822 4.82009 2.58976
H -12.928 4.08512 3.26563
H -13.2264 5.67549 3.04641
O -0.461454 -14.4922 -1.33921
H -1.2093 -14.8694 -1.8854
H -0.00708761 -13.7648 -1.85349
O 4.60817 -11.5557 -7.1269
H 5.43001 -12.1218 -7.06362
H 3.83402 -12.1223 -7.40885
O -12.3421 14.2987 10.1475
H -12.7314 13.9688 11.0075
H -11.4315 14.6755 10.3168
O -4.4689 5.90333 0.627063
H -5.35858 6.3337 0.779278
H -4.251 5.92446 -0.348633
O -3.40861 4.33546 9.66981
H -2.48066 4.05977 9.41917
H -3.95727 3.52207 9.86288
O 7.69688 3.03354 -4.6014
H 7.45421 2.07483 -4.7494
H 8.073 3.14396 -3.68148
O -10.2717 -13.4259 -12.994
H -10.81 -13.9469 -12.3317
H -10.2238 -12.4695 -12.7059
O -7.77637 14.1376 -3.32012
H -8.44714 13.512 -3.71827
H -7.38134 13.7246 -2.49957
O 9.04134 11.9933 -10.6812
H 8.89129 12.7614 -10.0588
H 9.9427 11.596 -10.5091
O -12.0392 2.34217 1.34512
H -12.0389 3.34189 1.32376
H -12.1749 2.02891 2.285
O 9.63469 2.19643 -6.65216
H 8.96019 2.34766 -5.9296
H 9.62766 2.9727 -7.28245
O -14.8222 11.0608 -12.7806
H -14.4102 11.2413 -13.6736
H -14.5705 11.7895 -12.1439
O -7.18391 -13.3368 1.14546
H -7.08761 -13.5409 2.11962
H -8.12409 -13.0542 0.955508
O 5.75453 -12.9802 5.08312
H 5.21021 -12.3945 4.48265
H 5.24646 -13.1573 5.92597
O 7.95437 4.03345 8.18585
H 8.32859 4.73572 7.58031
H 6.98724 3.89213 7.97466
O -8.32211 9.29265 9.25889
H -8.78768 8.97963 10.0866
H -7.87468 8.51664 8.81446
O 8.53575 -6.72211 12.5424
H 9.36794 -6.17113 12.4807
H 8.43413 -7.06907 13.4747
O -0.991347 1.62011 10.857
H -1.01318 2.58814 10.6073
H -0.54576 1.09824 10.1297
O -4.14569 6.08256 4.49103
H -3.55151 6.18358 3.69312
H -4.12457 5.13317 4.80427
O 3.01481 7.60443 -7.21103
H 2.31985 6.97151 -6.86994
H 2.5859 8.47789 -7.44126
O -6.77867 9.73377 -2.68962
H -6.02033 10.1203 -3.21445
H -6.44567 8.97128 -2.13497
O -5.84785 -14.6909 4.17425
H -6.03404 14.9119 5.11406
H -5.43757 -13.779 4.17876
O -13.758 -2.6737 11.7738
H -13.7946 -1.67682 11.843
H -12.9648 -3.01386 12.2789
O -12.2547 -7.37282 1.46658
H -11.6224 -7.29507 2.23732
H -13.1954 -7.37071 1.80569
O 6.23893 11.4537 0.700451
H 5.31258 11.4845 1.07572
H 6.61076 12.3808 0.654072
O -9.60898 2.11784 4.88309
H -9.58794 2.597 5.76051
H -8.82361 2.39824 4.33129
O 10.4952 -13.376 -4.84203
H 10.2725 -12.412 -4.98723
H 10.1417 -13.6697 -3.95394
O 13.0857 -7.93473 -4.31509
H 13.3818 -8.44287 -5.12379
H 12.1104 -8.09264 -4.16089
O 8.56878 -1.7559 -6.86336
H 9.35143 -1.29072 -7.27685
H 7.74752 -1.19848 -6.9847
O 1.62326 4.16243 13.928
H 2.54455 3.79999 13.7874
H 1.19706 3.69767 14.704
O 11.4819 -12.1463 -1.33572
H 11.8899 -11.2863 -1.02926
H 10.8858 -11.9717 -2.11941
O -4.36682 -3.39634 12.571
H -5.21338 -3.37638 12.0391
H -4.04338 -4.33944 12.6474
O 3.02974 9.57607 0.25229
H 2.32167 9.32238 0.911219
H 2.6507 9.54563 -0.672538
O -10.0256 -8.68578 -13.2515
H -9.02606 -8.69104 -13.2215
H -10.3852 -9.18841 -12.4654
O 2.89641 2.13846 -4.65961
H 3.24814 2.91278 -4.13366
H 3.16947 1.28395 -4.21786
O -12.5434 8.48172 10.4765
H -12.057 9.02005 11.1646
H -11.9829 7.69787 10.2093
O 13.7689 1.60429 11.1742
H 13.109 0.898548 10.9165
H 13.5247 2.46674 10.731
O 11.2621 9.74789 -6.49459
H 11.7886 8.90527 -6.60755
H 10.9268 9.80789 -5.55445
O -11.211 8.40239 -1.61063
H -11.9957 7.9216 -1.21949
H -11.526 9.03204 -2.32072
O 3.86386 -7.5903 10.8241
H 3.84377 -7.0484 11.6642
H 3.45129 -8.48506 10.9947
O 10.9896 7.27751 -8.44558
H 10.9462 7.08646 -9.42616
H 10.4957 8.12444 -8.24888
O -3.95627 1.18318 -9.18052
H -3.32101 0.582126 -8.69567
H -4.06686 2.03447 -8.6677
O -13.7815 7.75624 -5.15371
H -12.8953 8.21674 -5.20329
H -13.7659 7.08185 -4.41556
O 6.25881 9.88504 -1.72575
H 5.26958 9.73984 -1.74127
H 6.47044 10.6774 -1.1537
O -1.59622 7.23112 -0.538549
H -1.74656 6.70559 -1.37588
H -1.22858 6.62986 0.170841
O 0.982307 1.46277 12.78
H 0.345749 1.417 12.0102
H 1.15892 2.41975 13.01
O -13.8863 -0.197089 1.67951
H -14.0785 0.155451 0.763698
H -14.2609 0.429242 2.36312
O 14.6616 12.0672 -9.01282
H 14.0177 11.4291 -9.43491
H 14.6801 12.9181 -9.53774
O -11.0165 1.31529 12.6687
H -11.5307 0.902706 13.4205
H -10.9632 2.30451 12.8047
O -10.2162 -10.4654 -7.89788
H -9.38808 -10.8601 -7.49999
H -11.0081 -10.7256 -7.34549
O -8.04311 7.25464 -6.11967
H -7.50612 7.6386 -6.87074
H -7.69982 6.34226 -5.8969
O -7.45277 -8.43832 -13.1453
H -6.93199 -8.41738 -12.292
H -6.97245 -7.90563 -13.8421
O -8.70051 -13.5451 5.53792
H -7.83568 -14.0421 5.60862
H -9.31173 -14.0274 4.91045
O -11.4093 -10.3993 -0.796357
H -11.6759 -10.5739 0.15147
H -10.4658 -10.069 -0.821808
O -6.92315 0.581023 -0.0511074
H -7.6245 0.751948 0.640855
H -6.04704 0.944512 0.265449
O 13.635 13.5634 1.53218
H 14.4225 12.9625 1.39592
H 13.1844 13.3321 2.39441
O 13.2891 4.13479 9.65106
H 14.2146 3.86992 9.38051
H 13.3373 4.86258 10.3351
O 12.2733 -3.2488 4.09385
H 12.4194 -2.39417 3.59567
H 12.6471 -3.16429 5.01745
O -0.343975 1.0411 -9.02293
H -0.201381 1.20311 -9.99932
H 0.539603 0.903798 -8.57533
O -9.58195 -14.8427 11.1049
H -8.81714 14.9269 10.4719
H -9.24673 -14.8918 12.0457
O -1.97603 -6.43086 -2.75841
H -2.14431 -5.49165 -2.45929
H -2.82665 -6.82867 -3.10206
O 10.476 -11.1829 1.99735
H 9.94011 -11.1473 2.84085
H 9.89716 -11.5046 1.24808
O -2.50466 11.8838 2.80735
H -1.78617 11.3116 3.20274
H -2.18414 12.2716 1.94319
O 8.89313 -10.2222 4.99046
H 9.83833 -9.98255 5.21194
H 8.8112 -11.2156 4.91036
O 5.67811 -13.7151 -13.7353
H 4.77824 -13.282 -13.7858
H 5.72975 -14.2815 -12.9129
O -11.6553 -0.685023 5.05377
H -12.1385 0.0984943 5.44425
H -11.6194 -0.592398 4.05876
O -5.24531 2.29656 10.3966
H -6.17888 2.63761 10.5065
H -5.23326 1.5753 9.70414
O 9.56932 1.87741 12.113
H 10.2341 1.44492 11.504
H 9.9431 1.91774 13.0396
O -9.48574 -9.10698 2.16849
H -9.01765 -8.30297 2.53505
H -10.156 -9.43482 2.83423
O -13.1863 -5.99207 -5.86643
H -14.1685 -6.14831 -5.97046
H -12.7802 -6.75099 -5.35751
O 13.5402 -6.11513 -2.17259
H 13.4481 -6.6351 -3.02173
H 14.2574 -6.52337 -1.60792
O -3.42196 -8.07029 4.93397
H -2.74317 -7.65587 5.54011
H -3.14845 -7.93063 3.98234
O -11.6928 -12.4815 -9.22189
H -12.4653 -11.8477 -9.26013
H -11.1009 -12.2396 -8.45312
O 7.99732 -7.1386 -4.55542
H 8.34713 -8.02533 -4.25334
H 8.58266 -6.41041 -4.19901
O 0.458631 10.9228 -1.74138
H -0.37658 11.034 -2.27986
H 0.77937 9.9785 -1.81492
O -12.3155 -3.55683 -6.68202
H -12.7226 -2.83404 -6.12366
H -12.6151 -4.44858 -6.34301
O 5.68055 13.3113 9.15181
H 5.74623 12.598 8.45409
H 5.60009 14.2043 8.70901
O 5.2628 -3.52111 -6.03877
H 6.02311 -2.88571 -5.90424
H 4.6439 -3.47103 -5.25495
O 7.93559 -13.2532 -11.4248
H 8.09484 -13.4276 -12.3965
H 7.39824 -12.4164 -11.3202
O 11.4599 0.626098 6.63099
H 11.3858 1.48903 7.13076
H 10.5913 0.428218 6.1769
O 7.18125 14.3416 -10.1183
H 6.93119 13.9171 -10.9885
H 7.47507 -14.6053 -10.2794
O 8.14232 -8.03642 3.88811
H 8.79341 -7.28684 4.00693
H 8.48662 -8.85341 4.35059
O 1.6125 -3.77257 12.3447
H 1.91189 -3.58208 13.2796
H 2.3972 -3.72329 11.7269
O 8.26258 13.172 3.89253
H 8.7355 13.7462 3.22428
H 7.27597 13.225 3.73861
O 9.8026 -4.89236 -3.50581
H 10.3974 -4.65816 -4.27477
H 9.32272 -4.07242 -3.19384
O 5.74816 -5.52155 -3.47218
H 5.47474 -5.17647 -4.36999
H 6.41582 -6.25704 -3.58698
O -0.0285785 -9.16774 -12.508
H -0.479416 -8.95403 -13.3745
H -0.649336 -8.9655 -11.7505
O 5.60771 -9.70931 3.02787
H 6.3939 -9.28697 3.47894
H 5.00724 -10.116 3.71633
O -2.16572 3.29337 -10.3978
H -2.23471 2.34583 -10.7098
H -2.70503 3.40981 -9.56387
O -12.1116 -7.43235 5.18276
H -11.7199 -7.25784 6.0861
H -11.4846 -7.10091 4.47789
O -7.45773 -10.9975 9.40334
H -6.57708 -10.9879 9.8769
H -7.32521 -10.7344 8.44778
O 8.92478 -2.58799 -2.28151
H 8.73511 -2.97321 -1.37844
H 9.48156 -1.76339 -2.18188
O -12.191 13.8324 -14.7336
H -11.1938 13.766 -14.6995
H -12.5542 13.8745 -13.8029
O -13.726 3.31592 8.33391
H -13.4089 4.26338 8.37529
H -13.2156 2.76457 8.99381
O 11.9428 -1.23715 8.67674
H 11.5655 -0.493174 8.12528
H 12.9373 -1.25674 8.5744
O -5.61211 -5.46104 7.23799
H -5.14982 -4.94924 7.96205
H -5.87296 -6.36306 7.58184
O 8.28699 -4.57927 6.43931
H 7.51779 -4.94327 6.96443
H 8.7462 -3.86745 6.97068
O 0.72757 -12.6642 -3.19293
H 1.27257 -12.7443 -4.02748
H 0.000169178 -11.9925 -3.33309
O 12.573 13.5259 5.41938
H 12.7396 12.9708 6.2343
H 13.2782 14.231 5.34655
O 9.65481 4.24052 -11.9833
H 9.43338 3.30764 -12.2673
H 10.6411 4.3196 -11.8385
O -14.6795 -10.9258 -4.70986
H -13.7696 -11.2099 -5.01183
H 14.7536 -10.4287 -5.44799
O -6.64465 8.24984 -8.29962
H -7.21105 8.08375 -9.10679
H -5.69521 8.38798 -8.58139
O -0.526204 -6.21281 -6.4892
H -1.35756 -5.92339 -6.96354
H -0.606712 -7.17608 -6.23322
O -5.25189 7.38608 -12.8115
H -5.25252 6.40946 -12.5968
H -4.41633 7.61722 -13.3098
O -2.11427 -12.8802 -10.6328
H -1.35639 -13.5295 -10.6952
H -1.95104 -12.2493 -9.8744
O 13.5314 0.121949 4.8205
H 13.5712 0.659793 3.97845
H 12.7151 0.375299 5.33956
O -14.7591 -1.56483 -2.69018
H 14.2405 -1.89048 -3.01055
H -14.2081 -2.34295 -2.38889
O 10.0582 -14.6399 -2.29533
H 10.8335 14.7811 -1.8713
H 9.50427 -14.2033 -1.58652
O 6.47026 12.2591 -6.57557
H 6.61508 12.9839 -5.90212
H 7.16543 11.5501 -6.45692
O -14.5794 11.2011 1.05644
H -14.3254 11.4236 0.115245
H -13.8423 10.6798 1.48627
O -13.3536 14.1068 12.7208
H -13.9933 14.8613 12.867
H -12.7113 14.0613 13.4858
O -8.84388 -0.477559 6.14301
H -8.98316 0.243226 5.46405
H -9.69891 -0.978234 6.27776
O 10.0752 -10.9165 -8.78537
H 9.15005 -11.2748 -8.6605
H 10.1196 -10.399 -9.6399
O 5.26604 4.20133 11.4256
H 4.88549 3.80057 12.2589
H 6.01318 3.62723 11.0907
O -9.49353 13.2176 14.2909
H -8.6486 13.0443 14.7968
H -9.66483 14.2021 14.2554
O 14.901 10.0195 -4.48504
H 14.8726 10.7363 -5.18172
H -14.4615 9.24186 -4.8282
O 12.7261 1.97242 -9.93396
H 13.6662 2.10061 -9.61806
H 12.4317 2.78225 -10.4413
O -3.22206 -8.86183 10.6734
H -2.96915 -8.06653 11.2243
H -3.91394 -8.59596 10.0022
O -14.8018 -2.4798 -13.958
H 14.3714 -2.56565 -13.2653
H -14.914 -3.19845 -14.6442
O 1.21843 -10.6555 -7.13138
H 1.53642 -9.90948 -7.71634
H 0.516305 -10.3134 -6.50697
O 10.2589 0.0198732 -2.47116
H 10.2129 0.981277 -2.74227
H 10.0713 -0.0596981 -1.49218
O 3.52781 6.27 -3.83197
H 2.67121 6.17729 -4.33947
H 3.56637 5.57558 -3.11349
O 2.61169 11.116 11.3698
H 2.7089 12.0052 11.8168
H 3.50457 10.6686 11.32
O -11.8986 -11.3912 6.54162
H -11.8975 -10.8242 7.36526
H -12.773 -11.8707 6.46836
O -4.18313 -4.14118 -2.90474
H -5.05928 -4.44637 -2.53173
H -4.04876 -4.54229 -3.81081
O -2.88723 -14.7177 4.61918
H -2.67713 -14.2767 3.74662
H -3.74756 14.6681 4.53962
O 13.8071 -0.904074 -11.7258
H 14.1853 -0.546381 -10.8721
H 13.8412 -0.193813 -12.4289
O 5.47786 -9.11897 13.7802
H 6.29744 -8.70611 14.1773
H 5.7264 -9.62537 12.9545
O 7.16765 -10.0087 -6.95267
H 8.09596 -9.66271 -6.81695
H 6.97606 -10.7222 -6.27879
O -9.2138 4.44671 -8.71217
H -9.64204 3.8998 -7.99287
H -9.47541 5.40556 -8.60221
O 2.31696 11.6804 -6.69804
H 1.88743 12.4105 -6.16669
H 3.30503 11.6938 -6.54487
O -10.807 -8.62454 -10.1289
H -10.521 -9.12385 -9.31112
H -11.6572 -8.13361 -9.93937
O 14.8577 -13.6533 -8.76867
H 14.0724 -13.6499 -8.14963
H -14.7071 -12.7167 -8.90069
O 8.11202 8.26878 -8.95296
H 7.31408 7.76638 -8.6201
H 8.62192 7.6967 -9.59533
O 1.45638 5.58425 9.71477
H 1.83679 6.46147 10.0075
H 0.640668 5.37777 10.255
O -1.88713 -12.8246 -4.63875
H -2.74333 -13.2763 -4.38818
H -1.13634 -13.4833 -4.59096
O -3.60891 -12.5415 -6.82022
H -3.56308 -12.2197 -5.8746
H -3.95276 -13.4804 -6.83643
O -13.9285 14.8088 4.97073
H -14.3428 -14.1918 4.77402
H -13.5744 14.8059 5.90588
O 0.572862 -12.0169 6.47111
H 0.093871 -12.5045 7.20099
H 1.0303 -12.6761 5.87432
O 8.03897 -12.8932 -14.2219
H 7.05312 -13.0104 -14.3414
H 8.52434 -13.5773 -14.7664
O -8.24463 5.13296 9.81746
H -8.04586 5.1494 10.7973
H -7.79469 4.34391 9.39929
O -12.2675 -11.4529 1.48432
H -12.054 -12.4237 1.5934
H -11.9289 -10.946 2.27702
O -5.64124 -3.21326 5.27588
H -5.86063 -3.7827 4.48372
H -6.22193 -3.47608 6.04636
O -10.7302 6.21338 10.2136
H -10.9906 5.80467 11.0882
H -9.75819 6.04969 10.0454
O 6.5857 4.99134 -1.95117
H 6.96865 5.62105 -1.27536
H 6.58192 5.42918 -2.85016
O -8.19142 -5.11607 8.89907
H -7.36944 -4.60068 8.65696
H -9.00031 -4.5548 8.72419
O -4.89209 9.86495 7.88428
H -3.92637 9.94018 7.63605
H -5.3967 9.43751 7.13424
O -3.9503 12.5371 -0.738044
H -4.32501 13.2625 -0.160685
H -2.95213 12.5462 -0.67896
O -5.53144 8.19475 5.62121
H -5.97593 8.86263 5.02434
H -4.88034 7.65356 5.08914
O 12.9681 9.747 0.134188
H 12.2329 9.6425 0.803845
H 13.7145 10.2757 0.5384
O 7.4403 -2.78974 4.1515
H 7.65316 -3.56143 4.75074
H 6.49411 -2.50285 4.30089
O 12.2977 -12.3905 14.0264
H 12.8015 -12.5786 14.8695
H 12.3753 -11.4194 13.8012
O -10.0154 14.5692 3.74022
H -10.8417 14.0065 3.71924
H -9.21136 13.9849 3.63078
O -9.62826 -13.9822 14.3157
H -9.79366 -13.8151 -14.6015
H -10.0904 -13.2805 13.7735
O 4.03507 3.64015 -2.68715
H 5.01022 3.84912 -2.76013
H 3.87932 3.04818 -1.89645
O 10.1556 -4.60285 -9.79354
H 9.33169 -5.13925 -9.97608
H 10.0262 -4.06647 -8.9596
O 6.92784 -12.4245 -5.10127
H 6.90639 -13.2532 -5.66052
H 6.10847 -12.3871 -4.5293
O -10.7838 2.11351 -1.14729
H -11.1799 1.32918 -1.62463
H -11.0733 2.10213 -0.190212
O -9.59237 8.97282 11.6085
H -9.47235 8.49059 12.4763
H -9.78986 9.93663 11.7874
O 5.76824 7.84889 -7.01472
H 4.86778 7.53395 -7.31454
H 6.09367 7.26711 -6.26937
O 1.30411 6.85074 14.3161
H 1.49597 5.92269 13.997
H 1.1014 6.83134 -14.594
O 7.74157 14.1788 -0.313907
H 8.2455 13.4292 -0.74306
H 7.11914 14.5872 -0.981502
O -8.71094 -1.4109 -13.6067
H -8.51873 -0.755084 -12.8767
H -8.33645 -2.30442 -13.3591
O 2.65051 12.5938 -1.93672
H 3.3923 11.9995 -2.24742
H 1.83008 12.0456 -1.77442
O -3.86253 8.35967 -5.53676
H -3.30643 8.19383 -6.3511
H -4.04412 9.33925 -5.45098
O -2.65554 -5.65756 6.24196
H -3.56906 -5.26378 6.14029
H -2.05182 -4.99065 6.67859
O -2.506 1.511 7.36908
H -3.13194 1.24891 8.10353
H -2.55608 0.837011 6.6321
O 8.30664 -13.5926 6.96225
H 9.10715 -13.8679 6.42998
H 7.5669 -13.3329 6.34156
O 1.78717 12.8654 1.94716
H 0.973384 13.0992 2.47917
H 1.85806 13.4781 1.16002
O -8.86101 0.247649 -6.42581
H -9.41935 -0.49944 -6.78639
H -9.34874 1.11315 -6.53952
O -12.1406 2.1352 4.00815
H -11.2121 2.27086 4.35377
H -12.7756 2.06435 4.77739
O 2.28087 -12.7373 -5.34367
H 2.15158 -12.018 -6.02615
H 2.95767 -13.3942 -5.67587
O -9.4177 13.5702 7.1113
H -9.96832 14.3959 7.23399
H -8.452 13.7901 7.2491
O -12.9799 -0.216309 8.4707
H -13.3473 0.0220743 7.57177
H -12.6877 0.615463 8.94259
O 3.86651 -2.84593 11.017
H 4.34252 -2.04681 10.6499
H 3.68792 -2.70909 11.9913
O -2.06877 -1.88508 -13.4458
H -2.81609 -2.54517 -13.3703
H -2.25725 -1.25268 -14.1971
O 3.08829 5.06728 4.54099
H 3.18539 4.80143 5.50005
H 3.98689 5.06666 4.10233
O 10.5668 -7.47569 10.1282
H 9.88017 -7.94668 9.57444
H 11.4179 -8.00052 10.1212
O 1.73332 -7.52445 -10.9792
H 1.18351 -8.06807 -11.6133
H 2.07817 -6.71197 -11.4492
O -11.0444 -2.7508 0.849485
H -11.7307 -3.29917 1.32722
H -10.9073 -3.11657 -0.0710147
O -1.10731 4.49898 -12.7411
H -1.36602 3.85787 -13.4635
H -1.49283 4.19336 -11.8705
O -5.17421 -1.60802 -14.6627
H -4.30749 -1.49206 14.7414
H -5.63755 -2.42766 14.8896
O -6.05994 -14.6884 -13.4391
H -6.32604 -14.1292 -14.2242
H -6.8391 14.6475 -13.1446
O -1.70815 -10.7899 6.09449
H -1.61937 -9.79624 6.16345
H -0.815293 -11.2153 6.24188
O -11.7564 -7.89046 -4.3252
H -11.0559 -7.39545 -3.81122
H -12.4536 -8.23168 -3.69482
O 9.87291 5.51053 6.77449
H 10.7283 5.85386 7.16223
H 9.41498 6.24546 6.27442
O -5.68822 -14.9273 -10.4704
H -5.5005 -14.7702 -11.44
H -6.17467 -14.1393 -10.0931
O 13.4702 13.0193 12.4204
H 13.7924 13.9629 12.4957
H 14.2552 12.4018 12.3725
O 2.67199 1.87815 5.21039
H 2.17907 2.2221 4.41124
H 3.587 2.28062 5.23628
O -5.0865 5.56836 12.1844
H -4.82249 5.06552 13.0074
H -4.95043 4.98825 11.3814
O 9.2243 -11.6477 8.49053
H 8.97452 -12.4944 8.02081
H 10.2186 -11.5416 8.48011
O 1.63807 -6.92838 13.8805
H 1.40497 -7.87891 13.6754
H 2.62918 -6.80853 13.8236
O -1.0575 3.504 8.82369
H -1.57549 2.80513 8.33056
H -0.460614 3.98928 8.18483
O -1.90845 7.9961 -12.0873
H -2.49177 7.37254 -11.5669
H -1.02673 8.0913 -11.6253
O -10.9961 -4.46116 -1.63559
H -10.7369 -5.42562 -1.58469
H -10.173 -3.89354 -1.61828
O 2.05193 -5.59483 0.829237
H 1.10039 -5.50877 1.1243
H 2.45926 -6.4055 1.24972
O 11.5003 11.0558 -8.9826
H 12.1693 10.6854 -9.62688
H 11.5335 10.5335 -8.13052
O -10.3062 6.21418 3.39586
H -10.3363 7.15772 3.06609
H -9.95135 5.62001 2.67408
O 14.6812 3.42481 1.40084
H 14.4941 3.98254 0.592234
H -14.3423 3.71195 1.81079
O -14.7521 14.8464 8.14309
H -14.0543 14.7536 8.85328
H -14.5708 -14.2209 7.6031
O 3.30554 0.570984 9.20331
H 2.61044 -0.147724 9.1888
H 2.86152 1.46525 9.14811
O 0.445432 -0.20244 9.33584
H 0.158848 -1.16019 9.35815
H 0.61044 0.0741203 8.38916
O 9.20561 -0.444846 5.65961
H 8.25424 -0.385294 5.3575
H 9.43033 -1.39679 5.86749
O 0.703264 7.6567 -10.1912
H 0.58559 6.92401 -9.52096
H 1.1439 8.4407 -9.75407
O 3.96063 -0.134315 -2.86749
H 4.85066 0.0224047 -3.2955
H 4.06952 -0.166114 -1.87399
O -10.0849 8.63427 2.51802
H -9.79261 8.63408 1.56175
H -10.7005 9.40584 2.67823
O -11.1028 -6.72831 7.60215
H -11.0081 -6.07719 8.35513
H -10.3632 -7.39975 7.64712
O -12.6899 12.3261 7.9744
H -12.9897 12.8669 8.76022
H -11.7429 12.0359 8.11137
O -1.13079 -3.51379 7.1871
H -0.43761 -3.20207 6.5373
H -0.773225 -3.43786 8.11785
O 7.17963 5.21462 -12.7855
H 8.05355 4.95727 -12.3732
H 6.88869 6.10046 -12.4242
O -14.7984 12.4022 -6.38401