2593
Atoms. Timestep: 18495000
O 0.863228 -11.9733 12.1218
H -0.0154004 -11.899 11.6501
H 0.931505 -12.8695 12.5602
O 2.36435 -12.6791 -9.3019
H 2.59825 -12.2105 -8.45003
H 1.65432 -13.3603 -9.12352
O 10.27 -1.5942 12.1155
H 9.29875 -1.60338 11.8775
H 10.8053 -1.30947 11.3203
O 12.8256 -7.00758 -4.31244
H 13.4619 -7.74932 -4.10066
H 13.0441 -6.62735 -5.21113
O -14.8855 14.3866 -8.50747
H 14.8242 13.4458 -8.7627
H -14.4928 14.8615 -9.29504
O 9.93414 -3.40436 -5.70701
H 9.85438 -3.95594 -6.53729
H 9.72243 -2.45032 -5.91905
O -0.369802 10.9182 -1.95459
H -0.378787 9.92815 -2.09472
H -0.345725 11.116 -0.974642
O -8.46233 4.06958 -10.7054
H -8.45925 4.93418 -11.2078
H -8.39701 3.3087 -11.351
O 13.7711 14.4874 1.47633
H 14.3164 -14.7973 0.944532
H 13.8945 14.6698 2.45178
O -1.53057 -8.07411 -10.5122
H -0.995235 -7.60609 -11.2153
H -1.36513 -9.05876 -10.5676
O -11.9638 13.0905 13.5251
H -12.4905 13.1758 14.3709
H -11.4497 12.2329 13.5378
O -5.1943 12.0459 14.2319
H -6.18721 11.9487 14.3001
H -4.76606 11.6805 -14.8743
O 13.6959 -12.2431 -10.1289
H 13.293 -13.1559 -10.0619
H 13.0629 -11.5704 -9.74589
O -9.03521 -9.65724 1.97567
H -8.04681 -9.73529 1.84554
H -9.50684 -10.0175 1.17083
O -10.313 -4.70323 11.351
H -10.0991 -5.19569 12.1946
H -10.3706 -5.3517 10.592
O 5.70907 -8.48761 11.2118
H 4.87771 -8.33115 11.745
H 6.33876 -9.0604 11.7365
O -14.0767 -4.84254 8.637
H -13.4325 -4.43852 7.98759
H -14.7761 -4.16886 8.87553
O -5.54289 1.4336 -13.4191
H -6.4095 1.74813 -13.0318
H -4.84143 1.42894 -12.7064
O 12.1146 -6.03765 11.2395
H 11.174 -6.35881 11.3498
H 12.7171 -6.55561 11.8467
O -11.9884 1.85748 1.37299
H -12.7714 1.38354 0.970089
H -12.0679 2.83917 1.19999
O -11.9988 4.93522 0.990967
H -12.8412 5.37946 1.29583
H -11.7837 5.23143 0.0603902
O 3.94871 3.83965 12.4259
H 3.48003 4.37244 13.1305
H 4.56901 4.43502 11.9153
O 2.21903 -6.59913 -6.53161
H 2.64016 -6.06773 -7.26662
H 2.37569 -6.1406 -5.65686
O 11.2712 1.11765 12.7533
H 10.3772 1.32185 13.1523
H 11.2442 0.217768 12.3181
O 12.0689 2.31553 -1.34669
H 12.338 2.90318 -2.10975
H 11.413 2.8001 -0.767973
O 5.14823 -5.64491 13.2525
H 6.01082 -5.14289 13.1902
H 5.30885 -6.53087 13.6875
O -5.42003 3.31125 9.76238
H -4.50843 3.61932 9.49025
H -5.62805 2.4445 9.30912
O -1.30365 -13.5618 2.96648
H -1.39625 -12.7852 3.58959
H -0.334288 -13.7663 2.8305
O 10.8151 -10.1771 4.983
H 10.9597 -10.762 4.18494
H 10.3256 -9.35025 4.70592
O 5.12879 10.4817 -13.1594
H 4.55502 10.9203 -13.851
H 6.08283 10.498 -13.4586
O 1.50355 -9.47264 -11.1067
H 1.50248 -8.57305 -11.5434
H 1.15144 -9.39095 -10.1743
O -14.433 0.183651 -12.9237
H 14.8918 0.254342 -13.7146
H -14.0874 -0.751932 -12.8516
O 4.91996 7.70939 -11.9345
H 5.16233 8.30357 -12.7014
H 3.93113 7.56061 -11.9277
O -12.2833 5.44809 -2.04026
H -13.1771 5.0263 -1.88842
H -12.379 6.21129 -2.67925
O -9.11704 -0.75199 5.80412
H -9.1967 -0.48583 4.8435
H -8.91688 -1.72994 5.86353
O -7.23484 -5.44357 -4.57523
H -6.38239 -5.17357 -4.12757
H -7.12772 -6.35406 -4.97462
O -9.45497 5.40704 -2.18101
H -10.3523 4.96591 -2.19312
H -8.90074 5.01506 -1.44674
O -1.17722 7.57578 6.30266
H -1.81713 6.99927 6.81071
H -1.59338 8.46984 6.13699
O 8.82035 1.79379 13.7981
H 9.26062 2.19956 14.599
H 7.82726 1.82943 13.9098
O -5.94133 -3.7807 12.4719
H -6.29415 -3.2789 11.6822
H -5.39397 -3.16611 13.0399
O 14.8165 -2.82564 0.911408
H -14.7771 -3.02678 1.8304
H -14.8877 -3.58229 0.29882
O 10.1996 2.41549 -14.021
H 11.153 2.70935 -13.9539
H 9.68914 2.75713 -13.2319
O -4.89482 -7.76301 -13.8257
H -5.63272 -8.23127 -13.3397
H -5.26528 -6.97093 -14.3109
O 10.7234 -13.6776 6.01072
H 10.9317 -12.7186 6.20254
H 9.953 -13.7308 5.3754
O -6.78771 -2.73823 -11.8898
H -6.65353 -3.05736 -10.9516
H -5.8983 -2.60659 -12.3275
O 3.46373 -12.2395 1.81822
H 3.54865 -12.9876 2.47632
H 2.74968 -11.6084 2.12127
O 11.9838 13.4197 14.8306
H 11.2732 12.9482 14.3084
H 12.5498 13.9617 14.2093
O 10.7305 -3.41111 8.07974
H 9.90298 -3.36758 7.52003
H 11.4341 -3.93033 7.59461
O -1.71609 2.64553 2.99236
H -2.08186 1.72816 2.83541
H -1.16701 2.64694 3.82811
O -4.4698 14.9309 -3.34971
H -4.28518 14.279 -2.61422
H -4.15426 -14.093 -3.07666
O -3.36868 -13.7926 -12.9429
H -4.01848 -13.106 -13.2689
H -2.49252 -13.6702 -13.4091
O -0.422169 -8.24202 -4.12848
H -0.395101 -8.01418 -5.10179
H -0.0682588 -9.1674 -3.99281
O -9.0662 8.23331 -2.22411
H -9.27962 8.47846 -3.1698
H -9.19729 7.25014 -2.09695
O -0.856684 -11.5258 -6.80651
H -1.15076 -11.7603 -5.87995
H -1.6477 -11.5297 -7.41826
O -3.50273 -2.57013 13.259
H -2.79205 -3.21843 13.5322
H -3.69654 -1.94864 14.0181
O -11.6049 -4.23219 7.33618
H -11.5838 -4.50922 6.37557
H -11.4048 -3.2549 7.4057
O 11.3258 -6.15574 -14.8209
H 10.8467 -5.31232 -14.5779
H 10.6975 -6.7705 14.635
O -6.47953 -0.649166 -1.20427
H -5.71157 -1.09482 -1.66428
H -6.44648 0.335053 -1.37803
O 2.2502 4.94153 8.921
H 2.62071 5.8625 8.80048
H 2.95453 4.26724 8.69912
O -11.9371 10.9107 -2.9315
H -11.6951 10.3677 -2.12743
H -12.9289 11.0342 -2.96407
O 12.0569 -7.63484 -10.2461
H 12.28 -6.70936 -9.94005
H 12.4693 -7.79796 -11.1424
O -1.66963 -3.831 10.1399
H -1.24293 -4.39367 9.43185
H -1.37632 -4.15017 11.041
O -4.14688 -1.20932 -7.72733
H -4.08615 -1.86291 -6.97294
H -3.54698 -1.50273 -8.47165
O -0.434118 2.15725 -2.26247
H -1.04465 1.38888 -2.45441
H -0.738635 2.62586 -1.43323
O 10.369 -14.6569 -3.34031
H 11.074 -14.7843 -2.64267
H 10.6032 14.7412 -4.15235
O -3.80492 3.80722 -12.8988
H -4.69446 3.38153 -13.0645
H -3.30354 3.87819 -13.7611
O -1.87036 -8.83015 8.17103
H -1.19949 -8.11539 8.3686
H -1.47387 -9.72512 8.37548
O -8.73473 -0.529303 -11.5325
H -9.63265 -0.964751 -11.4684
H -8.04231 -1.22158 -11.7356
O 2.39101 0.0551146 -2.94192
H 2.31924 0.728993 -3.67725
H 1.56758 0.0907193 -2.37565
O 1.03695 -4.81663 -1.82531
H 1.68934 -4.73945 -1.07138
H 0.460477 -5.62179 -1.68613
O -14.3788 10.2104 6.20639
H 14.6554 10.5154 5.89048
H -13.8022 11.0065 6.3903
O 7.16461 1.61877 10.6241
H 8.0379 1.16883 10.4373
H 6.67422 1.76441 9.7649
O 10.5266 -10.3441 10.6962
H 9.74566 -10.7453 10.2175
H 11.0151 -11.0598 11.1954
O 8.61236 7.1376 0.90897
H 9.20167 6.37314 0.647652
H 9.15428 7.82712 1.38944
O 5.99062 -5.14075 -1.60425
H 6.85658 -5.0996 -1.10586
H 5.72214 -6.09609 -1.72765
O -4.50402 9.30368 -2.94994
H -5.24125 9.97837 -2.9854
H -4.77887 8.54005 -2.36573
O 10.1563 -0.249146 -12.7638
H 9.862 0.27909 -13.5602
H 9.3691 -0.429999 -12.1743
O -11.2675 -3.20132 0.297682
H -11.291 -2.90373 1.25207
H -11.5085 -4.17036 0.244674
O 11.1777 0.918709 -3.60277
H 10.3878 0.313295 -3.50571
H 11.5993 1.06262 -2.70752
O -5.95126 -14.158 11.4633
H -6.76271 -14.6807 11.2019
H -5.57823 -14.5255 12.3152
O 7.07713 -14.711 6.99807
H 6.69862 -13.8729 7.391
H 7.96688 -14.9013 7.4129
O -8.62583 -4.80598 2.9633
H -9.26391 -4.03606 2.95609
H -9.12164 -5.64781 3.17653
O -1.32168 -1.27516 -3.62872
H -1.31251 -0.858004 -4.53749
H -0.657665 -2.02223 -3.59818
O 9.78783 -0.81642 -0.532618
H 9.45072 -0.694882 -1.46619
H 10.5513 -1.46219 -0.535375
O 7.68667 -0.542748 6.82496
H 8.12086 -1.35642 6.43846
H 8.22625 -0.2132 7.5997
O 8.17568 2.53617 -2.96316
H 7.91244 2.87013 -2.0581
H 9.07556 2.89981 -3.20388
O 2.81839 -8.27145 4.93296
H 3.26016 -7.69898 4.24223
H 3.50269 -8.59075 5.58852
O 13.4059 8.23419 -11.865
H 13.3331 7.877 -12.7961
H 14.3685 8.38487 -11.64
O -11.753 -13.9588 -12.7139
H -11.2783 -14.8311 -12.5959
H -11.1195 -13.283 -13.0905
O 11.198 -13.6123 0.918608
H 11.261 -12.71 1.34505
H 12.1094 -13.912 0.636573
O 13.7322 -2.2166 3.89734
H 12.9294 -2.26583 3.30307
H 13.8656 -1.27283 4.19975
O 1.87821 -10.0018 2.88966
H 2.22099 -9.6153 3.74589
H 0.960863 -10.3723 3.0349
O 9.17161 7.90541 6.91637
H 9.02947 7.45048 6.03727
H 8.30296 7.95752 7.409
O 0.749708 6.48581 12.9197
H -0.0704668 5.96257 12.6884
H 1.25692 6.01007 13.6383
O 13.7812 11.6339 -13.8694
H 13.7733 11.5474 -12.8732
H 12.9597 12.1194 -14.1684
O -2.95586 -8.16778 -8.0137
H -2.49055 -7.89791 -8.85669
H -3.5839 -8.92172 -8.20634
O -11.2596 13.2264 -12.5017
H -11.4803 12.9423 -11.5687
H -10.3494 12.8915 -12.7456
O -9.34255 9.45248 5.00873
H -9.78202 9.2436 4.13511
H -9.20281 8.60594 5.52235
O 3.74862 11.8977 -14.8856
H 3.62791 12.858 -14.6342
H 2.86003 11.4976 14.8226
O -8.84366 6.97664 6.30694
H -8.2416 7.46513 6.9385
H -8.46602 6.06961 6.12075
O 2.54126 -10.0421 -5.03934
H 2.43267 -10.9974 -4.76428
H 2.71224 -9.99601 -6.02352
O -12.0298 7.283 -4.81329
H -11.3 7.87682 -4.47449
H -11.6996 6.76693 -5.60363
O 14.9444 1.65475 -4.46238
H -14.2828 2.30109 -4.17164
H -14.5728 0.936823 -5.02089
O 11.6226 2.03865 3.36488
H 10.798 2.11073 3.92592
H 11.5244 1.27702 2.72436
O 9.91509 9.22857 2.11145
H 10.3148 9.85888 1.44595
H 9.77903 9.70385 2.98069
O 8.39651 4.86897 -7.24574
H 9.05586 5.61422 -7.34489
H 7.84592 4.7982 -8.0775
O -8.48342 12.3093 -4.58074
H -9.3614 12.6676 -4.26331
H -8.61029 11.8445 -5.45698
O -11.6866 10.2875 -7.59023
H -12.3576 9.57461 -7.79409
H -12.1561 11.0945 -7.232
O 9.09849 9.85858 -11.467
H 9.63409 9.08038 -11.1391
H 8.73543 9.654 -12.376
O -4.96114 12.1496 11.5231
H -4.95058 11.946 12.5021
H -5.89479 12.3661 11.2378
O -2.2338 -12.5968 13.79
H -1.89981 -11.7496 14.2032
H -2.01812 -13.3676 14.3893
O -11.8713 10.1658 12.3478
H -12.3432 9.49749 12.9228
H -12.102 10.0022 11.3886
O -11.3016 13.0175 8.85439
H -11.5117 12.6107 7.96538
H -10.4717 13.5705 8.78009
O 8.64955 -0.196956 -3.16745
H 8.26682 0.710103 -2.99214
H 7.90612 -0.854594 -3.28907
O 3.49143 7.23663 7.9677
H 4.35104 6.75266 7.80399
H 2.8788 7.10055 7.18915
O -9.8557 -8.78318 5.85342
H -9.44375 -8.61897 6.74969
H -10.7486 -8.33497 5.80981
O 4.21493 13.0541 2.94602
H 4.97875 12.8122 3.54441
H 4.56883 13.4122 2.08204
O 8.83668 -12.4064 13.601
H 8.94193 -12.3064 12.6116
H 8.7194 -13.3733 13.8276
O 7.56939 -0.215592 -14.3948
H 7.7093 -1.09637 -13.9425
H 8.0323 -0.218883 14.6514
O 0.227331 -7.33108 12.7905
H 0.458277 -8.24915 13.1127
H -0.639496 -7.36072 12.2928
O 0.0599291 -10.7484 -2.1854
H 0.97845 -10.657 -2.57003
H -0.560485 -11.1032 -2.88479
O -13.5687 -10.4803 -13.1456
H -14.5498 -10.5463 -12.9639
H -13.2848 -11.2445 -13.7247
O -0.26388 -3.72873 12.665
H -0.177088 -2.86688 13.1646
H 0.597236 -4.23412 12.7201
O -13.9263 8.8017 -11.2307
H -13.1188 8.21375 -11.2777
H -13.6987 9.70929 -11.5835
O -9.20589 14.7929 14.1511
H -10.011 14.4138 13.695
H -9.45316 -14.2854 14.6083
O 12.0572 3.60836 11.7119
H 11.7078 2.68143 11.8485
H 13.0176 3.64657 11.9878
O -13.9669 -9.3493 6.79465
H -14.6029 -8.58826 6.667
H -14.4805 -10.1814 7.00398
O -14.6006 -6.08005 13.1161
H 14.7381 -6.80836 12.7743
H 14.8873 -5.62076 13.8851
O 4.06418 5.13239 -7.05422
H 3.90576 5.34651 -8.01808
H 4.90333 5.58097 -6.74669
O -14.0568 6.6669 3.78883
H -14.1812 6.19179 2.91776
H -14.6165 6.22728 4.49123
O -1.06263 -12.5083 -10.1444
H -1.96695 -12.9132 -10.2795
H -0.569262 -13.0214 -9.44212
O -13.8782 -6.37771 -4.51207
H -14.0352 -5.39471 -4.60722
H -12.9979 -6.61592 -4.9222
O -13.8641 11.5153 2.3517
H -13.4531 12.2013 2.95206
H -13.8529 10.6248 2.80641
O 1.75447 -14.4017 -13.6332
H 1.71157 14.6145 -14.031
H 2.6319 -14.2805 -13.1691
O 14.2312 10.8276 11.6036
H 14.0764 10.7185 10.6217
H -14.8864 11.3877 11.7523
O 10.4495 7.49938 -14.0803
H 10.2111 8.13907 -14.811
H 9.88328 6.67879 -14.1578
O 7.49752 3.8628 -0.0911971
H 6.91867 4.49533 0.423403
H 8.39641 4.27631 -0.236048
O 9.64002 -7.41216 8.71849
H 10.0963 -8.17482 8.26009
H 9.55103 -7.61454 9.69373
O -12.4662 -7.336 14.6947
H -11.5596 -7.02188 14.4129
H -13.1551 -6.96987 14.0691
O -9.33025 7.33025 -10.3113
H -8.90662 6.95879 -11.1375
H -8.77986 7.08223 -9.51414
O 1.40786 7.6431 -7.38809
H 0.559595 7.3545 -6.94411
H 1.39359 7.36321 -8.348
O 9.61846 11.2711 -5.00071
H 8.95344 11.1565 -5.73868
H 9.14095 11.515 -4.15663
O 4.19363 9.98556 4.69094
H 4.08054 9.39087 3.895
H 3.30173 10.3403 4.97138
O -9.21929 1.51327 1.12011
H -9.04033 0.607324 0.736437
H -10.1859 1.58625 1.36567
O -10.3916 -12.7613 -1.9247
H -11.3242 -13.0747 -2.10352
H -9.74106 -13.3932 -2.34589
O -3.06232 -12.1213 0.648161
H -2.77351 -12.3053 1.58768
H -4.02297 -11.8436 0.6431
O 2.39449 -5.33925 12.068
H 3.26364 -5.00694 12.4342
H 2.00791 -4.65263 11.4523
O 4.67449 5.87712 3.74834
H 4.21964 5.10398 3.30637
H 4.29281 6.00989 4.66303
O 7.44932 -6.85877 1.10879
H 8.19074 -6.77644 0.442841
H 7.33581 -7.8189 1.36422
O 7.91587 -4.44293 14.3135
H 7.84537 -4.20175 13.3456
H 8.14262 -5.41306 14.3996
O -14.6963 -7.08037 -10.2281
H -14.387 -7.98227 -10.5295
H -14.6071 -6.42851 -10.9811
O 9.63758 5.07884 11.0672
H 10.3527 4.42682 11.319
H 8.9902 5.17205 11.8236
O -6.39332 -10.2881 2.00342
H -5.75738 -10.07 2.7437
H -6.16569 -11.1838 1.62146
O -12.4515 -7.68061 4.91704
H -13.037 -8.29544 5.44534
H -12.76 -7.66178 3.96604
O 13.9456 2.18151 7.60299
H 14.4334 2.74098 6.93293
H 14.5805 1.888 8.31762
O 1.81581 12.1972 2.20498
H 2.63536 12.6508 2.55513
H 1.40045 11.6512 2.93253
O 0.887138 -6.11233 -14.4384
H 1.49943 -5.33616 -14.5888
H 0.704783 -6.56688 14.6224
O 12.7987 -10.2821 8.29747
H 13.3583 -9.84707 9.00293
H 12.7453 -11.265 8.47349
O 5.92143 6.80892 -14.5061
H 5.20852 6.16874 -14.7922
H 6.27567 6.53535 -13.6118
O 6.50476 -1.70828 -3.12812
H 6.92657 -2.42921 -2.57829
H 5.99591 -1.08825 -2.53095
O -1.30401 -11.5691 10.8099
H -2.04379 -12.1985 11.0479
H -1.15976 -11.5833 9.82046
O -10.6091 5.1928 -6.59884
H -10.8605 5.84055 -7.31798
H -11.3673 4.5605 -6.4398
O 3.37471 -8.05305 12.46
H 2.94327 -7.16862 12.2822
H 2.76554 -8.61446 13.0201
O -3.01734 -7.06985 -5.5812
H -2.82504 -7.56838 -6.42646
H -2.20277 -6.56187 -5.30117
O -14.1417 -9.39443 -6.75353
H -13.7668 -8.49506 -6.9784
H 14.8273 -9.42961 -7.01854
O 6.71366 -10.4865 13.2144
H 7.3362 -11.1924 13.5522
H 5.85015 -10.9082 12.9378
O -8.75942 -13.5098 5.22601
H -9.38949 -13.9496 4.58602
H -8.50012 -12.6106 4.87363
O -1.50056 13.0131 8.10318
H -1.97356 13.1156 8.97825
H -0.526565 12.8568 8.26707
O 0.443849 -14.2345 9.68386
H 0.133613 -14.9272 10.335
H -0.34807 -13.8206 9.23493
O 13.9782 11.3292 -10.9827
H 13.7798 11.5281 -10.023
H 14.0431 10.3396 -11.1115
O 14.068 -4.00553 -6.53859
H 14.0308 -4.85127 -7.07087
H -14.9281 -3.85032 -6.22445
O 9.71958 -6.20436 6.43562
H 9.79519 -6.41303 7.41067
H 10.494 -5.63725 6.15511
O 6.25015 1.29466 0.158223
H 6.56495 2.23909 0.0636967
H 5.71056 1.04125 -0.644647
O 0.645043 11.5897 -7.89544
H 0.629488 11.8316 -8.86562
H 1.30969 10.8579 -7.74499
O 5.6161 -0.301094 8.59899
H 5.49382 0.646351 8.30341
H 6.42594 -0.686376 8.15663
O 10.6788 -3.83141 -13.7979
H 9.82839 -3.35498 -13.5746
H 11.448 -3.36 -13.3666
O 12.6666 14.1103 -1.99126
H 13.5573 14.4373 -1.67558
H 12.6623 13.1103 -1.99912
O -13.1617 3.4445 8.55331
H -12.169 3.36157 8.64073
H -13.6047 2.72645 9.09009
O 9.76181 -8.96045 1.51995
H 9.54767 -8.53104 2.39729
H 10.7401 -8.86919 1.33417
O 13.5484 -6.16158 2.06454
H 13.1416 -7.07107 2.15001
H 12.8491 -5.4666 2.23148
O 10.4982 12.8438 3.26356
H 11.3817 13.2412 3.01566
H 10.1337 12.3308 2.48643
O 1.73152 -2.87794 -8.38354
H 1.57323 -2.39117 -7.52448
H 1.23677 -3.74685 -8.37034
O -5.64468 -11.4062 10.4857
H -5.85811 -12.2999 10.8803
H -5.4543 -10.7545 11.2198
O -4.00802 1.95726 -2.98629
H -4.20316 1.00456 -3.21921
H -3.89233 2.48859 -3.82551
O -11.3239 -6.68935 -3.03651
H -10.6295 -7.39684 -2.90548
H -11.2506 -6.31768 -3.96196
O -7.60668 -12.9094 -0.459323
H -6.73626 -13.1225 -0.0155545
H -8.02522 -13.7534 -0.794756
O -12.9415 8.75805 14.4692
H -13.8959 9.05652 14.4582
H -12.8898 7.81916 14.8095
O -6.84496 -14.7198 3.05418
H -6.56717 14.3559 3.48833
H -7.58223 -14.3012 3.58445
O -0.762167 -11.6781 4.81628
H -0.019821 -11.0803 5.11882
H -1.63794 -11.2999 5.11623
O 5.32135 -2.89953 1.57106
H 5.91166 -3.50525 2.10455
H 5.70712 -2.77891 0.656396
O 11.4736 -14.3713 -9.79818
H 11.2835 14.5812 -9.85382
H 11.1703 -13.9246 -10.6399
O 5.40855 -1.12318 -8.13069
H 5.8001 -0.260323 -7.81111
H 5.23617 -1.72114 -7.34794
O 5.68814 1.91396 -13.3877
H 6.14342 1.23146 -13.9595
H 4.81061 1.55276 -13.0724
O 1.52797 9.97055 6.905
H 1.11972 10.6226 7.54387
H 1.77455 9.13415 7.3945
O 13.286 -3.59231 9.94622
H 13.1719 -4.31224 10.6308
H 12.3948 -3.35605 9.55917
O -14.0087 -3.38425 -10.0717
H -14.4186 -4.27517 -10.2671
H -13.2539 -3.4991 -9.42581
O -3.06486 9.53103 4.81859
H -2.74653 9.92734 3.95744
H -2.67934 10.0452 5.58476
O -11.9801 -8.57641 -12.0229
H -11.1697 -8.30511 -12.5422
H -12.6081 -9.07421 -12.6211
O -0.462447 -4.50611 7.63126
H -0.0325353 -5.40868 7.65412
H 0.245475 -3.80019 7.60892
O 0.654056 11.5815 8.81835
H -0.0949154 11.3592 9.44253
H 1.47339 11.804 9.34673
O 14.1127 9.90957 8.75303
H 13.44 9.17862 8.86751
H 14.5633 9.81188 7.86568
O 3.02923 -4.28754 -14.5662
H 3.38452 -4.4091 -13.6394
H 3.65101 -4.71778 14.712
O -2.63145 3.7439 9.45612
H -2.40245 2.82291 9.14098
H -1.79816 4.21277 9.74899
O -9.7485 -10.3118 -0.546655
H -9.92585 -9.83553 -1.40787
H -9.62058 -11.2873 -0.725451
O 6.18969 -9.92519 -0.772325
H 6.39945 -10.8054 -1.19808
H 6.03008 -10.0577 0.205903
O -2.73554 5.20149 3.93082
H -2.51345 4.23188 3.82831
H -1.90734 5.74804 3.80694
O 14.3298 10.1747 -4.97507
H 13.3513 10.0427 -4.8167
H 14.4617 10.7885 -5.7534
O -10.1016 -12.1757 -14.3003
H -9.83757 -11.533 -13.5812
H -9.99593 -11.7384 14.7392
O 3.51699 -9.81611 -7.65459
H 4.37798 -10.2303 -7.35943
H 3.70553 -8.95193 -8.1211
O -13.7059 9.28391 3.72893
H -13.8578 9.55856 4.67838
H -13.9508 8.32084 3.61728
O 10.2048 -9.75885 7.59413
H 10.9324 -10.1276 8.17255
H 10.3158 -10.1 6.66072
O -4.30389 -0.732045 -14.6588
H -4.58472 0.200634 -14.4324
H -4.28702 -1.28626 -13.8266
O 13.609 7.69481 0.337878
H 14.024 8.45535 -0.161478
H 13.232 8.02934 1.20158
O 2.56076 9.59883 -5.42217
H 3.07626 8.96353 -4.84717
H 1.93214 9.08502 -6.00595
O 10.433 2.41073 -8.95046
H 10.8043 1.64695 -9.47835
H 10.4664 2.1897 -7.97578
O -8.96006 -0.177258 -2.55292
H -8.02919 -0.466829 -2.33021
H -9.17247 0.66803 -2.06267
O -1.75888 -4.25821 -14.5992
H -0.973461 -4.84641 -14.7918
H -1.46454 -3.48037 -14.0439
O -13.231 13.1528 0.129222
H -13.817 12.8177 -0.608573
H -13.6951 13.0281 1.00618
O 12.0412 8.23108 6.17139
H 12.2531 9.20154 6.05626
H 11.1414 8.03775 5.78027
O -2.15544 -4.48012 -3.9713
H -1.24382 -4.08375 -3.86262
H -2.44865 -4.88422 -3.10486
O 4.46423 -11.8182 12.9923
H 3.89929 -11.6848 13.8065
H 4.55435 -12.7965 12.8058
O 0.305364 3.37019 5.05759
H 0.37946 3.83999 4.17795
H 0.911051 2.57452 5.06257
O -6.61157 12.1624 -1.43736
H -6.52847 11.6924 -0.558645
H -5.79295 11.9913 -1.9856
O -14.9483 4.169 -1.35785
H 14.4924 3.60316 -0.696147
H 14.36 4.84703 -1.74582
O 3.84792 7.5238 -4.47597
H 3.15384 6.86025 -4.75513
H 4.16783 7.30377 -3.55444
O -14.5373 11.7278 -3.06046
H 14.9206 11.1694 -3.74077
H -14.3878 12.6456 -3.42816
O 11.3046 13.1329 -5.92246
H 10.5742 12.5637 -5.545
H 11.4651 12.8798 -6.87649
O 13.3597 6.5133 -1.99471
H 13.099 6.87858 -1.10109
H 12.7374 6.86608 -2.69347
O 13.6465 2.70846 -10.9289
H 14.5891 2.43482 -11.1201
H 13.5526 2.92368 -9.95685
O -1.59245 -2.87543 -6.86842
H -2.29059 -3.54252 -6.6085
H -0.720926 -3.34408 -7.01263
O 9.67441 -7.56989 3.86538
H 10.6405 -7.35079 4.00175
H 9.17617 -7.42637 4.72044
O -13.8605 -7.15387 10.3266
H -13.943 -6.71284 11.2203
H -13.8334 -6.45543 9.61148
O 0.0608232 -4.96982 3.10902
H -0.269424 -4.12909 3.53807
H -0.452821 -5.13875 2.26783
O 12.5706 8.97232 2.42441
H 11.5824 9.08338 2.31926
H 12.9899 9.86397 2.59498
O 14.8188 -4.04175 5.44038
H 14.4888 -3.49411 4.6715
H 14.587 -3.5846 6.299
O -12.0711 1.55372 4.23186
H -11.9871 2.02644 5.10905
H -11.282 1.77305 3.65814
O -13.7261 1.83314 -10.938
H -13.7911 1.14641 -11.662
H -12.8921 1.68067 -10.4078
O -6.94039 10.2601 -3.69833
H -7.4488 9.61741 -3.12527
H -7.5019 11.0695 -3.87031
O -11.6286 6.9573 -8.48059
H -10.8207 7.20664 -9.01458
H -12.2676 6.45087 -9.05958
O -5.29349 0.304033 11.7587
H -5.81513 0.365646 10.9077
H -5.12117 -0.656911 11.9751
O 10.4019 4.07406 -3.3304
H 10.3579 4.95607 -3.79954
H 11.207 3.57004 -3.64308
O -0.945838 3.53662 0.452973
H -1.72556 4.14568 0.307862
H -1.10118 2.9859 1.27306
O 0.486153 3.10892 7.70301
H 0.78144 3.98251 8.08982
H 0.277696 3.2277 6.73223
O 14.1106 5.28269 -5.7562
H 13.2586 5.33259 -6.27738
H 14.4553 6.20686 -5.59173
O -6.13162 -12.4685 -6.47902
H -6.08092 -12.6275 -7.46498
H -5.21011 -12.4844 -6.09101
O -14.1184 -12.2368 4.32439
H -13.4066 -11.7737 3.79638
H -13.9673 -12.0767 5.29983
O -6.3956 -3.65509 1.28321
H -6.97748 -4.20612 1.88134
H -5.57153 -4.17198 1.05145
O -3.54214 8.30067 9.09923
H -4.49843 8.06973 9.2785
H -3.12607 7.58531 8.53788
O 6.80341 8.16547 3.72524
H 6.04968 8.19512 3.06875
H 6.44313 8.27543 4.65157
O 2.78117 1.10236 2.47188
H 2.30688 0.746735 1.66656
H 3.69362 0.696991 2.52738
O 5.76702 10.8701 0.858124
H 4.82155 11.0298 0.574283
H 6.05812 11.6018 1.47441
O 11.9264 -5.02451 5.74032
H 12.4598 -4.68496 4.96562
H 12.5114 -5.58252 6.3288
O -6.15624 3.57917 12.472
H -5.90147 3.35995 11.5301
H -5.56808 3.07308 13.1028
O -10.7583 12.3049 0.0905072
H -10.8513 11.3255 -0.0888411
H -11.6616 12.7336 0.0763751
O 8.75781 -8.95297 -1.40985
H 7.85686 -9.30425 -1.15516
H 9.46452 -9.45597 -0.91234
O 2.74164 -5.38875 -4.09092
H 3.08902 -4.46043 -4.22325
H 2.18589 -5.42141 -3.26023
O 9.55286 0.538179 8.81662
H 10.1083 1.27896 8.43884
H 10.131 -0.0649332 9.36619
O 5.02922 9.85148 11.2421
H 5.90579 10.315 11.3716
H 4.91236 9.15551 11.9506
O -10.203 -8.34816 11.6205
H -9.75436 -8.00969 10.7934
H -9.5404 -8.38321 12.3686
O 6.33241 5.97132 -3.70669
H 6.95377 6.71061 -3.44718
H 5.54943 5.96025 -3.08476
O 13.7877 14.2217 -5.90745
H 12.9669 13.6516 -5.87288
H 14.114 14.2792 -6.85093
O -11.4386 -1.41836 7.15436
H -10.5933 -0.936843 6.92298
H -12.1688 -1.12524 6.53721
O 5.64434 -10.6828 1.91255
H 5.78213 -10.3791 2.85529
H 4.75764 -11.1387 1.83544
O -7.58979 -14.3198 7.48102
H -8.01958 -14.3903 6.58086
H -7.08732 -13.4575 7.54385
O 1.81463 3.41243 10.9849
H 1.92514 3.73414 10.0445
H 2.6427 3.61725 11.5067
O 8.27173 -11.7577 9.6087
H 7.8809 -10.8688 9.36982
H 7.9735 -12.4424 8.94378
O -12.7201 -0.687975 3.28479
H -12.4182 0.147348 3.74423
H -13.0639 -0.461509 2.37348
O -9.8842 12.0803 5.50557
H -9.6919 11.1045 5.60987
H -9.68515 12.3607 4.56658
O 4.49209 7.05979 -1.75324
H 4.05519 6.62533 -0.965622
H 5.0292 7.84507 -1.44531
O 1.71375 14.388 7.33988
H 1.23767 14.9087 6.63119
H 1.34836 14.6352 8.23729
O -5.03837 5.89692 5.33958
H -4.24192 5.71984 4.7614
H -4.94687 6.79651 5.76658
O -10.3723 9.35753 -4.52931
H -10.3291 9.63847 -5.48805
H -10.7648 10.0971 -3.98261
O -4.07048 -2.74327 -12.5106
H -3.08417 -2.58148 -12.4791
H -4.24622 -3.66449 -12.8576
O 6.37252 5.85933 1.30765
H 7.068 6.47406 0.935638
H 6.16932 6.11844 2.25187
O 11.1986 -0.660796 5.05777
H 11.325 -0.886272 4.09177
H 10.4506 -0.00378158 5.15159
O -6.69553 -13.2027 -11.2052
H -6.99554 -13.7177 -10.4022
H -6.45891 -13.8387 -11.9397
O 3.53029 -6.89842 0.402982
H 4.41779 -7.35252 0.324864
H 3.56435 -6.01686 -0.0678378
O 5.23823 -2.80091 10.1518
H 4.66455 -2.63462 10.9538
H 5.10493 -2.0648 9.48823
O -8.02308 3.59922 2.32718
H -7.30893 3.38368 2.99314
H -8.3443 2.75509 1.89795
O 9.18355 -8.74671 -6.86123
H 9.44042 -9.67723 -6.6002
H 8.36883 -8.47043 -6.35145
O 11.7461 0.699256 -10.859
H 12.4814 1.29303 -11.1857
H 11.1613 0.439389 -11.6274
O -12.3349 3.42018 -4.49012
H -11.9126 4.04703 -3.83536
H -11.7003 2.67505 -4.69508
O 12.4274 3.87899 5.00354
H 12.4099 3.23102 5.76498
H 12.2316 3.39587 4.15017
O 12.3689 -11.6421 12.5348
H 12.0673 -12.3383 13.1862
H 13.1973 -11.2002 12.879
O -11.0306 3.27934 -9.10371
H -10.5252 3.21868 -8.24302
H -10.8571 4.16695 -9.53033
O -12.1903 -13.9623 12.7436
H -12.0385 -14.946 12.6472
H -11.655 -13.4734 12.0549
O 0.37979 -14.9241 -4.24875
H 0.958668 -14.389 -3.63343
H 0.942956 14.6066 -4.9707
O -11.0013 13.1954 -4.37207
H -11.5197 12.5384 -3.8247
H -11.6339 13.7629 -4.89903
O -11.9209 -7.65469 -7.2938
H -11.4081 -6.84797 -7.58744
H -11.9447 -8.32326 -8.03705
O 13.7137 6.23257 5.69228
H 13.1078 7.00324 5.88968
H 13.1961 5.37881 5.74822
O -3.20093 -5.82363 3.95025
H -4.13517 -5.71899 3.60933
H -3.12007 -6.69179 4.43988
O -11.71 -11.1427 -3.8315
H -10.9843 -11.3544 -3.17692
H -11.3116 -10.7202 -4.64561
O -7.1553 12.9536 6.92899
H -7.08263 13.0788 5.93954
H -7.15919 13.8468 7.37856
O -11.6369 0.452202 -9.5341
H -11.2658 0.161294 -8.65224
H -11.3428 1.38831 -9.72698
O -1.71195 13.8061 -5.93253
H -1.54107 12.8246 -5.8468
H -1.30238 14.2848 -5.15596
O 12.0019 -14.7921 -12.9054
H 12.8521 14.9501 -12.4146
H 11.8845 14.4728 -13.6404
O -4.91815 6.26643 -12.6001
H -5.10409 6.51291 -11.649
H -4.33413 5.45512 -12.6261
O -3.61165 11.5224 -13.5314
H -2.64603 11.2993 -13.3979
H -3.82939 12.3669 -13.0421
O -0.90484 -0.281794 -10.8592
H -0.158755 -0.0840575 -11.495
H -1.10669 0.534476 -10.3179
O 13.4867 -11.2322 -12.6465
H 12.5429 -10.9992 -12.8811
H 13.5214 -11.5779 -11.7088
O 7.13325 1.48304 -11.1089
H 6.82012 1.52299 -12.0578
H 7.23227 0.527703 -10.8305
O -13.8609 -0.760815 -2.16608
H -12.9847 -1.13407 -2.47087
H -14.5901 -1.08938 -2.76636
O -10.745 -6.1478 8.9582
H -11.1166 -7.04914 8.73574
H -11.1095 -5.4701 8.31963
O -2.37098 6.33976 14.6245
H -3.32774 6.62908 14.6542
H -1.89484 6.8368 13.8991
O 12.2903 13.7968 9.16897
H 11.8374 13.0171 9.60137
H 13.2751 13.7439 9.33417
O -6.56402 -3.75347 -9.39839
H -6.53411 -3.43826 -8.44985
H -6.7723 -4.73133 -9.41825
O 3.02809 -10.1597 10.6265
H 2.54516 -10.8653 11.145
H 3.39359 -9.47447 11.2564
O -11.8631 -13.7782 5.49586
H -11.3122 -14.51 5.0946
H -11.325 -12.936 5.52918
O 10.3006 6.48019 -8.11172
H 11.0015 5.77925 -8.2437
H 10.0457 6.86756 -8.99767
O 12.7519 6.21119 12.7238
H 11.9325 6.78411 12.7428
H 12.5396 5.34048 12.2802
O -4.28666 -8.39542 10.0646
H -4.14664 -8.8251 9.17254
H -3.4034 -8.12067 10.4445
O -2.31895 1.27151 8.2685
H -2.46459 1.18982 7.28255
H -1.94217 0.41526 8.62184
O -2.26253 10.4008 7.15069
H -2.01781 11.2739 7.57243
H -2.44889 9.72623 7.86496
O 12.8219 10.9999 5.23323
H 12.2946 11.6099 5.82476
H 12.7219 11.29 4.28149
O -0.570789 7.29312 -4.9461
H 0.318572 7.02539 -4.57553
H -0.844097 6.6456 -5.65743
O -13.1459 -3.51604 14.7031
H -13.7313 -4.3227 14.6215
H -12.8673 -3.21281 13.7919
O 14.936 -2.1741 7.73689
H -14.196 -1.63401 7.47757
H 14.1047 -1.6899 7.46399
O 4.38223 14.8424 -9.74944
H 4.81619 -14.2127 -9.95375
H 3.47102 -14.9309 -9.36958
O -12.8122 -11.8393 -6.03997
H -13.273 -10.9954 -6.31482
H -12.6947 -11.8467 -5.04694
O 9.29224 -6.89106 -9.65904
H 10.2822 -6.96753 -9.77809
H 9.04207 -7.19965 -8.74134
O -1.77137 -11.7843 -4.13863
H -2.20222 -12.2662 -3.37563
H -2.44828 -11.2037 -4.59104
O -5.4431 5.25022 -8.33634
H -6.13938 4.5552 -8.51552
H -5.58938 5.64216 -7.42807
O 7.2415 8.82633 -0.653671
H 6.78468 9.51946 -0.0961258
H 7.64574 8.13251 -0.0577126
O -2.30989 14.5211 1.09007
H -3.23357 14.844 0.883994
H -1.94059 -14.8946 1.86233
O 9.70668 -6.42884 -0.676382
H 9.56117 -7.41043 -0.80002
H 10.4282 -6.11831 -1.29515
O 2.77122 5.86249 5.69934
H 1.79081 5.80576 5.51079
H 3.06921 5.0308 6.16781
O -13.5807 7.74267 7.43992
H -13.6659 8.38136 6.67521
H -12.8645 7.07462 7.23797
O -9.22925 12.2831 2.58191
H -9.65163 12.2242 1.67743
H -8.31281 11.8844 2.5484
O -12.3446 -14.4167 -1.30251
H -13.2842 -14.1304 -1.49025
H -12.3539 14.6573 -0.790049
O -2.62017 -1.81729 -9.79505
H -1.7524 -1.33981 -9.93274
H -2.44191 -2.77803 -9.58252
O 1.66003 -0.413845 -6.12084
H 0.663052 -0.385674 -6.19305
H 1.9917 0.452063 -5.74645
O 6.92225 11.4582 4.20672
H 6.64657 11.8357 5.0907
H 6.55752 10.532 4.11153
O -13.1753 -14.7337 8.12116
H -12.7754 -14.336 7.2954
H -12.6068 14.4379 8.43355
O 2.52626 8.92064 0.302393
H 2.11635 8.52712 -0.520464
H 2.70024 9.8943 0.155144
O -13.4198 4.217 -6.66999
H -14.244 4.62672 -6.2792
H -12.945 3.6878 -5.96676
O -5.8524 8.08157 -0.67541
H -6.84119 8.09787 -0.527056
H -5.47176 7.23982 -0.292605
O 4.84174 0.682341 -2.15764
H 3.91533 0.420193 -2.42784
H 5.19004 1.37446 -2.7898
O -3.12489 -13.7035 11.3365
H -2.81895 -13.1381 12.1025
H -4.04147 -14.055 11.527
O -9.07953 11.7353 -12.7443
H -9.47729 11.1817 -13.4759
H -9.07402 11.2095 -11.8937
O -9.86369 -5.47426 -5.39838
H -8.9455 -5.64855 -5.04267
H -9.9849 -5.9633 -6.26216
O -11.0516 -2.73373 -5.05412
H -10.2908 -3.3809 -5.10276
H -11.1902 -2.45304 -4.1044
O -12.1281 -8.86957 8.9643
H -12.4794 -8.22281 9.64123
H -12.777 -8.94509 8.20726
O 14.7659 -9.096 -4.30725
H -14.7428 -8.1907 -4.33346
H 14.8124 -9.51225 -5.21529
O 2.70284 -6.21422 3.14594
H 2.73238 -6.44863 2.17426
H 1.82952 -5.77494 3.35644
O -9.19109 -6.20457 -8.2494
H -8.1921 -6.20373 -8.29402
H -9.56606 -6.24246 -9.17565
O 2.39478 2.07532 -5.05244
H 1.61185 2.68233 -4.91635
H 3.24009 2.60832 -5.01588
O -3.29111 12.9612 3.62877
H -2.36766 13.2522 3.87884
H -3.24352 12.3302 2.85449
O -1.06911 -1.02839 5.91265
H -1.217 -1.88267 5.41435
H -0.181071 -1.05951 6.37134
O -3.2697 -5.49781 -1.41088
H -3.87987 -5.74189 -0.657162
H -2.41217 -6.00465 -1.32301
O -9.1091 1.6038 14.7673
H -9.84227 1.07772 14.3364
H -8.22828 1.17616 14.5642
O 4.35191 13.7238 10.0584
H 3.99984 13.3483 9.20113
H 5.34899 13.7838 10.0115
O -11.3044 -4.47009 -12.0343
H -10.3973 -4.70094 -12.3862
H -11.2758 -3.56705 -11.6058
O -12.1356 -4.68584 4.55011
H -13.0987 -4.52399 4.76537
H -12.0141 -5.63476 4.25899
O 12.1953 10.8146 -2.07513
H 11.8586 10.4875 -2.9581
H 12.9099 10.1993 -1.74225
O 0.938252 9.17363 11.6991
H 1.49324 9.27302 10.8733
H 0.90966 8.21078 11.9676
O -0.881694 5.84517 -7.20586
H -0.315842 5.05695 -7.44772
H -1.8456 5.61922 -7.34656
O -5.23807 2.27047 -7.80652
H -5.45795 1.50439 -8.41046
H -5.9518 2.96716 -7.8785
O -5.8814 3.1272 4.05553
H -5.34758 2.40138 3.62173
H -5.3071 3.93695 4.17575
O 1.62822 12.6239 -2.52186
H 1.1145 13.4093 -2.8672
H 1.00814 11.8497 -2.39487
O -5.61405 -9.11971 -4.23319
H -4.89123 -8.70415 -3.6811
H -6.19869 -9.6819 -3.6483
O 4.99495 3.08909 -10.0563
H 4.62896 2.53851 -9.30602
H 5.73841 2.59146 -10.503
O 10.1645 -10.0321 14.3844
H 11.0385 -10.1364 13.9098
H 9.597 -10.8386 14.2187
O -11.8291 -0.66984 -6.70479
H -11.415 -1.52417 -6.3907
H -12.7804 -0.628599 -6.39958
O -9.17618 10.972 -7.12211
H -8.81748 11.7814 -7.5871
H -10.1222 10.8163 -7.40623
O -6.51257 -6.60569 -9.16143
H -6.55554 -7.59395 -9.30794
H -5.7495 -6.39203 -8.55147
O 5.28639 -7.73669 -1.87312