LAMMPS data file via write_data, version 15 May 2015, timestep = 18500000

2593 atoms
6 atom types
1728 bonds
4 bond types
864 angles
3 angle types
0 dihedrals
3 dihedral types
0 impropers
1 improper types

-1.5068009779761644e+01 1.5068009779761644e+01 xlo xhi
-1.5068009779761644e+01 1.5068009779761644e+01 ylo yhi
-1.5068009779761644e+01 1.5068009779761644e+01 zlo zhi

Masses

1 15.9994
2 1.00794
3 12.0107
4 1.00794
5 12.0107
6 12.0107

Bond Coeffs # harmonic

1 1000 1
2 469 1.4
3 367 1.08
4 469 0.7

Angle Coeffs # harmonic

1 100 109.47
2 35 120
3 63 120

Dihedral Coeffs # opls

1 0 7.25 0 0
2 0 7.25 0 0
3 0 7.25 0 0

Improper Coeffs # cvff

1 2.5 -1 2

Atoms # full

2195 732 2 4.0999999999999998e-01 -1.0828942672306288e+01 -1.0880849146036432e+01 -1.3146925717509470e+01 0 -3 0
1486 496 1 -8.1999999999999995e-01 -1.0152878449392514e+01 -1.0783060204577305e+01 -9.8819291460499841e+00 2 5 -2
1487 496 2 4.0999999999999998e-01 -1.1011804007283148e+01 -1.1183647152297311e+01 -9.5629274861496345e+00 2 5 -2
1488 496 2 4.0999999999999998e-01 -9.3838078341692484e+00 -1.1277200360182942e+01 -9.4765392451793744e+00 2 5 -2
1593 531 2 4.0999999999999998e-01 -1.3225878099294691e+01 -1.0509309967853630e+01 -1.1188118329388690e+01 6 -4 2
1699 567 1 -8.1999999999999995e-01 -1.2736159366741539e+01 -1.2208370541085928e+01 -1.0076043924601789e+01 6 3 -5
1700 567 2 4.0999999999999998e-01 -1.3404962436292029e+01 -1.2508314162996149e+01 -9.3958076714137810e+00 6 3 -5
2196 732 2 4.0999999999999998e-01 -1.0000674065337403e+01 -1.0727057861629177e+01 -1.1748031146744484e+01 0 -3 0
1591 531 1 -8.1999999999999995e-01 -1.3884787338670492e+01 -1.0084337634859043e+01 -1.1808781057894786e+01 6 -4 2
1701 567 2 4.0999999999999998e-01 -1.2048456741600480e+01 -1.2922822273680232e+01 -1.0204919565183516e+01 6 3 -5
1869 623 2 4.0999999999999998e-01 -8.0814561026378851e+00 -1.3786522921697610e+01 -1.3779896113233612e+01 0 1 4
2194 732 1 -8.1999999999999995e-01 -9.9393273278267369e+00 -1.1003649031214371e+01 -1.2707050935314964e+01 0 -3 0
887 296 2 4.0999999999999998e-01 -1.3932156962171772e+01 -9.5881814456768275e+00 -8.7784454430323215e+00 -1 -2 -1
356 119 2 4.0999999999999998e-01 -1.2490583387158319e+01 -1.2070804025859923e+01 -1.4367971475512539e+01 6 0 -1
1193 398 2 4.0999999999999998e-01 -1.0642290018825371e+01 -9.2924821672141995e+00 -1.0649281831490667e+01 4 -1 1
894 298 2 4.0999999999999998e-01 -6.5195895290939259e+00 -9.4276413920114042e+00 -1.3647003190682467e+01 1 -3 0
886 296 1 -8.1999999999999995e-01 -1.3180565724984618e+01 -8.9573534890914139e+00 -8.9711934417723285e+00 -1 -2 -1
1592 531 2 4.0999999999999998e-01 -1.4753295251820706e+01 -1.0577748793962972e+01 -1.1761616123573500e+01 6 -4 2
893 298 2 4.0999999999999998e-01 -7.9206793412604988e+00 -9.8992469564225605e+00 -1.2953373406033206e+01 1 -3 0
1195 399 1 -8.1999999999999995e-01 -5.1376282954108010e+00 -1.3457795260593807e+01 -7.7257827667191332e+00 4 3 4
892 298 1 -8.1999999999999995e-01 -6.9389730843038304e+00 -9.7756777051199286e+00 -1.2808568203353627e+01 1 -3 0
929 310 2 4.0999999999999998e-01 -1.2104462339395141e+01 -9.6802037264049208e+00 -1.4317785181315068e+01 0 -1 2
1868 623 2 4.0999999999999998e-01 -8.5091006494292873e+00 -1.2481163617414845e+01 -1.2896865000872213e+01 0 1 4
930 310 2 4.0999999999999998e-01 -1.3079926811694126e+01 -1.0510098119622427e+01 -1.3304705167511750e+01 0 -1 2
2577 859 2 4.0999999999999998e-01 -5.9407783886988668e+00 -1.3512183157390885e+01 -1.2538546633622198e+01 0 8 3
1343 448 2 4.0999999999999998e-01 -7.1095259015076788e+00 -1.3160503432885939e+01 -1.0892652440244337e+01 2 4 2
1342 448 1 -8.1999999999999995e-01 -7.0149224470090932e+00 -1.3654755258574056e+01 -1.0028505218817145e+01 2 4 2
888 296 2 4.0999999999999998e-01 -1.3513465581081253e+01 -8.2067499024324029e+00 -9.5419447337586192e+00 -1 -2 -1
1867 623 1 -8.1999999999999995e-01 -7.8945760894667494e+00 -1.3268572325436587e+01 -1.2945157747765558e+01 0 1 4
928 310 1 -8.1999999999999995e-01 -1.2308961066433866e+01 -1.0582164361487148e+01 -1.3937479532546224e+01 0 -1 2
1192 398 1 -8.1999999999999995e-01 -1.0675618259456375e+01 -8.4263021627665786e+00 -1.1147886428273548e+01 4 -1 1
1344 448 2 4.0999999999999998e-01 -7.3701195205860337e+00 -1.3092040624034155e+01 -9.2820654187795721e+00 2 4 2
1194 398 2 4.0999999999999998e-01 -9.7543227293057946e+00 -8.0427082593675259e+00 -1.1211568256682746e+01 4 -1 1
1350 450 2 4.0999999999999998e-01 -5.7297651584595606e+00 -8.3747829094117225e+00 -9.3777912044987559e+00 -3 -1 0
628 210 1 -8.1999999999999995e-01 -1.4554671983386793e+01 -1.3426384320399411e+01 -8.2168206885846580e+00 -1 4 2
1421 474 2 4.0999999999999998e-01 -1.3198769678558369e+01 -1.4063990061002588e+01 -1.3657160280250514e+01 3 1 -2
2266 756 1 -8.1999999999999995e-01 -8.2966293954345502e+00 -1.2562166645044339e+01 -7.7780462056411048e+00 1 2 1
709 237 1 -8.1999999999999995e-01 -8.9205624374311192e+00 -1.4808224451522776e+01 -1.4993014336741172e+01 5 3 0
243 81 2 4.0999999999999998e-01 -1.1952512326677708e+01 -8.0335627581016453e+00 -1.2669446805030162e+01 -3 -1 0
2133 711 2 4.0999999999999998e-01 -1.1942093588348303e+01 -9.0397052649638319e+00 -7.8111824078056857e+00 1 4 -2
427 143 1 -8.1999999999999995e-01 -5.1669488721804058e+00 -8.8041813999916734e+00 -1.4971412174738866e+01 -1 7 2
1029 343 2 4.0999999999999998e-01 -1.1712078791730468e+01 -1.4601234604575062e+01 -1.1357660397051198e+01 6 3 -4
242 81 2 4.0999999999999998e-01 -1.3521975041442229e+01 -7.9392246858118991e+00 -1.3110438700359609e+01 -3 -1 0
241 81 1 -8.1999999999999995e-01 -1.2583595257729460e+01 -7.7236820506384403e+00 -1.3380568021389029e+01 -3 -1 0
1353 451 2 4.0999999999999998e-01 -1.3468586075664843e+01 -1.4641302482043811e+01 -8.1489814694302556e+00 0 3 1
355 119 1 -8.1999999999999995e-01 -1.2636670449568921e+01 -1.2879496097014965e+01 -1.4937761588446692e+01 6 0 -1
1027 343 1 -8.1999999999999995e-01 -1.1151731397458766e+01 -1.4508457154764143e+01 -1.0534624421275680e+01 6 3 -4
1196 399 2 4.0999999999999998e-01 -5.2274343343002307e+00 -1.2978189273329869e+01 -8.5986504893442834e+00 4 3 4
1420 474 1 -8.1999999999999995e-01 -1.3569214595887193e+01 -1.4849853462162612e+01 -1.3162009412542671e+01 3 1 -2
1790 597 2 4.0999999999999998e-01 -5.6848201159878293e+00 -1.4838278741950605e+01 -1.0130829408787953e+01 3 2 -1
1907 636 2 4.0999999999999998e-01 -8.5571893536903225e+00 -6.2352445951635573e+00 -1.1211951495691558e+01 3 -4 10
2250 750 2 4.0999999999999998e-01 -7.9899281274766816e+00 -4.4986437568287858e+00 -1.1250847401498563e+01 3 -5 6
1374 458 2 4.0999999999999998e-01 -1.3903615247253644e+01 -1.5039960425846743e+00 -9.7156313019812828e+00 0 5 2
707 236 2 4.0999999999999998e-01 -1.4424591485998047e+01 -1.1764084014375857e+00 -1.3988246077842721e+01 5 5 4
375 125 2 4.0999999999999998e-01 -9.4971513193288839e+00 -5.7727317823532758e+00 -1.4963183067878214e+01 0 0 -2
1908 636 2 4.0999999999999998e-01 -7.3592618577039488e+00 -7.0775585359983451e+00 -1.0489411780929231e+01 3 -4 10
1348 450 1 -8.1999999999999995e-01 -5.4873854477490784e+00 -7.4053334699347380e+00 -9.3403084223063431e+00 -3 -1 0
240 80 2 4.0999999999999998e-01 -6.4007697371411183e+00 -6.5842841567385904e+00 -8.2810087415182778e+00 11 -2 4
1616 539 2 4.0999999999999998e-01 -1.0771272936637157e+01 -1.7969317891283190e+00 -1.0520763160318118e+01 0 3 6
706 236 1 -8.1999999999999995e-01 -1.3735762607667770e+01 -4.8147645516459292e-01 -1.4194569789417137e+01 5 5 4
2530 844 1 -8.1999999999999995e-01 -1.2970660638654207e+01 -3.1948546525386643e+00 -1.3557778749534787e+01 4 -1 0
1708 570 1 -8.1999999999999995e-01 -6.5627015659562122e+00 -4.0315456873942264e+00 -1.4954322018143703e+01 1 3 -1
2249 750 2 4.0999999999999998e-01 -6.9434750061609893e+00 -3.3553332002917227e+00 -1.0736684406463819e+01 3 -5 6
1617 539 2 4.0999999999999998e-01 -1.2224500022110767e+01 -2.5178715467335913e+00 -1.0333777485266573e+01 0 3 6
1465 489 1 -8.1999999999999995e-01 -1.3739714789146804e+01 -5.2049388896566953e+00 -7.6385500984802901e+00 2 4 -2
1615 539 1 -8.1999999999999995e-01 -1.1407134102206134e+01 -2.4648736370852831e+00 -1.0907440514599543e+01 0 3 6
936 312 2 4.0999999999999998e-01 -1.1806927784317111e+01 -6.9715555568681111e+00 -1.0503423142949879e+01 0 0 6
2248 750 1 -8.1999999999999995e-01 -7.0293820616739797e+00 -4.2984553075764484e+00 -1.1057816430580132e+01 3 -5 6
1831 611 1 -8.1999999999999995e-01 -7.3372730396968393e+00 -2.0345730442600232e+00 -1.3307887226737138e+01 1 3 -2
2140 714 1 -8.1999999999999995e-01 -9.5065904051506838e+00 -8.5126167420040488e-01 -9.8763816547841010e+00 3 9 7
1682 561 2 4.0999999999999998e-01 -5.3543387467478336e+00 -2.5427241455248968e+00 -1.4514536580887446e+01 5 5 1
1771 591 1 -8.1999999999999995e-01 -1.4239836309050695e+01 -5.0994149848495134e+00 -1.2266156251903949e+01 7 -2 -2
1751 584 2 4.0999999999999998e-01 -9.4701443729110082e+00 -7.2439151199792420e+00 -9.0736125259551610e+00 -1 4 1
1906 636 1 -8.1999999999999995e-01 -8.3505825204171487e+00 -6.9752295751159377e+00 -1.0571857032698531e+01 3 -4 10
1372 458 1 -8.1999999999999995e-01 -1.3579283018157509e+01 -2.2784657618899775e+00 -9.1725011674007142e+00 0 5 2
1773 591 2 4.0999999999999998e-01 -1.3539892447084021e+01 -5.6260005567437297e+00 -1.1783692474910101e+01 7 -2 -2
1750 584 1 -8.1999999999999995e-01 -9.4974225481144678e+00 -6.8816707654203544e+00 -8.1419366040411170e+00 -1 4 1
996 332 2 4.0999999999999998e-01 -5.4720619515713231e+00 -5.0856814815915463e+00 -1.1612883063505901e+01 4 0 3
1932 644 2 4.0999999999999998e-01 -1.1459208313492757e+01 -4.5385367466252067e+00 -1.3566548166871588e+01 7 0 -1
1997 666 2 4.0999999999999998e-01 -5.2895723988597396e+00 -5.3089091839115810e-02 -1.1114268961360770e+01 -3 1 2
1920 640 2 4.0999999999999998e-01 -6.4829531841186014e+00 -2.6604086856273170e+00 -8.7999513707285644e+00 3 1 3
423 141 2 4.0999999999999998e-01 -8.6552109303540892e+00 -7.2346814462523845e-01 -1.3155642800440809e+01 -3 -1 -2
2531 844 2 4.0999999999999998e-01 -1.3077882293938494e+01 -2.2566350379129148e+00 -1.3228791581093367e+01 4 -1 0
422 141 2 4.0999999999999998e-01 -9.5562436638881323e+00 -4.6527854235467814e-01 -1.1818457363732186e+01 -3 -1 -2
1373 458 2 4.0999999999999998e-01 -1.2991329604624495e+01 -1.9456029761630127e+00 -8.4352778449434975e+00 0 5 2
1931 644 2 4.0999999999999998e-01 -1.1620916035659564e+01 -6.1585378493235901e+00 -1.3693172595780949e+01 7 0 -1
1930 644 1 -8.1999999999999995e-01 -1.0976996487426909e+01 -5.3954630422817544e+00 -1.3748576101597687e+01 7 0 -1
1833 611 2 4.0999999999999998e-01 -7.3601429691712026e+00 -2.9464808393882578e+00 -1.3717626402381430e+01 1 3 -2
2142 714 2 4.0999999999999998e-01 -9.7913330166570418e+00 -5.0776814939167636e-02 -9.3490006542342101e+00 3 9 7
1918 640 1 -8.1999999999999995e-01 -7.0600389919348405e+00 -2.0938867553289207e+00 -9.3881774970595515e+00 3 1 3
1996 666 1 -8.1999999999999995e-01 -5.2983755774637782e+00 -1.0515483954532243e+00 -1.1168919091459481e+01 -3 1 2
2141 714 2 4.0999999999999998e-01 -8.5846890219853549e+00 -1.1221658966206807e+00 -9.5994450989478857e+00 3 9 7
934 312 1 -8.1999999999999995e-01 -1.2242328122273173e+01 -6.0845725845446417e+00 -1.0349563280887134e+01 0 0 6
2532 844 2 4.0999999999999998e-01 -1.3462652079172937e+01 -3.8191170056431289e+00 -1.2950962431176851e+01 4 -1 0
1752 584 2 4.0999999999999998e-01 -1.0219811820980894e+01 -7.3423116215946198e+00 -7.6262343450521488e+00 -1 4 1
935 312 2 4.0999999999999998e-01 -1.1553202826416578e+01 -5.3617186636456005e+00 -1.0400294241447440e+01 0 0 6
308 103 2 4.0999999999999998e-01 -1.0091416673038356e+01 -4.9360978033047296e+00 -1.2222164651575435e+01 4 2 -3
307 103 1 -8.1999999999999995e-01 -9.7475635645192327e+00 -4.5952986796009068e+00 -1.1347175454840343e+01 4 2 -3
309 103 2 4.0999999999999998e-01 -1.0251828537670006e+01 -3.7712420570793252e+00 -1.1089042482309917e+01 4 2 -3
1919 640 2 4.0999999999999998e-01 -6.4824967609018280e+00 -1.5178045766296595e+00 -9.9665885780085404e+00 3 1 3
1832 611 2 4.0999999999999998e-01 -6.5048269269637657e+00 -1.9348430101299510e+00 -1.2762843665905718e+01 1 3 -2
421 141 1 -8.1999999999999995e-01 -9.2762825936291513e+00 -8.5635155845400490e-02 -1.2700204375432925e+01 -3 -1 -2
1709 570 2 4.0999999999999998e-01 -5.8896916010097886e+00 -4.7684609232999389e+00 -1.4891087182973148e+01 1 3 -1
239 80 2 4.0999999999999998e-01 -7.8560801520590857e+00 -6.3989423230778275e+00 -7.5638569070408144e+00 11 -2 4
1466 489 2 4.0999999999999998e-01 -1.3435887448622225e+01 -5.2838877305457270e+00 -8.5879926316858786e+00 2 4 -2
1547 516 2 4.0999999999999998e-01 -1.0237558501741042e+01 -5.0171063517328669e+00 -7.5466849448758682e+00 4 -1 1
1346 449 2 4.0999999999999998e-01 -5.0954678921900847e+00 -7.0139632593459336e+00 -1.4651728683998689e+01 3 2 0
1599 533 2 4.0999999999999998e-01 -9.9766292503375986e+00 -1.1057203476966928e+01 -4.5801360290874094e+00 6 5 1
1597 533 1 -8.1999999999999995e-01 -9.9687023670930550e+00 -1.0946452302839461e+01 -5.5739450813483664e+00 6 5 1
1598 533 2 4.0999999999999998e-01 -9.0234097463510992e+00 -1.0925865720963998e+01 -5.8994956089690742e+00 6 5 1
2146 716 1 -8.1999999999999995e-01 -1.0233242930672215e+01 -1.0908123072344811e+01 -2.0584599629403293e+00 7 -1 -4
2147 716 2 4.0999999999999998e-01 -1.0524642404664686e+01 -1.0402234005993746e+01 -1.2465808572851440e+00 7 -1 -4
2148 716 2 4.0999999999999998e-01 -1.0782981472701371e+01 -1.1738543976714466e+01 -2.1488686637978542e+00 7 -1 -4
2518 840 1 -8.1999999999999995e-01 -1.4391511542720993e+01 -1.2316074365908218e+01 -1.8349789178034062e+00 2 5 2
490 164 1 -8.1999999999999995e-01 -7.0306686614157012e+00 -1.1407192830366499e+01 -3.1424789860099072e+00 -2 1 0
192 64 2 4.0999999999999998e-01 -5.5918086690482305e+00 -9.3123818053570613e+00 -7.2204855714511549e+00 -2 -1 7
630 210 2 4.0999999999999998e-01 -1.4755987659662400e+01 -1.3152312524473391e+01 -7.2764262507575808e+00 -1 4 2
730 244 1 -8.1999999999999995e-01 -1.3998854393909918e+01 -1.1592940087392147e+01 -5.6379815079798377e+00 1 -4 0
2316 772 2 4.0999999999999998e-01 -8.6505818929512799e+00 -1.2932205285875515e+01 -2.8686487634622679e+00 1 0 7
2132 711 2 4.0999999999999998e-01 -1.0921171975143995e+01 -9.6615543028719415e+00 -6.6987033796441775e+00 1 4 -2
2315 772 2 4.0999999999999998e-01 -8.1400010976744781e+00 -1.4401345127359093e+01 -2.3711328244500685e+00 1 0 7
790 264 1 -8.1999999999999995e-01 -7.3492392549846022e+00 -1.0097001461313699e+01 -6.0216411164962658e-01 2 -1 3
2314 772 1 -8.1999999999999995e-01 -8.9306483274923760e+00 -1.3793530634787480e+01 -2.4447778769175272e+00 1 0 7
2131 711 1 -8.1999999999999995e-01 -1.1365870586519026e+01 -8.8263572007540887e+00 -7.0222370578394901e+00 1 4 -2
300 100 2 4.0999999999999998e-01 -1.0424091739616509e+01 -1.3165483699385486e+01 -5.9945940001011362e+00 3 0 0
152 51 2 4.0999999999999998e-01 -6.8212702132545040e+00 -1.1887746688319600e+01 -4.8734173261025049e+00 -4 -4 3
791 264 2 4.0999999999999998e-01 -8.1440354502816064e+00 -9.4946041212021655e+00 -6.7565924739616534e-01 2 -1 3
298 100 1 -8.1999999999999995e-01 -1.0000482359782350e+01 -1.3957143295295030e+01 -5.5543494725907419e+00 3 0 0
491 164 2 4.0999999999999998e-01 -6.3836350016692176e+00 -1.1875714759458232e+01 -2.5409644462054626e+00 -2 1 0
492 164 2 4.0999999999999998e-01 -7.4211387988579309e+00 -1.0620708895693719e+01 -2.6639801077270544e+00 -2 1 0
1443 481 2 4.0999999999999998e-01 -5.6770262250918755e+00 -9.5564610926612481e+00 -1.2694145661991207e+00 1 1 2
153 51 2 4.0999999999999998e-01 -6.1649734401560536e+00 -1.0850806556584381e+01 -5.9507364220648746e+00 -4 -4 3
1651 551 1 -8.1999999999999995e-01 -6.1725243339218778e+00 -1.2693032681166823e+01 -6.8684412392902239e-01 2 6 2
1653 551 2 4.0999999999999998e-01 -6.9291040222042071e+00 -1.2335641876253888e+01 -1.3926394082442073e-01 2 6 2
1652 551 2 4.0999999999999998e-01 -5.4136928037900223e+00 -1.2941575558207946e+01 -8.4858870929194197e-02 2 6 2
2224 742 1 -8.1999999999999995e-01 -1.0763757056407799e+01 -1.3759117993650397e+01 -5.7883712568431811e-01 2 4 0
2519 840 2 4.0999999999999998e-01 -1.4515481677302219e+01 -1.3277451830561832e+01 -1.5892760937407946e+00 2 5 2
1641 547 2 4.0999999999999998e-01 -5.9239401141294632e+00 -8.7901492104006529e+00 -4.5886871856360791e+00 -1 -2 -2
2225 742 2 4.0999999999999998e-01 -9.9902348031410479e+00 -1.3940786778187462e+01 -1.1859984481809231e+00 2 4 0
299 100 2 4.0999999999999998e-01 -1.0536205349018900e+01 -1.4218283125865769e+01 -4.7513600835960403e+00 3 0 0
151 51 1 -8.1999999999999995e-01 -6.6037487219230311e+00 -1.1742367978076281e+01 -5.8385776972925196e+00 -4 -4 3
792 264 2 4.0999999999999998e-01 -7.5735942862174666e+00 -1.0874666293019599e+01 -1.4893029882946607e-02 2 -1 3
2463 821 2 4.0999999999999998e-01 -1.2373685517932660e+01 -1.3718011976688782e+01 -3.8527132032295004e+00 2 2 1
732 244 2 4.0999999999999998e-01 -1.3299354898503777e+01 -1.1912609625317264e+01 -4.9988438735401957e+00 1 -4 0
336 112 2 4.0999999999999998e-01 -5.5029268247628202e+00 -1.4902518179845117e+01 -1.2602646583118329e+00 1 0 2
2462 821 2 4.0999999999999998e-01 -1.2726531046182149e+01 -1.2344748607825403e+01 -3.0426302111747976e+00 2 2 1
2461 821 1 -8.1999999999999995e-01 -1.2131370835183681e+01 -1.2755172196635527e+01 -3.7335150802256365e+00 2 2 1
1040 347 2 4.0999999999999998e-01 -1.2148384559502325e+01 -1.4688053012792254e+01 -8.4430674168471498e-01 -2 0 5
1639 547 1 -8.1999999999999995e-01 -5.6343267819110157e+00 -8.1340038760456874e+00 -3.8918496785230730e+00 -1 -2 -2
2226 742 2 4.0999999999999998e-01 -1.0617291903933513e+01 -1.2892026872507493e+01 -1.0272156691363499e-01 2 4 0
1890 630 2 4.0999999999999998e-01 -1.3567360057206413e+01 -1.0694543444957834e+01 -1.3564352312410417e+00 -2 3 1
348 116 2 4.0999999999999998e-01 -1.4783748329400309e+01 -7.5416472222201332e+00 -4.6275418143070333e+00 -2 3 1
2267 756 2 4.0999999999999998e-01 -7.4878140986074699e+00 -1.2461783440315850e+01 -7.1986274208735779e+00 1 2 1
1532 511 2 4.0999999999999998e-01 -1.3427639567397371e+01 -8.0979768524192259e+00 -8.6707844819998670e-01 5 3 -1
1888 630 1 -8.1999999999999995e-01 -1.3495859647512354e+01 -9.9156917144756704e+00 -7.3332787880601380e-01 -2 3 1
190 64 1 -8.1999999999999995e-01 -6.0949499901134203e+00 -8.8691266354259071e+00 -6.4786238957235085e+00 -2 -1 7
2268 756 2 4.0999999999999998e-01 -8.8195460909029890e+00 -1.3362472507084663e+01 -7.4846970272956606e+00 1 2 1
191 64 2 4.0999999999999998e-01 -6.5011122143140714e+00 -8.0186833235434278e+00 -6.8129343614000071e+00 -2 -1 7
731 244 2 4.0999999999999998e-01 -1.4294087593405733e+01 -1.0673938801011214e+01 -5.3767171040732755e+00 1 -4 0
983 328 2 4.0999999999999998e-01 -1.2713017504142774e+01 -7.8145820555363663e+00 -6.2506147014784581e+00 4 -2 3
1197 399 2 4.0999999999999998e-01 -5.4345499469813490e+00 -1.2857229511388105e+01 -6.9833924328065056e+00 4 3 4
2259 753 2 4.0999999999999998e-01 -5.8650001425821259e+00 -1.4969445833829710e+01 -6.9070880201656308e+00 -2 0 1
67 23 1 -8.1999999999999995e-01 -1.0482511050185700e+01 -2.4512378893965625e+00 -4.4259000419668428e+00 0 4 -2
1308 436 2 4.0999999999999998e-01 -7.4435129177044521e+00 -7.0857450604071088e+00 -3.8898689187896753e+00 1 0 0
2118 706 2 4.0999999999999998e-01 -9.2836254577037760e+00 -7.4721536550909260e+00 -9.4663072164539841e-02 1 -1 2
609 203 2 4.0999999999999998e-01 -1.3269400762625594e+01 -6.9114687293461863e-01 -6.2276960216196873e+00 1 -6 -5
2336 779 2 4.0999999999999998e-01 -1.0765417111703979e+01 -5.3814606578693187e+00 -1.2863344638375072e+00 0 5 1
961 321 1 -8.1999999999999995e-01 -1.4326804964609597e+01 -3.3103712034376880e+00 -5.4992713917379152e+00 5 -5 6
238 80 1 -8.1999999999999995e-01 -6.8767640000922867e+00 -6.2132045484193199e+00 -7.4836916694816971e+00 11 -2 4
1546 516 1 -8.1999999999999995e-01 -1.0427221256700349e+01 -4.3879169355415986e+00 -6.7929384254944676e+00 4 -1 1
1548 516 2 4.0999999999999998e-01 -1.0393298938173920e+01 -4.8859606921169139e+00 -5.9264588941457639e+00 4 -1 1
1533 511 2 4.0999999999999998e-01 -1.4214094353975966e+01 -6.8996223326577297e+00 -1.6493968282228995e+00 5 3 -1
1467 489 2 4.0999999999999998e-01 -1.2945210921597571e+01 -5.2245192155158193e+00 -7.0316190757732073e+00 2 4 -2
69 23 2 4.0999999999999998e-01 -1.0804628561867007e+01 -2.0757800707266227e+00 -5.2949551700181967e+00 0 4 -2
608 203 2 4.0999999999999998e-01 -1.2525221483266387e+01 -2.1323741595110324e+00 -6.4165023901019520e+00 1 -6 -5
607 203 1 -8.1999999999999995e-01 -1.2390519332389333e+01 -1.1420490576196265e+00 -6.3833872390195143e+00 1 -6 -5
199 67 1 -8.1999999999999995e-01 -8.3441286441896523e+00 -3.9318077243225762e+00 -8.4458644343003542e-02 -3 0 -6
1325 442 2 4.0999999999999998e-01 -1.2005291185969011e+01 -1.6572575911737175e+00 -1.4217148641924524e+00 2 -1 5
1219 407 1 -8.1999999999999995e-01 -9.0524504712461962e+00 -6.3138978250047622e+00 -1.1511802556550705e+00 3 -1 7
1220 407 2 4.0999999999999998e-01 -8.7665255104247990e+00 -6.2963105701085578e+00 -2.1092630895345881e+00 3 -1 7
1800 600 2 4.0999999999999998e-01 -1.1211584771909680e+01 -5.1594314756620676e+00 -3.5301806332671291e+00 1 2 4
1798 600 1 -8.1999999999999995e-01 -1.0754730042657400e+01 -5.5122133152582435e+00 -4.3467673245527898e+00 1 2 4
1131 377 2 4.0999999999999998e-01 -1.3615536287689848e+01 -3.6091005722316325e+00 -2.0468320982359192e+00 8 3 1
1799 600 2 4.0999999999999998e-01 -9.9921502741045192e+00 -6.0991210744328352e+00 -4.0747443896317375e+00 1 2 4
68 23 2 4.0999999999999998e-01 -1.0389071579511349e+01 -3.4436477687688356e+00 -4.5057548853144223e+00 0 4 -2
2421 807 2 4.0999999999999998e-01 -5.6713963966804712e+00 -5.5247387105723949e+00 -6.4405562447308373e+00 9 1 2
834 278 2 4.0999999999999998e-01 -8.1192278966410338e+00 -1.4834161702438777e+00 -6.6585659490690183e+00 5 -1 3
833 278 2 4.0999999999999998e-01 -6.9864919352706423e+00 -2.1418655177875472e+00 -5.6839171131978965e+00 5 -1 3
1130 377 2 4.0999999999999998e-01 -1.4173686352224411e+01 -4.2740768432227121e+00 -3.4298945616909986e+00 8 3 1
1324 442 1 -8.1999999999999995e-01 -1.2600372451252708e+01 -2.3693865614321403e+00 -1.0492424280325690e+00 2 -1 5
832 278 1 -8.1999999999999995e-01 -7.8259704179815728e+00 -1.5990918999311567e+00 -5.7095642665805908e+00 5 -1 3
31 11 1 -8.1999999999999995e-01 -1.0735794176334942e+01 -7.2103109471560600e-01 -2.3106903502273930e+00 4 0 5
1326 442 2 4.0999999999999998e-01 -1.2076739968826335e+01 -3.2130487818537450e+00 -9.3080187210658494e-01 2 -1 5
2286 762 2 4.0999999999999998e-01 -5.2901183602278454e+00 -3.5909265035187659e+00 -5.2801903477945480e+00 -2 -1 4
33 11 2 4.0999999999999998e-01 -1.0626201680770695e+01 -1.4437613922146184e+00 -2.9930652587060909e+00 4 0 5
200 67 2 4.0999999999999998e-01 -7.8866775892214607e+00 -3.3606028268175017e+00 -7.6596329157156973e-01 -3 0 -6
1306 436 1 -8.1999999999999995e-01 -8.1224787586094820e+00 -6.3613349159016686e+00 -3.7706195013009332e+00 1 0 0
1215 405 2 4.0999999999999998e-01 -7.0108569211421958e+00 -1.7865171906479276e+00 -2.6912388263689202e+00 -2 4 -5
1307 436 2 4.0999999999999998e-01 -7.8108895316688045e+00 -5.5326457552769810e+00 -4.2355619505716611e+00 1 0 0
1880 627 2 4.0999999999999998e-01 -6.9050256674822492e+00 -1.8103073439770689e-01 -4.4543329913035095e+00 10 2 1
2284 762 1 -8.1999999999999995e-01 -5.3449957348055452e+00 -2.6069416468026567e+00 -5.4497407716343975e+00 -2 -1 4
963 321 2 4.0999999999999998e-01 -1.4246699995325649e+01 -3.8832017685347537e+00 -6.3150124194562061e+00 5 -5 6
1214 405 2 4.0999999999999998e-01 -7.8628466862622437e+00 -3.0721286888795962e+00 -3.2278049524225541e+00 -2 4 -5
1531 511 1 -8.1999999999999995e-01 -1.3512494344297597e+01 -7.1066726643979781e+00 -9.6758110903266470e-01 5 3 -1
984 328 2 4.0999999999999998e-01 -1.2272782350088622e+01 -6.8733584237868115e+00 -4.9909013201246708e+00 4 -2 3
1129 377 1 -8.1999999999999995e-01 -1.4393740623944897e+01 -4.0669590254207932e+00 -2.4766561775760678e+00 8 3 1
2337 779 2 4.0999999999999998e-01 -1.2365393479611560e+01 -5.7080526412419594e+00 -1.2861471478795501e+00 0 5 1
2335 779 1 -8.1999999999999995e-01 -1.1656912882492819e+01 -5.0966624325060277e+00 -1.6386274604818905e+00 0 5 1
982 328 1 -8.1999999999999995e-01 -1.3036382808835205e+01 -7.3504037340377790e+00 -5.4260187566799072e+00 4 -2 3
32 11 2 4.0999999999999998e-01 -9.9231044443274072e+00 -1.3835009737362824e-01 -2.3088559527051036e+00 4 0 5
1221 407 2 4.0999999999999998e-01 -8.8203960458592370e+00 -5.4429598280385605e+00 -7.1804878285542983e-01 3 -1 7
1213 405 1 -8.1999999999999995e-01 -7.3876026566113593e+00 -2.6783800211089144e+00 -2.4409821159261664e+00 -2 4 -5
41 14 2 4.0999999999999998e-01 -8.8448706806369621e+00 -6.6658563519368386e-03 -4.8019010431054614e+00 0 5 0
2419 807 1 -8.1999999999999995e-01 -5.0266242592410748e+00 -5.3481660895117678e+00 -5.6968653738797901e+00 9 1 2
1640 547 2 4.0999999999999998e-01 -5.1240060180501423e+00 -7.3911426015602837e+00 -4.3251105125157157e+00 -1 -2 -2
661 221 1 -8.1999999999999995e-01 -9.8486841378756722e+00 -8.7018497523574982e+00 6.9456424698865238e+00 4 8 -3
1405 469 1 -8.1999999999999995e-01 -1.1026974850858050e+01 -1.1307620328011119e+01 7.1521824875953950e+00 0 -4 -3
2331 777 2 4.0999999999999998e-01 -1.1221230813898501e+01 -1.1482211057934563e+01 4.2241519475004896e+00 1 -3 -1
663 221 2 4.0999999999999998e-01 -9.3650186597445781e+00 -8.8784576645212923e+00 6.0884012823399996e+00 4 8 -3
2330 777 2 4.0999999999999998e-01 -1.1964295266592543e+01 -1.0121398982657350e+01 3.7116751585197800e+00 1 -3 -1
1889 630 2 4.0999999999999998e-01 -1.3769522765804076e+01 -1.0198172064855878e+01 1.8607325607168868e-01 -2 3 1
856 286 1 -8.1999999999999995e-01 -1.3130275552260615e+01 -9.1560645593417647e+00 5.5288232833075082e+00 -5 4 -1
1057 353 1 -8.1999999999999995e-01 -9.4154917669422034e+00 -8.7268913204230110e+00 4.0904961049386426e+00 2 1 2
1224 408 2 4.0999999999999998e-01 -1.1029612939179065e+01 -1.2357243063158359e+01 5.9944712935877273e+00 7 3 3
1059 353 2 4.0999999999999998e-01 -8.4508971053594486e+00 -8.6179896676703436e+00 3.8503239378076248e+00 2 1 2
1058 353 2 4.0999999999999998e-01 -9.7816768646501444e+00 -9.5403972252214011e+00 3.6387199338387806e+00 2 1 2
2329 777 1 -8.1999999999999995e-01 -1.1363149659341735e+01 -1.0874056647055705e+01 3.4431318736338294e+00 1 -3 -1
1406 469 2 4.0999999999999998e-01 -1.0694680715880398e+01 -1.0368725030559983e+01 7.0625089799015139e+00 0 -4 -3
1223 408 2 4.0999999999999998e-01 -1.2019247047807969e+01 -1.3531296556767042e+01 5.4387650471363447e+00 7 3 3
382 128 1 -8.1999999999999995e-01 -8.1803226892748118e+00 -1.2365864261214700e+01 1.1805756162399756e+00 3 -2 5
384 128 2 4.0999999999999998e-01 -8.9816805998053866e+00 -1.2071686728725449e+01 6.5973960263163889e-01 3 -2 5
858 286 2 4.0999999999999998e-01 -1.3082104987697299e+01 -8.1733807228016992e+00 5.3499457588944441e+00 -5 4 -1
2436 812 2 4.0999999999999998e-01 -1.4684505044499113e+01 -1.3850736086126199e+01 5.8582511193769786e+00 6 0 2
857 286 2 4.0999999999999998e-01 -1.3074884868926308e+01 -9.3186380472007784e+00 6.5139561832534500e+00 -5 4 -1
867 289 2 4.0999999999999998e-01 -1.0974924853141468e+01 -1.1726343870751720e+01 1.7767516578763622e+00 -4 6 -3
2166 722 2 4.0999999999999998e-01 -7.9032068787550651e+00 -8.2733813879900229e+00 1.7005671866993293e+00 3 -1 -1
1268 423 2 4.0999999999999998e-01 -7.2080048562785093e+00 -1.1536716357665108e+01 4.1735648487950616e+00 0 3 5
1267 423 1 -8.1999999999999995e-01 -6.2837296915829484e+00 -1.1156871445427422e+01 4.1359034033501683e+00 0 3 5
1269 423 2 4.0999999999999998e-01 -5.9219197458942787e+00 -1.1067768702069879e+01 5.0638793553399690e+00 0 3 5
2164 722 1 -8.1999999999999995e-01 -7.2896965711167523e+00 -8.4640397554473150e+00 2.4668827733781757e+00 3 -1 -1
2165 722 2 4.0999999999999998e-01 -6.6009643920394847e+00 -9.1317149248004892e+00 2.1843178724729508e+00 3 -1 -1
715 239 1 -8.1999999999999995e-01 -5.9606586156596304e+00 -1.1241713649181687e+01 6.9683018188799455e+00 4 6 1
2515 839 1 -8.1999999999999995e-01 -8.3624325325340756e+00 -1.2745909164192128e+01 4.5500924456204981e+00 -1 1 4
648 216 2 4.0999999999999998e-01 -5.2782192951513238e+00 -7.8989845910671050e+00 3.4390933886124007e+00 2 3 -1
2228 743 2 4.0999999999999998e-01 -1.3675574890126066e+01 -1.3863964316195935e+01 3.8729193372874544e+00 -1 -4 1
2516 839 2 4.0999999999999998e-01 -7.8413426651248157e+00 -1.3510820690133846e+01 4.9287226341257142e+00 -1 1 4
865 289 1 -8.1999999999999995e-01 -1.0828428134253418e+01 -1.1389733440593663e+01 8.4658110897379757e-01 -4 6 -3
383 128 2 4.0999999999999998e-01 -8.3050176374330924e+00 -1.2131582291298674e+01 2.1447064156996181e+00 3 -2 5
2020 674 1 -8.1999999999999995e-01 -1.3768353316779899e+01 -1.0772777954541244e+01 1.9175309766156676e+00 8 1 3
1222 408 1 -8.1999999999999995e-01 -1.1213832682100263e+01 -1.2976213739857261e+01 5.2309770515590497e+00 7 3 3
2022 674 2 4.0999999999999998e-01 -1.4429725171553365e+01 -1.0489818340611206e+01 2.6121576586660762e+00 8 1 3
624 208 2 4.0999999999999998e-01 -8.6362697671338147e+00 -1.4351023310017547e+01 1.3354889609441276e+00 0 1 2
717 239 2 4.0999999999999998e-01 -5.0930807990207345e+00 -1.1737081787523278e+01 7.0119394601854648e+00 4 6 1
866 289 2 4.0999999999999998e-01 -1.0986598152195933e+01 -1.0402672597693011e+01 8.2053785861597817e-01 -4 6 -3
2434 812 1 -8.1999999999999995e-01 -1.3959870569830423e+01 -1.4523925470098913e+01 5.7109214819468708e+00 6 0 2
2517 839 2 4.0999999999999998e-01 -9.2982196331520690e+00 -1.2773692970940866e+01 4.9015403225490264e+00 -1 1 4
2117 706 2 4.0999999999999998e-01 -1.0298063910369450e+01 -8.1459693327273257e+00 9.9321276710889173e-01 1 -1 2
1167 389 2 4.0999999999999998e-01 -1.2390447654016462e+01 -9.6797784149157522e+00 1.3800191038035923e+00 1 2 0
2021 674 2 4.0999999999999998e-01 -1.3494718218297068e+01 -1.1720068741835755e+01 2.0841115432850206e+00 8 1 3
1165 389 1 -8.1999999999999995e-01 -1.1956663740752425e+01 -8.7792435891502620e+00 1.3508017841235986e+00 1 2 0