LAMMPS data file via write_data, version 15 May 2015, timestep = 1009000

2593 atoms
6 atom types
1728 bonds
4 bond types
864 angles
3 angle types
0 dihedrals
3 dihedral types
0 impropers
1 improper types

-1.5029252779793243e+01 1.5029252779793243e+01 xlo xhi
-1.5029252779793243e+01 1.5029252779793243e+01 ylo yhi
-1.5029252779793243e+01 1.5029252779793243e+01 zlo zhi

Masses

1 15.9994
2 1.00794
3 12.0107
4 1.00794
5 12.0107
6 12.0107

Bond Coeffs # harmonic

1 1000 1
2 469 1.4
3 367 1.08
4 469 0.7

Angle Coeffs # harmonic

1 100 109.47
2 35 120
3 63 120

Dihedral Coeffs # opls

1 0 7.25 0 0
2 0 7.25 0 0
3 0 7.25 0 0

Improper Coeffs # cvff

1 2.5 -1 2

Atoms # full

228 76 2 4.0999999999999998e-01 -1.1685289921478669e+01 -6.9755512461418050e+00 -1.1726837681142976e+01 0 1 1
226 76 1 -8.1999999999999995e-01 -1.2625416761756570e+01 -7.2477417325571007e+00 -1.1932125376554602e+01 0 1 1
227 76 2 4.0999999999999998e-01 -1.2652394609657081e+01 -8.2267664322987386e+00 -1.2134244224783050e+01 0 1 1
54 18 2 4.0999999999999998e-01 -1.2962172009600085e+01 -1.2665639077731496e+01 -1.1726187781419025e+01 1 -1 1
1537 513 1 -8.1999999999999995e-01 -9.9942184794190574e+00 -9.1361780602906304e+00 -1.2778217808870760e+01 1 1 -1
1539 513 2 4.0999999999999998e-01 -9.5801962272817569e+00 -9.3870210484291121e+00 -1.1903156374199906e+01 1 1 -1
769 257 1 -8.1999999999999995e-01 -1.1127903731516913e+01 -1.0495944749962053e+01 -9.8727418647165202e+00 2 -1 -2
771 257 2 4.0999999999999998e-01 -1.1482661837944757e+01 -1.1374423083962617e+01 -1.0192885088739740e+01 2 -1 -2
825 275 2 4.0999999999999998e-01 -8.4941654962908117e+00 -9.0528268689361013e+00 -9.5080496163624737e+00 0 1 -2
770 257 2 4.0999999999999998e-01 -1.0147476012156918e+01 -1.0443230559120577e+01 -1.0062615162632863e+01 2 -1 -2
1949 650 2 4.0999999999999998e-01 -1.4255878530931389e+01 -6.5197043101294270e+00 -8.2391738149455662e+00 -1 1 0
2082 694 2 4.0999999999999998e-01 -6.1741908503590448e+00 -7.4451223506289779e+00 -1.4651263241098883e+01 0 0 2
53 18 2 4.0999999999999998e-01 -1.1443487578848691e+01 -1.2868190534074511e+01 -1.2291326166503289e+01 1 -1 1
823 275 1 -8.1999999999999995e-01 -8.5877195153383443e+00 -9.5873584699606162e+00 -1.0348045302937328e+01 0 1 -2
824 275 2 4.0999999999999998e-01 -7.7002260583728317e+00 -9.9753442717420064e+00 -1.0596825383761974e+01 0 1 -2
52 18 1 -8.1999999999999995e-01 -1.1997642421825674e+01 -1.2452675674163313e+01 -1.1569987852657636e+01 1 -1 1
554 185 2 4.0999999999999998e-01 -5.3585703015896353e+00 -1.0888424071970586e+01 -9.9235217160427709e+00 1 2 0
553 185 1 -8.1999999999999995e-01 -5.6948008317234606e+00 -1.0352878051471738e+01 -1.0698253099536174e+01 1 2 0
1493 498 2 4.0999999999999998e-01 -1.0922061341506968e+01 -9.4257055174751692e+00 -8.3913451235747694e+00 1 0 2
1214 405 2 4.0999999999999998e-01 -8.0913356274358268e+00 -3.1132723034780696e-01 -1.1227297733884559e+01 0 0 0
1792 598 1 -8.1999999999999995e-01 -8.9327487624486306e+00 -3.8489008336346711e+00 -7.8016086022854605e+00 1 1 1
2119 707 1 -8.1999999999999995e-01 -1.2536000812243579e+01 -1.0059076455307220e+01 -1.2861291727629570e+01 -1 2 1
189 63 2 4.0999999999999998e-01 -1.2769103745150606e+01 -7.9885441380166045e+00 -9.9834491863918835e+00 -1 0 0
1382 461 2 4.0999999999999998e-01 -7.8223730300824430e+00 -9.9726122539076947e+00 -1.4807767337668277e+01 -1 -1 0
2059 687 1 -8.1999999999999995e-01 -7.7245733341975722e+00 -2.1693078133700148e+00 -1.4805195938828691e+01 0 2 0
2199 733 2 4.0999999999999998e-01 -1.2317717061851631e+01 -3.5388050921912999e+00 -1.1512180821277877e+01 1 0 2
2080 694 1 -8.1999999999999995e-01 -5.1820456029328739e+00 -7.4507374224173164e+00 -1.4526021623396710e+01 0 0 2
1538 513 2 4.0999999999999998e-01 -1.0931460590166395e+01 -9.4829984136597698e+00 -1.2815123389500494e+01 1 1 -1
1256 419 2 4.0999999999999998e-01 -8.5556630246701442e+00 -3.6680534654223056e+00 -9.9468352435166754e+00 0 0 0
732 244 2 4.0999999999999998e-01 -5.8905148539349650e+00 -1.4882802390719636e+01 -9.0911610185890623e+00 -1 0 0
555 185 2 4.0999999999999998e-01 -5.5561584153135826e+00 -1.0867502238032774e+01 -1.1544426471499269e+01 1 2 0
230 77 2 4.0999999999999998e-01 -1.2543942076178505e+01 -3.9090917261169249e+00 -8.9922186929628545e+00 0 -1 -1
2121 707 2 4.0999999999999998e-01 -1.2534473556850912e+01 -1.0761805954376191e+01 -1.2149787614960417e+01 -1 2 1
33 11 2 4.0999999999999998e-01 -1.0348831038323535e+01 -8.1837160835222384e+00 -1.4264715977214538e+01 1 1 1
1901 634 2 4.0999999999999998e-01 -1.1706727281818390e+01 -1.1170394634696958e+01 -1.4391249768966558e+01 0 1 0
2120 707 2 4.0999999999999998e-01 -1.3403895308008924e+01 -1.0088741734637457e+01 -1.3357223463364390e+01 -1 2 1
187 63 1 -8.1999999999999995e-01 -1.3184161973564210e+01 -8.0337105120307299e+00 -9.0747380887363249e+00 -1 0 0
2169 723 2 4.0999999999999998e-01 -1.3853785037094914e+01 -9.9240263431417652e-01 -1.2694527095649271e+01 0 0 1
220 74 1 -8.1999999999999995e-01 -1.0071049468414532e+01 -6.5286205841671858e+00 -1.0880346121480127e+01 0 0 -1
1881 627 2 4.0999999999999998e-01 -8.3153761802458455e+00 -1.2434343745237671e+01 -8.0943845360946227e+00 0 1 -1
1859 620 2 4.0999999999999998e-01 -9.9872583325834405e+00 -1.2542738649965202e-01 -1.0575170157942480e+01 -1 0 2
710 237 2 4.0999999999999998e-01 -5.0383491006983352e+00 -9.8756481486094927e-01 -1.2789149718591183e+01 0 2 1
2111 704 2 4.0999999999999998e-01 -1.4604477675114012e+01 -4.6292894481184454e+00 -1.4595928614639481e+01 1 2 -2
221 74 2 4.0999999999999998e-01 -9.5091724038349597e+00 -6.5607154019344822e+00 -1.0053706390235028e+01 0 0 -1
2374 792 1 -8.1999999999999995e-01 -7.8371813540982451e+00 -1.4517306105927396e+01 -8.9529034536678225e+00 1 3 1
1083 361 2 4.0999999999999998e-01 -1.3483358350380669e+01 -1.3897803824547982e+01 -1.4026480046922813e+01 1 1 2
433 145 1 -8.1999999999999995e-01 -8.3697854194757078e+00 -5.3696538969852785e+00 -1.2600338214213808e+01 0 0 0
1114 372 1 -8.1999999999999995e-01 -9.4253534881745686e+00 -6.8507700634990378e+00 -7.8979983650835566e+00 0 -1 2
2373 791 2 4.0999999999999998e-01 -1.0691657204290209e+01 -1.2725419404904166e+00 -1.4337361536671439e+01 0 0 2
1081 361 1 -8.1999999999999995e-01 -1.4133378703603897e+01 -1.3382759318332141e+01 -1.3467667035029077e+01 1 1 2
434 145 2 4.0999999999999998e-01 -7.6828311273094396e+00 -5.9714543431197580e+00 -1.3007768160055159e+01 0 0 0
1858 620 1 -8.1999999999999995e-01 -1.0630960345490331e+01 -7.9060745640780361e-01 -1.0196683254042686e+01 -1 0 2
414 138 2 4.0999999999999998e-01 -1.0539312312760082e+01 -4.2261487892787279e+00 -1.4419712563909782e+01 -1 3 1
188 63 2 4.0999999999999998e-01 -1.2672123049384824e+01 -8.6774999430929594e+00 -8.5060374195821460e+00 -1 0 0
2197 733 1 -8.1999999999999995e-01 -1.1454354287051791e+01 -3.0350080245297146e+00 -1.1541547697146175e+01 1 0 2
231 77 2 4.0999999999999998e-01 -1.1382513189230918e+01 -2.7902245243070016e+00 -9.2491818878301473e+00 0 -1 -1
1736 579 2 4.0999999999999998e-01 -1.4411483070694532e+01 -4.3510739939118519e+00 -1.1514427058805193e+01 0 0 1
628 210 1 -8.1999999999999995e-01 -8.0259396484830496e+00 -1.6562484044211825e+00 -1.2216754684445347e+01 0 1 1
670 224 1 -8.1999999999999995e-01 -5.7131932732100914e+00 -4.2348769063993625e+00 -7.8084651287468212e+00 0 2 0
1737 579 2 4.0999999999999998e-01 -1.3339563675046591e+01 -5.5800576299647222e+00 -1.1428410150453356e+01 0 0 1
1793 598 2 4.0999999999999998e-01 -9.0309345827618941e+00 -4.8435583791728316e+00 -7.7686682865790093e+00 1 1 1
2375 792 2 4.0999999999999998e-01 -8.1869772783036048e+00 -1.4901770299282598e+01 -8.0985619034029810e+00 1 3 1
229 77 1 -8.1999999999999995e-01 -1.1870557184355963e+01 -3.3152092259604728e+00 -8.5518488899451501e+00 0 -1 -1
1951 651 1 -8.1999999999999995e-01 -8.8202258200411254e+00 -1.1099148471713587e+00 -7.7903546560649763e+00 0 1 1
2168 723 2 4.0999999999999998e-01 -1.2532860494838850e+01 -1.9279027355260840e+00 -1.2478173678009234e+01 0 0 1
2198 733 2 4.0999999999999998e-01 -1.0875813589936929e+01 -3.4071237797863621e+00 -1.2267419427571093e+01 1 0 2
1255 419 1 -8.1999999999999995e-01 -7.6804477798579471e+00 -3.6741972854775806e+00 -1.0430601443863470e+01 0 0 0
1860 620 2 4.0999999999999998e-01 -1.0911843883840429e+01 -1.4281401947069163e+00 -1.0914127053108377e+01 -1 0 2
1953 651 2 4.0999999999999998e-01 -8.6666399690464111e+00 -2.0954601187511734e+00 -7.8623344064544458e+00 0 1 1
2409 803 2 4.0999999999999998e-01 -1.5008070133238608e+01 -1.2519243139088029e+01 -8.5409450933975251e+00 2 1 1
2060 687 2 4.0999999999999998e-01 -8.1832654979438360e+00 -3.0559345159017663e+00 -1.4864893233666701e+01 0 2 0
2167 723 1 -8.1999999999999995e-01 -1.2918892769502968e+01 -1.1689165017101271e+00 -1.3002566785058235e+01 0 0 1
629 210 2 4.0999999999999998e-01 -7.7676575958794283e+00 -1.6526857635562564e+00 -1.3182853482639166e+01 0 1 1
1900 634 1 -8.1999999999999995e-01 -1.1507304990810871e+01 -1.2043811979692769e+01 -1.4835594271573690e+01 0 1 0
1082 361 2 4.0999999999999998e-01 -1.4726115742593320e+01 -1.4019207356939514e+01 -1.2974041834358003e+01 1 1 2
1950 650 2 4.0999999999999998e-01 -1.4951947334457588e+01 -5.0636401860409528e+00 -7.9898216748425313e+00 -1 1 0
1735 579 1 -8.1999999999999995e-01 -1.3497113468654710e+01 -4.6171603234231178e+00 -1.1209147765960706e+01 0 0 1
1257 419 2 4.0999999999999998e-01 -6.9453352861872411e+00 -3.4447326948535668e+00 -9.7926164700383413e+00 0 0 0
222 74 2 4.0999999999999998e-01 -9.5320835805122783e+00 -6.1552184856686907e+00 -1.1635432748844927e+01 0 0 -1
413 138 2 4.0999999999999998e-01 -9.3370952989467817e+00 -4.2653966570135591e+00 -1.3315201483716658e+01 -1 3 1
412 138 1 -8.1999999999999995e-01 -1.0042098479804395e+01 -3.6935401357363684e+00 -1.3734748637247439e+01 -1 3 1
1569 523 2 4.0999999999999998e-01 -1.4715661077287455e+01 -3.4522738159378186e-01 -8.1563920822105267e+00 1 1 1
1952 651 2 4.0999999999999998e-01 -9.4059977038086551e+00 -8.0803784423709146e-01 -8.5425585777446056e+00 0 1 1
435 145 2 4.0999999999999998e-01 -7.9306023039421119e+00 -4.7632159037392920e+00 -1.1937450366430399e+01 0 0 0
630 210 2 4.0999999999999998e-01 -7.9433314486725086e+00 -2.5841330393988038e+00 -1.1853058139232894e+01 0 1 1
950 317 2 4.0999999999999998e-01 -1.2122646086193626e+01 -1.4969041324487307e+01 -1.4565390878458835e+01 0 0 0
2214 738 2 4.0999999999999998e-01 -1.3974494695324786e+01 -1.1980934897178702e+01 -1.4648320610964516e+01 1 1 2
2007 669 2 4.0999999999999998e-01 -1.4804379121132227e+01 -2.6736876957789200e+00 -7.8692127050259391e+00 1 0 1
2376 792 2 4.0999999999999998e-01 -8.4725281865424389e+00 -1.4725074711429695e+01 -9.6967017408476650e+00 1 3 1
1948 650 1 -8.1999999999999995e-01 -1.4677453958904930e+01 -5.9223137604291285e+00 -7.5569217754994229e+00 -1 1 0
671 224 2 4.0999999999999998e-01 -5.7176757987242510e+00 -3.2349932641861709e+00 -7.7916797799750537e+00 0 2 0
1116 372 2 4.0999999999999998e-01 -1.0073456359362932e+01 -7.5875102354755599e+00 -7.7050068115090582e+00 0 -1 2
489 163 2 4.0999999999999998e-01 -5.2189725604137891e+00 -8.8724592986801021e-01 -1.4942237757644040e+01 0 -2 1
264 88 2 4.0999999999999998e-01 -1.5019037239914066e+01 -1.4611180860306925e+01 -1.0228609109954999e+01 1 2 0
1794 598 2 4.0999999999999998e-01 -9.7976273796818418e+00 -3.4197696332806000e+00 -7.5410311696123236e+00 1 1 1
2212 738 1 -8.1999999999999995e-01 -1.4154809187521396e+01 -1.1050721965728282e+01 -1.4968101450284927e+01 1 1 2
706 236 1 -8.1999999999999995e-01 -9.8657658860021566e+00 -1.1488991302779974e+01 -4.3686503695839960e+00 -1 2 2
707 236 2 4.0999999999999998e-01 -9.5545335123155049e+00 -1.1282156999334106e+01 -5.2962403286734663e+00 -1 2 2
632 211 2 4.0999999999999998e-01 -5.9166727464844087e+00 -1.3627754207235492e+01 -5.7235638664705117e+00 -1 2 3
708 236 2 4.0999999999999998e-01 -9.2112054748229788e+00 -1.2102212002084270e+01 -3.9264058325194906e+00 -1 2 2
1678 560 1 -8.1999999999999995e-01 -1.2196208538066051e+01 -1.0050754962882422e+01 -4.2581780950932444e+00 2 0 0
100 34 1 -8.1999999999999995e-01 -1.3238785783130879e+01 -3.5054764992120582e+00 -3.7390177491771741e+00 0 2 0
1954 652 1 -8.1999999999999995e-01 -5.3979746362311118e+00 -7.8568943485505427e+00 -3.7200620005868998e+00 2 1 0
409 137 1 -8.1999999999999995e-01 -1.1966071191428069e+01 -1.4727853715980501e+01 -6.4686076566755890e+00 2 4 2
1366 456 1 -8.1999999999999995e-01 -8.2031456718538358e+00 -9.2788666847647647e+00 -1.2477098715935053e+00 2 1 3
1367 456 2 4.0999999999999998e-01 -8.2052375589024216e+00 -8.3427185679498663e+00 -1.5994081381103538e+00 2 1 3
410 137 2 4.0999999999999998e-01 -1.2397439800225930e+01 -1.3840761197358477e+01 -6.6330982031499328e+00 2 4 2
981 327 2 4.0999999999999998e-01 -1.3679972054580061e+01 -1.3533581931246607e+01 -6.2347699595512651e-01 1 1 0
2205 735 2 4.0999999999999998e-01 -1.4063781094694987e+01 -2.3717570745101746e+00 -9.8427326429437301e-02 2 0 0
1005 335 2 4.0999999999999998e-01 -7.6145550012111993e+00 -1.3501397500272743e+01 -2.8805236172503434e+00 1 1 -1
2105 702 2 4.0999999999999998e-01 -1.2501372101789498e+01 -4.6417293682707239e-01 -6.8065928233375086e+00 1 -1 1
1679 560 2 4.0999999999999998e-01 -1.1836789190326392e+01 -9.1176304121301133e+00 -4.2710409932720275e+00 2 0 0
1680 560 2 4.0999999999999998e-01 -1.1462153783058785e+01 -1.0687465674635185e+01 -4.0218895731968534e+00 2 0 0
1586 529 2 4.0999999999999998e-01 -6.1812698121527667e+00 -1.2780150386517684e+01 -1.1027874494172263e+00 1 1 0
810 270 2 4.0999999999999998e-01 -9.9345277367776994e+00 -7.0791177143792794e-02 -7.0420653795426311e+00 2 0 3
193 65 1 -8.1999999999999995e-01 -1.2646878591425260e+01 -1.4713045713507015e+01 -3.8482204569980194e+00 0 3 1
631 211 1 -8.1999999999999995e-01 -5.4711158870029646e+00 -1.2918313603109553e+01 -6.2696795109276433e+00 -1 2 3
1585 529 1 -8.1999999999999995e-01 -6.2814051230235837e+00 -1.3604032052534826e+01 -5.4487969648523382e-01 1 1 0
408 136 2 4.0999999999999998e-01 -8.1755871959187871e+00 -2.2120036423169136e+00 -3.4260751496220170e+00 0 2 0
1879 627 1 -8.1999999999999995e-01 -8.1133925405548073e+00 -1.1964776277522247e+01 -7.2348624885982851e+00 0 1 -1
524 175 2 4.0999999999999998e-01 -1.3427863556562210e+01 -1.0260486345746044e+01 -2.6151071292533494e+00 0 1 1
1003 335 1 -8.1999999999999995e-01 -8.5375454359682159e+00 -1.3400153295644916e+01 -3.2518826315182654e+00 1 1 -1
1880 627 2 4.0999999999999998e-01 -7.1669159016354635e+00 -1.2148292660182637e+01 -6.9692069105168173e+00 0 1 -1
1494 498 2 4.0999999999999998e-01 -1.1405821906470273e+01 -1.0023582265011610e+01 -6.9507445610479923e+00 1 0 2
960 320 2 4.0999999999999998e-01 -9.1104841385012509e+00 -1.4033298476001200e+01 -5.7860408062600062e+00 1 0 1
1341 447 2 4.0999999999999998e-01 -7.1906902556211127e+00 -5.3330666139187812e+00 -3.6035495535183362e+00 -1 -2 1
577 193 1 -8.1999999999999995e-01 -5.9248411495175510e+00 -1.1959799169096275e+01 -2.8846392966509082e+00 1 0 0
81 27 2 4.0999999999999998e-01 -1.2033459260548272e+01 -8.0078042076327787e+00 -1.0701156926518784e+00 -2 -1 -1
1752 584 2 4.0999999999999998e-01 -6.8300853827747350e+00 -8.0265119095878035e-01 -3.6502230955579016e+00 0 2 -1
523 175 1 -8.1999999999999995e-01 -1.3924784860204491e+01 -1.0242094078176597e+01 -1.7474665982903463e+00 0 1 1
578 193 2 4.0999999999999998e-01 -6.3725602117349407e+00 -1.1172430660400364e+01 -3.3085116145957389e+00 1 0 0
411 137 2 4.0999999999999998e-01 -1.1028445611055329e+01 -1.4712090097713073e+01 -6.8159963996121000e+00 2 4 2
958 320 1 -8.1999999999999995e-01 -9.1054001589242262e+00 -1.4996736057768331e+01 -6.0540544697581087e+00 1 0 1
79 27 1 -8.1999999999999995e-01 -1.2326062742511937e+01 -8.5530827767814692e+00 -2.8454351520915111e-01 -2 -1 -1
154 52 1 -8.1999999999999995e-01 -1.2763450534739277e+01 -1.2010698207468916e+01 -6.1031519133215095e+00 -1 2 1
579 193 2 4.0999999999999998e-01 -5.2404582429109077e+00 -1.1640967295074592e+01 -2.2288683960789619e+00 1 0 0
80 27 2 4.0999999999999998e-01 -1.2676112490638662e+01 -9.4343179120653318e+00 -6.0228406442412741e-01 -2 -1 -1
2252 751 2 4.0999999999999998e-01 -6.7215706994293711e+00 -5.8158691072376421e+00 -7.4226283017465029e+00 2 2 2
1368 456 2 4.0999999999999998e-01 -7.3082863655704902e+00 -9.4839720810251436e+00 -8.5119025327434983e-01 2 1 3
2259 753 2 4.0999999999999998e-01 -1.0273275649928447e+01 -1.1870426593922048e+01 -2.1583423284202663e+00 2 0 1
979 327 1 -8.1999999999999995e-01 -1.4435516130449535e+01 -1.3352397113286671e+01 -1.2530755662022610e+00 1 1 0
156 52 2 4.0999999999999998e-01 -1.2752663547026032e+01 -1.1526414541827300e+01 -5.2282678522779857e+00 -1 2 1
980 327 2 4.0999999999999998e-01 -1.4186032880544131e+01 -1.3661458106074083e+01 -2.1708492852111956e+00 1 1 0
1004 335 2 4.0999999999999998e-01 -9.1018673348504180e+00 -1.4171352626566042e+01 -2.9571597556415234e+00 1 1 -1
2251 751 1 -8.1999999999999995e-01 -6.9312891861641610e+00 -6.5614283679089755e+00 -6.7899919897100993e+00 2 2 2
1955 652 2 4.0999999999999998e-01 -6.0544369926444510e+00 -7.1535194800258228e+00 -3.9928075412362976e+00 2 1 0
525 175 2 4.0999999999999998e-01 -1.4479364916682087e+01 -1.1070004048129725e+01 -1.6633525159283895e+00 0 1 1
1751 584 2 4.0999999999999998e-01 -5.2464468070328483e+00 -4.6254246344708960e-01 -3.4423144443541407e+00 0 2 -1
1492 498 1 -8.1999999999999995e-01 -1.0921188447382022e+01 -9.2746748951953712e+00 -7.4027814214294576e+00 1 0 2
2257 753 1 -8.1999999999999995e-01 -1.0095226899813991e+01 -1.1248310704605016e+01 -1.3958860064311107e+00 2 0 1
195 65 2 4.0999999999999998e-01 -1.2321617850344545e+01 -1.4742910784392317e+01 -4.7934096899720782e+00 0 3 1
2258 753 2 4.0999999999999998e-01 -9.5250456066017950e+00 -1.0489559508299486e+01 -1.7109400714117093e+00 2 0 1
1231 411 1 -8.1999999999999995e-01 -6.6201518250588247e+00 -9.2996754676182469e+00 -7.3258270380976720e+00 1 0 1
1750 584 1 -8.1999999999999995e-01 -6.1792017359965712e+00 -1.5644631291134736e-01 -3.2516770402045463e+00 0 2 -1
2106 702 2 4.0999999999999998e-01 -1.2509692947536880e+01 -2.0025165788271995e+00 -7.3545350651673704e+00 1 -1 1
1614 538 2 4.0999999999999998e-01 -1.2444039942263107e+01 -6.8443130480787087e+00 -2.7176612599254195e+00 1 2 -2
1694 565 2 4.0999999999999998e-01 -1.2420908122188930e+01 -7.9203106094137921e+00 -6.3883098706635639e+00 -1 3 0
1339 447 1 -8.1999999999999995e-01 -6.6218137335144611e+00 -4.9490820990049844e+00 -4.3308765383054713e+00 -1 -2 1
2253 751 2 4.0999999999999998e-01 -6.1135134333765908e+00 -6.7904746925518094e+00 -6.2619297289527598e+00 2 2 2
1612 538 1 -8.1999999999999995e-01 -1.1611220378206191e+01 -7.3979187792714471e+00 -2.7188741002690655e+00 1 2 -2
1613 538 2 4.0999999999999998e-01 -1.0961700246392770e+01 -7.0214810942124064e+00 -3.3795460895654656e+00 1 2 -2
508 170 1 -8.1999999999999995e-01 -1.0432803040670535e+01 -5.8358543500449258e+00 -4.7242096693658606e+00 -1 0 2
969 323 2 4.0999999999999998e-01 -6.9589466332643806e+00 -2.5331554362270499e+00 -1.1951283422313352e+00 1 -1 2
2032 678 1 -8.1999999999999995e-01 -8.1844998512236113e+00 -6.8030534406599976e+00 -2.3762912696311460e+00 1 1 1
407 136 2 4.0999999999999998e-01 -7.3479035710551965e+00 -3.2514845163605965e+00 -4.3754066730574799e+00 0 2 0
101 34 2 4.0999999999999998e-01 -1.3913296516825827e+01 -4.1702053383578246e+00 -4.0603275577720606e+00 0 2 0
1693 565 1 -8.1999999999999995e-01 -1.2419260559821648e+01 -6.9846276093519251e+00 -6.0353738494461737e+00 -1 3 0
126 42 2 4.0999999999999998e-01 -8.6109968076637298e+00 -8.6072693830545788e-01 -1.0624163248001501e+00 -2 -2 0
2203 735 1 -8.1999999999999995e-01 -1.4124570160424266e+01 -2.9847919233747167e+00 -8.8618497886875502e-01 2 0 0
2104 702 1 -8.1999999999999995e-01 -1.3082804058317153e+01 -1.2341779626444200e+00 -7.0694585344811633e+00 1 -1 1
2034 678 2 4.0999999999999998e-01 -8.3664821416903159e+00 -6.0498779085354251e+00 -1.7440900779189814e+00 1 1 1
29 10 2 4.0999999999999998e-01 -1.4915985348857502e+01 -1.8999564199596133e+00 -4.5002105121187057e+00 1 -1 1
1968 656 2 4.0999999999999998e-01 -9.8175834848918964e+00 -1.4977784351276471e+01 -4.7834933230993393e-01 0 0 1
2204 735 2 4.0999999999999998e-01 -1.3689775867904155e+01 -3.8574624879585855e+00 -6.6376828090931816e-01 2 0 0
1695 565 2 4.0999999999999998e-01 -1.3342170519962448e+01 -6.6041943088255284e+00 -6.0951813271058519e+00 -1 3 0
143 48 2 4.0999999999999998e-01 -1.1714209394371990e+01 -3.2374362316550567e+00 -4.2507642551810250e+00 0 0 1
102 34 2 4.0999999999999998e-01 -1.3415836164123000e+01 -3.2883929716431890e+00 -2.7790192189570710e+00 0 2 0
1163 388 2 4.0999999999999998e-01 -5.1225700348773628e+00 -9.8449587600641237e+00 -6.2822626943404671e+00 -1 1 0
967 323 1 -8.1999999999999995e-01 -6.7958362005967512e+00 -3.1109644868386983e+00 -3.9537784966281642e-01 1 -1 2
509 170 2 4.0999999999999998e-01 -1.1125729749979714e+01 -6.3210029608138534e+00 -5.2576444881617377e+00 -1 0 2
1042 348 1 -8.1999999999999995e-01 -1.3181469112375497e+01 -5.2259510518663905e+00 -1.4161654594679618e-01 1 -1 -2
1378 460 1 -8.1999999999999995e-01 -6.4537657087395015e+00 -1.5852574496756233e+00 -6.5904670605872777e+00 -1 2 -1
1340 447 2 4.0999999999999998e-01 -7.0170915981095430e+00 -5.1796473898312900e+00 -5.2200695544542981e+00 -1 -2 1
125 42 2 4.0999999999999998e-01 -9.6153270848873511e+00 -2.0134732845967651e+00 -1.6362695934411633e+00 -2 -2 0
510 170 2 4.0999999999999998e-01 -1.0538796264405107e+01 -4.8504705647648585e+00 -4.8578262647508517e+00 -1 0 2
124 42 1 -8.1999999999999995e-01 -8.6978065942963738e+00 -1.6217450383143621e+00 -1.7053663207625505e+00 -2 -2 0
142 48 1 -8.1999999999999995e-01 -1.0797712906303559e+01 -3.1668667467442138e+00 -4.6446212704161596e+00 0 0 1
30 10 2 4.0999999999999998e-01 -1.4547884443562157e+01 -1.1439628942217368e+00 -5.9001342323089503e+00 1 -1 1
2033 678 2 4.0999999999999998e-01 -8.9935924947042629e+00 -6.9674831054980455e+00 -2.9405617142790028e+00 1 1 1
1311 437 2 4.0999999999999998e-01 -1.1126093904877886e+01 -3.4415941641053251e+00 -2.5739297308603852e+00 2 -1 1
144 48 2 4.0999999999999998e-01 -1.0523525376260615e+01 -2.2058329388194284e+00 -4.6807378050701818e+00 0 0 1
1310 437 2 4.0999999999999998e-01 -1.1650301556244647e+01 -3.7781333469067242e+00 -1.0643739485052546e+00 2 -1 1
1380 460 2 4.0999999999999998e-01 -6.9342274930742729e+00 -1.8961641046297473e+00 -5.7703678622376255e+00 -1 2 -1
1379 460 2 4.0999999999999998e-01 -7.1165166525968102e+00 -1.2351456622247294e+00 -7.2524731712429347e+00 -1 2 -1
406 136 1 -8.1999999999999995e-01 -7.8464352474479293e+00 -2.3848266468848056e+00 -4.3544395444485193e+00 0 2 0
1309 437 1 -8.1999999999999995e-01 -1.1076462139050431e+01 -3.1698549992483400e+00 -1.6128034852402990e+00 2 -1 1
51 17 2 4.0999999999999998e-01 -1.1144359556236592e+01 -1.4985393405843274e+01 -2.8379354159185581e+00 2 0 0
1851 617 2 4.0999999999999998e-01 -1.4729325680556638e+01 -7.9953401221609957e+00 -9.1298536182851642e-01 0 1 1
1115 372 2 4.0999999999999998e-01 -8.7747577049343324e+00 -6.7727518960399991e+00 -7.1425465519407805e+00 0 -1 2
155 52 2 4.0999999999999998e-01 -1.3637712533919821e+01 -1.1851128826356605e+01 -6.5617069383376663e+00 -1 2 1
1970 657 2 4.0999999999999998e-01 -7.6964642656703832e+00 -4.4899652518168551e+00 -7.7701108963719179e-03 3 0 0
1233 411 2 4.0999999999999998e-01 -6.9440652306583033e+00 -8.3535944286499841e+00 -7.3347752684663989e+00 1 0 1
1232 411 2 4.0999999999999998e-01 -7.3928942579406041e+00 -9.9179364991472525e+00 -7.4696727804191161e+00 1 0 1
1566 522 2 4.0999999999999998e-01 -1.2283496091900671e+01 -7.4165981046876377e+00 2.6000636560836483e+00 0 0 1
526 176 1 -8.1999999999999995e-01 -1.0296771628062011e+01 -1.1634219149999321e+01 7.3879558236910725e+00 1 1 -1
499 167 1 -8.1999999999999995e-01 -5.2719091284257882e+00 -1.0699545462137571e+01 3.4443108178644408e+00 1 2 0
1596 532 2 4.0999999999999998e-01 -7.6362850460002800e+00 -1.2810414526325546e+01 3.7994543663125420e+00 -1 2 -1
1594 532 1 -8.1999999999999995e-01 -7.5897215652232548e+00 -1.2113562374140081e+01 3.0837043525276613e+00 -1 2 -1
1595 532 2 4.0999999999999998e-01 -8.3740542841776922e+00 -1.2211962143433286e+01 2.4711613619905535e+00 -1 2 -1
1337 446 2 4.0999999999999998e-01 -1.3687648112091452e+01 -9.2160368338916356e+00 5.1201263358521238e+00 0 2 -2
2238 746 2 4.0999999999999998e-01 -1.1163982922243166e+01 -9.0677875617647778e+00 5.8059257255764614e+00 -1 0 0
1564 522 1 -8.1999999999999995e-01 -1.3112505202604943e+01 -7.7691700464344855e+00 2.1658907994178378e+00 0 0 1
2236 746 1 -8.1999999999999995e-01 -1.0184545606617924e+01 -9.0037095235450870e+00 5.9974085928148391e+00 -1 0 0
1267 423 1 -8.1999999999999995e-01 -8.4511062725547337e+00 -1.4260587487843384e+01 4.6522157247586513e+00 0 1 1
1565 522 2 4.0999999999999998e-01 -1.2912138293829585e+01 -8.0191575832941524e+00 1.2185637722816516e+00 0 0 1
2237 746 2 4.0999999999999998e-01 -9.6677138289968347e+00 -9.2723857555582683e+00 5.1845326976306900e+00 -1 0 0
1023 341 2 4.0999999999999998e-01 -1.0573262853147437e+01 -3.1541281995465020e-01 2.4797419863009829e+00 -1 2 1
500 167 2 4.0999999999999998e-01 -6.1655904630833813e+00 -1.1137620098409904e+01 3.3468763632270111e+00 1 2 0
1854 618 2 4.0999999999999998e-01 -9.5975918477580127e+00 -1.1890311689416372e+01 2.8603401233617909e-01 1 -1 1
1336 446 1 -8.1999999999999995e-01 -1.2827067016873649e+01 -9.6694362670493774e+00 5.3522865286701951e+00 0 2 -2
1338 446 2 4.0999999999999998e-01 -1.2970067880307766e+01 -1.0658607079223462e+01 5.3863605304452520e+00 0 2 -2
1014 338 2 4.0999999999999998e-01 -1.2369772193479678e+01 -1.1997241048344069e+01 3.3212436090662578e+00 2 2 1
527 176 2 4.0999999999999998e-01 -1.0318957841282142e+01 -1.0793978957742212e+01 6.8461317037290961e+00 1 1 -1
1012 338 1 -8.1999999999999995e-01 -1.1696292742120031e+01 -1.1546812110826718e+01 2.7350623529098002e+00 2 2 1
1967 656 2 4.0999999999999998e-01 -9.5891576022488039e+00 -1.4045764493421348e+01 8.4300281651060338e-01 0 0 1
1013 338 2 4.0999999999999998e-01 -1.1881781045125926e+01 -1.0564500051734544e+01 2.7081131783392181e+00 2 2 1
384 128 2 4.0999999999999998e-01 -8.3471461828082276e+00 -1.0231749711931382e+01 3.5904785838701976e+00 0 0 0
383 128 2 4.0999999999999998e-01 -9.1763944544360569e+00 -9.1558238189726708e+00 2.6840891992079001e+00 0 0 0
2467 823 1 -8.1999999999999995e-01 -1.3382267745443560e+01 -1.3053246939034535e+01 4.4683609662962525e+00 -1 2 -1
1580 527 2 4.0999999999999998e-01 -1.0631777956438668e+01 -1.3398204113267090e+01 6.2662389781604588e+00 1 2 0
501 167 2 4.0999999999999998e-01 -5.3542265752696974e+00 -9.7246508943505994e+00 3.2372514194775341e+00 1 2 0
853 285 1 -8.1999999999999995e-01 -6.1090339779465381e+00 -7.0929876963444638e+00 9.0880918031647440e-02 -2 0 -2
382 128 1 -8.1999999999999995e-01 -8.9174448725354125e+00 -9.4106603622076221e+00 3.6157933582543720e+00 0 0 0
2469 823 2 4.0999999999999998e-01 -1.3594036022032402e+01 -1.3882876200050028e+01 3.9516999057334949e+00 -1 2 -1
1852 618 1 -8.1999999999999995e-01 -9.6490477836362416e+00 -1.2422056261981961e+01 1.1314151313905327e+00 1 -1 1
1853 618 2 4.0999999999999998e-01 -1.0350833170124579e+01 -1.2032592061294046e+01 1.7279753348473008e+00 1 -1 1
828 276 2 4.0999999999999998e-01 -1.2402890089555640e+01 -1.2606177583312453e+01 1.4107766781875455e+00 1 2 -2
1579 527 1 -8.1999999999999995e-01 -1.0993758301912692e+01 -1.3910704773016874e+01 5.4875333542042277e+00 1 2 0
826 276 1 -8.1999999999999995e-01 -1.2785871202961758e+01 -1.3461093362934950e+01 1.0607572050111891e+00 1 2 -2
2206 736 1 -8.1999999999999995e-01 -9.9803943240067206e+00 -9.1165461004769952e+00 1.0444492294728640e+00 1 1 0
1581 527 2 4.0999999999999998e-01 -1.1888094910682460e+01 -1.3542684698921422e+01 5.2329897572805990e+00 1 2 0
855 285 2 4.0999999999999998e-01 -5.7900412843140057e+00 -7.4444245452847406e+00 9.7111098668002072e-01 -2 0 -2
854 285 2 4.0999999999999998e-01 -6.8926771497152544e+00 -6.4892069978066491e+00 2.3724145456893631e-01 -2 0 -2
827 276 2 4.0999999999999998e-01 -1.2316686427267573e+01 -1.4235210576949690e+01 1.4858188079892365e+00 1 2 -2
954 318 2 4.0999999999999998e-01 -1.3197457477919794e+01 -8.8181256509014965e+00 6.9551395193920094e+00 2 1 0
1268 423 2 4.0999999999999998e-01 -8.1435826348318567e+00 -1.4930262910460044e+01 5.3282580845564951e+00 0 1 1
1145 382 2 4.0999999999999998e-01 -1.1507799839586724e+01 -5.6410113994853184e-01 6.5327487545114273e+00 2 -2 2
350 117 2 4.0999999999999998e-01 -1.0305248276224425e+01 -6.1592481074121945e+00 3.7373255894330768e+00 1 -2 0
338 113 2 4.0999999999999998e-01 -1.3984274423484438e+01 -2.6458617182112221e-01 8.4347084331074385e-01 0 3 2
2468 823 2 4.0999999999999998e-01 -1.4199641054793487e+01 -1.2480216747327072e+01 4.5284146216304393e+00 -1 2 -1
212 71 2 4.0999999999999998e-01 -1.4436628138818056e+01 -9.3068900037278546e+00 2.1414994361718662e+00 1 1 1
2052 684 2 4.0999999999999998e-01 -8.0860494375429699e+00 -1.3118956092730565e+01 6.2240121177457688e+00 0 0 0
2050 684 1 -8.1999999999999995e-01 -7.5423647917806500e+00 -1.2528263295692938e+01 6.8202991150917427e+00 0 0 0
1219 407 1 -8.1999999999999995e-01 -1.3656044804665544e+01 -5.5386838091062849e+00 5.3939670828686204e+00 0 0 0
539 180 2 4.0999999999999998e-01 -9.2113681951867381e+00 -6.6290496157041332e+00 5.3977954129622319e+00 -1 2 -1
1220 407 2 4.0999999999999998e-01 -1.4405209008886750e+01 -6.2001041888551285e+00 5.4306446156135522e+00 0 0 0
2208 736 2 4.0999999999999998e-01 -1.0939730830102976e+01 -9.0684681247378087e+00 7.6618460396792898e-01 1 1 0
649 217 1 -8.1999999999999995e-01 -9.2055237669774073e+00 -3.7518346203071893e+00 4.3370922713590723e+00 1 2 -1
1481 494 2 4.0999999999999998e-01 -1.0744902879555401e+01 -5.6581286938349873e+00 1.7962238543802300e+00 -1 0 2
2531 844 2 4.0999999999999998e-01 -7.1438677324614979e+00 -6.3459077290417731e+00 7.2868437198204248e+00 1 2 0
650 217 2 4.0999999999999998e-01 -8.4243509506711032e+00 -3.2761526843512261e+00 3.9326606364474301e+00 1 2 -1