2593
Atoms. Timestep: 1000000
O -7.01439 12.8387 -9.34377
H -7.24092 13.7285 -9.73977
H -6.74115 12.9584 -8.38933
O -11.3634 7.63756 14.356
H -11.7273 6.70611 14.3542
H -11.6787 8.12014 13.5389
O -14.1623 -4.55092 5.24835
H -14.102 -3.64226 4.83523
H 14.9113 -4.67745 5.64418
O -2.5215 -12.6275 14.2645
H -2.18087 -11.9941 14.9592
H -2.92238 -13.4276 14.7107
O -14.8771 5.41558 6.06872
H 14.7831 4.4778 6.19621
H -14.8383 5.62479 5.09164
O 9.21395 10.7826 -10.4278
H 9.01825 11.7492 -10.262
H 9.57256 10.367 -9.59191
O -11.6106 6.47766 10.9621
H -10.9482 5.92867 11.4718
H -11.2415 6.69014 10.0573
O 3.88518 7.96494 -6.35637
H 4.28699 7.05037 -6.31087
H 2.90738 7.89005 -6.55202
O -3.81536 7.64793 -5.16435
H -4.59338 8.25202 -5.3368
H -4.09151 6.69829 -5.3123
O -14.3372 -4.39201 -4.28998
H -14.2693 -5.33859 -3.97479
H 14.6862 -4.16262 -4.45169
O -14.2214 -8.77759 12.8815
H -14.6649 -9.137 12.0604
H -14.3891 -9.3964 13.6489
O -5.3301 3.99287 6.80185
H -5.48037 3.94848 7.78948
H -4.57988 3.38114 6.55102
O 11.8939 1.93245 10.6508
H 11.6129 1.07418 10.2215
H 11.1976 2.21977 11.3085
O 7.37465 -6.06141 3.81238
H 7.626 -6.90863 3.34439
H 7.1128 -6.2666 4.75541
O -1.97633 3.4811 -13.2914
H -1.68585 2.67115 -12.7819
H -2.95832 3.42669 -13.4722
O -11.0863 4.372 -14.5653
H -11.4521 5.00022 -13.8787
H -11.8338 3.83854 -14.961
O -12.3226 13.3429 -2.05374
H -11.7528 13.6085 -1.27606
H -12.2147 14.0112 -2.78968
O 13.9918 -10.2875 -10.1251
H 14.6098 -9.80048 -10.7423
H 14.0757 -9.90976 -9.20302
O -1.82667 9.0872 -0.505748
H -0.941549 8.72194 -0.794026
H -2.43847 9.14006 -1.29498
O -6.4108 -2.44203 10.472
H -7.14965 -2.75899 9.8773
H -6.01519 -3.22209 10.9567
O 5.01372 -6.22022 -4.03584
H 5.11648 -5.27987 -3.71158
H 5.70218 -6.8001 -3.60026
O -6.42475 -3.54379 14.1987
H -6.46404 -4.09607 -14.9517
H -7.35373 -3.34153 13.8888
O -3.84424 -3.55854 -13.4602
H -4.60812 -2.98328 -13.1678
H -2.98128 -3.10103 -13.2458
O 3.53042 1.08405 14.0787
H 3.36829 0.122441 14.3
H 2.66744 1.51577 13.8162
O 13.3443 7.85223 7.56055
H 12.439 7.44574 7.68364
H 13.9504 7.18927 7.12108
O -6.4689 -12.5612 13.7608
H -7.29693 -12.1961 13.3353
H -5.73053 -12.5849 13.0868
O -14.1483 -8.99599 -0.604196
H -13.6093 -9.50362 -1.2763
H -13.5777 -8.2909 -0.183206
O 2.89329 -7.14875 -6.4542
H 3.10624 -7.36133 -5.50056
H 3.6103 -7.51713 -7.04594
O -2.08103 -6.95283 13.1264
H -1.12 -6.70959 13.2576
H -2.66103 -6.27653 13.5805
O -6.16356 -8.27455 3.06157
H -5.87381 -7.85509 2.2013
H -5.4322 -8.18722 3.73792
O 6.77858 4.21265 -13.4429
H 6.35262 4.97435 -12.9547
H 7.46673 3.78448 -12.8572
O -9.35498 10.8818 -9.91666
H -8.73062 11.3775 -9.31299
H -9.49751 11.409 -10.7543
O 14.4875 -1.65342 11.4477
H 14.7017 -0.761561 11.846
H 14.1031 -1.52642 10.5333
O 11.5343 -7.37997 -4.65295
H 11.9973 -8.07 -4.09665
H 10.5465 -7.53224 -4.61894
O 13.2049 -1.19924 6.64482
H 13.3205 -0.276408 7.01224
H 13.3162 -1.86728 7.38056
O 9.80266 2.17875 12.3693
H 9.12287 1.72358 11.7943
H 9.83725 1.73075 13.2627
O 2.41528 4.45906 11.233
H 2.07883 3.72855 10.6387
H 3.18327 4.11975 11.7761
O 10.2027 9.55354 10.1251
H 10.4477 10.2523 10.7972
H 9.22999 9.62885 9.90546
O -11.1761 -11.8556 9.9531
H -10.4776 -11.436 10.5327
H -11.2451 -11.3484 9.09406
O -11.298 12.7862 11.2646
H -10.9296 13.7156 11.246
H -11.4369 12.5016 12.2131
O 12.8674 -10.7427 13.3704
H 13.358 -11.4821 12.9094
H 13.0453 -10.7869 14.3535
O -7.5742 -1.72484 -4.27506
H -8.2283 -1.50107 -3.55253
H -6.65917 -1.81155 -3.88113
O -11.445 8.8593 8.32711
H -12.3917 8.53883 8.3592
H -11.2821 9.33117 7.46065
O 4.56221 5.2546 14.164
H 4.21052 5.57433 13.2842
H 5.3855 4.70698 14.0147
O 8.51487 2.49757 0.0982194
H 7.63597 2.23895 0.499
H 9.24941 2.29236 0.744984
O -3.55428 -3.28483 -10.0878
H -4.1756 -2.59239 -9.72113
H -4.05672 -3.89006 -10.7052
O -7.61805 9.62374 -1.62554
H -6.62108 9.64549 -1.55109
H -7.8843 9.76684 -2.57875
O -11.5724 -4.02095 -4.74538
H -12.5116 -4.29978 -4.54512
H -11.5669 -3.41618 -5.54175
O 0.569997 -14.0834 9.37123
H 1.03274 -14.0133 8.48753
H 0.906128 -13.3659 9.9813
O -12.6236 -7.01259 -5.75173
H -12.2617 -6.45518 -6.49892
H -12.7591 -7.95051 -6.07098
O 2.16146 7.26925 11.8284
H 3.0883 7.1716 11.4659
H 1.67588 6.39949 11.7406
O 12.8826 -11.3569 -6.18018
H 13.6818 -11.5275 -5.60387
H 12.6942 -12.166 -6.73675
O -12.9092 10.5496 0.521646
H -12.6993 11.5139 0.360186
H -12.6079 10.0071 -0.262505
O -8.75127 -1.2664 14.9292
H -8.15291 -1.11121 14.1431
H -9.46514 -0.566384 14.948
O -4.3791 -11.1448 3.78893
H -5.06136 -11.6959 3.3085
H -4.03742 -11.6525 4.57981
O 11.6264 -1.45999 -0.497658
H 11.8113 -2.3009 -1.00625
H 11.5423 -1.67111 0.476156
O 3.20013 -5.91361 12.4747
H 3.96961 -6.28592 12.9936
H 2.40254 -6.50558 12.5904
O 1.12441 8.00743 -11.9373
H 0.811788 8.33366 -12.8294
H 1.09986 7.00789 -11.9206
O -12.0274 1.23756 -9.54431
H -12.557 0.857965 -8.78575
H -11.4495 1.98118 -9.20812
O -8.3202 7.8763 14.0677
H -7.62973 8.5995 14.0819
H -8.03267 7.12917 14.6669
O 1.51458 -12.4998 11.5873
H 2.36297 -12.9021 11.2433
H 1.20516 -13.0099 12.3898
O -5.93903 -6.10322 -14.4753
H -6.42234 -6.07701 -13.6002
H -6.4536 -6.66438 14.8596
O 14.061 -9.18845 -7.4785
H 13.803 -9.85659 -6.78064
H 13.3139 -8.53647 -7.60806
O 2.9217 -10.7995 13.7595
H 2.40426 -10.8374 14.6144
H 3.44197 -11.646 13.647
O 14.5719 -14.3815 -3.29906
H 14.7413 14.802 -2.72297
H 14.705 -14.6281 -4.25899
O -8.58801 3.33063 -14.9574
H -9.53907 3.63045 14.9512
H -8.03373 4.0715 -14.5781
O -8.57973 9.60559 2.74606
H -8.61285 9.53993 3.74334
H -8.10574 10.4459 2.48291
O 0.414239 -14.1469 -8.21901
H 0.767508 -14.969 -7.77263
H 0.485457 -14.2496 -9.21115
O -4.89215 4.83469 -5.06493
H -5.10471 5.06006 -4.11415
H -4.30016 4.02923 -5.09222
O -1.01324 14.3935 -4.86622
H -0.535036 13.5191 -4.78396
H -1.28747 14.5352 -5.81736
O 13.1137 -10.3182 1.9085
H 14.0487 -10.5538 2.17361
H 13.1065 -9.99857 0.961007
O -12.0406 -13.9701 8.22964
H -11.4443 -13.5932 8.93834
H -12.851 -13.3921 8.13375
O 6.46779 -3.1556 4.16401
H 5.68538 -2.67394 3.76929
H 6.55135 -4.05809 3.74153
O -10.5942 -8.5085 -11.0591
H -9.63248 -8.78239 -11.0685
H -10.6564 -7.51149 -11.0135
O 12.6651 0.594036 -1.94997
H 12.3122 -0.164178 -1.40178
H 12.1191 1.41353 -1.77608
O -11.988 -10.285 -9.58781
H -12.4929 -10.8126 -10.2709
H -11.3978 -9.62194 -10.0483
O 14.6624 -1.98167 -10.0903
H -14.7704 -1.24026 -9.70641
H 13.7966 -2.04554 -9.59395
O 11.0843 11.5536 12.0189
H 10.623 12.1861 12.6411
H 11.3883 12.0489 11.2051
O -14.9839 12.6939 9.96921
H -14.2418 12.3849 9.37452
H 14.9551 13.6928 9.95565
O 13.2472 -4.86191 6.16632
H 13.1549 -4.78158 7.1588
H 12.3575 -4.71067 5.7356
O 6.12769 -0.627346 -4.50131
H 6.00959 -0.306527 -5.44105
H 7.01299 -0.319536 -4.15281
O 14.0727 14.5587 -6.05786
H 13.7148 -14.8136 -6.76404
H 13.3136 14.0879 -5.60839
O -10.6894 10.2603 6.04621
H -10.0365 9.88701 5.38708
H -10.2273 10.9252 6.63301
O 13.1648 -7.14033 2.80186
H 13.1524 -8.12497 2.97596
H 12.2415 -6.7714 2.90856
O 3.66628 8.99699 -12.3882
H 2.80218 8.75438 -11.9472
H 4.38634 8.37872 -12.0732
O -4.63869 14.3533 13.8246
H -3.76695 14.1245 13.3914
H -4.46736 14.8079 14.6986
O 14.2194 7.79522 -1.48597
H 14.7448 8.62469 -1.67544
H 14.8358 7.00813 -1.46333
O 11.8752 13.0561 -7.92873
H 11.8039 14.0469 -7.81306
H 11.0192 12.6249 -7.64349
O 0.810675 -4.06153 -9.78462
H -0.0149065 -3.88318 -9.24929
H 1.51996 -4.43726 -9.1882
O 0.325646 -8.89188 8.85773
H 1.11922 -9.11811 8.2929
H 0.388561 -7.93905 9.15459
O 0.544313 7.74033 -1.28391
H 1.50431 7.71421 -1.00518
H 0.442918 7.29286 -2.17242
O 0.277195 13.375 1.58967
H -0.420137 13.8897 1.09087
H 0.0550431 12.4004 1.56281
O 8.22376 11.5196 -2.60455
H 7.39415 11.2297 -3.08169
H 8.98075 10.9164 -2.85572
O 13.4045 12.534 -10.1628
H 12.8838 12.7914 -9.34882
H 13.0014 12.9691 -10.9678
O -9.26913 -4.23764 13.8702
H -9.40752 -4.89513 14.6108
H -10.0569 -4.25827 13.2547
O -1.06642 -7.91898 2.5902
H -0.599393 -8.31931 3.37861
H -1.86641 -8.47306 2.35999
O 1.40606 13.132 -10.5427
H 1.34347 12.9974 -9.5538
H 2.10307 13.8208 -10.7419
O -12.8805 1.51839 5.18001
H -13.6793 1.99851 4.81756
H -12.5776 1.96415 6.02232
O 6.72349 -13.6079 14.7702
H 7.01608 -14.087 13.9427
H 7.39018 -12.8982 -14.9854
O -11.798 -8.22148 9.90199
H -11.4503 -8.5669 10.7736
H -12.6536 -8.68732 9.67635
O 8.61259 14.0048 -9.94954
H 8.36877 14.4819 -10.7939
H 7.79246 13.8719 -9.39304
O -0.0411706 -10.6388 -8.34845
H 0.4746 -9.90861 -7.90034
H 0.0256896 -11.4758 -7.80536
O 3.87261 11.4435 -10.4688
H 3.54955 10.7785 -11.1421
H 3.38001 12.3055 -10.5887
O 6.88301 13.893 6.61614
H 7.55486 13.2209 6.9273
H 6.56233 13.6452 5.70198
O -14.4329 9.97156 -2.5966
H 14.9142 10.2333 -3.32246
H -13.5294 10.3532 -2.79153
O 5.64833 2.49315 -1.87204
H 5.7798 1.93952 -1.04975
H 4.92481 3.16413 -1.70994
O -5.48604 12.6104 3.91623
H -6.02649 12.4586 3.08869
H -4.5129 12.5461 3.69524
O 9.25409 7.16017 -13.1386
H 8.82122 7.62131 -12.3641
H 9.45239 7.8282 -13.8558
O -8.64186 1.18254 -9.55807
H -8.57867 0.25301 -9.19482
H -8.58076 1.15535 -10.5558
O -0.973763 -4.26789 5.27043
H -0.0446731 -4.45818 5.58752
H -1.59435 -4.97228 5.61492
O -10.475 8.1033 -13.0513
H -11.2524 7.66137 -12.6037
H -10.5778 8.03334 -14.0435
O -1.38646 -1.5623 -11.0956
H -2.14575 -2.11721 -10.7557
H -1.10074 -1.90155 -11.9919
O -14.9189 -0.0857898 1.65667
H -13.9844 -0.269658 1.96144
H -14.9709 0.839425 1.28086
O -8.8075 10.6244 -13.6433
H -9.59527 10.0088 -13.6232
H -8.90159 11.2612 -14.4085
O -13.3705 13.7065 -6.06367
H -12.9579 13.9802 -5.19485
H -14.2428 14.1808 -6.1825
O 8.49202 -8.54166 3.14233
H 8.20933 -9.17023 3.86687
H 8.6766 -9.0582 2.30622
O -10.7599 -6.57513 2.94588
H -10.4572 -7.25142 3.61745
H -10.2593 -5.72061 3.08454
O 11.6686 -10.0993 -13.0005
H 11.1556 -9.25705 -13.166
H 12.6437 -9.92923 -13.1432
O 0.475924 11.9717 -3.71287
H -0.222588 12.1015 -3.00917
H 0.589273 10.9948 -3.89378
O 12.4629 11.2153 -14.5398
H 13.0766 10.6186 -14.0228
H 12.2925 10.8176 14.5418
O 4.33114 -9.25312 2.2269
H 3.56369 -9.4729 1.62467
H 4.34498 -8.26897 2.40357
O -7.87598 7.44113 -5.96041
H -7.36654 8.02758 -6.59011
H -7.5099 6.51144 -6.00078
O 9.29043 9.93482 1.57026
H 8.74119 9.73608 2.38193
H 8.78216 10.5483 0.965921
O 5.57682 -12.0573 5.11203
H 6.18206 -12.5834 5.7094
H 4.68171 -11.9596 5.54701
O -13.1552 9.06089 5.06237
H -14.0732 9.25382 5.40874
H -12.5436 9.81523 5.30091
O -0.729596 5.82609 -14.5341
H -1.39784 5.17402 -14.176
H 0.0172264 5.93238 -13.8777
O -5.96766 -9.17142 -13.0907
H -5.83022 -10.1548 -13.2092
H -6.49778 -8.81387 -13.8595
O -12.2102 -7.46566 0.628732
H -11.5355 -7.5712 -0.101754
H -11.7671 -7.0816 1.43876
O -9.49922 3.47186 10.3971
H -9.69203 3.72128 9.44813
H -8.57816 3.77541 10.641
O 12.1643 5.97165 -8.07824
H 13.1055 6.30229 -8.14645
H 11.7361 5.99608 -8.9816
O -0.137122 -8.82797 4.88117
H 0.830839 -9.06074 4.78717
H -0.62144 -9.58627 5.3175
O -6.16166 11.482 6.55302
H -5.29369 11.1121 6.88437
H -5.99505 12.0556 5.75106
O 1.52455 -0.72946 -13.8868
H 1.55342 -0.865516 -12.8965
H 2.1595 -1.36297 -14.3289
O 5.77958 -9.08805 -6.08102
H 4.97388 -9.6624 -5.9363
H 6.51205 -9.38032 -5.46619
O -4.10266 6.5927 9.38831
H -4.67359 5.8086 9.63162
H -3.1396 6.3248 9.41496
O -4.90987 -2.97971 -1.8747
H -5.63865 -2.9003 -1.1946
H -4.15238 -3.50813 -1.49136
O -12.4472 -14.5677 -3.89875
H -12.8143 -13.9277 -3.22382
H -12.0849 -14.0579 -4.67901
O 14.4632 -4.34768 -13.6551
H 14.9793 -3.84052 -14.3453
H -14.982 -4.40801 -12.8143
O 12.4997 -2.99963 14.7517
H 11.6212 -3.40338 14.4961
H 13.1461 -3.72676 14.9826
O 9.91579 -7.40404 10.5018
H 9.81906 -7.50147 11.4923
H 10.789 -6.96322 10.2939
O -13.3835 -11.4647 13.9744
H -12.5952 -10.9304 13.6694
H -13.3304 -12.3864 13.5901
O 12.2799 4.69465 1.36105
H 12.2631 4.92246 0.387509
H 12.3984 5.53053 1.89697
O 2.30427 -1.64218 -7.65065
H 2.0214 -1.34089 -6.74006
H 1.49437 -1.81236 -8.21196
O 2.01932 10.4796 1.1626
H 2.00791 10.1771 0.209535
H 1.13637 10.8885 1.3931
O -11.0588 -5.79003 -10.7619
H -11.5478 -5.51353 -11.5891
H -10.172 -5.32892 -10.729
O 8.469 11.0988 4.26975
H 9.35999 10.6597 4.38504
H 8.53803 12.0641 4.52168
O 6.62236 -5.36295 -9.52779
H 7.50225 -5.01733 -9.85384
H 6.6068 -5.3446 -8.5281
O 8.01362 1.58324 -3.1124
H 8.53628 1.03733 -2.45758
H 7.16395 1.89253 -2.68536
O 6.57853 -6.18094 -6.54735
H 6.18828 -6.61672 -5.73633
H 6.83095 -5.23802 -6.3302
O -2.76805 -10.9375 -9.23439
H -3.4313 -10.8234 -8.49476
H -1.84894 -10.7454 -8.89046
O 0.997337 -4.29733 -5.5009
H 1.60844 -4.35999 -6.28995
H 1.04958 -3.37796 -5.11103
O -11.5542 8.82287 -1.10962
H -10.714 8.72735 -0.575896
H -12.1884 8.08879 -0.867034
O 10.6877 -7.06094 -13.151
H 11.0525 -6.34083 -12.5608
H 10.8988 -6.84867 -14.1051
O -3.73533 10.2885 7.13207
H -3.06396 9.62853 6.79485
H -3.27027 11.136 7.38769
O 5.26143 3.12092 3.39483
H 5.6275 3.71552 2.679
H 4.40862 3.50774 3.74563
O 2.07716 -3.56956 13.0196
H 2.36267 -4.40976 12.5586
H 2.65973 -3.41243 13.8171
O -2.50226 -7.1479 -2.54487
H -2.87822 -8.01436 -2.21644
H -1.58065 -7.29867 -2.90246
O 8.05242 -3.80594 -6.25745
H 8.63475 -3.08168 -5.88826
H 7.09216 -3.5699 -6.10866
O 0.0588981 -7.08203 -11.1588
H -0.562244 -6.66663 -10.4943
H 0.380375 -7.96221 -10.8096
O 9.83788 -6.78956 -6.82835
H 9.10109 -6.26635 -6.40014
H 10.4941 -7.07437 -6.12963
O -1.71956 11.389 -12.6474
H -0.843788 11.8702 -12.685
H -1.70718 10.7328 -11.893
O 8.07504 -7.73277 -13.146
H 7.8313 -7.9057 -12.1917
H 9.02902 -7.43753 -13.1981
O -4.64836 -1.25698 14.0517
H -3.71966 -1.57672 13.864
H -5.24561 -2.04298 14.2112
O -8.66594 -11.1665 11.0063
H -7.8474 -10.7499 11.4018
H -8.4709 -11.4621 10.0712
O 8.4908 4.44368 12.3078
H 9.02146 5.28278 12.1883
H 9.09702 3.65213 12.2309
O 11.8446 -11.9428 5.57168
H 11.3228 -12.1598 4.74666
H 11.6961 -10.985 5.81771
O -7.96877 -12.6807 1.55123
H -8.88741 -13.0739 1.58981
H -7.98183 -11.7635 1.94924
O 8.43748 -14.3294 -12.1031
H 7.70101 -14.3975 -12.7761
H 9.17175 -13.7577 -12.4692
O 0.140776 -0.441471 -9.19397
H -0.421671 -0.877064 -9.89674
H 0.981727 -0.0935694 -9.60838
O -9.40913 -5.90094 -6.28865
H -9.51522 -6.76745 -6.77639
H -10.3109 -5.53743 -6.05495
O 4.96961 -7.60881 -8.66662
H 5.65593 -7.58316 -9.39345
H 5.38946 -7.33329 -7.80188
O -9.14813 12.9974 14.9239
H -8.54638 13.7619 -14.8281
H -8.96212 12.698 13.9881
O -14.9474 12.5979 -14.0526
H 14.9646 11.6026 -13.988
H 14.1306 12.9863 -14.2252
O 11.648 11.47 1.14662
H 10.8373 10.8859 1.18652
H 12.0507 11.544 2.05892
O 14.7761 -11.9803 -4.3736
H -14.2987 -11.964 -4.79135
H 14.6819 -12.8027 -3.81254
O -10.9363 -12.8029 6.10483
H -11.2811 -13.3158 6.89097
H -9.93745 -12.7711 6.13973
O -9.50234 -12.3038 13.3606
H -9.21179 -12.2365 12.4061
H -10.0341 -11.4929 13.6051
O -3.4321 -14.2349 -13.8335
H -3.10487 -13.6906 -13.0611
H -3.84941 14.9052 -13.4942
O 10.8073 13.8685 -11.7393
H 10.1558 13.6096 -11.0262
H 11.2839 14.7046 -11.4676
O -8.37474 -9.74238 1.85469
H -8.95791 -10.1086 2.57978
H -7.72117 -9.09543 2.24745
O 2.77722 7.0319 -0.00152345
H 2.02449 6.69339 0.563083
H 3.64693 6.84327 0.454542
O -12.1436 6.34917 0.653899
H -11.1887 6.10036 0.492016
H -12.2018 6.94348 1.45601
O -5.22193 -8.3703 -0.0602685
H -4.48116 -8.75913 -0.608032
H -4.93988 -7.48026 0.297849
O 5.84273 -10.0253 -1.92601
H 5.05019 -10.5833 -1.68012
H 5.94105 -9.27807 -1.26881
O -8.0396 -9.40987 -11.2431
H -7.47307 -10.0693 -10.7489
H -7.59145 -9.16334 -12.1023
O -3.58425 -8.27439 8.74713
H -3.34133 -8.45793 9.69964
H -4.5359 -7.97114 8.69835
O -11.8938 1.28924 -1.18978
H -11.985 0.317425 -1.40704
H -12.798 1.71624 -1.18572
O -4.86085 5.59021 -14.5065
H -4.46862 6.24504 -13.8605
H -4.94167 4.69577 -14.0667
O -10.7836 5.15293 7.80664
H -9.84078 5.39079 7.57316
H -11.3929 5.44185 7.06822
O 2.82024 4.79567 -5.07955
H 3.61953 5.03357 -5.63136
H 2.55152 3.85182 -5.27168
O 5.69598 6.7752 0.726679
H 6.30315 6.01299 0.95108
H 5.97086 7.17388 -0.148228
O -2.16557 14.7425 9.22723
H -2.8631 -14.5256 9.18085
H -1.27288 -14.8247 9.40063
O -6.47445 -14.2268 -2.69026
H -6.61961 -13.3291 -2.27418
H -5.6428 -14.637 -2.31608
O 6.9253 14.3136 -7.80448
H 5.9954 14.5156 -7.49711
H 7.33548 13.6312 -7.19955
O -4.73295 14.3047 0.817962
H -5.52337 14.8509 0.540609
H -3.91492 14.8799 0.820929
O -12.2277 -13.6538 11.8787
H -11.6609 -13.2015 11.1902
H -11.6473 -13.9869 12.6218
O -9.66541 8.37413 -10.696
H -9.49047 9.32051 -10.4245
H -9.99991 8.3541 -11.6382
O -13.2154 -6.49693 14.1828
H -13.5806 -7.41467 14.0268
H -12.6085 -6.24701 13.4284
O 13.3215 -5.07007 -8.73447
H 13.6171 -4.77359 -7.82636
H 13.8405 -4.57585 -9.43183
O 3.11276 -6.45334 4.93852
H 2.38152 -6.11016 5.528
H 3.26718 -5.809 4.18955
O 1.68523 6.08641 2.92321
H 1.9573 6.96297 3.32017
H 0.689395 6.00101 2.95469
O 1.36795 -7.16817 1.21765
H 1.09281 -6.88126 0.300071
H 0.563346 -7.4743 1.72643
O -13.6698 6.39619 12.8541
H -14.2367 7.03339 12.332
H -12.8013 6.25615 12.3786
O 3.63176 -11.6416 -1.14481
H 3.28566 -11.2485 -0.292934
H 4.17863 -12.4532 -0.939405
O 7.31152 -6.37859 -2.45054
H 7.40402 -6.42716 -1.45603
H 6.94822 -5.48327 -2.70817
O 14.4554 7.98941 14.5955
H 13.9572 8.6858 14.079
H 14.6218 7.19578 14.0103
O -14.6209 9.11928 8.91763
H -14.233 9.85355 8.36052
H 14.6568 8.64112 8.39453
O 14.2789 14.5292 13.8384
H 14.7655 13.6618 13.9421
H 13.5121 14.5599 14.4795
O 11.6771 -8.1711 -9.16742
H 11.1844 -8.95254 -9.55027
H 11.0913 -7.36115 -9.19623
O -8.84242 -3.58264 -12.976
H -8.97378 -3.02808 -13.7977
H -9.33568 -4.44687 -13.0747
O -6.78932 -14.3763 -5.47797
H -7.60862 -13.8043 -5.51675
H -6.45639 -14.4183 -4.53597
O 13.2743 -7.11931 -11.0078
H 12.7934 -6.30456 -11.3316
H 12.7176 -7.58313 -10.3186
O 5.98147 1.44619 1.18107
H 6.24749 0.501777 1.37416
H 5.53496 1.83782 1.98556
O 5.45078 -13.9057 -3.72489
H 4.75933 -14.3288 -3.13935
H 5.057 -13.1092 -4.18355
O -1.34627 -5.2443 1.37548
H -1.31292 -6.15695 1.78282
H -0.998578 -4.57386 2.03091
O 13.8637 9.55961 1.542
H 14.8602 9.58853 1.4637
H 13.5669 10.1935 2.2562
O -7.4887 -6.06679 5.11104
H -6.69222 -5.68756 4.64012
H -7.89519 -6.78817 4.55037
O -7.23332 7.47363 -11.9442
H -7.86761 7.65009 -11.1915
H -6.53702 6.82029 -11.647
O 11.8217 -8.39498 14.2631
H 12.0197 -9.30141 13.89
H 12.5486 -8.12905 14.8962
O 9.52454 12.5729 6.33581
H 9.72106 13.2066 7.08397
H 9.28962 11.6764 6.71138
O -9.50047 -4.02249 2.90984
H -8.83445 -3.27926 2.84669
H -10.3073 -3.7056 3.40849
O 9.57703 -2.9609 -14.8763
H 9.98579 -3.67662 14.5406
H 8.6931 -2.69549 14.7219
O -10.0132 1.57584 12.4046
H -9.8362 0.705527 11.945
H -9.86727 2.32788 11.7619
O -6.65155 -7.67029 -6.4978
H -7.2166 -7.15504 -7.14217
H -6.12456 -7.03429 -5.93411
O 3.9584 -13.0237 10.3982
H 4.2166 -12.9061 11.3571
H 4.18689 -13.9514 10.1029
O 1.48077 11.6027 -7.91193
H 2.31327 11.3049 -7.44478
H 1.32698 11.0295 -8.71675
O -4.75134 10.0465 -1.68195
H -4.69955 10.454 -2.59368
H -4.3095 10.6525 -1.02046
O 1.06153 -7.74562 11.9504
H 0.372933 -7.03651 12.102
H 0.607954 -8.60828 11.7267
O 11.9819 13.1432 -2.0258
H 11.9892 12.1611 -1.83798
H 12.9205 13.4879 -2.03513
O -8.20206 6.53545 -9.44683
H -7.63531 6.91732 -8.7168
H -8.83115 7.23683 -9.78189
O 4.23202 11.8387 5.66749
H 4.31284 11.9198 4.67408
H 3.32198 11.4963 5.90101
O 7.58155 11.4331 -0.0601941
H 7.85623 11.5441 -1.01529
H 7.11038 12.2591 0.249255
O 3.51468 -14.1145 -8.37097
H 3.91543 -14.3689 -7.49084
H 2.54727 -13.8946 -8.24559
O 7.47494 12.5533 -5.97345
H 7.685 13.2125 -5.25146
H 7.12062 11.7124 -5.56429
O -10.7572 2.58228 -3.66165
H -10.9059 2.41149 -2.68764
H -10.7068 3.56782 -3.82334
O -12.5573 -9.95497 -2.59748
H -12.0097 -9.20847 -2.9754
H -12.7894 -10.5998 -3.32566
O -6.38007 -3.11653 -12.1618
H -7.29942 -3.25712 -12.5292
H -5.95845 -4.00288 -11.9705
O -1.77312 -11.1629 -13.5959
H -1.82985 -10.1686 -13.5057
H -2.07805 -11.5926 -12.7461
O -13.9196 -12.0438 7.89908
H -14.026 -11.8631 8.87681
H -13.2441 -11.4142 7.51527
O 10.9756 -3.52403 5.06418
H 11.3448 -3.70611 4.15284
H 10.9059 -2.53638 5.20432
O 5.25474 8.35709 2.93196
H 4.31017 8.45391 3.24562
H 5.35106 7.50141 2.42353
O 12.4724 4.67041 -12.1058
H 12.6371 4.44283 -11.1461
H 12.7339 5.6211 -12.2725
O 4.50672 14.8143 -6.18571
H 5.0059 -14.5953 -5.53625
H 4.07291 14.0573 -5.69698
O -6.87106 -14.5767 -10.3156
H -6.45282 -14.4911 -9.41136
H -7.56532 -13.8662 -10.4304
O -14.1208 1.73375 -6.21558
H -14.5033 2.57878 -6.5892
H -14.6894 1.41778 -5.45607
O -8.69692 12.1129 7.29244
H -7.71799 12.0551 7.09669
H -8.88811 11.6717 8.16922
O -4.43732 11.9774 -12.4694
H -4.99929 11.1582 -12.584
H -3.47043 11.7225 -12.4807
O 13.0215 7.02034 2.57488
H 13.4527 7.8578 2.23914
H 12.2939 7.25533 3.21939
O 5.63825 14.0465 0.634158
H 5.30705 14.7128 -0.0339411
H 4.88753 13.4434 0.90376
O -9.96533 5.41202 13.0807
H -9.83597 6.39999 13.1653
H -10.5871 5.09473 13.7967
O -4.50194 0.384949 -13.7464
H -5.46954 0.389975 -13.494
H -4.3703 -0.194476 -14.5507
O -2.28526 14.9387 -7.90755
H -1.37644 -14.6588 -8.06646
H -2.55903 14.3932 -8.6997
O -1.50712 5.43318 12.5183
H -1.03091 4.95908 13.2588
H -1.87688 6.29745 12.8593
O 7.86862 -13.4879 5.55016
H 7.34891 -13.9188 4.81243
H 7.75784 -14.019 6.39017
O -3.68964 -8.10381 -11.947
H -3.01425 -8.10519 -12.6844
H -4.54196 -8.51127 -12.2748
O 0.164301 -5.4746 13.8739
H 0.585169 -4.61253 13.5917
H 0.357882 -5.63903 14.8411
O -13.104 -11.775 -11.7797
H -14.0235 -12.1234 -11.5978
H -12.5629 -12.4832 -12.2333
O 9.64212 6.39375 -6.1298
H 10.4966 6.39972 -6.64918
H 9.61048 5.58 -5.54947
O 5.08769 -5.69383 2.34768
H 5.80094 -6.04717 2.95298
H 5.44684 -4.92046 1.82529
O 12.1275 4.53893 -4.02639
H 11.2339 4.78445 -4.40213
H 12.3342 3.5871 -4.25281
O 2.66464 -9.39325 7.60762
H 3.50271 -9.5353 8.13433
H 2.89963 -9.14414 6.6681
O 8.33205 -11.2878 -14.1456
H 7.77781 -10.4848 -14.3647
H 9.08804 -11.3586 -14.7963
O 3.03352 -7.36974 -2.6173
H 3.89969 -7.18156 -3.08024
H 2.79351 -8.33297 -2.73795
O 10.0209 1.94899 -14.6564
H 10.9885 1.70746 -14.7303
H 9.93656 2.90346 -14.3703
O 5.44869 6.72229 -12.0743
H 6.23733 6.66245 -11.4624
H 4.74786 6.07286 -11.7793
O -8.25567 -12.1448 8.2384
H -8.19668 -12.3237 7.25632
H -7.94813 -12.9513 8.74318
O -2.313 -7.21187 6.47375
H -1.48869 -7.7139 6.2121
H -2.59685 -7.49197 7.39078
O 10.0411 6.13822 -10.2105
H 9.07809 6.20065 -9.94828
H 10.1725 5.34963 -10.8112
O 5.62536 -0.115954 -7.08158
H 5.05445 -0.572901 -7.76366
H 6.3661 0.373991 -7.54117
O -10.8007 -1.83798 -6.29078
H -10.9774 -0.856155 -6.22163
H -9.81475 -2.00211 -6.2615
O -14.6018 2.12241 -0.955327
H 14.9407 2.34987 -0.0869837
H 14.7409 1.6141 -1.53103
O -10.2903 -1.21723 8.27096
H -9.73555 -2.04423 8.36184
H -11.2256 -1.40895 8.56833
O 0.88954 -5.73092 9.53786
H 0.455706 -5.17418 10.2462
H 1.87638 -5.56944 9.54481
O 10.5684 9.08691 -14.6297
H 11.0601 8.2236 -14.7434
H 10.8633 9.52934 -13.7828
O -8.69992 -11.849 -13.8381
H -7.76948 -12.2153 -13.8283
H -9.13624 -12.071 -14.7101
O -14.0708 -13.7887 1.40016
H -14.329 -13.6707 2.35899
H -14.0493 -14.7635 1.17836
O 10.1415 4.47309 -13.9443
H 9.50688 5.18071 -13.6337
H 10.9371 4.44992 -13.3389
O 8.02174 -12.0758 9.33652
H 8.15744 -11.3092 9.96415
H 8.81285 -12.1539 8.72989
O -5.31401 -5.50686 -10.9812
H -6.2938 -5.70625 -10.9663
H -4.79919 -6.36402 -10.9672
O 3.93957 10.4364 -14.7996
H 3.6192 11.3831 -14.7677
H 3.60523 9.94404 -13.9961
O 11.64 4.89757 7.923
H 12.3451 4.75568 8.61771
H 11.2316 5.80254 8.04251
O 4.5733 -8.28492 -12.1317
H 5.43975 -8.36478 -11.6389
H 3.91363 -8.93433 -11.7534
O -10.045 12.3216 -4.86993
H -9.52599 12.8552 -4.20217
H -10.6343 11.6709 -4.39111
O 2.03959 -2.22294 -11.2978
H 2.85173 -2.57603 -11.7623
H 1.64895 -2.93877 -10.719
O -7.82713 -9.29706 -0.780198
H -8.0886 -9.52237 0.158331
H -7.03523 -8.68654 -0.768149
O 11.9847 7.66154 -3.93169
H 12.8944 7.26072 -4.04019
H 11.3139 6.93306 -3.79272
O 6.0268 -14.2998 8.44963
H 6.54501 -13.4814 8.69809
H 6.52516 -14.8098 7.74858
O -1.32383 -10.3069 6.99088
H -1.1003 -9.64906 7.71012
H -0.609094 -11.0046 6.94351
O -14.5078 11.1379 12.2852
H -13.573 10.9305 12.5734
H -14.49 11.5765 11.3867
O -5.35997 -9.92325 -7.80873
H -5.79238 -9.25085 -7.20801
H -5.98312 -10.1514 -8.5568
O -9.60514 5.63351 4.78155
H -9.00676 5.64333 5.58268
H -10.4967 6.01432 5.02674
O -10.0539 12.276 -11.9887
H -10.8527 12.6216 -12.4809
H -9.51161 11.6973 -12.5978
O 14.8571 13.3327 -1.70199
H 14.7974 13.0866 -0.734607
H -14.1907 13.189 -2.02535
O 0.695385 9.96857 -10.1196
H -0.2081 9.79492 -9.72781
H 0.990474 9.16978 -10.6439
O 2.75104 14.8023 13.1932
H 1.80274 14.836 13.5087
H 2.77015 14.5825 12.2178
O 10.506 -2.55834 -12.0466
H 10.2068 -2.8238 -12.9631
H 10.4792 -1.56225 -11.9627
O -1.61388 -3.85333 -8.44482
H -1.68419 -3.23398 -7.66288
H -2.30255 -3.60819 -9.12717
O 3.68446 -2.48819 14.9213
H 4.32151 -2.76538 14.202
H 4.06164 -2.73502 -14.1693
O 0.694949 10.7748 13.4847
H -0.25527 10.6295 13.7603
H 1.26618 10.0449 13.8602
O -11.6333 -2.06948 11.6983
H -10.6714 -1.93536 11.46
H -11.949 -1.30125 12.2552
O 8.77304 -12.5296 -3.9924
H 9.28613 -12.6699 -4.83917
H 8.41825 -13.4066 -3.66846
O 14.6066 -5.12747 1.58553
H 14.0498 -5.76817 2.11417
H 14.0399 -4.35828 1.29036
O -4.38907 -8.27332 4.80084
H -4.27926 -9.20528 4.45535
H -3.65253 -8.06779 5.44523
O -8.87504 -1.62552 5.61379
H -9.06538 -0.838813 6.20102
H -8.12841 -1.40112 4.98758
O -11.2243 1.15059 1.43359
H -11.1602 2.08642 1.78013
H -11.3032 1.16892 0.436894
O 10.4223 -5.23866 13.6012
H 9.65872 -5.76317 13.2246
H 11.281 -5.57659 13.216
O 3.17243 9.88152 -4.13199
H 3.17563 9.76544 -3.13878
H 3.41938 9.01686 -4.56942
O 7.51354 -9.0691 14.693
H 6.64776 -8.92913 14.2126
H 7.50835 -8.54966 -14.4357
O -0.979516 -3.41441 -13.4607
H -0.582607 -2.82722 -14.1661
H -0.378602 -4.19784 -13.3022
O -9.07248 0.366166 -1.75367
H -8.55951 1.22044 -1.83763
H -10.0482 0.550176 -1.87265
O 0.679068 -8.16118 -7.55285
H 0.00105354 -7.44747 -7.7286
H 1.51069 -7.74704 -7.18289
O -1.9497 11.3203 14.4409
H -1.9571 11.3664 -14.5434
H -2.25988 10.4163 14.1467
O 9.40314 0.665271 6.96569
H 8.43843 0.459371 6.80166
H 9.96806 0.151577 6.31998
O 4.05615 12.3424 2.13407
H 3.42133 11.633 1.82792
H 4.85612 11.9148 2.55492
O -1.64764 -13.8137 -2.5701
H -0.719016 -13.5609 -2.29859
H -1.60752 -14.4767 -3.31758
O 11.1743 -0.273514 9.08395
H 10.3848 0.0476506 8.561
H 10.9582 -1.15329 9.50733
O -12.5072 13.4295 -13.0801
H -13.3716 12.9941 -13.3311
H -12.6352 14.42 -13.0295
O 13.3403 -8.36107 7.34215
H 14.0986 -8.27435 6.69605
H 13.6328 -8.90577 8.12812
O 7.53968 7.45919 8.10499
H 7.32808 6.48754 8.21028
H 7.65095 7.87576 9.00724
O -12.5899 10.873 -6.33073
H -12.209 10.6397 -5.43606
H -13.0045 11.782 -6.28971
O 7.5402 -6.14199 10.9538
H 8.32885 -6.73704 10.7992
H 7.15238 -5.86726 10.074
O -0.886583 -11.3257 1.23492
H -0.97436 -10.3296 1.23017
H -0.455284 -11.6264 0.384297
O -7.20245 -5.63783 -0.695555
H -7.15146 -6.03018 -1.61394
H -7.99352 -5.02896 -0.636672
O 9.86229 13.5056 13.3171
H 10.3115 14.2152 13.86
H 9.44624 12.832 13.9279
O 1.04216 -13.6352 -5.12661
H 0.461678 -14.4355 -5.27691
H 1.68121 -13.5389 -5.8897
O 14.7922 -3.93591 12.7708
H -14.3042 -3.9519 13.2327
H 14.5767 -2.99907 12.4953
O 13.5276 -13.2526 -1.1482
H 13.8254 -13.5546 -2.05376
H 14.313 -12.9004 -0.639271
O 13.9124 0.874809 12.0189
H 13.2556 0.149752 12.2259
H 13.4514 1.61034 11.5225
O -14.31 5.96606 3.26905
H -13.5306 6.50454 2.94874
H 14.8792 6.15195 2.69025
O -1.28163 5.50117 -11.4604
H -1.64263 4.85654 -12.1342
H -1.20692 5.04786 -10.5722
O 11.4264 -0.191928 -10.5424
H 11.4914 -0.80546 -9.75546
H 12.3426 0.108886 -10.8071
O -14.9422 6.25499 -11.2013
H 14.9909 6.47051 -10.2261
H 14.5531 6.95501 -11.7228
O -6.42887 10.0573 13.6307
H -5.70827 10.42 14.2216
H -6.58342 10.6865 12.869
O -7.48443 -1.65199 1.71714
H -7.8061 -0.707097 1.77778
H -7.61127 -1.98801 0.783877
O -13.0009 -12.8643 -1.12285
H -13.1349 -11.8883 -0.951771
H -13.4956 -13.3944 -0.434185
O 13.4131 4.43813 10.1665
H 12.8863 3.6503 10.4855
H 13.8385 4.89344 10.9486
O -0.595723 10.8745 1.33121
H -1.00613 10.1756 0.745423
H -0.892557 10.734 2.27573
O -11.8099 -14.0854 3.80825
H -11.4006 -13.8986 4.70128
H -12.8065 -14.0589 3.88628
O 11.1174 -4.02049 1.05248
H 11.9473 -3.67757 1.49268
H 11.3669 -4.62215 0.29371
O 2.52009 7.35963 6.88747
H 3.27726 7.62655 7.48363
H 1.86247 6.81468 7.40761
O -12.4513 -0.398032 3.14415
H -12.5023 0.187119 3.95345
H -12.045 0.114216 2.38754
O 8.04308 -7.31458 0.0661392
H 8.82696 -7.33355 -0.554458
H 7.81173 -8.24822 0.339531
O -4.80013 -5.42778 -7.45478
H -4.46473 -5.9133 -8.26209
H -4.36844 -5.80525 -6.63556
O 9.07023 3.64822 6.73467
H 9.04391 2.65203 6.81758
H 9.98767 3.97717 6.9584
O 10.7584 3.31603 4.55463
H 10.0498 2.89507 5.12094
H 11.6339 3.28229 5.0365
O 7.62104 -1.3134 5.92621
H 6.96367 -0.573006 6.06639
H 7.26923 -1.94515 5.2355
O 12.0753 -5.03696 -12.1731
H 11.5904 -4.22091 -11.8587
H 12.6929 -4.79062 -12.9201
O -13.2656 -3.2752 1.75313
H -13.9752 -3.91163 2.0555
H -12.8673 -2.81791 2.54821
O -4.22599 8.86734 -8.26363
H -4.73059 9.48227 -8.86962
H -4.35543 9.15442 -7.31453
O 7.87894 1.307 10.8036
H 8.09223 0.332851 10.7294
H 7.10774 1.43276 11.4276
O 0.774345 -5.48908 -13.2549
H 1.53556 -4.90019 -12.9833
H 0.643108 -6.20272 -12.5668
O 11.9653 -1.84535 -8.55979
H 12.1067 -2.83271 -8.48844
H 12.0995 -1.42376 -7.66301
O -3.26679 -12.9688 1.36346
H -4.05473 -12.9544 1.97903
H -2.592 -12.2975 1.67013
O -4.93906 5.92752 -11.5247
H -5.24042 5.0377 -11.1821
H -4.07979 6.18193 -11.081
O 5.93926 10.9357 3.32608
H 6.86756 10.9009 3.69623
H 5.53147 10.0234 3.36247
O -11.3839 -2.35675 4.42501
H -10.5597 -2.09102 4.92502
H -11.7191 -1.57684 3.89647
O 2.73441 -9.32713 4.6043
H 2.77078 -9.59172 3.64064
H 3.00575 -8.36917 4.69739
O -7.0536 -0.663582 12.8004
H -6.1903 -1.14414 12.9545
H -6.8926 0.323275 12.8131
O 10.3422 -12.7507 7.96464
H 10.2354 -12.5141 6.99896
H 10.9989 -12.1278 8.38985
O 12.4686 1.97091 -7.43835
H 12.6076 2.2733 -8.38133
H 12.7843 2.68215 -6.81029
O 12.2011 -13.7117 -11.1102
H 11.9783 -13.022 -10.4212
H 13.1942 -13.779 -11.2055
O 6.78468 14.7332 3.41276
H 6.01269 14.5891 2.79371
H 7.62932 14.8019 2.88188
O 7.66161 -11.763 -7.63063
H 7.71467 -10.8456 -8.02488
H 7.37908 -11.6987 -6.67355
O -12.7717 -1.07438 -1.83186
H -13.5464 -0.903183 -2.44059
H -12.7564 -2.04084 -1.57555
O 7.55853 8.55701 -0.852709
H 7.61667 9.44205 -0.390888
H 8.25504 7.94189 -0.4833