2593
Atoms. Timestep: 18495000
O -3.19892 1.60559 7.83213
H -3.48198 1.53255 6.87578
H -2.20666 1.7212 7.87817
O -13.3216 4.56835 14.9972
H -13.7458 3.66327 -14.9935
H -14.0125 5.25237 14.7631
O 0.881524 -14.2351 -13.2387
H 1.55818 -14.4302 -13.9487
H 0.0197405 -14.6888 -13.4658
O 4.77995 -12.2286 -4.56594
H 4.052 -12.8042 -4.1934
H 5.29747 -12.7454 -5.24798
O 2.50521 -3.44609 -9.8632
H 2.01097 -3.56843 -10.7239
H 1.96158 -3.81827 -9.11086
O 2.34444 -13.8817 -5.01676
H 1.61445 -13.5357 -5.60623
H 2.03217 -14.7094 -4.55036
O 10.2985 6.36818 -3.88732
H 9.87927 6.37678 -4.79519
H 11.1259 5.80684 -3.90755
O -1.25678 14.0477 -5.40974
H -0.911226 13.9749 -6.34535
H -1.04734 13.2068 -4.91066
O -11.213 9.54077 -0.16216
H -10.5156 10.1499 -0.539915
H -11.5593 9.92176 0.695134
O 11.3934 -13.1877 11.8428
H 11.1834 -12.2794 12.2046
H 12.1374 -13.594 12.3733
O -10.2041 0.700201 -1.30159
H -9.5682 1.35469 -0.892438
H -9.8217 0.355369 -2.15889
O 1.77619 -14.104 -9.96012
H 1.70851 -13.435 -10.7004
H 0.901312 -14.5774 -9.85768
O -1.56378 13.8636 -12.5134
H -1.90746 13.3113 -13.273
H -2.14117 14.6723 -12.4014
O -9.17438 -0.391911 -5.69142
H -9.16272 -1.39179 -5.70482
H -10.1189 -0.0704526 -5.62376
O -0.946017 14.7663 -9.93918
H -1.56185 -14.7134 -9.36759
H -1.47042 14.3213 -10.6652
O 11.2568 12.4493 11.2951
H 11.3447 12.0141 10.399
H 10.6318 13.2271 11.2281
O -11.408 -2.32722 11.6519
H -11.4541 -1.35972 11.4031
H -11.1398 -2.86458 10.8523
O -4.45034 14.0438 14.7759
H -4.53694 14.1126 13.782
H -3.86376 13.2673 15.0064
O 3.97491 -13.6806 11.5391
H 4.90334 -13.9428 11.2758
H 3.97148 -13.3788 12.4925
O -7.72626 2.12885 5.42673
H -6.80989 2.25007 5.80838
H -7.77996 1.24436 4.9632
O -14.2119 9.25536 -9.52262
H -13.3454 9.60789 -9.87623
H -14.0357 8.67269 -8.72919
O -5.66328 12.7685 -5.29862
H -6.15435 13.5046 -4.8328
H -5.09458 12.2775 -4.63867
O -12.0745 -1.46704 -3.51178
H -11.217 -1.84698 -3.16503
H -12.6072 -2.19144 -3.94949
O 7.18937 12.9431 8.67363
H 6.23022 12.79 8.43568
H 7.55404 12.1303 9.12787
O 6.70221 13.576 -7.18211
H 7.41291 12.9117 -6.95027
H 6.03278 13.1493 -7.79028
O 8.15408 3.31737 -12.685
H 8.15994 3.057 -11.7195
H 7.27498 3.73665 -12.9119
O 13.2706 5.95508 -4.08551
H 13.6868 6.07473 -4.98691
H 13.3354 6.81089 -3.57222
O -0.332762 6.01191 -2.06457
H -1.13032 6.32345 -1.54793
H 0.400461 5.76699 -1.43017
O 6.03398 -14.6256 9.98558
H 5.4675 14.682 9.57485
H 6.66386 14.9849 10.6443
O 7.01376 7.74706 6.85923
H 6.59496 8.58576 7.20745
H 6.39423 7.31138 6.20621
O -1.26861 -7.72116 6.88956
H -0.399328 -8.17319 6.68933
H -1.92833 -8.39755 7.21719
O 11.8694 -3.02887 6.24583
H 11.4618 -2.96893 7.15707
H 12.7983 -2.65941 6.27122
O 6.571 -2.97575 -9.31859
H 6.89527 -3.91476 -9.43333
H 6.95581 -2.59036 -8.47986
O 4.47566 7.78398 -6.43873
H 4.74176 8.59313 -5.91477
H 5.2859 7.23047 -6.63161
O -6.98522 1.04255 -4.40436
H -7.64716 0.473317 -4.89208
H -6.60078 1.71919 -5.03241
O 5.16213 3.00825 2.5804
H 5.69635 3.48049 3.28159
H 5.3067 2.02186 2.65918
O 8.26738 7.32225 11.1267
H 8.4995 7.98139 11.8421
H 8.78469 7.53423 10.2976
O 14.1148 -9.67968 9.33825
H 14.4547 -8.91944 8.78456
H 13.7958 -9.33307 10.2204
O 3.38446 -12.5623 2.2416
H 2.56955 -12.5952 2.8203
H 3.97578 -13.3403 2.45395
O -11.8221 7.04739 12.7113
H -11.817 6.12752 13.1035
H -10.8825 7.33659 12.5276
O 1.30651 -10.5958 -1.58339
H 1.46092 -10.0361 -0.769149
H 0.323682 -10.6847 -1.74528
O 9.34928 -13.7992 -10.0269
H 9.10329 -13.8821 -9.06112
H 9.36531 -12.8332 -10.2851
O 6.01885 0.437512 3.31877
H 6.41624 -0.305869 2.78069
H 6.66235 0.71293 4.033
O -2.51804 3.22009 11.5911
H -2.73806 3.35202 12.5577
H -3.22394 2.65608 11.1625
O -7.46403 8.73361 3.06444
H -6.68862 8.10211 3.06905
H -8.1628 8.39884 2.43222
O -6.54647 4.77944 7.58853
H -7.33681 5.29539 7.25803
H -5.74726 5.37958 7.62283
O 5.78614 11.7097 5.51903
H 6.5144 11.7316 4.83403
H 5.08206 12.3779 5.27853
O 3.42029 9.25299 14.1574
H 3.15478 9.5751 13.2487
H 4.41553 9.16636 14.2027
O 7.83123 3.94724 -0.845382
H 8.70474 3.46036 -0.847283
H 7.81044 4.59158 -0.0808858
O 13.1349 1.30948 6.2612
H 13.6253 0.613722 5.73636
H 13.1226 1.0512 7.22723
O -8.61037 -9.29218 -8.06962
H -9.12472 -8.4784 -7.79895
H -7.88347 -9.03107 -8.70483
O 10.9468 -9.51114 -2.69128
H 10.3742 -8.72203 -2.91369
H 11.0712 -9.56402 -1.70043
O 1.35795 -9.22692 0.909428
H 0.417719 -9.4413 1.17414
H 1.54336 -8.26112 1.09089
O 6.98133 -3.23767 3.76763
H 7.02906 -2.58357 3.01269
H 7.16147 -4.1588 3.42246
O -4.78906 7.60889 6.88129
H -4.5084 8.41645 6.36248
H -5.0719 7.88464 7.8
O 14.6309 12.1108 14.7814
H 14.1275 12.3038 -14.3983
H 14.8961 11.1467 14.7651
O 9.22503 -1.49834 7.7951
H 9.2174 -0.499797 7.74104
H 9.14526 -1.88257 6.87527
O -14.8792 -0.519805 -2.91155
H 14.9104 0.290336 -3.44983
H -14.3517 -1.15492 -3.47586
O 12.24 -14.2992 8.00587
H 12.5153 -14.8988 7.25431
H 12.3712 -14.774 8.87619
O -10.6683 10.9664 12.81
H -10.6492 11.964 12.7429
H -11.4615 10.6838 13.3495
O 14.257 11.0092 5.80582
H 14.7229 11.8363 6.12021
H 14.7277 10.204 6.16653
O -10.0684 14.1199 6.85776
H -10.9925 14.3494 6.55203
H -9.48665 14.9311 6.79848
O 6.04725 6.28402 -9.994
H 6.84693 6.63268 -10.4829
H 5.35199 5.99798 -10.6534
O -5.78736 -9.16029 -8.80491
H -5.20695 -9.09799 -7.99293
H -5.4495 -9.88867 -9.40105
O 5.48651 -11.8752 5.35304
H 5.93745 -12.3832 6.08698
H 4.51692 -12.1185 5.32616
O -13.4592 -0.451963 11.8151
H -13.6912 -1.28052 12.3248
H -13.6903 -0.578422 10.8504
O -8.05278 -5.51516 -0.445782
H -7.70508 -5.344 -1.36767
H -8.55901 -4.71404 -0.126396
O 13.0574 14.3767 10.1634
H 12.534 13.6342 10.5816
H 13.7993 14.6481 10.7765
O 10.0449 9.31597 -10.1159
H 9.33529 10.008 -9.98293
H 10.3127 8.93855 -9.22934
O -6.16232 5.74159 -7.83213
H -5.50568 5.4509 -8.5281
H -5.72219 5.73268 -6.9342
O -11.2048 4.21254 -2.25038
H -12.085 3.74771 -2.1546
H -11.2681 5.13036 -1.85837
O -5.8947 3.49169 12.6441
H -5.5772 3.36876 11.7038
H -6.19016 2.61081 13.014
O 12.5302 10.5723 1.21173
H 12.6168 10.3784 2.18894
H 12.4367 9.71328 0.708377
O 5.25782 7.07588 -0.561178
H 5.68693 6.66779 0.244674
H 5.78682 6.83945 -1.37624
O 5.06352 -9.25823 8.01351
H 5.40005 -9.87551 8.72469
H 4.78931 -8.39036 8.42784
O -4.28368 7.73975 9.84441
H -3.45042 7.19018 9.90543
H -5.00163 7.31936 10.3993
O -8.36736 13.9533 -3.87858
H -8.80725 13.0986 -3.60258
H -8.01175 14.4215 -3.06966
O -6.96101 2.89107 -11.6004
H -7.10139 2.95504 -10.6123
H -7.84773 2.86072 -12.0618
O 14.1286 1.87228 10.683
H 13.8298 1.43924 11.5334
H -15.006 2.31058 10.8259
O -4.96912 -4.3569 -8.37143
H -5.89209 -4.20258 -8.01875
H -5.01972 -4.8914 -9.21513
O -13.0798 -6.96058 -13.5216
H -12.9883 -7.62959 -14.2592
H -12.6789 -7.33123 -12.6838
O -0.513494 -13.6411 -3.75597
H -1.12363 -14.3197 -4.16495
H 0.355052 -14.0751 -3.51651
O 8.19097 -9.82 -14.5525
H 8.13143 -9.28711 -13.7084
H 7.64196 -9.38056 14.7585
O 7.7336 0.301667 -5.68089
H 8.02397 0.625486 -4.7804
H 7.13272 0.981321 -6.1017
O -12.9889 -13.8081 0.949551
H -12.3341 -14.2403 0.329483
H -13.3649 -14.4965 1.56984
O 6.43148 -10.668 3.05188
H 6.07183 -11.398 3.63302
H 5.98079 -10.6995 2.15972
O 12.0327 10.2219 -12.1162
H 11.3928 9.79933 -11.4743
H 11.6561 10.1755 -13.0415
O -1.26441 -2.82114 10.2548
H -0.56207 -2.33314 10.7731
H -2.0918 -2.26159 10.206
O 10.7669 -10.8166 -14.0961
H 9.87695 -10.6235 -14.5093
H 11.225 -11.5392 -14.6139
O 0.316271 3.19743 -4.96868
H 0.227027 3.53815 -5.90464
H -0.111114 3.84376 -4.33649
O 6.75643 -7.37007 10.6649
H 6.77865 -6.84346 9.81508
H 5.96935 -7.08605 11.2126
O 7.22547 -14.961 12.7314
H 7.55016 -14.0801 13.0758
H 6.69345 14.6008 13.4423
O -7.93367 11.5471 -6.3413
H -7.0109 11.8413 -6.09226
H -8.24652 12.0678 -7.13567
O -11.5628 -8.92132 2.58284
H -11.7284 -9.90676 2.5438
H -10.7358 -8.70158 2.06514
O -5.14926 8.3972 -5.79496
H -4.84209 7.45181 -5.68565
H -6.121 8.40678 -6.03093
O -5.65261 12.2274 1.71281
H -5.66745 13.2105 1.89563
H -5.26244 11.748 2.49896
O 4.00999 -5.90078 -8.38274
H 3.38418 -6.41031 -8.97333
H 4.80357 -5.60491 -8.9145
O 0.71495 10.7112 1.34035
H 1.38725 11.3216 0.921492
H 0.138166 11.2321 1.96963
O -11.2506 3.25465 1.65956
H -12.0081 3.81765 1.3289
H -10.5447 3.19763 0.953515
O -10.2974 -14.4969 -5.20601
H -10.9767 14.8038 -5.34142
H -9.48722 -14.8809 -4.76306
O 3.19609 -12.9526 -1.66265
H 2.51586 -12.2197 -1.64802
H 2.82538 -13.7607 -1.20471
O -12.6193 -10.7407 -9.08936
H -12.1974 -11.1038 -8.25852
H -12.4678 -11.3773 -9.84563
O -10.6152 -5.36827 -13.3187
H -11.2149 -6.16024 -13.4336
H -10.488 -5.18511 -12.3439
O -13.0952 11.9575 -0.21577
H -12.4152 12.1318 0.496446
H -14.0115 11.9883 0.183567
O 9.04899 8.17524 4.98779
H 8.43029 7.94798 5.73987
H 8.51923 8.52074 4.21316
O -0.893066 -11.1918 11.9647
H -0.762112 -12.0744 12.4163
H -0.0280283 -10.8914 11.5627
O -4.57299 1.49038 -12.4132
H -4.34317 1.34267 -13.3752
H -5.15214 2.30134 -12.3296
O 7.97631 -7.8228 7.20641
H 7.14194 -8.06793 7.70018
H 7.94986 -8.22046 6.28922
O -3.1163 -9.50852 7.90166
H -3.10238 -10.4624 8.20172
H -3.93115 -9.346 7.34518
O -1.09589 1.82646 14.8214
H -1.01486 2.75088 14.4486
H -1.21042 1.87601 -14.2084
O 12.2045 -13.7793 -5.61079
H 11.7285 -13.0356 -5.14125
H 11.5382 -14.3536 -6.08643
O -3.86743 12.2344 -3.34684
H -3.14764 12.0761 -4.02279
H -3.96053 13.2165 -3.18277
O -8.11329 8.82716 -6.75456
H -8.10697 9.60494 -6.126
H -8.76389 9.00129 -7.49379
O -14.2235 -6.15334 4.52083
H -14.7184 -5.57235 3.87459
H -14.8511 -6.82647 4.91207
O -12.1953 9.07539 -6.87222
H -11.8526 8.18281 -7.16539
H -11.608 9.43631 -6.14769
O 12.0457 -9.44675 -6.99463
H 11.2197 -9.3306 -7.54626
H 12.5636 -10.2331 -7.33151
O 7.1053 -8.53214 13.3748
H 6.78479 -8.6016 12.4301
H 7.92056 -7.95398 13.4085
O 9.95937 -14.5978 -2.36509
H 9.23963 -14.9798 -1.78534
H 10.4581 -13.8949 -1.8578
O -11.8928 -14.3498 -13.7471
H -12.6594 -14.5938 -13.1531
H -11.9261 -13.3709 -13.949
O -14.1055 4.08331 11.82
H -14.9374 4.24627 12.3505
H -13.6387 3.27223 12.1727
O 10.2771 2.16198 5.88398
H 10.388 3.12247 5.62858
H 11.1719 1.76695 6.09205
O 2.56449 1.48372 13.2134
H 2.36432 1.40314 14.1899
H 1.84916 2.02383 12.7699
O -9.90566 -0.747567 6.61087
H -9.18212 -0.204048 6.18527
H -9.54735 -1.19705 7.42919
O 4.7035 9.79853 -0.0239285
H 5.17561 8.91787 -0.064355
H 3.97207 9.81622 -0.705666
O -8.83566 -7.26154 13.9996
H -8.03897 -7.86403 14.0481
H -9.59264 -7.66801 14.5113
O -5.93662 -13.1193 12.1577
H -5.90332 -12.1756 11.8286
H -6.37426 -13.1436 13.0566
O -14.4471 6.37414 -12.5961
H 14.5848 6.50525 -12.5448
H -14.2466 5.55752 -13.1374
O -7.78653 -14.2076 0.778401
H -8.01731 -13.2418 0.659871
H -8.60685 -14.7168 1.03892
O 6.83179 8.42259 3.16051
H 6.96901 8.05756 2.23964
H 6.20576 7.82787 3.66495
O 0.573469 -8.11167 9.53246
H 1.11419 -7.28057 9.40218
H -0.33312 -7.98608 9.12948
O -8.10933 6.46513 -2.09334
H -9.04206 6.32215 -1.76223
H -8.00374 6.03327 -2.98912
O 5.13441 -2.6363 13.7286
H 4.41284 -3.32492 13.6565
H 6.02272 -3.06608 13.5665
O 2.73544 -6.55524 0.0639152
H 2.80902 -7.51266 -0.215358
H 2.66056 -5.97604 -0.747869
O 8.58403 -11.5549 -7.14838
H 9.00203 -11.9621 -6.33631
H 7.66157 -11.922 -7.26817
O 10.4603 -12.4901 8.88152
H 10.6437 -12.3576 9.85561
H 11.0261 -13.2382 8.53456
O -4.26796 5.43131 0.658477
H -4.82992 6.23344 0.860615
H -3.33127 5.59378 0.968778
O 12.7965 7.03437 -12.5405
H 13.0693 7.31197 -11.6193
H 11.8459 7.30027 -12.7009
O -1.39236 -14.7789 3.97757
H -1.35017 -14.2672 4.83574
H -2.34811 -14.908 3.71308
O 11.0475 8.87805 6.61607
H 11.0356 9.87592 6.55145
H 10.387 8.49433 5.97066
O 1.14638 13.146 6.6322
H 1.92697 13.7669 6.56009
H 1.03193 12.8637 7.5847
O -7.94818 -1.64409 -13.2745
H -7.49393 -1.43028 -12.4096
H -7.85009 -2.61986 -13.4702
O -1.1978 4.54121 13.8273
H -2.19142 4.52713 13.9395
H -0.822073 5.34717 14.2848
O -6.69573 -9.08313 14.047
H -6.53355 -9.33979 13.0941
H -5.81959 -8.97531 14.5169
O -10.6455 -11.2974 9.83933
H -10.5453 -10.6816 10.6209
H -11.617 -11.4352 9.64596
O 9.62397 -8.46732 -5.48266
H 9.70599 -9.16453 -6.19486
H 10.1847 -7.67557 -5.72513
O 3.55291 9.72883 2.55798
H 2.66692 10.1874 2.48881
H 4.12295 9.98553 1.77746
O -1.48181 -5.56135 4.37336
H -1.61524 -6.17118 5.15462
H -2.36997 -5.32682 3.97808
O -2.77828 -2.04973 -6.46776
H -2.40873 -2.42219 -7.31909
H -2.1208 -1.40906 -6.0711
O 6.01376 -14.6752 -5.34636
H 5.29154 -14.9756 -4.72329
H 6.09739 14.6939 -6.09921
O -13.3793 -1.12377 9.0403
H -12.8102 -0.437276 8.58764
H -12.8564 -1.96877 9.15262
O -4.01328 9.90708 11.7774
H -4.85006 9.96404 12.322
H -4.15213 9.27072 11.0185
O 11.4656 2.82649 8.83152
H 11.7115 2.09421 8.19638
H 12.0377 2.76436 9.6494
O 4.48082 4.18141 6.03773
H 4.55088 3.84324 6.97624
H 5.27283 3.87141 5.51172
O 7.00933 14.2013 -13.0942
H 7.09708 13.2444 -13.3714
H 6.11492 14.5491 -13.3754
O 8.36233 -5.19034 6.56927
H 8.49682 -6.12798 6.88991
H 7.38436 -4.98255 6.54752
O 6.74444 10.8463 -1.36938
H 7.44432 10.1437 -1.49821
H 5.88776 10.4154 -1.08576
O 11.7748 -4.53017 -15.0025
H 12.6393 -5.0089 -14.8493
H 11.0479 -4.98078 -14.4842
O 11.1761 11.5394 -5.99331
H 11.0857 12.1012 -6.81567
H 11.1323 12.1245 -5.18346
O -10.4483 4.08898 -14.7877
H -10.2975 4.06827 14.246
H -11.4162 3.92803 -14.5946
O -7.71117 -7.93463 6.74004
H -8.50066 -8.41894 6.3629
H -7.74626 -7.96702 7.73893
O 0.432585 -6.90773 -3.62587
H -0.372545 -7.42197 -3.33024
H 1.02843 -7.50262 -4.16546
O 5.31682 0.204402 -9.45563
H 6.08693 -0.343914 -9.78174
H 4.45977 -0.206369 -9.76675
O 9.63416 -0.914337 4.98004
H 9.19544 -1.64016 4.45015
H 9.29087 -0.0256339 4.67602
O -7.82125 -11.7233 -4.34757
H -7.21758 -12.1295 -5.03363
H -7.30651 -11.0646 -3.79876
O 0.609878 3.14823 12.1342
H 0.220626 2.40836 11.5854
H -0.128869 3.68836 12.5374
O 10.8296 9.52876 -14.3411
H 9.84149 9.63203 -14.4549
H 11.2242 9.15193 14.8428
O 3.04544 2.8348 -9.70138
H 3.50531 2.10471 -10.2069
H 3.098 2.64552 -8.72083
O 1.72317 1.40614 6.46103
H 2.49413 1.2086 7.06656
H 1.71678 0.75145 5.70512
O -5.11457 -8.78589 6.3341
H -5.91805 -8.2859 6.65737
H -5.34928 -9.29388 5.50528
O -5.04156 8.11448 -10.3504
H -5.63626 7.79139 -11.0866
H -5.56009 8.71617 -9.74283
O -10.8366 -4.42018 6.81654
H -9.9701 -4.91944 6.81123
H -10.9308 -3.90702 5.9634
O -14.4957 13.9288 13.0559
H -13.6289 13.5649 12.7149
H -14.7518 13.4487 13.8949
O -7.46491 8.55791 -0.393892
H -7.18521 9.4078 -0.840575
H -7.64727 7.8611 -1.08763
O 11.3236 -5.51851 -8.97007
H 10.9816 -4.74327 -8.43895
H 11.8401 -6.13079 -8.37137
O 2.53765 -9.09158 -14.569
H 1.71145 -8.52871 -14.5944
H 2.85145 -9.18064 -13.6237
O 3.21723 9.6706 5.34244
H 3.9686 9.53288 5.98785
H 3.58707 9.7915 4.42121
O -13.7059 -12.3905 11.1247
H -14.2888 -12.7029 11.8748
H -12.754 -12.6242 11.3227
O 12.6961 -2.09872 -14.2929
H 12.8532 -1.74221 14.808
H 12.3627 -3.03968 -14.3521
O -6.1845 3.34714 0.833013
H -6.93742 3.8397 1.26954
H -5.40178 3.96054 0.727321
O 8.13117 -12.2644 -0.0989464
H 8.15282 -12.5546 0.857808
H 7.19963 -12.3504 -0.452355
O -0.615178 4.55289 8.0519
H 0.170124 4.51054 8.66962
H -0.921098 3.62523 7.8376
O -13.7112 -14.6356 -11.6722
H -14.6088 -14.4906 -12.0886
H -13.8277 -14.9564 -10.7322
O 10.3756 -4.99378 4.32579
H 10.2397 -4.29245 5.02559
H 10.8554 -4.59584 3.54385
O 0.0319142 -5.29846 6.72636
H 0.399695 -4.84087 5.91678
H -0.583639 -6.03383 6.44281
O 10.772 3.11751 12.4767
H 10.2361 2.90303 11.66
H 10.9736 2.27376 12.9742
O 10.8478 10.8845 9.09503
H 11.6331 10.281 9.23398
H 10.9463 11.3642 8.22314
O -5.92 -10.5802 11.1859
H -5.74958 -9.708 11.6445
H -6.72028 -10.4939 10.5925
O 9.39377 -11.6455 6.00617
H 10.0391 -11.7683 6.76017
H 8.6863 -12.3506 6.05472
O -0.963243 9.30097 9.59383
H -0.91391 8.50715 10.2001
H -0.0924113 9.40866 9.11412
O -2.15902 8.36903 -10.14
H -1.95012 9.10338 -9.49416
H -3.15068 8.27541 -10.229
O 10.4183 12.9164 -13.3336
H 11.1141 12.9252 -14.0518
H 10.1697 13.8561 -13.0988
O 14.9802 0.318534 4.49291
H -14.1217 0.0165633 4.74263
H -14.979 1.08875 3.85818
O 9.60491 6.46425 -6.54198
H 8.67864 6.7478 -6.79037
H 10.2629 7.13003 -6.89384
O -1.56168 -12.6529 -14.5921
H -1.15617 -13.1072 14.6367
H -2.35174 -13.1777 -14.2752
O 11.8455 -10.4561 12.8796
H 10.895 -10.1986 13.0538
H 12.3506 -9.66022 12.5457
O -6.19073 -5.79705 9.1304
H -5.86412 -5.10407 9.77318
H -5.55883 -5.85926 8.3578
O -8.89464 12.3315 2.6398
H -8.58719 11.3911 2.78503
H -8.20594 12.9655 2.99176
O 6.31515 0.898128 6.79293
H 5.39169 0.627947 7.0655
H 6.74377 0.15233 6.2829
O -1.5278 -12.8506 2.03728
H -1.55386 -13.6399 2.65081
H -1.28057 -13.1522 1.11643
O 4.72224 -5.48322 1.59716
H 5.11252 -5.9941 2.36315
H 4.0661 -6.06062 1.1112
O 3.2648 -5.66163 -13.8356
H 4.08692 -6.23077 -13.8191
H 3.3534 -4.92851 -13.1612
O -12.6106 2.09796 12.6989
H -11.6174 2.15377 12.8019
H -12.8425 1.31316 12.1241
O -12.9518 -2.70264 -7.90515
H -13.0934 -2.54894 -6.9272
H -12.8265 -1.82399 -8.36596
O 6.94786 -2.17969 11.3112
H 7.53044 -2.78395 11.8549
H 7.00858 -1.24776 11.6688
O 9.93924 -3.53239 -7.23792
H 9.92096 -3.97564 -6.34167
H 9.08508 -3.03204 -7.37981
O -1.98675 5.54892 10.2904
H -2.36912 4.70674 10.6706
H -1.61902 5.36607 9.37857
O -6.73666 11.2731 -0.732595
H -5.8459 11.1333 -1.16509
H -6.60509 11.597 0.204346
O -5.05993 15.0039 -3.46673
H -5.79538 14.986 -2.78934
H -4.87407 -14.072 -3.73203
O -10.942 -4.75938 13.911
H -10.6662 -3.81927 13.7104
H -10.8338 -4.93702 14.8891
O -11.4271 -12.3258 -6.19829
H -11.0905 -11.5168 -5.71639
H -11.005 -13.1449 -5.80975
O 3.12427 -1.16736 12.5154
H 2.99005 -0.211038 12.7752
H 4.01125 -1.48304 12.8526
O -2.37435 12.4197 0.311715
H -3.05392 13.1349 0.14834
H -2.25965 12.2875 1.29632
O 9.99101 5.2778 -11.1411
H 10.4181 4.58243 -10.563
H 9.66374 4.85406 -11.9857
O -9.63568 3.68324 6.55793
H -9.95955 3.16554 7.34987
H -8.83315 3.23051 6.16927
O 0.384783 -13.063 8.73091
H 0.699492 -13.4554 9.59521
H 1.03024 -12.3614 8.42876
O -3.99976 -11.9084 2.80632
H -3.06799 -12.2014 2.59176
H -4.42207 -11.5155 1.98941
O -9.81917 -0.186105 10.7171
H -10.2741 0.622816 10.3445
H -9.53371 -0.783004 9.96723
O 8.25943 -5.78722 -2.76425
H 7.7507 -6.64756 -2.79716
H 7.64375 -5.02768 -2.97428
O 12.7444 10.0812 11.8205
H 13.3187 10.2368 11.0167
H 12.2423 10.9181 12.0386
O -6.49366 9.41945 -3.58729
H -6.00441 9.10901 -4.40235
H -5.84682 9.53228 -2.83302
O -9.92042 -9.32666 5.57759
H -10.7315 -8.78363 5.36009
H -9.4604 -9.5927 4.73043
O 13.8777 10.7518 9.02232
H 14.2338 10.0259 8.43383
H 14.354 11.6078 8.82117
O 10.5655 -1.64191 -9.03807
H 10.6543 -2.41546 -8.41053
H 10.8954 -1.90799 -9.94387
O 14.6213 -14.1181 -13.9495
H 14.8071 -13.1934 -14.2817
H 13.639 -14.299 -13.999
O -2.34243 -9.10398 12.8705
H -2.54432 -8.72266 11.9684
H -1.90643 -9.99771 12.7647
O 10.9359 3.98198 0.0649472
H 11.9279 4.10049 0.11015
H 10.4996 4.87208 -0.066828
O 7.3587 -13.8204 6.51308
H 8.00851 -14.4149 6.98668
H 6.91251 -14.3322 5.7789
O 9.58814 -5.89632 -11.0901
H 9.17392 -4.99121 -11.1863
H 10.3879 -5.83512 -10.4929
O -6.53234 0.584925 1.39339
H -5.89188 0.420026 2.14351
H -6.5514 1.56175 1.18002
O 3.87678 14.8514 2.78129
H 4.41143 14.235 2.20316
H 2.91988 14.5609 2.7827
O -0.893049 0.9331 -6.01801
H -0.366227 1.54746 -5.43057
H -1.27692 1.45083 -6.78265
O 9.27452 7.2585 8.29012
H 9.81191 7.91959 7.76645
H 8.32554 7.27621 7.97517
O 0.515131 -8.69718 -12.3728
H 1.25796 -9.36645 -12.3541
H -0.299474 -9.11452 -12.7757
O -4.28542 5.44235 -9.61342
H -4.39177 6.29874 -10.1187
H -4.2423 4.67848 -10.2574
O 10.3175 0.720075 -7.26423
H 9.72927 1.05771 -6.52931
H 10.0781 -0.227993 -7.47383
O 14.6866 -0.205388 -13.8132
H 14.9513 -0.181963 -12.8492
H 14.2028 -1.05925 -14.0054
O -9.23895 11.4811 -14.0516
H -9.78421 12.2224 -14.4432
H -8.57625 11.1612 -14.7287
O 7.65659 12.1736 0.931197
H 7.32117 11.8386 0.0506735
H 8.55986 11.7851 1.11349
O -5.99279 -12.316 5.991
H -6.47614 -12.5203 6.84229
H -5.02586 -12.1532 6.1875
O 4.5115 14.7391 -14.308
H 4.16303 14.2917 -13.4843
H 4.86941 14.0484 -14.9364
O 6.1829 0.829953 -13.2477
H 6.60365 1.69913 -12.9877
H 6.41124 0.132684 -12.5682
O 1.11086 9.49447 7.90314
H 1.44081 9.91261 7.05677
H 1.55604 8.60842 8.03278
O 4.66689 -9.15977 5.08062
H 4.37845 -8.98234 6.02157
H 5.30715 -9.92787 5.06747
O -8.70188 -11.9865 -7.38648
H -9.62049 -12.2264 -7.07237
H -8.64403 -10.9975 -7.52321
O -7.97183 14.6684 10.7192
H -7.66474 -14.6382 11.347
H -8.60887 -14.9629 10.0547
O -12.7187 2.32594 5.39329
H -12.4679 2.23337 4.42967
H -12.6333 3.28326 5.6695
O 2.07872 7.60444 -7.83912
H 2.96175 7.54769 -7.37316
H 1.35229 7.72727 -7.16289
O -11.4597 -12.9451 12.476
H -11.4761 -13.911 12.2174
H -10.5566 -12.5629 12.2799
O -7.29709 2.59113 8.75218
H -6.9906 3.35569 8.1851
H -8.29314 2.61761 8.83735
O 13.8196 2.58507 -10.1881
H 14.3091 2.56302 -11.0598
H 14.3807 3.04892 -9.5024
O -7.6359 -0.494051 4.67163
H -6.64325 -0.546378 4.7811
H -7.90244 -0.9532 3.82416
O 9.86055 -0.592545 -12.6222
H 10.8379 -0.443493 -12.7727
H 9.42587 -0.849915 -13.4853
O 4.63158 3.25049 8.83576
H 5.57244 3.54656 8.67083
H 4.34607 3.54075 9.74916
O 0.840073 -9.60168 6.03697
H 1.45648 -9.60714 5.24951
H 0.0695644 -10.2145 5.86137
O 8.81275 1.03066 -3.19149
H 9.4873 1.01585 -2.45337
H 7.89676 0.911253 -2.80839
O 2.19859 -12.4853 14.6163
H 3.15844 -12.7083 14.4459
H 2.09188 -11.4926 14.6722
O 3.64652 -13.8283 -7.83536
H 2.9031 -13.7065 -8.49305
H 3.26548 -13.9264 -6.91598
O 4.28727 11.6297 -6.29856
H 4.60429 11.7783 -7.23531
H 4.82222 10.8969 -5.87791
O 7.91022 -12.6123 9.38847
H 8.84806 -12.6238 9.04149
H 7.38988 -13.3553 8.96739
O 2.07771 -11.1005 7.8676
H 1.55813 -10.4635 7.29802
H 2.3688 -10.6376 8.70491
O -14.4254 -3.65144 6.21057
H -13.6282 -3.09112 5.98574
H -14.4602 -4.44213 5.59929
O -13.9699 6.3152 10.4955
H -13.9357 5.4208 10.9415
H -14.7248 6.332 9.8398
O 11.1022 -5.50273 7.42524
H 10.1379 -5.23902 7.44914
H 11.557 -5.03495 6.66734
O -7.58759 -9.5156 -2.66416
H -8.16238 -9.77838 -1.88915
H -8.04767 -8.80302 -3.19389
O -11.9705 4.90596 5.68649
H -11.5818 5.77154 5.37067
H -11.2642 4.37415 6.15376
O 8.1698 -9.39621 4.98871
H 8.70252 -10.1872 5.28978
H 7.56433 -9.66739 4.24042
O -5.90774 -9.88548 3.73438
H -5.45229 -10.7521 3.53043
H -6.8556 -10.0615 4.00014
O -9.2401 11.6459 -0.194686
H -8.33132 11.2878 -0.40911
H -9.28471 11.8823 0.775963
O 5.46267 10.4166 -10.8634
H 5.25015 9.5595 -11.3327
H 6.38885 10.3709 -10.489
O -12.5381 -8.0341 9.82136
H -12.6192 -8.41017 8.89829
H -12.8651 -7.08905 9.82618
O -2.26204 10.7321 -8.51404
H -1.47909 10.9248 -9.10558
H -3.08988 11.1191 -8.92017
O 5.56225 -6.74698 4.01967
H 6.41724 -6.67009 3.50669
H 5.48913 -7.66476 4.41005
O 3.41526 -4.82648 13.7561
H 3.34622 -4.9752 14.7426
H 2.53348 -5.02234 13.327
O 13.5663 3.58047 4.68406
H 13.4236 2.7733 5.25694
H 12.8381 4.24399 4.85571
O 1.05476 -1.16547 -6.13198
H 0.340747 -0.465882 -6.10325
H 0.981717 -1.68144 -6.98551
O -0.702284 -2.29558 7.22409
H 0.0816262 -2.35725 6.60623
H -0.382456 -2.31576 8.17138
O -14.619 3.32633 -12.248
H 14.5216 3.52319 -12.6775
H -14.1975 2.53894 -12.6979
O -9.16736 -3.11102 -5.26988
H -9.18611 -2.94007 -4.28475
H -9.83664 -3.81809 -5.49829
O 4.94345 12.9798 0.644445
H 4.96873 13.5354 -0.18662
H 5.74351 12.3803 0.669054
O -8.79976 9.20692 13.9092
H -9.23472 8.76792 14.6955
H -9.43108 9.86935 13.5059
O -1.16886 5.49922 5.50429
H -0.964346 5.35793 6.47294
H -0.316071 5.63488 4.9999
O -6.1216 10.6499 -13.77
H -5.35349 10.0166 -13.6754
H -6.19129 10.9496 -14.7215
O 1.79205 9.52228 -11.0341
H 2.72795 9.74361 -10.7599
H 1.62047 8.54939 -10.8788
O 13.9245 6.9408 14.8147
H 13.6631 6.97158 -14.2425
H 13.1865 6.52591 14.2825
O 10.7235 -7.70599 4.83557
H 10.6182 -6.71222 4.79807
H 9.83034 -8.13034 4.98501
O -13.7418 -9.31513 6.12008
H -13.9976 -9.80071 5.28413
H -13.0919 -8.58824 5.89771
O 1.04325 -12.1888 3.7331
H 0.0591696 -12.2967 3.59164
H 1.28474 -11.2203 3.67113
O -3.89335 0.775092 -14.9462
H -3.51015 -0.144931 14.9935
H -3.17934 1.45112 14.8935
O -9.08805 -9.28686 0.631406
H -8.13695 -8.9781 0.643962
H -9.66337 -8.57764 0.223865
O 14.2791 -10.5515 -11.4445
H 14.33 -9.72824 -10.8791
H 13.6326 -11.1964 -11.0368
O -2.30088 2.01306 -7.95021
H -2.50885 2.3754 -8.85879
H -2.88795 1.22542 -7.76306
O 9.4304 14.7202 8.37879
H 9.75003 14.883 9.31229
H 8.62122 14.133 8.40112
O -7.58058 -7.65804 10.4688
H -8.29427 -7.50666 11.1527
H -7.42085 -6.8116 9.96073
O 10.7399 14.4418 5.85337
H 10.3091 14.6287 6.73627
H 10.5728 -14.8145 5.23217
O 12.1485 8.10782 0.00300464
H 12.5921 7.59139 0.735512
H 12.5824 7.88704 -0.870509
O -12.8416 -8.13296 -8.23245
H -12.9323 -9.09951 -8.47253
H -12.664 -7.59936 -9.05936
O -0.610474 11.5939 -4.11842
H -0.114545 10.8972 -4.63684
H -0.760734 11.2702 -3.18422
O -7.34742 -10.6754 -13.7109
H -8.28677 -10.7474 -13.3755
H -7.33766 -10.157 -14.5661
O 13.1153 4.6475 -13.5521
H 13.0987 5.44292 -12.9462
H 12.4212 3.99022 -13.2584
O 2.2142 2.36495 -13.7492
H 2.38048 1.52795 -13.2278
H 1.28863 2.69497 -13.5635
O -4.56075 -3.44347 3.67458
H -4.07686 -3.27159 4.5327
H -4.51581 -2.62801 3.09745
O 2.87587 -0.690843 -10.0145
H 2.78142 -1.67854 -9.8896
H 2.03971 -0.234843 -9.7096
O -6.94757 12.7451 13.9195
H -6.72917 13.4128 14.6313
H -6.21739 12.7354 13.2363
O 12.414 -10.1196 7.18112
H 11.6086 -9.64571 7.53707
H 13.1378 -10.1112 7.8712
O 12.0055 5.21728 13.6781
H 11.6351 4.50877 13.0774
H 12.1665 4.83288 14.5872
O -1.38699 13.3704 12.3537
H -1.94272 12.6586 12.7831
H -0.490032 13.4045 12.7945
O -13.0828 -6.53068 7.37893
H -12.2633 -6.81971 6.88407
H -13.4236 -5.67535 6.9886
O -14.954 11.4841 -2.80358
H 14.7297 12.3918 -2.55546
H 14.7154 11.2317 -3.70472
O -7.77139 5.26626 1.89517
H -8.31807 4.6875 2.50036
H -8.31456 6.05543 1.60841
O -11.4629 -11.7113 -14.6601
H -11.4846 -11.7272 14.3623
H -12.3832 -11.5381 -14.3094
O -3.6232 -1.14603 10.0622
H -3.14519 -0.644282 9.34119
H -4.57006 -0.829049 10.1173
O -11.9185 -5.42618 -9.00191
H -11.1279 -5.66747 -9.56482
H -11.8364 -4.47575 -8.70188
O -11.0423 13.9226 1.73417
H -10.8833 14.4046 0.872487
H -10.2356 13.379 1.96579
O 8.31194 8.89894 -1.947
H 8.07902 7.93475 -1.81998
H 9.18823 8.97019 -2.42357
O 13.48 0.547686 13.1813
H 13.5728 -0.44506 13.1045
H 12.7981 0.765632 13.8797
O -6.07223 0.945007 13.3825
H -5.39311 0.892048 14.1147
H -6.16726 0.0481171 12.9505
O 1.66801 -1.98545 -14.6626
H 0.771343 -1.56214 -14.7924
H 2.17256 -1.96893 14.4962
O 6.52329 6.85098 -3.10234
H 5.56684 6.93741 -3.38127
H 7.07682 6.57909 -3.88958
O 2.66166 10.1922 -1.59806
H 1.85935 9.6559 -1.3359
H 2.73852 10.2115 -2.59495
O 14.2321 -6.31985 -11.4295
H 14.6908 -5.60466 -10.9021
H 14.4521 -6.21203 -12.399
O -13.5744 -3.15923 -5.08674
H -14.4663 -3.48162 -4.76943
H -13.0278 -3.93869 -5.39301
O -6.61759 2.73511 -2.23633
H -6.67026 2.31216 -1.33168
H -7.04329 2.13245 -2.91134
O 1.56011 -4.95564 9.37078
H 1.20946 -5.01874 8.43637
H 1.73616 -3.99751 9.59675
O 10.9556 5.00653 5.18033
H 10.8983 5.15763 6.16722
H 10.2152 5.5002 4.72401
O 6.04007 -4.33553 -3.22443
H 5.54096 -3.46982 -3.26345
H 5.72293 -4.93648 -3.95815
O -12.9836 4.2209 -5.96522
H -12.6775 4.17701 -5.01419
H -12.227 3.9738 -6.57065
O 14.2475 12.537 0.612488
H 13.7207 11.7295 0.347105
H 13.8791 13.3426 0.148404
O -10.8909 -5.40958 -4.90942
H -11.5241 -5.75128 -5.60398
H -11.2762 -5.56803 -4.0003
O -14.8547 9.03837 7.32303
H -14.0083 8.50774 7.27741
H 14.3897 8.41758 7.42278
O 14.1668 -9.29797 2.75617
H 14.0633 -10.2297 3.10432
H 14.0038 -8.64552 3.49629
O 9.68315 -9.75106 -8.61842
H 9.36562 -10.4908 -8.02506
H 8.93703 -9.46088 -9.21773
O -4.55174 -2.37333 -12.3251
H -5.07474 -2.91336 -11.6657
H -4.48395 -2.87495 -13.1876
O 5.00322 -5.4757 -5.82823
H 4.45334 -5.95006 -5.1407
H 4.87841 -5.91663 -6.71709
O 1.68219 -1.72106 8.95545
H 1.77538 -1.72323 7.95977
H 2.56307 -1.94385 9.37317
O 0.783053 -5.68966 12.2238
H 0.769112 -6.57094 12.6963
H 1.11645 -5.81748 11.2897
O -11.4574 3.79778 -8.25602
H -11.2246 2.83554 -8.1147
H -12.1401 3.87229 -8.98301
O 6.39638 3.42639 -3.08998
H 5.54281 3.94059 -3.17413
H 6.93512 3.7963 -2.33301
O 0.497863 -12.915 -7.08628
H 0.896911 -12.2756 -7.74356
H 0.652578 -13.8527 -7.39741
O -4.18863 -12.1327 -1.12835
H -4.5739 -12.0289 -0.211365
H -4.42287 -11.3328 -1.68084
O 4.90506 -13.1377 14.1861
H 5.87226 -13.0299 13.9559
H 4.81807 -13.7134 14.9991
O 8.11744 10.7838 9.83205
H 7.9362 10.3441 10.7118
H 9.10476 10.8317 9.68047
O 11.7565 -3.97864 2.14535
H 12.036 -3.01909 2.17964
H 10.9411 -4.06802 1.57328
O -10.2153 14.8144 -11.6212
H -10.7703 14.2113 -11.0483
H -10.7757 -14.8477 -12.3672
O -4.10643 -14.4589 3.75437
H -4.34227 -13.4886 3.70095
H -4.52804 -14.947 2.9901
O -0.00388689 -4.92353 -5.43036
H 0.359733 -4.26895 -4.76751
H 0.126471 -5.85347 -5.08641
O -2.26625 8.12936 -0.658072
H -2.07634 7.48285 0.0808695
H -2.90977 7.71805 -1.30365
O -11.0692 -14.9746 -0.936535
H -10.4313 -14.2881 -1.28563
H -11.9156 -14.944 -1.46817
O -3.40982 -14.8138 -0.397427
H -3.85941 -13.9504 -0.626354
H -2.44378 -14.7642 -0.651115
O 7.03585 -4.97366 -13.7801
H 7.84982 -4.45732 -13.5138
H 6.98252 -5.02067 -14.7776
O 14.894 -13.4741 6.1163
H 14.3201 -14.2424 5.83261
H 14.8549 -13.3783 7.11097
O 10.6863 13.0975 -7.88024
H 10.7065 13.2287 -8.87143
H 10.1615 13.8361 -7.45691
O 9.85454 2.24305 1.69509
H 9.78895 1.35902 1.23222
H 10.4929 2.83217 1.19963
O -8.53497 -10.4916 3.28314
H -8.34754 -11.4728 3.23508
H -9.02648 -10.2055 2.46058
O -5.24235 2.64596 6.16469
H -4.6258 3.17469 5.58127
H -5.3525 3.11242 7.04238
O 10.1712 -2.35215 -1.26207
H 9.6974 -2.0836 -2.10079
H 9.66466 -3.0891 -0.814437
O 14.9101 2.51417 2.63742
H 14.3334 2.91888 3.34717
H -14.3865 3.15679 2.39074
O 13.2433 10.8341 -9.21815
H 12.81 10.8499 -8.31705
H 14.1033 10.3264 -9.16554
O -6.31775 0.0413823 8.76458
H -6.75907 0.938661 8.75047
H -6.33868 -0.325777 9.69454
O -9.64877 -3.29662 0.544094
H -10.6026 -3.25974 0.842241
H -9.08025 -2.77506 1.18036
O -13.7786 11.7438 8.39074
H -13.8198 10.7828 8.66441
H -12.8489 12.0881 8.52144
O 13.7263 6.51443 1.86343
H 14.5292 6.97965 1.49049
H 13.7614 6.53831 2.86257
O 9.14013 -11.6125 2.57773
H 8.30935 -11.1386 2.8698
H 9.92306 -10.9963 2.66365
O 8.53533 -10.7343 -3.67248
H 8.68971 -11.7223 -3.67767
H 9.41541 -10.2594 -3.67011
O 8.38837 5.12394 2.8893
H 7.94909 4.79972 3.72715
H 9.15625 4.52488 2.66223
O 10.4792 12.5972 0.952796
H 11.1137 11.9025 1.29149
H 10.7383 13.4915 1.31769
O 11.8029 -3.40573 -11.1397