LAMMPS data file via write_data, version 10 Aug 2015, timestep = 8000000
#/lustre04/vol0/lili3p/naphth_solid_npt_T/director_NAPHTA36_withmin_7types_v2_2_withBa/NAPHTA36_withmin_7types_v2_2_withBa-1-298-50-1-500-469
4560 atoms
7 atom types
5040 bonds
3 bond types
7200 angles
2 angle types
10560 dihedrals
3 dihedral types
2400 impropers
1 improper types

-1.0763502675555259e-01 4.1387635026745990e+01 xlo xhi
-4.0433884491974936e-02 3.5938433884472119e+01 ylo yhi
-3.5711112484589691e-01 2.9555111124838550e+01 zlo zhi
-6.7234083837551181e-02 -1.7036217651000683e+01 -4.1707816797290791e-02 xy xz yz

Masses

1 12.0107
2 1.008
3 12.0107
4 12.0107
5 12.0107
6 12.0107
7 12.0107

Pair Coeffs # lj/cut/coul/long

1 0.07 3.55
2 0.03 2.42
3 0.07 3.55
4 0.07 3.55
5 0.07 3.55
6 0 0
7 0.07 3.55

Bond Coeffs # harmonic

1 469 1.4
2 367 1.08
3 469 0.7

Angle Coeffs # harmonic

1 35 120
2 63 120

Dihedral Coeffs # opls

1 0 7.25 0 0
2 0 7.25 0 0
3 0 7.25 0 0

Improper Coeffs # cvff

1 2.5 -1 2

Atoms # full

219 13 3 0.0000000000000000e+00 -2.7981267105274710e-01 3.1092762112749610e+00 3.1560862151821318e+00 1 0 0
220 13 4 -1.1500000000000000e-01 3.0594141076003800e-01 4.1065486897881627e+00 2.3651501049313026e+00 1 0 0
224 13 2 1.1500000000000000e-01 4.8091749752468371e-01 5.0423827230464715e+00 2.8690538957380998e+00 1 0 0
580 33 4 -1.1500000000000000e-01 2.6700981458430149e+00 6.7636869920705438e+00 3.9865682744212467e+00 1 0 0
320 18 1 -1.1500000000000000e-01 4.3456970506305250e+00 3.2165962499537186e+00 8.9989428975612480e+00 1 0 0
228 13 3 0.0000000000000000e+00 -5.5960391753450889e-01 1.8381451394139325e+00 2.5804608095926453e+00 1 0 0
989 53 4 -1.1500000000000000e-01 -1.3605983812153830e+00 7.0418638103675697e+00 3.5109328689552797e+00 1 0 0
1061 57 4 -1.1500000000000000e-01 6.8899097189692373e+00 6.7808597219400406e+00 3.6008634381221860e+00 1 0 0
600 34 2 1.1500000000000000e-01 1.3727209863430989e-01 5.8787489222696392e+00 6.9501275178083146e+00 1 0 0
245 14 4 -1.1500000000000000e-01 -4.9249994908096930e+00 1.4312861656000644e+00 9.0642533028464154e+00 1 0 0
227 13 4 -1.1500000000000000e-01 -1.8209117588567347e-01 1.5518087970293795e+00 1.2605773005173508e+00 1 0 0
4390 233 1 -1.1500000000000000e-01 2.4564667359985086e+00 7.7191379998602661e-01 5.5277495091447815e+00 1 1 0
733 13 6 0.0000000000000000e+00 -4.3916928365749408e-01 2.4357708446658823e+00 2.9404833159724819e+00 1 0 0
305 17 2 1.1500000000000000e-01 6.2801955860747736e+00 -1.9059160534334596e-02 4.3391175944426150e+00 1 0 0
249 14 2 1.1500000000000000e-01 -3.9883779192007962e+00 1.9351995088795033e+00 7.1973641165190907e+00 1 0 0
230 13 1 -1.1500000000000000e-01 6.6495250628128200e-01 3.8212700725978177e+00 1.0358596245954610e+00 1 0 0
217 13 7 -1.1500000000000000e-01 -1.1658700114435017e+00 2.3439014619709524e+00 5.2703310912073658e+00 1 0 0
218 13 5 -1.1500000000000000e-01 -5.8667454726647250e-01 3.3885916278524828e+00 4.4950492675750038e+00 1 0 0
221 13 1 -1.1500000000000000e-01 -1.4621935664508190e+00 1.0594946322958336e+00 4.6690961924896452e+00 1 0 0
222 13 2 1.1500000000000000e-01 -1.3913748528450260e+00 2.5052972898155312e+00 6.2891622136183205e+00 1 0 0
223 13 2 1.1500000000000000e-01 -3.8934003397722838e-01 4.3039256143662197e+00 4.9492914720925212e+00 1 0 0
301 17 4 -1.1500000000000000e-01 6.7781589958045867e+00 8.6615412800315061e-01 4.6031998146732978e+00 1 0 0
248 14 1 -1.1500000000000000e-01 -3.6243143070991461e+00 3.4078858895030995e+00 8.6771900386275309e+00 1 0 0
4380 233 4 -1.1500000000000000e-01 2.5630648207967290e+00 1.1220092210893919e+00 4.1528171260129723e+00 1 1 0
244 14 1 -1.1500000000000000e-01 -4.2308863342877308e+00 2.2128994712258736e+00 8.1933575796830329e+00 1 0 0
603 34 2 1.1500000000000000e-01 9.2543051137424825e-01 3.5500017647685964e+00 7.5708537660095168e+00 1 0 0
737 17 6 0.0000000000000000e+00 7.6916338047178776e+00 2.2858174480691495e+00 3.6028435763713205e+00 1 0 0
306 17 2 1.1500000000000000e-01 8.7786000808906017e+00 3.7671305269574864e+00 6.7541114659218593e-01 1 0 0
4396 234 5 -1.1500000000000000e-01 -7.5692833030240347e-01 1.9498690423956702e-01 9.2488074446081150e+00 1 1 0
321 18 2 1.1500000000000000e-01 4.2165407907876817e+00 1.5680446896598745e+00 7.6025187119727846e+00 1 0 0
4394 233 2 1.1500000000000000e-01 2.1259407255573368e+00 1.5235851347389746e+00 6.2357241464166870e+00 1 1 0
1065 57 2 1.1500000000000000e-01 6.4549580729180036e+00 5.8698110688187075e+00 3.2285604658184535e+00 1 0 0
579 33 3 0.0000000000000000e+00 3.3422873564853455e+00 5.8472012146013013e+00 3.1824566158096737e+00 1 0 0
252 14 2 1.1500000000000000e-01 -3.1424593645684329e+00 4.0953723771640016e+00 8.0256370647309634e+00 1 0 0
581 33 1 -1.1500000000000000e-01 4.6258425978697248e+00 3.9406032123694290e+00 1.4561509836068633e+00 1 0 0
596 34 5 -1.1500000000000000e-01 -5.3720893943945658e-01 6.3343252630799309e+00 8.8865871778534284e+00 1 0 0
577 33 7 -1.1500000000000000e-01 4.1654192285546516e+00 5.1998956770987119e+00 9.6960910646296883e-01 1 0 0
588 33 3 0.0000000000000000e+00 3.8515425784076402e+00 4.6653474549762146e+00 3.7349714976808901e+00 1 0 0
589 33 4 -1.1500000000000000e-01 4.5228965240386243e+00 3.7224351082839462e+00 2.8640289732188378e+00 1 0 0
593 33 2 1.1500000000000000e-01 4.9612125324461562e+00 2.7956434302303865e+00 3.2792703758205288e+00 1 0 0
753 33 6 0.0000000000000000e+00 3.6281624225253872e+00 5.1908772063826465e+00 3.2924093155624408e+00 1 0 0
4383 233 2 1.1500000000000000e-01 2.9864442813134335e+00 1.4016970039870471e+00 1.4361566508581454e+00 1 1 0
4379 233 3 0.0000000000000000e+00 3.2310523230631194e+00 2.5614427300789949e-01 3.2860788744972083e+00 1 1 0
578 33 5 -1.1500000000000000e-01 3.4891286135293758e+00 6.1383576084135258e+00 1.8098635589286460e+00 1 0 0
226 13 1 -1.1500000000000000e-01 4.5849767529659013e-01 2.5533021334875445e+00 5.1251335635133188e-01 1 0 0
4384 233 2 1.1500000000000000e-01 2.1589966224671993e+00 1.9964641529254770e+00 3.7355412605195193e+00 1 1 0
586 33 1 -1.1500000000000000e-01 3.0843395071400277e+00 5.3951603024887174e+00 5.9222202224703961e+00 1 0 0
587 33 4 -1.1500000000000000e-01 3.7869744585672374e+00 4.4218155367077587e+00 5.1798921602719119e+00 1 0 0
585 33 2 1.1500000000000000e-01 5.1726119190051776e+00 3.2866384256691914e+00 8.6672686871248650e-01 1 0 0
591 33 2 1.1500000000000000e-01 3.0282055658718301e+00 5.0372551000873127e+00 6.9732133375266230e+00 1 0 0
592 33 2 1.1500000000000000e-01 4.3278317992366517e+00 3.5658598700742958e+00 5.6048687415273593e+00 1 0 0
316 18 1 -1.1500000000000000e-01 3.8996025738810562e+00 1.9596832333822145e+00 8.5700474881915731e+00 1 0 0
590 33 1 -1.1500000000000000e-01 2.5517087099233859e+00 6.5879919293254350e+00 5.3823419300788258e+00 1 0 0
298 17 1 -1.1500000000000000e-01 7.9826505173909510e+00 1.8711054053144056e+00 1.2027257296723248e+00 1 0 0
1010 54 2 1.1500000000000000e-01 -5.0639818845587072e+00 6.3006929704404273e+00 8.4440631525549357e+00 1 0 0
1082 58 2 1.1500000000000000e-01 3.4124515471336307e+00 6.6066505064083536e+00 8.5742773603606501e+00 1 0 0
234 13 2 1.1500000000000000e-01 1.1425172894411300e+00 4.6804323129245127e+00 5.3619993522697518e-01 1 0 0
229 13 4 -1.1500000000000000e-01 -1.2190456888270897e+00 8.6464830542738025e-01 3.3308571535405069e+00 1 0 0
1064 57 2 1.1500000000000000e-01 7.1900904806801895e+00 6.3700488967198297e+00 9.2035769241610721e-01 1 0 0
300 17 3 0.0000000000000000e+00 7.3307131934461154e+00 1.6481367944797085e+00 3.5793963782041414e+00 1 0 0
985 53 2 1.1500000000000000e-01 -2.0162902752509542e+00 6.4167333334013748e+00 5.4162237238123732e+00 1 0 0
599 34 1 -1.1500000000000000e-01 4.8225465360336717e-01 4.1880428518050685e+00 8.2856881013552783e+00 1 0 0
299 17 4 -1.1500000000000000e-01 7.3966633820725702e+00 1.1148862671052264e+00 2.2194819931145178e+00 1 0 0
4401 234 2 1.1500000000000000e-01 -1.2540055128174661e+00 1.1306855980375037e+00 9.0378472947484703e+00 1 1 0
225 13 2 1.1500000000000000e-01 -1.9009737051626889e+00 2.8558819407202352e-01 5.2469367138433762e+00 1 0 0
595 34 7 -1.1500000000000000e-01 7.5201241897186577e-02 5.4793843910230446e+00 7.9688825851133149e+00 1 0 0
1053 57 1 -1.1500000000000000e-01 6.7160609030258325e+00 7.1405589065893293e+00 4.9127098735992556e+00 1 0 0
322 18 2 1.1500000000000000e-01 2.9598932753785290e+00 9.5256169600036342e-02 9.1219296858354841e+00 1 0 0
317 18 4 -1.1500000000000000e-01 3.1749472081976897e+00 1.1141554405323266e+00 9.4419472187875382e+00 1 0 0
324 18 2 1.1500000000000000e-01 4.8318658829196854e+00 3.9012386219366109e+00 8.4027371117976006e+00 1 0 0
981 53 1 -1.1500000000000000e-01 -1.3887608450867559e+00 7.1386086176182397e+00 4.8905140695445732e+00 1 0 0
1057 57 2 1.1500000000000000e-01 6.2655362786225464e+00 6.4795179202225608e+00 5.6293688084341031e+00 1 0 0
304 17 2 1.1500000000000000e-01 6.9557907715341329e+00 1.6525453869937745e-01 1.9565354396321610e+00 1 0 0
302 17 1 -1.1500000000000000e-01 8.4574474592668842e+00 3.1794962244264577e+00 1.4669918674544724e+00 1 0 0
4378 233 5 -1.1500000000000000e-01 3.4339696088276668e+00 5.0811169993155603e-01 1.9107467521893433e+00 1 1 0
582 33 2 1.1500000000000000e-01 4.2016853093263595e+00 5.4803008689060926e+00 -7.7383102335180864e-02 1 0 0
303 17 2 1.1500000000000000e-01 7.9920612509532294e+00 1.4684984561015750e+00 2.4280054161116893e-01 1 0 0
583 33 2 1.1500000000000000e-01 3.0668276741306286e+00 6.9752615617854330e+00 1.4021034896450364e+00 1 0 0
292 17 4 -1.1500000000000000e-01 8.3414798802206729e+00 3.7399329389729434e+00 2.7201614144241999e+00 1 0 0
291 17 3 0.0000000000000000e+00 7.8425665078183053e+00 2.9726567610714194e+00 3.7754059287365278e+00 1 0 0
993 53 2 1.1500000000000000e-01 -1.8615115329689234e+00 6.2261251127620021e+00 2.9506674953112593e+00 1 0 0
232 13 2 1.1500000000000000e-01 -3.2242228090103681e-01 6.3409963022112115e-01 7.2762754605915125e-01 1 0 0
235 14 7 -1.1500000000000000e-01 -5.2165674410524527e+00 2.2160291120876163e+00 1.3199351267474341e+01 1 0 0
236 14 5 -1.1500000000000000e-01 -4.5538838226384497e+00 3.1512169559441712e+00 1.2345971780081454e+01 1 0 0
597 34 3 0.0000000000000000e+00 -6.9098796340302204e-01 5.8876744399932273e+00 1.0231685009247236e+01 1 0 0
734 14 6 0.0000000000000000e+00 -4.6248806567449154e+00 2.3375192446068738e+00 1.0489751704719600e+01 1 0 0
239 14 1 -1.1500000000000000e-01 -5.8228351051974458e+00 1.1036594608899193e+00 1.2649317270221713e+01 1 0 0
240 14 2 1.1500000000000000e-01 -5.4314573566468134e+00 2.4916396673176102e+00 1.4133757377600613e+01 1 0 0
243 14 2 1.1500000000000000e-01 -6.4428046576241993e+00 4.5345621623213678e-01 1.3230014370442703e+01 1 0 0
4416 235 4 -1.1500000000000000e-01 -5.8593854378691423e+00 8.9143538913225340e-01 1.9054999157528698e+01 1 1 0
4420 235 2 1.1500000000000000e-01 -6.2126877964262723e+00 1.9072489989951773e+00 1.8703917534873504e+01 1 1 0
237 14 3 0.0000000000000000e+00 -4.4168633919331235e+00 2.9064390164478797e+00 1.0954837090280281e+01 1 0 0
4402 234 2 1.1500000000000000e-01 -1.8617931968787573e+00 1.6976994159659824e+00 1.1017228486152197e+01 1 1 0
251 14 2 1.1500000000000000e-01 -6.2455572290676615e+00 4.4627222207598141e-02 1.0744513031495707e+01 1 0 0
318 18 3 0.0000000000000000e+00 2.8705405341220844e+00 1.5652245265726843e+00 1.0761598930368004e+01 1 0 0
242 14 2 1.1500000000000000e-01 -3.2607303348725396e+00 4.5941342701300050e+00 1.0420630821090931e+01 1 0 0
1075 58 2 1.1500000000000000e-01 2.1313151988749484e+00 6.3988361233158777e+00 1.3168593141696547e+01 1 0 0
1079 58 4 -1.1500000000000000e-01 2.8261829973894166e+00 6.8518564999569129e+00 1.1221726205180557e+01 1 0 0
1083 58 2 1.1500000000000000e-01 2.5172502183039693e+00 5.9030072803708880e+00 1.0781804279430112e+01 1 0 0
255 15 3 0.0000000000000000e+00 -8.6555389454678409e+00 3.0851499781751115e+00 1.8189873832328484e+01 1 0 0
256 15 4 -1.1500000000000000e-01 -8.0429814684409955e+00 3.8798534193740770e+00 1.7188868241568802e+01 1 0 0
260 15 2 1.1500000000000000e-01 -7.6630391702338212e+00 4.8365936553615709e+00 1.7357181016111618e+01 1 0 0
1029 55 2 1.1500000000000000e-01 -1.0344863415317437e+01 5.9219651831381421e+00 1.7891443084532956e+01 1 0 0
4414 235 5 -1.1500000000000000e-01 -4.8959778999324914e+00 3.4398972063430111e-01 1.6848086943002667e+01 1 1 0
264 15 3 0.0000000000000000e+00 -9.2739651203551752e+00 1.8378096326975286e+00 1.7839743536715321e+01 1 0 0
262 15 1 -1.1500000000000000e-01 -8.2940681931309257e+00 2.1189739992600014e+00 1.5683248094078809e+01 1 0 0
266 15 1 -1.1500000000000000e-01 -7.7819045991253066e+00 3.3840560916686089e+00 1.5933264331200768e+01 1 0 0
4408 234 1 -1.1500000000000000e-01 -1.9844952924439871e+00 2.8259499955304906e-01 1.2666145971848890e+01 1 1 0
238 14 4 -1.1500000000000000e-01 -3.7054671695335104e+00 3.7352697360391773e+00 1.0022595047977084e+01 1 0 0
263 15 4 -1.1500000000000000e-01 -9.1600462839709067e+00 1.3830424435946753e+00 1.6527481128977879e+01 1 0 0
735 15 6 0.0000000000000000e+00 -8.9299314250764734e+00 2.4173847477003219e+00 1.8052822792566324e+01 1 0 0
1100 59 2 1.1500000000000000e-01 -1.0078039582380249e+00 6.4311152336549995e+00 1.5933651157469388e+01 1 0 0
339 19 2 1.1500000000000000e-01 -1.3182771017990724e-01 2.3140456071567721e+00 1.4764855962354861e+01 1 0 0
246 14 3 0.0000000000000000e+00 -5.0377078333503409e+00 1.7617262065141470e+00 1.0415659545738350e+01 1 0 0
265 15 4 -1.1500000000000000e-01 -1.0052308040241238e+01 1.1083025829389714e+00 1.8730425144420821e+01 1 0 0
340 19 2 1.1500000000000000e-01 -1.1013264262364064e+00 5.7201258547412370e-01 1.6135827427881246e+01 1 0 0
604 34 1 -1.1500000000000000e-01 -8.1312499368330560e-01 4.9734604992432008e+00 1.2883429118335672e+01 1 0 0
605 34 4 -1.1500000000000000e-01 -3.8888967315329825e-01 4.1023414413075061e+00 1.1879526610801168e+01 1 0 0
606 34 3 0.0000000000000000e+00 -2.1648280991514213e-01 4.5973058048986717e+00 1.0535776504655193e+01 1 0 0
607 34 4 -1.1500000000000000e-01 4.1890855445478525e-01 3.7375385218299466e+00 9.6167565388113729e+00 1 0 0
267 15 2 1.1500000000000000e-01 -8.2278541510729077e+00 1.5956942592506957e+00 1.4707348791111201e+01 1 0 0
611 34 2 1.1500000000000000e-01 8.6070734399473725e-01 2.7438246272500750e+00 9.8494399273206099e+00 1 0 0
610 34 2 1.1500000000000000e-01 -1.5068646850915801e-01 3.1038497705278068e+00 1.2280937533732029e+01 1 0 0
241 14 2 1.1500000000000000e-01 -4.0526497948790681e+00 3.8982370013875123e+00 1.2892506891301029e+01 1 0 0
1011 54 2 1.1500000000000000e-01 -6.1730349248341998e+00 6.1972378209551344e+00 1.0822247166445885e+01 1 0 0
598 34 4 -1.1500000000000000e-01 -1.1640139321570588e+00 6.7867014056897945e+00 1.1209516057982103e+01 1 0 0
337 19 4 -1.1500000000000000e-01 -1.7019550398700449e+00 8.2637635872875637e-01 1.8767086522131397e+01 1 0 0
754 34 6 0.0000000000000000e+00 -4.3858712875590378e-01 5.2726355051552387e+00 1.0497740724477604e+01 1 0 0
334 19 1 -1.1500000000000000e-01 -1.6171565346970063e-01 2.4570144855466363e+00 1.5826676350131123e+01 1 0 0
609 34 2 1.1500000000000000e-01 -1.0023783111507676e+00 4.5812829814604763e+00 1.3901956661079911e+01 1 0 0
739 19 6 0.0000000000000000e+00 -5.7586052210436911e-01 2.2276433531422732e+00 1.8337808696357250e+01 1 0 0
613 35 7 -1.1500000000000000e-01 -4.5729826974158083e+00 5.6223310702499845e+00 1.6069761583214085e+01 1 0 0
618 35 2 1.1500000000000000e-01 -4.5858224019188478e+00 5.9445671727252103e+00 1.5061589358604980e+01 1 0 0
615 35 3 0.0000000000000000e+00 -5.2934023757322830e+00 5.7406921979251093e+00 1.8404320337528453e+01 1 0 0
309 18 3 0.0000000000000000e+00 3.3802459158745526e+00 2.8089952866881585e+00 1.1164532433787839e+01 1 0 0
617 35 1 -1.1500000000000000e-01 -3.9554707842479333e+00 4.3594178717885805e+00 1.6332698449922830e+01 1 0 0
621 35 2 1.1500000000000000e-01 -3.5080004211790596e+00 3.8665914048019441e+00 1.5485921539203110e+01 1 0 0
624 35 3 0.0000000000000000e+00 -4.7153273745216504e+00 4.5039184081198878e+00 1.8691094056372606e+01 1 0 0
625 35 4 -1.1500000000000000e-01 -4.0184282422552453e+00 3.7996873758263492e+00 1.7648187107374689e+01 1 0 0
629 35 2 1.1500000000000000e-01 -3.4286026081176937e+00 2.9413568600469810e+00 1.7823185122409996e+01 1 0 0
755 35 6 0.0000000000000000e+00 -4.9468461808197572e+00 5.1114457063202732e+00 1.8436773360033381e+01 1 0 0
270 15 2 1.1500000000000000e-01 -7.2982817310865746e+00 3.9435991269893851e+00 1.5199071737531646e+01 1 0 0
1097 59 4 -1.1500000000000000e-01 -1.7277779445320984e+00 6.8048536129319750e+00 1.8582773618940042e+01 1 0 0
335 19 4 -1.1500000000000000e-01 -8.0849303189812716e-01 1.4823561629155582e+00 1.6625089231836398e+01 1 0 0
311 18 1 -1.1500000000000000e-01 2.1120804262296407e+00 1.1998823397195146e+00 1.3033450374976178e+01 1 0 0
336 19 3 0.0000000000000000e+00 -1.0934442650146590e+00 1.7729256288725288e+00 1.7961723746471467e+01 1 0 0
738 18 6 0.0000000000000000e+00 3.0561889864899783e+00 2.2654233834258202e+00 1.0777711042983817e+01 1 0 0
319 18 4 -1.1500000000000000e-01 2.2828810143233440e+00 7.3247804175553533e-01 1.1735667352222542e+01 1 0 0
4398 234 4 -1.1500000000000000e-01 -1.6154420030742074e+00 7.5850269177203566e-01 1.1401397338737294e+01 1 1 0
4412 234 2 1.1500000000000000e-01 -2.5796565162602860e+00 8.4282294223619580e-01 1.3361588618766820e+01 1 1 0
310 18 4 -1.1500000000000000e-01 4.1130911517331663e+00 3.6295015467453653e+00 1.0327951254646461e+01 1 0 0
338 19 1 -1.1500000000000000e-01 2.7774771000118292e-01 3.6473831181637495e+00 1.6424128665927928e+01 1 0 0
614 35 5 -1.1500000000000000e-01 -5.1963634629297415e+00 6.3183334434910519e+00 1.7110593545489646e+01 1 0 0
1101 59 2 1.1500000000000000e-01 -1.9763131264489360e+00 5.7721959566605445e+00 1.8287745895991087e+01 1 0 0
247 14 4 -1.1500000000000000e-01 -5.7551792013189926e+00 8.8363905660192810e-01 1.1245861668263750e+01 1 0 0
4419 235 2 1.1500000000000000e-01 -5.4782826418143271e+00 1.1718251101758577e+00 1.6517378572990317e+01 1 1 0
315 18 2 1.1500000000000000e-01 1.5776350868106324e+00 5.3025999040730376e-01 1.3681559575442444e+01 1 0 0
1025 55 4 -1.1500000000000000e-01 -9.8067500557088714e+00 6.7440979284443809e+00 1.8332851675964964e+01 1 0 0
608 34 1 -1.1500000000000000e-01 -1.2568340103484275e+00 6.2613838922220291e+00 1.2554728292704766e+01 1 0 0
616 35 4 -1.1500000000000000e-01 -5.9542308032134939e+00 6.5412906456984938e+00 1.9390471512595916e+01 1 0 0
327 19 3 0.0000000000000000e+00 -5.3649227772846686e-01 2.9279547080403221e+00 1.8549426110079359e+01 1 0 0
342 19 2 1.1500000000000000e-01 7.2443723696400575e-01 4.3930915118882812e+00 1.5835754967173692e+01 1 0 0
612 34 2 1.1500000000000000e-01 -1.6212943774489812e+00 6.8827591255400042e+00 1.3314914607726223e+01 1 0 0
269 15 2 1.1500000000000000e-01 -1.0420620197550866e+01 1.4683596307671259e-01 1.8444070289775382e+01 1 0 0
4415 235 3 0.0000000000000000e+00 -5.1340499741716412e+00 -1.2367096738179460e-02 1.8205921604371021e+01 1 1 0
254 15 5 -1.1500000000000000e-01 -8.9511474537361124e+00 3.5776358567371060e+00 1.9518692621104979e+01 1 0 0
341 19 2 1.1500000000000000e-01 -2.1490809360372118e+00 -1.7867755287363611e-02 1.8259889614230168e+01 1 0 0
354 20 3 0.0000000000000000e+00 -5.1673813359050058e+00 1.6708445885408345e+00 2.6019601354054952e+01 1 0 0
280 16 1 -1.1500000000000000e-01 -1.2794723366240406e+01 2.3513388355300044e+00 2.3067317893066292e+01 1 0 0
285 16 2 1.1500000000000000e-01 -1.2702018800649240e+01 2.1795392546275085e+00 2.1938186950112815e+01 1 0 0
258 15 2 1.1500000000000000e-01 -9.9014075946368010e+00 3.3133986766976586e+00 2.1385083632643454e+01 1 0 0
634 36 4 -1.1500000000000000e-01 -1.0196373580311981e+01 6.3968072817336399e+00 2.6168100882651071e+01 1 0 0
4433 236 3 0.0000000000000000e+00 -9.5422544955166479e+00 7.8529681619050579e-02 2.5625861057801696e+01 1 1 0
257 15 1 -1.1500000000000000e-01 -1.0290194572989249e+01 1.6145111582887108e+00 2.0024409884041102e+01 1 0 0
357 20 2 1.1500000000000000e-01 -4.4112593111668748e+00 9.8647230126460617e-01 2.2754585743353282e+01 1 0 0
284 16 1 -1.1500000000000000e-01 -1.2292944384252046e+01 3.6210671996908896e+00 2.3585413742696932e+01 1 0 0
356 20 1 -1.1500000000000000e-01 -3.9891508572100811e+00 2.8999806144810552e+00 2.3815961861926588e+01 1 0 0
360 20 2 1.1500000000000000e-01 -3.5638752598280163e+00 3.3450175565470888e+00 2.2887165472646096e+01 1 0 0
279 16 2 1.1500000000000000e-01 -1.4622031958537519e+01 6.2487041699299450e-01 2.8368925091763728e+01 1 0 0
287 16 2 1.1500000000000000e-01 -1.4380180945558205e+01 -2.8646748890144264e-02 2.5825472147817891e+01 1 0 0
288 16 2 1.1500000000000000e-01 -1.1789269442073270e+01 4.4077653549357594e+00 2.2978722674304247e+01 1 0 0
271 16 7 -1.1500000000000000e-01 -1.3794898835320874e+01 2.6118787033600732e+00 2.8074256581262656e+01 1 0 0
272 16 5 -1.1500000000000000e-01 -1.3188258297532213e+01 3.4166475480239158e+00 2.7160992936288885e+01 1 0 0
273 16 3 0.0000000000000000e+00 -1.2985316159189782e+01 3.0587476429272229e+00 2.5837743412816394e+01 1 0 0
274 16 4 -1.1500000000000000e-01 -1.2313555748791948e+01 3.9347466576259973e+00 2.4945732923850002e+01 1 0 0
275 16 1 -1.1500000000000000e-01 -1.4260844163495946e+01 1.3385309740300138e+00 2.7604089865480955e+01 1 0 0
259 15 2 1.1500000000000000e-01 -8.5619670987193519e+00 4.5625888889946875e+00 1.9909652491212686e+01 1 0 0
277 16 2 1.1500000000000000e-01 -1.2738490376866556e+01 4.4172707999003133e+00 2.7503501643307477e+01 1 0 0
278 16 2 1.1500000000000000e-01 -1.2005410474146549e+01 4.9694592909624502e+00 2.5328197921465151e+01 1 0 0
261 15 2 1.1500000000000000e-01 -1.0801776718399569e+01 9.6279912961181080e-01 2.0705444511392542e+01 1 0 0
282 16 3 0.0000000000000000e+00 -1.3458440056462480e+01 1.8487274811173391e+00 2.5353971542251593e+01 1 0 0
1118 60 2 1.1500000000000000e-01 -5.4558221962723703e+00 6.0254478980894683e+00 2.3891178422602334e+01 1 0 0
1043 56 4 -1.1500000000000000e-01 -1.4402501202290964e+01 7.1126714918265321e+00 2.6234688608000173e+01 1 0 0
736 16 6 0.0000000000000000e+00 -1.3227678342412673e+01 2.3874353282469589e+00 2.5724873517711409e+01 1 0 0
632 36 5 -1.1500000000000000e-01 -9.2286896632919380e+00 6.1042920340141107e+00 2.3874858279495786e+01 1 0 0
636 36 2 1.1500000000000000e-01 -8.4380900103089367e+00 5.7819948545017912e+00 2.1945440779289118e+01 1 0 0
358 20 2 1.1500000000000000e-01 -5.4225261815539199e+00 -1.2816644412694277e-02 2.4713780472203666e+01 1 0 0
4438 236 2 1.1500000000000000e-01 -1.0730775448946673e+01 1.7554127515946119e+00 2.6242403076814639e+01 1 1 0
253 15 7 -1.1500000000000000e-01 -9.7960214202973965e+00 2.8951205567718596e+00 2.0424470115518336e+01 1 0 0
623 35 4 -1.1500000000000000e-01 -4.8006072833061095e+00 3.9786649604227744e+00 2.0026003917922846e+01 1 0 0
627 35 2 1.1500000000000000e-01 -5.4298686486888856e+00 4.4133914192000647e+00 2.2067154007309291e+01 1 0 0
644 36 1 -1.1500000000000000e-01 -1.0293294725011528e+01 5.9738297782213827e+00 2.7474849133454303e+01 1 0 0
631 36 7 -1.1500000000000000e-01 -8.5601422150084723e+00 5.3182436159468480e+00 2.2944777318549626e+01 1 0 0
355 20 4 -1.1500000000000000e-01 -5.8617581671761023e+00 1.1016692919897946e+00 2.7107042404240108e+01 1 0 0
635 36 1 -1.1500000000000000e-01 -7.9140151438428274e+00 4.1396959158412541e+00 2.3419399505295548e+01 1 0 0
628 35 2 1.1500000000000000e-01 -4.4927619838974096e+00 2.9442165446230124e+00 2.0301456340407803e+01 1 0 0
639 36 2 1.1500000000000000e-01 -7.2642419252056989e+00 3.5402098538690114e+00 2.2749006297895619e+01 1 0 0
283 16 4 -1.1500000000000000e-01 -1.4104062955722707e+01 9.4975935938646106e-01 2.6257690047193194e+01 1 0 0
4430 235 2 1.1500000000000000e-01 -6.9622478472708611e+00 1.0314080850672158e+00 2.0940387394051314e+01 1 1 0
4444 236 1 -1.1500000000000000e-01 -1.0192985132466202e+01 4.7944334758048840e-01 2.7867541598399271e+01 1 1 0
286 16 2 1.1500000000000000e-01 -1.3759267233612297e+01 4.9356291304417071e-01 2.3693045610923026e+01 1 0 0
633 36 3 0.0000000000000000e+00 -9.4373976457321724e+00 5.6398465525516146e+00 2.5211919777601810e+01 1 0 0
4437 236 2 1.1500000000000000e-01 -1.0189226699019358e+01 1.3109471989359711e+00 2.3939901293450522e+01 1 1 0
640 36 1 -1.1500000000000000e-01 -9.7163030931122591e+00 4.7285641254860664e+00 2.7916149675889159e+01 1 0 0
641 36 4 -1.1500000000000000e-01 -8.9822266431441804e+00 4.0066475191915778e+00 2.7036598167490890e+01 1 0 0
642 36 3 0.0000000000000000e+00 -8.8690974064793444e+00 4.4471401946527687e+00 2.5652858496773689e+01 1 0 0
643 36 4 -1.1500000000000000e-01 -8.0717056132187679e+00 3.6903612499574461e+00 2.4740986096669637e+01 1 0 0
622 35 1 -1.1500000000000000e-01 -5.4459154785716466e+00 4.8247281895823493e+00 2.1023023991580342e+01 1 0 0
359 20 2 1.1500000000000000e-01 -6.2541956773223468e+00 1.1899701761431039e-01 2.6917995558145886e+01 1 0 0
646 36 2 1.1500000000000000e-01 -8.5826128342614663e+00 3.1089788105310512e+00 2.7452130668572661e+01 1 0 0
647 36 2 1.1500000000000000e-01 -7.6639462834834555e+00 2.7934425896415247e+00 2.5186893435410827e+01 1 0 0
756 36 6 0.0000000000000000e+00 -9.2976692815302684e+00 4.9585173134332043e+00 2.5371811041305254e+01 1 0 0
281 16 4 -1.1500000000000000e-01 -1.3365398173441568e+01 1.4532152726096632e+00 2.3983494606466245e+01 1 0 0
4434 236 4 -1.1500000000000000e-01 -1.0214244125199141e+01 8.3032358098631487e-01 2.6558191900186525e+01 1 1 0
1047 56 2 1.1500000000000000e-01 -1.4878759942082949e+01 6.1395498562269397e+00 2.6041716054450394e+01 1 0 0
1093 59 2 1.1500000000000000e-01 -2.4958682426440930e+00 6.2909079296013068e+00 2.0507668445928992e+01 1 0 0
352 20 1 -1.1500000000000000e-01 -4.4855158182540293e+00 1.6097586166195386e+00 2.3659888777013425e+01 1 0 0
1119 60 2 1.1500000000000000e-01 -6.6707738620552082e+00 5.8770067201482874e+00 2.5842223480453374e+01 1 0 0
231 13 2 1.1500000000000000e-01 -1.6256225709295919e+01 2.1916701344018539e+00 2.9398333690117532e+01 1 0 -1
648 36 2 1.1500000000000000e-01 -1.0799921732432274e+01 6.4983472980752062e+00 2.8320805569579129e+01 1 0 0
353 20 4 -1.1500000000000000e-01 -5.0495330975809285e+00 9.6125016878718994e-01 2.4793833108194512e+01 1 0 0
4432 236 5 -1.1500000000000000e-01 -9.5629120961906366e+00 4.8892769029657607e-01 2.4293668764796291e+01 1 1 0
333 19 2 1.1500000000000000e-01 -2.7073635736046580e+00 4.5360857315446285e-01 2.0551638409986886e+01 1 0 0
1039 56 2 1.1500000000000000e-01 -1.5044760559252982e+01 7.0390167211701442e+00 2.8300798007454116e+01 1 0 0
626 35 1 -1.1500000000000000e-01 -6.0519151042779153e+00 6.0725401251213702e+00 2.0695774278272300e+01 1 0 0
329 19 1 -1.1500000000000000e-01 -1.9200427614316009e+00 1.1157692973152464e+00 2.0133156817262751e+01 1 0 0
4448 236 2 1.1500000000000000e-01 -1.0721779228953121e+01 9.6300838150129930e-01 2.8663866359476089e+01 1 1 0
4426 235 1 -1.1500000000000000e-01 -6.2608845883815230e+00 4.2368654144050338e-01 2.0343278712306848e+01 1 1 0
1115 60 4 -1.1500000000000000e-01 -6.2822876612295406e+00 6.7797443726553528e+00 2.6221195457075741e+01 1 0 0
740 20 6 0.0000000000000000e+00 -4.9777176029331045e+00 2.3530944531724041e+00 2.6236526275058882e+01 1 0 0
276 16 2 1.1500000000000000e-01 -1.3765897014392396e+01 2.9956631436823717e+00 2.9158919716848580e+01 1 0 0
630 35 2 1.1500000000000000e-01 -6.4804485787885850e+00 6.8013213064396973e+00 2.1366932337939659e+01 1 0 0
1021 55 2 1.1500000000000000e-01 -1.0410783408997238e+01 6.4395512918067777e+00 2.0424053660128493e+01 1 0 0
637 36 2 1.1500000000000000e-01 -9.4921772814217071e+00 7.1016233728453138e+00 2.3606718200649176e+01 1 0 0
1113 60 4 -1.1500000000000000e-01 -5.1309860594720664e+00 7.0414269379804457e+00 2.4153256403914849e+01 1 0 0
645 36 2 1.1500000000000000e-01 -9.7685262543417064e+00 4.4999096325176584e+00 2.8921801575905043e+01 1 0 0
4436 236 2 1.1500000000000000e-01 -9.0217864777300054e+00 2.7104068943591830e-01 2.2333218553370134e+01 1 1 0
1111 60 2 1.1500000000000000e-01 -6.9394252133329637e+00 6.4643136981827629e+00 2.8247633689451540e+01 1 0 0
347 20 1 -1.1500000000000000e-01 -6.1040456763577691e+00 1.8223185892602400e+00 2.8273031837353003e+01 1 0 0
351 20 2 1.1500000000000000e-01 -6.6540010481371343e+00 1.3829956403044787e+00 2.9125542396933881e+01 1 0 0
1089 59 1 -1.1500000000000000e-01 -1.9857793819741580e+00 7.0735608210807994e+00 1.9937447624083468e+01 1 0 0
1017 55 1 -1.1500000000000000e-01 -9.8874810218705935e+00 7.0291659735762408e+00 1.9711752101005672e+01 1 0 0
1107 60 1 -1.1500000000000000e-01 -6.4297587181191300e+00 7.0928179445354349e+00 2.7545227518937676e+01 1 0 0
979 53 3 0.0000000000000000e+00 -1.2025979176592383e-01 9.1317674306942216e+00 3.3208910923460029e+00 1 0 0
980 53 4 -1.1500000000000000e-01 5.7408532915656907e-01 1.0015882612589758e+01 2.5067042119901251e+00 1 0 0
984 53 2 1.1500000000000000e-01 1.0924958165080216e+00 1.0711636234589315e+01 3.0071756940422882e+00 1 0 0
1361 74 2 1.1500000000000000e-01 -1.1661338585339012e+00 1.3226282206494020e+01 8.4672629104954424e+00 1 0 0
1841 98 2 1.1500000000000000e-01 4.2661699476899155e+00 1.4145520070677602e+01 7.2962410612535269e+00 1 0 0
1080 58 1 -1.1500000000000000e-01 4.4894797698450386e+00 9.7872099020680050e+00 8.5853506865789218e+00 1 0 0
990 53 1 -1.1500000000000000e-01 6.1731138593936041e-01 9.9371391059402914e+00 1.1350682704340891e+00 1 0 0
2253 93 6 0.0000000000000000e+00 -3.7363183169333314e-01 1.4270894468527873e+01 2.9998715376582923e+00 1 0 0
1837 98 4 -1.1500000000000000e-01 3.5566673548958327e+00 1.3491180094461420e+01 9.1638036226582713e+00 1 0 0
1493 53 6 0.0000000000000000e+00 -5.6234558730544459e-01 8.6574285873451160e+00 2.9698644788397197e+00 1 0 0
986 53 1 -1.1500000000000000e-01 -1.3614082287039647e-01 8.9114746111519008e+00 5.1154479529659036e-01 1 0 0
1005 54 4 -1.1500000000000000e-01 -4.5134130469514959e+00 7.2032154766695706e+00 8.8861019376799337e+00 1 0 0
1809 97 7 -1.1500000000000000e-01 6.9397999144488711e+00 1.4307610270485037e+01 5.2523941300036103e+00 1 0 0
994 53 2 1.1500000000000000e-01 1.2047332622492191e+00 1.0738873134118258e+01 5.8529510715882282e-01 1 0 0