LAMMPS data file via write_data, version 15 May 2015, timestep = 1000000

4560 atoms
7 atom types
5040 bonds
3 bond types
7200 angles
2 angle types
10560 dihedrals
3 dihedral types
2400 impropers
1 improper types

-1.0763502675555259e-01 4.1387635026745990e+01 xlo xhi
-4.0433884491974936e-02 3.5938433884472119e+01 ylo yhi
-3.5711112484589691e-01 2.9555111124838550e+01 zlo zhi
-6.7234083837551181e-02 -1.7036217651000683e+01 -4.1707816797290791e-02 xy xz yz

Masses

1 12.0107
2 1.008
3 12.0107
4 12.0107
5 12.0107
6 12.0107
7 12.0107

Pair Coeffs # lj/cut/coul/long

1 0.07 3.55
2 0.03 2.42
3 0.07 3.55
4 0.07 3.55
5 0.07 3.55
6 0 0
7 0.07 3.55

Bond Coeffs # harmonic

1 469 1.4
2 367 1.08
3 469 0.7

Angle Coeffs # harmonic

1 35 120
2 63 120

Dihedral Coeffs # opls

1 0 7.25 0 0
2 0 7.25 0 0
3 0 7.25 0 0

Improper Coeffs # cvff

1 2.5 -1 2

Atoms # full

219 13 3 0.0000000000000000e+00 -3.4979981378319924e-01 3.1494605857904672e+00 2.9965965891202160e+00 1 0 0
220 13 4 -1.1500000000000000e-01 2.8295127802728626e-01 4.0942334617362173e+00 2.1165487194592520e+00 1 0 0
224 13 2 1.1500000000000000e-01 6.3719384723140671e-01 5.0090705169932246e+00 2.5236734062021946e+00 1 0 0
580 33 4 -1.1500000000000000e-01 2.5939308182677832e+00 6.5415023179752847e+00 4.1937164285695481e+00 1 0 0
228 13 3 0.0000000000000000e+00 -8.1676110564372639e-01 1.9366773285945809e+00 2.5050177552469584e+00 1 0 0
989 53 4 -1.1500000000000000e-01 -1.6271726978233239e+00 6.9880204533589634e+00 3.3363257852841750e+00 1 0 0
600 34 2 1.1500000000000000e-01 -2.2017386166228725e-02 5.6584324023316848e+00 7.0496614122086818e+00 1 0 0
982 53 2 1.1500000000000000e-01 -1.2224307491933679e+00 7.9111892345203518e+00 6.5164885028597315e+00 1 0 0
227 13 4 -1.1500000000000000e-01 -6.7233376577572213e-01 1.5903960183978936e+00 1.1377340448144564e+00 1 0 0
4390 233 1 -1.1500000000000000e-01 2.1639973228347347e+00 4.2065828217822232e-01 5.6762525395665957e+00 1 1 0
733 13 6 0.0000000000000000e+00 -6.5561567888618000e-01 2.5009741911237047e+00 2.9068279018636649e+00 1 0 0
4401 234 2 1.1500000000000000e-01 -9.7385786839888233e-01 1.1805076150510743e+00 8.9282114725379262e+00 1 1 0
230 13 1 -1.1500000000000000e-01 4.8709560506699112e-01 3.7559175437186281e+00 7.4687124682136030e-01 1 0 0
217 13 7 -1.1500000000000000e-01 -1.2091745413096922e+00 2.7096488860623200e+00 5.2626679503722125e+00 1 0 0
218 13 5 -1.1500000000000000e-01 -6.0349412336243624e-01 3.5928931664242652e+00 4.3423315972150967e+00 1 0 0
221 13 1 -1.1500000000000000e-01 -1.6173781528124038e+00 1.3969880023914452e+00 4.7690841081098130e+00 1 0 0
222 13 2 1.1500000000000000e-01 -1.3322967996306008e+00 3.0398931976345023e+00 6.2743529580824218e+00 1 0 0
223 13 2 1.1500000000000000e-01 -1.8109204407730539e-01 4.4465842687848083e+00 4.6954187773606328e+00 1 0 0
248 14 1 -1.1500000000000000e-01 -3.4485476212322883e+00 3.4539060467909173e+00 8.8717854362250748e+00 1 0 0
4380 233 4 -1.1500000000000000e-01 2.3269139901538449e+00 9.0057240743947575e-01 4.3632760532706891e+00 1 1 0
244 14 1 -1.1500000000000000e-01 -3.9413988195497858e+00 2.2746966019827433e+00 8.2996669360058863e+00 1 0 0
603 34 2 1.1500000000000000e-01 7.1084357605156345e-01 3.3828114474527782e+00 7.9342868894711902e+00 1 0 0
591 33 2 1.1500000000000000e-01 3.3443219321684099e+00 4.8068110074635078e+00 7.0141952987081471e+00 1 0 0
4394 233 2 1.1500000000000000e-01 1.5357737015083557e+00 9.1937887858104284e-01 6.3341142047270047e+00 1 1 0
579 33 3 0.0000000000000000e+00 3.3611450169817041e+00 5.7901945188582511e+00 3.2291844652173660e+00 1 0 0
252 14 2 1.1500000000000000e-01 -2.9306398849024231e+00 4.1429834786046769e+00 8.2082934150848725e+00 1 0 0
581 33 1 -1.1500000000000000e-01 4.6499255460626951e+00 4.1649290717480403e+00 1.2709210992910984e+00 1 0 0
596 34 5 -1.1500000000000000e-01 -4.4711755025944111e-01 6.3281716271916375e+00 8.9746904347596015e+00 1 0 0
577 33 7 -1.1500000000000000e-01 4.2137283571219468e+00 5.3991024139977695e+00 9.1640789970706926e-01 1 0 0
588 33 3 0.0000000000000000e+00 3.9424763671876324e+00 4.5771071906878769e+00 3.6493116564806218e+00 1 0 0
589 33 4 -1.1500000000000000e-01 4.5031528700189254e+00 3.7215994110429347e+00 2.6390523884402453e+00 1 0 0
593 33 2 1.1500000000000000e-01 4.8978623570492932e+00 2.7869701964095985e+00 2.9253167258104185e+00 1 0 0
753 33 6 0.0000000000000000e+00 3.6632549795818141e+00 5.2132957436459346e+00 3.5107345372637901e+00 1 0 0
4383 233 2 1.1500000000000000e-01 2.7042246312838101e+00 1.3923358620301587e+00 1.8253274642593178e+00 1 1 0
584 33 2 1.1500000000000000e-01 2.0981965667623492e+00 7.4261051015533885e+00 3.8287933874813902e+00 1 0 0
578 33 5 -1.1500000000000000e-01 3.5144716786233219e+00 6.1898797258283969e+00 1.8821512016372233e+00 1 0 0
226 13 1 -1.1500000000000000e-01 -3.4352828501188482e-03 2.5166753012527887e+00 2.7972497072449443e-01 1 0 0
4384 233 2 1.1500000000000000e-01 1.8404028799985968e+00 1.8208360231621161e+00 4.0700722004845558e+00 1 1 0
586 33 1 -1.1500000000000000e-01 3.2481974488632481e+00 5.0075173512137985e+00 5.9758420251985269e+00 1 0 0
587 33 4 -1.1500000000000000e-01 3.9555388781102780e+00 4.2557149206938290e+00 5.0207541079247360e+00 1 0 0
585 33 2 1.1500000000000000e-01 5.0395799432164532e+00 3.5822192537158495e+00 4.6801987615312624e-01 1 0 0
987 53 4 -1.1500000000000000e-01 -6.7439739439481028e-01 7.8020867728787220e+00 1.2634183281371065e+00 1 0 0
592 33 2 1.1500000000000000e-01 4.5769970024795139e+00 3.4196872307874457e+00 5.2961724774096322e+00 1 0 0
590 33 1 -1.1500000000000000e-01 2.5337220535786122e+00 6.1177443971210499e+00 5.5316858924388930e+00 1 0 0
977 53 7 -1.1500000000000000e-01 -1.0758285575544888e+00 7.9892539605203190e+00 5.4222636240480773e+00 1 0 0
234 13 2 1.1500000000000000e-01 1.0387436482442207e+00 4.4250502549311896e+00 1.0723222924460507e-01 1 0 0
229 13 4 -1.1500000000000000e-01 -1.4302926197891193e+00 1.0335745710268598e+00 3.4449328441446045e+00 1 0 0
988 53 3 0.0000000000000000e+00 -8.4218462951804118e-01 7.9723580685429374e+00 2.6500442801140398e+00 1 0 0
985 53 2 1.1500000000000000e-01 -2.2391573064216965e+00 6.1988626659574546e+00 5.2122506966127657e+00 1 0 0
599 34 1 -1.1500000000000000e-01 3.5996668375945529e-01 4.1712929699241297e+00 8.4891976943691230e+00 1 0 0
4379 233 3 0.0000000000000000e+00 3.0999446957151640e+00 1.0717676488233689e-01 3.4600440044607677e+00 1 1 0
4396 234 5 -1.1500000000000000e-01 -6.4890447432648024e-01 2.1620812073702686e-01 9.3499975124856967e+00 1 1 0
595 34 7 -1.1500000000000000e-01 4.2298604576877175e-02 5.4300403907648445e+00 8.0805709648414190e+00 1 0 0
981 53 1 -1.1500000000000000e-01 -1.7413827673233131e+00 7.0154076756341999e+00 4.7091841754777342e+00 1 0 0
4378 233 5 -1.1500000000000000e-01 3.1829545209392793e+00 5.2134020823521188e-01 2.1065941867498226e+00 1 1 0
4382 233 2 1.1500000000000000e-01 3.9796371490776128e+00 1.3168261284938695e-01 1.3007004005580297e-01 1 1 0
583 33 2 1.1500000000000000e-01 2.9758772407058736e+00 7.0955975395473851e+00 1.6158965071082123e+00 1 0 0
245 14 4 -1.1500000000000000e-01 -4.6869684101110343e+00 1.3449545588277545e+00 9.0725410309344365e+00 1 0 0
249 14 2 1.1500000000000000e-01 -3.5422829732944234e+00 1.9127951796255329e+00 7.2572445332746849e+00 1 0 0
1493 53 6 0.0000000000000000e+00 -4.0913725499038223e-01 8.4968995877808542e+00 2.8208742273031939e+00 1 0 0
233 13 2 1.1500000000000000e-01 -1.7737975369351728e+00 5.4027137300505908e-02 3.0421117598607146e+00 1 0 0
1005 54 4 -1.1500000000000000e-01 -4.6792762125506098e+00 7.3775247609206742e+00 8.9466639539372803e+00 1 0 0
594 33 2 1.1500000000000000e-01 1.8432288724153900e+00 6.7608097883429936e+00 6.0254403975118054e+00 1 0 0
582 33 2 1.1500000000000000e-01 4.3713395123989551e+00 5.7288675402490279e+00 -1.7650187006594137e-01 1 0 0
601 34 2 1.1500000000000000e-01 -6.5856577099901514e-01 7.3427513313735817e+00 8.7403464263702215e+00 1 0 0
1004 54 1 -1.1500000000000000e-01 -3.9095667399584237e+00 8.0823512687027144e+00 8.0368636567677409e+00 1 0 0
225 13 2 1.1500000000000000e-01 -2.1803456279594000e+00 7.1470378988269845e-01 5.3205872862233745e+00 1 0 0
986 53 1 -1.1500000000000000e-01 1.4832208742398401e-01 8.7561787767373076e+00 5.8270623705026514e-01 1 0 0
250 14 2 1.1500000000000000e-01 -4.9683475426912835e+00 5.1284245291552510e-01 8.4597290349756307e+00 1 0 0
979 53 3 0.0000000000000000e+00 -1.7793455287011772e-01 8.9376410869513059e+00 3.3719956376096070e+00 1 0 0
1064 57 2 1.1500000000000000e-01 7.0918490006729709e+00 6.3088648140057533e+00 1.2695330304613670e+00 1 0 0
1010 54 2 1.1500000000000000e-01 -5.1722783537671972e+00 6.4675761044272955e+00 8.7976658425964231e+00 1 0 0
1009 54 2 1.1500000000000000e-01 -3.7692845385384057e+00 7.8031364742075846e+00 7.0141566593242812e+00 1 0 0
235 14 7 -1.1500000000000000e-01 -5.2546121808049726e+00 2.4109624990223226e+00 1.3098735493522177e+01 1 0 0
236 14 5 -1.1500000000000000e-01 -4.6300694797914304e+00 3.3819870080135988e+00 1.2245253961394974e+01 1 0 0
597 34 3 0.0000000000000000e+00 -6.2225313644824620e-01 5.9582502850816237e+00 1.0345372433461433e+01 1 0 0
734 14 6 0.0000000000000000e+00 -4.7203351687040200e+00 2.2985548982069637e+00 1.0675596729068801e+01 1 0 0
239 14 1 -1.1500000000000000e-01 -5.7047122963712376e+00 1.1410809706492899e+00 1.2669054091817479e+01 1 0 0
240 14 2 1.1500000000000000e-01 -5.4548785034385485e+00 2.6085133095815247e+00 1.4151373360693404e+01 1 0 0
1015 55 3 0.0000000000000000e+00 -8.6938527084835737e+00 8.8228288597835807e+00 1.7967286233437214e+01 1 0 0
4416 235 4 -1.1500000000000000e-01 -6.0754865411339942e+00 7.3172177168214980e-01 1.9216407313758339e+01 1 1 0
4420 235 2 1.1500000000000000e-01 -6.5872881911071604e+00 1.6427942853455331e+00 1.8891429411365692e+01 1 1 0
237 14 3 0.0000000000000000e+00 -4.4799243055810543e+00 2.9305899882207611e+00 1.0933577983580832e+01 1 0 0
4402 234 2 1.1500000000000000e-01 -1.8322011609938524e+00 1.7912458663597977e+00 1.1256406344660320e+01 1 1 0
602 34 2 1.1500000000000000e-01 -1.5073194944525925e+00 7.8071705212560136e+00 1.0982889946854291e+01 1 0 0
268 15 2 1.1500000000000000e-01 -9.2605563068749444e+00 2.5965934832037285e-01 1.5909879632568131e+01 1 0 0
255 15 3 0.0000000000000000e+00 -8.7019241830569971e+00 3.0015750244686745e+00 1.8055260337367461e+01 1 0 0
256 15 4 -1.1500000000000000e-01 -7.8185859656557177e+00 3.6554337434792239e+00 1.7212738471954353e+01 1 0 0
260 15 2 1.1500000000000000e-01 -7.3346478167198068e+00 4.5294774126165578e+00 1.7531219126336040e+01 1 0 0
1006 54 3 0.0000000000000000e+00 -4.8590155943323428e+00 7.8007944894966359e+00 1.0245012603564327e+01 1 0 0
995 54 7 -1.1500000000000000e-01 -5.2654718835330492e+00 8.7373260454340240e+00 1.2786924048832294e+01 1 0 0
264 15 3 0.0000000000000000e+00 -9.2680012818578827e+00 1.7803411773682072e+00 1.7609915596106088e+01 1 0 0
269 15 2 1.1500000000000000e-01 -1.0544171216515707e+01 1.3418527788475892e-01 1.8153611840420087e+01 1 0 0
266 15 1 -1.1500000000000000e-01 -7.6188135410309519e+00 3.2187312974020048e+00 1.5904503259705461e+01 1 0 0
243 14 2 1.1500000000000000e-01 -6.1518585798468104e+00 4.4303238560861236e-01 1.3345842276589291e+01 1 0 0
607 34 4 -1.1500000000000000e-01 2.1078537384786067e-01 3.7445844183642869e+00 9.7840760773404387e+00 1 0 0
4414 235 5 -1.1500000000000000e-01 -5.3337464732853608e+00 1.8098941941551325e-01 1.6937388886216119e+01 1 1 0
735 15 6 0.0000000000000000e+00 -8.9566134484937798e+00 2.3806662495329727e+00 1.7825940931019339e+01 1 0 0
246 14 3 0.0000000000000000e+00 -4.9466699910354865e+00 1.7060899809256442e+00 1.0393125016007943e+01 1 0 0
265 15 4 -1.1500000000000000e-01 -1.0141506154439448e+01 1.1008697729117822e+00 1.8438915988353386e+01 1 0 0
604 34 1 -1.1500000000000000e-01 -1.0183440020492416e+00 5.2506415343756059e+00 1.3069100945003422e+01 1 0 0
605 34 4 -1.1500000000000000e-01 -5.3410955015576000e-01 4.3007980780471362e+00 1.2110652116901202e+01 1 0 0
606 34 3 0.0000000000000000e+00 -2.6741952382763934e-01 4.6936139951692519e+00 1.0770651515641667e+01 1 0 0
254 15 5 -1.1500000000000000e-01 -9.0433353719403957e+00 3.5083453873859072e+00 1.9313255512210226e+01 1 0 0
1024 55 3 0.0000000000000000e+00 -9.1840311657139395e+00 7.6767066416397665e+00 1.7386065974861946e+01 1 0 0
263 15 4 -1.1500000000000000e-01 -8.9224327733051734e+00 1.2223023057639961e+00 1.6316079115632498e+01 1 0 0
610 34 2 1.1500000000000000e-01 -3.1584774395621462e-01 3.3091129724618997e+00 1.2408866956348570e+01 1 0 0
241 14 2 1.1500000000000000e-01 -4.1207579673217367e+00 4.3083005389605562e+00 1.2680865664670838e+01 1 0 0
611 34 2 1.1500000000000000e-01 4.3711829353458764e-01 2.7530535921925745e+00 1.0113264479514005e+01 1 0 0
598 34 4 -1.1500000000000000e-01 -1.1307310375481858e+00 6.8715516973659128e+00 1.1310703341091505e+01 1 0 0
754 34 6 0.0000000000000000e+00 -4.6710088462402410e-01 5.3535809661007354e+00 1.0742133258117372e+01 1 0 0
238 14 4 -1.1500000000000000e-01 -3.7924221959084603e+00 3.8500158875945760e+00 1.0182604085773892e+01 1 0 0
613 35 7 -1.1500000000000000e-01 -4.5690113547517450e+00 5.5876366569172511e+00 1.6104924691100251e+01 1 0 0
618 35 2 1.1500000000000000e-01 -4.5151532417541578e+00 6.0025363083424139e+00 1.5064531040363418e+01 1 0 0
615 35 3 0.0000000000000000e+00 -5.3213326149501903e+00 5.7587419958728994e+00 1.8417188816935173e+01 1 0 0
617 35 1 -1.1500000000000000e-01 -3.9708452380014672e+00 4.3375447582255333e+00 1.6347116039169617e+01 1 0 0
621 35 2 1.1500000000000000e-01 -3.4428182121604527e+00 3.7418179403397209e+00 1.5613108158029682e+01 1 0 0
624 35 3 0.0000000000000000e+00 -4.6958771045891439e+00 4.5483805427551784e+00 1.8702683764286270e+01 1 0 0
625 35 4 -1.1500000000000000e-01 -3.9775375993898017e+00 3.8606956949797193e+00 1.7680812161846386e+01 1 0 0
629 35 2 1.1500000000000000e-01 -3.4750947748828072e+00 2.9110744484992375e+00 1.7942664972338104e+01 1 0 0
755 35 6 0.0000000000000000e+00 -4.9016706250506754e+00 5.1787942440043144e+00 1.8486256719163915e+01 1 0 0
270 15 2 1.1500000000000000e-01 -7.0834464182242955e+00 3.8631697682643398e+00 1.5251581692308667e+01 1 0 0
4398 234 4 -1.1500000000000000e-01 -1.4506672279734856e+00 8.5554467901629061e-01 1.1582559641508068e+01 1 1 0
4412 234 2 1.1500000000000000e-01 -1.9377617530011184e+00 1.4580498725135540e+00 1.3506707287601467e+01 1 1 0
614 35 5 -1.1500000000000000e-01 -5.1729248869739459e+00 6.2939611525264247e+00 1.7123257062494083e+01 1 0 0
247 14 4 -1.1500000000000000e-01 -5.5311489683592985e+00 8.2792991351757605e-01 1.1319556825020499e+01 1 0 0
4419 235 2 1.1500000000000000e-01 -5.8442106801922495e+00 1.1245811592724591e+00 1.6563445350763569e+01 1 1 0
1025 55 4 -1.1500000000000000e-01 -9.8317328052591044e+00 6.7501662382829082e+00 1.8235675934297380e+01 1 0 0
608 34 1 -1.1500000000000000e-01 -1.3770059195300570e+00 6.5304657193734661e+00 1.2663845991176895e+01 1 0 0
999 54 1 -1.1500000000000000e-01 -5.8916929935658757e+00 7.5502922450564176e+00 1.2454252645761109e+01 1 0 0
612 34 2 1.1500000000000000e-01 -1.8749019694941449e+00 7.1866878910548477e+00 1.3381905942323424e+01 1 0 0
1022 55 1 -1.1500000000000000e-01 -8.2355232341168421e+00 8.2809296366808756e+00 1.5252908156190459e+01 1 0 0
242 14 2 1.1500000000000000e-01 -3.4996123141442164e+00 4.7717991917372586e+00 1.0605495931481588e+01 1 0 0
1007 54 4 -1.1500000000000000e-01 -5.6479707270424795e+00 7.0685759945766806e+00 1.1141718910269462e+01 1 0 0
1495 55 6 0.0000000000000000e+00 -8.8145918283386884e+00 8.2911477070889532e+00 1.7499763049437572e+01 1 0 0
616 35 4 -1.1500000000000000e-01 -6.0551954802129515e+00 6.4417473443831987e+00 1.9355240402817497e+01 1 0 0
619 35 2 1.1500000000000000e-01 -5.6733524495313397e+00 7.2537249419171257e+00 1.6946820231935753e+01 1 0 0
609 34 2 1.1500000000000000e-01 -1.2270275174885743e+00 4.9072845296242953e+00 1.4068314544423099e+01 1 0 0
1494 54 6 0.0000000000000000e+00 -4.6922736096732178e+00 8.4184917929478189e+00 1.0610347216825339e+01 1 0 0
1003 54 2 1.1500000000000000e-01 -6.4824450303014585e+00 6.9913714424130005e+00 1.3150083548978941e+01 1 0 0
262 15 1 -1.1500000000000000e-01 -8.1003606680016720e+00 1.9911634336934589e+00 1.5443878034559789e+01 1 0 0
1023 55 4 -1.1500000000000000e-01 -8.9905381502614521e+00 7.4065584376129054e+00 1.6067729056389229e+01 1 0 0
4408 234 1 -1.1500000000000000e-01 -1.5413971098290755e+00 5.8846318674271347e-01 1.2934285340209282e+01 1 1 0
620 35 2 1.1500000000000000e-01 -6.4492246848517718e+00 7.4195158403182342e+00 1.9210809973406331e+01 1 0 0
1027 55 2 1.1500000000000000e-01 -8.0881852973232213e+00 7.9397064796825720e+00 1.4231427964532001e+01 1 0 0
1029 55 2 1.1500000000000000e-01 -1.0322167699389505e+01 5.9023728005221905e+00 1.7669411669709188e+01 1 0 0
1011 54 2 1.1500000000000000e-01 -6.0330810353908504e+00 6.0692926531656211e+00 1.0897612785137428e+01 1 0 0
1389 75 2 1.1500000000000000e-01 -3.3929430404080554e+00 8.8807990494506139e+00 1.7272445157244505e+01 1 0 0
267 15 2 1.1500000000000000e-01 -7.9763857311114625e+00 1.5636648041624672e+00 1.4484711464261187e+01 1 0 0
1100 59 2 1.1500000000000000e-01 -1.1273360971174746e+00 6.5035318259744770e+00 1.5981808247076781e+01 1 0 0
280 16 1 -1.1500000000000000e-01 -1.2593190303597028e+01 2.3135320344159718e+00 2.3441066145357361e+01 1 0 0
1013 55 7 -1.1500000000000000e-01 -9.6269284013839069e+00 8.1883072658642284e+00 2.0186332832030523e+01 1 0 0
258 15 2 1.1500000000000000e-01 -1.0185287307344296e+01 3.1064687900387660e+00 2.1159898383099062e+01 1 0 0
634 36 4 -1.1500000000000000e-01 -1.0061592831553142e+01 6.5501639209777407e+00 2.6452939544125524e+01 1 0 0
1040 56 1 -1.1500000000000000e-01 -1.2727246759974763e+01 8.2320165505078364e+00 2.3055489603638573e+01 1 0 0
279 16 2 1.1500000000000000e-01 -1.4788915588004709e+01 4.4179042479329156e-01 2.8419259695838051e+01 1 0 0
284 16 1 -1.1500000000000000e-01 -1.2454019915654111e+01 3.6302102463733066e+00 2.3867167439883772e+01 1 0 0
1118 60 2 1.1500000000000000e-01 -5.8989433144857930e+00 5.9919921628696642e+00 2.3634158232634967e+01 1 0 0
1041 56 4 -1.1500000000000000e-01 -1.3424592484343439e+01 7.4259297583905726e+00 2.3963698591153115e+01 1 0 0
288 16 2 1.1500000000000000e-01 -1.2028853391748090e+01 4.4117457429631024e+00 2.3269884476369974e+01 1 0 0
271 16 7 -1.1500000000000000e-01 -1.3859422874220359e+01 2.3883547053814311e+00 2.8284670727612724e+01 1 0 0
272 16 5 -1.1500000000000000e-01 -1.3329425564172396e+01 3.3420485872704462e+00 2.7408274107651323e+01 1 0 0
273 16 3 0.0000000000000000e+00 -1.3224433003128809e+01 3.0001767068413248e+00 2.6044483533292137e+01 1 0 0
274 16 4 -1.1500000000000000e-01 -1.2739879017560426e+01 3.9823648299090078e+00 2.5188819307013638e+01 1 0 0
275 16 1 -1.1500000000000000e-01 -1.4264796784033170e+01 1.1234372345395525e+00 2.7827360149821065e+01 1 0 0
1047 56 2 1.1500000000000000e-01 -1.4775650855020555e+01 6.1538550858984289e+00 2.5871708862978743e+01 1 0 0
277 16 2 1.1500000000000000e-01 -1.3149261510463759e+01 4.3279614422681787e+00 2.7780056536917403e+01 1 0 0
278 16 2 1.1500000000000000e-01 -1.2612128483473221e+01 4.9456455459961886e+00 2.5527763092734133e+01 1 0 0
261 15 2 1.1500000000000000e-01 -1.1195039302449016e+01 1.0567026441045786e+00 2.0344853579345408e+01 1 0 0
282 16 3 0.0000000000000000e+00 -1.3541663135835300e+01 1.7315397856712829e+00 2.5579022826307327e+01 1 0 0
1043 56 4 -1.1500000000000000e-01 -1.4288408960633875e+01 7.0329324920337131e+00 2.6217494711921752e+01 1 0 0
736 16 6 0.0000000000000000e+00 -1.3366044661731980e+01 2.3679041040255049e+00 2.5690690949690328e+01 1 0 0
632 36 5 -1.1500000000000000e-01 -9.4293380861245915e+00 6.1928132802207010e+00 2.4089734685341050e+01 1 0 0
636 36 2 1.1500000000000000e-01 -8.9293143914113369e+00 5.7170636187739001e+00 2.2110811161990522e+01 1 0 0
4438 236 2 1.1500000000000000e-01 -1.0793207469095474e+01 1.6915338156879716e+00 2.6382158565117479e+01 1 1 0
253 15 7 -1.1500000000000000e-01 -9.9740623885682087e+00 2.7580635645033702e+00 2.0133024778021582e+01 1 0 0
4444 236 1 -1.1500000000000000e-01 -1.0200465387201170e+01 3.2163781216605147e-01 2.7909464944116394e+01 1 1 0
257 15 1 -1.1500000000000000e-01 -1.0487605011274194e+01 1.5161194641607660e+00 1.9709936935799831e+01 1 0 0
644 36 1 -1.1500000000000000e-01 -1.0291545741242363e+01 6.0561921162355006e+00 2.7676182969235505e+01 1 0 0
631 36 7 -1.1500000000000000e-01 -8.7872763878769575e+00 5.3556765672843376e+00 2.3158540272998469e+01 1 0 0
635 36 1 -1.1500000000000000e-01 -8.1315806898540952e+00 4.1830546790190661e+00 2.3577354788061452e+01 1 0 0
4432 236 5 -1.1500000000000000e-01 -9.3616625904806909e+00 5.6641084413939302e-01 2.4248774986537228e+01 1 1 0
639 36 2 1.1500000000000000e-01 -7.5944370601620799e+00 3.6105725740940402e+00 2.2867245070674770e+01 1 0 0
283 16 4 -1.1500000000000000e-01 -1.4087485458690111e+01 7.9829377350681852e-01 2.6465687085057446e+01 1 0 0
4430 235 2 1.1500000000000000e-01 -6.4349517455414285e+00 1.2801453866611685e+00 2.1281722299423947e+01 1 1 0
623 35 4 -1.1500000000000000e-01 -4.7691882190729684e+00 4.0344074657054412e+00 2.0027577128268394e+01 1 0 0
638 36 2 1.1500000000000000e-01 -1.0469942895592023e+01 7.5085735567523475e+00 2.6238653988564270e+01 1 0 0
633 36 3 0.0000000000000000e+00 -9.4830065603738465e+00 5.7506898686071732e+00 2.5415084427992731e+01 1 0 0
4437 236 2 1.1500000000000000e-01 -9.8154923409030310e+00 1.4711323039695403e+00 2.3973313013616803e+01 1 1 0
640 36 1 -1.1500000000000000e-01 -9.7575898768618607e+00 4.8288778132239107e+00 2.8022315598286433e+01 1 0 0
641 36 4 -1.1500000000000000e-01 -9.1234318539703310e+00 4.0155834142899938e+00 2.7072124906916397e+01 1 0 0
642 36 3 0.0000000000000000e+00 -8.9042415508599113e+00 4.5223419691471483e+00 2.5801042473552375e+01 1 0 0
643 36 4 -1.1500000000000000e-01 -8.1567933347932886e+00 3.7559570840966834e+00 2.4920791075546010e+01 1 0 0
622 35 1 -1.1500000000000000e-01 -5.5072531384284833e+00 4.6983748409519528e+00 2.0975063661379949e+01 1 0 0
646 36 2 1.1500000000000000e-01 -8.7456071843273850e+00 3.0827184773719427e+00 2.7423668890453687e+01 1 0 0
647 36 2 1.1500000000000000e-01 -7.7470994063383438e+00 2.7870198536013056e+00 2.5206238359776759e+01 1 0 0
756 36 6 0.0000000000000000e+00 -9.1813205234024782e+00 5.0897000026532897e+00 2.5514476716610030e+01 1 0 0
281 16 4 -1.1500000000000000e-01 -1.3219679128179868e+01 1.3695696064265042e+00 2.4274278666380024e+01 1 0 0
4434 236 4 -1.1500000000000000e-01 -1.0253113457307629e+01 7.6002703350448275e-01 2.6555529992068919e+01 1 1 0
991 53 2 1.1500000000000000e-01 -1.6646630286902059e+01 8.6396014266982508e+00 2.9401886911348960e+01 1 0 -1
1063 57 2 1.1500000000000000e-01 -8.7982438220492885e+00 7.7282035656769477e+00 2.9363447034627605e+01 1 0 -1
648 36 2 1.1500000000000000e-01 -1.0827096976571418e+01 6.5971217514695653e+00 2.8428294955983272e+01 1 0 0
231 13 2 1.1500000000000000e-01 -1.6802320641595802e+01 2.0967403105586087e+00 2.9205912874115832e+01 1 0 -1
1039 56 2 1.1500000000000000e-01 -1.5021177069427022e+01 6.6939876465228556e+00 2.8271712550127379e+01 1 0 0
626 35 1 -1.1500000000000000e-01 -6.2070255834391492e+00 5.9010474551859504e+00 2.0647301727644923e+01 1 0 0
4448 236 2 1.1500000000000000e-01 -1.0644988040597347e+01 9.6865525936739560e-01 2.8643809489732448e+01 1 1 0
627 35 2 1.1500000000000000e-01 -5.4709005658773107e+00 4.3020042562671188e+00 2.2003121705999323e+01 1 0 0
286 16 2 1.1500000000000000e-01 -1.3478586648159370e+01 4.0943007839897433e-01 2.3895585709787010e+01 1 0 0
630 35 2 1.1500000000000000e-01 -6.6916869443824964e+00 6.4569538845038688e+00 2.1411940151862950e+01 1 0 0
4433 236 3 0.0000000000000000e+00 -9.5402940060925410e+00 2.5908596179557715e-02 2.5577011875079478e+01 1 1 0
637 36 2 1.1500000000000000e-01 -9.9335039319334939e+00 7.1226111056103472e+00 2.3779877008461256e+01 1 0 0
645 36 2 1.1500000000000000e-01 -9.7562335538196301e+00 4.5702369925949595e+00 2.9087602192110239e+01 1 0 0
1042 56 3 0.0000000000000000e+00 -1.3528433043964222e+01 7.7495482756635461e+00 2.5288172496032466e+01 1 0 0
276 16 2 1.1500000000000000e-01 -1.3926237029043556e+01 2.6524846372379729e+00 2.9330664053106663e+01 1 0 0
1035 56 1 -1.1500000000000000e-01 -1.4439926412742791e+01 7.4137849259101332e+00 2.7601929627350525e+01 1 0 0
1021 55 2 1.1500000000000000e-01 -1.0550012289586027e+01 6.1485998915169393e+00 2.0308449550953899e+01 1 0 0
1496 56 6 0.0000000000000000e+00 -1.3079180284045854e+01 8.2793444531341027e+00 2.5451172701168346e+01 1 0 0
1031 56 7 -1.1500000000000000e-01 -1.3879310974938965e+01 8.6155552585903088e+00 2.8003900571147096e+01 1 0 0
1045 56 2 1.1500000000000000e-01 -1.2541811846136273e+01 8.0023020392718358e+00 2.2059851372340457e+01 1 0 0
628 35 2 1.1500000000000000e-01 -4.2226749697132515e+00 3.1329032411535405e+00 2.0244556128878465e+01 1 0 0
1018 55 2 1.1500000000000000e-01 -9.8337506119587150e+00 8.4277067537067527e+00 2.1197030612123360e+01 1 0 0
4436 236 2 1.1500000000000000e-01 -8.3692775280003922e+00 1.6443851211364702e-01 2.2300431184804715e+01 1 1 0
4426 235 1 -1.1500000000000000e-01 -6.0379243191167182e+00 5.1191937915695074e-01 2.0571593382723318e+01 1 1 0
285 16 2 1.1500000000000000e-01 -1.2434658863391725e+01 2.1335063365681157e+00 2.2426592992608871e+01 1 0 0
259 15 2 1.1500000000000000e-01 -8.6863101760072929e+00 4.4652287134851063e+00 1.9694564629382754e+01 1 0 0
1036 56 2 1.1500000000000000e-01 -1.3998886999005560e+01 8.9099089014956547e+00 2.9061655423068810e+01 1 0 0
1017 55 1 -1.1500000000000000e-01 -1.0086657336341055e+01 6.9620127619236545e+00 1.9648602789587791e+01 1 0 0
1764 94 1 -1.1500000000000000e-01 -3.8268156405405009e+00 1.4327833824034181e+01 8.0846737911449260e+00 1 0 0
980 53 4 -1.1500000000000000e-01 6.1498153492589314e-01 9.9374209715905018e+00 2.7526552221904765e+00 1 0 0
984 53 2 1.1500000000000000e-01 9.5853244398999848e-01 1.0767640882513604e+01 3.3660064290928964e+00 1 0 0
1361 74 2 1.1500000000000000e-01 -8.3815469480149796e-01 1.2994466874280585e+01 7.9533995858689401e+00 1 0 0
990 53 1 -1.1500000000000000e-01 6.7648673572744911e-01 9.8223599770284604e+00 1.3032517004862976e+00 1 0 0
2253 93 6 0.0000000000000000e+00 -4.6906424938475877e-01 1.4321432170770805e+01 2.9787674571328480e+00 1 0 0
994 53 2 1.1500000000000000e-01 1.2480860021114990e+00 1.0503259793469550e+01 7.3516899050538864e-01 1 0 0
1741 93 1 -1.1500000000000000e-01 -1.3919200872366539e+00 1.3272603167082158e+01 5.0500994803705357e+00 1 0 0
1753 93 2 1.1500000000000000e-01 -1.8534521969689981e+00 1.1960366712833757e+01 3.4241650862777111e+00 1 0 0
983 53 2 1.1500000000000000e-01 1.6490439749584818e-01 9.8127267050199052e+00 5.3394532237383574e+00 1 0 0
1345 73 2 1.1500000000000000e-01 5.3466947970891319e+00 1.0097715124645573e+01 2.5952352370689691e-01 1 0 0
1363 74 2 1.1500000000000000e-01 1.2352765552587712e+00 9.3823017574167054e+00 7.7722797973269522e+00 1 0 0
1745 93 2 1.1500000000000000e-01 -1.8992541082545353e+00 1.2545272433640326e+01 5.7160016112028540e+00 1 0 0
1769 94 2 1.1500000000000000e-01 -3.5387596723832471e+00 1.4196139839292561e+01 7.0630910523549977e+00 1 0 0
1338 73 5 -1.1500000000000000e-01 3.7333971856635575e+00 1.2550202204309214e+01 1.9334861588120282e+00 1 0 0
1339 73 3 0.0000000000000000e+00 3.5819961756982357e+00 1.1951772366688765e+01 3.1847229653859754e+00 1 0 0
1340 73 4 -1.1500000000000000e-01 2.9660367020811762e+00 1.2741815344549755e+01 4.2129559263015759e+00 1 0 0
1341 73 1 -1.1500000000000000e-01 4.8374169330639418e+00 1.0621754517201760e+01 1.1135407844746961e+00 1 0 0
1337 73 7 -1.1500000000000000e-01 4.3229262561439086e+00 1.1901177822893446e+01 8.7117828494942029e-01 1 0 0
1343 73 2 1.1500000000000000e-01 3.4672469338886671e+00 1.3583030060562891e+01 1.8270735642054619e+00 1 0 0
1348 73 3 0.0000000000000000e+00 3.9973090297043217e+00 1.0669686939283071e+01 3.4098908647658659e+00 1 0 0
1349 73 4 -1.1500000000000000e-01 4.6977488202523041e+00 1.0016508348414630e+01 2.3640685170595708e+00 1 0 0
1513 73 6 0.0000000000000000e+00 3.9988713174372665e+00 1.1380149627434447e+01 3.3154246878288265e+00 1 0 0
1356 74 5 -1.1500000000000000e-01 -4.3819489300188330e-01 1.2195278456218196e+01 8.5616814004605306e+00 1 0 0
1354 73 2 1.1500000000000000e-01 2.5416227142391223e+00 1.2690601356180393e+01 6.3316930918157786e+00 1 0 0
1346 73 1 -1.1500000000000000e-01 3.3297819423773776e+00 1.0874652835321093e+01 5.7020667367972200e+00 1 0 0
1347 73 4 -1.1500000000000000e-01 3.8747132928920678e+00 1.0103836591431547e+01 4.6835179647464749e+00 1 0 0
1350 73 1 -1.1500000000000000e-01 2.9107406238899687e+00 1.2143496970497569e+01 5.4877428838341400e+00 1 0 0
1351 73 2 1.1500000000000000e-01 3.2924661350740632e+00 1.0475627155382465e+01 6.7104243969481274e+00 1 0 0
1754 93 2 1.1500000000000000e-01 1.3182728673432131e+00 1.5928168872554563e+01 1.9434448756342648e-01 1 0 0
2106 113 1 -1.1500000000000000e-01 3.0930820161068131e+00 1.7022121908094107e+01 5.9466504263717903e+00 1 0 0
1355 74 7 -1.1500000000000000e-01 1.5742964918300295e-01 1.1225466378212701e+01 7.7754045340175146e+00 1 0 0
1359 74 1 -1.1500000000000000e-01 7.8287629044815077e-01 1.0112074201996355e+01 8.4151934368773951e+00 1 0 0
1360 74 2 1.1500000000000000e-01 2.2618378884643597e-01 1.1383202419106635e+01 6.7467734052478701e+00 1 0 0
1747 93 4 -1.1500000000000000e-01 -4.5008078271493868e-01 1.3280626872043442e+01 1.3575711854372905e+00 1 0 0
1748 93 3 0.0000000000000000e+00 -6.1306913044107403e-01 1.3711810301260359e+01 2.7054494096617057e+00 1 0 0
2115 114 7 -1.1500000000000000e-01 -1.4754814142621431e-01 1.7345994273196673e+01 7.8747702852496673e+00 1 0 0
1746 93 1 -1.1500000000000000e-01 3.3728236301174397e-01 1.4062148148525379e+01 4.9109896491283567e-01 1 0 0
2127 114 4 -1.1500000000000000e-01 4.5946013615386772e-01 1.5730282564474647e+01 9.5984579125428535e+00 1 0 0
1749 93 4 -1.1500000000000000e-01 -1.3291546275810191e+00 1.2928661954272808e+01 3.6795314058607245e+00 1 0 0
2123 114 2 1.1500000000000000e-01 8.0654598797154531e-01 1.5477601567757953e+01 7.4846208592828596e+00 1 0 0