LAMMPS (15 May 2015)
Reading data file ...
  triclinic box = (-0.107635 -0.0404339 -0.357111) to (41.3876 35.9384 29.5551) with tilt (-0.0672341 -17.0362 -0.0417078)
  5 by 4 by 3 MPI processor grid
  reading atoms ...
  4560 atoms
  reading velocities ...
  4560 velocities
  scanning bonds ...
  3 = max bonds/atom
  scanning angles ...
  3 = max angles/atom
  scanning dihedrals ...
  8 = max dihedrals/atom
  scanning impropers ...
  1 = max impropers/atom
  reading bonds ...
  5040 bonds
  reading angles ...
  7200 angles
  reading dihedrals ...
  10560 dihedrals
  reading impropers ...
  2400 impropers
Finding 1-2 1-3 1-4 neighbors ...
 Special bond factors lj:   0          0          0         
 Special bond factors coul: 0          0          0         
  4 = max # of 1-2 neighbors
  8 = max # of 1-3 neighbors
  20 = max # of 1-4 neighbors
  16 = max # of special neighbors
4560 atoms in group all
720 atoms in group C
480 atoms in group S
1920 atoms in group H
720 atoms in group Si
240 atoms in group Na
240 atoms in group Ba
240 atoms in group O
4560 atoms in group naphthalene
1200 atoms in group fixed
960 atoms in group CO
Setting atom values ...
  720 settings made for charge
Setting atom values ...
  720 settings made for charge
Setting atom values ...
  1920 settings made for charge
Setting atom values ...
  480 settings made for charge
Setting atom values ...
  240 settings made for charge
Setting atom values ...
  240 settings made for charge
Setting atom values ...
  240 settings made for charge
Finding 1-2 1-3 1-4 neighbors ...
 Special bond factors lj:   0          0          0.5       
 Special bond factors coul: 0          0          0.5       
  4 = max # of 1-2 neighbors
  8 = max # of 1-3 neighbors
  20 = max # of 1-4 neighbors
  16 = max # of special neighbors
PPPM initialization ...
  G vector (1/distance) = 0.246499
  grid = 16 16 20
  stencil order = 5
  estimated absolute RMS force accuracy = 0.00242397
  estimated relative force accuracy = 7.2997e-06
  using double precision FFTs
  3d grid and FFT values/proc = 1053 112
Neighbor list info ...
  4 neighbor list requests
  update every 1 steps, delay 0 steps, check yes
  master list distance cutoff = 12
Setting up run ...
Memory usage per processor = 13.288 Mbytes
Step Temp Density PotEng E_vdwl E_tail E_coul E_long Press Volume Xy Xz Yz E_mol E_bond E_angle E_dihed 14[1] 14[2] 14[3] msd[4] msd2[4] msd3[4] msd4[4] naphthal Cella Cellb Cellc CellAlpha CellBeta CellGamma 27[2] 27[3] 28[1] 28[2] 28[3] 
       0          298    1.2509986    2087.5869   -1173.1339   -211.49952    2070.8667    -2308.979    790.88859    44657.537 -0.067234084   -17.036218 -0.041707817     3498.833    1521.0094     935.4334    889.67826    28.379601    18.846571    14.337846 2.3535127e-29 2.3910021e-29 2.7538641e-29 3.294809e-29          298     41.49527    35.978931    34.423473    90.016431    119.66323    90.107069    18.846182    14.337739    28.379557    18.849013    14.339638 
    1000      297.039    1.2509986    2070.6585   -1214.2728   -211.49952    2073.3862   -2310.1183    147.17395    44657.537 -0.067234084   -17.036218 -0.041707817    3521.6634    1591.1585     943.3254    838.79972    28.380717    18.846177    14.337712  0.080271885  0.080257143  0.074404271   0.07436381      297.039     41.49527    35.978931    34.423473    90.016431    119.66323    90.107069    18.846067    14.338123    28.382344    18.848253    14.333971 
    2000    299.90126    1.2509986    2075.8652   -1219.1072   -211.49952    2068.3893   -2310.4763   -1367.6129    44657.537 -0.067234084   -17.036218 -0.041707817    3537.0593    1542.4189    987.52474    861.03805    28.379091    18.845892    14.337656  0.081900673  0.081895625  0.071268533   0.07123392    299.90126     41.49527    35.978931    34.423473    90.016431    119.66323    90.107069      18.8465    14.336562    28.374883    18.848431    14.336112 
    3000    297.53432    1.2509986    2027.7672   -1254.3437   -211.49952     2075.982   -2310.1495   -943.31434    44657.537 -0.067234084   -17.036218 -0.041707817    3516.2785       1577.4    933.88772    856.46735    28.379261    18.846133     14.33761  0.087358083  0.087354085  0.072747719  0.072594924    297.53432     41.49527    35.978931    34.423473    90.016431    119.66323    90.107069    18.845407    14.337599    28.390264    18.844024    14.335998 
    4000    301.65764    1.2509986    1997.8639   -1233.7281   -211.49952    2072.7803   -2309.7234    408.03164    44657.537 -0.067234084   -17.036218 -0.041707817    3468.5351    1515.5905    929.65191    873.69741    28.379759    18.846225    14.337546  0.088485527  0.088483237  0.082223989  0.082165428    301.65764     41.49527    35.978931    34.423473    90.016431    119.66323    90.107069     18.84541    14.336936    28.375782    18.843034     14.33671 
    5000    294.24766    1.2509986    2005.6283   -1255.7323   -211.49952    2074.1556   -2309.9473   -1519.2309    44657.537 -0.067234084   -17.036218 -0.041707817    3497.1523    1560.7348    947.59395    843.13633    28.380267    18.846207    14.337555  0.083975637  0.083972858  0.081070447  0.081010768    294.24766     41.49527    35.978931    34.423473    90.016431    119.66323    90.107069    18.846371     14.33633    28.381829    18.848489    14.332273 
    6000    300.58451    1.2509986    2094.2866   -1218.0764   -211.49952     2071.599    -2309.751   -750.04052    44657.537 -0.067234084   -17.036218 -0.041707817     3550.515    1547.5732    935.57924    913.64543     28.38017    18.846128    14.337907  0.086260812  0.086257675  0.070967607  0.070779059    300.58451     41.49527    35.978931    34.423473    90.016431    119.66323    90.107069    18.846087    14.337023    28.378263    18.845156    14.326523 
    7000    299.27589    1.2509986    2034.7562   -1232.4161   -211.49952    2071.1529   -2309.9786   -1585.3746    44657.537 -0.067234084   -17.036218 -0.041707817     3505.998    1528.0171    940.23721    882.29736    28.379159    18.846317    14.337299  0.087722309  0.087720511  0.080295066  0.080271476    299.27589     41.49527    35.978931    34.423473    90.016431    119.66323    90.107069    18.846956    14.336962    28.382786    18.848858    14.336014 
    8000    295.17468    1.2509986    2120.1745   -1233.8085   -211.49952    2073.8149   -2309.9124   -284.26512    44657.537 -0.067234084   -17.036218 -0.041707817    3590.0805    1601.0243    951.38945    882.96973    28.379608    18.846422    14.337691  0.086939154  0.086934146  0.078733153  0.078691056    295.17468     41.49527    35.978931    34.423473    90.016431    119.66323    90.107069    18.848377     14.33796    28.376918    18.844365     14.33596 
    9000    299.94434    1.2509986     2045.384   -1275.3442   -211.49952     2079.216   -2310.0529   -2383.4409    44657.537 -0.067234084   -17.036218 -0.041707817    3551.5651    1602.6696    963.67606    840.09982    28.379872    18.846564    14.337957  0.084655114  0.084650857  0.075650719  0.075600186    299.94434     41.49527    35.978931    34.423473    90.016431    119.66323    90.107069    18.847392    14.339159    28.379167    18.849127    14.346735 
   10000    299.12382    1.2509986    1991.4106   -1268.6273   -211.49952    2073.1961   -2310.5166   -1071.7203    44657.537 -0.067234084   -17.036218 -0.041707817    3497.3584     1550.628    921.29695    873.78345    28.380036    18.845933    14.337901  0.086576282  0.086566517  0.077384447   0.07736365    299.12382     41.49527    35.978931    34.423473    90.016431    119.66323    90.107069    18.845093    14.338729     28.38311    18.846752    14.341386 
   11000    300.29549    1.2509986    2117.7265   -1246.6717   -211.49952    2071.2323   -2310.0937   -1326.3446    44657.537 -0.067234084   -17.036218 -0.041707817    3603.2597     1595.622    962.30366    885.02463    28.379558    18.846509    14.337561  0.081335247  0.081334514  0.073852719  0.073819759    300.29549     41.49527    35.978931    34.423473    90.016431    119.66323    90.107069     18.84663    14.337143    28.377456    18.848021    14.334388 
   12000    293.00661    1.2509986    2010.1017   -1247.2444   -211.49952    2069.0678   -2310.2938   -881.89851    44657.537 -0.067234084   -17.036218 -0.041707817    3498.5722     1575.033    914.00414    858.83485    28.379952    18.846055    14.337734  0.091753258  0.091750246  0.082181673   0.08211311    293.00661     41.49527    35.978931    34.423473    90.016431    119.66323    90.107069    18.845549    14.338433     28.37174    18.846488     14.34068 
   13000    294.28674    1.2509986    2113.7692   -1240.8505   -211.49952     2077.273   -2309.4507   -1120.9532    44657.537 -0.067234084   -17.036218 -0.041707817    3586.7974    1594.2908    967.37386    869.81027    28.380551    18.845882    14.337799  0.085153938  0.085151132  0.074969996  0.074685631    294.28674     41.49527    35.978931    34.423473    90.016431    119.66323    90.107069    18.846378    14.336131    28.370172     18.84562    14.326044 
   14000    304.02361    1.2509986    2135.6641   -1226.9091   -211.49952    2067.9608   -2310.0304   -1031.9963    44657.537 -0.067234084   -17.036218 -0.041707817    3604.6428    1600.5176    950.55831     899.5994    28.379541    18.846506     14.33765  0.083479582  0.083474737  0.076890622  0.076782891    304.02361     41.49527    35.978931    34.423473    90.016431    119.66323    90.107069    18.847761    14.337065    28.369921    18.846279    14.336914 
   15000     290.4914    1.2509986    1944.5736   -1243.3603   -211.49952    2069.3024   -2310.2684    142.15603    44657.537 -0.067234084   -17.036218 -0.041707817    3428.8999    1536.5153     905.4715    843.79564    28.380177    18.846634    14.337622  0.086214987  0.086214616  0.076724785  0.076685241     290.4914     41.49527    35.978931    34.423473    90.016431    119.66323    90.107069    18.846225    14.338111    28.380444    18.842836    14.340411 
   16000    299.65213    1.2509986    2115.4686   -1267.9423   -211.49952     2075.783    -2309.856   -2481.3345    44657.537 -0.067234084   -17.036218 -0.041707817     3617.484    1588.8644    974.25484    896.45057    28.379751    18.846495    14.337753  0.087400635  0.087395688  0.071357087  0.071298659    299.65213     41.49527    35.978931    34.423473    90.016431    119.66323    90.107069    18.847852     14.33843    28.375215    18.848388    14.345898 
   17000    297.60751    1.2509986    2031.9714   -1258.0005   -211.49952    2069.4306   -2310.1494   -1542.7177    44657.537 -0.067234084   -17.036218 -0.041707817    3530.6908    1525.7359    986.94422    866.27235    28.379472    18.846302    14.337689  0.084667275  0.084660145  0.077033813  0.076928694    297.60751     41.49527    35.978931    34.423473    90.016431    119.66323    90.107069       18.845    14.337462    28.385865    18.844897    14.332682 
   18000    297.01345    1.2509986    2058.7991   -1220.7595   -211.49952    2077.9852   -2310.1698    282.50091    44657.537 -0.067234084   -17.036218 -0.041707817    3511.7432    1562.4357    947.45121    852.30348    28.379615    18.846326    14.337802  0.086252901  0.086241033  0.078216594  0.078165363    297.01345     41.49527    35.978931    34.423473    90.016431    119.66323    90.107069    18.844715     14.33654    28.381478    18.848665    14.332752 
   19000    296.77178    1.2509986    2031.8365   -1251.2787   -211.49952     2072.766   -2310.2384   -1619.8793    44657.537 -0.067234084   -17.036218 -0.041707817    3520.5876    1512.1582    967.17666    888.35044    28.379637    18.846022     14.33766   0.08575884  0.085752002  0.077796156  0.077635748    296.77178     41.49527    35.978931    34.423473    90.016431    119.66323    90.107069    18.846333    14.335615    28.379636    18.846856    14.327158 
   20000    292.92584    1.2509986    2068.9545   -1234.4404   -211.49952    2073.7426   -2309.7412   -959.35575    44657.537 -0.067234084   -17.036218 -0.041707817    3539.3935    1578.9054    951.22642    862.27114    28.380013    18.846489     14.33781  0.084759136  0.084758473  0.078543103  0.078437774    292.92584     41.49527    35.978931    34.423473    90.016431    119.66323    90.107069    18.845722    14.337933    28.369303    18.848959    14.339205 
   21000    296.51126    1.2509986     2064.734   -1248.7916   -211.49952    2075.6919   -2309.4988   -1258.4137    44657.537 -0.067234084   -17.036218 -0.041707817    3547.3325    1598.8107    958.23652    845.05471    28.379971    18.845939    14.337829  0.085903249  0.085895742  0.072513323  0.072252584    296.51126     41.49527    35.978931    34.423473    90.016431    119.66323    90.107069    18.844477     14.33754    28.390946    18.845499    14.328744 
   22000    288.41063    1.2509986    2036.7231    -1237.674   -211.49952     2071.941   -2309.6997   -1128.1352    44657.537 -0.067234084   -17.036218 -0.041707817    3512.1558    1568.4915    941.12433    855.59943    28.379515    18.846285    14.337573  0.085113664  0.085110389  0.078764386  0.078723427    288.41063     41.49527    35.978931    34.423473    90.016431    119.66323    90.107069       18.845    14.339059    28.381414    18.848435    14.345735 
   23000    297.11996    1.2509986    2045.7631   -1271.6112   -211.49952    2071.6249   -2310.0689   -2442.5444    44657.537 -0.067234084   -17.036218 -0.041707817    3555.8183    1592.6453    948.52035    864.38916     28.38029    18.845964    14.337858   0.08796227  0.087956072  0.082167639  0.081979229    297.11996     41.49527    35.978931    34.423473    90.016431    119.66323    90.107069    18.845117    14.336966    28.391028    18.846097    14.332687 
   24000    301.63236    1.2509986    2032.6397   -1221.7757   -211.49952    2070.7214   -2310.2685    135.85609    44657.537 -0.067234084   -17.036218 -0.041707817    3493.9625     1567.338     927.2196    851.29747    28.379906    18.846043    14.337653  0.089693936  0.089693421   0.07491998    0.0748714    301.63236     41.49527    35.978931    34.423473    90.016431    119.66323    90.107069    18.846369    14.337135    28.386355    18.850274    14.338759 
   25000    297.60313    1.2509986    2084.5441   -1244.1061   -211.49952    2072.6538   -2310.3706   -662.81669    44657.537 -0.067234084   -17.036218 -0.041707817    3566.3669    1581.8735    983.61224    851.75051     28.38029    18.845965     14.33785   0.08760101  0.087598993  0.075685374  0.075638719    297.60313     41.49527    35.978931    34.423473    90.016431    119.66323    90.107069    18.847386    14.337359    28.373272    18.849678    14.342229 
   26000     297.7269    1.2509986    2033.8181   -1233.7154   -211.49952    2069.1265   -2309.9806     1271.311    44657.537 -0.067234084   -17.036218 -0.041707817    3508.3876    1577.3753    928.15311    854.88738    28.380154    18.845516    14.337458  0.093437034  0.093428816  0.087113587   0.08696145     297.7269     41.49527    35.978931    34.423473    90.016431    119.66323    90.107069    18.843809    14.337819    28.391528    18.846231    14.340676 
   27000    299.16611    1.2509986    2037.1767   -1234.7055   -211.49952    2069.3169   -2310.2009   -1089.2404    44657.537 -0.067234084   -17.036218 -0.041707817    3512.7663     1602.398     957.3965    812.30472    28.380296    18.846199     14.33797  0.081715002  0.081714558  0.077362653  0.077351769    299.16611     41.49527    35.978931    34.423473    90.016431    119.66323    90.107069    18.846006    14.337874    28.379746    18.848946    14.342931 
   28000    294.74877    1.2509986    2038.5433   -1237.8893   -211.49952    2070.1538   -2310.2293   -721.74374    44657.537 -0.067234084   -17.036218 -0.041707817    3516.5081    1559.6163    949.33192     862.2545    28.379977    18.846441    14.337796  0.082220973  0.082219155  0.080151491  0.080088799    294.74877     41.49527    35.978931    34.423473    90.016431    119.66323    90.107069    18.847065    14.338244    28.384509    18.851885    14.345108 
   29000    295.28378    1.2509986    2077.5803   -1223.8407   -211.49952    2069.5351   -2309.5638   -78.702356    44657.537 -0.067234084   -17.036218 -0.041707817    3541.4497    1601.0365    929.57261    863.06681     28.37998    18.846125    14.337689  0.086848278  0.086844754  0.075261004  0.075241027    295.28378     41.49527    35.978931    34.423473    90.016431    119.66323    90.107069    18.844975    14.338315    28.378112    18.844828    14.339022 
   30000    297.06764    1.2509986    2097.8822   -1252.8932   -211.49952     2069.168   -2309.8062   -2423.6077    44657.537 -0.067234084   -17.036218 -0.041707817    3591.4136    1584.7429    931.52899    918.60143    28.380178    18.846333    14.337807  0.084931964  0.084931675  0.073637621   0.07361969    297.06764     41.49527    35.978931    34.423473    90.016431    119.66323    90.107069    18.845694     14.33774    28.377459    18.845774    14.337894 
   31000    298.79471    1.2509986    2116.1316   -1261.6761   -211.49952     2070.015   -2309.9164   -1474.8702    44657.537 -0.067234084   -17.036218 -0.041707817    3617.7091    1598.0439    951.74319    910.51712    28.380422    18.846073     14.33781   0.08871641  0.088715741  0.073581527   0.07350967    298.79471     41.49527    35.978931    34.423473    90.016431    119.66323    90.107069    18.846297    14.338537     28.37899    18.843373    14.345941 
   32000    292.49395    1.2509986    2077.1866   -1224.7283   -211.49952    2070.8324    -2310.265   -739.71053    44657.537 -0.067234084   -17.036218 -0.041707817    3541.3475    1548.6703    951.62733    890.47586    28.380005    18.846163    14.337726  0.084007367  0.083993706  0.074007001  0.073694591    292.49395     41.49527    35.978931    34.423473    90.016431    119.66323    90.107069    18.845935     14.33841    28.396339     18.84383    14.337664 
   33000    291.99682    1.2509986    2072.5007   -1215.6929   -211.49952    2072.5962   -2309.5294   -353.42909    44657.537 -0.067234084   -17.036218 -0.041707817    3525.1268    1563.9934    952.90191    865.24702    28.380319    18.846125    14.338081  0.087848415  0.087836914   0.07814537  0.078066119    291.99682     41.49527    35.978931    34.423473    90.016431    119.66323    90.107069     18.84611    14.339274    28.383932     18.84328    14.344857 
   34000    295.41268    1.2509986     2039.033   -1214.2042   -211.49952    2074.6579   -2309.7828    647.80371    44657.537 -0.067234084   -17.036218 -0.041707817    3488.3622    1518.1561    930.29972    884.25179    28.378597    18.846245    14.337452   0.08637897  0.086375816  0.077544088  0.077504559    295.41268     41.49527    35.978931    34.423473    90.016431    119.66323    90.107069    18.845423    14.337051    28.374382    18.846254    14.337372 
   35000    293.09221    1.2509986    2044.1157   -1257.3255   -211.49952    2077.2633   -2309.9592   -1941.3344    44657.537 -0.067234084   -17.036218 -0.041707817    3534.1371    1576.9092    938.65587    868.73372    28.380265    18.846005     14.33791  0.083312436  0.083304376  0.078075651  0.078066532    293.09221     41.49527    35.978931    34.423473    90.016431    119.66323    90.107069    18.847903    14.337942     28.38158    18.848448    14.337469 
   36000    301.68989    1.2509986     2087.376     -1219.44   -211.49952    2072.7298    -2310.146    253.48511    44657.537 -0.067234084   -17.036218 -0.041707817    3544.2323     1559.695    953.80926    875.42337    28.379916    18.846086     14.33781  0.087483013  0.087481849  0.077432642   0.07734787    301.68989     41.49527    35.978931    34.423473    90.016431    119.66323    90.107069      18.8463    14.337893    28.377711    18.840079    14.338391 
   37000    301.91835    1.2509986    1968.6615   -1254.0176   -211.49952    2072.4193    -2309.924   -417.77544    44657.537 -0.067234084   -17.036218 -0.041707817    3460.1839    1549.3216    907.42449     855.4835    28.379074    18.846181    14.337446  0.081860388  0.081853295  0.064754039  0.064589149    301.91835     41.49527    35.978931    34.423473    90.016431    119.66323    90.107069    18.844866     14.33641    28.371994    18.840896    14.333172 
   38000    302.73582    1.2509986    2033.9875   -1250.4862   -211.49952    2077.1038   -2309.7706   -506.05423    44657.537 -0.067234084   -17.036218 -0.041707817    3517.1406    1567.3549    923.86882    870.87318    28.379422    18.846351    14.337748  0.081578374  0.081575655  0.073108898  0.073061129    302.73582     41.49527    35.978931    34.423473    90.016431    119.66323    90.107069    18.845892    14.338533    28.374333    18.845039    14.341804 
   39000    300.52792    1.2509986    2121.0717   -1237.4483   -211.49952    2079.1266   -2309.6628   -1487.2775    44657.537 -0.067234084   -17.036218 -0.041707817    3589.0562    1622.0957     977.6936     839.6427    28.380249    18.846498    14.337864  0.083140793  0.083137718  0.072246143  0.072224874    300.52792     41.49527    35.978931    34.423473    90.016431    119.66323    90.107069    18.847451    14.338316     28.38334    18.851571    14.340276 
   40000     300.3104    1.2509986    2025.7806   -1248.0124   -211.49952    2083.3314   -2309.4461    -547.4184    44657.537 -0.067234084   -17.036218 -0.041707817    3499.9077    1520.9037    981.99321    852.94742    28.380189    18.845873    14.337762  0.081697082   0.08169179  0.069331893  0.069315632     300.3104     41.49527    35.978931    34.423473    90.016431    119.66323    90.107069    18.845234    14.338153    28.375752    18.849202    14.338316 
   41000    304.54348    1.2509986    1995.7434   -1233.5324   -211.49952     2070.671   -2310.1708   -245.68441    44657.537 -0.067234084   -17.036218 -0.041707817    3468.7757     1548.679    959.51343    816.18326    28.380302     18.84611     14.33782  0.081810646  0.081800593   0.07743323  0.077125049    304.54348     41.49527    35.978931    34.423473    90.016431    119.66323    90.107069    18.847104     14.33654    28.363494    18.847507    14.332716 
   42000    294.18846    1.2509986    2012.7813   -1244.4933   -211.49952     2069.857   -2310.3573   -709.22645    44657.537 -0.067234084   -17.036218 -0.041707817    3497.7749    1552.5718    925.34876    870.40701    28.379728    18.846148    14.338113  0.089064472  0.089062854  0.077146253  0.077142425    294.18846     41.49527    35.978931    34.423473    90.016431    119.66323    90.107069    18.846063    14.338772    28.381438    18.848668    14.339225 
   43000    294.47974    1.2509986    1992.9779   -1258.8277   -211.49952    2069.5881   -2310.6639   -580.76187    44657.537 -0.067234084   -17.036218 -0.041707817    3492.8813    1528.4733    953.76827    861.24816    28.380087    18.846416    14.337624  0.085693007  0.085690958  0.075713828  0.075603583    294.47974     41.49527    35.978931    34.423473    90.016431    119.66323    90.107069    18.844841    14.338101     28.37317    18.841173    14.336811 
   44000     297.6731    1.2509986    2019.3034   -1242.7323   -211.49952    2079.3907    -2309.683    52.747547    44657.537 -0.067234084   -17.036218 -0.041707817    3492.3281    1561.4166    931.91229    851.78546    28.379941    18.846126    14.338088  0.087025908  0.087024804  0.079514096  0.079408648     297.6731     41.49527    35.978931    34.423473    90.016431    119.66323    90.107069    18.846786    14.337441    28.387832    18.848066    14.333632 
   45000     304.8044    1.2509986    2020.5744   -1248.0465   -211.49952    2075.8025   -2310.0084   -476.40937    44657.537 -0.067234084   -17.036218 -0.041707817    3502.8267    1564.2303    956.62088    835.29785    28.380411    18.846156     14.33796  0.088743419  0.088741572  0.075979728  0.075907359     304.8044     41.49527    35.978931    34.423473    90.016431    119.66323    90.107069    18.845904    14.338982    28.377226    18.841562    14.343017 
   46000    296.70567    1.2509986    1974.0335   -1260.5769   -211.49952    2068.9569    -2309.808   -1412.8153    44657.537 -0.067234084   -17.036218 -0.041707817    3475.4616    1562.1094    900.40135    863.45448    28.379614    18.846067    14.337611   0.08963085  0.089629079  0.076698192  0.076606996    296.70567     41.49527    35.978931    34.423473    90.016431    119.66323    90.107069    18.844864    14.337608    28.378141    18.839674    14.338231 
   47000    298.83605    1.2509986    2080.7206   -1230.2196   -211.49952    2074.3563   -2310.2314    -150.5352    44657.537 -0.067234084   -17.036218 -0.041707817    3546.8152    1545.3976    976.19416    875.12875    28.380246    18.846427    14.337849   0.09015553  0.090145878  0.077917165  0.077817986    298.83605     41.49527    35.978931    34.423473    90.016431    119.66323    90.107069    18.845833    14.339444    28.374397    18.844565    14.346903 
   48000    295.39428    1.2509986    2040.6638   -1246.4053   -211.49952    2070.0298   -2310.2446   -892.80475    44657.537 -0.067234084   -17.036218 -0.041707817    3527.2839    1580.5743    938.92623    854.11082    28.379773    18.845786    14.338157  0.086353582  0.086351039  0.076904395  0.076894607    295.39428     41.49527    35.978931    34.423473    90.016431    119.66323    90.107069     18.84571    14.337809    28.378233    18.848295    14.336896 
   49000    295.31451    1.2509986    2034.5023   -1231.2996   -211.49952    2076.5102   -2309.7817   -115.29954    44657.537 -0.067234084   -17.036218 -0.041707817    3499.0734    1572.2362     934.0102    850.81829    28.379548    18.846318    14.337568  0.087506884  0.087500767  0.080186655  0.079947652    295.31451     41.49527    35.978931    34.423473    90.016431    119.66323    90.107069    18.845547    14.339045    28.389231    18.841383    14.348976 
   50000    302.99245    1.2509986    2074.5918   -1260.6198   -211.49952     2075.142   -2309.5969   -2484.9792    44657.537 -0.067234084   -17.036218 -0.041707817    3569.6664    1603.8424    940.17164    874.34736    28.379473    18.846261    14.337808  0.085444917  0.085438893  0.077991281  0.077755129    302.99245     41.49527    35.978931    34.423473    90.016431    119.66323    90.107069    18.845844    14.337006    28.367988    18.842794     14.33166 
   51000    298.94813    1.2509986    2034.0787   -1228.6769   -211.49952    2073.8468    -2309.752    185.97972    44657.537 -0.067234084   -17.036218 -0.041707817    3498.6608    1511.5531    942.40597    886.96162    28.380425     18.84651    14.337956  0.085442994  0.085439253  0.072899977  0.072801957    298.94813     41.49527    35.978931    34.423473    90.016431    119.66323    90.107069    18.844818     14.33688    28.379029    18.841297    14.333457 
   52000    292.25696    1.2509986     1975.091   -1266.8584   -211.49952    2074.5663   -2309.8786   -2544.5304    44657.537 -0.067234084   -17.036218 -0.041707817    3477.2617    1546.6632    887.64833    888.48919    28.379943    18.845889    14.337897   0.08425358  0.084253401  0.073311228  0.073266208    292.25696     41.49527    35.978931    34.423473    90.016431    119.66323    90.107069    18.845977    14.337685    28.377957    18.847352    14.333337 
   53000    293.99359    1.2509986    2017.9426   -1238.3723   -211.49952    2072.5006    -2310.035    174.52534    44657.537 -0.067234084   -17.036218 -0.041707817    3493.8494    1541.3615    927.23314    875.50293     28.38023    18.846396    14.337773  0.082590937  0.082590826  0.073143583  0.073136536    293.99359     41.49527    35.978931    34.423473    90.016431    119.66323    90.107069    18.845919    14.337842    28.377866     18.84741    14.338367 
   54000    301.87852    1.2509986    2005.9875   -1230.6298   -211.49952    2076.9218   -2309.3998   -502.23987    44657.537 -0.067234084   -17.036218 -0.041707817    3469.0952    1555.1968    927.44819    839.63702    28.379983    18.846042    14.337737  0.084132969  0.084129763  0.077079858    0.0769121    301.87852     41.49527    35.978931    34.423473    90.016431    119.66323    90.107069    18.846103    14.336299    28.376618    18.844841    14.327733 
   55000    304.67493    1.2509986     2031.327   -1212.9548   -211.49952    2078.6048   -2309.4277    -185.3619    44657.537 -0.067234084   -17.036218 -0.041707817    3475.1047    1568.0667    903.00559    859.80166    28.379745    18.846151    14.337299  0.086433853  0.086429051  0.076335894  0.076289235    304.67493     41.49527    35.978931    34.423473    90.016431    119.66323    90.107069    18.845912    14.336289    28.381419    18.845284    14.334226 
   56000    296.70867    1.2509986    2185.6254   -1223.7896   -211.49952    2074.7389   -2310.0399     465.6065    44657.537 -0.067234084   -17.036218 -0.041707817    3644.7159    1625.0155    956.28855    903.73367    28.379256    18.845897    14.337504  0.096037491  0.096035273  0.088043818  0.087840762    296.70867     41.49527    35.978931    34.423473    90.016431    119.66323    90.107069    18.847168    14.336738    28.375766    18.846691    14.326099 
   57000    303.44533    1.2509986     2033.553   -1281.4042   -211.49952    2072.5931   -2310.1032   -2796.8425    44657.537 -0.067234084   -17.036218 -0.041707817    3552.4674    1564.6707    927.67747    904.02558    28.379049     18.84592     14.33763   0.08608888  0.086080174  0.076205516  0.076160526    303.44533     41.49527    35.978931    34.423473    90.016431    119.66323    90.107069    18.843329    14.337517    28.379877    18.845496    14.333936 
   58000    298.08685    1.2509986    2037.3039   -1241.0528   -211.49952    2072.8112   -2310.3565   -743.34731    44657.537 -0.067234084   -17.036218 -0.041707817     3515.902    1635.1687    912.74039     820.9707     28.37967    18.846422    14.338161    0.0937595  0.093736076  0.081370174  0.081189089    298.08685     41.49527    35.978931    34.423473    90.016431    119.66323    90.107069    18.847088    14.338548    28.391884    18.850466    14.334442 
   59000    298.48499    1.2509986    2062.4216   -1247.4337   -211.49952    2075.9694   -2309.8016   -1667.4694    44657.537 -0.067234084   -17.036218 -0.041707817    3543.6875    1605.9797    955.13395    834.37478     28.38048    18.845853    14.338033  0.088712743  0.088708014  0.076206462  0.076195087    298.48499     41.49527    35.978931    34.423473    90.016431    119.66323    90.107069    18.844633    14.337195    28.378113    18.847423    14.337038 
   60000     302.2329    1.2509986    1999.1348   -1251.5215   -211.49952    2075.6222   -2309.5497   -1887.3951    44657.537 -0.067234084   -17.036218 -0.041707817    3484.5837    1545.8988    921.91165    864.97195    28.380399    18.846287    14.338009  0.088285131  0.088284088  0.077369526  0.077358486     302.2329     41.49527    35.978931    34.423473    90.016431    119.66323    90.107069     18.84648    14.337667    28.381588    18.847125    14.337808 
   61000     297.6027    1.2509986    2052.5585    -1226.599   -211.49952    2069.9512   -2310.1488   -1281.3953    44657.537 -0.067234084   -17.036218 -0.041707817    3519.3551    1567.5935    920.33179    878.00243    28.380761    18.846412    14.338281  0.081266945  0.081263568  0.071314618  0.071304815     297.6027     41.49527    35.978931    34.423473    90.016431    119.66323    90.107069    18.846417     14.33825    28.378992    18.848819    14.336565 
   62000    297.72681    1.2509986    2033.0957   -1227.6601   -211.49952    2071.1517   -2309.4759    2.5638259    44657.537 -0.067234084   -17.036218 -0.041707817    3499.0799    1556.7077    936.22992    858.27175    28.379275    18.846289    14.337796  0.088657257  0.088656151   0.07800499  0.077974024    297.72681     41.49527    35.978931    34.423473    90.016431    119.66323    90.107069    18.845543    14.338138    28.379269    18.843781    14.337764 
   63000    294.95373    1.2509986     1956.632   -1223.3366   -211.49952    2075.2462   -2309.9036    1550.2595    44657.537 -0.067234084   -17.036218 -0.041707817     3414.626    1507.7128    926.70024    837.95666    28.379159    18.846168    14.337438  0.083887146  0.083885627  0.072930893  0.072905683    294.95373     41.49527    35.978931    34.423473    90.016431    119.66323    90.107069    18.847126    14.337704    28.374941    18.847724    14.338139 
   64000    296.78797    1.2509986     2094.432   -1220.8906   -211.49952    2077.8101   -2309.1391    1381.4102    44657.537 -0.067234084   -17.036218 -0.041707817    3546.6516    1517.4078    959.73081    914.77763    28.379999    18.846268    14.337906  0.085048302  0.085048277  0.076793015  0.076771745    296.78797     41.49527    35.978931    34.423473    90.016431    119.66323    90.107069    18.846156    14.337586    28.383692    18.848633    14.341645 
   65000    296.26401    1.2509986    2022.1697    -1236.384   -211.49952    2074.0689   -2309.4391   -1038.4105    44657.537 -0.067234084   -17.036218 -0.041707817    3493.9238    1567.7109    918.38996    860.18813    28.379761    18.845823    14.337897  0.084567547  0.084564888  0.076277906  0.076243318    296.26401     41.49527    35.978931    34.423473    90.016431    119.66323    90.107069    18.847769    14.337752    28.378336    18.853806    14.336456 
   66000      301.923    1.2509986    1980.7052   -1250.9642   -211.49952    2072.8617   -2310.1593   -1950.7731    44657.537 -0.067234084   -17.036218 -0.041707817     3468.967    1571.0467    893.42177    860.41326    28.379499    18.845921    14.337396   0.08660882  0.086605386  0.073236133  0.073146657      301.923     41.49527    35.978931    34.423473    90.016431    119.66323    90.107069     18.84485    14.337259    28.371122    18.846812    14.335966 
   67000    295.98178    1.2509986    2036.7173    -1237.092   -211.49952    2077.1177   -2310.0116    253.20169    44657.537 -0.067234084   -17.036218 -0.041707817    3506.7032    1535.6458     942.3092    875.32856    28.380072    18.845941    14.337891   0.08486842  0.084866253  0.078438427  0.078384004    295.98178     41.49527    35.978931    34.423473    90.016431    119.66323    90.107069    18.845935     14.33783     28.37301    18.845643    14.339181 
   68000    299.45994    1.2509986    2021.7416   -1245.8528   -211.49952     2074.629   -2310.4182   -643.25984    44657.537 -0.067234084   -17.036218 -0.041707817    3503.3836    1551.6264    955.14789    853.88151    28.379867    18.845959    14.338032  0.086810167  0.086805931  0.075012173  0.074929615    299.45994     41.49527    35.978931    34.423473    90.016431    119.66323    90.107069    18.845403    14.338969    28.383668    18.845549    14.346963 
   69000    296.27815    1.2509986    1976.1095   -1241.7337   -211.49952    2067.9843   -2309.4406   -2006.0739    44657.537 -0.067234084   -17.036218 -0.041707817    3459.2994    1527.4747    932.72895    846.88236    28.379924    18.845957    14.337817  0.089019977   0.08901665  0.083149664  0.082935858    296.27815     41.49527    35.978931    34.423473    90.016431    119.66323    90.107069    18.847796    14.337067    28.390516    18.850388    14.330057 
   70000     295.4436    1.2509986    2160.7699   -1209.6451   -211.49952    2072.2354   -2309.7297     114.0736    44657.537 -0.067234084   -17.036218 -0.041707817    3607.9093    1585.3886    980.66083    885.95608    28.379509    18.846203    14.337514  0.083221543  0.083220244  0.079468723      0.07945     295.4436     41.49527    35.978931    34.423473    90.016431    119.66323    90.107069    18.847292    14.337971    28.376407    18.846588    14.337928 
   71000    300.95862    1.2509986     2110.234   -1227.8237   -211.49952    2071.3947   -2309.8465   -1192.3143    44657.537 -0.067234084   -17.036218 -0.041707817    3576.5095    1588.0659     964.1835    879.36468    28.378916    18.846163    14.337473  0.087655586  0.087648468  0.078380905  0.078286293    300.95862     41.49527    35.978931    34.423473    90.016431    119.66323    90.107069    18.846335    14.338082    28.371078    18.845092    14.342349 
   72000    298.46336    1.2509986    2052.7706   -1259.5056   -211.49952    2074.1064    -2309.897     -3616.81    44657.537 -0.067234084   -17.036218 -0.041707817     3548.067    1608.4579     937.7111    855.73292    28.379352    18.845978    14.337491  0.086495777  0.086492975   0.07396214  0.073695497    298.46336     41.49527    35.978931    34.423473    90.016431    119.66323    90.107069    18.846328    14.336239    28.387902    18.849031    14.325603 
   73000    297.40291    1.2509986    2014.8875   -1215.9998   -211.49952    2073.6539   -2309.8821    1071.3225    44657.537 -0.067234084   -17.036218 -0.041707817    3467.1155    1519.1417    913.04716    883.79417    28.380026     18.84608    14.337894  0.083472547  0.083448997  0.074643732  0.074428096    297.40291     41.49527    35.978931    34.423473    90.016431    119.66323    90.107069    18.846389    14.335444    28.372792    18.849033    14.326604 
   74000    295.10617    1.2509986    2098.5821   -1234.9611   -211.49952    2071.0428   -2309.4361   -1881.9417    44657.537 -0.067234084   -17.036218 -0.041707817    3571.9365    1581.7058    941.87391    897.32243    28.380064    18.846324    14.337802  0.083244527  0.083237563  0.073513416  0.073413318    295.10617     41.49527    35.978931    34.423473    90.016431    119.66323    90.107069     18.84681    14.338358    28.389234    18.847881    14.337367 
   75000    294.34003    1.2509986    2056.7326   -1188.5922   -211.49952    2072.8425   -2309.3855    530.96799    44657.537 -0.067234084   -17.036218 -0.041707817    3481.8679    1524.3322    939.23614    872.25383    28.379838    18.846337    14.337815  0.093314745  0.093311642  0.084035399  0.083980936    294.34003     41.49527    35.978931    34.423473    90.016431    119.66323    90.107069    18.846751    14.337049    28.386494    18.848268    14.337236 
   76000    304.45582    1.2509986    2091.1747   -1225.8455   -211.49952    2071.7005   -2310.3016   -61.441838    44657.537 -0.067234084   -17.036218 -0.041707817    3555.6214    1592.5562    935.22061    874.34681    28.379873    18.846148    14.337886  0.087636526  0.087636083  0.079773853  0.079749734    304.45582     41.49527    35.978931    34.423473    90.016431    119.66323    90.107069    18.845832    14.338303     28.38337    18.846512    14.341459 
   77000    306.30831    1.2509986     1976.132   -1243.5568   -211.49952    2073.1999    -2310.399   -850.93086    44657.537 -0.067234084   -17.036218 -0.041707817    3456.8879     1548.393    885.94446     872.1718     28.38025    18.846243    14.337822  0.086383915  0.086380151  0.076030955  0.075975324    306.30831     41.49527    35.978931    34.423473    90.016431    119.66323    90.107069    18.845477    14.338004    28.385977    18.845551    14.341195 
   78000    299.17336    1.2509986     2038.397   -1247.7915   -211.49952    2070.3862   -2310.3392    -946.7302    44657.537 -0.067234084   -17.036218 -0.041707817    3526.1416    1572.5223    937.06667    863.55232     28.37956    18.846188    14.337475  0.088383344  0.088380804  0.075553277  0.075518407    299.17336     41.49527    35.978931    34.423473    90.016431    119.66323    90.107069    18.847701    14.337706    28.375342    18.845273    14.337873 
   79000    299.79763    1.2509986    2119.5349   -1240.5237   -211.49952    2078.5825   -2310.2908   -214.10273    44657.537 -0.067234084   -17.036218 -0.041707817    3591.7669    1604.7749    954.54192    880.77476    28.378704    18.846516    14.337248  0.077603058  0.077595274  0.070820531  0.070805124    299.79763     41.49527    35.978931    34.423473    90.016431    119.66323    90.107069    18.848202    14.336722    28.376047    18.850555    14.338793 
   80000    293.98488    1.2509986    2114.7157   -1250.0694   -211.49952    2069.3861   -2310.0931   -1847.9896    44657.537 -0.067234084   -17.036218 -0.041707817    3605.4922    1609.3052    913.47368    919.76704    28.379909    18.846091    14.337762  0.085226252  0.085222418  0.068092758  0.067932172    293.98488     41.49527    35.978931    34.423473    90.016431    119.66323    90.107069    18.844585    14.338466    28.386271    18.842625    14.348281 
   81000    294.93191    1.2509986    2028.6607   -1242.2157   -211.49952    2071.7559   -2309.4695   -1392.4198    44657.537 -0.067234084   -17.036218 -0.041707817    3508.5901    1553.1081    938.26024    868.16599    28.379945    18.846347    14.337698  0.086279431  0.086270543  0.081298154  0.081251058    294.93191     41.49527    35.978931    34.423473    90.016431    119.66323    90.107069    18.848923    14.337471    28.384113    18.853804    14.337801 
   82000    300.37688    1.2509986    2123.1255   -1240.6741   -211.49952    2072.3023   -2310.1387   -1794.8513    44657.537 -0.067234084   -17.036218 -0.041707817     3601.636    1619.2513    968.79455    862.08837    28.379116    18.846272     14.33781   0.08324343  0.083239036   0.07789008  0.077795241    300.37688     41.49527    35.978931    34.423473    90.016431    119.66323    90.107069    18.847099    14.337697    28.385819    18.853093    14.333396 
   83000    298.44368    1.2509986    2155.4016   -1235.2281   -211.49952    2072.5068     -2310.03   -528.58272    44657.537 -0.067234084   -17.036218 -0.041707817    3628.1529    1580.3749    997.37498     894.3092     28.37916    18.846402    14.337482  0.085639767  0.085638614  0.076752571  0.076677123    298.44368     41.49527    35.978931    34.423473    90.016431    119.66323    90.107069    18.845789     14.33849    28.374276     18.84214    14.340217 
   84000    294.97624    1.2509986    1987.7439    -1251.628   -211.49952    2070.1444   -2309.8158   -1927.1983    44657.537 -0.067234084   -17.036218 -0.041707817    3479.0433    1549.2212    915.53844    867.92697    28.379283    18.845969    14.337597  0.083721366  0.083719191  0.071776431  0.071761124    294.97624     41.49527    35.978931    34.423473    90.016431    119.66323    90.107069    18.847419    14.337739     28.38192    18.846244    14.338204 
   85000    298.77462    1.2509986    1997.5339   -1231.8827   -211.49952     2072.067   -2309.8316   -1598.8901    44657.537 -0.067234084   -17.036218 -0.041707817    3467.1813    1542.2224    912.32735    865.85205    28.379736     18.84629     14.33736  0.086611822   0.08661027  0.075952573  0.075851085    298.77462     41.49527    35.978931    34.423473    90.016431    119.66323    90.107069    18.845574    14.337069    28.376104    18.844235    14.331469 
   86000    295.32913    1.2509986    2099.1658   -1241.8099   -211.49952    2073.9298   -2309.5678   -715.66912    44657.537 -0.067234084   -17.036218 -0.041707817    3576.6136    1591.1335     956.7516    873.04459     28.37976    18.846203    14.337626  0.084017751  0.084009935  0.074456213  0.074263849    295.32913     41.49527    35.978931    34.423473    90.016431    119.66323    90.107069    18.845024    14.335759     28.38653    18.843901    14.328794 
   87000    299.30594    1.2509986    2053.9294    -1229.957   -211.49952    2073.4423   -2309.8293   -498.19581    44657.537 -0.067234084   -17.036218 -0.041707817    3520.2733    1559.3089    935.50811    873.43805    28.379953    18.845971     14.33779  0.080811439  0.080808211   0.07204315  0.072036365    299.30594     41.49527    35.978931    34.423473    90.016431    119.66323    90.107069    18.846129    14.336986     28.37955    18.847284     14.33769 
   88000    307.64841    1.2509986    2068.4558   -1222.5731   -211.49952    2068.6148   -2310.2637    -1368.993    44657.537 -0.067234084   -17.036218 -0.041707817    3532.6778    1568.9574     949.1401    862.78062    28.379388     18.84642    14.337505  0.088836036  0.088830515  0.081255238  0.081230532    307.64841     41.49527    35.978931    34.423473    90.016431    119.66323    90.107069    18.846175    14.336717    28.379599    18.852916    14.336561 
   89000    294.80305    1.2509986    1996.7683    -1257.615   -211.49952    2074.9856   -2309.9236   -514.68576    44657.537 -0.067234084   -17.036218 -0.041707817    3489.3213    1529.7844    922.23096    887.44344    28.379967    18.845969    14.338019   0.08426685  0.084266029   0.07537745  0.075145069    294.80305     41.49527    35.978931    34.423473    90.016431    119.66323    90.107069    18.845632    14.338261    28.364643    18.845974    14.338781 
   90000    292.17304    1.2509986    2037.3199   -1242.6555   -211.49952    2076.7739   -2309.9469   -645.66425    44657.537 -0.067234084   -17.036218 -0.041707817    3513.1483     1581.264    918.40317    864.42105    28.380066    18.845754    14.337869   0.08386742  0.083866282  0.075329722  0.075173776    292.17304     41.49527    35.978931    34.423473    90.016431    119.66323    90.107069     18.84585    14.336759    28.381843    18.844154    14.328364 
   91000    299.86423    1.2509986    2049.7154   -1231.4763   -211.49952    2072.2038   -2309.9485   -1784.1703    44657.537 -0.067234084   -17.036218 -0.041707817    3518.9364     1598.468    908.32289    858.46938    28.379719    18.846153    14.337784  0.084019828  0.084017115  0.072556563   0.07246796    299.86423     41.49527    35.978931    34.423473    90.016431    119.66323    90.107069    18.844801     14.33836    28.378176    18.842137    14.345917 
   92000    300.13153    1.2509986    2046.8361   -1262.2105   -211.49952    2075.3516   -2310.1717   -2046.8616    44657.537 -0.067234084   -17.036218 -0.041707817    3543.8668    1617.7187    904.74698    871.04134    28.380326    18.846023    14.338144  0.085603504  0.085603152  0.076541789  0.076477748    300.13153     41.49527    35.978931    34.423473    90.016431    119.66323    90.107069    18.845911    14.337211    28.380311    18.844934    14.332795 
   93000    303.35378    1.2509986     2071.229   -1256.1841   -211.49952    2074.3818   -2310.1859   -1336.2141    44657.537 -0.067234084   -17.036218 -0.041707817    3563.2172     1584.111    960.90166    868.88035    28.379829    18.846161    14.337773  0.084505782  0.084500637  0.076745606  0.076700858    303.35378     41.49527    35.978931    34.423473    90.016431    119.66323    90.107069    18.845538    14.337181    28.376649    18.845834    14.334521 
   94000     298.6572    1.2509986    2117.0557   -1224.5812   -211.49952     2066.156   -2310.2309   -860.34994    44657.537 -0.067234084   -17.036218 -0.041707817    3585.7117    1596.3834    963.14897    869.42253    28.379834    18.846356    14.337501  0.085166435  0.085165543  0.075453295    0.0754165     298.6572     41.49527    35.978931    34.423473    90.016431    119.66323    90.107069    18.845941    14.338412    28.380286    18.845003    14.344131 
   95000    296.18231    1.2509986    2086.1662   -1234.9464   -211.49952     2071.118   -2309.8472   -1285.3715    44657.537 -0.067234084   -17.036218 -0.041707817    3559.8417     1642.917    913.51267    856.54984    28.379845    18.846185    14.337801  0.085176962  0.085153362  0.077650343  0.077439851    296.18231     41.49527    35.978931    34.423473    90.016431    119.66323    90.107069    18.845262    14.339439    28.392908    18.847483    14.345106 
   96000    298.64427    1.2509986    2030.7922   -1216.6477   -211.49952    2074.5769   -2309.7137    884.51371    44657.537 -0.067234084   -17.036218 -0.041707817    3482.5766    1501.7938    977.16707    856.13153    28.379166     18.84611    14.337779  0.087592052  0.087585866   0.08274686  0.082660388    298.64427     41.49527    35.978931    34.423473    90.016431    119.66323    90.107069    18.847824    14.339098    28.373815    18.851595    14.346482 
   97000    297.72931    1.2509986    2027.7885   -1213.0434   -211.49952    2069.6833   -2309.9335    335.75371    44657.537 -0.067234084   -17.036218 -0.041707817     3481.082    1553.8152    920.21444    859.13001    28.379195    18.846216    14.337721  0.081519194  0.081510349  0.074936472  0.074719995    297.72931     41.49527    35.978931    34.423473    90.016431    119.66323    90.107069    18.846372     14.33812    28.394175    18.847728    14.338573 
   98000    303.88052    1.2509986    2050.6415   -1234.7897   -211.49952    2074.0142   -2309.6466    873.61036    44657.537 -0.067234084   -17.036218 -0.041707817    3521.0637    1583.0873    958.71589    832.65106     28.38015    18.846018    14.337412  0.083783923  0.083781263  0.076093343  0.075977403    303.88052     41.49527    35.978931    34.423473    90.016431    119.66323    90.107069    18.845647    14.336289    28.376727    18.848025    14.329296 
   99000    301.81052    1.2509986     1966.674   -1254.8455   -211.49952    2072.5084   -2309.8907   -1558.3055    44657.537 -0.067234084   -17.036218 -0.041707817    3458.9018    1521.0179      917.963    870.71056    28.379629    18.846074    14.337473  0.082634645  0.082633838  0.071974271  0.071945784    301.81052     41.49527    35.978931    34.423473    90.016431    119.66323    90.107069    18.846695     14.33749    28.376035    18.849369    14.335643 
  100000    294.33457    1.2509986    2074.8689   -1236.7238   -211.49952    2070.3794   -2310.1287   -547.85372    44657.537 -0.067234084   -17.036218 -0.041707817     3551.342    1593.0333    957.28114    856.63729    28.379561    18.846167     14.33768  0.083877855  0.083875665  0.077383971  0.077377735    294.33457     41.49527    35.978931    34.423473    90.016431    119.66323    90.107069    18.847453    14.338451    28.377385    18.850129    14.339115 
  101000    299.63027    1.2509986    2003.5308   -1273.1029   -211.49952    2076.1357   -2309.8298   -2107.7629    44657.537 -0.067234084   -17.036218 -0.041707817    3510.3277    1566.9043    941.55314    851.48461    28.379487    18.846177    14.337629  0.086539665  0.086537117  0.077010613  0.076943653    299.63027     41.49527    35.978931    34.423473    90.016431    119.66323    90.107069     18.84688     14.33669    28.384098    18.844212    14.334813 
  102000    295.05066    1.2509986    2102.1612    -1236.702   -211.49952     2080.368   -2309.1445   -455.14379    44657.537 -0.067234084   -17.036218 -0.041707817    3567.6397    1573.7285    969.94157    880.51382    28.379868    18.846378    14.337767  0.084756395  0.084749174   0.07863121  0.078476491    295.05066     41.49527    35.978931    34.423473    90.016431    119.66323    90.107069    18.847281    14.337174    28.387914    18.849478    14.330437 
  103000    302.05277    1.2509986    2094.3704   -1242.9733   -211.49952    2075.2227   -2309.7767   -2343.7441    44657.537 -0.067234084   -17.036218 -0.041707817    3571.8977    1594.3362    934.25565    886.69907    28.379515    18.846109    14.337823   0.08258951  0.082578082  0.075719015  0.075708066    302.05277     41.49527    35.978931    34.423473    90.016431    119.66323    90.107069    18.845663    14.339461    28.382846    18.848834    14.339948 
  104000    294.69663    1.2509986    2129.6674   -1218.9277   -211.49952    2080.3091   -2310.0476   -1077.3168    44657.537 -0.067234084   -17.036218 -0.041707817    3578.3337    1578.1428    986.16255    864.64602    28.379773    18.846657    14.337841  0.091047198  0.091041668  0.074384062  0.074342191    294.69663     41.49527    35.978931    34.423473    90.016431    119.66323    90.107069    18.845851    14.337782    28.374189    18.846119    14.341803 
  105000    300.41829    1.2509986    2033.6822   -1237.7835   -211.49952    2075.8852   -2310.2226   -477.57556    44657.537 -0.067234084   -17.036218 -0.041707817    3505.8031    1559.6909    949.49354    855.02713    28.379848    18.845974    14.337698  0.083161626  0.083160743  0.073787862  0.073726585    300.41829     41.49527    35.978931    34.423473    90.016431    119.66323    90.107069    18.845911    14.338014    28.385541    18.845195    14.336338 
  106000    295.81904    1.2509986     2027.406   -1277.2519   -211.49952    2074.5879   -2310.3662   -3537.3522    44657.537 -0.067234084   -17.036218 -0.041707817    3540.4362    1617.6225    944.24045    833.49649     28.38005    18.846171    14.337889  0.084792471  0.084787157  0.076665509  0.076629913    295.81904     41.49527    35.978931    34.423473    90.016431    119.66323    90.107069    18.846172    14.339003     28.37987    18.845035    14.344074 
  107000     300.2536    1.2509986     2093.297   -1255.4555   -211.49952    2075.7378   -2309.7363   -1249.5462    44657.537 -0.067234084   -17.036218 -0.041707817    3582.7509    1608.3333    939.11502    882.20204    28.380051    18.845838      14.3379  0.083587914  0.083586235  0.075296362  0.075269239     300.2536     41.49527    35.978931    34.423473    90.016431    119.66323    90.107069    18.847292    14.337803    28.374404    18.849729    14.339892 
  108000    293.71815    1.2509986    2034.5273   -1221.8569   -211.49952    2071.8328   -2310.2974   -785.17372    44657.537 -0.067234084   -17.036218 -0.041707817    3494.8487    1572.6955    933.71982    839.58285     28.37957     18.84597    14.337574  0.088991318  0.088987925  0.080424286  0.080125343    293.71815     41.49527    35.978931    34.423473    90.016431    119.66323    90.107069     18.84549    14.336112    28.388771    18.844133    14.325846 
  109000    299.23123    1.2509986    2094.4149   -1223.5936   -211.49952      2069.49   -2309.7374     671.0473    44657.537 -0.067234084   -17.036218 -0.041707817    3558.2559    1567.6914    931.60313    904.67016    28.379315    18.846146    14.337528  0.085611755  0.085609726  0.071896624  0.071841077    299.23123     41.49527    35.978931    34.423473    90.016431    119.66323    90.107069    18.846196    14.337505    28.376649     18.84534    14.333842 
  110000    297.66507    1.2509986    2007.1731   -1261.3922   -211.49952    2074.3927   -2310.1067   -1172.9416    44657.537 -0.067234084   -17.036218 -0.041707817    3504.2792    1571.4085    923.46762    860.84409    28.379621    18.846371    14.337623  0.088568255  0.088551143   0.08344523  0.083235763    297.66507     41.49527    35.978931    34.423473    90.016431    119.66323    90.107069    18.846679    14.334629    28.377525    18.848049    14.325341 
  111000    293.83172    1.2509986    1987.3004   -1227.3378   -211.49952    2071.2894     -2310.56    524.30889    44657.537 -0.067234084   -17.036218 -0.041707817    3453.9088     1561.367    891.57534    855.90919    28.379881    18.846222    14.337615  0.087666943  0.087662177  0.076580673  0.076548811    293.83172     41.49527    35.978931    34.423473    90.016431    119.66323    90.107069    18.845199    14.338837    28.378388    18.844145    14.342247 
  112000    301.04209    1.2509986    1971.9509   -1237.9196   -211.49952    2070.4803   -2309.1629   -2026.6653    44657.537 -0.067234084   -17.036218 -0.041707817    3448.5532     1522.587     924.1177    853.70615    28.379913    18.846266     14.33772  0.079558797  0.079557924  0.070787875  0.070715888    301.04209     41.49527    35.978931    34.423473    90.016431    119.66323    90.107069    18.845494    14.337387    28.383893    18.846288    14.332873 
  113000    300.20927    1.2509986    2018.2297   -1224.0999   -211.49952    2070.8231   -2309.7417    353.32067    44657.537 -0.067234084   -17.036218 -0.041707817    3481.2482    1559.3515    930.34893    845.98179    28.379408    18.846216    14.337625   0.08340829  0.083407474  0.072803046  0.072779611    300.20927     41.49527    35.978931    34.423473    90.016431    119.66323    90.107069    18.847018    14.337588     28.38101    18.844492    14.338698 
  114000    298.02677    1.2509986    2134.4615   -1241.2316   -211.49952    2073.1602   -2310.1681   -1895.3235    44657.537 -0.067234084   -17.036218 -0.041707817     3612.701    1619.5482    947.18793    892.01573    28.379787    18.845862    14.337537  0.090237273   0.09023432  0.082181898  0.082155284    298.02677     41.49527    35.978931    34.423473    90.016431    119.66323    90.107069    18.845686    14.338823    28.375128    18.846551    14.338669 
  115000    290.19352    1.2509986    1939.0271   -1252.8011   -211.49952    2073.0131   -2309.8743   -558.77325    44657.537 -0.067234084   -17.036218 -0.041707817    3428.6894    1510.6341    920.18391     851.7342    28.379806    18.846347    14.337961  0.079423019  0.079421741  0.074614894  0.074598583    290.19352     41.49527    35.978931    34.423473    90.016431    119.66323    90.107069    18.847117    14.338374    28.379995     18.84515    14.338545 
  116000    300.22398    1.2509986    2049.9301   -1262.3303   -211.49952    2070.9978   -2309.8569   -1493.4599    44657.537 -0.067234084   -17.036218 -0.041707817    3551.1195    1602.7544    930.06793    869.89302    28.380219    18.845905      14.3378   0.08680958  0.086803941  0.076235678  0.076177143    300.22398     41.49527    35.978931    34.423473    90.016431    119.66323    90.107069    18.846229    14.339142    28.379026    18.846919    14.346978 
  117000    295.64492    1.2509986    2022.6536   -1251.8232   -211.49952    2071.3374   -2310.0189   -1140.1219    44657.537 -0.067234084   -17.036218 -0.041707817    3513.1583    1570.4674    918.39001    871.85583    28.379838    18.845635    14.337934    0.0851622  0.085161073  0.071256644  0.071217342    295.64492     41.49527    35.978931    34.423473    90.016431    119.66323    90.107069    18.845121    14.337745    28.374393    18.846671    14.342313 
  118000    300.28866    1.2509986    1977.2594   -1266.6948   -211.49952    2075.5973   -2309.6992   -1237.6756    44657.537 -0.067234084   -17.036218 -0.041707817     3478.056    1529.1454    908.21109    887.76473    28.379693    18.846067    14.337701  0.087677835  0.087674818  0.080325165  0.080195057    300.28866     41.49527    35.978931    34.423473    90.016431    119.66323    90.107069    18.846587    14.336758    28.377103    18.846117    14.328882 
  119000     302.0143    1.2509986    2127.5285   -1209.5596   -211.49952    2068.1644   -2310.5119   -482.25213    44657.537 -0.067234084   -17.036218 -0.041707817    3579.4356    1584.6758    957.65527    885.57825    28.379523    18.846513    14.337796  0.082235416  0.082235054   0.07393972  0.073928968     302.0143     41.49527    35.978931    34.423473    90.016431    119.66323    90.107069    18.846293    14.337617    28.381509    18.847409    14.337548 
  120000    297.67524    1.2509986    2064.7101   -1232.2579   -211.49952    2066.2359    -2309.741   -2171.4048    44657.537 -0.067234084   -17.036218 -0.041707817    3540.4731    1538.1911    945.05781    903.94617    28.379665    18.846128    14.337562  0.085037341  0.085032105  0.076807114  0.076676356    297.67524     41.49527    35.978931    34.423473    90.016431    119.66323    90.107069    18.846859    14.336035    28.372224    18.846038    14.331383 
  121000    296.82359    1.2509986    2038.0377   -1243.5458   -211.49952     2075.102   -2309.7909   -1248.7383    44657.537 -0.067234084   -17.036218 -0.041707817    3516.2724    1563.8058    934.39803    869.40431    28.380313    18.846528    14.337847  0.089358722   0.08935582  0.078371072  0.078285089    296.82359     41.49527    35.978931    34.423473    90.016431    119.66323    90.107069    18.845519    14.338041    28.388064    18.845488    14.338549 
  122000    297.36637    1.2509986    1993.5296   -1254.2601   -211.49952    2077.8593   -2309.4565   -1319.9721    44657.537 -0.067234084   -17.036218 -0.041707817    3479.3869    1530.8717    951.37246    852.01051    28.379971    18.846217    14.338049  0.087218277  0.087216383  0.075962881  0.075959169    297.36637     41.49527    35.978931    34.423473    90.016431    119.66323    90.107069    18.846966    14.338496    28.377716    18.849055    14.340207 
  123000    291.96443    1.2509986    2039.7508   -1236.1555   -211.49952    2072.2082   -2309.8429    77.964752    44657.537 -0.067234084   -17.036218 -0.041707817     3513.541     1536.197    911.88364    906.60698     28.38027    18.845934    14.337998  0.096321352  0.096315172  0.083981342  0.083762042    291.96443     41.49527    35.978931    34.423473    90.016431    119.66323    90.107069    18.844454    14.335978    28.382328    18.840816     14.32762 
  124000    296.73145    1.2509986    2061.5309    -1237.391   -211.49952    2072.2248   -2309.8948   -1243.9089    44657.537 -0.067234084   -17.036218 -0.041707817    3536.5919    1575.2707    925.21054    882.26013    28.380488    18.845699    14.337726  0.083098476  0.083097823  0.072854906  0.072756575    296.73145     41.49527    35.978931    34.423473    90.016431    119.66323    90.107069    18.846219    14.338486    28.372652     18.85074    14.346543 
  125000    300.35422    1.2509986    2037.5319   -1262.8997   -211.49952    2073.1206   -2310.0504   -2498.3268    44657.537 -0.067234084   -17.036218 -0.041707817    3537.3615    1605.4332     932.0993    846.89333    28.379818    18.846016     14.33779   0.08406872  0.084062809  0.080777331  0.080705752    300.35422     41.49527    35.978931    34.423473    90.016431    119.66323    90.107069    18.845318    14.339617    28.379818    18.847665    14.347986 
  126000    305.06757    1.2509986    2050.4668   -1244.9899   -211.49952     2077.865   -2309.7962    599.80706    44657.537 -0.067234084   -17.036218 -0.041707817     3527.388    1555.6862    932.83135    887.66805    28.380463    18.846069    14.338092  0.083866225  0.083854936  0.073952571  0.073916929    305.06757     41.49527    35.978931    34.423473    90.016431    119.66323    90.107069    18.846073    14.338357    28.382567    18.843888    14.339079 
  127000    294.54795    1.2509986    1968.3461   -1234.8406   -211.49952     2072.312   -2309.5604     -540.051    44657.537 -0.067234084   -17.036218 -0.041707817    3440.4352    1504.1944    920.47777    865.76495    28.380346    18.846304    14.338155  0.087157734  0.087154506  0.073264778  0.073234005    294.54795     41.49527    35.978931    34.423473    90.016431    119.66323    90.107069    18.847895    14.337294    28.377547    18.847507    14.334692 
  128000    292.49749    1.2509986    2081.4469   -1248.9757   -211.49952    2074.0344   -2310.0177   -537.37724    44657.537 -0.067234084   -17.036218 -0.041707817    3566.4059    1574.7934    971.39718    868.31727    28.380093    18.846175    14.337718  0.081867894  0.081863282  0.069365354  0.069317235    292.49749     41.49527    35.978931    34.423473    90.016431    119.66323    90.107069     18.84686    14.336653    28.376166    18.851893    14.334316 
  129000    293.92298    1.2509986    2007.6566   -1248.5957   -211.49952    2075.0535   -2309.9086   -314.16961    44657.537 -0.067234084   -17.036218 -0.041707817    3491.1073    1559.5995    923.53254    858.47763    28.379346    18.846125    14.337831  0.087683663  0.087680928  0.080000525  0.079962032    293.92298     41.49527    35.978931    34.423473    90.016431    119.66323    90.107069    18.847545    14.338285    28.373668    18.847093    14.339268 
  130000    295.61606    1.2509986    2108.4708   -1244.7735   -211.49952    2073.6172   -2309.7516   -935.63798    44657.537 -0.067234084   -17.036218 -0.041707817    3589.3787    1583.6041    962.44593    887.04499    28.379993    18.846199    14.337911  0.089020169  0.089017103  0.079184109  0.079175125    295.61606     41.49527    35.978931    34.423473    90.016431    119.66323    90.107069    18.847793    14.337877     28.38089     18.85018    14.342056 
  131000    300.86653    1.2509986    2103.5992   -1240.9364   -211.49952    2071.9703   -2309.8132    15.592969    44657.537 -0.067234084   -17.036218 -0.041707817    3582.3786    1604.1186    940.53784    883.27219    28.380058    18.846106    14.337561   0.09152814  0.091525013  0.080573183  0.080554264    300.86653     41.49527    35.978931    34.423473    90.016431    119.66323    90.107069    18.847499    14.338116    28.378596    18.852917    14.337979 
  132000    293.03257    1.2509986    2048.4706   -1220.0825   -211.49952    2066.9567   -2310.2011   -836.53179    44657.537 -0.067234084   -17.036218 -0.041707817    3511.7974      1572.59    944.68858    848.56046    28.379589    18.845985    14.337646  0.089165059   0.08915515  0.078577142  0.078477344    293.03257     41.49527    35.978931    34.423473    90.016431    119.66323    90.107069    18.845754    14.337403    28.370817    18.844528    14.337821 
  133000     296.4332    1.2509986    2101.4639   -1234.3192   -211.49952    2081.3519   -2309.6824    1468.6306    44657.537 -0.067234084   -17.036218 -0.041707817    3564.1136    1549.7923    978.31816    885.57629    28.379558     18.84647    14.337758  0.085884724  0.085884441  0.077902005  0.077867105     296.4332     41.49527    35.978931    34.423473    90.016431    119.66323    90.107069    18.845723    14.337818    28.377817    18.844514    14.336228 
  134000    296.50421    1.2509986    2083.8606   -1230.6716   -211.49952    2078.8003   -2309.4498   -812.24187    44657.537 -0.067234084   -17.036218 -0.041707817    3545.1816    1579.1242    917.36807    893.43674    28.379411    18.846219    14.337925  0.085720801  0.085719545  0.082684346  0.082607705    296.50421     41.49527    35.978931    34.423473    90.016431    119.66323    90.107069    18.846627    14.338768     28.37133    18.847007    14.341861 
  135000    298.28371    1.2509986    1949.6201    -1256.412   -211.49952    2074.9267   -2310.4683   -186.71247    44657.537 -0.067234084   -17.036218 -0.041707817    3441.5737    1509.5405    921.67048    864.21432    28.379146    18.846093    14.337613   0.08017594  0.080174724  0.071211581  0.071178834    298.28371     41.49527    35.978931    34.423473    90.016431    119.66323    90.107069    18.847234    14.337577    28.384014    18.845517    14.338823 
  136000    302.61178    1.2509986    1990.9552   -1248.3727   -211.49952     2075.122   -2310.1403   -973.87431    44657.537 -0.067234084   -17.036218 -0.041707817    3474.3461    1523.5833    945.16414    855.32958    28.380859    18.846329    14.337961  0.086156516  0.086153546  0.074615364  0.074596091    302.61178     41.49527    35.978931    34.423473    90.016431    119.66323    90.107069    18.846779     14.33814    28.383276    18.847426    14.341346 
  137000    300.02059    1.2509986    2098.7306   -1206.3799   -211.49952    2072.7207   -2309.8677    -1223.428    44657.537 -0.067234084   -17.036218 -0.041707817    3542.2575    1583.9638    914.05634     890.0543    28.380059    18.846284    14.337978  0.085693267  0.085686265  0.076759355  0.076582023    300.02059     41.49527    35.978931    34.423473    90.016431    119.66323    90.107069    18.844574    14.336821    28.375387    18.839395    14.331425 
  138000    297.93906    1.2509986    1980.4619    -1245.541   -211.49952    2069.8624   -2310.1972   -1138.6459    44657.537 -0.067234084   -17.036218 -0.041707817    3466.3376    1525.9914    948.38573    844.35303    28.380085    18.846318    14.338119  0.084560047  0.084557668  0.072461229  0.072398279    297.93906     41.49527    35.978931    34.423473    90.016431    119.66323    90.107069    18.846077    14.337404    28.373904     18.84354    14.338616 
  139000    295.94531    1.2509986    2058.8237    -1232.053   -211.49952    2077.0483   -2309.5981    273.36398    44657.537 -0.067234084   -17.036218 -0.041707817    3523.4266    1586.6892    928.18514    854.41344    28.379762    18.845956    14.337861  0.081668216  0.081665021  0.075140334  0.075005959    295.94531     41.49527    35.978931    34.423473    90.016431    119.66323    90.107069     18.84547     14.33733    28.385778     18.84413    14.331163 
  140000    297.36197    1.2509986    2131.9995   -1217.1141   -211.49952    2074.3121   -2309.4447   -468.20143    44657.537 -0.067234084   -17.036218 -0.041707817    3584.2462    1639.1804    911.59176    878.47352    28.380163    18.845961    14.337752  0.086555529  0.086541281  0.078029737  0.077946475    297.36197     41.49527    35.978931    34.423473    90.016431    119.66323    90.107069     18.84509    14.337969    28.388079    18.845754    14.339577 
  141000    301.63716    1.2509986     2113.716   -1230.7797   -211.49952    2069.9434   -2310.1833   -1252.4465    44657.537 -0.067234084   -17.036218 -0.041707817    3584.7357    1608.0957    972.00007    855.19157    28.379341    18.845937    14.337365  0.085227627  0.085226805  0.071562522  0.071534669    301.63716     41.49527    35.978931    34.423473    90.016431    119.66323    90.107069    18.845472    14.337722    28.380647    18.844474    14.337176 
  142000    305.18059    1.2509986    2000.9604    -1239.094   -211.49952    2070.7218   -2310.1815   -708.08837    44657.537 -0.067234084   -17.036218 -0.041707817    3479.5142    1554.3531    923.06991    853.73718    28.380573    18.846384     14.33772  0.081849838  0.081842665  0.074575485  0.074548167    305.18059     41.49527    35.978931    34.423473    90.016431    119.66323    90.107069    18.846796     14.33771    28.379169    18.847508    14.334648 
  143000    302.44388    1.2509986    2111.0131   -1253.6667   -211.49952    2076.6725   -2309.7816   -2796.2358    44657.537 -0.067234084   -17.036218 -0.041707817    3597.7889     1597.756    959.35795    886.87553    28.379819    18.846049    14.337979  0.091471577   0.09147058  0.083633125  0.083487502    302.44388     41.49527    35.978931    34.423473    90.016431    119.66323    90.107069    18.846779    14.337379    28.384602    18.848125    14.328712 
  144000    295.32466    1.2509986     2106.868   -1255.9411   -211.49952    2074.8059   -2310.0837   -1955.1904    44657.537 -0.067234084   -17.036218 -0.041707817     3598.087    1636.4066    947.74695    865.45466    28.379093    18.846344    14.337614  0.089446066  0.089443842  0.083466027  0.083454529    295.32466     41.49527    35.978931    34.423473    90.016431    119.66323    90.107069    18.846716    14.338575     28.38238     18.84739    14.338694 
  145000    297.60972    1.2509986    2038.9141   -1234.2021   -211.49952    2072.2367    -2309.552   -1347.0538    44657.537 -0.067234084   -17.036218 -0.041707817    3510.4314    1542.4946    931.56688     885.2189    28.379741    18.846103    14.337635  0.086723464  0.086721527   0.07888502  0.078831714    297.60972     41.49527    35.978931    34.423473    90.016431    119.66323    90.107069    18.847009    14.337216    28.375397    18.843541    14.337176 
  146000    297.61358    1.2509986    2027.6653   -1254.5463   -211.49952    2076.7981   -2310.5741    -1825.965    44657.537 -0.067234084   -17.036218 -0.041707817    3515.9875    1586.1946      940.714    840.38458    28.379627     18.84623    14.337598  0.089476615  0.089472164  0.076954692  0.076783116    297.61358     41.49527    35.978931    34.423473    90.016431    119.66323    90.107069     18.84446     14.33802    28.367943    18.843887    14.336408 
  147000    300.37699    1.2509986     2102.709   -1221.8638   -211.49952    2070.0225   -2310.1682   -1426.9876    44657.537 -0.067234084   -17.036218 -0.041707817    3564.7185    1571.1955    942.05128     892.1219    28.380564    18.846241    14.337766  0.085618141  0.085615091  0.070462731  0.070413735    300.37699     41.49527    35.978931    34.423473    90.016431    119.66323    90.107069    18.844727    14.337017    28.375657    18.843487    14.337833 
  148000    299.51865    1.2509986     1952.256   -1247.0021   -211.49952    2080.4239   -2309.6998   -999.65623    44657.537 -0.067234084   -17.036218 -0.041707817    3428.5339    1515.1568    910.03604    852.32313    28.379622    18.845898    14.337427  0.087981449  0.087973935  0.079821111  0.079771301    299.51865     41.49527    35.978931    34.423473    90.016431    119.66323    90.107069    18.845978    14.336907    28.373041    18.847034    14.337782 
  149000    291.99992    1.2509986    2056.3405   -1251.6847   -211.49952    2075.8755   -2309.4034   -2002.3492    44657.537 -0.067234084   -17.036218 -0.041707817     3541.553    1578.7781     964.2014    852.59512    28.380243    18.846097    14.337976  0.087368898     0.087367  0.076445361  0.076277248    291.99992     41.49527    35.978931    34.423473    90.016431    119.66323    90.107069    18.846394    14.339088    28.383156    18.845043    14.351445 
  150000    298.15593    1.2509986    2054.8969   -1246.3289   -211.49952    2074.6677   -2309.8653   -503.12366    44657.537 -0.067234084   -17.036218 -0.041707817    3536.4234     1575.805    943.05714    867.75756    28.379791    18.846016    14.337638  0.086351903  0.086351476  0.076835057  0.076786318    298.15593     41.49527    35.978931    34.423473    90.016431    119.66323    90.107069    18.846334     14.33793    28.381527    18.850228    14.333052 
  151000    301.09586    1.2509986    2120.5031   -1223.1405   -211.49952    2071.0206   -2310.2526   -608.82729    44657.537 -0.067234084   -17.036218 -0.041707817    3582.8756      1592.73    958.60514    880.82998    28.380181     18.84611    14.337993  0.087855756  0.087849318   0.07360913  0.073596577    301.09586     41.49527    35.978931    34.423473    90.016431    119.66323    90.107069    18.848164    14.337544    28.377265    18.851416    14.340874 
  152000    301.79054    1.2509986    1984.3836   -1264.1071   -211.49952    2072.5971   -2310.0463   -2114.7843    44657.537 -0.067234084   -17.036218 -0.041707817      3485.94    1528.3797    939.54486    864.88696    28.379811    18.845827    14.337594  0.083742504  0.083734823  0.072071304  0.071920846    301.79054     41.49527    35.978931    34.423473    90.016431    119.66323    90.107069    18.845603    14.335427     28.37473    18.843909    14.329583 
  153000    294.02293    1.2509986    2046.5537   -1255.9487   -211.49952    2073.5329   -2309.7734   -2532.4556    44657.537 -0.067234084   -17.036218 -0.041707817    3538.7428    1582.2114    943.09189    864.61935     28.38018    18.846285    14.337735  0.086234307  0.086232154  0.076598274  0.076556954    294.02293     41.49527    35.978931    34.423473    90.016431    119.66323    90.107069    18.845622    14.337011    28.380538    18.842686    14.339062 
  154000     301.9775    1.2509986    2062.4935   -1241.0919   -211.49952    2076.0809   -2310.1643    -1150.364    44657.537 -0.067234084   -17.036218 -0.041707817    3537.6689    1585.0794    911.46781    894.16577    28.379294    18.845962    14.337758  0.087087893  0.087085638  0.073051542  0.073019305     301.9775     41.49527    35.978931    34.423473    90.016431    119.66323    90.107069    18.846656    14.337215    28.381468    18.853656    14.342288 
  155000    306.12158    1.2509986    2057.4314   -1232.1473   -211.49952    2076.3296   -2309.7799    112.42474    44657.537 -0.067234084   -17.036218 -0.041707817     3523.029    1564.6677    932.95731    874.02673    28.380056    18.845987    14.338177  0.082507898  0.082501269  0.069771635  0.069680382    306.12158     41.49527    35.978931    34.423473    90.016431    119.66323    90.107069    18.844353    14.339369    28.378304    18.841296    14.345127 
  156000    303.97555    1.2509986    2084.9583   -1211.6694   -211.49952    2067.7019   -2310.2755    285.14383    44657.537 -0.067234084   -17.036218 -0.041707817    3539.2013    1603.4122    937.89905     854.1309    28.379513    18.846037      14.3379  0.089676354   0.08967117  0.076724634   0.07665468    303.97555     41.49527    35.978931    34.423473    90.016431    119.66323    90.107069    18.845203     14.33936    28.377092    18.844535    14.346259 
  157000    294.73308    1.2509986    2038.3563   -1249.2247   -211.49952    2076.9038    -2309.737   -124.72101    44657.537 -0.067234084   -17.036218 -0.041707817    3520.4141    1597.7213    924.20466    853.36817    28.380547     18.84613    14.337877  0.085346065  0.085343679  0.077015762  0.076918955    294.73308     41.49527    35.978931    34.423473    90.016431    119.66323    90.107069    18.844954    14.338671    28.382089    18.845687    14.348545 
  158000    298.47814    1.2509986    2083.1009   -1219.3296   -211.49952    2066.9254   -2310.4351    6.5655671    44657.537 -0.067234084   -17.036218 -0.041707817    3545.9402    1600.3048    953.16583    848.35938    28.380507    18.846209    14.338027  0.086506789   0.08649531  0.073898292    0.0737404    298.47814     41.49527    35.978931    34.423473    90.016431    119.66323    90.107069    18.846937     14.33977    28.382309    18.848555     14.35189 
  159000    295.46429    1.2509986    2029.5462   -1252.9849   -211.49952    2073.4527    -2309.901    58.810799    44657.537 -0.067234084   -17.036218 -0.041707817    3518.9793    1556.8199    934.48212     879.0897    28.379445     18.84639    14.337741  0.087264932   0.08726396  0.072574436  0.072503193    295.46429     41.49527    35.978931    34.423473    90.016431    119.66323    90.107069     18.84521    14.337589    28.375267    18.850029     14.33244 
  160000    290.07872    1.2509986    2023.7264   -1236.0958   -211.49952    2074.1419   -2309.7159   -1699.0134    44657.537 -0.067234084   -17.036218 -0.041707817    3495.3962    1533.1319    932.54856    873.91244    28.379304     18.84643    14.337458  0.084915806  0.084911911  0.076799137   0.07678131    290.07872     41.49527    35.978931    34.423473    90.016431    119.66323    90.107069    18.847021    14.336857    28.380539    18.850728    14.335907 
  161000    295.34348    1.2509986    2114.7721   -1233.2333   -211.49952    2070.8107   -2309.7048   -855.25321    44657.537 -0.067234084   -17.036218 -0.041707817    3586.8996    1584.7252    958.84037    888.04434    28.380107    18.845984    14.337916   0.08073738  0.080735428  0.071374174  0.071191117    295.34348     41.49527    35.978931    34.423473    90.016431    119.66323    90.107069    18.846388    14.336359     28.37727    18.843728    14.327395 
  162000    294.56869    1.2509986    1952.5002   -1279.8588   -211.49952    2071.6236   -2310.4248   -1301.2198    44657.537 -0.067234084   -17.036218 -0.041707817    3471.1602      1575.58    921.93569    828.01348    28.379815    18.845918    14.337974   0.08581598  0.085809169  0.082431138  0.082317542    294.56869     41.49527    35.978931    34.423473    90.016431    119.66323    90.107069    18.843728     14.33858    28.378306    18.839281      14.3438 
  163000    288.13294    1.2509986    2097.7415   -1224.5515   -211.49952    2075.0847   -2309.7095   -330.59248    44657.537 -0.067234084   -17.036218 -0.041707817    3556.9179    1559.3447    971.57532    870.11527    28.379695    18.846047    14.337713  0.086721515  0.086717181  0.077648016   0.07749034    288.13294     41.49527    35.978931    34.423473    90.016431    119.66323    90.107069    18.845016    14.339203    28.371915    18.844106     14.34831 
  164000    301.66118    1.2509986    2096.0339    -1252.906   -211.49952    2071.4837    -2309.968   -1005.0791    44657.537 -0.067234084   -17.036218 -0.041707817    3587.4242    1605.4478    951.39718    880.31998     28.37978    18.845837    14.337593    0.0891738   0.08917136  0.072732499  0.072685232    301.66118     41.49527    35.978931    34.423473    90.016431    119.66323    90.107069    18.847724    14.337552    28.382553    18.854032    14.336019 
  165000    295.72382    1.2509986    2019.0276   -1247.1502   -211.49952    2075.4172    -2310.167   -784.07473    44657.537 -0.067234084   -17.036218 -0.041707817    3500.9276    1523.1217    944.64183    878.45586    28.379485    18.845758    14.337908  0.080809603  0.080807212  0.071207176  0.071185586    295.72382     41.49527    35.978931    34.423473    90.016431    119.66323    90.107069     18.84586    14.338289    28.375998     18.84796    14.342435 
[...]
  961000    299.13347    1.2509986    2054.0587   -1245.7021   -211.49952     2075.458   -2309.7865   -2020.8137    44657.537 -0.067234084   -17.036218 -0.041707817    3534.0893    1570.1332    935.59918    875.85458    28.379511    18.846232    14.337735  0.084682053  0.084679602  0.080205352  0.080115348    299.13347     41.49527    35.978931    34.423473    90.016431    119.66323    90.107069    18.845251    14.338192    28.372028    18.843429    14.341103 
  962000    287.82084    1.2509986    2048.9786   -1249.8725   -211.49952    2070.9526   -2310.2299   -410.43229    44657.537 -0.067234084   -17.036218 -0.041707817    3538.1284    1575.6241    955.57657    855.03177    28.380225    18.845868    14.338186  0.082403183  0.082401634  0.071693506  0.071497003    287.82084     41.49527    35.978931    34.423473    90.016431    119.66323    90.107069    18.844996    14.337421    28.376326    18.841086    14.328537 
  963000    298.81391    1.2509986    1994.1187   -1238.3603   -211.49952    2071.2548   -2309.6353   -869.33365    44657.537 -0.067234084   -17.036218 -0.041707817    3470.8595    1570.4625    935.08283    820.83052    28.379864     18.84629    14.337944  0.089449731  0.089449365  0.076217421   0.07591061    298.81391     41.49527    35.978931    34.423473    90.016431    119.66323    90.107069    18.846156    14.337744    28.363944     18.85232    14.332419 
  964000    292.01085    1.2509986    1998.5834   -1268.8097   -211.49952    2075.1461   -2310.0734   -3460.9834    44657.537 -0.067234084   -17.036218 -0.041707817    3502.3204    1572.6114    954.22559    831.94804    28.379549    18.846153    14.337463  0.086386538  0.086385473  0.074809025  0.074785957    292.01085     41.49527    35.978931    34.423473    90.016431    119.66323    90.107069    18.845639    14.336866    28.383142    18.846307    14.337939 
  965000    299.62736    1.2509986    2063.6628   -1247.2268   -211.49952    2080.2886   -2310.1493   -646.26843    44657.537 -0.067234084   -17.036218 -0.041707817    3540.7504    1608.8809    938.00239    846.37866    28.379766    18.846489    14.337458  0.091239027  0.091235687  0.071390202  0.071357037    299.62736     41.49527    35.978931    34.423473    90.016431    119.66323    90.107069    18.846025    14.337644    28.384006    18.845374    14.339986 
  966000    293.61264    1.2509986    2145.9077   -1234.1064   -211.49952    2070.3674   -2309.9487   -1462.1103    44657.537 -0.067234084   -17.036218 -0.041707817    3619.5955    1612.2477    943.02342    908.82453    28.380267    18.846012    14.337836  0.085888347   0.08588729  0.081468362  0.081429153    293.61264     41.49527    35.978931    34.423473    90.016431    119.66323    90.107069    18.846578    14.338523    28.380015    18.847664    14.345736 
  967000    297.52161    1.2509986    2035.6611   -1238.0017   -211.49952    2072.3688   -2310.1198   -2043.3891    44657.537 -0.067234084   -17.036218 -0.041707817    3511.4138    1574.5206     941.0461    848.39823    28.379953    18.846518    14.337547  0.083156291  0.083150538  0.073407974  0.073199608    297.52161     41.49527    35.978931    34.423473    90.016431    119.66323    90.107069    18.846507    14.336222    28.384715    18.845823    14.326539 
  968000    294.83932    1.2509986    1938.6782   -1258.7506   -211.49952    2069.5491   -2310.1602   -2670.8966    44657.537 -0.067234084   -17.036218 -0.041707817    3438.0399    1559.3852    898.88884    834.70909    28.379804    18.846106    14.337851  0.087904751  0.087897989  0.080086927  0.079985135    294.83932     41.49527    35.978931    34.423473    90.016431    119.66323    90.107069    18.844582    14.338293    28.382849    18.839768    14.337297 
  969000    296.89764    1.2509986    2094.1991   -1214.2692   -211.49952    2074.6971    -2310.116    1596.6677    44657.537 -0.067234084   -17.036218 -0.041707817    3543.8873    1561.3206    954.12558    873.98366    28.379772    18.846023    14.337747  0.084817491  0.084810036   0.07579764  0.075694793    296.89764     41.49527    35.978931    34.423473    90.016431    119.66323    90.107069    18.845693    14.337389    28.369965    18.846403    14.337627 
  970000    292.79717    1.2509986    2062.3774   -1225.9091   -211.49952    2072.5881   -2309.8214   -1831.8061    44657.537 -0.067234084   -17.036218 -0.041707817    3525.5198    1596.9654    917.22354    860.46841    28.379346    18.846109    14.337729   0.08642634  0.086413201  0.080038204   0.07982697    292.79717     41.49527    35.978931    34.423473    90.016431    119.66323    90.107069    18.847244     14.33757    28.365165    18.847564    14.338221 
  971000    296.92128    1.2509986    2015.1061   -1261.3984   -211.49952    2069.7281   -2310.0932   -1397.8292    44657.537 -0.067234084   -17.036218 -0.041707817    3516.8697    1580.9492    948.90629    841.77455     28.38029    18.846358     14.33747  0.084136848  0.084131366  0.075661753  0.075514488    296.92128     41.49527    35.978931    34.423473    90.016431    119.66323    90.107069    18.845597    14.336882    28.382621    18.841314    14.330772 
  972000    301.28546    1.2509986    2092.3369   -1236.2397   -211.49952    2074.6835   -2309.7644    -178.2683    44657.537 -0.067234084   -17.036218 -0.041707817    3563.6574    1549.2938    984.67192    877.76777    28.379269    18.846335    14.337488  0.086347323  0.086343784  0.075149403  0.075139699    301.28546     41.49527    35.978931    34.423473    90.016431    119.66323    90.107069    18.847674    14.337173    28.380329    18.851638    14.338149 
  973000    299.06428    1.2509986    1992.5663   -1290.5244   -211.49952    2069.1182   -2310.5167    -3741.361    44657.537 -0.067234084   -17.036218 -0.041707817    3524.4892    1602.9386    929.56781    842.82101    28.380348    18.845951    14.337555  0.085255123  0.085244779    0.0770016  0.076968534    299.06428     41.49527    35.978931    34.423473    90.016431    119.66323    90.107069    18.846664    14.337274    28.383702    18.848244    14.335728 
  974000    298.30031    1.2509986    2015.2627   -1221.5817   -211.49952    2070.4563   -2309.6861   -1072.6533    44657.537 -0.067234084   -17.036218 -0.041707817    3476.0743    1532.0678     931.9547     864.6448    28.379648    18.845851    14.337859  0.083230217  0.083222714  0.074483741  0.074313612    298.30031     41.49527    35.978931    34.423473    90.016431    119.66323    90.107069     18.84558    14.338912    28.372813    18.842947    14.349011 
  975000    305.09063    1.2509986    2022.4494   -1257.6743   -211.49952    2072.9364   -2310.6186    -1550.388    44657.537 -0.067234084   -17.036218 -0.041707817    3517.8058    1556.4778    914.95527    893.14618    28.379328    18.846243    14.337635  0.088510864  0.088505404  0.072322716  0.072143825    305.09063     41.49527    35.978931    34.423473    90.016431    119.66323    90.107069    18.846487    14.339676    28.371772    18.849282    14.350511 
  976000    291.65821    1.2509986    2146.0239   -1258.8541   -211.49952      2076.81   -2310.2239   -1635.9979    44657.537 -0.067234084   -17.036218 -0.041707817     3638.292    1649.7626    947.56593    884.37106    28.380344    18.846296    14.337811  0.086840446  0.086839612  0.077088897   0.07695537    291.65821     41.49527    35.978931    34.423473    90.016431    119.66323    90.107069    18.846098    14.336882    28.386873    18.845337    14.331485 
  977000    295.76901    1.2509986    2077.1564   -1223.1886   -211.49952    2074.2017   -2309.9656    265.68748    44657.537 -0.067234084   -17.036218 -0.041707817    3536.1089    1578.8066    963.70385    842.31329    28.379736    18.846042    14.337513  0.089307753  0.089304405  0.076537876  0.076472854    295.76901     41.49527    35.978931    34.423473    90.016431    119.66323    90.107069    18.846041     14.33667    28.383454    18.844629    14.334105 
  978000    302.00814    1.2509986    2121.8325   -1230.0178   -211.49952     2069.164   -2309.8771   -1923.3293    44657.537 -0.067234084   -17.036218 -0.041707817    3592.5633     1577.883    983.36831    881.42367    28.379754    18.846351    14.337586  0.082228261  0.082224139   0.06963836  0.069589119    302.00814     41.49527    35.978931    34.423473    90.016431    119.66323    90.107069    18.847693    14.336473    28.381698    18.850488    14.333121 
  979000     293.1989    1.2509986    2081.4367   -1214.4099   -211.49952    2077.2675   -2309.7143   -1205.3729    44657.537 -0.067234084   -17.036218 -0.041707817    3528.2933     1591.451    945.94428    842.09208    28.380114    18.845905    14.338071   0.08717814  0.087171509  0.077340516  0.076884161     293.1989     41.49527    35.978931    34.423473    90.016431    119.66323    90.107069    18.846542    14.336385    28.396136    18.852043    14.326511 
  980000    296.07182    1.2509986     1995.221   -1248.0522   -211.49952    2076.1544   -2309.4464   -1856.5593    44657.537 -0.067234084   -17.036218 -0.041707817    3476.5652    1576.1585    937.59024    815.95703    28.380234    18.845977     14.33787  0.085165656  0.085159016  0.073847653  0.073791256    296.07182     41.49527    35.978931    34.423473    90.016431    119.66323    90.107069    18.846391    14.336549    28.374007    18.849019    14.334579 
  981000    296.94357    1.2509986    2085.9967    -1242.884   -211.49952    2070.0215   -2310.5363   -645.88052    44657.537 -0.067234084   -17.036218 -0.041707817    3569.3956     1558.587    961.74612    899.08205    28.380304    18.845761    14.337978   0.08919709  0.089191221  0.083727426  0.083696958    296.94357     41.49527    35.978931    34.423473    90.016431    119.66323    90.107069    18.845649    14.338289    28.375581    18.845511    14.338087 
  982000    305.25888    1.2509986     1971.458   -1258.0522   -211.49952      2074.17   -2310.2908   -2243.0184    44657.537 -0.067234084   -17.036218 -0.041707817    3465.6311    1564.9994    900.51839    852.30524    28.380287    18.846091    14.337831  0.084254266  0.084248744  0.075528672  0.075359398    305.25888     41.49527    35.978931    34.423473    90.016431    119.66323    90.107069     18.84636    14.337834    28.392541     18.84977    14.339946 
  983000    300.91684    1.2509986    2090.2596   -1245.6491   -211.49952    2064.4922   -2310.0811   -2470.0586    44657.537 -0.067234084   -17.036218 -0.041707817    3581.4976    1595.9788    946.12138    884.74871    28.379964    18.846824    14.337801  0.087741534  0.087739381   0.07485544   0.07482109    300.91684     41.49527    35.978931    34.423473    90.016431    119.66323    90.107069    18.846785    14.337844    28.373864    18.847667        14.34 
  984000    296.57272    1.2509986    2116.2173   -1260.7912   -211.49952    2070.0231   -2310.6393   -2411.0876    44657.537 -0.067234084   -17.036218 -0.041707817    3617.6247    1591.4266    970.64196    897.64679    28.379794    18.846393    14.337762   0.08958385   0.08958097  0.076950347  0.076807326    296.57272     41.49527    35.978931    34.423473    90.016431    119.66323    90.107069    18.847416    14.338343    28.370417    18.855393    14.343972 
  985000    298.23098    1.2509986    2008.8497   -1261.2834   -211.49952    2074.7116   -2310.1506   -785.27504    44657.537 -0.067234084   -17.036218 -0.041707817    3505.5722    1577.0604    923.99372    857.89991    28.379328    18.846513    14.337479  0.090630908  0.090630155  0.083413091  0.083298146    298.23098     41.49527    35.978931    34.423473    90.016431    119.66323    90.107069    18.845692    14.337023    28.382689    18.842231    14.331948 
  986000    309.52312    1.2509986    2023.4254   -1256.4218   -211.49952    2071.1074   -2310.1208   -1072.9972    44657.537 -0.067234084   -17.036218 -0.041707817    3518.8606    1565.1504      939.768    867.62719    28.379936    18.846278    14.337674  0.085389517  0.085375986   0.07590374  0.075841979    309.52312     41.49527    35.978931    34.423473    90.016431    119.66323    90.107069    18.846844    14.339233    28.385747    18.850004    14.344378 
  987000    303.37542    1.2509986     2021.369   -1235.3645   -211.49952    2074.9438   -2309.8839   -852.67492    44657.537 -0.067234084   -17.036218 -0.041707817    3491.6737    1561.7326     936.5204    844.62467    28.379591    18.845995    14.337574   0.08687283  0.086868363  0.077231899   0.07710006    303.37542     41.49527    35.978931    34.423473    90.016431    119.66323    90.107069    18.844149    14.338156    28.372953    18.840093    14.336696 
  988000    296.24888    1.2509986    1996.2333   -1253.4575   -211.49952    2069.8398     -2309.84   -2085.2301    44657.537 -0.067234084   -17.036218 -0.041707817     3489.691     1577.563    889.85046    873.13018    28.379196    18.846645    14.337879  0.084429213  0.084423885  0.075257825  0.075210089    296.24888     41.49527    35.978931    34.423473    90.016431    119.66323    90.107069    18.847507    14.337552    28.372681     18.84957    14.340036 
  989000    292.74381    1.2509986    2047.3709   -1223.9834   -211.49952    2078.7063   -2309.8503    745.65333    44657.537 -0.067234084   -17.036218 -0.041707817    3502.4982    1555.8522    954.68558    847.17152    28.379789    18.846585    14.337699  0.081490256  0.081489096  0.080299525  0.080275552    292.74381     41.49527    35.978931    34.423473    90.016431    119.66323    90.107069    18.845471    14.337908    28.381422    18.845118    14.337331 
  990000     298.2216    1.2509986    2088.5895   -1244.3965   -211.49952    2064.5874   -2310.5274   -1140.3522    44657.537 -0.067234084   -17.036218 -0.041707817     3578.926    1596.7443    948.46654    880.36214    28.380515    18.846157    14.337981  0.082904505   0.08290004  0.073611729  0.073498271     298.2216     41.49527    35.978931    34.423473    90.016431    119.66323    90.107069    18.846523    14.336544    28.372267     18.84828    14.331907 
  991000    293.67098    1.2509986    1997.5239   -1248.6718   -211.49952    2072.8325   -2310.1492   -369.62787    44657.537 -0.067234084   -17.036218 -0.041707817    3483.5124    1518.5032    947.88714    863.00942    28.379636     18.84597    14.337461  0.087939689  0.087929912  0.082982879  0.082790064    293.67098     41.49527    35.978931    34.423473    90.016431    119.66323    90.107069    18.846291    14.337078    28.366316    18.845198    14.341358 
  992000    292.84789    1.2509986      2068.29   -1229.1749   -211.49952     2070.129   -2310.0872   -644.44363    44657.537 -0.067234084   -17.036218 -0.041707817    3537.4231    1601.0807    925.89672    860.95737    28.380339    18.846403    14.337857   0.08304334   0.08303802  0.078798901  0.078684787    292.84789     41.49527    35.978931    34.423473    90.016431    119.66323    90.107069    18.847165    14.337287    28.383391    18.850618    14.329798 
  993000    295.29499    1.2509986     2038.031   -1225.2521   -211.49952    2072.3741   -2310.3758   -662.82186    44657.537 -0.067234084   -17.036218 -0.041707817    3501.2849    1527.8502    945.24694     872.5038    28.379832    18.846294    14.337761  0.080269212  0.080262601  0.071626823  0.071499258    295.29499     41.49527    35.978931    34.423473    90.016431    119.66323    90.107069    18.846457    14.337726     28.38425    18.848102    14.329406 
  994000    296.33502    1.2509986    1987.7457   -1265.8162   -211.49952    2076.0015   -2309.6432   -733.99201    44657.537 -0.067234084   -17.036218 -0.041707817    3487.2037    1586.7421    914.29816    841.33253    28.379949    18.846168     14.33814  0.086613815  0.086603433  0.078714325  0.078666969    296.33502     41.49527    35.978931    34.423473    90.016431    119.66323    90.107069    18.847716    14.339133    28.385629    18.845951    14.340686 
  995000    300.39404    1.2509986    2000.2948   -1230.5317   -211.49952    2072.5035    -2309.413   -1322.1633    44657.537 -0.067234084   -17.036218 -0.041707817    3467.7359     1541.573    914.59822    862.43904    28.379463    18.846068    14.337788  0.087360381  0.087352523  0.077324515  0.077159898    300.39404     41.49527    35.978931    34.423473    90.016431    119.66323    90.107069    18.848586    14.337574    28.383266    18.855513    14.329217 
  996000    298.25382    1.2509986    2138.2188   -1225.0198   -211.49952    2075.5256   -2310.3608     -731.028    44657.537 -0.067234084   -17.036218 -0.041707817    3598.0738    1628.0971    963.42956    857.02692    28.379503    18.846038    14.337685  0.089049085  0.089045614  0.075615767  0.075525291    298.25382     41.49527    35.978931    34.423473    90.016431    119.66323    90.107069    18.846829    14.336373    28.376019    18.848226    14.330844 
  997000    301.74071    1.2509986    2082.4997   -1228.2202   -211.49952    2072.2098   -2310.1678    230.19638    44657.537 -0.067234084   -17.036218 -0.041707817    3548.6779    1590.6595    928.93396    879.11021    28.378968    18.846314    14.337408  0.085555574  0.085551281  0.074359309  0.074225629    301.74071     41.49527    35.978931    34.423473    90.016431    119.66323    90.107069    18.846642    14.336461    28.378465    18.849012    14.328128 
  998000    306.75004    1.2509986    2099.6282   -1249.8844   -211.49952    2071.6068   -2310.2633   -1590.7027    44657.537 -0.067234084   -17.036218 -0.041707817    3588.1692    1568.9297    954.09415    907.98899    28.379742    18.846235    14.337833  0.087075701  0.087071121  0.080828793  0.080740777    306.75004     41.49527    35.978931    34.423473    90.016431    119.66323    90.107069    18.847936    14.337274    28.385348    18.849688    14.332288 
  999000    295.30628    1.2509986     2038.422   -1254.2759   -211.49952    2070.8313   -2309.8835   -3047.8112    44657.537 -0.067234084   -17.036218 -0.041707817    3531.7502    1582.1486       927.86    872.36003     28.38068    18.846315    14.338028  0.083880727   0.08388048   0.07407391  0.074031565    295.30628     41.49527    35.978931    34.423473    90.016431    119.66323    90.107069    18.845709    14.337599    28.374069    18.848324     14.33621 
 1000000     306.1226    1.2509986    2125.4601   -1221.8762   -211.49952    2072.0693   -2310.1512   -66.073189    44657.537 -0.067234084   -17.036218 -0.041707817    3585.4183    1562.3743    985.98776     884.5542    28.380027    18.846109    14.337776  0.083521386  0.083518885  0.070848048  0.070627151     306.1226     41.49527    35.978931    34.423473    90.016431    119.66323    90.107069    18.845958    14.336409    28.385008    18.841208    14.328224 
Loop time of 3028.63 on 60 procs for 1000000 steps with 4560 atoms

Pair  time (%) = 549.013 (18.1275)
Bond  time (%) = 59.0681 (1.95032)
Kspce time (%) = 1560.75 (51.5334)
Neigh time (%) = 14.8343 (0.489801)
Comm  time (%) = 585.621 (19.3362)
Outpt time (%) = 3.02973 (0.100036)
Other time (%) = 256.307 (8.46281)

Nlocal:    76 ave 84 max 69 min
Histogram: 1 2 13 6 13 6 8 3 7 1
Nghost:    3985.77 ave 4055 max 3887 min
Histogram: 5 5 7 3 0 3 7 9 12 9
Neighs:    28098.2 ave 31338 max 25691 min
Histogram: 1 10 9 9 7 11 4 7 1 1

Total # of neighbors = 1685893
Ave neighs/atom = 369.713
Ave special neighs/atom = 10.6316
Neighbor list builds = 6558
Dangerous builds = 0
System init for write_data ...
PPPM initialization ...
  G vector (1/distance) = 0.246499
  grid = 16 16 20
  stencil order = 5
  estimated absolute RMS force accuracy = 0.00242397
  estimated relative force accuracy = 7.2997e-06
  using double precision FFTs
  3d grid and FFT values/proc = 1053 112
