LAMMPS data file via write_data, version 15 May 2015, timestep = 2000000

4560 atoms
7 atom types
5040 bonds
3 bond types
7200 angles
2 angle types
10560 dihedrals
3 dihedral types
2400 impropers
1 improper types

-1.0763502675555259e-01 4.1387635026745990e+01 xlo xhi
-4.0433884491974936e-02 3.5938433884472119e+01 ylo yhi
-3.5711112484589691e-01 2.9555111124838550e+01 zlo zhi
-6.7234083837551181e-02 -1.7036217651000683e+01 -4.1707816797290791e-02 xy xz yz

Masses

1 12.0107
2 1.008
3 12.0107
4 12.0107
5 12.0107
6 12.0107
7 12.0107

Pair Coeffs # lj/cut/coul/cut

1 0 0
2 0 0
3 0 0
4 0 0
5 0 0
6 0 0
7 0 0

Bond Coeffs # harmonic

1 469 1.4
2 367 1.08
3 469 0.7

Angle Coeffs # harmonic

1 35 120
2 63 120

Dihedral Coeffs # opls

1 0 7.25 0 0
2 0 7.25 0 0
3 0 7.25 0 0

Improper Coeffs # cvff

1 2.5 -1 2

Atoms # full

219 13 3 0.0000000000000000e+00 9.3578034640876773e-02 2.0647145119256263e+00 3.2227233814580800e+00 1 0 0
1355 74 7 0.0000000000000000e+00 -1.1820890155691455e+00 1.0819667529735238e+01 8.3960656044829296e+00 1 0 0
2115 114 7 0.0000000000000000e+00 -1.2350676932923488e-01 1.4682985471198936e+01 1.1599798449351862e+01 1 0 0
580 33 4 0.0000000000000000e+00 2.8617836315061447e+00 3.5224015357029330e+00 3.0626349026313116e+00 1 0 0
228 13 3 0.0000000000000000e+00 -1.1154979763726534e+00 2.3989466898801957e+00 2.6812765440532029e+00 1 0 0
1764 94 1 0.0000000000000000e+00 -5.4044188825925596e+00 1.6883546039994894e+01 1.1147164510688471e+01 1 0 0
593 33 2 0.0000000000000000e+00 4.3734197427299559e+00 7.7045109192873795e+00 2.6863245840801571e+00 1 0 0
991 53 2 0.0000000000000000e+00 2.8980304759075493e-01 1.0592361703739581e+01 5.8447082151832488e+00 1 0 0
223 13 2 0.0000000000000000e+00 1.4400371438402368e+00 2.2057288880384358e+00 4.9199007032444815e+00 1 0 0
2060 110 2 0.0000000000000000e+00 -7.4318881825985770e+00 1.5376169891514783e+01 1.2780863412900228e+01 1 0 0
733 13 6 0.0000000000000000e+00 -4.5390660000977734e-01 2.4459831931949267e+00 2.9461353467046685e+00 1 0 0
250 14 2 0.0000000000000000e+00 -5.0534659132338620e+00 4.4313822620761751e+00 8.7466550608733016e+00 1 0 0
1809 97 7 0.0000000000000000e+00 7.5911807780702576e+00 1.4467540791731384e+01 3.4127253128509372e-01 1 0 0
1747 93 4 0.0000000000000000e+00 -1.2748276389385804e-02 1.2621461894884641e+01 2.2040380308254699e+00 1 0 0
226 13 1 0.0000000000000000e+00 -5.6970498036144779e-01 1.3085004942542462e+00 5.4767762723482361e-01 1 0 0
1354 73 2 0.0000000000000000e+00 2.6433473869606785e+00 8.4992833707598159e+00 5.3189132721978112e+00 1 0 0
2120 114 2 0.0000000000000000e+00 -2.1773470481150969e-01 1.3816912210345610e+01 1.2147602019863553e+01 1 0 0
2100 113 4 0.0000000000000000e+00 4.4446658548921443e+00 1.6797471243597862e+01 1.7803113717513535e+00 1 0 0
4385 233 2 0.0000000000000000e+00 2.2902997978365214e+00 1.3288385286089797e+00 6.4082003106721324e+00 1 1 0
1746 93 1 0.0000000000000000e+00 1.3858848408980606e+00 1.2516662435031085e+01 2.3466819021650172e+00 1 0 0
1058 57 1 0.0000000000000000e+00 6.8271844416280816e+00 8.5893873462138117e+00 3.7006098689129274e-01 1 0 0
4398 234 4 0.0000000000000000e+00 -4.5300014900671126e-01 3.3776204853345515e-01 1.1984400647773594e+01 1 1 0
604 34 1 0.0000000000000000e+00 -2.7807387390957108e+00 4.0230911845682558e+00 1.0555680119974188e+01 1 0 0
1005 54 4 0.0000000000000000e+00 -4.7630047908099922e+00 6.9455391630934118e+00 9.0851155300844724e+00 1 0 0
579 33 3 0.0000000000000000e+00 3.6135373139988607e+00 4.5692656420880651e+00 3.5946274312511020e+00 1 0 0
1740 93 4 0.0000000000000000e+00 1.3203429468703263e+00 1.4673650509894209e+01 3.5110477803294167e+00 1 0 0
1751 93 2 0.0000000000000000e+00 1.8366776598180048e+00 1.1602452433885926e+01 1.9576805574795184e+00 1 0 0
596 34 5 0.0000000000000000e+00 4.0989767759579898e-01 6.7633370005129558e+00 1.0868886818228683e+01 1 0 0
2116 114 5 0.0000000000000000e+00 -1.1658012648603231e+00 1.5565786773196335e+01 1.1314274520356205e+01 1 0 0
588 33 3 0.0000000000000000e+00 3.7211870460899688e+00 5.7951317213841724e+00 2.9410507592941144e+00 1 0 0
589 33 4 0.0000000000000000e+00 4.3814995506449632e+00 6.8484034942078278e+00 3.3797207726078029e+00 1 0 0
998 54 4 0.0000000000000000e+00 -5.8543627033450836e+00 7.8532399769839767e+00 1.1557879666195388e+01 1 0 0
753 33 6 0.0000000000000000e+00 3.6249761189241605e+00 5.1819701699974798e+00 3.2943003444453982e+00 1 0 0
1269 69 1 0.0000000000000000e+00 -1.9768891511813114e+00 1.1947175858352329e+01 2.8942795688587948e+00 1 0 0
602 34 2 0.0000000000000000e+00 -2.2140342990741173e+00 7.0551910482280062e+00 1.1761695214135534e+01 1 0 0
578 33 5 0.0000000000000000e+00 4.2238376214056412e+00 4.5080178528108465e+00 4.8603773540697066e+00 1 0 0
4387 233 4 0.0000000000000000e+00 4.1198809909433507e+00 9.3772988634016563e-01 2.2013318604365129e+00 1 1 0
303 17 2 0.0000000000000000e+00 6.2541213615580267e+00 5.1356821521519702e-01 1.0528895301287167e+00 1 0 0
2101 113 1 0.0000000000000000e+00 3.7003426115385225e+00 1.7064630809844893e+01 5.9308160271634112e+00 1 0 0
587 33 4 0.0000000000000000e+00 3.2349546021691236e+00 5.9934206354620336e+00 1.6746109356443375e+00 1 0 0
980 53 4 0.0000000000000000e+00 -2.0313665431791139e+00 8.9651267771484289e+00 4.1053984079515562e+00 1 0 0
1273 69 2 0.0000000000000000e+00 -8.9659191487804768e-01 1.2179323820356847e+01 3.0492523186107721e+00 1 0 0
4386 233 1 0.0000000000000000e+00 4.7010750664625469e+00 6.6282902385943782e-02 1.3070905282115406e+00 1 1 0
1008 54 1 0.0000000000000000e+00 -6.2688190652584153e+00 6.5799281973528352e+00 1.1050784049275666e+01 1 0 0
992 53 2 0.0000000000000000e+00 1.7494435492653104e+00 9.6339877371191829e+00 3.8992681054530598e+00 1 0 0
2108 113 3 0.0000000000000000e+00 3.0359973661595578e+00 1.7541465121270171e+01 3.6528758541029331e+00 1 0 0
610 34 2 0.0000000000000000e+00 -1.4333408555835998e+00 2.6532112656725451e+00 9.6630617410897379e+00 1 0 0
2110 113 1 0.0000000000000000e+00 3.5628920934455128e+00 1.7462518948850764e+01 8.6577135188824328e-01 1 0 0
221 13 1 0.0000000000000000e+00 -1.7042324726107207e+00 3.5439911072968386e+00 4.8042208780800397e+00 1 0 0
1350 73 1 0.0000000000000000e+00 2.9822899352351060e+00 9.3963871035832600e+00 4.8536330132627841e+00 1 0 0
2109 113 4 0.0000000000000000e+00 2.7868734671091202e+00 1.7553372829184077e+01 5.0274017199544456e+00 1 0 0
252 14 2 0.0000000000000000e+00 -1.7758555744942690e+00 4.4448502411375035e+00 1.1371647407510437e+01 1 0 0
2099 113 3 0.0000000000000000e+00 4.1707383806192935e+00 1.6884371113724519e+01 3.1362852098942611e+00 1 0 0
4381 233 1 0.0000000000000000e+00 2.6098255532730597e+00 6.3769311689911845e-01 5.6230100206063307e+00 1 1 0
1004 54 1 0.0000000000000000e+00 -5.7148250208230085e+00 6.2003388703860942e+00 9.8047802720951491e+00 1 0 0
594 33 2 0.0000000000000000e+00 1.7642187696197691e+00 2.8177821333182576e+00 1.3579981319342036e+00 1 0 0
1341 73 1 0.0000000000000000e+00 4.4421275533037257e+00 1.3108921640639677e+01 1.6964398199099557e+00 1 0 0
1367 74 4 0.0000000000000000e+00 9.6638907205933045e-01 1.1515040445746806e+01 9.2343701689179891e+00 1 0 0
1760 94 2 0.0000000000000000e+00 -4.8542861846155061e+00 1.1312206902598980e+01 8.9315836298031268e+00 1 0 0
2118 114 4 0.0000000000000000e+00 -1.9566552140428080e+00 1.7606203977490253e+01 1.0201218853622112e+01 1 0 0
996 54 5 0.0000000000000000e+00 -4.5225350327673333e+00 9.8797906196134928e+00 1.1400562400034829e+01 1 0 0
597 34 3 0.0000000000000000e+00 -6.1257301066953573e-01 5.8215813939731920e+00 1.0836474199310114e+01 1 0 0
734 14 6 0.0000000000000000e+00 -4.6279347690861883e+00 2.3493906595702794e+00 1.0479795366410343e+01 1 0 0
1072 58 2 0.0000000000000000e+00 1.9777858177102834e+00 5.6546114538314898e+00 9.2465484234140547e+00 1 0 0
1750 93 1 0.0000000000000000e+00 2.0454838365873034e+00 1.3567565161307897e+01 2.9475653061554179e+00 1 0 0
994 53 2 0.0000000000000000e+00 -2.1169357754979168e+00 1.0429107764954278e+01 5.7072598599834006e+00 1 0 0
237 14 3 0.0000000000000000e+00 -4.0956695690015188e+00 1.9771215464082357e+00 1.0882430755533353e+01 1 0 0
990 53 1 0.0000000000000000e+00 -1.4772771139779390e+00 9.8594857872331421e+00 5.0481945029799951e+00 1 0 0
4391 233 2 0.0000000000000000e+00 5.2329496360821590e+00 4.9456956556274173e-01 4.5820068355176158e-01 1 1 0
241 14 2 0.0000000000000000e+00 -3.8088730108960900e+00 2.2612628469386994e-01 1.2124462151050842e+01 1 0 0
1752 93 2 0.0000000000000000e+00 -5.6296803695539988e-01 1.1795443497051584e+01 1.7539143062688964e+00 1 0 0
4408 234 1 0.0000000000000000e+00 7.6082665826691542e-01 7.9972853487098416e-01 1.1368634217284546e+01 1 1 0
246 14 3 0.0000000000000000e+00 -4.9097270447301442e+00 2.6101866891069392e+00 9.9202227948579189e+00 1 0 0
599 34 1 0.0000000000000000e+00 1.8538931743031295e+00 5.1664126882267700e+00 1.0018426357077223e+01 1 0 0
605 34 4 0.0000000000000000e+00 -1.5341833246410701e+00 3.6423055837217948e+00 1.0111706214646198e+01 1 0 0
606 34 3 0.0000000000000000e+00 -4.7817603789577934e-01 4.5547210322779259e+00 1.0293828471178546e+01 1 0 0
607 34 4 0.0000000000000000e+00 8.1683386143919812e-01 4.2518587563455146e+00 9.8309214850267121e+00 1 0 0
985 53 2 0.0000000000000000e+00 7.7000868839718417e-01 6.6451449759255299e+00 4.0888003175571086e-01 1 0 0
298 17 1 0.0000000000000000e+00 6.5659775490981831e+00 1.0641642126032309e+00 1.9249962769968167e+00 1 0 0
1073 58 2 0.0000000000000000e+00 1.7804785989197427e+00 7.9501218373937244e+00 8.5226603571418842e+00 1 0 0
591 33 2 0.0000000000000000e+00 1.7914060426085949e+00 5.0313079224019637e+00 2.3828706778159636e-01 1 0 0
598 34 4 0.0000000000000000e+00 -1.8807202569224115e+00 6.0913337851587617e+00 1.1299821792440540e+01 1 0 0
754 34 6 0.0000000000000000e+00 -4.2909655728208662e-01 5.2739308069581465e+00 1.0486502598541435e+01 1 0 0
586 33 1 0.0000000000000000e+00 2.4155583966483376e+00 4.9337558121469662e+00 1.1400689343935737e+00 1 0 0
249 14 2 0.0000000000000000e+00 -2.9857852207204485e+00 5.4832695529565063e+00 9.6171246412709319e+00 1 0 0
1361 74 2 0.0000000000000000e+00 -2.7940205583544242e+00 1.1080105776516236e+01 9.7763142724524688e+00 1 0 0
1343 73 2 0.0000000000000000e+00 3.3145863305939320e+00 9.9699364909328860e+00 8.8437134379753335e-01 1 0 0
4402 234 2 0.0000000000000000e+00 -7.0354175929471463e-01 6.3974350619017828e-01 1.2964577051958047e+01 1 1 0
1281 69 2 0.0000000000000000e+00 -2.2335125064841677e+00 1.0532654666953198e+01 4.6250461515070516e+00 1 0 0
979 53 3 0.0000000000000000e+00 -1.2524774364448079e+00 8.4002538578282575e+00 3.1128110904886759e+00 1 0 0
224 13 2 0.0000000000000000e+00 1.9709779584437399e+00 1.1706596907050668e+00 2.9038219298661403e+00 1 0 0
581 33 1 0.0000000000000000e+00 5.0434335703665534e+00 6.7844003646635276e+00 4.5917040635443005e+00 1 0 0
2104 113 2 0.0000000000000000e+00 5.2765802971704154e+00 1.6166136605020089e+01 1.5034238519033063e+00 1 0 0
993 53 2 0.0000000000000000e+00 1.9469490471296433e+00 7.8888363282437552e+00 1.9764408163878526e+00 1 0 0
2253 93 6 0.0000000000000000e+00 -3.7023794078328298e-01 1.4264979487356751e+01 2.9940470065988971e+00 1 0 0
1493 53 6 0.0000000000000000e+00 -5.8011536904687211e-01 8.6297541972836900e+00 2.9780810462808005e+00 1 0 0
1064 57 2 0.0000000000000000e+00 5.2449422998672777e+00 8.7390682995691495e+00 1.7408217888432005e+00 1 0 0
244 14 1 0.0000000000000000e+00 -3.3252330741790974e+00 4.5214591110599462e+00 9.9897996946721062e+00 1 0 0
1387 75 2 0.0000000000000000e+00 -3.6891043292250991e+00 1.0347866378805067e+01 1.4152352060657448e+01 1 0 0
242 14 2 0.0000000000000000e+00 -2.4372723689301141e+00 1.9722990784940171e+00 1.2098427112138380e+01 1 0 0
1371 74 2 0.0000000000000000e+00 1.9408453902729557e+00 1.1822251723266762e+01 9.0654263032146165e+00 1 0 0
1759 94 1 0.0000000000000000e+00 -4.4119781684690604e+00 1.2143810840748996e+01 1.0946103554373407e+01 1 0 0
1074 58 2 0.0000000000000000e+00 2.3027795184598858e+00 1.0287218348180017e+01 8.8731869309630120e+00 1 0 0
1368 74 1 0.0000000000000000e+00 -6.5915134432196698e-01 1.2672089226876039e+01 1.3006706138551513e+01 1 0 0
245 14 4 0.0000000000000000e+00 -4.5220849369189953e+00 3.8903131050990911e+00 9.5087523903670039e+00 1 0 0
1755 94 7 0.0000000000000000e+00 -4.7683377531959845e+00 1.2188356400006404e+01 9.6055137187849002e+00 1 0 0
306 17 2 0.0000000000000000e+00 4.5478136914011973e+00 1.3588066744785086e+00 2.5100648741944989e+00 1 0 0
2127 114 4 0.0000000000000000e+00 1.4161070202985808e+00 1.6239814275767799e+01 1.0400227843566242e+01 1 0 0
1337 73 7 0.0000000000000000e+00 3.9979856595045651e+00 1.2044493369573171e+01 8.1240717069412849e-01 1 0 0
2117 114 3 0.0000000000000000e+00 -8.7618293100406497e-01 1.6764720472394018e+01 1.0547671459100867e+01 1 0 0
1338 73 5 0.0000000000000000e+00 3.5365792560103699e+00 1.0886426468534363e+01 1.4124250112135401e+00 1 0 0
1339 73 3 0.0000000000000000e+00 3.4431284357582959e+00 1.0738659239833547e+01 2.8243248655385456e+00 1 0 0
1340 73 4 0.0000000000000000e+00 2.9847064275108068e+00 9.5397918112751654e+00 3.4046177270183500e+00 1 0 0
1011 54 2 0.0000000000000000e+00 -3.0704383197094636e+00 8.7283351284437174e+00 8.0648421543811804e+00 1 0 0
2114 113 2 0.0000000000000000e+00 3.7365786336124289e+00 1.7325418287710260e+01 -1.6304586891753603e-01 1 0 0
235 14 7 0.0000000000000000e+00 -5.6044973186298455e+00 2.5508042900611969e-02 1.1075366587154898e+01 1 0 0
988 53 3 0.0000000000000000e+00 1.2803152744769597e-01 8.6343664549143782e+00 3.0705427740537052e+00 1 0 0
1348 73 3 0.0000000000000000e+00 3.8673546010354345e+00 1.1779773434664760e+01 3.6627540461924903e+00 1 0 0
1349 73 4 0.0000000000000000e+00 4.3958403160432242e+00 1.2952817119014666e+01 3.1218832833773167e+00 1 0 0
590 33 1 0.0000000000000000e+00 2.3626745424388043e+00 3.6544265760639938e+00 1.7590686280880643e+00 1 0 0
1513 73 6 0.0000000000000000e+00 3.7024862872270714e+00 1.1280871988985957e+01 3.2517825820748469e+00 1 0 0
1352 73 2 0.0000000000000000e+00 4.4256218856351879e+00 1.2323780878689218e+01 5.6603195346771384e+00 1 0 0
601 34 2 0.0000000000000000e+00 2.7584849415538404e-01 7.7560482055742446e+00 1.1276398518479015e+01 1 0 0
987 53 4 0.0000000000000000e+00 6.9920213821378940e-01 9.4699895171976962e+00 4.0421474950999787e+00 1 0 0
1347 73 4 0.0000000000000000e+00 4.0031311467329562e+00 1.1589241016842529e+01 5.0707784485356067e+00 1 0 0
1000 54 2 0.0000000000000000e+00 -3.2775183846581726e+00 1.1606152576311269e+01 1.1171148915868844e+01 1 0 0
302 17 1 0.0000000000000000e+00 5.5879272485567624e+00 1.5711895491589130e+00 2.7808700453129962e+00 1 0 0
1757 94 3 0.0000000000000000e+00 -5.2701005038363498e+00 1.4564320889216376e+01 9.6510935412225578e+00 1 0 0
222 13 2 0.0000000000000000e+00 -1.7867339575901253e-01 3.6444044092984500e+00 6.2940280969838014e+00 1 0 0
4392 233 2 0.0000000000000000e+00 4.1770500996375537e+00 2.0200819973233908e+00 2.0892666557020729e+00 1 1 0
1372 74 2 0.0000000000000000e+00 -9.9891583771314973e-01 1.3094930500174362e+01 1.3942049289060728e+01 1 0 0
217 13 7 0.0000000000000000e+00 -4.5032889032079693e-01 3.2416011007506418e+00 5.3385342633615522e+00 1 0 0
1767 94 4 0.0000000000000000e+00 -4.4001191749405546e+00 1.3341033163912142e+01 1.1597909747655198e+01 1 0 0
1748 93 3 0.0000000000000000e+00 -7.4287712339348599e-01 1.3770701854264146e+01 2.6160132974725228e+00 1 0 0
1007 54 4 0.0000000000000000e+00 -3.5330027227314247e+00 9.0427891305323360e+00 8.9486877822479833e+00 1 0 0
238 14 4 0.0000000000000000e+00 -2.9411799304435760e+00 2.5662508246952966e+00 1.1367858600748418e+01 1 0 0
612 34 2 0.0000000000000000e+00 -4.0643619150473036e+00 5.5248772150470771e+00 1.1378452992552759e+01 1 0 0
1743 93 2 0.0000000000000000e+00 -2.6395271193395953e-01 1.6680957307211212e+01 4.3056856076403962e+00 1 0 0
1288 70 2 0.0000000000000000e+00 -7.1921198198648986e+00 1.2999804871453865e+01 1.3106749509840009e+01 1 0 0
1771 94 2 0.0000000000000000e+00 -4.1209893492010785e+00 1.3420200482482423e+01 1.2633824575435737e+01 1 0 0
229 13 4 0.0000000000000000e+00 -1.9986720383053982e+00 3.1354260544132906e+00 3.4956161543836703e+00 1 0 0
989 53 4 0.0000000000000000e+00 8.7606821388906986e-01 7.8921648537492919e+00 2.1013088524541521e+00 1 0 0
1359 74 1 0.0000000000000000e+00 1.9020607094137709e-01 1.1027206679971634e+01 8.2312966219280828e+00 1 0 0
1345 73 2 0.0000000000000000e+00 4.9054863946010103e+00 1.4042037228563869e+01 1.2800775371892261e+00 1 0 0
218 13 5 0.0000000000000000e+00 4.4458352954276403e-01 2.4537445935180333e+00 4.5976745959158221e+00 1 0 0
220 13 4 0.0000000000000000e+00 1.0108950025101673e+00 1.3585731953967575e+00 2.4430580172649683e+00 1 0 0
997 54 3 0.0000000000000000e+00 -4.9150261483886322e+00 8.6357683159001972e+00 1.0827647639120555e+01 1 0 0
1353 73 2 0.0000000000000000e+00 4.7422583815516042e+00 1.3652398595300552e+01 3.8154079350391736e+00 1 0 0
584 33 2 0.0000000000000000e+00 2.7682212929074539e+00 2.6841364645253183e+00 3.7333212103974667e+00 1 0 0
1357 74 3 0.0000000000000000e+00 -9.9065602711016787e-01 1.1774289120650195e+01 1.0742411860764976e+01 1 0 0
609 34 2 0.0000000000000000e+00 -3.7970254134090751e+00 3.4462378338251645e+00 1.0544044835515002e+01 1 0 0
1342 73 2 0.0000000000000000e+00 4.1508304435336836e+00 1.2166722932640136e+01 -2.7232037972604900e-01 1 0 0
1494 54 6 0.0000000000000000e+00 -4.5590508662488842e+00 8.4140219753142986e+00 1.0285146770017370e+01 1 0 0
981 53 1 0.0000000000000000e+00 1.8370878536866608e-01 7.0951723865539478e+00 1.1955443356008826e+00 1 0 0
2098 113 5 0.0000000000000000e+00 5.1073942268177870e+00 1.6382555974747323e+01 4.0552177715410860e+00 1 0 0
2254 94 6 0.0000000000000000e+00 -5.0430980746358189e+00 1.4605104023937207e+01 1.0281345774293191e+01 1 0 0
1832 98 2 0.0000000000000000e+00 2.0522807877307487e+00 1.1264776259503543e+01 9.4173344711567921e+00 1 0 0
1514 74 6 0.0000000000000000e+00 -2.5383158815901563e-01 1.1651817493379156e+01 1.0557867239744528e+01 1 0 0
1754 93 2 0.0000000000000000e+00 3.1487042749329017e+00 1.3521421427964187e+01 3.0958061125422995e+00 1 0 0
1835 98 2 0.0000000000000000e+00 2.2392088448357050e+00 1.2923030421876637e+01 7.7765177082092460e+00 1 0 0
2119 114 1 0.0000000000000000e+00 1.1232786904130734e+00 1.5060094883792500e+01 1.1144569410618258e+01 1 0 0
4389 233 4 0.0000000000000000e+00 3.1579924163011519e+00 1.2312222657171255e+00 4.4212152544544558e+00 1 1 0
1366 74 3 0.0000000000000000e+00 4.1127627126808619e-01 1.1809285352839431e+01 1.0503239531425342e+01 1 0 0
1360 74 2 0.0000000000000000e+00 -1.8080521347537966e+00 1.0594804168137252e+01 7.5525563356025147e+00 1 0 0
592 33 2 0.0000000000000000e+00 3.3611528270295237e+00 7.0030360730495840e+00 1.2386938826710643e+00 1 0 0
1344 73 2 0.0000000000000000e+00 2.6446540123580737e+00 8.7549210630261349e+00 2.7849936850896819e+00 1 0 0
608 34 1 0.0000000000000000e+00 -2.9820834927283006e+00 5.2988169927588595e+00 1.1148448324213122e+01 1 0 0
1362 74 2 0.0000000000000000e+00 -2.5083302086435664e+00 1.2337402101857331e+01 1.2318278207039162e+01 1 0 0
1001 54 2 0.0000000000000000e+00 -4.8835434307848704e+00 1.0177767345229983e+01 1.2312393846535175e+01 1 0 0
1766 94 3 0.0000000000000000e+00 -4.7825097950434881e+00 1.4516349814915159e+01 1.0939341005311174e+01 1 0 0
1006 54 3 0.0000000000000000e+00 -4.3771883881712750e+00 8.1763976757963466e+00 9.6260969564593868e+00 1 0 0
230 13 1 0.0000000000000000e+00 6.8282341344268527e-01 9.4047280862140925e-01 1.1269679554660939e+00 1 0 0
995 54 7 0.0000000000000000e+00 -3.6330889986025072e+00 1.0703188835724077e+01 1.0686932925578297e+01 1 0 0
1817 97 2 0.0000000000000000e+00 7.2938122434862942e+00 1.6633561891400586e+01 9.4788156230288412e-02 1 0 0
1365 74 4 0.0000000000000000e+00 1.2858420710811629e+00 1.2355832721930641e+01 1.1514229662252673e+01 1 0 0
1770 94 2 0.0000000000000000e+00 -4.2817127966708695e+00 1.5850104551252000e+01 1.2655099183943410e+01 1 0 0
1068 58 5 0.0000000000000000e+00 2.4405735852909611e+00 7.7163271336424373e+00 9.3867344850704608e+00 1 0 0
2274 114 6 0.0000000000000000e+00 -2.6169675994061148e-01 1.7042443949880976e+01 1.0312746882318399e+01 1 0 0
1059 57 4 0.0000000000000000e+00 6.2598369558273061e+00 8.6183757863418435e+00 1.6519378190450515e+00 1 0 0
2121 114 2 0.0000000000000000e+00 -2.1427363091020935e+00 1.5274619721485019e+01 1.1636571558540528e+01 1 0 0
2126 114 3 0.0000000000000000e+00 3.6472287775279977e-01 1.7105567230916247e+01 1.0057128807751511e+01 1 0 0
225 13 2 0.0000000000000000e+00 -2.3539826298255950e+00 4.1993997590150496e+00 5.3458795148950404e+00 1 0 0
236 14 5 0.0000000000000000e+00 -4.4511593564766567e+00 7.1146936872421263e-01 1.1380411588152468e+01 1 0 0
1738 93 5 0.0000000000000000e+00 -7.6254418440178684e-01 1.5892239432373907e+01 3.7686438694355910e+00 1 0 0
1763 94 2 0.0000000000000000e+00 -4.1030211295680470e+00 1.1222915514840373e+01 1.1377306940032764e+01 1 0 0
583 33 2 0.0000000000000000e+00 4.2182569043171103e+00 3.5848481444637694e+00 5.4223374119569163e+00 1 0 0
1737 93 7 0.0000000000000000e+00 -2.1222752534684233e+00 1.6023303030853970e+01 3.5487694198686990e+00 1 0 0
1739 93 3 0.0000000000000000e+00 -3.5654198443132445e-02 1.4817788803391631e+01 3.2128710348698344e+00 1 0 0
2122 114 2 0.0000000000000000e+00 -2.9273710279078164e+00 1.7408625352564808e+01 1.0611342058335035e+01 1 0 0
248 14 1 0.0000000000000000e+00 -2.5969444032157751e+00 3.8742872499234267e+00 1.0990787307123853e+01 1 0 0
1363 74 2 0.0000000000000000e+00 6.2257420136113328e-01 1.0923202642628196e+01 7.2024276021777993e+00 1 0 0
1744 93 2 0.0000000000000000e+00 1.6969871287879568e+00 1.5519061227054939e+01 4.0621248644039394e+00 1 0 0
986 53 1 0.0000000000000000e+00 -9.2075013905389635e-02 1.0020018187831957e+01 5.0530553325375713e+00 1 0 0
4393 233 2 0.0000000000000000e+00 3.1914313660155469e+00 2.2827946119860423e+00 4.3404090574607714e+00 1 1 0
1831 98 1 0.0000000000000000e+00 2.5657893113110957e+00 1.3172447806979699e+01 8.7812866875997617e+00 1 0 0
1356 74 5 0.0000000000000000e+00 -1.7563056251489213e+00 1.1169329805876483e+01 9.6931028120956544e+00 1 0 0
2273 113 6 0.0000000000000000e+00 3.6553387303843961e+00 1.7332204202821096e+01 3.4005082381797456e+00 1 0 0
296 17 2 0.0000000000000000e+00 5.1342036460722484e+00 2.7244345725461754e+00 4.5288673059678182e+00 1 0 0
999 54 1 0.0000000000000000e+00 -3.0899325560195083e+00 1.0281067339529281e+01 9.4919062125935127e+00 1 0 0
1756 94 5 0.0000000000000000e+00 -5.2092227712094754e+00 1.3359781998261287e+01 8.9470705739960028e+00 1 0 0
2105 113 2 0.0000000000000000e+00 3.4959115937135028e+00 1.7259445998129422e+01 7.0007431314645148e+00 1 0 0
1003 54 2 0.0000000000000000e+00 -2.3392732377819252e+00 1.0924884057259042e+01 8.9569240505262009e+00 1 0 0
1002 54 2 0.0000000000000000e+00 -6.3011312563992066e+00 8.2744055970320272e+00 1.2455311186811102e+01 1 0 0
1358 74 4 0.0000000000000000e+00 -1.5182001745361156e+00 1.2278528049706473e+01 1.1972540785138399e+01 1 0 0
4388 233 3 0.0000000000000000e+00 3.6514573356745266e+00 4.1693480316584991e-01 3.3831658997687604e+00 1 1 0
595 34 7 0.0000000000000000e+00 1.7381470886168362e+00 6.4490579580149099e+00 1.0501549340089394e+01 1 0 0
1291 70 2 0.0000000000000000e+00 -6.4084851846909467e+00 1.3872054393870124e+01 1.0873876631576751e+01 1 0 0
611 34 2 0.0000000000000000e+00 1.0137071006070517e+00 3.2139823292603631e+00 9.4221990768739037e+00 1 0 0
1765 94 4 0.0000000000000000e+00 -4.7182470457532997e+00 1.5718880045711330e+01 1.1610280153244435e+01 1 0 0
1346 73 1 0.0000000000000000e+00 3.5982920762448698e+00 1.0367527344090893e+01 5.6364114174116420e+00 1 0 0
4409 234 2 0.0000000000000000e+00 2.1175619850217187e+00 6.2066612383855724e-01 9.7438947580150295e+00 1 1 0
1813 97 1 0.0000000000000000e+00 7.3538776389722189e+00 1.5811965018658004e+01 7.6953873986460364e-01 1 0 0
1351 73 2 0.0000000000000000e+00 3.7745112662977958e+00 1.0312950008311905e+01 6.6953603313318988e+00 1 0 0
234 13 2 0.0000000000000000e+00 1.3252371627519395e+00 2.3735913274886922e-01 5.6170537121937214e-01 1 0 0
1010 54 2 0.0000000000000000e+00 -4.4049814895268957e+00 6.6397891284391886e+00 8.1022993359892297e+00 1 0 0
2503 133 2 0.0000000000000000e+00 -4.4984558692645682e-01 1.7900730906647418e+01 1.8261450680218747e+00 1 0 0
4404 234 1 0.0000000000000000e+00 1.2138618532430687e+00 3.1857151901464736e-01 1.0151693441706694e+01 1 1 0
2529 134 2 0.0000000000000000e+00 -5.6070285149864256e+00 1.6978533386682944e+01 9.7943872355959627e+00 1 0 0
4313 229 2 0.0000000000000000e+00 -1.3683852212010541e+00 3.9239804354759672e-01 2.3600158417875550e+00 1 1 0
2604 138 2 0.0000000000000000e+00 1.5832106546087745e+00 1.7791260480561192e+01 1.0855174004605381e+01 1 0 0
1065 57 2 0.0000000000000000e+00 5.4539179284978445e+00 8.1598187761571541e+00 4.1205658339591382e+00 1 0 0
1364 74 1 0.0000000000000000e+00 7.0620187156893266e-01 1.2766833446409700e+01 1.2733123777103939e+01 1 0 0
1769 94 2 0.0000000000000000e+00 -5.3405601764018282e+00 1.7700691588868068e+01 1.1766172343300180e+01 1 0 0
4436 236 2 0.0000000000000000e+00 -6.4816566510015221e+00 1.3659670602573952e+00 2.4201246610693048e+01 1 1 0
1796 96 2 0.0000000000000000e+00 -1.3797742145402246e+01 1.5902469440371300e+01 2.8401327680821417e+01 1 0 0
255 15 3 0.0000000000000000e+00 -8.2264469115377388e+00 2.5165742198904213e+00 1.8256045207051358e+01 1 0 0
1785 95 4 0.0000000000000000e+00 -9.5790263989399183e+00 1.6059498419275183e+01 1.8533306461934508e+01 1 0 0
4416 235 4 0.0000000000000000e+00 -5.3007357404678146e+00 5.8410215020257228e-01 1.9737255431597458e+01 1 1 0
2168 116 2 0.0000000000000000e+00 -1.1727726550593573e+01 1.6248481676805948e+01 2.7675376264149044e+01 1 0 0
4435 236 1 0.0000000000000000e+00 -8.0267346461151980e+00 1.6830493181314607e+00 2.5712408151176373e+01 1 1 0
264 15 3 0.0000000000000000e+00 -9.5094568123700132e+00 2.7650667365448780e+00 1.7836383680562211e+01 1 0 0
1862 99 2 0.0000000000000000e+00 -1.6194369213794522e+00 1.6775375410131868e+01 1.5652647168928755e+01 1 0 0
1808 96 2 0.0000000000000000e+00 -1.1959339815653378e+01 1.1389465488669551e+01 2.3866920084639464e+01 1 0 0
1381 75 2 0.0000000000000000e+00 -6.1221878419108293e+00 1.3788125993730501e+01 1.9317021747559309e+01 1 0 0
735 15 6 0.0000000000000000e+00 -8.9098637309194242e+00 2.4156477654605655e+00 1.8049620192603971e+01 1 0 0
1037 56 2 0.0000000000000000e+00 -1.3906387034128018e+01 6.1065364504787576e+00 2.6562108659356220e+01 1 0 0
254 15 5 0.0000000000000000e+00 -7.4839263689311295e+00 1.5165378615617795e+00 1.7623793889882272e+01 1 0 0
1045 56 2 0.0000000000000000e+00 -1.0681611152614170e+01 9.5764795853471245e+00 2.3201803316504598e+01 1 0 0
1790 95 2 0.0000000000000000e+00 -9.5035568784324838e+00 1.0786607391261883e+01 1.8408165165450981e+01 1 0 0
615 35 3 0.0000000000000000e+00 -5.4066366007161522e+00 5.0745457582538585e+00 1.7908453482353067e+01 1 0 0
4431 236 7 0.0000000000000000e+00 -7.3376132602549751e+00 9.3117413810245730e-01 2.4773631708311083e+01 1 1 0
1031 56 7 0.0000000000000000e+00 -1.4920881885913158e+01 7.8232198525204790e+00 2.7148989697137079e+01 1 0 0
624 35 3 0.0000000000000000e+00 -4.2959990557298804e+00 5.1706595568641349e+00 1.8709026479846411e+01 1 0 0
625 35 4 0.0000000000000000e+00 -3.6425221569362973e+00 6.3888421037878764e+00 1.8909554434218926e+01 1 0 0
1400 76 1 0.0000000000000000e+00 -7.2875973077919616e+00 9.7590141666416823e+00 2.4346346686603390e+01 1 0 0
755 35 6 0.0000000000000000e+00 -4.9264805216580445e+00 5.1066758202726330e+00 1.8445990155983392e+01 1 0 0
1397 76 2 0.0000000000000000e+00 -9.4290679827569477e+00 1.2849830815184498e+01 2.7471902664828317e+01 1 0 0
614 35 5 0.0000000000000000e+00 -5.9326882009921977e+00 6.2196648365312166e+00 1.7341484543909690e+01 1 0 0
1795 96 1 0.0000000000000000e+00 -1.3887831537618840e+01 1.6634289463208908e+01 2.6343881511406845e+01 1 0 0
1778 95 2 0.0000000000000000e+00 -7.9385430401710781e+00 1.6559157127606763e+01 1.5636141120787125e+01 1 0 0
616 35 4 0.0000000000000000e+00 -5.9481151908790713e+00 3.8307019854167939e+00 1.7668468853840064e+01 1 0 0
630 35 2 0.0000000000000000e+00 -5.9897971371535386e+00 1.7156204929026440e+00 1.8226978949528927e+01 1 0 0
2143 115 4 0.0000000000000000e+00 -4.7318320396639271e+00 1.5273070574166033e+01 1.8660387725612768e+01 1 0 0
1804 96 1 0.0000000000000000e+00 -1.2263969979882923e+01 1.2386353817334989e+01 2.4085339155300062e+01 1 0 0
626 35 1 0.0000000000000000e+00 -5.5210852185829031e+00 2.6783633980758719e+00 1.8342529704172449e+01 1 0 0
1388 75 2 0.0000000000000000e+00 -4.4050022093013119e+00 1.2506954568404884e+01 1.5283478267190155e+01 1 0 0
1035 56 1 0.0000000000000000e+00 -1.5153518743830727e+01 9.1707177392076975e+00 2.6826411175299793e+01 1 0 0
634 36 4 0.0000000000000000e+00 -1.0592722336663998e+01 4.0896778753593521e+00 2.4407543652662635e+01 1 0 0
1044 56 1 0.0000000000000000e+00 -1.1278372903770675e+01 7.6928694264041848e+00 2.3978068247598529e+01 1 0 0
2153 116 3 0.0000000000000000e+00 -8.9776116853609214e+00 1.6604571528458287e+01 2.5681536855840026e+01 1 0 0
1046 56 2 0.0000000000000000e+00 -1.2417028680416752e+01 1.0904924971729736e+01 2.4418489791793402e+01 1 0 0
1774 95 5 0.0000000000000000e+00 -8.2716454140998206e+00 1.4661624194192402e+01 1.6499783704728205e+01 1 0 0
2148 115 2 0.0000000000000000e+00 -5.4122344275946279e+00 1.4383085406540816e+01 1.8828040541336701e+01 1 0 0
1029 55 2 0.0000000000000000e+00 -7.1407358093183291e+00 8.3943047399534745e+00 1.9919565888484396e+01 1 0 0
1091 59 2 0.0000000000000000e+00 -1.6191127674554782e+00 7.0248091888208588e+00 1.5900487880950070e+01 1 0 0
276 16 2 0.0000000000000000e+00 -9.7177621214996996e+00 1.2492194815174140e+00 2.6104605401663544e+01 1 0 0
273 16 3 0.0000000000000000e+00 -1.2930608352462752e+01 2.3514994730704988e+00 2.6360441827974878e+01 1 0 0
1799 96 2 0.0000000000000000e+00 -1.4105467577920194e+01 1.7592421008418924e+01 2.6740663287510948e+01 1 0 0
283 16 4 0.0000000000000000e+00 -1.2640522152271622e+01 1.2563663757958539e+00 2.4201226225326057e+01 1 0 0