LAMMPS (15 May 2015)
Reading data file ...
  triclinic box = (-0.107635 -0.0404339 -0.357111) to (41.3876 35.9384 29.5551) with tilt (-0.0672341 -17.0362 -0.0417078)
  5 by 2 by 2 MPI processor grid
  reading atoms ...
  4560 atoms
  reading velocities ...
  4560 velocities
  scanning bonds ...
  3 = max bonds/atom
  scanning angles ...
  3 = max angles/atom
  scanning dihedrals ...
  8 = max dihedrals/atom
  scanning impropers ...
  1 = max impropers/atom
  reading bonds ...
  5040 bonds
  reading angles ...
  7200 angles
  reading dihedrals ...
  10560 dihedrals
  reading impropers ...
  2400 impropers
Finding 1-2 1-3 1-4 neighbors ...
 Special bond factors lj:   0          0          0         
 Special bond factors coul: 0          0          0         
  4 = max # of 1-2 neighbors
  8 = max # of 1-3 neighbors
  20 = max # of 1-4 neighbors
  16 = max # of special neighbors
4560 atoms in group all
720 atoms in group C
480 atoms in group S
1920 atoms in group H
720 atoms in group Si
240 atoms in group Na
240 atoms in group Ba
240 atoms in group O
4560 atoms in group naphthalene
2400 atoms in group carbon
960 atoms in group CO
Setting atom values ...
  720 settings made for charge
Setting atom values ...
  720 settings made for charge
Setting atom values ...
  1920 settings made for charge
Setting atom values ...
  480 settings made for charge
Setting atom values ...
  240 settings made for charge
Setting atom values ...
  240 settings made for charge
Setting atom values ...
  240 settings made for charge
Finding 1-2 1-3 1-4 neighbors ...
 Special bond factors lj:   0          0          0.5       
 Special bond factors coul: 0          0          0.5       
  4 = max # of 1-2 neighbors
  8 = max # of 1-3 neighbors
  20 = max # of 1-4 neighbors
  16 = max # of special neighbors
Neighbor list info ...
  4 neighbor list requests
  update every 1 steps, delay 0 steps, check yes
  master list distance cutoff = 12
Setting up run ...
Memory usage per processor = 13.4064 Mbytes
Step Temp Density PotEng E_vdwl E_tail E_coul E_long Press Volume Xy Xz Yz E_mol E_bond E_angle E_dihed 14[1] 14[2] 14[3] msd[4] msd2[4] msd3[4] msd4[4] naphthal Cella Cellb Cellc CellAlpha CellBeta CellGamma 2 3 27[1] 27[2] 27[3] 28[1] 28[2] 28[3] 
       0          298    1.2509986     3498.833            0            0            0            0   -15873.524    44657.537 -0.067234084   -17.036218 -0.041707817     3498.833    1521.0094     935.4334    889.67826    28.379601    18.846571    14.337846 7.7711016e-30 8.8746852e-30 6.8181724e-30 5.7534156e-30          298     41.49527    35.978931    34.423473    90.016431    119.66323    90.107069 1.9055888e-29 4.9466509e-24    28.379557    18.849013    14.339638    28.379812    18.845474    14.337264 
   10000    302.65242    1.2509986    3540.0361            0            0            0            0    2986.7324    44657.537 -0.067234084   -17.036218 -0.041707817    3540.0361     1441.786    1029.9383    914.76024    28.380212     18.84743    14.341846 0.00034134804 0.0003407454    2.1670112    2.1669594    302.65242     41.49527    35.978931    34.423473    90.016431    119.66323    90.107069    5.3360485    204.80882    28.380047    18.848808    14.339072    28.379296    18.847803    14.344054 
   20000    294.30676    1.2509986    3623.8058            0            0            0            0   -258.86968    44657.537 -0.067234084   -17.036218 -0.041707817    3623.8058    1506.0372    1026.2386    934.01466    28.375744    18.853008    14.335915 0.00035824777 0.00035493331    3.7672549    3.7671747    294.30676     41.49527    35.978931    34.423473    90.016431    119.66323    90.107069    9.2764886    214.94866    28.380213    18.850066    14.338306    28.375872    18.853386     14.33579 
   30000    285.96393    1.2509986    3628.3639            0            0            0            0    684.66668    44657.537 -0.067234084   -17.036218 -0.041707817    3628.3639     1493.561    1049.1931    931.73744    28.387187    18.851224    14.333027 0.00036130085 0.00036041426    4.7699115    4.7697607    285.96393     41.49527    35.978931    34.423473    90.016431    119.66323    90.107069     11.74543    216.78051    28.379903    18.849777    14.340065     28.38833    18.853356    14.333249 
   40000    297.91324    1.2509986    3584.5848            0            0            0            0    2781.6819    44657.537 -0.067234084   -17.036218 -0.041707817    3584.5848    1506.9944    968.99091    945.85296    28.378463    18.854579    14.352351 0.00034131499 0.00034032813    5.6681147    5.6677138    297.91324     41.49527    35.978931    34.423473    90.016431    119.66323    90.107069    13.957166      204.789    28.380466    18.849409    14.339688    28.377282    18.856008    14.354102 
   50000    301.14278    1.2509986    3548.3364            0            0            0            0    543.95761    44657.537 -0.067234084   -17.036218 -0.041707817    3548.3364    1479.1684      996.292    913.57606    28.382208    18.843951    14.335579 0.00035635586 0.00035527052    5.8818533    5.8818363    301.14278     41.49527    35.978931    34.423473    90.016431    119.66323    90.107069    14.483476    213.81352     28.37928    18.848651    14.338701    28.381172    18.843289    14.334038 
   60000    299.78648    1.2509986    3607.3317            0            0            0            0   -979.30482    44657.537 -0.067234084   -17.036218 -0.041707817    3607.3317    1477.6692    1050.3006    923.80658    28.378738    18.850302    14.339558 0.00034609788 0.00034578611    6.2244488    6.2244119    299.78648     41.49527    35.978931    34.423473    90.016431    119.66323    90.107069    15.327083    207.65873    28.380099    18.849046    14.339768     28.37738    18.850495    14.339664 
   70000    291.54236    1.2509986    3575.7271            0            0            0            0    1034.6216    44657.537 -0.067234084   -17.036218 -0.041707817    3575.7271    1496.9358    1029.7708    895.71306    28.378061    18.848786     14.33617 0.00042508389 0.00042492846    6.3401909    6.3401806    291.54236     41.49527    35.978931    34.423473    90.016431    119.66323    90.107069    15.612086    255.05034    28.379875    18.848792    14.339711    28.377376    18.847474    14.336685 
   80000    300.17548    1.2509986    3578.7373            0            0            0            0    807.05384    44657.537 -0.067234084   -17.036218 -0.041707817    3578.7373     1493.731    1027.7664    906.90711    28.380815    18.850474    14.340856 0.00034989394 0.0003486152    6.7011209    6.7010703    300.17548     41.49527    35.978931    34.423473    90.016431    119.66323    90.107069     16.50084    209.93636    28.379789    18.849173    14.338543    28.380772    18.851688    14.340589 
   90000    300.58045    1.2509986    3531.8456            0            0            0            0   -144.11828    44657.537 -0.067234084   -17.036218 -0.041707817    3531.8456    1446.7524    1037.9263     891.9211    28.377722    18.847416    14.333966 0.00034330919 0.00034247712    6.5834454    6.5833997    300.58045     41.49527    35.978931    34.423473    90.016431    119.66323    90.107069    16.211076    205.98551    28.379672    18.849233     14.33876    28.376583    18.847955    14.331869 
  100000    298.49122    1.2509986     3594.651            0            0            0            0    2228.4651    44657.537 -0.067234084   -17.036218 -0.041707817     3594.651    1462.6805    1035.5521    934.80711    28.384266    18.847763     14.34059 0.00034998167 0.00034831942    6.5670171    6.5669954    298.49122     41.49527    35.978931    34.423473    90.016431    119.66323    90.107069    16.170623      209.989    28.380152    18.850151    14.339754    28.383506    18.846075    14.340041 
  110000    305.06259    1.2509986    3503.8873            0            0            0            0   -43.973877    44657.537 -0.067234084   -17.036218 -0.041707817    3503.8873    1443.8883    1007.3227    901.89545    28.379742    18.845763    14.341777 0.00036744243 0.00036503416    6.5103247     6.510288    305.06259     41.49527    35.978931    34.423473    90.016431    119.66323    90.107069    16.031024    220.46546    28.378866    18.847625    14.339701    28.377274    18.846413    14.342681 
  120000    297.71484    1.2509986    3648.2651            0            0            0            0    -486.5824    44657.537 -0.067234084   -17.036218 -0.041707817    3648.2651    1471.6478    1039.3955    969.91594    28.373463    18.851575    14.337969 0.00035289538 0.00034937035     6.779922    6.7798393    297.71484     41.49527    35.978931    34.423473    90.016431    119.66323    90.107069     16.69488    211.73723    28.379458    18.848893    14.341509    28.373864    18.852353    14.337218 
  130000    301.19955    1.2509986    3564.2498            0            0            0            0    964.81236    44657.537 -0.067234084   -17.036218 -0.041707817    3564.2498    1468.7107    1014.3113    920.64815    28.380173    18.845604    14.342587 0.00034847362 0.00034601769    6.9584421    6.9583872    301.19955     41.49527    35.978931    34.423473    90.016431    119.66323    90.107069    17.134468    209.08417    28.380776    18.848046    14.339452     28.37863    18.844508    14.344516 
  140000    300.40056    1.2509986    3592.4653            0            0            0            0   -966.08811    44657.537 -0.067234084   -17.036218 -0.041707817    3592.4653    1495.2769    1003.6686    938.05715    28.381458    18.847195    14.336032 0.00035364108 0.00035119235    7.1142115    7.1141886    300.40056     41.49527    35.978931    34.423473    90.016431    119.66323    90.107069    17.518034    212.18465    28.378675     18.85007    14.338893    28.382021    18.848922    14.334797 
  150000    294.40743    1.2509986    3599.9486            0            0            0            0   -1664.3538    44657.537 -0.067234084   -17.036218 -0.041707817    3599.9486    1508.7706    1032.9056    900.39092    28.375073    18.849643    14.339882 0.00031272054 0.00031091947    7.1662669    7.1661918    294.40743     41.49527    35.978931    34.423473    90.016431    119.66323    90.107069    17.646216    187.63232     28.37878    18.848821    14.338561    28.373415    18.850543    14.340177 
  160000    298.20489    1.2509986    3530.4499            0            0            0            0    159.28369    44657.537 -0.067234084   -17.036218 -0.041707817    3530.4499    1469.8479    984.90713    918.60704    28.378559    18.843211    14.335865 0.00037532924 0.00037517112     7.127177      7.12716    298.20489     41.49527    35.978931    34.423473    90.016431    119.66323    90.107069    17.549961    225.19755    28.379649    18.848799     14.33996    28.377086    18.844028    14.334541 
  170000    295.87788    1.2509986    3611.9412            0            0            0            0    1541.8376    44657.537 -0.067234084   -17.036218 -0.041707817    3611.9412    1494.8198    1043.1205    915.71686    28.382295    18.847678    14.338875 0.00032434525 0.0003229449    6.8918302    6.8918218    295.87788     41.49527    35.978931    34.423473    90.016431    119.66323    90.107069    16.970443    194.60715    28.380404    18.849808     14.33986    28.381449    18.847574    14.338396 
  180000    298.45471    1.2509986    3610.9061            0            0            0            0    1323.3343    44657.537 -0.067234084   -17.036218 -0.041707817    3610.9061    1488.3909    1031.9969    933.36064    28.377983    18.848115    14.343519 0.00033856422 0.00033759532    6.6691294    6.6690929    298.45471     41.49527    35.978931    34.423473    90.016431    119.66323    90.107069    16.422064    203.13853    28.379919    18.849924    14.339721     28.37754    18.847793    14.342362 
  190000    299.23351    1.2509986    3607.4058            0            0            0            0    -35.68606    44657.537 -0.067234084   -17.036218 -0.041707817    3607.4058    1495.9829    1018.2013    935.16098    28.382725     18.85202    14.344817 0.00035623294 0.00035543721    6.6237543    6.6236048    299.23351     41.49527    35.978931    34.423473    90.016431    119.66323    90.107069    16.310333    213.73977    28.379397    18.849073    14.340514     28.38409    18.853644    14.345291 
  200000    295.74467    1.2509986    3571.9093            0            0            0            0   -592.23155    44657.537 -0.067234084   -17.036218 -0.041707817    3571.9093     1490.829    979.84282    942.55826    28.384931    18.847435    14.341456 0.00033690415 0.00033497023    6.5993624    6.5993176    295.74467     41.49527    35.978931    34.423473    90.016431    119.66323    90.107069     16.25027    202.14249    28.378273    18.849144    14.339118    28.383714    18.844175    14.342548 
  210000    298.52346    1.2509986    3556.8181            0            0            0            0    658.22948    44657.537 -0.067234084   -17.036218 -0.041707817    3556.8181    1519.5606     954.4891    924.92886    28.379106    18.845085    14.338247 0.00039203476 0.00039131545    6.8359489    6.8359456    298.52346     41.49527    35.978931    34.423473    90.016431    119.66323    90.107069    16.832841    235.22085    28.380088     18.84921    14.339007    28.378612    18.846464    14.338208 
  220000    298.99836    1.2509986    3583.6121            0            0            0            0    477.13554    44657.537 -0.067234084   -17.036218 -0.041707817    3583.6121    1511.0986    977.84728    939.09007    28.374146     18.85241    14.335875 0.00036888362 0.00036770188    6.7742692    6.7742084    298.99836     41.49527    35.978931    34.423473    90.016431    119.66323    90.107069    16.680961    221.33017    28.378818     18.84872    14.338896    28.373351    18.849721    14.336248 
  230000    297.32529    1.2509986    3550.4318            0            0            0            0   -1725.9875    44657.537 -0.067234084   -17.036218 -0.041707817    3550.4318    1471.9898    1042.6924    881.91735    28.377722    18.849161    14.335869 0.00039636799 0.00039434866    7.0091682    7.0091344    297.32529     41.49527    35.978931    34.423473    90.016431    119.66323    90.107069    17.259376     237.8208    28.380023    18.849438    14.340911     28.37722    18.850668    14.336913 
  240000    296.32326    1.2509986    3657.5476            0            0            0            0    568.89103    44657.537 -0.067234084   -17.036218 -0.041707817    3657.5476    1505.9975     1021.024    966.65981    28.376379    18.846955    14.344073 0.00035292657 0.00035262136    7.0139316    7.0138863    296.32326     41.49527    35.978931    34.423473    90.016431    119.66323    90.107069    17.271105    211.75594    28.379356    18.849525    14.339583    28.375795    18.845922    14.342648 
  250000    302.55843    1.2509986    3611.9094            0            0            0            0   -1280.9927    44657.537 -0.067234084   -17.036218 -0.041707817    3611.9094    1518.7685    1038.6543    899.17542    28.381261    18.849555    14.342288 0.0003295258 0.00032812493    6.9331877    6.9331544    302.55843     41.49527    35.978931    34.423473    90.016431    119.66323    90.107069    17.072281    197.71548    28.379555    18.848229    14.340525    28.381558    18.848712    14.341713 
  260000    295.40695    1.2509986     3598.701            0            0            0            0    937.81031    44657.537 -0.067234084   -17.036218 -0.041707817     3598.701    1470.8699    1033.4652    934.79334     28.37729    18.840778     14.33939 0.00035836516 0.00035791224     6.777212    6.7771493    295.40695     41.49527    35.978931    34.423473    90.016431    119.66323    90.107069    16.688207     215.0191    28.380229    18.849003    14.339627    28.374976    18.840488    14.341073 
  270000    298.95035    1.2509986    3633.6955            0            0            0            0    918.35299    44657.537 -0.067234084   -17.036218 -0.041707817    3633.6955    1488.7755    1051.1315    936.07127     28.37945    18.844312    14.336634 0.00040069269 0.00040019956     6.712738    6.7127374    298.95035     41.49527    35.978931    34.423473    90.016431    119.66323    90.107069    16.529446    240.41561    28.380218    18.849039    14.339403    28.379737    18.845986    14.336731 
  280000     293.2481    1.2509986    3622.9429            0            0            0            0    1302.1404    44657.537 -0.067234084   -17.036218 -0.041707817    3622.9429    1515.8859    1043.8801    907.55909    28.380187    18.851898    14.337191 0.00037325503 0.00037181651    6.3944316    6.3943845     293.2481     41.49527    35.978931    34.423473    90.016431    119.66323    90.107069    15.745648    223.95302    28.380497    18.849223    14.338924    28.380646    18.852276    14.337544 
  290000    291.56622    1.2509986    3512.5884            0            0            0            0    527.37566    44657.537 -0.067234084   -17.036218 -0.041707817    3512.5884    1447.4698    999.28873    907.28605    28.378001    18.842663    14.339466 0.00033164045 0.00032310296    6.6365093    6.6365015    291.56622     41.49527    35.978931    34.423473    90.016431    119.66323    90.107069     16.34174    198.98427    28.376847    18.849992    14.339148    28.379921    18.842981    14.338494 
  300000    298.79491    1.2509986    3547.6741            0            0            0            0   -1087.0096    44657.537 -0.067234084   -17.036218 -0.041707817    3547.6741    1453.8269    1033.3696     907.8068    28.376855    18.846988    14.344686   0.00035353 0.0003511311    6.6027702    6.6027248    298.79491     41.49527    35.978931    34.423473    90.016431    119.66323    90.107069    16.258661      212.118    28.379863    18.850011    14.340782    28.375692    18.846172    14.342552 
  310000    296.18359    1.2509986    3594.8989            0            0            0            0   -423.53869    44657.537 -0.067234084   -17.036218 -0.041707817    3594.8989    1505.8316    997.19416    936.95792    28.378444    18.844631    14.338456 0.00033599879 0.00033370301    6.6692971    6.6692726    296.18359     41.49527    35.978931    34.423473    90.016431    119.66323    90.107069    16.422477    201.59928    28.380956    18.848696    14.340124    28.376845    18.842035    14.339209 
  320000     303.9494    1.2509986    3676.6813            0            0            0            0   -519.02783    44657.537 -0.067234084   -17.036218 -0.041707817    3676.6813    1540.4238    1026.9969    948.73077    28.374625     18.84618    14.336364 0.0003475659 0.00034615776    6.7743976    6.7743668     303.9494     41.49527    35.978931    34.423473    90.016431    119.66323    90.107069    16.681277    208.53954    28.379135    18.849404    14.340676    28.374577    18.845539    14.335425 
  330000    296.70367    1.2509986     3572.868            0            0            0            0   -173.40705    44657.537 -0.067234084   -17.036218 -0.041707817     3572.868    1441.0689    1032.5513    938.43368    28.385204    18.844271    14.338328 0.0003553168 0.00035411388    6.8646586    6.8646204    296.70367     41.49527    35.978931    34.423473    90.016431    119.66323    90.107069    16.903535    213.19008     28.38033    18.848854    14.338876    28.385539    18.843143    14.337211 
  340000     300.2508    1.2509986    3612.2054            0            0            0            0   -880.26418    44657.537 -0.067234084   -17.036218 -0.041707817    3612.2054    1499.3606    1014.2972    938.63266    28.380631    18.846676    14.335764 0.00035497744 0.00035326929    7.0893411    7.0893365     300.2508     41.49527    35.978931    34.423473    90.016431    119.66323    90.107069    17.456793    212.98646    28.379571     18.85022    14.340139    28.380224    18.847428    14.336513 
  350000    299.13304    1.2509986    3606.6846            0            0            0            0    482.52629    44657.537 -0.067234084   -17.036218 -0.041707817    3606.6846    1466.4512    1037.8423    940.14302    28.372739    18.837385    14.341821 0.00036341896 0.00036266335    7.0310933    7.0309182    299.13304     41.49527    35.978931    34.423473    90.016431    119.66323    90.107069    17.313364    218.05137    28.379092    18.848395    14.340035    28.372393    18.836424    14.343436 
  360000    291.98687    1.2509986    3595.7879            0            0            0            0   -906.82125    44657.537 -0.067234084   -17.036218 -0.041707817    3595.7879    1484.0949    1012.0984    939.82478     28.38066     18.84619    14.345391 0.0003228064 0.00032248714    7.0620232    7.0619287    291.98687     41.49527    35.978931    34.423473    90.016431    119.66323    90.107069    17.389526    193.68384    28.379144    18.848856    14.339286    28.379975    18.847497    14.346772 
  370000    300.87478    1.2509986     3613.935            0            0            0            0    827.63293    44657.537 -0.067234084   -17.036218 -0.041707817     3613.935    1460.2923    1030.6887    960.84588    28.373693    18.848695    14.337469 0.00031985082  0.000318191    6.8746918     6.874637    300.87478     41.49527    35.978931    34.423473    90.016431    119.66323    90.107069    16.928241    191.91049    28.378909    18.849854    14.338908    28.373412    18.848657    14.335341 
  380000    297.47171    1.2509986    3501.5594            0            0            0            0    1139.9991    44657.537 -0.067234084   -17.036218 -0.041707817    3501.5594    1413.0605    1005.5185    925.12232    28.378165    18.851726    14.345081 0.00037169152 0.00036756835    6.9657909    6.9657104    297.47171     41.49527    35.978931    34.423473    90.016431    119.66323    90.107069    17.152563    223.01491    28.379735    18.850778    14.340625    28.378143    18.851837    14.343362 
  390000    299.91164    1.2509986     3585.281            0            0            0            0   -1302.5464    44657.537 -0.067234084   -17.036218 -0.041707817     3585.281    1499.0487    1011.1067    916.09369     28.38365    18.846974    14.335141 0.0003422443 0.0003398653    7.0934238    7.0933959    299.91164     41.49527    35.978931    34.423473    90.016431    119.66323    90.107069    17.466847    205.34658     28.37816    18.848584    14.339142    28.383728    18.846735    14.333941 
  400000    304.97861    1.2509986    3667.3626            0            0            0            0   -2148.1332    44657.537 -0.067234084   -17.036218 -0.041707817    3667.3626    1507.2454    1059.5066      942.162    28.376491    18.845967    14.337424 0.00034544939 0.00034271669    7.0687814    7.0687687    304.97861     41.49527    35.978931    34.423473    90.016431    119.66323    90.107069    17.406167    207.26964    28.379248    18.850109    14.340837    28.377226    18.846921    14.335279 
  410000    300.41982    1.2509986    3617.5229            0            0            0            0   -20.806402    44657.537 -0.067234084   -17.036218 -0.041707817    3617.5229    1505.3942    1047.3944    909.25265    28.377223    18.851451    14.339221 0.00034243427 0.00034217889    7.0228824    7.0228336    300.41982     41.49527    35.978931    34.423473    90.016431    119.66323    90.107069    17.293146    205.46056    28.379387    18.849037    14.339163    28.376768    18.851215     14.33983 
  420000    298.75234    1.2509986    3565.1037            0            0            0            0   -846.24917    44657.537 -0.067234084   -17.036218 -0.041707817    3565.1037    1474.6516    978.35745    948.75192    28.374257    18.845391    14.333158 0.00033089002 0.0003300479    6.9640876    6.9640023    298.75234     41.49527    35.978931    34.423473    90.016431    119.66323    90.107069    17.148369    198.53401    28.378659    18.848984    14.339449    28.372349    18.843338    14.332262 
  430000    294.77057    1.2509986    3677.1308            0            0            0            0   -51.947122    44657.537 -0.067234084   -17.036218 -0.041707817    3677.1308    1510.4781     1058.096    947.44467    28.382627    18.843596    14.339926 0.00035371456 0.00035369948    6.6200357    6.6200214    294.77057     41.49527    35.978931    34.423473    90.016431    119.66323    90.107069    16.301176    212.22874    28.379676     18.84902    14.339666    28.382501    18.843132    14.338535 
  440000    297.53972    1.2509986    3564.8192            0            0            0            0   -565.32664    44657.537 -0.067234084   -17.036218 -0.041707817    3564.8192     1458.346    1029.4976    919.04076    28.387732    18.852347    14.341095  0.000362534 0.00035995706    6.5427417    6.5425304    297.53972     41.49527    35.978931    34.423473    90.016431    119.66323    90.107069    16.110847     217.5204    28.379329    18.849667     14.33819    28.388602    18.856348    14.341238 
  450000     300.5983    1.2509986    3639.2395            0            0            0            0    299.58491    44657.537 -0.067234084   -17.036218 -0.041707817    3639.2395    1520.6491    1037.7108     926.8165    28.377809    18.855651    14.340636 0.00038265612 0.00038222805    6.7180094    6.7178817     300.5983     41.49527    35.978931    34.423473    90.016431    119.66323    90.107069    16.542426    229.59367    28.380152    18.848781    14.339778    28.377808    18.856306    14.339777 
  460000    292.70632    1.2509986    3515.1891            0            0            0            0   -1099.4588    44657.537 -0.067234084   -17.036218 -0.041707817    3515.1891    1430.2567    1028.6341    902.67035    28.379585    18.843139    14.343297 0.00039462231 0.00039434391    6.6686921    6.6686585    292.70632     41.49527    35.978931    34.423473    90.016431    119.66323    90.107069    16.420987    236.77339    28.379235    18.848603    14.339552     28.37988    18.843449    14.342697 
  470000    300.57655    1.2509986    3590.5499            0            0            0            0   -355.21578    44657.537 -0.067234084   -17.036218 -0.041707817    3590.5499    1520.7328    999.53966    911.13348    28.377304    18.850935    14.340575 0.00038794939 0.00038391929    6.8664275    6.8663867    300.57655     41.49527    35.978931    34.423473    90.016431    119.66323    90.107069    16.907891    232.76963    28.377848    18.847977    14.339441    28.377892    18.851114    14.339572 
  480000    292.48298    1.2509986    3566.3422            0            0            0            0   -368.99675    44657.537 -0.067234084   -17.036218 -0.041707817    3566.3422    1444.9708    1004.5809    953.49756    28.383808    18.848014    14.335389 0.00034016633 0.00034009144    6.8915012    6.8914673    292.48298     41.49527    35.978931    34.423473    90.016431    119.66323    90.107069    16.969633     204.0998    28.379538    18.848778    14.339499    28.382742    18.849586     14.33436 
  490000    298.28509    1.2509986    3624.2785            0            0            0            0    1004.6153    44657.537 -0.067234084   -17.036218 -0.041707817    3624.2785    1503.5114     1052.617    910.63937    28.374247    18.842634    14.343998 0.00035294147 0.00035285548    6.7641036    6.7640319    298.28509     41.49527    35.978931    34.423473    90.016431    119.66323    90.107069    16.655929    211.76488    28.379779    18.849198    14.339588    28.374013    18.842855    14.342857 
  500000    297.99943    1.2509986    3597.3042            0            0            0            0   -2268.1321    44657.537 -0.067234084   -17.036218 -0.041707817    3597.3042    1512.0187    1056.8776     879.2458    28.379719    18.848316    14.343495 0.00032148022 0.00032111975    7.0786347    7.0785665    297.99943     41.49527    35.978931    34.423473    90.016431    119.66323    90.107069     17.43043    192.88813    28.379064    18.848913    14.339967    28.379682    18.847398     14.34529 
  510000    296.43427    1.2509986    3653.1311            0            0            0            0   -1180.9577    44657.537 -0.067234084   -17.036218 -0.041707817    3653.1311    1497.0097    1039.2718    950.53446    28.373826    18.846452      14.3385 0.00036560964 0.00036434366    6.9953267    6.9952696    296.43427     41.49527    35.978931    34.423473    90.016431    119.66323    90.107069    17.225292    219.36578    28.379273    18.849411    14.338625    28.372543    18.846124    14.339204 
  520000    302.05187    1.2509986    3621.8449            0            0            0            0   -724.57977    44657.537 -0.067234084   -17.036218 -0.041707817    3621.8449    1539.3641    991.77467    936.62899    28.377717    18.848201    14.337194 0.0003838146 0.00038222765    6.9590654     6.959055    302.05187     41.49527    35.978931    34.423473    90.016431    119.66323    90.107069    17.136003    230.28876    28.379532    18.847807    14.339274    28.377519    18.847743    14.337094 
  530000    297.10958    1.2509986    3534.5239            0            0            0            0   -1515.9346    44657.537 -0.067234084   -17.036218 -0.041707817    3534.5239    1502.7939    950.01403    923.94385    28.380326     18.85174    14.340715 0.00036345601 0.00036232559    6.8660125    6.8659503    297.10958     41.49527    35.978931    34.423473    90.016431    119.66323    90.107069    16.906869    218.07361    28.380312    18.849452    14.340244    28.380117    18.852058    14.341601 
  540000    297.13547    1.2509986    3565.3491            0            0            0            0   -866.98941    44657.537 -0.067234084   -17.036218 -0.041707817    3565.3491    1487.7302    1018.8211    907.47486    28.385457    18.849481    14.340813 0.0003508403 0.00034867031    7.0038205    7.0037364    297.13547     41.49527    35.978931    34.423473    90.016431    119.66323    90.107069    17.246208    210.50418    28.380195    18.848049    14.340551    28.386454    18.849983      14.3417 
  550000    295.41367    1.2509986     3570.783            0            0            0            0    544.41343    44657.537 -0.067234084   -17.036218 -0.041707817     3570.783    1451.9243    1025.3447    939.98321    28.386148    18.852295    14.338863 0.00038871059 0.00038497148    6.9465362    6.9464111    295.41367     41.49527    35.978931    34.423473    90.016431    119.66323    90.107069    17.105151    233.22636    28.377702    18.848904    14.340176    28.386445     18.85448    14.337352 
  560000    290.94337    1.2509986    3556.6567            0            0            0            0    496.61538    44657.537 -0.067234084   -17.036218 -0.041707817    3556.6567    1493.5045    1015.7769    891.80287    28.376784     18.85072    14.336384 0.00036363833 0.00036151959    7.0058223    7.0057531    290.94337     41.49527    35.978931    34.423473    90.016431    119.66323    90.107069    17.251137      218.183    28.380045    18.847692    14.340007    28.375175    18.852274    14.336047 
  570000    300.17134    1.2509986    3580.3921            0            0            0            0   -261.48952    44657.537 -0.067234084   -17.036218 -0.041707817    3580.3921    1456.0886    1015.2336    949.97292     28.37733    18.848364    14.336355 0.00034491921 0.00034088688    6.9011679    6.9011624    300.17134     41.49527    35.978931    34.423473    90.016431    119.66323    90.107069    16.993436    206.95152    28.380163    18.850807    14.340306    28.378211      18.8471    14.336734 
  580000     292.6231    1.2509986    3738.4142            0            0            0            0    1281.2177    44657.537 -0.067234084   -17.036218 -0.041707817    3738.4142    1548.1557    1050.7572    972.92079    28.378739    18.848314    14.332458 0.00037856386 0.00037775137    6.9096652    6.9096391     292.6231     41.49527    35.978931    34.423473    90.016431    119.66323    90.107069     17.01436    227.13832    28.380006    18.849588    14.339109    28.380218    18.848369    14.333064 
  590000    303.08164    1.2509986    3556.5603            0            0            0            0   -273.36608    44657.537 -0.067234084   -17.036218 -0.041707817    3556.5603    1512.6865    990.24103    905.83828    28.378446    18.849582    14.342107 0.00036225923 0.00036164476    6.8923106    6.8922637    303.08164     41.49527    35.978931    34.423473    90.016431    119.66323    90.107069    16.971626    217.35554    28.378944    18.848981     14.33915    28.376582    18.849996    14.341266 
  600000    297.87891    1.2509986    3550.1878            0            0            0            0    1635.9485    44657.537 -0.067234084   -17.036218 -0.041707817    3550.1878    1451.6276    1003.6949    934.41277    28.377369     18.84776    14.335437 0.00035586337 0.00035418674     6.952972    6.9529586    297.87891     41.49527    35.978931    34.423473    90.016431    119.66323    90.107069    17.120998    213.51802    28.380743    18.848956    14.340153    28.377782    18.847887    14.335423 
  610000    304.10851    1.2509986    3654.6042            0            0            0            0    530.01546    44657.537 -0.067234084   -17.036218 -0.041707817    3654.6042    1465.9619    1074.1802    948.25633    28.378507     18.84611    14.338613 0.00036206893 0.00036167234    6.9238649    6.9238628    304.10851     41.49527    35.978931    34.423473    90.016431    119.66323    90.107069    17.049325    217.24136    28.379978    18.848639     14.33992    28.378703    18.846284    14.337734 
  620000    291.86981    1.2509986    3619.6455            0            0            0            0    732.32086    44657.537 -0.067234084   -17.036218 -0.041707817    3619.6455    1519.6273    1038.4115    908.83509    28.380902    18.847185    14.347244 0.00036077556 0.00035941985    6.7617429    6.7616391    291.86981     41.49527    35.978931    34.423473    90.016431    119.66323    90.107069    16.650116    216.46533    28.378571    18.848883    14.340244    28.380283    18.845615    14.347442 
  630000    300.13027    1.2509986    3621.4534            0            0            0            0    73.690879    44657.537 -0.067234084   -17.036218 -0.041707817    3621.4534    1463.7118     1052.269    948.69948    28.381645    18.852072    14.341914 0.00035420867 0.00035212257    6.4928462    6.4927818    300.13027     41.49527    35.978931    34.423473    90.016431    119.66323    90.107069    15.987985     212.5252    28.378876    18.848248     14.33862    28.382062    18.852064    14.341261 
  640000    302.04925    1.2509986    3561.3367            0            0            0            0   -202.35755    44657.537 -0.067234084   -17.036218 -0.041707817    3561.3367    1435.7488    1021.9601    945.92613     28.37797     18.85009    14.346131 0.0003730547 0.00037181787    6.5439741    6.5438191    302.04925     41.49527    35.978931    34.423473    90.016431    119.66323    90.107069    16.113882    223.83282    28.379949    18.849269     14.33863    28.376908    18.850021    14.348487 
  650000    298.64979    1.2509986    3614.4957            0            0            0            0    531.07397    44657.537 -0.067234084   -17.036218 -0.041707817    3614.4957    1534.2602    1028.3648    901.35218     28.38039    18.846296    14.338136 0.0003512858 0.00035023947    6.6906279     6.690621    298.64979     41.49527    35.978931    34.423473    90.016431    119.66323    90.107069    16.475002    210.77148    28.379416     18.84814    14.340153    28.382226    18.846512    14.337417 
  660000    302.22561    1.2509986    3621.4502            0            0            0            0    1676.0389    44657.537 -0.067234084   -17.036218 -0.041707817    3621.4502    1498.9068    1033.5017    930.10876    28.382081    18.853864     14.33783 0.00041639922 0.00041259975    6.7284717    6.7284135    302.22561     41.49527    35.978931    34.423473    90.016431    119.66323    90.107069    16.568189    249.83953    28.381188     18.84969    14.338814    28.382973     18.85233    14.338371 
  670000    299.50495    1.2509986     3565.025            0            0            0            0    30.144264    44657.537 -0.067234084   -17.036218 -0.041707817     3565.025    1470.7073    982.44056    947.56022     28.38004    18.849989    14.342055 0.00035848361 0.00035692696    6.6709017    6.6708568    299.50495     41.49527    35.978931    34.423473    90.016431    119.66323    90.107069    16.426428    215.09017    28.380688     18.84948    14.339878     28.38243    18.848374    14.342713 
  680000    297.46317    1.2509986    3602.9931            0            0            0            0    903.04585    44657.537 -0.067234084   -17.036218 -0.041707817    3602.9931    1473.8615    992.71297    974.13192    28.380097    18.852164    14.339982 0.0003596309 0.0003581842    6.5839522    6.5839156    297.46317     41.49527    35.978931    34.423473    90.016431    119.66323    90.107069    16.212324    215.77854    28.379674    18.850077     14.33909    28.379254    18.850889    14.339916 
  690000    296.22008    1.2509986     3623.307            0            0            0            0    431.76706    44657.537 -0.067234084   -17.036218 -0.041707817     3623.307    1550.5125    1036.3884    884.97969    28.381761    18.849563    14.336746 0.00033473095 0.00033397441    6.9659062    6.9658467    296.22008     41.49527    35.978931    34.423473    90.016431    119.66323    90.107069    17.152847    200.83857    28.379055    18.849722    14.339587    28.380023     18.85254    14.334181 
  700000    292.16376    1.2509986    3585.5916            0            0            0            0   -272.97568    44657.537 -0.067234084   -17.036218 -0.041707817    3585.5916    1472.0343     1033.299    923.24666    28.380565    18.848761    14.328761 0.00037506392 0.0003734607    6.9254175    6.9252919    292.16376     41.49527    35.978931    34.423473    90.016431    119.66323    90.107069    17.053148    225.03835    28.378297    18.849138    14.339637    28.382874    18.850082     14.32752 
  710000    300.81318    1.2509986    3733.0275            0            0            0            0    751.69384    44657.537 -0.067234084   -17.036218 -0.041707817    3733.0275     1520.865     1104.118     956.3352    28.383214    18.845334    14.339164 0.00031472115 0.00031413036     7.001774    7.0017591    300.81318     41.49527    35.978931    34.423473    90.016431    119.66323    90.107069    17.241168    188.83269    28.379267    18.849576    14.340074    28.383284    18.844738    14.338793 
  720000    303.84823    1.2509986    3447.2286            0            0            0            0    -45.57026    44657.537 -0.067234084   -17.036218 -0.041707817    3447.2286    1418.6573    1008.4282    875.27866    28.379277    18.857015    14.346162 0.00033669942 0.0003355859    6.9314524    6.9311853    303.84823     41.49527    35.978931    34.423473    90.016431    119.66323    90.107069    17.068008    202.01965    28.378798    18.848415    14.340064    28.376898     18.85774    14.347667 
  730000    300.23342    1.2509986    3708.8242            0            0            0            0    315.23412    44657.537 -0.067234084   -17.036218 -0.041707817    3708.8242    1489.9296    1090.5418    960.03278     28.38371    18.851619    14.337753 0.00036166213 0.00036106613    6.9750712    6.9749732    300.23342     41.49527    35.978931    34.423473    90.016431    119.66323    90.107069    17.175415    216.99728    28.379049    18.848462    14.339451    28.383609    18.854391    14.339273 
  740000    298.36549    1.2509986    3582.1561            0            0            0            0   -1296.5523    44657.537 -0.067234084   -17.036218 -0.041707817    3582.1561    1502.0498    1007.9052    915.71654    28.380964    18.844262    14.342244 0.0003391394 0.00033846935    6.7825193    6.7824668    298.36549     41.49527    35.978931    34.423473    90.016431    119.66323    90.107069    16.701275    203.48364    28.380215    18.848548    14.339494    28.380302    18.843903    14.344318 
  750000    299.35768    1.2509986    3551.6515            0            0            0            0    2127.7115    44657.537 -0.067234084   -17.036218 -0.041707817    3551.6515    1458.3088    1010.7396    926.90421    28.381997    18.844547    14.340377 0.00034811678 0.00034807143    6.8184433    6.8184052    299.35768     41.49527    35.978931    34.423473    90.016431    119.66323    90.107069    16.789735    208.87007    28.379549    18.849204    14.339731    28.383018    18.843617    14.342211 
  760000    295.87831    1.2509986     3594.944            0            0            0            0   -930.75057    44657.537 -0.067234084   -17.036218 -0.041707817     3594.944    1502.7169      1038.45    906.27513    28.375057    18.857996    14.335453 0.0003644769 0.0003631273    6.7299271    6.7297284    295.87831     41.49527    35.978931    34.423473    90.016431    119.66323    90.107069    16.571773    218.68614    28.380406    18.849434     14.34031    28.376953     18.85917    14.335543 
  770000    300.99721    1.2509986    3594.1098            0            0            0            0   -148.61137    44657.537 -0.067234084   -17.036218 -0.041707817    3594.1098    1466.5719    992.74728    969.85782    28.382525    18.847463    14.337249 0.00038272235 0.00038105304    6.8726497    6.8726397    300.99721     41.49527    35.978931    34.423473    90.016431    119.66323    90.107069    16.923213    229.63341    28.378684    18.848286    14.339021    28.382658    18.846867    14.337254 
  780000    295.75866    1.2509986    3620.7505            0            0            0            0    529.38251    44657.537 -0.067234084   -17.036218 -0.041707817    3620.7505    1484.3893    1027.8432    948.32756    28.384588    18.847367    14.336092 0.00034417478 0.00034358823    6.8345947    6.8345459    295.75866     41.49527    35.978931    34.423473    90.016431    119.66323    90.107069    16.829506    206.50487    28.379816    18.849608    14.339232    28.386065    18.848479    14.336412 
  790000    296.48772    1.2509986    3550.2005            0            0            0            0    976.55791    44657.537 -0.067234084   -17.036218 -0.041707817    3550.2005    1493.8507    973.47581     926.0579    28.378629    18.850957    14.340917 0.00036681659 0.00036486348     6.699765    6.6997209    296.48772     41.49527    35.978931    34.423473    90.016431    119.66323    90.107069    16.497501    220.08996    28.379877    18.849295    14.340969    28.376153    18.849998    14.340472 
  800000    297.55383    1.2509986    3621.6534            0            0            0            0   -896.24653    44657.537 -0.067234084   -17.036218 -0.041707817    3621.6534    1500.7462    1030.9621    928.79082    28.379467    18.852136    14.342357 0.00033366134 0.00033305861    6.8003289    6.8002085    297.55383     41.49527    35.978931    34.423473    90.016431    119.66323    90.107069     16.74513    200.19681    28.378915    18.848633    14.339853    28.378448    18.853613    14.344495 
  810000    300.99341    1.2509986    3587.4824            0            0            0            0     186.0889    44657.537 -0.067234084   -17.036218 -0.041707817    3587.4824     1481.072    1034.1053    915.10994    28.377425    18.850918    14.337857 0.00035646286 0.00035473705    6.8284476     6.828413    300.99341     41.49527    35.978931    34.423473    90.016431    119.66323    90.107069    16.814369    213.87772    28.379196    18.848521    14.340802    28.376658    18.850142    14.338949 
  820000    300.06684    1.2509986    3654.9736            0            0            0            0     850.4783    44657.537 -0.067234084   -17.036218 -0.041707817    3654.9736    1527.1176     1047.533    922.32561     28.37794    18.850966     14.33833 0.00036179062 0.00036122015    6.8313786    6.8313384    300.06684     41.49527    35.978931    34.423473    90.016431    119.66323    90.107069    16.821587    217.07437    28.379665    18.849475    14.339051    28.376745    18.850654    14.339266 
  830000    296.22614    1.2509986    3603.5494            0            0            0            0    394.87304    44657.537 -0.067234084   -17.036218 -0.041707817    3603.5494    1468.0062    1051.7534    929.70515     28.37867    18.850001    14.341406 0.00039993396 0.00039637703    6.8534584    6.8533987    296.22614     41.49527    35.978931    34.423473    90.016431    119.66323    90.107069    16.875956    239.96037    28.380102    18.847359    14.338914    28.379863    18.850529    14.343111 
  840000    301.31626    1.2509986    3569.5163            0            0            0            0    160.18279    44657.537 -0.067234084   -17.036218 -0.041707817    3569.5163    1470.3754    1032.1112    911.43028    28.376793    18.845948    14.339721 0.00035227482 0.00035004901    6.9473752    6.9473576    301.31626     41.49527    35.978931    34.423473    90.016431    119.66323    90.107069    17.107217    211.36489    28.380565    18.848062    14.339086    28.376472    18.847176    14.339147 
  850000    298.05043    1.2509986    3574.9012            0            0            0            0    251.12905    44657.537 -0.067234084   -17.036218 -0.041707817    3574.9012    1444.6917    1031.8979    937.52699    28.384617    18.850454    14.336242 0.00037819198 0.00037789037    6.8793466    6.8792866    298.05043     41.49527    35.978931    34.423473    90.016431    119.66323    90.107069    16.939703    226.91519    28.380047    18.849219      14.3395    28.385482    18.850412    14.335416 
  860000    295.56879    1.2509986    3544.9819            0            0            0            0    898.95908    44657.537 -0.067234084   -17.036218 -0.041707817    3544.9819    1456.5067     1005.655    930.17036    28.382666    18.848442    14.337392 0.00035603122 0.00035531837    6.7990193    6.7990112    295.56879     41.49527    35.978931    34.423473    90.016431    119.66323    90.107069    16.741905    213.61873    28.380366    18.849194    14.339798    28.381967    18.847183     14.33804 
  870000    300.27513    1.2509986    3533.4937            0            0            0            0   -744.68439    44657.537 -0.067234084   -17.036218 -0.041707817    3533.4937    1444.5629    1050.1188    886.73076    28.381838    18.845717    14.336787 0.00033623462 0.00033608482    6.8784695    6.8784685    300.27513     41.49527    35.978931    34.423473    90.016431    119.66323    90.107069    16.937543    201.74077    28.379467    18.849047    14.339263    28.380393    18.845447    14.336477 
  880000    304.90154    1.2509986    3584.2322            0            0            0            0   -657.88552    44657.537 -0.067234084   -17.036218 -0.041707817    3584.2322    1465.2626    1030.0121      935.688    28.376322    18.844592    14.336681 0.00036358236 0.00036251403    6.9064859    6.9064719    304.90154     41.49527    35.978931    34.423473    90.016431    119.66323    90.107069    17.006531    218.14942    28.379132    18.848888    14.338704    28.377408    18.842602    14.337055 
  890000    300.60008    1.2509986    3733.2695            0            0            0            0   -954.43261    44657.537 -0.067234084   -17.036218 -0.041707817    3733.2695    1557.6223    1081.5704    935.21635    28.376247    18.852718    14.330676 0.00033867406 0.00033596961    7.0546994    7.0545863    300.60008     41.49527    35.978931    34.423473    90.016431    119.66323    90.107069    17.371492    203.20444    28.378741     18.85043    14.339462    28.376292    18.852755    14.330357 
  900000    303.93685    1.2509986    3557.9917            0            0            0            0    40.868761    44657.537 -0.067234084   -17.036218 -0.041707817    3557.9917    1507.1388    1019.0829    880.44338    28.373919    18.855679    14.343927 0.00034683277 0.00034519495    7.0897504    7.0895519    303.93685     41.49527    35.978931    34.423473    90.016431    119.66323    90.107069    17.457801    208.09966    28.380785    18.849332    14.339803    28.373009    18.855885    14.343883 
  910000    294.11782    1.2509986    3561.8784            0            0            0            0    826.48873    44657.537 -0.067234084   -17.036218 -0.041707817    3561.8784    1555.0835     953.1746     896.2967    28.377076    18.848776    14.334917 0.00038504596 0.00038467163    6.8605211    6.8604973    294.11782     41.49527    35.978931    34.423473    90.016431    119.66323    90.107069    16.893347    231.02757    28.379584     18.84871    14.339107    28.376666    18.847625     14.33422 
  920000    290.73551    1.2509986    3495.0169            0            0            0            0    1878.9397    44657.537 -0.067234084   -17.036218 -0.041707817    3495.0169    1467.4383    953.63187    918.64547    28.381971    18.850429    14.341128 0.00033476951 0.00033366069    6.6857034    6.6856693    290.73551     41.49527    35.978931    34.423473    90.016431    119.66323    90.107069    16.462876     200.8617    28.378986    18.849894    14.339722    28.382073    18.849195    14.341155 
  930000    294.00325    1.2509986    3576.8133            0            0            0            0    195.68241    44657.537 -0.067234084   -17.036218 -0.041707817    3576.8133    1490.4161    986.51263    941.07223    28.375018    18.846824    14.340338 0.00035330299 0.00035247738    7.0291986    7.0291687    294.00325     41.49527    35.978931    34.423473    90.016431    119.66323    90.107069    17.308699    211.98179     28.37874    18.848737    14.339351    28.375454    18.846538    14.340383 
  940000     301.3867    1.2509986    3570.6483            0            0            0            0    380.72682    44657.537 -0.067234084   -17.036218 -0.041707817    3570.6483     1469.685    1036.2209    912.45078      28.3853    18.850043    14.334699 0.00034753754 0.00034614935     6.876026    6.8759892     301.3867     41.49527    35.978931    34.423473    90.016431    119.66323    90.107069    16.931526    208.52252    28.380275    18.848095    14.339812    28.384045    18.849094    14.334862 
  950000    301.42025    1.2509986    3533.0687            0            0            0            0    2255.5757    44657.537 -0.067234084   -17.036218 -0.041707817    3533.0687    1462.8877    1006.1721    906.35158     28.38239     18.85743    14.333061 0.00037795151 0.00037757529    6.8263413    6.8261196    301.42025     41.49527    35.978931    34.423473    90.016431    119.66323    90.107069    16.809183    226.77091    28.379901    18.848506    14.339631    28.383495    18.859181    14.332765 
  960000    297.83589    1.2509986    3637.4176            0            0            0            0    913.47236    44657.537 -0.067234084   -17.036218 -0.041707817    3637.4176     1491.138    1022.9276    961.22463     28.37915    18.851424    14.345376 0.00037389271 0.00037369927      6.70282    6.7027116    297.83589     41.49527    35.978931    34.423473    90.016431    119.66323    90.107069    16.505024    224.33563    28.379551    18.848633    14.339416    28.378372    18.852015    14.345233 
  970000    294.23573    1.2509986    3617.7416            0            0            0            0    228.30609    44657.537 -0.067234084   -17.036218 -0.041707817    3617.7416    1486.5068    1041.1654    929.19932    28.385794     18.85007    14.338528 0.00036068028 0.00035991805    6.5595513    6.5594649    294.23573     41.49527    35.978931    34.423473    90.016431    119.66323    90.107069    16.152239    216.40817    28.379577    18.849273    14.338805    28.387587    18.850534     14.33781 
  980000    297.29349    1.2509986    3636.8165            0            0            0            0    857.29098    44657.537 -0.067234084   -17.036218 -0.041707817    3636.8165    1440.4972    1093.3756    939.81268    28.379857    18.856835    14.337444 0.00034673643 0.00034321645    6.6352435    6.6351373    297.29349     41.49527    35.978931    34.423473    90.016431    119.66323    90.107069    16.338624    208.04186    28.377855    18.849098    14.340424    28.379378    18.855769    14.337431 
  990000     295.2371    1.2509986     3541.344            0            0            0            0   -801.92073    44657.537 -0.067234084   -17.036218 -0.041707817     3541.344     1481.966    1008.4045    902.04439    28.382036    18.848222    14.335585 0.0003506181 0.00034994483    6.5906038    6.5905929     295.2371     41.49527    35.978931    34.423473    90.016431    119.66323    90.107069    16.228703    210.37086    28.379561    18.848544    14.340312    28.382072    18.847418    14.335869 
 1000000    298.59991    1.2509986    3543.4842            0            0            0            0    645.29552    44657.537 -0.067234084   -17.036218 -0.041707817    3543.4842    1465.0753    994.61222    927.10311    28.375764     18.85145    14.342724 0.00035733882 0.00035667552    6.4620052    6.4618874    298.59991     41.49527    35.978931    34.423473    90.016431    119.66323    90.107069    15.912042    214.40329    28.380288    18.849342    14.339777    28.377461    18.852971    14.344754 
 1010000    294.77278    1.2509986    3590.2026            0            0            0            0    780.27011    44657.537 -0.067234084   -17.036218 -0.041707817    3590.2026    1452.5794     1006.497    967.01037     28.37692    18.847885     14.34045 0.00037835612 0.00037742058     6.345528    6.3455013    294.77278     41.49527    35.978931    34.423473    90.016431    119.66323    90.107069    15.625228    227.01367    28.380293    18.849605    14.339846    28.376312    18.848239     14.33987 
 1020000    307.61382    1.2509986    3589.9925            0            0            0            0    495.93413    44657.537 -0.067234084   -17.036218 -0.041707817    3589.9925    1469.7213    1035.2093    919.61502    28.381082    18.850202    14.330507 0.00038262831 0.00038055165    6.5511061    6.5510249    307.61382     41.49527    35.978931    34.423473    90.016431    119.66323    90.107069    16.131444    229.57699    28.380107    18.847687    14.339764    28.382233    18.851229    14.330764 
 1030000     297.5662    1.2509986    3619.7305            0            0            0            0   -1137.7284    44657.537 -0.067234084   -17.036218 -0.041707817    3619.7305     1499.743    1023.8008    939.02265    28.382546    18.850451    14.337273 0.00035723171 0.00035466202    6.4539349    6.4539021     297.5662     41.49527    35.978931    34.423473    90.016431    119.66323    90.107069    15.892169    214.33903    28.380582    18.849766    14.338663    28.381317    18.850518    14.334992 
 1040000    299.41517    1.2509986    3551.6317            0            0            0            0   -1038.1102    44657.537 -0.067234084   -17.036218 -0.041707817    3551.6317    1455.4308    1010.8262    927.57668    28.379239    18.848422    14.336383 0.00036363333 0.00036037005    6.5502627    6.5502479    299.41517     41.49527    35.978931    34.423473    90.016431    119.66323    90.107069    16.129367       218.18    28.380643    18.847599    14.339927    28.379215    18.849113    14.336171 
 1050000    292.32846    1.2509986    3542.7343            0            0            0            0   -1463.1923    44657.537 -0.067234084   -17.036218 -0.041707817    3542.7343    1456.5565    1011.2174    922.64659    28.383768    18.848551    14.342255 0.00035980428 0.00035936142    6.6300887    6.6300499    292.32846     41.49527    35.978931    34.423473    90.016431    119.66323    90.107069     16.32593    215.88257    28.379043    18.848591    14.339604    28.382923    18.848082    14.341988 
 1060000    297.93452    1.2509986    3647.5639            0            0            0            0     2186.224    44657.537 -0.067234084   -17.036218 -0.041707817    3647.5639    1540.9919    997.27485    950.34357    28.377148    18.849199    14.343742 0.00033956885 0.00033845399     6.450475     6.450407    297.93452     41.49527    35.978931    34.423473    90.016431    119.66323    90.107069     15.88365    203.74131    28.379715    18.849928     14.34014    28.377869    18.850455     14.34354 
 1070000    294.92217    1.2509986    3637.9328            0            0            0            0   -333.29399    44657.537 -0.067234084   -17.036218 -0.041707817    3637.9328    1513.4356    1031.4313    931.82293    28.380424     18.84752    14.342538 0.00037227007 0.00037110393    6.4913457    6.4913055    294.92217     41.49527    35.978931    34.423473    90.016431    119.66323    90.107069     15.98429    223.36204    28.380579    18.849185    14.339335    28.380944    18.847681      14.3431 
 1080000    304.37015    1.2509986    3602.6992            0            0            0            0   -518.17245    44657.537 -0.067234084   -17.036218 -0.041707817    3602.6992    1503.9963    1028.5245    914.09594     28.37911    18.856374    14.337466 0.0003543758 0.00035410254    6.7141108    6.7139824    304.37015     41.49527    35.978931    34.423473    90.016431    119.66323    90.107069    16.532826    212.62548    28.379879     18.84872    14.339927    28.379832    18.856801    14.336989 
 1090000    300.20538    1.2509986    3477.1498            0            0            0            0    189.84598    44657.537 -0.067234084   -17.036218 -0.041707817    3477.1498    1438.9357    972.55938    910.82954    28.378738     18.85176    14.335701 0.00035141733 0.00034728687      6.99069    6.9906326    300.20538     41.49527    35.978931    34.423473    90.016431    119.66323    90.107069    17.213875     210.8504    28.378729    18.850856    14.339859     28.37905    18.852682    14.335044 
 1100000     290.9128    1.2509986    3626.0479            0            0            0            0   -1386.5702    44657.537 -0.067234084   -17.036218 -0.041707817    3626.0479    1487.5951    998.87427    975.18655    28.382661    18.853175    14.337835 0.00037540779 0.00037220092    6.8312681      6.83118     290.9128     41.49527    35.978931    34.423473    90.016431    119.66323    90.107069    16.821314    225.24468    28.380109    18.848099    14.338201    28.383604    18.853698    14.339716 
 1110000    297.26629    1.2509986    3589.9268            0            0            0            0    712.42653    44657.537 -0.067234084   -17.036218 -0.041707817    3589.9268    1477.4001    1035.7716    922.15979    28.379802    18.853564    14.340381 0.00034228173 0.00034218358    6.8110174    6.8109498    297.26629     41.49527    35.978931    34.423473    90.016431    119.66323    90.107069    16.771449    205.36904    28.379672    18.848763    14.339489    28.380201    18.852841    14.340889 
 1120000    299.22378    1.2509986    3619.6836            0            0            0            0   -627.30348    44657.537 -0.067234084   -17.036218 -0.041707817    3619.6836    1485.9958    1024.9821    948.83408     28.37479    18.854513    14.336488 0.00039882303 0.00039816571    6.9294847    6.9293691    299.22378     41.49527    35.978931    34.423473    90.016431    119.66323    90.107069    17.063163    239.29382    28.380318    18.848734    14.339651     28.37442    18.854773    14.336921 
 1130000    298.71152    1.2509986    3552.5353            0            0            0            0   -215.30578    44657.537 -0.067234084   -17.036218 -0.041707817    3552.5353    1507.1283    991.19252    901.21645    28.382843    18.853746    14.341523 0.00035705801 0.0003568978    6.8987054    6.8986373    298.71152     41.49527    35.978931    34.423473    90.016431    119.66323    90.107069    16.987372    214.23481    28.379494    18.849372    14.339803    28.383561      18.8521    14.340447 
 1140000     300.7207    1.2509986    3633.7554            0            0            0            0   -2118.8738    44657.537 -0.067234084   -17.036218 -0.041707817    3633.7554    1458.6954    1040.6651    972.19808    28.371878    18.846983    14.344603 0.00034904694 0.00034599713    6.9453753    6.9452649     300.7207     41.49527    35.978931    34.423473    90.016431    119.66323    90.107069    17.102292    209.42816    28.379391    18.847327    14.339214     28.37194     18.84655    14.344142 
 1150000    302.55962    1.2509986    3632.5312            0            0            0            0        -1641    44657.537 -0.067234084   -17.036218 -0.041707817    3632.5312    1488.1253    1040.2446    945.02367    28.382316    18.846351    14.338813 0.00036831252 0.0003666059    6.9324298    6.9324149    302.55962     41.49527    35.978931    34.423473    90.016431    119.66323    90.107069    17.070415    220.98751    28.379456    18.850297    14.339859    28.381898    18.847793    14.339529 
 1160000    297.45566    1.2509986    3554.5109            0            0            0            0    36.932411    44657.537 -0.067234084   -17.036218 -0.041707817    3554.5109    1524.3556    952.86756    918.32763    28.381695    18.848128    14.339222 0.0003594651 0.00035904796    6.9967656    6.9967532    297.45566     41.49527    35.978931    34.423473    90.016431    119.66323    90.107069    17.228836    215.67906    28.379276    18.849177    14.340196     28.38245    18.847159    14.338897 
 1170000    297.89531    1.2509986    3659.9115            0            0            0            0     2383.767    44657.537 -0.067234084   -17.036218 -0.041707817    3659.9115    1461.2451     1067.697     967.5106    28.378355    18.855763    14.335645 0.00035670254 0.00035576636    6.9991867    6.9990401    297.89531     41.49527    35.978931    34.423473    90.016431    119.66323    90.107069    17.234797    214.02152    28.380245    18.848456    14.339247    28.378093    18.857305    14.335357 
 1180000    296.32645    1.2509986     3564.697            0            0            0            0    412.20172    44657.537 -0.067234084   -17.036218 -0.041707817     3564.697     1471.058     1051.843    889.81442    28.378422     18.84189    14.342638 0.00036152785 0.00036008897     7.089892    7.0898597    296.32645     41.49527    35.978931    34.423473    90.016431    119.66323    90.107069     17.45815    216.91671    28.380426    18.848268    14.339996    28.378194    18.841475     14.34096 
 1190000    293.16255    1.2509986    3632.1446            0            0            0            0   -298.17749    44657.537 -0.067234084   -17.036218 -0.041707817    3632.1446     1545.952    1024.2125    905.61312    28.384479    18.844825    14.341375 0.00033566273 0.0003308808    7.1667882    7.1667409    293.16255     41.49527    35.978931    34.423473    90.016431    119.66323    90.107069    17.647499    201.39764    28.380214     18.84762    14.338086    28.384694    18.845829    14.342093 
 1200000    304.31354    1.2509986    3575.3449            0            0            0            0   -816.52083    44657.537 -0.067234084   -17.036218 -0.041707817    3575.3449    1470.2967    989.07336    950.21059    28.379229    18.853312     14.33698 0.00033302972 0.00033162955    7.0108487    7.0107483    304.31354     41.49527    35.978931    34.423473    90.016431    119.66323    90.107069    17.263514    199.81783    28.378467    18.848686    14.339964    28.379841     18.85525    14.335053 
 1210000    296.95454    1.2509986    3539.3644            0            0            0            0    1470.4297    44657.537 -0.067234084   -17.036218 -0.041707817    3539.3644    1464.7845    999.93304    916.62808    28.384192    18.854396     14.34173 0.00035996508 0.0003585805    6.9826061    6.9824929    296.95454     41.49527    35.978931    34.423473    90.016431    119.66323    90.107069    17.193969    215.97905    28.378783    18.849879    14.339446    28.384219    18.853729    14.342331 
 1220000    294.83502    1.2509986    3487.6125            0            0            0            0    345.56275    44657.537 -0.067234084   -17.036218 -0.041707817    3487.6125    1437.9867    997.53254    901.35917    28.387805    18.846638    14.341523 0.00033049783 0.00032969745     6.888395    6.8882716    294.83502     41.49527    35.978931    34.423473    90.016431    119.66323    90.107069    16.961984     198.2987    28.379169    18.848677    14.340371    28.390013    18.843507    14.341199 
 1230000    298.86197    1.2509986    3664.0501            0            0            0            0    1772.7876    44657.537 -0.067234084   -17.036218 -0.041707817    3664.0501    1495.3152    1057.7109    954.52318    28.384376    18.855068    14.345087 0.00035103005 0.00034684608    6.9302781    6.9300684    298.86197     41.49527    35.978931    34.423473    90.016431    119.66323    90.107069    17.065117    210.61803    28.380781    18.850641    14.339827    28.384164    18.856194    14.345973 
 1240000    298.51856    1.2509986     3599.404            0            0            0            0   -728.83052    44657.537 -0.067234084   -17.036218 -0.041707817     3599.404    1471.7014    1041.8264    926.56367    28.379507    18.848651    14.340161 0.00036284616 0.00036015559     6.984087    6.9840694    298.51856     41.49527    35.978931    34.423473    90.016431    119.66323    90.107069    17.197616     217.7077    28.379059    18.848365    14.341061     28.37954    18.848365    14.340292 
 1250000    304.30695    1.2509986    3737.8223            0            0            0            0   -631.96306    44657.537 -0.067234084   -17.036218 -0.041707817    3737.8223    1535.2689    1072.1922    968.95551    28.378738     18.84085    14.336477 0.0003655168 0.00036483949    6.9722173    6.9721871    304.30695     41.49527    35.978931    34.423473    90.016431    119.66323    90.107069    17.168388    219.31008    28.379723    18.849755    14.339324    28.378113    18.840343    14.336288 
 1260000     301.5702    1.2509986    3553.1353            0            0            0            0    3310.0038    44657.537 -0.067234084   -17.036218 -0.041707817    3553.1353    1473.3931    1038.9335     888.8473    28.378691    18.841245    14.345237 0.00037171331 0.00036868272    7.1328132    7.1327015     301.5702     41.49527    35.978931    34.423473    90.016431    119.66323    90.107069    17.563839    223.02799    28.379381    18.848049    14.341077    28.378192    18.839643    14.345927 
 1270000    298.90081    1.2509986    3577.8621            0            0            0            0    1471.6804    44657.537 -0.067234084   -17.036218 -0.041707817    3577.8621    1498.4512    991.06903    931.87453    28.383396    18.846742    14.344529 0.00036218698 0.00035932919    7.1964058    7.1963396    298.90081     41.49527    35.978931    34.423473    90.016431    119.66323    90.107069     17.72043    217.31219    28.378159     18.84816    14.339215    28.384384     18.84798    14.343513 
 1280000     293.4326    1.2509986    3644.5739            0            0            0            0    668.09422    44657.537 -0.067234084   -17.036218 -0.041707817    3644.5739    1454.0661      1043.79    981.86137     28.37786    18.849566    14.345584 0.00031063311 0.0003093527    7.1801047    7.1800048     293.4326     41.49527    35.978931    34.423473    90.016431    119.66323    90.107069     17.68029    186.37987    28.379931    18.848222     14.33892    28.377325    18.851226     14.34505 
 1290000    300.84279    1.2509986    3570.5939            0            0            0            0    1743.6832    44657.537 -0.067234084   -17.036218 -0.041707817    3570.5939    1478.4267    1015.2083     923.6081    28.376668     18.84965    14.337438 0.00036088359 0.00035965451    7.0115182    7.0114922    300.84279     41.49527    35.978931    34.423473    90.016431    119.66323    90.107069    17.265163    216.53015    28.380384    18.849743    14.339741    28.377237    18.849876    14.337306 
 1300000    298.27181    1.2509986    3579.1262            0            0            0            0    1651.3143    44657.537 -0.067234084   -17.036218 -0.041707817    3579.1262    1489.1127    1024.4885    915.46577    28.380693    18.854148    14.333419 0.00031834196 0.00031574279    7.2292946    7.2292025    298.27181     41.49527    35.978931    34.423473    90.016431    119.66323    90.107069    17.801415    191.00518    28.380661    18.850116    14.339234    28.379549    18.854544    14.334138 
 1310000    294.35441    1.2509986    3560.8715            0            0            0            0     1408.632    44657.537 -0.067234084   -17.036218 -0.041707817    3560.8715    1474.0276    1015.6889    916.26047    28.385649    18.845455    14.342851 0.00035756293 0.00035528549    7.0769338    7.0768218    294.35441     41.49527    35.978931    34.423473    90.016431    119.66323    90.107069    17.426242    214.53776    28.380768    18.849158    14.338749    28.386221    18.846082    14.345661 
 1320000    295.66331    1.2509986    3574.9293            0            0            0            0    1945.2729    44657.537 -0.067234084   -17.036218 -0.041707817    3574.9293    1475.1976    1036.9823    907.56262     28.37693    18.845827    14.340675 0.00039944137 0.00039924349    6.8845824    6.8845701    295.66331     41.49527    35.978931    34.423473    90.016431    119.66323    90.107069    16.952596    239.66482    28.379321    18.848758     14.33936    28.377562     18.84472     14.33984 
 1330000    293.50721    1.2509986    3623.8552            0            0            0            0    -358.0715    44657.537 -0.067234084   -17.036218 -0.041707817    3623.8552    1480.6083     1034.301     940.3855    28.379417    18.851392    14.337045 0.00035610206 0.00035349899    6.5399967    6.5399411    293.50721     41.49527    35.978931    34.423473    90.016431    119.66323    90.107069    16.104088    213.66124    28.381159    18.849133    14.339496    28.378643    18.852838    14.336955 
 1340000     294.3257    1.2509986    3509.5541            0            0            0            0   -89.786277    44657.537 -0.067234084   -17.036218 -0.041707817    3509.5541    1441.2695    1002.4843    910.93884     28.37821    18.851104    14.341913 0.00037719064 0.00037410102    6.6109831     6.610927     294.3257     41.49527    35.978931    34.423473    90.016431    119.66323    90.107069    16.278885    226.31438    28.381198      18.8484     14.33978    28.378957    18.852126    14.340607 
 1350000    298.22423    1.2509986    3595.5743            0            0            0            0    1340.5439    44657.537 -0.067234084   -17.036218 -0.041707817    3595.5743    1463.3885    1046.3202    924.77589    28.383358    18.856257    14.339291 0.00038059985 0.00037885146    6.9922648    6.9921327    298.22423     41.49527    35.978931    34.423473    90.016431    119.66323    90.107069    17.217753    228.35991    28.378531     18.84922    14.338829    28.383138    18.856378    14.338706 
 1360000    301.99539    1.2509986    3500.9142            0            0            0            0    1281.4688    44657.537 -0.067234084   -17.036218 -0.041707817    3500.9142    1462.7535    966.98767    910.88797    28.379672    18.847753    14.341284 0.00035485515 0.00035357939     6.856998    6.8569918    301.99539     41.49527    35.978931    34.423473    90.016431    119.66323    90.107069    16.884672    212.91309    28.380083    18.849962    14.339951    28.380739    18.845425    14.339569 
 1370000    300.92366    1.2509986     3664.774            0            0            0            0   -1368.4925    44657.537 -0.067234084   -17.036218 -0.041707817     3664.774    1551.8221    1045.8785    912.53051    28.380594    18.854635    14.339229 0.0003584096 0.00035667982    6.9074586    6.9073495    300.92366     41.49527    35.978931    34.423473    90.016431    119.66323    90.107069    17.008926    215.04576     28.38027    18.850116    14.339698    28.383202    18.854767    14.340625 
 1380000     295.7926    1.2509986    3565.8609            0            0            0            0    1109.1014    44657.537 -0.067234084   -17.036218 -0.041707817    3565.8609    1478.4067    1015.6102    915.40816    28.370963    18.853428    14.340251 0.00036333171 0.0003630547    6.6831484      6.68295     295.7926     41.49527    35.978931    34.423473    90.016431    119.66323    90.107069    16.456585    217.99903    28.379176    18.849375    14.339605    28.369666    18.855107    14.338901 
 1390000     301.6561    1.2509986    3632.4198            0            0            0            0    588.39935    44657.537 -0.067234084   -17.036218 -0.041707817    3632.4198    1480.1159    1033.4576    954.31666    28.380844    18.847038    14.342187 0.00036267964 0.00036186062    6.6655034    6.6654713     301.6561     41.49527    35.978931    34.423473    90.016431    119.66323    90.107069    16.413135    217.60779    28.379879    18.848766     14.33883    28.379546     18.84787    14.342392 
 1400000    297.08581    1.2509986    3587.2076            0            0            0            0   -638.13154    44657.537 -0.067234084   -17.036218 -0.041707817    3587.2076     1463.322    1031.1847    934.64312    28.373714    18.849271     14.34382 0.00034554301 0.00034516657    7.0274967    7.0274143    297.08581     41.49527    35.978931    34.423473    90.016431    119.66323    90.107069    17.304508    207.32581    28.379289     18.84847    14.339534    28.373174    18.849128    14.342272 
 1410000    292.62063    1.2509986    3507.4822            0            0            0            0    847.81724    44657.537 -0.067234084   -17.036218 -0.041707817    3507.4822    1434.0452    1029.6777    889.36284    28.379723    18.850356     14.33662 0.00038431375 0.00038355711    6.9653193    6.9652742    292.62063     41.49527    35.978931    34.423473    90.016431    119.66323    90.107069    17.151402    230.58825    28.379421    18.849527    14.338949    28.380316    18.852149    14.336698 
 1420000    301.65073    1.2509986    3565.5016            0            0            0            0     1432.252    44657.537 -0.067234084   -17.036218 -0.041707817    3565.5016    1515.9772     1009.823    890.53505    28.381447    18.852237    14.341525 0.00034116313 0.00033914288    6.9311449    6.9310679    301.65073     41.49527    35.978931    34.423473    90.016431    119.66323    90.107069    17.067251    204.69788    28.378246    18.849535     14.33946    28.383561    18.852174    14.341513 
 1430000    296.44775    1.2509986    3586.2352            0            0            0            0    507.01555    44657.537 -0.067234084   -17.036218 -0.041707817    3586.2352    1460.2643    1017.1554    948.20175    28.383158    18.848861    14.343174 0.00034339021 0.00034094196    6.9817877    6.9817254    296.44775     41.49527    35.978931    34.423473    90.016431    119.66323    90.107069    17.191954    206.03413    28.379024    18.848423    14.340986    28.382037    18.848429    14.344237 
 1440000    293.11725    1.2509986    3616.6728            0            0            0            0   -1172.7489    44657.537 -0.067234084   -17.036218 -0.041707817    3616.6728    1486.1971     1037.932     933.1554    28.381299    18.843935    14.341611 0.00034818914 0.0003473748    6.7276059    6.7275486    293.11725     41.49527    35.978931    34.423473    90.016431    119.66323    90.107069    16.566057    208.91348    28.378676    18.849194     14.33956    28.381761    18.841394    14.343335 
 1450000    298.25684    1.2509986    3638.3225            0            0            0            0     121.8739    44657.537 -0.067234084   -17.036218 -0.041707817    3638.3225    1494.2876    1029.5135    951.58381    28.376669    18.852835    14.337478 0.00032831081 0.00032737268    6.8589398    6.8588709    298.25684     41.49527    35.978931    34.423473    90.016431    119.66323    90.107069    16.889453    196.98649    28.380371    18.848643    14.339266    28.375243    18.852215    14.335661 
 1460000    299.74252    1.2509986    3578.3089            0            0            0            0    1694.0598    44657.537 -0.067234084   -17.036218 -0.041707817    3578.3089    1487.8466    991.18255    942.17509    28.378982    18.853675    14.338283 0.00035703532 0.00035474076    6.9321562    6.9321031    299.74252     41.49527    35.978931    34.423473    90.016431    119.66323    90.107069    17.069741    214.22119    28.380277    18.849411    14.338366    28.378567    18.852386    14.339221 
 1470000    298.89356    1.2509986    3569.2261            0            0            0            0    292.36897    44657.537 -0.067234084   -17.036218 -0.041707817    3569.2261    1469.0501    1038.3818    909.33595    28.379783    18.851779    14.340273 0.0003560377 0.00035596735    6.9512805    6.9512296    298.89356     41.49527    35.978931    34.423473    90.016431    119.66323    90.107069    17.116833    213.62262    28.379306    18.848927    14.339635    28.380033    18.852592    14.337643 
 1480000    299.14038    1.2509986    3562.4598            0            0            0            0    51.206448    44657.537 -0.067234084   -17.036218 -0.041707817    3562.4598    1494.0803    1006.9732    905.36531    28.382718    18.852254    14.337059 0.00037618158 0.00037602855    6.8024641    6.8024163    299.14038     41.49527    35.978931    34.423473    90.016431    119.66323    90.107069    16.750388    225.70895    28.379332    18.848748    14.339819    28.382368    18.851853    14.336508 
 1490000    298.77053    1.2509986    3527.1247            0            0            0            0    1052.3388    44657.537 -0.067234084   -17.036218 -0.041707817    3527.1247    1427.1223    989.77542    950.65104    28.379478    18.848994    14.337598 0.0003186081 0.00031768698    6.8239097    6.8238983    298.77053     41.49527    35.978931    34.423473    90.016431    119.66323    90.107069    16.803195    191.16486    28.380037    18.849097    14.338812    28.379775    18.848843    14.337436 
 1500000    301.19608    1.2509986    3557.8463            0            0            0            0    673.26455    44657.537 -0.067234084   -17.036218 -0.041707817    3557.8463     1495.854    990.93228    911.05143    28.378251    18.843884    14.339207 0.00037432633 0.00037341992    6.6782684    6.6782612    301.19608     41.49527    35.978931    34.423473    90.016431    119.66323    90.107069    16.444568     224.5958    28.379637     18.84821    14.339132    28.377954    18.843715    14.338072 
 1510000    303.14075    1.2509986    3584.7175            0            0            0            0    93.156629    44657.537 -0.067234084   -17.036218 -0.041707817    3584.7175    1497.3341    994.43885    930.36492    28.384396    18.844472    14.337909 0.00035390195 0.00035147773    6.6084771    6.6084592    303.14075     41.49527    35.978931    34.423473    90.016431    119.66323    90.107069    16.272714    212.34117    28.380021    18.847669    14.339004    28.383195    18.842989    14.336771 
 1520000    293.13649    1.2509986    3546.7261            0            0            0            0    971.61931    44657.537 -0.067234084   -17.036218 -0.041707817    3546.7261    1525.8781    965.17123    897.42577    28.382333    18.845189    14.342526 0.00035281911 0.0003515478    6.7805933    6.7805604    293.13649     41.49527    35.978931    34.423473    90.016431    119.66323    90.107069    16.696533    211.69146    28.379396    18.848644    14.338585     28.38204    18.843724    14.342259 
[...]
 1630000    296.79748    1.2509986    3595.0698            0            0            0            0   -2433.4538    44657.537 -0.067234084   -17.036218 -0.041707817    3595.0698    1485.6467    1011.0332    936.57433    28.378317    18.848777     14.34179 0.00035318712 0.00035122279    6.9679921    6.9679616    296.79748     41.49527    35.978931    34.423473    90.016431    119.66323    90.107069    17.157984    211.91227    28.379074    18.849494    14.338413    28.381422    18.848529    14.341576 
 1640000    296.20771    1.2509986    3599.9957            0            0            0            0    1170.8417    44657.537 -0.067234084   -17.036218 -0.041707817    3599.9957    1473.5484    1051.1608    918.77548    28.382404    18.848027    14.343947 0.00034838629 0.0003474969    6.8236909    6.8235852    296.20771     41.49527    35.978931    34.423473    90.016431    119.66323    90.107069    16.802656    209.03178    28.380132    18.849757    14.339701    28.385812    18.847787    14.345286 
 1650000    298.33372    1.2509986    3588.2877            0            0            0            0   -14.093392    44657.537 -0.067234084   -17.036218 -0.041707817    3588.2877    1510.8986    1011.0764    908.91846     28.37829    18.843282    14.339781 0.00034277578 0.00034230588    6.7299878     6.729977    298.33372     41.49527    35.978931    34.423473    90.016431    119.66323    90.107069    16.571922    205.66547    28.380193    18.848934    14.339879    28.378957    18.843193    14.339455 
 1660000    296.32668    1.2509986    3638.3539            0            0            0            0   -1856.8944    44657.537 -0.067234084   -17.036218 -0.041707817    3638.3539     1534.662    995.79488    948.55484    28.379446    18.851292    14.341337 0.00035368985 0.00035164044     6.820611    6.8205511    296.32668     41.49527    35.978931    34.423473    90.016431    119.66323    90.107069    16.795073    212.21391    28.380325    18.849827    14.338746    28.379326    18.852601    14.340249 
 1670000    297.08078    1.2509986     3686.244            0            0            0            0    341.69852    44657.537 -0.067234084   -17.036218 -0.041707817     3686.244    1510.0598    1044.0572     967.3078    28.379678     18.85065    14.341911 0.0003751093 0.00037481503    6.7529573    6.7529015    297.08078     41.49527    35.978931    34.423473    90.016431    119.66323    90.107069    16.628482    225.06558    28.379184    18.849302    14.339907    28.379597    18.851546    14.341605 
 1680000    300.65694    1.2509986    3512.7343            0            0            0            0   -75.198478    44657.537 -0.067234084   -17.036218 -0.041707817    3512.7343    1440.0775    1020.3447     896.0662    28.378937    18.847687    14.339636 0.00036107171 0.00036055492    6.8177735    6.8177512    300.65694     41.49527    35.978931    34.423473    90.016431    119.66323    90.107069    16.788085    216.64303    28.380054     18.84889    14.340143    28.378851    18.849494    14.339551 
 1690000    301.57746    1.2509986    3653.6022            0            0            0            0   -332.47137    44657.537 -0.067234084   -17.036218 -0.041707817    3653.6022    1504.7261    1058.7429    931.24297    28.376785    18.846981    14.338535 0.00035752491 0.00035662134    6.7800434     6.780025    301.57746     41.49527    35.978931    34.423473    90.016431    119.66323    90.107069    16.695179    214.51494    28.380186     18.84932     14.34028    28.377692    18.845556     14.34099 
 1700000    299.19319    1.2509986    3657.1617            0            0            0            0   -384.62825    44657.537 -0.067234084   -17.036218 -0.041707817    3657.1617    1510.9785    1043.2121    944.03341    28.379132    18.844777    14.336734 0.00037885309 0.0003778087    6.8104397    6.8104327    299.19319     41.49527    35.978931    34.423473    90.016431    119.66323    90.107069    16.770027    227.31185    28.379685    18.849834    14.339043    28.380155    18.843934    14.335161 
 1710000    300.15382    1.2509986    3535.6416            0            0            0            0    8.5462712    44657.537 -0.067234084   -17.036218 -0.041707817    3535.6416    1495.1864    991.06239    895.06499    28.380112    18.842923    14.337843 0.00037216765 0.00037076117    6.9534144    6.9533994    300.15382     41.49527    35.978931    34.423473    90.016431    119.66323    90.107069    17.122088    223.30059    28.379859    18.848723    14.340748     28.38187     18.84233    14.338206 
 1720000     297.7736    1.2509986    3608.8126            0            0            0            0    883.45599    44657.537 -0.067234084   -17.036218 -0.041707817    3608.8126    1478.7934    1031.7749    937.18423    28.373924    18.851131    14.334685 0.00034232953 0.00034100405    6.7706665    6.7705738     297.7736     41.49527    35.978931    34.423473    90.016431    119.66323    90.107069    16.672089    205.39772    28.379865    18.848261    14.338823    28.372727    18.850797    14.333504 
 1730000    291.81204    1.2509986    3625.5871            0            0            0            0   -1137.4145    44657.537 -0.067234084   -17.036218 -0.041707817    3625.5871    1497.8198    1036.9866    935.98714    28.373837    18.852625    14.341536 0.00034962091 0.00034775026    6.6819718    6.6818448    291.81204     41.49527    35.978931    34.423473    90.016431    119.66323    90.107069    16.453687    209.77255    28.378539    18.848609    14.338819    28.372592    18.852748    14.341953 
 1740000    293.29854    1.2509986    3535.9023            0            0            0            0    1590.2097    44657.537 -0.067234084   -17.036218 -0.041707817    3535.9023    1488.5319    1013.2061    882.72841     28.38023    18.848119    14.344576 0.00036689776 0.00036475691    6.5697335    6.5696755    293.29854     41.49527    35.978931    34.423473    90.016431    119.66323    90.107069    16.177312    220.13865    28.379487    18.849937    14.338506     28.38062    18.848367    14.344261 
 1750000    299.07441    1.2509986    3568.3125            0            0            0            0    200.94479    44657.537 -0.067234084   -17.036218 -0.041707817    3568.3125    1455.8139    1015.0085    943.60647    28.377437    18.847257    14.344629 0.00035695244 0.00035475008    6.8485603     6.848474    299.07441     41.49527    35.978931    34.423473    90.016431    119.66323    90.107069    16.863895    214.17146    28.379288    18.848684    14.338216     28.37723    18.846831    14.346087 
 1760000    294.90103    1.2509986    3603.3055            0            0            0            0    1875.3065    44657.537 -0.067234084   -17.036218 -0.041707817    3603.3055    1506.9792    1007.9715    930.60494     28.37253    18.849998    14.342646 0.00034362382 0.00034130848    6.9088066    6.9087079    294.90103     41.49527    35.978931    34.423473    90.016431    119.66323    90.107069    17.012245    206.17429    28.379433      18.8481    14.340849    28.371301    18.848999    14.340983 
 1770000     294.3575    1.2509986    3531.1826            0            0            0            0   -180.82958    44657.537 -0.067234084   -17.036218 -0.041707817    3531.1826    1461.0681    975.12537    939.67279    28.375836    18.849257     14.33801 0.00036399125 0.00036291573    6.7093773    6.7093627     294.3575     41.49527    35.978931    34.423473    90.016431    119.66323    90.107069    16.521171    218.39475    28.378698    18.848515    14.339338    28.377422    18.848132    14.338612 
 1780000    301.92137    1.2509986    3581.8755            0            0            0            0    79.083535    44657.537 -0.067234084   -17.036218 -0.041707817    3581.8755    1456.0937    987.06379    976.49202    28.380147    18.846884    14.334954 0.00039018167 0.00038929075    6.6365531     6.636537    301.92137     41.49527    35.978931    34.423473    90.016431    119.66323    90.107069    16.341848      234.109    28.380169      18.8497    14.339849    28.380644    18.846401    14.333448 
 1790000    299.60248    1.2509986    3536.4121            0            0            0            0    910.54603    44657.537 -0.067234084   -17.036218 -0.041707817    3536.4121    1442.8153     1041.993    900.91735    28.375147    18.851548    14.341973 0.00034010288 0.00033889794    6.7160466    6.7159695    299.60248     41.49527    35.978931    34.423473    90.016431    119.66323    90.107069    16.537593    204.06173    28.379201    18.848971      14.3386    28.374515    18.851033    14.341519 
 1800000    301.10456    1.2509986    3527.5537            0            0            0            0    680.28293    44657.537 -0.067234084   -17.036218 -0.041707817    3527.5537    1431.2374    991.06644    943.34803    28.379868    18.846574    14.345263 0.00034048645 0.00033876541     6.661083    6.6609771    301.10456     41.49527    35.978931    34.423473    90.016431    119.66323    90.107069    16.402251    204.29187    28.380851    18.848805    14.339685    28.377576    18.845011    14.347294 
 1810000    296.78162    1.2509986    3612.5998            0            0            0            0    2080.5437    44657.537 -0.067234084   -17.036218 -0.041707817    3612.5998    1493.1027    1025.4055    933.85976    28.379519    18.849713    14.337464 0.00037883814 0.00037609782    6.7832847    6.7832501    296.78162     41.49527    35.978931    34.423473    90.016431    119.66323    90.107069     16.70316    227.30289    28.379045    18.849176    14.338072    28.381221    18.850882    14.339106 
 1820000    296.94071    1.2509986    3547.2018            0            0            0            0     1080.815    44657.537 -0.067234084   -17.036218 -0.041707817    3547.2018    1468.3837    995.73937    926.69972    28.377112    18.848044    14.336629 0.00037542272 0.00037488368    6.8648721    6.8648493    296.94071     41.49527    35.978931    34.423473    90.016431    119.66323    90.107069    16.904061    225.25363    28.379539    18.848743    14.340321    28.376434    18.848509     14.33578 
 1830000    300.59139    1.2509986      3593.08            0            0            0            0    534.52417    44657.537 -0.067234084   -17.036218 -0.041707817      3593.08    1518.8777    1015.5721    907.39404    28.379313    18.845576    14.343141 0.00033622657 0.00033596785    6.7997335    6.7997147    300.59139     41.49527    35.978931    34.423473    90.016431    119.66323    90.107069    16.743664    201.73594     28.37971     18.84854    14.339533    28.379867    18.846427    14.341488 
 1840000    297.37898    1.2509986    3589.1263            0            0            0            0    1020.0449    44657.537 -0.067234084   -17.036218 -0.041707817    3589.1263    1514.8319    1021.9076    898.81782     28.38372    18.846731    14.339299 0.00034833819 0.00034737359      6.67939    6.6793595    297.37898     41.49527    35.978931    34.423473    90.016431    119.66323    90.107069     16.44733    209.00291    28.379407    18.848193    14.340157     28.38519    18.845296    14.338482 
 1850000    295.59591    1.2509986    3511.0217            0            0            0            0    866.58405    44657.537 -0.067234084   -17.036218 -0.041707817    3511.0217    1423.4303    967.78512    958.35184    28.382043    18.849662    14.336803 0.00038705738 0.00038531065    6.7954913    6.7954667    295.59591     41.49527    35.978931    34.423473    90.016431    119.66323    90.107069    16.733218    232.23443    28.378691    18.848317    14.338921    28.381524    18.850101    14.336792 
 1860000    293.01695    1.2509986     3627.196            0            0            0            0    291.15991    44657.537 -0.067234084   -17.036218 -0.041707817     3627.196    1509.4261    1027.8363    931.47263    28.374618    18.845693    14.342023 0.00034552321 0.00034517399    6.8350217    6.8349839    293.01695     41.49527    35.978931    34.423473    90.016431    119.66323    90.107069    16.830557    207.31392    28.379656    18.849457    14.339262    28.377214    18.844846    14.342802 
 1870000    293.66683    1.2509986    3668.1249            0            0            0            0    1306.2052    44657.537 -0.067234084   -17.036218 -0.041707817    3668.1249    1501.0082     1038.707    961.25046    28.382013    18.850386    14.341224 0.00035575998 0.00035528854    6.7890602    6.7890139    293.66683     41.49527    35.978931    34.423473    90.016431    119.66323    90.107069    16.717382    213.45599    28.380067    18.848571    14.339513    28.383783    18.850582    14.339371 
 1880000    299.20005    1.2509986    3547.5145            0            0            0            0   -515.65404    44657.537 -0.067234084   -17.036218 -0.041707817    3547.5145    1478.5115    1012.6182    899.78621    28.376716    18.851277    14.339717 0.00037730719 0.00037596627    6.9203251    6.9202666    299.20005     41.49527    35.978931    34.423473    90.016431    119.66323    90.107069    17.040609    226.38432    28.380071     18.84869    14.338652    28.375756    18.851429    14.339829 
 1890000    292.92106    1.2509986    3503.7172            0            0            0            0   -529.81853    44657.537 -0.067234084   -17.036218 -0.041707817    3503.7172    1428.3025    1004.1019    914.61122    28.380476    18.852571    14.342241 0.00037911993 0.0003789614    6.8440168    6.8439499    292.92106     41.49527    35.978931    34.423473    90.016431    119.66323    90.107069    16.852707    227.47196    28.379758    18.848786     14.33938    28.381704    18.851636    14.342301 
 1900000    301.96473    1.2509986    3557.5821            0            0            0            0    200.49971    44657.537 -0.067234084   -17.036218 -0.041707817    3557.5821    1431.4081    1007.1567    955.53908    28.382034    18.853714     14.33959 0.00033890704 0.00033734625    6.7301873     6.730126    301.96473     41.49527    35.978931    34.423473    90.016431    119.66323    90.107069    16.572413    203.34423     28.37924    18.849136     14.34084    28.380304    18.853119    14.338901 
 1910000    302.01864    1.2509986    3592.6884            0            0            0            0    283.44401    44657.537 -0.067234084   -17.036218 -0.041707817    3592.6884    1485.9913    1041.2034    908.13416    28.378139    18.849604    14.336808 0.00034088269 0.00034062254    6.8468431     6.846832    302.01864     41.49527    35.978931    34.423473    90.016431    119.66323    90.107069    16.859666    204.52961    28.380033    18.848835    14.339682    28.378281    18.848312    14.336451 
 1920000    295.40311    1.2509986    3658.1955            0            0            0            0   -1355.0144    44657.537 -0.067234084   -17.036218 -0.041707817    3658.1955    1547.1935    1022.5361    930.89385    28.379416    18.847869    14.339079 0.00039279809 0.00039246487    6.5424305    6.5424224    295.40311     41.49527    35.978931    34.423473    90.016431    119.66323    90.107069    16.110081    235.67885    28.379751    18.849512    14.339424    28.380021    18.847988    14.338598 
 1930000    300.46419    1.2509986    3541.4776            0            0            0            0   -406.94839    44657.537 -0.067234084   -17.036218 -0.041707817    3541.4776    1441.3733    1034.0464    909.09514    28.379552    18.849679    14.336411 0.00035995222 0.00035653025    6.6094569    6.6094254    300.46419     41.49527    35.978931    34.423473    90.016431    119.66323    90.107069    16.275127    215.97133    28.378787    18.848676     14.33799    28.378538    18.850877    14.336405 
 1940000    300.66728    1.2509986    3599.3326            0            0            0            0    294.89092    44657.537 -0.067234084   -17.036218 -0.041707817    3599.3326    1448.1634    1051.9856    942.50613    28.373809    18.848934    14.337464 0.00035796576 0.00035725283    6.8354424    6.8353971    300.66728     41.49527    35.978931    34.423473    90.016431    119.66323    90.107069    16.831593    214.77946    28.379015    18.848429    14.339919    28.373876    18.848638     14.33703 
 1950000    299.14399    1.2509986    3582.9751            0            0            0            0    1292.5343    44657.537 -0.067234084   -17.036218 -0.041707817    3582.9751    1483.6518    1022.0249    920.91712    28.379305    18.849594    14.343978 0.00034605301 0.00034603067    6.7219087    6.7218735    299.14399     41.49527    35.978931    34.423473    90.016431    119.66323    90.107069    16.552028     207.6318    28.379531    18.849015    14.339491    28.379765    18.849307    14.341794 
 1960000    302.77139    1.2509986     3648.506            0            0            0            0     406.2285    44657.537 -0.067234084   -17.036218 -0.041707817     3648.506    1533.0791    1019.7387    935.80337    28.376143    18.846732    14.332426 0.00038673943 0.00038582756    6.6612064    6.6611643    302.77139     41.49527    35.978931    34.423473    90.016431    119.66323    90.107069    16.402555    232.04366    28.379229    18.848116    14.339639    28.374986    18.847358    14.333351 
 1970000    299.09134    1.2509986    3575.1339            0            0            0            0    533.58884    44657.537 -0.067234084   -17.036218 -0.041707817    3575.1339    1509.3526    1042.2811     871.8277    28.385096     18.84759    14.336208 0.00037478689 0.0003726057    6.6120413    6.6119916    299.09134     41.49527    35.978931    34.423473    90.016431    119.66323    90.107069    16.281491    224.87214     28.38088    18.848745     14.33904    28.386377    18.847952    14.336565 
 1980000    299.82839    1.2509986    3587.0524            0            0            0            0     874.9291    44657.537 -0.067234084   -17.036218 -0.041707817    3587.0524    1464.5758    995.09746    962.47274     28.37949    18.846405    14.334293 0.00036804024 0.00036779797    6.7966682    6.7966428    299.82839     41.49527    35.978931    34.423473    90.016431    119.66323    90.107069    16.736116    220.82415    28.379581    18.848717    14.339246    28.378462    18.847955    14.333082 
 1990000    291.72384    1.2509986    3528.6644            0            0            0            0    98.242603    44657.537 -0.067234084   -17.036218 -0.041707817    3528.6644    1488.7315     992.3156    900.51008    28.378149    18.842521    14.339095 0.00037858364 0.00037831302    6.7981184    6.7980973    291.72384     41.49527    35.978931    34.423473    90.016431    119.66323    90.107069    16.739687    227.15018    28.379802    18.848819    14.339223    28.378881    18.841148    14.338482 
 2000000    301.27273    1.2509986    3556.4196            0            0            0            0   -690.72942    44657.537 -0.067234084   -17.036218 -0.041707817    3556.4196    1495.2315    1033.3378    883.48406    28.378129    18.852145    14.338833 0.00034209499 0.00034198358    6.8184387      6.81838    301.27273     41.49527    35.978931    34.423473    90.016431    119.66323    90.107069    16.789723    205.25699    28.379375    18.848917    14.339375    28.379702    18.853134    14.337475 
Loop time of 3926.6 on 20 procs for 2000000 steps with 4560 atoms

Pair  time (%) = 2858.12 (72.7889)
Bond  time (%) = 343.578 (8.75003)
Neigh time (%) = 76.861 (1.95745)
Comm  time (%) = 494.992 (12.6062)
Outpt time (%) = 0.53623 (0.0136564)
Other time (%) = 152.502 (3.88383)

Nlocal:    228 ave 240 max 218 min
Histogram: 1 3 3 3 1 3 1 3 0 2
Nghost:    5946.95 ave 6010 max 5870 min
Histogram: 1 0 3 0 6 1 4 2 1 2
Neighs:    84192.9 ave 90153 max 80003 min
Histogram: 2 1 7 1 0 5 1 2 0 1

Total # of neighbors = 1683857
Ave neighs/atom = 369.267
Ave special neighs/atom = 10.6316
Neighbor list builds = 15413
Dangerous builds = 0
System init for write_data ...
