LAMMPS data file via write_data, version 15 May 2015, timestep = 18500000

2593 atoms
6 atom types
1728 bonds
4 bond types
864 angles
3 angle types
0 dihedrals
3 dihedral types
0 impropers
1 improper types

-1.5032035713392425e+01 1.5032035713392425e+01 xlo xhi
-1.5032035713392425e+01 1.5032035713392425e+01 ylo yhi
-1.5032035713392425e+01 1.5032035713392425e+01 zlo zhi

Masses

1 15.9994
2 1.00794
3 12.0107
4 1.00794
5 12.0107
6 12.0107

Bond Coeffs # harmonic

1 1000 1
2 469 1.4
3 367 1.08
4 469 0.7

Angle Coeffs # harmonic

1 100 109.47
2 35 120
3 63 120

Dihedral Coeffs # opls

1 0 7.25 0 0
2 0 7.25 0 0
3 0 7.25 0 0

Improper Coeffs # cvff

1 2.5 -1 2

Atoms # full

1782 594 2 4.0999999999999998e-01 -1.0768416239818986e+01 -1.0993119791867702e+01 -1.0225200396468818e+01 2 6 0
67 23 1 -8.1999999999999995e-01 -8.7991806326737247e+00 -7.4249875832472361e+00 -8.4038402299711379e+00 3 1 2
1780 594 1 -8.1999999999999995e-01 -1.1116724094826873e+01 -1.1170875946046367e+01 -9.3048016661424668e+00 2 6 0
2429 810 2 4.0999999999999998e-01 -1.0969773718546584e+01 -6.6273799637518884e+00 -1.0388354041281719e+01 -4 4 -1
2428 810 1 -8.1999999999999995e-01 -1.1318830100876831e+01 -7.5339047086042514e+00 -1.0625887202194225e+01 -4 4 -1
2430 810 2 4.0999999999999998e-01 -1.1277671263098725e+01 -8.1279647276954705e+00 -9.8224893487108691e+00 -4 4 -1
1024 342 1 -8.1999999999999995e-01 -1.3778022736691641e+01 -1.1510063324251181e+01 -1.0258452729612614e+01 7 1 -4
1025 342 2 4.0999999999999998e-01 -1.3480475557477931e+01 -1.2450932220384647e+01 -1.0096338965605385e+01 7 1 -4
906 302 2 4.0999999999999998e-01 -1.2461785864208167e+01 -1.4480078195599027e+01 -9.3775161239880536e+00 0 1 3
738 246 2 4.0999999999999998e-01 -9.6181122129117824e+00 -1.4108143691815023e+01 -1.0535215571568404e+01 0 2 2
736 246 1 -8.1999999999999995e-01 -1.0514623186130205e+01 -1.4087090674147110e+01 -1.0092638725876281e+01 0 2 2
737 246 2 4.0999999999999998e-01 -1.0783547257640780e+01 -1.3137839417416371e+01 -9.9293862967749611e+00 0 2 2
905 302 2 4.0999999999999998e-01 -1.3928547363738376e+01 -1.4763140603798210e+01 -1.0037246945940350e+01 0 1 3
904 302 1 -8.1999999999999995e-01 -1.3411260705968225e+01 -1.4169190738016784e+01 -9.4210590399677301e+00 0 1 3
2087 696 2 4.0999999999999998e-01 -1.3060156962012039e+01 -6.6990222533526946e+00 -1.0582927975094739e+01 -2 3 -1
2524 842 1 -8.1999999999999995e-01 -1.0697847809920553e+01 -7.2445344649819097e+00 -1.3346690687808564e+01 -3 1 0
2086 696 1 -8.1999999999999995e-01 -1.3839291931046738e+01 -6.1488506518254518e+00 -1.0883443028343491e+01 -2 3 -1
1259 420 2 4.0999999999999998e-01 -1.2100624338052393e+01 -5.2385685174979066e+00 -1.3809910893518301e+01 7 2 -3
544 182 1 -8.1999999999999995e-01 -1.1477598030077587e+01 -8.6810994025315118e+00 -7.9669849342073897e+00 -1 1 -1
2091 697 2 4.0999999999999998e-01 -8.5063301281965931e+00 -9.8338555303487780e+00 -1.1722038864385507e+01 3 2 5
312 104 2 4.0999999999999998e-01 -1.4125927824477362e+01 -6.1854893215115911e+00 -7.5749226714840354e+00 -1 7 -2
2089 697 1 -8.1999999999999995e-01 -9.2937362876904750e+00 -1.0427939300392197e+01 -1.1557401449423809e+01 3 2 5
2090 697 2 4.0999999999999998e-01 -9.7735461068665330e+00 -1.0591942375861400e+01 -1.2419338212421446e+01 3 2 5
2592 864 2 4.0999999999999998e-01 -1.2224238974596217e+01 -9.8788151297911924e+00 -1.3366705788797770e+01 6 3 2
2591 864 2 4.0999999999999998e-01 -1.2455059205398534e+01 -1.1008150092338301e+01 -1.4523461130721685e+01 6 3 2
1781 594 2 4.0999999999999998e-01 -1.1119832358227276e+01 -1.0319948383715341e+01 -8.7794807315494161e+00 2 6 0
1026 342 2 4.0999999999999998e-01 -1.3031496753963710e+01 -1.0881890527959488e+01 -1.0039027664482234e+01 7 1 -4
562 188 1 -8.1999999999999995e-01 -8.8105521347208544e+00 -1.4674144749893928e+01 -1.3543435276292243e+01 3 3 -1
564 188 2 4.0999999999999998e-01 -8.0467598636914079e+00 -1.4239380903801807e+01 -1.3066307183817740e+01 3 3 -1
2525 842 2 4.0999999999999998e-01 -1.0335287195186536e+01 -7.4025464613371925e+00 -1.2428196608700945e+01 -3 1 0
711 237 2 4.0999999999999998e-01 -9.8700906046281585e+00 -8.4577155919792535e+00 -1.4313691372176663e+01 0 7 5
563 188 2 4.0999999999999998e-01 -8.8902300842737851e+00 -1.4290940130516908e+01 -1.4463682579027603e+01 3 3 -1
2207 736 2 4.0999999999999998e-01 -7.8014775550618953e+00 -8.8345716904226670e+00 -7.8708381121337441e+00 -1 2 -2
2468 823 2 4.0999999999999998e-01 -9.8924420626800913e+00 -5.9034114551028338e+00 -1.4257157130142744e+01 -1 6 -2
2078 693 2 4.0999999999999998e-01 -8.2528184564919904e+00 -1.1944513994169085e+01 -8.7260938379457471e+00 1 3 1
2088 696 2 4.0999999999999998e-01 -1.3826980128808122e+01 -6.0700439739474223e+00 -1.1880281709811332e+01 -2 3 -1
2526 842 2 4.0999999999999998e-01 -1.1693556459398470e+01 -7.1629111353883488e+00 -1.3302517793799360e+01 -3 1 0
2291 764 2 4.0999999999999998e-01 -7.8184456914506404e+00 -5.4355564116321258e+00 -1.1135396843877151e+01 4 3 -3
69 23 2 4.0999999999999998e-01 -8.3884951481333623e+00 -6.5277844744861202e+00 -8.5663622965543489e+00 3 1 2
2058 686 2 4.0999999999999998e-01 -7.5305227370500498e+00 -7.9434014074255144e+00 -1.3187972361557792e+01 3 10 3
1260 420 2 4.0999999999999998e-01 -1.3714066840799259e+01 -5.4588697529053114e+00 -1.3932503835576243e+01 7 2 -3
2590 864 1 -8.1999999999999995e-01 -1.1844822766745230e+01 -1.0699620464774814e+01 -1.3793755431937534e+01 6 3 2
2467 823 1 -8.1999999999999995e-01 -9.3197383338052475e+00 -5.0875956899568013e+00 -1.4337807737625251e+01 -1 6 -2
68 23 2 4.0999999999999998e-01 -8.6996065393256394e+00 -7.9904075988460175e+00 -9.2226409582089097e+00 3 1 2
2079 693 2 4.0999999999999998e-01 -7.8338424014480612e+00 -1.3517035977127012e+01 -8.5904768081632881e+00 1 3 1
2268 756 2 4.0999999999999998e-01 -7.5368715875483794e+00 -1.2761170823404347e+01 -1.1030111500281661e+01 0 2 0
710 237 2 4.0999999999999998e-01 -1.0477041711947461e+01 -9.8701886583444391e+00 -1.4864407749694411e+01 0 7 5
2077 693 1 -8.1999999999999995e-01 -8.0121710284770788e+00 -1.2772066428426232e+01 -9.2333366059381596e+00 1 3 1
1258 420 1 -8.1999999999999995e-01 -1.2883071773077358e+01 -5.7546034742732743e+00 -1.3461294491641844e+01 7 2 -3
275 92 2 4.0999999999999998e-01 -1.4660988322430814e+01 -1.0225408008129364e+01 -1.1889639925250256e+01 0 1 0
709 237 1 -8.1999999999999995e-01 -9.7120708218913041e+00 -9.2294113811116354e+00 -1.4929779651483404e+01 0 7 5
546 182 2 4.0999999999999998e-01 -1.2156793428236204e+01 -7.9497195413133648e+00 -8.0288441509228115e+00 -1 1 -1
310 104 1 -8.1999999999999995e-01 -1.3138824764483683e+01 -6.3456385307487722e+00 -7.5695163490991986e+00 -1 7 -2
311 104 2 4.0999999999999998e-01 -1.2658735410660608e+01 -5.4687261134372918e+00 -7.5937709105640101e+00 -1 7 -2
964 322 1 -8.1999999999999995e-01 -2.3830621723956291e-01 -7.6784787022900032e+00 -1.3445572660116303e+01 3 2 -6
3 1 2 4.0999999999999998e-01 -1.3470498543716829e+00 -6.1867748049308933e+00 -1.0047958170619401e+01 1 2 -3
593 198 2 4.0999999999999998e-01 -7.4410268296395383e+00 -5.6730721874335259e+00 -1.4611348017494633e+01 -4 8 -7
1565 522 2 4.0999999999999998e-01 -1.2473600322169354e-01 -1.0147733011259046e+01 -9.2688340125947004e+00 -5 -2 0
1799 600 2 4.0999999999999998e-01 -8.8686784880075287e-01 -1.4009257153962917e+01 -1.0204001149250633e+01 -2 1 -1
2493 831 2 4.0999999999999998e-01 -1.0217970850499363e+00 -7.8984866626341663e+00 -8.3503315304895356e+00 8 3 -9
2208 736 2 4.0999999999999998e-01 -6.4924713097558655e+00 -9.8024644280515645e+00 -7.7426014672076207e+00 -1 2 -2
965 322 2 4.0999999999999998e-01 -7.5890779968923106e-01 -7.4402382854470988e+00 -1.4265490308512220e+01 3 2 -6
2349 783 2 4.0999999999999998e-01 -8.3805939258603246e-02 -1.1651541582843146e+01 -1.0525924123306718e+01 2 -1 1
173 58 2 4.0999999999999998e-01 -9.7520439923505542e-01 -1.1051389106483679e+01 -1.3890470591133115e+01 0 4 -1
2057 686 2 4.0999999999999998e-01 -6.9575509901418346e+00 -9.4567259263119965e+00 -1.2968175628591984e+01 3 10 3
2056 686 1 -8.1999999999999995e-01 -7.4505339361474503e+00 -8.6999356018281411e+00 -1.2538890538423908e+01 3 10 3
1564 522 1 -8.1999999999999995e-01 -1.9200812983358340e-01 -9.5427029269014643e+00 -8.4754472672907823e+00 -5 -2 0
2 1 2 4.0999999999999998e-01 -1.0372111566065261e+00 -6.7324614870438566e+00 -1.1555600164696454e+01 1 2 -3
53 18 2 4.0999999999999998e-01 -4.6660708169837886e+00 -6.8713217262491284e+00 -1.1007091307856751e+01 2 0 -3
2290 764 1 -8.1999999999999995e-01 -7.1348073718536833e+00 -5.9258651002964520e+00 -1.1676031186758408e+01 4 3 -3
2472 824 2 4.0999999999999998e-01 -2.4283106520273900e+00 -9.9541988389731415e+00 -1.1993035932898282e+01 -3 5 1
592 198 1 -8.1999999999999995e-01 -6.5621609083825696e+00 -5.9006498015832882e+00 -1.4192000227274590e+01 -4 8 -7
756 252 2 4.0999999999999998e-01 -2.5442941427979768e+00 -1.3350033181771410e+01 -1.3677334923261329e+01 -3 0 3
2343 781 2 4.0999999999999998e-01 -6.8088512014965463e+00 -9.0868920657348404e+00 -1.0795588777658809e+01 1 -2 -8
594 198 2 4.0999999999999998e-01 -6.6100034945327568e+00 -5.7349905764545248e+00 -1.3206953255746063e+01 -4 8 -7
1 1 1 -8.1999999999999995e-01 -1.6517059599591839e+00 -6.1719950408418232e+00 -1.1000331871640523e+01 1 2 -3
1661 554 2 4.0999999999999998e-01 -4.0695575549169352e+00 -8.9693364338318808e+00 -8.4996242310690207e+00 0 5 -5
174 58 2 4.0999999999999998e-01 -5.9180027030793703e-01 -9.5322076460003711e+00 -1.3430201818878970e+01 0 4 -1
2267 756 2 4.0999999999999998e-01 -6.5364814748745648e+00 -1.2267080689292088e+01 -1.2222526254870862e+01 0 2 0
2387 796 2 4.0999999999999998e-01 -2.5375601150678122e+00 -1.3088095037291204e+01 -1.1391460485102019e+01 -3 5 5
1800 600 2 4.0999999999999998e-01 -7.7226134565884230e-01 -1.2975146007929725e+01 -8.9453360480663378e+00 -2 1 -1
2266 756 1 -8.1999999999999995e-01 -7.0542956685925970e+00 -1.3041896119389520e+01 -1.1859788093427245e+01 0 2 0
1165 389 1 -8.1999999999999995e-01 -5.2124181475226141e+00 -1.4824950473426570e+01 -1.2031428030415819e+01 -6 2 4
755 252 2 4.0999999999999998e-01 -9.8188443867067043e-01 -1.3773108610811848e+01 -1.3893301310806086e+01 -3 0 3
1167 389 2 4.0999999999999998e-01 -6.0698980294157892e+00 -1.4311457547481934e+01 -1.1998221103726976e+01 -6 2 4
1798 600 1 -8.1999999999999995e-01 -1.0526069789526940e+00 -1.3070934905607556e+01 -9.9004696897827724e+00 -2 1 -1
1331 444 2 4.0999999999999998e-01 -5.1036454020066646e+00 -6.0042837672607163e+00 -1.4960275300799752e+01 3 8 2
2471 824 2 4.0999999999999998e-01 -3.3988156142965540e+00 -9.4345261482628349e+00 -1.0786877266607961e+01 -3 5 1
54 18 2 4.0999999999999998e-01 -3.3072506928235335e+00 -6.0702156483411791e+00 -1.1429696679713757e+01 2 0 -3
52 18 1 -8.1999999999999995e-01 -4.2905390056108601e+00 -5.9825510358198670e+00 -1.1269982886875605e+01 2 0 -3
2491 831 1 -8.1999999999999995e-01 -1.3512130855913469e+00 -6.9885023366046397e+00 -8.0984127505100219e+00 8 3 -9
1662 554 2 4.0999999999999998e-01 -3.2532261659459483e+00 -7.5723935687222514e+00 -8.7207847843587718e+00 0 5 -5
2470 824 1 -8.1999999999999995e-01 -3.2996578091090640e+00 -1.0101841253552283e+01 -1.1525055915282756e+01 -3 5 1
1660 554 1 -8.1999999999999995e-01 -3.7290185755644814e+00 -8.3217667036389180e+00 -9.1813397910128387e+00 0 5 -5
1166 389 2 4.0999999999999998e-01 -4.4425681992941595e+00 -1.4187077968882862e+01 -1.2053770155816281e+01 -6 2 4
2341 781 1 -8.1999999999999995e-01 -6.4414493439771316e+00 -9.1352401486936401e+00 -9.8667573679073488e+00 1 -2 -8
2348 783 2 4.0999999999999998e-01 -1.0695770372429969e-01 -1.0477039926003917e+01 -1.1660282198219173e+01 2 -1 1
410 137 2 4.0999999999999998e-01 -5.6309090739092937e+00 -1.0916595889747288e+01 -1.4375076581614508e+01 3 5 0
409 137 1 -8.1999999999999995e-01 -5.6410262112888159e+00 -1.0916626837002678e+01 -1.3375103044125614e+01 3 5 0
2386 796 1 -8.1999999999999995e-01 -3.2342949311707283e+00 -1.2916092350230631e+01 -1.2087897943913250e+01 -3 5 5
411 137 2 4.0999999999999998e-01 -4.7049109020779394e+00 -1.0837776012516487e+01 -1.3032291011447290e+01 3 5 0
2342 781 2 4.0999999999999998e-01 -5.4640042823641544e+00 -9.3429961025753023e+00 -9.9053327080055809e+00 1 -2 -8
2388 796 2 4.0999999999999998e-01 -3.5181655405030146e+00 -1.1958122687911272e+01 -1.2045932685116295e+01 -3 5 5
172 58 1 -8.1999999999999995e-01 -1.0082967142701840e+00 -1.0393232733759943e+01 -1.3138284151741690e+01 0 4 -1
754 252 1 -8.1999999999999995e-01 -1.9015961194672464e+00 -1.3818879481431715e+01 -1.4283281999092310e+01 -3 0 3
2292 764 2 4.0999999999999998e-01 -6.5050401513344074e+00 -6.4032954437203067e+00 -1.1063248217866375e+01 4 3 -3
1040 347 2 4.0999999999999998e-01 -2.7862300282876777e+00 -5.3808606908674630e+00 -7.7258044763934945e+00 -1 4 1
65 22 2 4.0999999999999998e-01 -2.7558590367190359e+00 -1.2991611495063196e+01 -7.5858316469879874e+00 -2 -2 5
1129 377 1 -8.1999999999999995e-01 -1.2985659012003399e+01 -1.0600195388998191e+01 -2.1198181809695811e+00 -1 8 -3
288 96 2 4.0999999999999998e-01 -1.4680883023340327e+01 -1.2604912557459068e+01 -3.4944635903733641e+00 0 5 4
1130 377 2 4.0999999999999998e-01 -1.3552575319599820e+01 -1.1368009520180168e+01 -2.4183425857332406e+00 -1 8 -3
984 328 2 4.0999999999999998e-01 -1.3161529646811552e+01 -1.4801451493676533e+01 -3.1926659093547745e+00 6 -3 -5
1775 592 2 4.0999999999999998e-01 -9.7696499568170534e+00 -1.4410084689761799e+01 -3.1381296418848681e+00 3 6 0
2048 683 2 4.0999999999999998e-01 -1.3054094407087923e+01 -1.3333145018403798e+01 -5.3498227015262731e+00 0 4 -5
2311 771 1 -8.1999999999999995e-01 -1.2391424324193768e+01 -9.9006180087347850e+00 -4.7158149006934256e+00 5 -1 0
865 289 1 -8.1999999999999995e-01 -1.4471453787215216e+01 -8.5116051041653051e+00 -5.3867770699794217e+00 -1 6 1
2312 771 2 4.0999999999999998e-01 -1.2380279953752616e+01 -1.0039933254468117e+01 -3.7256045584083761e+00 5 -1 0
1324 442 1 -8.1999999999999995e-01 -1.0500262709743630e+01 -7.5962560006261670e+00 -4.8788407427121818e+00 3 3 4
866 289 2 4.0999999999999998e-01 -1.4239004556384824e+01 -7.8270981498970436e+00 -6.0777669693916891e+00 -1 6 1
867 289 2 4.0999999999999998e-01 -1.3640527062850705e+01 -8.9841196603170950e+00 -5.0929399360635763e+00 -1 6 1
2313 771 2 4.0999999999999998e-01 -1.2355613806157937e+01 -1.0786944440045868e+01 -5.1775426452057864e+00 5 -1 0
1325 442 2 4.0999999999999998e-01 -1.1200164182809234e+01 -8.3066980167762452e+00 -4.8049520811241351e+00 3 3 4
583 195 1 -8.1999999999999995e-01 -1.1960211260511215e+01 -5.2747473876801880e+00 -4.8372609094463392e+00 0 2 0
1326 442 2 4.0999999999999998e-01 -9.6060851533816543e+00 -7.9848419430190436e+00 -4.6563617032607301e+00 3 3 4
44 15 2 4.0999999999999998e-01 -1.2956126537062268e+01 -6.5655200788361761e+00 -1.3313465860090474e+00 2 -1 4
43 15 1 -8.1999999999999995e-01 -1.2460946913694057e+01 -6.0841398281126011e+00 -6.0807649868511149e-01 2 -1 4
45 15 2 4.0999999999999998e-01 -1.2991702852187759e+01 -5.2897865641543405e+00 -3.1252537561064919e-01 2 -1 4
2047 683 1 -8.1999999999999995e-01 -1.3693363545775405e+01 -1.3715610329883802e+01 -4.6826610022367987e+00 0 4 -5
317 106 2 4.0999999999999998e-01 -1.0107505269138695e+01 -1.2629945491007176e+01 -3.7053099533640967e+00 -2 9 3
2049 683 2 4.0999999999999998e-01 -1.4428967884790676e+01 -1.4194121752116432e+01 -5.1622050930842907e+00 0 4 -5
1121 374 2 4.0999999999999998e-01 -1.1089756875734542e+01 -1.2112312553054302e+01 -6.5606495695146396e+00 2 6 6
584 195 2 4.0999999999999998e-01 -1.1485809332253552e+01 -6.1540490753124786e+00 -4.7945898312426340e+00 0 2 0
1655 552 2 4.0999999999999998e-01 -1.4177513163537398e+01 -8.0300874979818175e+00 -3.3313697335213153e+00 5 6 -2
316 106 1 -8.1999999999999995e-01 -9.5514910204732786e+00 -1.2763014272276047e+01 -2.8848282083766676e+00 -2 9 3
1654 552 1 -8.1999999999999995e-01 -1.4091523358937877e+01 -7.9322775787788480e+00 -2.3398615718327651e+00 5 6 -2
318 106 2 4.0999999999999998e-01 -8.9005938302296137e+00 -1.2008872462084087e+01 -2.7973499053000754e+00 -2 9 3
1131 377 2 4.0999999999999998e-01 -1.2780196299533975e+01 -1.0696439024475605e+01 -1.1458717311100681e+00 -1 8 -3
1120 374 1 -8.1999999999999995e-01 -1.1993230609168268e+01 -1.2507794839561647e+01 -6.3951852239402722e+00 2 6 6
1557 519 2 4.0999999999999998e-01 -7.8066914545484130e+00 -9.9876232552147464e+00 -3.1163590513055688e+00 -1 0 3
1555 519 1 -8.1999999999999995e-01 -7.9338634307600602e+00 -1.0621542532048824e+01 -2.3534546549692710e+00 -1 0 3
1656 552 2 4.0999999999999998e-01 -1.3607350197194476e+01 -8.7241191320957832e+00 -1.9675542565150046e+00 5 6 -2
488 163 2 4.0999999999999998e-01 -8.4995437811223979e+00 -1.0832404103727043e+01 -6.8839055279260055e+00 -3 4 0
487 163 1 -8.1999999999999995e-01 -9.0674285491616828e+00 -1.1588676478486150e+01 -6.5589309842481374e+00 -3 4 0
489 163 2 4.0999999999999998e-01 -8.6191386316538701e+00 -1.2032657098406073e+01 -5.7830658063248155e+00 -3 4 0
134 45 2 4.0999999999999998e-01 -7.6701984144480662e+00 -5.2385987588520866e+00 -3.8556415569794726e+00 1 1 1
1122 374 2 4.0999999999999998e-01 -1.2446433676242151e+01 -1.2681146576178906e+01 -7.2696025247141005e+00 2 6 6
1539 513 2 4.0999999999999998e-01 -1.0795152356539582e+01 -5.5888345413451823e+00 -4.3734776771863793e-01 5 6 1
1509 503 2 4.0999999999999998e-01 -1.1808995902777191e+01 -1.4232488996475134e+01 -1.2668735800048410e+00 -2 1 5
1508 503 2 4.0999999999999998e-01 -1.0668188987731217e+01 -1.3087400797519127e+01 -1.4994480697658332e+00 -2 1 5
1537 513 1 -8.1999999999999995e-01 -9.8076195773795654e+00 -5.4452206026419478e+00 -3.7251317518594540e-01 5 6 1
1507 503 1 -8.1999999999999995e-01 -1.1070512546282156e+01 -1.3715782001695244e+01 -8.3362355714209002e-01 -2 1 5
809 270 2 4.0999999999999998e-01 -9.5282927698540831e+00 -5.0501933144216444e+00 -1.9857131777920305e+00 1 4 -2
810 270 2 4.0999999999999998e-01 -1.0082853007613879e+01 -5.1459800697063454e+00 -3.5186991792014481e+00 1 4 -2
1518 506 2 4.0999999999999998e-01 -8.9371935763023380e+00 -1.0489185294026313e+01 -4.6985560807021542e-02 -1 -2 3
545 182 2 4.0999999999999998e-01 -1.0670939260132208e+01 -8.3465391580145916e+00 -7.4797267646676300e+00 -1 1 -1
216 72 2 4.0999999999999998e-01 -6.4343906341803621e+00 -1.4836707122207573e+01 -6.7800344198291445e+00 2 1 -2
2061 687 2 4.0999999999999998e-01 -6.8935969016524652e+00 -1.4504254894217445e+01 -9.5113902288953156e-01 0 8 2
2211 737 2 4.0999999999999998e-01 -5.8087587827978240e+00 -9.2499441327984542e+00 -7.4053446538666634e-01 5 5 1
2060 687 2 4.0999999999999998e-01 -6.5282050309169595e+00 -1.4974267586198287e+01 -2.4717754155602840e+00 0 8 2
64 22 1 -8.1999999999999995e-01 -3.7067494737451323e+00 -1.2691121695652178e+01 -7.5112481701531584e+00 -2 -2 5
1170 390 2 4.0999999999999998e-01 -1.5592295515376424e+00 -1.1439710928829598e+01 -4.5038183945148482e+00 -11 2 1
462 154 2 4.0999999999999998e-01 -1.9176192292021526e+00 -1.1719831626375353e+01 -2.3923327360039437e-02 -2 -2 -1
1556 519 2 4.0999999999999998e-01 -7.3538456073424348e+00 -1.0342600420250495e+01 -1.5880658081523809e+00 -1 0 3
461 154 2 4.0999999999999998e-01 -8.4226982860828059e-01 -1.2484170202576509e+01 -9.8629983575167302e-01 -2 -2 -1
641 214 2 4.0999999999999998e-01 -8.0741786477430111e-01 -1.3128796590557288e+01 -6.1557638397276939e+00 -1 6 -1
890 297 2 4.0999999999999998e-01 -7.3775128626252320e+00 -9.3503065886185155e+00 -5.1750826030547028e+00 -5 0 2
889 297 1 -8.1999999999999995e-01 -7.4333798985151542e+00 -8.8502689159610632e+00 -4.3108542884904448e+00 -5 0 2
379 127 1 -8.1999999999999995e-01 -5.3250699021781500e+00 -1.0498882700415649e+01 -4.4406148919703927e+00 3 8 5
1629 543 2 4.0999999999999998e-01 -4.2039893730455198e+00 -1.4513621219663335e+01 -1.2413411756071309e+00 2 0 -1
2157 719 2 4.0999999999999998e-01 -4.1254088362881873e+00 -1.2055168859015277e+01 -2.4334098846020424e-01 -5 0 -3
1465 489 1 -8.1999999999999995e-01 -4.5911668033190889e+00 -6.4012429064519800e+00 -2.5077673527967193e-02 -5 7 -1
133 45 1 -8.1999999999999995e-01 -6.9467743568241040e+00 -5.9225375912414435e+00 -3.9501653465828372e+00 1 1 1
1301 434 2 4.0999999999999998e-01 -1.5157254404389953e-01 -7.6433589341382566e+00 -5.1317405867570738e+00 5 8 -2
2209 737 1 -8.1999999999999995e-01 -6.1172879730573637e+00 -1.0075661564179502e+01 -2.6825287402909481e-01 5 5 1
1860 620 2 4.0999999999999998e-01 -4.7390885882003424e+00 -1.3741594714714834e+01 -4.4654268527207908e+00 2 2 -2
780 260 2 4.0999999999999998e-01 -2.1031684807072271e+00 -5.0222141942737153e+00 -4.3200582226421851e+00 4 0 3
426 142 2 4.0999999999999998e-01 -2.8603455970815759e+00 -7.2547667730478604e+00 -3.5909686359061244e+00 2 9 -1
135 45 2 4.0999999999999998e-01 -6.6335312401535731e+00 -5.9473697364688860e+00 -4.8995396542318108e+00 1 1 1
1723 575 1 -8.1999999999999995e-01 -5.6017287030202496e+00 -7.2888329919909696e+00 -6.1055242703844872e+00 3 0 2
425 142 2 4.0999999999999998e-01 -3.9632102398850400e+00 -8.0931907270767347e+00 -2.7263917195929945e+00 2 9 -1
1859 620 2 4.0999999999999998e-01 -3.1804622150214215e+00 -1.3255979089551234e+01 -4.5056716135491897e+00 2 2 -2
66 22 2 4.0999999999999998e-01 -4.3004013698062451e+00 -1.3488108570192603e+01 -7.3997187653104177e+00 -2 -2 5
380 127 2 4.0999999999999998e-01 -5.7838518013861098e+00 -9.6808907000973363e+00 -4.0935447056071279e+00 3 8 5
1627 543 1 -8.1999999999999995e-01 -3.2817966497889142e+00 -1.4828591756055721e+01 -1.4658486670683502e+00 2 0 -1
1965 655 2 4.0999999999999998e-01 -4.2031113511660863e+00 -1.1042425435522285e+01 -7.4364439137524441e+00 -1 4 2
1284 428 2 4.0999999999999998e-01 -6.0849202100587370e+00 -7.3087331197687080e+00 -2.6367676619208975e+00 2 3 3
2574 858 2 4.0999999999999998e-01 -2.5194247948715525e+00 -9.9753873628702934e+00 -3.2258142176207230e+00 5 1 -3
1891 631 1 -8.1999999999999995e-01 -6.9505289566893680e-01 -1.4337477440007198e+01 -3.0360464005052812e-01 0 0 -3
554 185 2 4.0999999999999998e-01 -1.8106847974986273e-01 -1.0395912306642661e+01 -3.7344928448281500e-01 3 1 0
214 72 1 -8.1999999999999995e-01 -7.1899045300890210e+00 -1.4217813788790084e+01 -6.9950210690975396e+00 2 1 -2
779 260 2 4.0999999999999998e-01 -3.1239972093479942e+00 -5.6501973257100389e+00 -5.4292490273439320e+00 4 0 3
500 167 2 4.0999999999999998e-01 -6.5916846793595223e+00 -1.2069950766123315e+01 -4.5338105461479312e+00 0 7 -2
1964 655 2 4.0999999999999998e-01 -5.0048547759445086e+00 -1.0133815579787672e+01 -6.3417320895852018e+00 -1 4 2
1168 390 1 -8.1999999999999995e-01 -7.3563279661412828e-01 -1.1860077281714107e+01 -4.8846463847946318e+00 -11 2 1
2156 719 2 4.0999999999999998e-01 -5.0693132474392826e+00 -1.2746340755495758e+01 -1.3826759901003332e+00 -5 0 -3
1858 620 1 -8.1999999999999995e-01 -3.8487584249458813e+00 -1.3816210021395255e+01 -4.0162117712083152e+00 2 2 -2
2155 719 1 -8.1999999999999995e-01 -4.5506232731968463e+00 -1.1926719880730049e+01 -1.1393002333214728e+00 -5 0 -3
2492 831 2 4.0999999999999998e-01 -9.3812177846702305e-01 -6.7129653796667643e+00 -7.2303779645784916e+00 8 3 -9
1302 434 2 4.0999999999999998e-01 -1.1188128840478182e+00 -8.6789131347177104e+00 -4.3200560105161223e+00 5 8 -2
499 167 1 -8.1999999999999995e-01 -7.3925064574430914e+00 -1.2611221181741307e+01 -4.7902481849294265e+00 0 7 -2
1039 347 1 -8.1999999999999995e-01 -3.5798649263756914e+00 -5.3962173542452110e+00 -7.1175633547028143e+00 -1 4 1
1893 631 2 4.0999999999999998e-01 -1.6099822919688638e+00 -1.4695762655191420e+01 -4.8957597196194413e-01 0 0 -3
2210 737 2 4.0999999999999998e-01 -5.6145592769616943e+00 -1.0866664637296815e+01 -6.1700412188488230e-01 5 5 1
2573 858 2 4.0999999999999998e-01 -2.6907938539041485e+00 -1.1380142223673227e+01 -2.4109186513161163e+00 5 1 -3
1963 655 1 -8.1999999999999995e-01 -4.6581670312114234e+00 -1.0165929744360049e+01 -7.2791891525687342e+00 -1 4 2
1724 575 2 4.0999999999999998e-01 -4.9623183010473930e+00 -6.7733137855280514e+00 -6.6760010296170371e+00 3 0 2
215 72 2 4.0999999999999998e-01 -7.1365254053032618e+00 -1.3410090254671198e+01 -6.4078389631839947e+00 2 1 -2
1283 428 2 4.0999999999999998e-01 -5.0912388892637050e+00 -7.2262840005862579e+00 -1.3434935606454115e+00 2 3 3
381 127 2 4.0999999999999998e-01 -4.4356347183071154e+00 -1.0596963245449498e+01 -3.9941457191467382e+00 3 8 5
424 142 1 -8.1999999999999995e-01 -3.0399641048874440e+00 -8.1130225782216456e+00 -3.1101530418025831e+00 2 9 -1
1300 434 1 -8.1999999999999995e-01 -1.7593314601971954e-01 -8.3701160612211609e+00 -4.4452421864846894e+00 5 8 -2
2206 736 1 -8.1999999999999995e-01 -7.3456247080958068e+00 -9.5205248895378247e+00 -7.3036381063613165e+00 -1 2 -2
778 260 1 -8.1999999999999995e-01 -2.7021323654499643e+00 -5.7939072230287874e+00 -4.5340244789753079e+00 4 0 3
891 297 2 4.0999999999999998e-01 -7.2991530670956521e+00 -7.8740630090219774e+00 -4.4813082639613349e+00 -5 0 2
1282 428 1 -8.1999999999999995e-01 -5.4628682436904406e+00 -7.8278871434228172e+00 -2.0506107572483927e+00 2 3 3
2059 687 1 -8.1999999999999995e-01 -6.1877122910529323e+00 -1.4500654769907594e+01 -1.6594915736994604e+00 0 8 2
2572 858 1 -8.1999999999999995e-01 -2.7012884514352429e+00 -1.0954607822837069e+01 -3.3158273757449575e+00 5 1 -3
1725 575 2 4.0999999999999998e-01 -5.7915313882480959e+00 -8.1728343941374924e+00 -6.5328016005725811e+00 3 0 2
501 167 2 4.0999999999999998e-01 -7.3454736914046368e+00 -1.3506525580559105e+01 -4.3472274103216293e+00 0 7 -2
568 190 1 -8.1999999999999995e-01 -2.0083839808758626e+00 -6.3436432163423184e+00 -3.6828192470472665e-01 2 7 -2
569 190 2 4.0999999999999998e-01 -1.7347430556404397e+00 -6.6679177011728825e+00 -1.2738293453926453e+00 2 7 -2
460 154 1 -8.1999999999999995e-01 -1.3368615147804768e+00 -1.1628658838026954e+01 -8.3290878920699463e-01 -2 -2 -1
1628 543 2 4.0999999999999998e-01 -3.0797369367738643e+00 -1.4614116015667713e+01 -2.4214749089390821e+00 2 0 -1
1467 489 2 4.0999999999999998e-01 -3.6145491893651975e+00 -6.1978343987370934e+00 -9.5023882101603618e-02 -5 7 -1
640 214 1 -8.1999999999999995e-01 -8.0399614568737654e-01 -1.3588646746998359e+01 -7.0437815754551973e+00 -1 6 -1
642 214 2 4.0999999999999998e-01 -1.1584991124050692e+00 -1.4517874942741791e+01 -6.9393207885191686e+00 -1 6 -1
2269 757 1 -8.1999999999999995e-01 -1.0283908324407239e+01 -8.0623554368222159e+00 1.0594765240292183e+00 0 2 2
1487 496 2 4.0999999999999998e-01 -1.2374277164185909e+01 -1.2008751383219440e+01 5.1714305117773023e+00 2 3 -4
1486 496 1 -8.1999999999999995e-01 -1.2775980666284831e+01 -1.2087105859988071e+01 4.2589918381032028e+00 2 3 -4
1488 496 2 4.0999999999999998e-01 -1.2322124414092315e+01 -1.2823422202631235e+01 3.7570932374923593e+00 2 3 -4
344 115 2 4.0999999999999998e-01 -1.4604278134120444e+01 -9.5366078882489305e+00 4.7865624201130110e+00 -2 -1 -4
337 113 1 -8.1999999999999995e-01 -9.0914288750877219e+00 -1.3238264081917855e+01 2.3393797385673807e+00 -2 3 -2
339 113 2 4.0999999999999998e-01 -9.1015174755415416e+00 -1.2305858735196598e+01 1.9780378607115523e+00 -2 3 -2
338 113 2 4.0999999999999998e-01 -9.0024035233628581e+00 -1.3208954247361488e+01 3.3350026086787921e+00 -2 3 -2
721 241 1 -8.1999999999999995e-01 -1.1867858749702600e+01 -1.4247336322755244e+01 2.9089857239627008e+00 3 7 -5
1881 627 2 4.0999999999999998e-01 -1.3099742061075299e+01 -7.1238340048649773e+00 6.0966503552424491e+00 4 6 2
613 205 1 -8.1999999999999995e-01 -8.5617904894109209e+00 -8.9284896292033444e+00 4.6127552899906199e+00 4 -1 2
615 205 2 4.0999999999999998e-01 -9.5169840230605249e+00 -8.8633106728774038e+00 4.3239535359431649e+00 4 -1 2
825 275 2 4.0999999999999998e-01 -8.8858814794455299e+00 -1.2897875073822727e+01 5.4844808076125453e+00 -1 1 -1
2226 742 2 4.0999999999999998e-01 -1.1169752342471874e+01 -1.0574781015877612e+01 7.4620066299162957e-01 1 3 2
2569 857 1 -8.1999999999999995e-01 -1.1504669307484701e+01 -9.3880430250094911e+00 4.0233100013591816e+00 2 2 -8
2570 857 2 4.0999999999999998e-01 -1.1313738289145094e+01 -1.0309203418990901e+01 3.6841075089969451e+00 2 2 -8
2571 857 2 4.0999999999999998e-01 -1.2415262095389350e+01 -9.3669415469132531e+00 4.4361355877066266e+00 2 2 -8
722 241 2 4.0999999999999998e-01 -1.2514603512023402e+01 -1.4903042426389169e+01 2.5193446658035938e+00 3 7 -5
2225 742 2 4.0999999999999998e-01 -1.1909707280839932e+01 -1.1943501279039893e+01 2.5038829375205651e-01 1 3 2
2152 718 1 -8.1999999999999995e-01 -1.4517731206115455e+01 -7.8042188477910415e+00 2.1102737179729587e+00 3 7 0
343 115 1 -8.1999999999999995e-01 -1.4108172417829369e+01 -9.1074335382263314e+00 5.5413722995597787e+00 -2 -1 -4
723 241 2 4.0999999999999998e-01 -1.1106368423822445e+01 -1.4113213547020745e+01 2.2747988362095377e+00 3 7 -5
614 205 2 4.0999999999999998e-01 -8.0149953366717703e+00 -9.3166169146493409e+00 3.8708511732763782e+00 4 -1 2
1880 627 2 4.0999999999999998e-01 -1.1560432072106360e+01 -6.9888953260872384e+00 6.6249255551409121e+00 4 6 2
2153 718 2 4.0999999999999998e-01 -1.3955281569860729e+01 -7.0313554224100958e+00 2.4041818430638209e+00 3 7 0
1080 360 2 4.0999999999999998e-01 -1.4449188716591999e+01 -1.2738132855585196e+01 4.0141698263707717e+00 4 1 -2
2224 742 1 -8.1999999999999995e-01 -1.2037383008236628e+01 -1.0971120617120061e+01 4.4589843746300772e-01 1 3 2
1879 627 1 -8.1999999999999995e-01 -1.2365243899774363e+01 -6.4817701686452054e+00 6.3164592241668593e+00 4 6 2
1000 334 1 -8.1999999999999995e-01 -1.4908122324732755e+01 -9.8993904556034451e+00 4.0395906518099878e-01 0 3 -4
1516 506 1 -8.1999999999999995e-01 -9.2342094582489800e+00 -1.0741183952603063e+01 8.7406149508611186e-01 -1 -2 3
1408 470 1 -8.1999999999999995e-01 -1.0371424457182005e+01 -8.4519964038118260e+00 6.6336050556558739e+00 0 0 2
1742 581 2 4.0999999999999998e-01 -1.2570797858976372e+01 -6.8467793952199276e+00 3.9342799051981849e+00 1 1 -3
1741 581 1 -8.1999999999999995e-01 -1.2614931929629122e+01 -6.1783105561142513e+00 3.1918170746535175e+00 1 1 -3
1743 581 2 4.0999999999999998e-01 -1.1687952626616141e+01 -5.9431855190776925e+00 2.8994558748516894e+00 1 1 -3