LAMMPS data file via write_data, version 15 May 2015, timestep = 1009000

2593 atoms
6 atom types
1728 bonds
4 bond types
864 angles
3 angle types
0 dihedrals
3 dihedral types
0 impropers
1 improper types

-1.5153438656550701e+01 1.5153438656550701e+01 xlo xhi
-1.5153438656550701e+01 1.5153438656550701e+01 ylo yhi
-1.5153438656550701e+01 1.5153438656550701e+01 zlo zhi

Masses

1 15.9994
2 1.00794
3 12.0107
4 1.00794
5 12.0107
6 12.0107

Bond Coeffs # harmonic

1 1000 1
2 469 1.4
3 367 1.08
4 469 0.7

Angle Coeffs # harmonic

1 100 109.47
2 35 120
3 63 120

Dihedral Coeffs # opls

1 0 7.25 0 0
2 0 7.25 0 0
3 0 7.25 0 0

Improper Coeffs # cvff

1 2.5 -1 2

Atoms # full

1190 397 2 4.0999999999999998e-01 -9.2266536283072771e+00 -1.0585403954549074e+01 -1.0450518714941376e+01 0 3 1
1189 397 1 -8.1999999999999995e-01 -8.3810067083557485e+00 -1.0052475975975366e+01 -1.0422487946106298e+01 0 3 1
1191 397 2 4.0999999999999998e-01 -7.6099587001141238e+00 -1.0637348833992771e+01 -1.0674133286396765e+01 0 3 1
9 3 2 4.0999999999999998e-01 -6.0163751863179300e+00 -9.2590498244317345e+00 -1.2513890870553000e+01 -1 0 1
7 3 1 -8.1999999999999995e-01 -5.9854202443924542e+00 -9.0649181386510058e+00 -1.3494335330525962e+01 -1 0 1
656 219 2 4.0999999999999998e-01 -1.4379738094949069e+01 -1.2970827495130679e+01 -1.2937960909662291e+01 -1 1 2
156 52 2 4.0999999999999998e-01 -5.4646836584327634e+00 -5.4959573382332785e+00 -1.0370028417998391e+01 -2 2 2
2237 746 2 4.0999999999999998e-01 -1.0612037413906076e+01 -7.8067335648035323e+00 -1.2010955294997029e+01 -2 -1 2
1353 451 2 4.0999999999999998e-01 -8.7379032279911080e+00 -1.3171311436893950e+01 -1.3246917155066726e+01 1 1 0
2060 687 2 4.0999999999999998e-01 -9.4240429276992508e+00 -9.0109761920687603e-01 -1.1078130360229926e+01 0 2 1
956 319 2 4.0999999999999998e-01 -1.0850663821362923e+01 -1.1447341151169780e+01 -8.8106085144868551e+00 0 1 -1
2148 716 2 4.0999999999999998e-01 -1.0218578311938384e+01 -1.1927214976900416e+01 -1.1717745919701175e+01 3 1 0
2146 716 1 -8.1999999999999995e-01 -1.0546455307403871e+01 -1.1555586433925651e+01 -1.0849238255981732e+01 3 1 0
2349 783 2 4.0999999999999998e-01 -1.4385428509335309e+01 -2.5615680047538820e+00 -1.5011907869195900e+01 1 3 2
1675 559 1 -8.1999999999999995e-01 -1.2547297458642724e+01 -7.4324740457570027e+00 -1.1490332680759257e+01 0 3 0
1676 559 2 4.0999999999999998e-01 -1.2852115410936493e+01 -8.0725536470884940e+00 -1.0785137120434207e+01 0 3 0
2147 716 2 4.0999999999999998e-01 -1.1399162112596095e+01 -1.2010566910680453e+01 -1.0592722110682068e+01 3 1 0
405 135 2 4.0999999999999998e-01 -1.4062365820114048e+01 -4.5066059860521257e-01 -1.3980475060623871e+01 2 0 0
1351 451 1 -8.1999999999999995e-01 -9.4884740751325918e+00 -1.2528004712902751e+01 -1.3397637156932889e+01 1 1 0
696 232 2 4.0999999999999998e-01 -7.9615609190504726e+00 -2.8754229449547495e+00 -1.3733758197113975e+01 0 2 2
811 271 1 -8.1999999999999995e-01 -6.2314358487285340e+00 -1.1515231089771055e+01 -1.0528953295502955e+01 -1 2 1
1536 512 2 4.0999999999999998e-01 -6.5726443042798461e+00 -1.4525020870502871e+01 -1.1892953892953654e+01 -1 1 1
2227 743 1 -8.1999999999999995e-01 -1.4919087036390806e+01 -1.3669905742903927e+01 -7.6308219225992824e+00 -1 -1 -1
1352 451 2 4.0999999999999998e-01 -9.1248942975741372e+00 -1.1671554756957033e+01 -1.3763997467342209e+01 1 1 0
2236 746 1 -8.1999999999999995e-01 -9.6282169051942716e+00 -7.6364583990890855e+00 -1.2065911903310761e+01 -2 -1 2
2238 746 2 4.0999999999999998e-01 -9.1317066297619167e+00 -8.4719945608893319e+00 -1.1830808689564941e+01 -2 -1 2
1534 512 1 -8.1999999999999995e-01 -5.8219369567060237e+00 -1.4440255012254985e+01 -1.1237843293275006e+01 -1 1 1
1437 479 2 4.0999999999999998e-01 -5.2673115319726893e+00 -3.1174058278748191e+00 -1.1353417878244326e+01 -2 1 1
2065 689 1 -8.1999999999999995e-01 -7.4457476272380854e+00 -1.4797216048815311e+01 -1.3387316184830025e+01 0 1 1
252 84 2 4.0999999999999998e-01 -7.6024855011169921e+00 -1.0002560302963055e+01 -1.4320268732310202e+01 -3 0 0
144 48 2 4.0999999999999998e-01 -1.0641114916775035e+01 -1.4672155745918145e+01 -1.0409577795929255e+01 -2 1 1
1677 559 2 4.0999999999999998e-01 -1.3273776232490178e+01 -7.3109056326873851e+00 -1.2166621355008083e+01 0 3 0
2393 798 2 4.0999999999999998e-01 -8.4706675991621445e+00 -5.6934148433157841e+00 -1.4334337947555897e+01 2 4 0
2291 764 2 4.0999999999999998e-01 -1.4178124527488411e+01 -7.0496335911059660e+00 -1.4593248381818189e+01 -1 1 1
1966 656 1 -8.1999999999999995e-01 -1.2660343898296436e+01 -1.2930680589438845e+01 -9.7347650318428975e+00 0 0 2
2390 797 2 4.0999999999999998e-01 -1.1201105876307578e+01 -6.1809707595991821e+00 -1.1068222229305853e+01 0 1 1
1535 512 2 4.0999999999999998e-01 -5.9160126300355671e+00 -1.3582671865960751e+01 -1.0732256928246834e+01 -1 1 1
1392 464 2 4.0999999999999998e-01 -1.4021598069982543e+01 -2.7492955212439245e+00 -9.8064796440996922e+00 0 1 0
1967 656 2 4.0999999999999998e-01 -1.3487559292784187e+01 -1.2588879064010261e+01 -9.2888916687767349e+00 0 0 2
1968 656 2 4.0999999999999998e-01 -1.2347809208916081e+01 -1.3758043119753399e+01 -9.2681710457156044e+00 0 0 2
250 84 1 -8.1999999999999995e-01 -8.5870173403637349e+00 -1.0042350897874769e+01 -1.4490651928878380e+01 -3 0 0
1856 619 2 4.0999999999999998e-01 -1.1454466297480021e+01 -7.4298852754547129e+00 -7.9803477658640416e+00 1 1 1
1041 347 2 4.0999999999999998e-01 -7.6601183860165580e+00 -8.3810501075792239e+00 -9.5032571995365860e+00 -2 1 2
1039 347 1 -8.1999999999999995e-01 -7.3388056266752528e+00 -7.5853112868999881e+00 -8.9899595283236469e+00 -2 1 2
251 84 2 4.0999999999999998e-01 -8.9681920237481627e+00 -9.1184024293454886e+00 -1.4459964058085848e+01 -3 0 0
2292 764 2 4.0999999999999998e-01 -1.2583368482205456e+01 -6.7236696911119367e+00 -1.4463229527894795e+01 -1 1 1
1314 438 2 4.0999999999999998e-01 -1.1236519398645743e+01 -1.2381603352419216e+01 -1.4327269930630569e+01 1 0 1
1992 664 2 4.0999999999999998e-01 -7.4373382835278017e+00 -1.2682821876549010e+01 -7.7909753473530827e+00 -1 -1 1
785 262 2 4.0999999999999998e-01 -5.1726665504869196e+00 -5.6042406131627853e+00 -1.4106579838595630e+01 -1 1 0
1725 575 2 4.0999999999999998e-01 -1.4406639256309107e+01 -9.1537942845629505e+00 -9.1767083614368694e+00 0 -2 2
657 219 2 4.0999999999999998e-01 -1.3374734440702341e+01 -1.1886974177703243e+01 -1.3631959386929065e+01 -1 1 2
1724 575 2 4.0999999999999998e-01 -1.4946084448982761e+01 -9.0639283041013616e+00 -1.0715320460975814e+01 0 -2 2
812 271 2 4.0999999999999998e-01 -5.5800168098456524e+00 -1.0763231543701643e+01 -1.0428620960667971e+01 -1 2 1
1312 438 1 -8.1999999999999995e-01 -1.2138561372019275e+01 -1.2074742044241956e+01 -1.4630705381798897e+01 1 0 1
1990 664 1 -8.1999999999999995e-01 -6.5874223433944827e+00 -1.2938693645342152e+01 -8.2515067795536616e+00 -1 -1 1
1723 575 1 -8.1999999999999995e-01 -1.4528585850808135e+01 -8.5510908065843054e+00 -9.9652476215994614e+00 0 -2 2
1149 383 2 4.0999999999999998e-01 -7.2348201653978093e+00 -2.4488431335862550e+00 -8.4624743013591814e+00 -2 0 1
550 184 1 -8.1999999999999995e-01 -1.3368317273225843e+01 -6.0122049695667812e-02 -1.2422789119863427e+01 -3 2 3
8 3 2 4.0999999999999998e-01 -5.7522048167813757e+00 -8.1029751176363245e+00 -1.3636436873613594e+01 -1 0 1
154 52 1 -8.1999999999999995e-01 -5.1545536639951717e+00 -6.4061547400650181e+00 -1.0095662352363766e+01 -2 2 2
2348 783 2 4.0999999999999998e-01 -1.3490216736580010e+01 -3.8223760575343224e+00 -1.4487157283352285e+01 1 3 2
693 231 2 4.0999999999999998e-01 -1.0396192854648856e+01 -5.5463479889960059e+00 -9.5500696567920009e+00 -2 1 0
957 319 2 4.0999999999999998e-01 -1.1310277621908471e+01 -1.0248107504009688e+01 -7.8021453082998287e+00 0 1 -1
1674 558 2 4.0999999999999998e-01 -1.3497223125747713e+01 -5.4029707500172979e+00 -1.2930652112206346e+01 0 0 3
2290 764 1 -8.1999999999999995e-01 -1.3444480924313275e+01 -6.8011576083745879e+00 -1.3960837595066785e+01 -1 1 1
454 152 1 -8.1999999999999995e-01 -1.4041825117761233e+01 -2.7294650441289825e-01 -7.7424918467171659e+00 -1 1 0
2035 679 1 -8.1999999999999995e-01 -1.0387081309593192e+01 -2.3746948078214274e+00 -1.1008039733182365e+01 1 1 0
1951 651 1 -8.1999999999999995e-01 -1.4302670399034932e+01 -1.0375723391833699e+01 -7.8344035156428209e+00 -1 2 0
655 219 1 -8.1999999999999995e-01 -1.4287372687277516e+01 -1.2024341545511602e+01 -1.3247071959045808e+01 -1 1 2
639 213 2 4.0999999999999998e-01 -7.7703645719020438e+00 -6.2849356825264735e-01 -1.4908607300085848e+01 -3 3 1
2394 798 2 4.0999999999999998e-01 -9.3226846467448450e+00 -6.8810642676990685e+00 -1.3606354410055062e+01 2 4 0
2059 687 1 -8.1999999999999995e-01 -8.9694998976697029e+00 -3.1478405388927655e-02 -1.1270665350367787e+01 0 2 1
692 231 2 4.0999999999999998e-01 -9.4196370577255841e+00 -6.2246930797448154e+00 -8.4308775615649250e+00 -2 1 0
1148 383 2 4.0999999999999998e-01 -8.6475099080618421e+00 -2.3750505497815215e+00 -9.2781130484569658e+00 -2 0 1
1436 479 2 4.0999999999999998e-01 -5.4372143990196307e+00 -3.6552106991693147e+00 -9.8210004442957146e+00 -2 1 1
813 271 2 4.0999999999999998e-01 -6.3435830254250050e+00 -1.1978561338837896e+01 -9.6499397762153798e+00 -1 2 1
686 229 2 4.0999999999999998e-01 -7.1006226782583433e+00 -5.1700021284261464e+00 -1.3350056687499007e+01 0 0 -1
551 184 2 4.0999999999999998e-01 -1.3298501300672969e+01 -6.9930418982580811e-01 -1.1656963698978602e+01 -3 2 3
847 283 1 -8.1999999999999995e-01 -5.3665265257989407e+00 -3.2754920982668647e+00 -8.1984576863980383e+00 -1 0 1
403 135 1 -8.1999999999999995e-01 -1.4523555634683312e+01 -9.0440618584861809e-01 -1.4742928704525950e+01 2 0 0
456 152 2 4.0999999999999998e-01 -1.3943577305563721e+01 -1.2670111768820149e+00 -7.6966722196958992e+00 -1 1 0
2036 679 2 4.0999999999999998e-01 -1.1317649910998414e+01 -2.0631367403446923e+00 -1.0815971241454362e+01 1 1 0
2389 797 1 -8.1999999999999995e-01 -1.0724171396329012e+01 -5.3168782164281954e+00 -1.1228828101161954e+01 0 1 1
1313 438 2 4.0999999999999998e-01 -1.2051100499802542e+01 -1.1196680499322682e+01 -1.5101104352214556e+01 1 0 1
784 262 1 -8.1999999999999995e-01 -5.9109013805583253e+00 -6.2712426950099474e+00 -1.4206750790052865e+01 -1 1 0
1391 464 2 4.0999999999999998e-01 -1.3703517932392886e+01 -2.7992149076078707e+00 -1.1407334819339951e+01 0 1 0
1390 464 1 -8.1999999999999995e-01 -1.3421675308415848e+01 -2.4093879794955253e+00 -1.0530684176334963e+01 0 1 0
1147 383 1 -8.1999999999999995e-01 -8.1413128423328480e+00 -2.0275457290201739e+00 -8.4888592378700594e+00 -2 0 1
2392 798 1 -8.1999999999999995e-01 -9.0884282348431036e+00 -6.4651545816868303e+00 -1.4485023707209686e+01 2 4 0
2229 743 2 4.0999999999999998e-01 -1.4846317859944488e+01 -1.4571853618549968e+01 -8.0563937334187443e+00 -1 -1 -1
2391 797 2 4.0999999999999998e-01 -9.7678132327525091e+00 -5.5011473155936219e+00 -1.1455412789390667e+01 0 1 1
694 232 1 -8.1999999999999995e-01 -7.9608527151468831e+00 -2.3970190994570064e+00 -1.4611850406418915e+01 0 2 2
2067 689 2 4.0999999999999998e-01 -6.8743071052057001e+00 -1.5066202225368286e+01 -1.4162570220338933e+01 0 1 1
691 231 1 -8.1999999999999995e-01 -1.0340358201489611e+01 -5.8771377907771090e+00 -8.6080626306658559e+00 -2 1 0
1435 479 1 -8.1999999999999995e-01 -5.7420765263928555e+00 -3.7727937506017781e+00 -1.0766066575485430e+01 -2 1 1
687 229 2 4.0999999999999998e-01 -6.9936676780847726e+00 -4.1189024139694617e+00 -1.2105004776138570e+01 0 0 -1
1673 558 2 4.0999999999999998e-01 -1.2266015059187108e+01 -4.5999118259528018e+00 -1.2219577370351749e+01 0 0 3
1672 558 1 -8.1999999999999995e-01 -1.3136619170946570e+01 -4.4990078712709121e+00 -1.2701016383425408e+01 0 0 3
1040 347 2 4.0999999999999998e-01 -6.5832598860123639e+00 -7.1537126290461277e+00 -9.4826966797382521e+00 -2 1 2
685 229 1 -8.1999999999999995e-01 -7.6030288318308594e+00 -4.5050871721111285e+00 -1.2797433102869110e+01 0 0 -1
2037 679 2 4.0999999999999998e-01 -1.0362718596924973e+01 -3.3743468479718821e+00 -1.1003690383552144e+01 1 1 0
455 152 2 4.0999999999999998e-01 -1.4582234364872566e+01 -2.8185473049749277e-02 -8.5474555347619443e+00 -1 1 0
955 319 1 -8.1999999999999995e-01 -1.0689815452152807e+01 -1.1023486770367960e+01 -7.9193218527022040e+00 0 1 -1
462 154 2 4.0999999999999998e-01 -1.1599441415893796e+01 -5.1155634311775469e+00 -7.6006219147319323e+00 0 -3 1
62 21 2 4.0999999999999998e-01 -5.3270727326100697e+00 -9.5347153236175153e-01 -1.2106700626770850e+01 0 0 2
2519 840 2 4.0999999999999998e-01 -1.4864001605839677e+01 -1.5043026133919685e+01 -1.4770202908207791e+01 1 0 0
1973 658 2 4.0999999999999998e-01 -1.1483485504138606e+01 -8.2402765806401241e+00 -4.4334783026622553e+00 1 2 1
1984 662 1 -8.1999999999999995e-01 -9.1537185953316715e+00 -1.3500014752942086e+01 -1.5713609550466252e+00 -1 -1 3
1857 619 2 4.0999999999999998e-01 -1.2827227877811740e+01 -8.0219887286954261e+00 -7.3235803912205464e+00 1 1 1
220 74 1 -8.1999999999999995e-01 -1.1770663976500041e+01 -1.2837640384849669e+01 -3.7789614123423831e+00 1 1 -1
221 74 2 4.0999999999999998e-01 -1.0982065550133356e+01 -1.2293213709560071e+01 -3.4932538985296180e+00 1 1 -1
1986 662 2 4.0999999999999998e-01 -9.6093156050090567e+00 -1.4108280576420928e+01 -9.2146810737045293e-01 -1 -1 3
1985 662 2 4.0999999999999998e-01 -8.8203833768347550e+00 -1.2688706256848713e+01 -1.0911705731622110e+00 -1 -1 3
222 74 2 4.0999999999999998e-01 -1.1744622604664443e+01 -1.3727018399474172e+01 -3.3226224313327819e+00 1 1 -1
1003 335 1 -8.1999999999999995e-01 -1.2464372094320719e+01 -1.0558301226472903e+01 -5.5815876776406181e+00 1 1 0
1004 335 2 4.0999999999999998e-01 -1.2034250540258874e+01 -1.1301730182333683e+01 -5.0695081050700104e+00 1 1 0
1972 658 1 -8.1999999999999995e-01 -1.2088915480159729e+01 -8.0619502903805653e+00 -3.6578682595682324e+00 1 2 1
1974 658 2 4.0999999999999998e-01 -1.1715581966227814e+01 -7.3143756575741357e+00 -3.1086224785044045e+00 1 2 1
1443 481 2 4.0999999999999998e-01 -1.0330999392482818e+01 -8.5860760168887662e+00 -6.2487309395256148e+00 -2 1 2
1257 419 2 4.0999999999999998e-01 -6.6951329775113795e+00 -8.3631753400095761e+00 -3.0750450693946529e+00 0 0 1
1441 481 1 -8.1999999999999995e-01 -9.7465663725498217e+00 -8.6924271193426890e+00 -5.4443403920774340e+00 -2 1 2
764 255 2 4.0999999999999998e-01 -1.4157356211721245e+01 -6.7199327414762919e+00 -1.0017201774733113e+00 0 0 1
1442 481 2 4.0999999999999998e-01 -8.9235627054465763e+00 -8.1352088465161430e+00 -5.5542923092392975e+00 -2 1 2
1765 589 1 -8.1999999999999995e-01 -7.2198836526233503e+00 -7.6241471697806000e+00 -6.0487225615454090e+00 -1 1 1
1891 631 1 -8.1999999999999995e-01 -6.8244063919906086e+00 -1.0377566665189462e+01 -5.7056503415548843e+00 -1 1 0
1892 631 2 4.0999999999999998e-01 -7.0085082153344516e+00 -1.0341024124757741e+01 -4.7234651148564879e+00 -1 1 0
1681 561 1 -8.1999999999999995e-01 -8.5604952404061869e+00 -1.4502542413184344e+01 -4.3208289220695324e+00 1 0 -1
1005 335 2 4.0999999999999998e-01 -1.2388171976348463e+01 -9.7076538216597577e+00 -5.0614827002301439e+00 1 1 0
340 114 1 -8.1999999999999995e-01 -1.2463430513633435e+01 -9.7084526893586620e-01 -2.8418820825561166e+00 -1 2 0
628 210 1 -8.1999999999999995e-01 -1.2282940385718794e+01 -1.3445153026945574e+01 -6.3925467149443769e+00 -1 2 0
2032 678 1 -8.1999999999999995e-01 -7.0301733138468467e+00 -1.0098723341502033e+01 -2.7969461312834483e+00 0 -1 1
2588 863 2 4.0999999999999998e-01 -9.9323949595154915e+00 -1.0625479789353538e+01 -2.5066421399219561e+00 2 1 2
2034 678 2 4.0999999999999998e-01 -6.3140219720050830e+00 -1.0551733313758605e+01 -2.2660733747647797e+00 0 -1 1
630 210 2 4.0999999999999998e-01 -1.2355696944043268e+01 -1.3242091557815929e+01 -5.4161302122046902e+00 -1 2 0
2033 678 2 4.0999999999999998e-01 -7.9030010875649088e+00 -1.0561470778525074e+01 -2.6421781223119751e+00 0 -1 1
147 49 2 4.0999999999999998e-01 -9.0913997189922284e+00 -1.2747631898784606e+01 -5.7722385510354481e+00 0 1 -2
2589 863 2 4.0999999999999998e-01 -9.7273912562068787e+00 -1.0147970650314313e+01 -4.0546611131112460e+00 2 1 2
2587 863 1 -8.1999999999999995e-01 -9.6449570564291776e+00 -1.0915759513645103e+01 -3.4193489920477198e+00 2 1 2
1893 631 2 4.0999999999999998e-01 -7.3625820722505972e+00 -1.1112291854037901e+01 -6.1185213908939531e+00 -1 1 0
1170 390 2 4.0999999999999998e-01 -7.1299200698797982e+00 -1.1149129220384459e+01 -1.5748303224709126e-01 -4 1 0
2425 809 1 -8.1999999999999995e-01 -1.0035799710171805e+01 -8.9315599920758260e-01 -6.5930079332362936e+00 -1 2 2
1256 419 2 4.0999999999999998e-01 -7.0074269555702546e+00 -7.2423627321923645e+00 -4.2207569886030640e+00 0 0 1
1683 561 2 4.0999999999999998e-01 -8.9542835476846818e+00 -1.3948514084776075e+01 -3.5874122386441893e+00 1 0 -1
1767 589 2 4.0999999999999998e-01 -6.9802980046060288e+00 -8.5887211684568285e+00 -5.9386662382694144e+00 -1 1 1
1319 440 2 4.0999999999999998e-01 -7.3705982478886778e+00 -7.9786107225597105e+00 -4.7509587518277918e-01 -1 -1 1
2280 760 2 4.0999999999999998e-01 -1.0227411152238446e+01 -8.9172610397018239e+00 -7.9005962566666454e-01 -1 0 0
1766 589 2 4.0999999999999998e-01 -7.1840456149274727e+00 -7.3802929589136168e+00 -7.0178290698109151e+00 -1 1 1
661 221 1 -8.1999999999999995e-01 -9.8307502844326713e+00 -1.9658266081591993e+00 -2.3873946881238783e+00 0 1 2
1051 351 1 -8.1999999999999995e-01 -1.2403905847889975e+01 -2.5361205306017798e+00 -5.9662771322548185e+00 0 -1 0
1953 651 2 4.0999999999999998e-01 -1.3682485681162285e+01 -1.0434026476244640e+01 -7.0521706071014059e+00 -1 2 0
2278 760 1 -8.1999999999999995e-01 -1.0272480132179421e+01 -9.9084434270443769e+00 -9.1432911937202199e-01 -1 0 0
2568 856 2 4.0999999999999998e-01 -7.4452512411771448e+00 -4.3078883701249335e+00 -1.1196242448052285e+00 -1 3 -1
2228 743 2 4.0999999999999998e-01 -1.4245657261748908e+01 -1.3592939206212707e+01 -6.8956449754921643e+00 -1 -1 -1
1179 393 2 4.0999999999999998e-01 -6.7707458702136218e+00 -1.5132338711573334e+01 -3.8418435066388454e+00 2 1 -1
780 260 2 4.0999999999999998e-01 -1.1697682517356654e+01 -1.0898175668513865e+01 -2.9096646769343870e-01 0 0 2
1255 419 1 -8.1999999999999995e-01 -6.6936584029895112e+00 -7.3848809748128614e+00 -3.2820586725197298e+00 0 0 1
2279 760 2 4.0999999999999998e-01 -9.5933762445027035e+00 -1.0349160669610956e+01 -3.2738543351397098e-01 -1 0 0
629 210 2 4.0999999999999998e-01 -1.1579640393757847e+01 -1.2864285767929891e+01 -6.8022771169863212e+00 -1 2 0
460 154 1 -8.1999999999999995e-01 -1.2485419602314991e+01 -4.8201161902598777e+00 -7.2433121761919308e+00 0 -3 1
1647 549 2 4.0999999999999998e-01 -1.4158565637053737e+01 -1.9040152669962023e+00 -5.1981793515752930e+00 1 1 1
2566 856 1 -8.1999999999999995e-01 -8.0803107075934975e+00 -4.9813979116135449e+00 -7.4146943480402072e-01 -1 3 -1
884 295 2 4.0999999999999998e-01 -1.4783735549127019e+01 -8.1208923451559993e+00 -4.3713048343494290e+00 0 0 1
883 295 1 -8.1999999999999995e-01 -1.5114356163906351e+01 -7.1805840770315870e+00 -4.4514733459851108e+00 0 0 1
885 295 2 4.0999999999999998e-01 -1.4378791118948838e+01 -6.5470638675675623e+00 -4.2116549708471300e+00 0 0 1
461 154 2 4.0999999999999998e-01 -1.3195928771113589e+01 -5.4544481225364407e+00 -7.5478058222243849e+00 0 -3 1
660 220 2 4.0999999999999998e-01 -1.3537414953717478e+01 -3.8134581794043605e+00 -2.3508246815572011e+00 -1 1 -1
2427 809 2 4.0999999999999998e-01 -9.5017486304992609e+00 -1.3048198575640235e+00 -7.3314109242563559e+00 -1 2 2
2092 698 1 -8.1999999999999995e-01 -1.4711536465426658e+01 -6.6320789649002982e+00 -7.3610685659193269e+00 2 3 2
1052 351 2 4.0999999999999998e-01 -1.2415989929572058e+01 -3.3251626336954097e+00 -6.5804295689545818e+00 0 -1 0
145 49 1 -8.1999999999999995e-01 -8.6763252622674845e+00 -1.2209736277083554e+01 -6.5059265972511326e+00 0 1 -2
1043 348 2 4.0999999999999998e-01 -1.4048521120151655e+01 -1.4435669162777359e+01 -2.5352374215293061e-01 0 0 -1
763 255 1 -8.1999999999999995e-01 -1.4416347990839837e+01 -6.6118393310237913e+00 -4.1951609493965591e-02 0 0 1
1646 549 2 4.0999999999999998e-01 -1.5077914795283917e+01 -6.5805146118852775e-01 -4.6797436673521133e+00 1 1 1
1855 619 1 -8.1999999999999995e-01 -1.1834178672169728e+01 -8.1281478394080633e+00 -7.3735821166070652e+00 1 1 1
2567 856 2 4.0999999999999998e-01 -8.6690560947151791e+00 -5.3304342210677849e+00 -1.4704887632472285e+00 -1 3 -1
2015 672 2 4.0999999999999998e-01 -8.7510955698355133e+00 -1.1956788518465338e+00 -5.2139139111136465e+00 0 0 1
1016 339 2 4.0999999999999998e-01 -7.7380370343652096e+00 -3.6054761697155371e+00 -6.1331935075041777e+00 -1 0 3
2426 809 2 4.0999999999999998e-01 -1.0521867031349824e+01 -9.1242413827188784e-02 -6.9402683865580155e+00 -1 2 2
1645 549 1 -8.1999999999999995e-01 -1.4803927654521049e+01 -1.6021309353367066e+00 -4.4965452751880033e+00 1 1 1
662 221 2 4.0999999999999998e-01 -1.0652524626826169e+01 -1.6213313944030272e+00 -2.8411860935035698e+00 0 1 2
2016 672 2 4.0999999999999998e-01 -8.8630098864007465e+00 -1.9238036525385684e+00 -3.7566172025204079e+00 0 0 1
658 220 1 -8.1999999999999995e-01 -1.3614325396037763e+01 -3.0469663216808911e+00 -1.7132577048788491e+00 -1 1 -1
2014 672 1 -8.1999999999999995e-01 -8.2391979637853687e+00 -1.6636061172336678e+00 -4.4935517930484217e+00 0 0 1
114 38 2 4.0999999999999998e-01 -5.2186338154447398e+00 -1.0308601010007663e+01 -6.2552752326153787e+00 -1 2 2
2044 682 1 -8.1999999999999995e-01 -5.1114408323659486e+00 -2.0397514664720759e+00 -4.7178314693440750e+00 0 -2 0
2243 748 2 4.0999999999999998e-01 -1.0796762417822302e+01 -5.8464008086408619e+00 -1.4143038783378330e+00 -1 0 0
1017 339 2 4.0999999999999998e-01 -7.1929517633370406e+00 -4.9078165964841265e+00 -6.9536785189342876e+00 -1 0 3
341 114 2 4.0999999999999998e-01 -1.3114200865871990e+01 -8.5435078555217636e-01 -3.5921111379673807e+00 -1 2 0
516 172 2 4.0999999999999998e-01 -8.3888298939945738e+00 -4.9555459979259489e+00 -4.3228773543706183e+00 -1 1 1
1015 339 1 -8.1999999999999995e-01 -7.7983107361054209e+00 -4.5998541639518375e+00 -6.2197736930378031e+00 -1 0 3
1999 667 1 -8.1999999999999995e-01 -1.3187423960183924e+01 -5.0581309226710207e+00 -3.5467174754516027e+00 1 0 -1
2046 682 2 4.0999999999999998e-01 -6.0939224644534775e+00 -2.2183983903440403e+00 -4.6655651718514193e+00 0 -2 0
668 223 2 4.0999999999999998e-01 -6.3088689617701199e+00 -2.1557648745251949e+00 -1.6551578266754028e+00 -1 0 -2
667 223 1 -8.1999999999999995e-01 -6.5664508763954395e+00 -3.1049859604878964e+00 -1.8355671916843672e+00 -1 0 -2
2244 748 2 4.0999999999999998e-01 -1.0160753940930928e+01 -5.7525935383671740e+00 -2.9153360627512974e+00 -1 0 0
2242 748 1 -8.1999999999999995e-01 -1.0992287882882238e+01 -5.9354657498270544e+00 -2.3909071074092569e+00 -1 0 0
514 172 1 -8.1999999999999995e-01 -8.5786738289257869e+00 -5.3823811802299097e+00 -3.4387463241791565e+00 -1 1 1
2001 667 2 4.0999999999999998e-01 -1.2400854420175788e+01 -5.2515116775907540e+00 -2.9603482100290304e+00 1 0 -1
342 114 2 4.0999999999999998e-01 -1.2761791862662694e+01 -1.7241041004694715e+00 -2.2557948202504985e+00 -1 2 0
2000 667 2 4.0999999999999998e-01 -1.2867489484499014e+01 -4.7685448536407158e+00 -4.4487698564486724e+00 1 0 -1
669 223 2 4.0999999999999998e-01 -7.3427270884545619e+00 -3.1257138935137103e+00 -2.4655531021896451e+00 -1 0 -2
663 221 2 4.0999999999999998e-01 -1.0084629198391079e+01 -2.6806157423834520e+00 -1.7358283847877942e+00 0 1 2
515 172 2 4.0999999999999998e-01 -7.8885119615806660e+00 -6.0811849394937632e+00 -3.2509523659805595e+00 -1 1 1
1053 351 2 4.0999999999999998e-01 -1.1711007006528627e+01 -1.8843808807896263e+00 -6.2745680350391986e+00 0 -1 0
284 95 2 4.0999999999999998e-01 -1.4920527553278756e+01 -1.0596096058968197e+01 -4.1858093087882136e+00 -2 0 1
659 220 2 4.0999999999999998e-01 -1.3630099340706318e+01 -3.3937607704108625e+00 -7.7549364592323400e-01 -1 1 -1
228 76 2 4.0999999999999998e-01 -8.7615409997369227e+00 -1.9622737752819397e-01 -1.3209677429690174e+00 0 1 0
146 49 2 4.0999999999999998e-01 -9.3480712726378954e+00 -1.1562084075138081e+01 -6.8653992498944767e+00 0 1 -2
314 105 2 4.0999999999999998e-01 -5.5718031179452261e+00 -4.5880072571415234e+00 -3.4741307180257390e+00 -1 1 0
2203 735 1 -8.1999999999999995e-01 -5.4143583933762898e+00 -1.0581878316818358e+01 -5.3992856457913874e-01 0 1 1
1554 518 2 4.0999999999999998e-01 -5.0944288590536697e+00 -6.9079075730199335e-02 -5.3652927799477759e+00 1 0 -1
1682 561 2 4.0999999999999998e-01 -9.2818748930724055e+00 -1.5041872248448863e+01 -4.7551690954021772e+00 1 0 -1
892 298 1 -8.1999999999999995e-01 -1.1026508581739723e+01 -2.6763877145679231e+00 -1.8804603199606973e-02 -2 -1 -2
962 321 2 4.0999999999999998e-01 -1.3015727253756690e+01 -1.5152381193446502e+01 -2.6632571938376941e+00 -1 -1 1
779 260 2 4.0999999999999998e-01 -1.2560423809993289e+01 -1.2253958560702149e+01 -1.2520606305983506e-03 0 0 2
1991 664 2 4.0999999999999998e-01 -5.8817748182696779e+00 -1.3126778334083268e+01 -7.5684237733550379e+00 -1 -1 1
1931 644 2 4.0999999999999998e-01 -1.0330818677029992e+01 -1.4191873707626153e+01 1.0327112381695045e+00 1 0 0
1930 644 1 -8.1999999999999995e-01 -1.0647588576296256e+01 -1.3427483948448543e+01 1.5942108348903119e+00 1 0 0
1932 644 2 4.0999999999999998e-01 -1.1635936866961879e+01 -1.3321255088255766e+01 1.4855842323357216e+00 1 0 0
148 50 1 -8.1999999999999995e-01 -1.2040883397415845e+01 -1.0362461816421590e+01 6.4195084831590989e+00 0 1 -1
2009 670 2 4.0999999999999998e-01 -1.3289660998271064e+01 -9.6589294153221452e+00 5.6805106818054085e-01 -1 3 2
1850 617 2 4.0999999999999998e-01 -8.6968451650892220e+00 -1.3273640989422248e+01 1.7209190004218655e+00 -2 1 1
2010 670 2 4.0999999999999998e-01 -1.3536064344571532e+01 -9.2804222951700588e+00 2.1372616792923402e+00 -1 3 2
2008 670 1 -8.1999999999999995e-01 -1.3685810817150870e+01 -8.9865518802231037e+00 1.1932633509983397e+00 -1 3 2
2496 832 2 4.0999999999999998e-01 -5.0893120531184834e+00 -1.2353439277033724e+01 7.1351583366137277e+00 0 1 0
1042 348 1 -8.1999999999999995e-01 -1.3276350400699474e+01 -1.4485210229025954e+01 3.7989139955682028e-01 0 0 -1
714 238 2 4.0999999999999998e-01 -1.0289792457540798e+01 -1.0450510895813842e+01 3.0349289730099542e+00 -2 3 -2
1525 509 1 -8.1999999999999995e-01 -5.4964627992500752e+00 -1.2064820236407936e+01 4.8342818293078373e+00 0 2 2
2293 765 1 -8.1999999999999995e-01 -1.3093710556094527e+01 -1.0199797056654232e+01 3.9394663270067873e+00 0 0 1
2295 765 2 4.0999999999999998e-01 -1.3879976356458712e+01 -9.6225768388212316e+00 4.1597378882302571e+00 0 0 1
1202 401 2 4.0999999999999998e-01 -1.3803319373411359e+01 -1.3753649288244064e+01 4.4637750410151469e+00 0 0 0
2294 765 2 4.0999999999999998e-01 -1.2569176241072732e+01 -1.0380195617342928e+01 4.7714740042794510e+00 0 0 1
712 238 1 -8.1999999999999995e-01 -9.2947238780300747e+00 -1.0423749353331655e+01 2.9398553888445349e+00 -2 3 -2
713 238 2 4.0999999999999998e-01 -8.9709337059260275e+00 -1.1297575840613305e+01 2.5772208156759788e+00 -2 3 -2
41 14 2 4.0999999999999998e-01 -8.8296381964089683e+00 -1.1165172878510791e+01 6.0745919342947694e+00 -1 3 1
40 14 1 -8.1999999999999995e-01 -8.2353621726442459e+00 -1.0780344922187282e+01 6.7807506267002928e+00 -1 3 1
1201 401 1 -8.1999999999999995e-01 -1.2805601692656829e+01 -1.3724908365957345e+01 4.5241906505793388e+00 0 0 0
1203 401 2 4.0999999999999998e-01 -1.2447872363720352e+01 -1.3096024043314415e+01 3.8339364305356511e+00 0 0 0
1099 367 1 -8.1999999999999995e-01 -6.2544948426749940e+00 -9.5088733804178087e+00 4.2175832921779275e+00 -1 -1 0
1851 617 2 4.0999999999999998e-01 -7.6946354159122601e+00 -1.3458263943159295e+01 2.9968085818556389e+00 -2 1 1
2381 794 2 4.0999999999999998e-01 -6.1188261971360518e+00 -2.8146293517151832e-01 3.8156481608057682e+00 0 -1 -1
1194 398 2 4.0999999999999998e-01 -8.9935386517110381e+00 -8.6649300872622632e+00 2.9703136964340686e+00 0 2 2
1320 440 2 4.0999999999999998e-01 -7.5856602656228826e+00 -6.4620630876789029e+00 9.0797945023108895e-02 -1 -1 1
828 276 2 4.0999999999999998e-01 -5.7677311350368292e+00 -8.7688230734461303e+00 2.8055472760186646e+00 -1 1 -1
1849 617 1 -8.1999999999999995e-01 -7.9708557770100850e+00 -1.2843918130445463e+01 2.2577563470018802e+00 -2 1 1
2017 673 1 -8.1999999999999995e-01 -7.5092271802222221e+00 -1.4145456543792946e+01 4.6795531663977812e+00 -3 2 -1
1169 390 2 4.0999999999999998e-01 -8.0761594206951397e+00 -1.1648515642117479e+01 1.0760681571263682e+00 -4 1 0
541 181 1 -8.1999999999999995e-01 -5.9201598235892643e+00 -3.9280359113058854e+00 2.5933815380001235e+00 -1 1 0
2018 673 2 4.0999999999999998e-01 -7.4430693993161521e+00 -1.3829448845605713e+01 5.6259563016063296e+00 -3 2 -1
1100 367 2 4.0999999999999998e-01 -7.1706741062873665e+00 -9.8910915792073695e+00 4.3377559236007741e+00 -1 -1 0
1526 509 2 4.0999999999999998e-01 -6.0267280619599362e+00 -1.2739745670437454e+01 4.3212408459480471e+00 0 2 2
827 276 2 4.0999999999999998e-01 -6.1350142952182214e+00 -8.2415740098569348e+00 1.3043758130873861e+00 -1 1 -1
1193 398 2 4.0999999999999998e-01 -8.0856414563923007e+00 -7.5789153201803812e+00 2.1562505336584508e+00 0 2 2
1192 398 1 -8.1999999999999995e-01 -8.6896682224698960e+00 -7.7126856275737294e+00 2.9418546503811385e+00 0 2 2
83 28 2 4.0999999999999998e-01 -1.4757925089342292e+01 -1.1094860700778638e+01 2.9160395254705307e-01 -1 0 1
149 50 2 4.0999999999999998e-01 -1.2516963270582192e+01 -9.4858109187059263e+00 6.3506038328036887e+00 0 1 -1
826 276 1 -8.1999999999999995e-01 -5.4118464476858019e+00 -8.6181411405183042e+00 1.8832904135739668e+00 -1 1 -1
1101 367 2 4.0999999999999998e-01 -5.8205283205082043e+00 -9.3960996184644827e+00 5.1113795770266357e+00 -1 -1 0
905 302 2 4.0999999999999998e-01 -8.4162290557645161e+00 -6.5929536800124033e+00 6.0253325393269996e+00 0 2 1
1527 509 2 4.0999999999999998e-01 -5.6969242149097870e+00 -1.1149030506674663e+01 4.4863435566590724e+00 0 2 2