2593
Atoms. Timestep: 1000000
O -1.57424 -13.2489 -4.12036
H -1.04661 -13.3122 -3.27326
H -2.38711 -13.8272 -4.05074
O -0.490981 13.8082 -3.93159
H -0.958756 14.1679 -3.12426
H 0.497655 13.8356 -3.78382
O -10.3009 -10.4406 -12.4518
H -10.9707 -10.721 -11.7643
H -9.83056 -9.61448 -12.1416
O 14.683 -0.941144 10.647
H -14.432 -0.63502 10.8467
H 14.5911 -1.11067 9.66576
O -9.49365 12.6304 -10.0508
H -10.2359 13.2379 -9.76802
H -8.66902 13.1692 -10.2228
O -13.8304 7.90197 -8.63304
H -14.2445 8.80187 -8.76982
H -12.9001 7.90388 -8.99996
O 8.0522 13.3638 11.3174
H 7.31019 13.5372 11.965
H 7.91507 13.9188 10.497
O 2.93772 -10.6473 -11.7236
H 2.51774 -10.1239 -12.465
H 3.5326 -10.048 -11.1879
O 9.34603 13.9958 3.51492
H 9.42504 13.0037 3.61224
H 9.43587 14.2443 2.55048
O -8.37629 9.72465 2.93408
H -8.56701 10.1967 2.07337
H -7.8939 8.86927 2.74535
O -10.3845 9.43385 -14.6023
H -10.0085 8.55432 -14.3107
H -10.3523 10.0795 -13.8393
O -12.8437 13.6828 11.9768
H -12.7671 13.0901 11.1751
H -12.9424 14.6328 11.6808
O 11.7883 -3.6819 9.47863
H 11.6505 -3.19753 8.61469
H 12.7666 -3.73446 9.67894
O -9.12975 -10.9072 7.22161
H -8.55272 -10.7102 8.0142
H -9.51284 -11.8268 7.30853
O -6.69565 4.34872 -4.12845
H -7.08456 4.18564 -3.22173
H -7.4144 4.26748 -4.81895
O -7.36371 12.8269 9.32182
H -8.01657 12.4261 9.96453
H -7.84934 13.4207 8.68024
O 10.5828 -14.5219 13.0426
H 10.2894 14.8713 13.7412
H 10.8372 -13.6587 13.4788
O 11.1376 4.56531 10.0187
H 11.8725 5.17387 9.71924
H 10.6599 4.20113 9.21919
O 14.5078 -7.91842 5.35808
H 13.8439 -8.01143 4.61608
H 14.8421 -6.97651 5.39006
O 2.30375 13.8749 -3.10232
H 2.71167 12.9639 -3.16245
H 2.62291 14.4342 -3.86739
O -5.83794 -1.58942 -14.444
H -5.63538 -1.04858 -13.6277
H -4.99206 -1.75943 -14.9496
O -12.1228 -2.8192 12.7158
H -11.2389 -3.27182 12.8331
H -12.66 -3.30962 12.0296
O 12.2431 1.55477 4.95335
H 13.0696 1.07289 4.66241
H 12.4831 2.47913 5.24989
O -2.88591 12.0247 11.7584
H -2.80811 12.7774 11.1047
H -2.88498 12.3901 12.6892
O 11.8136 -10.3407 -3.45368
H 11.1737 -10.825 -2.85703
H 11.479 -9.41284 -3.61809
O -12.7635 9.73087 -3.53461
H -12.3509 8.97017 -3.03352
H -13.6082 10.0112 -3.07868
O 6.43431 -13.6399 0.436323
H 5.70413 -14.2716 0.696656
H 7.24163 -14.1602 0.157891
O -12.1546 -8.97594 0.80892
H -13.1131 -9.20789 0.643325
H -12.0674 -8.53828 1.70381
O 1.92901 13.2153 5.09096
H 1.91376 12.5885 4.31196
H 1.79358 12.6993 5.93673
O 6.85503 -0.47187 11.5613
H 6.93751 -1.12706 12.3123
H 6.49151 0.391663 11.9108
O 4.71214 5.04865 7.3364
H 3.9546 5.01957 7.98854
H 4.54287 4.3942 6.59949
O 4.98204 6.8977 0.534959
H 4.22964 7.43447 0.916761
H 4.61428 6.09413 0.066966
O -12.414 2.89756 -2.21218
H -12.5453 3.1082 -3.18088
H -11.5054 3.20104 -1.92528
O 6.28932 -12.4922 12.2835
H 7.08537 -12.3001 12.8574
H 6.59453 -12.7801 11.3758
O 13.2682 3.02848 11.0062
H 12.4242 3.32022 10.5561
H 13.6954 3.81362 11.4545
O -3.52435 4.64881 5.19363
H -3.71211 4.20372 6.0692
H -4.18041 4.32936 4.50987
O 10.0807 -9.70066 -14.2186
H 10.3132 -9.26198 -13.3506
H 9.47402 -9.10261 -14.7423
O -4.83772 -10.0389 -7.96435
H -3.94634 -10.2233 -7.55033
H -4.95616 -9.05209 -8.07476
O 4.94872 -3.74361 9.6839
H 5.69926 -4.28495 10.0629
H 4.30773 -4.34791 9.21067
O 10.4667 8.55373 -5.36468
H 9.96214 9.25272 -4.85789
H 9.8565 7.79047 -5.57709
O 0.567376 8.90379 -13.8737
H 1.40946 8.67445 -14.3619
H 0.510286 9.89509 -13.7551
O 2.04451 -14.6112 9.09175
H 1.51042 15.0098 9.82274
H 2.83962 14.8642 8.88538
O -4.83568 8.86057 -14.8942
H -5.16065 9.23547 -14.026
H -3.87318 9.10021 -15.0213
O -1.90562 7.89343 -13.1988
H -1.72039 6.96718 -13.5271
H -1.04753 8.40331 -13.138
O 10.5794 11.1188 -12.1779
H 10.0842 10.3005 -12.4699
H 9.93141 11.7892 -11.8164
O 10.0685 -8.19817 -4.13974
H 9.57031 -7.63388 -3.48143
H 9.68356 -8.06353 -5.05279
O 13.2476 -10.5088 -0.95463
H 12.993 -10.5647 -1.92006
H 12.4551 -10.7331 -0.38745
O -11.1777 14.2832 -12.8726
H -10.7969 13.3691 -12.7332
H -12.1621 14.2132 -13.0338
O -10.1053 -13.32 -9.67358
H -10.749 -12.581 -9.47469
H -9.89324 -13.3234 -10.6508
O -14.9369 -11.0762 7.76353
H 14.237 -11.3043 7.33016
H 14.9396 -10.6927 8.67141
O -8.5049 8.4184 -1.89191
H -8.40729 7.8993 -2.74103
H -8.11249 9.33035 -2.01178
O -1.36653 -7.65694 -9.33435
H -1.39824 -7.12876 -8.48582
H -0.428002 -7.67816 -9.67888
O -11.7261 -8.1514 7.86582
H -11.559 -9.02698 8.31906
H -12.706 -8.04507 7.69709
O 4.7499 -5.10337 0.954588
H 5.04141 -5.48102 1.83344
H 4.11653 -4.34551 1.11108
O 13.9608 -4.33083 -12.5864
H 13.2044 -3.74104 -12.8694
H 14.1947 -4.13861 -11.6333
O -4.17406 -5.05299 6.43078
H -3.41592 -5.70446 6.45903
H -4.44589 -4.8989 5.48085
O 11.0462 -6.22886 -1.20923
H 12.0024 -6.20526 -1.50103
H 10.9622 -6.79304 -0.387865
O -10.3062 -6.65663 11.456
H -9.70624 -7.1134 10.7992
H -10.9315 -7.32573 11.8576
O -2.91018 14.9908 -2.4971
H -3.36522 -14.5081 -1.79427
H -3.03298 14.0192 -2.29495
O -0.734442 13.5029 2.19316
H -0.0364092 14.1267 2.54473
H -0.504359 12.565 2.45254
O -2.54988 7.51005 4.62827
H -3.04581 8.03685 3.93796
H -3.0241 6.64493 4.79159
O 11.4885 12.0716 -1.52526
H 10.5553 12.0289 -1.16839
H 11.811 11.1466 -1.72625
O 2.36635 8.91368 -1.8058
H 2.70266 9.76352 -1.40002
H 1.40787 9.02593 -2.06792
O 0.601043 3.33229 7.91053
H 0.190005 3.74622 7.09831
H -0.0122268 2.63093 8.27382
O 2.7161 -3.52751 11.3877
H 3.45174 -3.83228 10.7827
H 3.04007 -2.76589 11.9489
O 13.3929 1.78265 -13.4518
H 13.7962 1.15301 -14.1157
H 12.9476 1.26007 -12.7247
O 14.3015 8.37286 3.82922
H 13.8981 8.2645 4.73779
H 14.3294 9.34355 3.59053
O -7.86426 4.561 11.9879
H -8.00467 3.65068 12.3772
H -8.3313 4.6219 11.1057
O -6.62382 -3.58127 12.8592
H -6.68142 -2.73263 12.3334
H -5.89336 -4.15448 12.4879
O 2.81586 -5.37929 8.65963
H 1.90843 -5.79329 8.58782
H 3.44202 -6.02299 9.0996
O 7.27664 -5.30233 3.6338
H 7.02945 -4.52533 4.21274
H 6.53893 -5.97727 3.64894
O -7.03519 -2.37819 1.05564
H -6.7587 -2.38516 0.0946575
H -7.77301 -3.03864 1.19499
O -9.30096 0.239683 5.67662
H -9.1061 0.0912357 6.64615
H -8.44306 0.257463 5.16313
O -9.72648 -8.88224 -4.57546
H -9.33 -9.62254 -5.11836
H -10.7208 -8.9848 -4.54782
O -4.88111 3.78171 7.5804
H -4.4886 3.69002 8.49556
H -5.73624 3.26565 7.53125
O -5.97242 4.07502 2.86929
H -6.54677 4.53891 3.54377
H -5.64934 4.73816 2.19413
O -6.87019 8.3497 -6.13317
H -6.60455 8.68293 -7.03781
H -7.85481 8.47226 -6.00871
O -11.5939 -0.169649 -5.40651
H -10.8659 0.514037 -5.45729
H -12.0915 -0.191736 -6.27364
O 7.30355 7.84342 -2.98781
H 7.61096 6.91658 -3.20337
H 6.35164 7.95378 -3.27359
O -9.33924 10.3266 -8.58794
H -9.53528 11.1229 -9.16023
H -9.175 9.53016 -9.16992
O 3.17268 4.34537 14.6856
H 3.24391 5.18135 14.1415
H 2.36652 3.82823 14.3981
O 7.52125 -11.4342 -5.25467
H 8.40475 -11.4242 -5.72299
H 7.18468 -12.3742 -5.19794
O -14.0883 6.31776 -13.8578
H -13.5148 6.04991 -13.0836
H -14.9403 5.79464 -13.8382
O -8.95552 -11.8655 -14.78
H -8.84464 -11.1606 14.5652
H -9.18102 -11.4345 -13.9063
O 9.33049 11.4588 13.3397
H 9.27787 12.2685 12.7551
H 8.41222 11.0883 13.4794
O 7.7105 5.33973 -4.13504
H 7.21538 5.26692 -5.00079
H 8.50069 4.72707 -4.15042
O 4.64905 14.0094 5.09292
H 4.78968 14.9533 4.79385
H 3.67259 13.8466 5.23438
O -12.9392 -1.9922 8.09825
H -13.8415 -1.9623 7.66811
H -12.859 -1.24397 8.75681
O -10.6839 -1.12815 3.56993
H -10.0992 -1.92699 3.42843
H -10.3187 -0.576487 4.31981
O 13.1967 7.73122 6.35514
H 12.7406 6.87818 6.60867
H 13.3363 8.29021 7.17247
O -4.46287 4.15408 10.0395
H -4.69213 5.04405 10.4336
H -4.07318 3.56603 10.7482
O -3.28785 -8.89575 11.7875
H -2.83908 -8.72184 12.664
H -2.59626 -8.98335 11.0705
O 6.5754 -12.4627 -12.0136
H 6.39867 -12.0898 -12.9245
H 6.98498 -11.7554 -11.4376
O 0.462363 -0.687618 5.85653
H 1.15347 0.0166145 6.01906
H 0.892188 -1.58998 5.88794
O -13.5592 -10.548 -2.87145
H -13.8837 -11.2902 -2.285
H -14.3404 -10.0189 -3.20253
O 10.8191 7.80782 -9.98745
H 11.2112 7.07632 -9.42965
H 11.5545 8.3153 -10.4365
O -14.5663 14.0196 4.81468
H -14.2126 13.8652 5.73718
H -13.8092 14.2413 4.20013
O -13.2134 -4.58699 10.8181
H -13.4028 -5.46621 11.2552
H -12.7123 -4.73937 9.96623
O -6.92101 4.67835 -1.11251
H -7.14323 3.83777 -0.618503
H -7.36434 5.45503 -0.66506
O 8.54684 9.07259 -13.3426
H 9.0734 8.22343 -13.302
H 7.85874 9.07312 -12.617
O 10.7976 -5.64661 6.37069
H 11.3424 -6.28387 6.91576
H 10.2732 -6.15568 5.68819
O 8.26866 -2.64019 -3.09629
H 7.79603 -2.036 -3.73783
H 8.01716 -3.58938 -3.2854
O 2.82459 -8.63353 12.5035
H 3.56755 -9.24878 12.2399
H 2.72653 -8.63651 13.4986
O 3.34801 8.51758 -14.4908
H 3.66523 8.79344 14.6477
H 4.12656 8.20622 -13.9459
O -3.71356 -5.15642 -5.17809
H -4.00408 -6.11329 -5.17785
H -3.96316 -4.73209 -4.30767
O 2.81294 -7.07114 -0.364699
H 3.40332 -7.86815 -0.237349
H 3.07788 -6.35374 0.279611
O 4.48626 -3.55894 -3.27909
H 3.67721 -4.14625 -3.30146
H 4.31207 -2.73114 -3.81238
O 8.26265 2.84353 -10.2065
H 8.57093 3.61995 -9.65683
H 7.77773 2.19299 -9.62197
O 1.05565 -14.8063 3.38832
H 1.51471 14.6577 4.05974
H 1.7378 -14.3841 2.79132
O -9.33697 -7.90958 6.64357
H -10.3193 -7.75046 6.54532
H -9.1431 -8.88294 6.52116
O -10.2152 13.8421 13.1452
H -11.1145 13.9665 12.726
H -10.1655 12.9358 13.5649
O -14.9521 -14.5842 9.50466
H 14.3175 -13.9585 9.58212
H -14.1817 -14.2265 10.0324
O -8.67401 6.51079 9.09466
H -9.16257 5.70831 9.43719
H -7.73369 6.49881 9.43472
O -8.99956 -2.90635 -1.58213
H -8.0635 -3.25633 -1.61798
H -9.64218 -3.65709 -1.73516
O 1.04693 -10.2979 11.0842
H 1.68377 -9.7188 11.5931
H 0.934253 -11.1693 11.5617
O 0.977776 10.6921 12.3642
H 1.96841 10.5615 12.4036
H 0.682266 11.2392 13.1473
O 11.086 5.89299 6.93067
H 11.4533 6.29124 7.7712
H 10.4624 6.54415 6.49809
O -5.64437 1.11761 -13.2153
H -5.76118 0.437532 -12.4915
H -4.79522 1.62346 -13.0634
O -7.40313 -3.82642 -14.0755
H -7.50595 -3.99258 14.9895
H -6.96679 -2.93818 -13.9319
O 3.85331 6.78494 12.8304
H 2.93002 7.07202 12.5753
H 4.33287 6.44663 12.0208
O -12.1805 -0.474619 1.31614
H -11.5749 -0.551002 0.524009
H -11.6387 -0.520076 2.15544
O -7.59072 -1.88244 10.7055
H -7.79047 -2.02833 9.73661
H -7.08627 -1.02617 10.8166
O 11.0816 -12.0053 14.707
H 10.7432 -11.2882 -14.7294
H 11.7697 -12.5513 -14.861
O 7.48049 1.46146 -3.65825
H 7.7895 1.81891 -2.77693
H 7.94542 1.94905 -4.39722
O -7.30347 -7.78036 -12.6958
H -7.5389 -7.61862 -13.6541
H -7.46059 -8.74217 -12.4717
O -3.7736 9.39362 11.6051
H -3.35747 10.3027 11.6248
H -4.76673 9.47986 11.6841
O -8.11117 -2.09307 8.09652
H -8.71204 -2.72602 7.60833
H -8.53153 -1.18604 8.12067
O 7.9062 14.9714 8.95134
H 7.59608 -14.1236 8.9486
H 8.87833 14.9373 8.71943
O -8.39264 5.27986 -10.9219
H -9.12379 5.01678 -11.5513
H -8.34372 6.2771 -10.866
O -12.8529 -8.01448 3.27878
H -13.4427 -8.52944 3.90083
H -13.2265 -7.096 3.14909
O 10.2841 1.01181 0.413688
H 10.053 0.132898 0.830929
H 10.7405 1.59146 1.08872
O 13.5235 12.7222 7.13073
H 14.4075 13.1176 7.37989
H 12.7896 13.3336 7.42684
O 10.2761 -11.2981 -1.12739
H 10.5316 -11.3556 -0.162316
H 9.28064 -11.2443 -1.20596
O 6.30979 -9.36553 -6.4981
H 6.48317 -10.0862 -5.82684
H 5.69919 -8.68023 -6.10123
O 14.0723 -0.0144484 14.3569
H 13.436 0.223319 13.623
H 14.5681 -0.847472 14.1113
O -4.74654 10.8896 -11.3919
H -4.94827 11.0501 -10.4257
H -4.02445 11.514 -11.6898
O -14.0044 1.72143 -7.14441
H -14.4725 1.14454 -6.47499
H -13.3618 1.16573 -7.67191
O 12.4531 11.3464 -7.98886
H 11.6846 11.7304 -7.47712
H 12.7767 10.5176 -7.53236
O -12.9678 0.178034 -3.00662
H -12.5739 0.33963 -3.91144
H -12.7333 0.937994 -2.40043
O -13.3788 6.4754 -4.03721
H -13.8875 5.7687 -3.54541
H -13.9994 7.21764 -4.29016
O -3.33018 -2.35622 14.91
H -2.63883 -3.06658 14.7781
H -3.14969 -1.59556 14.2865
O 1.68745 -5.99889 -14.8533
H 2.53215 -5.72528 14.7324
H 1.85081 -6.06666 -13.8691
O 8.56588 12.7281 -10.6579
H 7.71455 12.2905 -10.3686
H 8.39714 13.6964 -10.8419
O 4.73147 -0.556513 -6.32362
H 4.04007 0.132469 -6.54103
H 4.61029 -1.35006 -6.91994
O 6.42844 -5.46991 -13.6577
H 5.96536 -4.99781 -12.9076
H 7.09635 -6.11379 -13.2845
O -2.68323 11.0701 7.01199
H -3.53588 11.2648 7.49686
H -2.72564 10.1517 6.61868
O -1.26672 -4.19836 14.4973
H -0.43233 -3.81387 14.1024
H -1.35008 -5.15847 14.2304
O 14.2425 -2.54187 -5.50865
H 14.9471 -3.24539 -5.41628
H 14.1006 -2.09427 -4.62575
O 12.5997 4.14198 5.23769
H 12.0557 4.56196 5.96413
H 13.1253 4.84858 4.7639
O -0.584684 -12.0094 4.95234
H 0.403722 -12.0722 4.81413
H -0.967893 -11.3377 4.31835
O 8.6806 -3.01741 -0.178637
H 9.24788 -3.14497 -0.992216
H 7.74062 -3.29186 -0.381339
O -12.1231 0.0855384 -8.10983
H -11.9622 0.593853 -8.95583
H -11.5675 -0.745951 -8.10978
O 12.5866 -11.411 12.6402
H 11.976 -11.6439 13.3971
H 13.5306 -11.3858 12.9691
O -14.2366 -6.39696 -7.5086
H -14.4747 -7.35264 -7.33545
H -13.691 -6.33555 -8.34438
O 11.7896 10.7825 11.9799
H 10.9864 10.6327 12.5565
H 11.8961 11.7612 11.8044
O 0.414298 2.49846 13.3526
H 1.39604 2.33453 13.2562
H -0.0850557 1.65332 13.1619
O 13.913 -13.8028 0.270477
H 13.346 -14.6219 0.183548
H 13.9174 -13.5001 1.22354
O 5.96259 14.1389 12.9334
H 6.14719 14.6411 13.7782
H 5.73482 14.7848 12.2047
O 1.95376 -1.57333 9.3086
H 2.83089 -1.12474 9.13709
H 2.06082 -2.24563 10.0411
O -4.07012 -13.4596 -7.33345
H -4.58944 -13.1056 -6.55563
H -3.13037 -13.1207 -7.28877
O -2.4797 5.16859 -13.6073
H -3.20896 5.48512 -14.2139
H -1.67317 4.93389 -14.1499
O 14.2036 4.73021 -4.27464
H 13.5858 5.51648 -4.26219
H 14.248 4.35583 -5.20084
O -11.1477 3.35799 3.19992
H -11.6963 3.23413 2.37307
H -10.6802 4.24111 3.16056
O -6.13412 2.34594 -8.85166
H -5.26797 2.41522 -9.3466
H -6.12346 1.52988 -8.2738
O -10.154 6.1952 -8.67953
H -10.8576 5.53184 -8.42484
H -9.24973 5.78875 -8.54872
O -14.7696 12.038 -1.46756
H 14.5858 11.4519 -1.89176
H -14.2709 12.5338 -2.17849
O -12.7727 0.157393 9.58335
H -12.2667 0.59083 10.3291
H -13.1864 0.862395 9.00732
O 13.7847 -0.994499 7.82574
H 13.9242 -0.663083 6.89263
H 13.0328 -0.489756 8.2498
O 8.21981 10.663 -6.80492
H 7.31573 10.9672 -6.5048
H 8.8892 11.3853 -6.63124
O 0.794104 -3.20193 13.3833
H 0.177597 -2.61226 12.8616
H 1.66025 -3.29591 12.8925
O 1.40764 7.94491 -9.43901
H 0.495507 8.14244 -9.07986
H 1.33878 7.69607 -10.4051
O -8.23272 -5.52234 -3.36849
H -7.84046 -4.93345 -4.07512
H -9.18103 -5.73705 -3.60216
O 6.49044 -5.19506 -9.1254
H 7.3044 -5.40991 -9.66512
H 6.75463 -5.02985 -8.17519
O 4.14191 -7.27075 10.2966
H 3.61212 -7.62924 11.0653
H 4.46481 -8.02991 9.73147
O -2.49359 4.63079 -10.613
H -2.90494 3.74384 -10.403
H -2.15104 4.62529 -11.5525
O 11.7754 13.3709 11.4057
H 11.2407 14.0461 11.9137
H 12.7503 13.5424 11.5477
O 8.69218 -1.34557 -10.4201
H 8.77826 -1.08925 -11.3828
H 9.47395 -0.98848 -9.90889
O 13.7665 -6.89674 -1.61388
H 14.1579 -7.33944 -0.807164
H 14.4009 -6.98282 -2.38209
O -3.55169 3.05189 12.4367
H -3.40216 2.50201 13.2584
H -3.81498 3.97997 12.7
O 4.31062 -9.57578 8.85873
H 3.74683 -10.3906 8.9935
H 4.13 -9.1915 7.95336
O -5.10839 -2.09368 2.90913
H -4.34706 -2.73065 2.78816
H -5.68585 -2.10558 2.0928
O -0.437401 4.28319 -5.55863
H -1.14562 4.79498 -5.07233
H -0.0802191 3.5621 -4.96497
O 4.89266 10.8423 7.05842
H 4.26237 11.4511 7.54014
H 5.08194 11.2109 6.14831
O 14.186 3.30627 -9.93792
H 14.9765 3.1904 -10.5394
H 13.4912 3.85518 -10.4026
O 4.45581 14.4301 -13.0746
H 4.74104 13.8967 -12.2783
H 5.26228 14.8107 -13.5272
O 9.25229 11.0101 4.07453
H 9.89706 11.0217 4.8388
H 9.25981 10.1067 3.64575
O -0.122989 -11.4971 -10.174
H -0.108067 -11.1697 -11.1188
H -0.777981 -12.2483 -10.0919
O -13.6725 13.421 -4.09943
H -12.8985 13.0756 -4.62997
H -14.5253 13.2056 -4.57515
O -8.73478 1.90237 10.1401
H -7.81351 1.60528 10.3911
H -9.09723 2.50264 10.853
O 4.90175 8.58297 -4.47191
H 5.42686 8.55578 -5.3225
H 4.41055 7.71972 -4.3557
O 10.8832 2.64202 -11.079
H 9.90563 2.45219 -11.1705
H 11.0707 3.57717 -11.3795
O 11.7694 10.9988 5.7442
H 11.5362 10.1905 6.28479
H 12.2601 11.6539 6.31874
O 9.83332 1.43332 6.39307
H 9.34786 0.567649 6.51528
H 10.5971 1.30086 5.7613
O 10.3943 -3.34271 11.8793
H 11.0764 -3.55815 12.5781
H 10.8222 -3.3711 10.9759
O -6.48742 10.1322 11.4164
H -6.71385 9.93488 10.4626
H -6.68318 9.32865 11.9785
O 8.27492 3.53238 5.10672
H 8.12631 4.19522 5.84058
H 8.78058 2.74718 5.46415
O 2.40787 7.00493 2.1167
H 2.72005 6.11699 2.45448
H 2.48355 7.68449 2.8464
O -12.6365 6.71252 5.19862
H -13.4755 6.19584 5.02782
H -12.8695 7.62274 5.54097
O 4.85264 -5.47505 14.0711
H 5.51622 -5.46978 14.8192
H 5.323 -5.29577 13.2071
O 6.01421 -10.3051 -2.87892
H 5.02042 -10.1944 -2.86819
H 6.37497 -9.99202 -3.75746
O -10.7477 13.025 4.15079
H -10.3211 13.0623 3.24717
H -11.6375 13.4803 4.11829
O 8.80208 -8.29876 -1.28845
H 9.22702 -8.99606 -1.86566
H 9.0073 -8.4902 -0.328643
O 6.72125 1.97661 3.56175
H 7.2872 1.15777 3.46594
H 7.18153 2.63169 4.16092
O 7.14507 7.9765 2.42011
H 6.56754 8.3923 3.12265
H 7.0316 6.98317 2.4403
O -2.99566 -8.24047 -11.5487
H -2.97974 -7.40938 -12.1046
H -2.44078 -8.10333 -10.7282
O -14.6222 4.38096 7.25296
H -14.6833 3.38294 7.2678
H -14.526 4.695 6.30844
O 4.06077 10.9935 11.0868
H 4.94387 10.8944 10.6282
H 4.20797 11.2576 12.04
O 2.07959 -5.43446 -3.48225
H 1.94818 -5.869 -2.59124
H 1.32007 -5.67607 -4.08618
O 14.2904 10.2862 -3.65817
H 14.8496 9.57153 -4.0783
H 13.4424 9.88528 -3.31135
O -13.3631 -12.8219 -7.86557
H -12.6937 -12.2223 -7.42688
H -14.2807 -12.5894 -7.54296
O 4.76397 -14.2601 -10.5024
H 3.80641 -14.0216 -10.6643
H 5.35482 -13.6035 -10.9711
O -1.47336 1.36594 5.6614
H -2.21805 1.22223 5.00965
H -0.893192 0.551932 5.6894
O -6.43245 0.637185 13.7451
H -6.74619 -0.0602157 14.3894
H -6.4433 1.53212 14.1911
O -11.449 -4.281 -13.9859
H -11.1011 -4.99481 -14.5937
H -10.7432 -4.03625 -13.3211
O -2.49797 14.8454 4.17343
H -2.73551 -14.8065 5.06139
H -1.74308 -14.6829 3.7705
O -2.18584 -8.82387 -6.26725
H -1.73891 -7.99096 -6.59361
H -1.90419 -9.59754 -6.83478
O 12.268 -8.56873 7.10559
H 12.3772 -8.55456 8.09951
H 13.1224 -8.28181 6.67234
O -10.9445 -4.74896 2.3191
H -10.3649 -3.94798 2.16908
H -10.3958 -5.48942 2.70723
O 13.0364 -13.9142 -14.2527
H 13.0663 -14.8581 -14.5816
H 13.9567 -13.6228 -13.9919
O -10.4986 -5.23267 -0.960856
H -11.0936 -5.83888 -1.48864
H -10.016 -5.76321 -0.264029
O -9.9341 -0.67838 -0.20639
H -9.45063 -1.41456 -0.679976
H -9.3502 -0.306347 0.515167
O -4.26917 3.44693 -4.41686
H -5.24314 3.67243 -4.43982
H -3.76489 4.19146 -3.9794
O -5.15087 -2.49468 -3.91584
H -4.93201 -1.59958 -4.30428
H -5.9705 -2.85863 -4.35826
O 3.92352 0.526992 -11.3213
H 3.57497 1.16105 -12.0116
H 3.78105 0.914518 -10.4105
O 0.559615 -4.30854 -5.92206
H -0.249682 -3.79229 -6.20225
H 1.27474 -3.67401 -5.62889
O 0.359811 4.23436 -12.5059
H 0.831512 5.11421 -12.4481
H 0.00397593 4.10716 -13.4318
O 3.74664 -2.69049 -15.0099
H 4.66362 -3.02883 -14.7985
H 3.16536 -3.45491 14.7571
O 2.88685 -14.0575 1.33648
H 2.51503 -14.6958 0.662398
H 3.05074 -13.1719 0.901989
O -4.61005 -7.17438 -8.27384
H -3.63946 -6.9413 -8.21378
H -4.95448 -6.93612 -9.18191
O 4.92264 -5.14127 6.63833
H 4.06321 -4.81059 7.02822
H 5.09614 -4.67532 5.7707
O -10.1235 -6.03359 -7.10779
H -9.23122 -6.42547 -7.33208
H -10.3815 -5.36911 -7.80913
O -10.8639 -4.72573 -9.25647
H -11.7337 -5.19691 -9.40292
H -10.6376 -4.1844 -10.0662
O -3.61707 1.91473 -10.1536
H -3.74101 1.22419 -10.8662
H -3.23694 1.48435 -9.33488
O 9.2499 14.9354 -13.2241
H 9.91342 -14.4676 -12.8413
H 9.71937 14.2929 -13.8297
O -5.17805 -12.5902 -4.89862
H -5.40101 -13.5309 -4.64295
H -5.97651 -12.0065 -4.75105
O -5.4634 12.1093 13.4078
H -4.76443 11.4897 13.7648
H -5.33081 12.23 12.424
O 11.2925 12.9279 8.66472
H 11.3509 13.0014 9.6603
H 10.9568 12.0192 8.41669
O -6.94515 -10.8716 4.48992
H -6.98561 -11.7586 4.94998
H -7.86533 -10.6002 4.20782
O 11.017 -2.37087 -4.57938
H 10.6283 -2.41355 -3.659
H 10.3007 -2.55487 -5.25253
O -10.37 4.49954 -12.4131
H -11.2686 4.79445 -12.0882
H -10.2935 4.68218 -13.3933
O -0.657941 -5.28521 6.25471
H -1.36543 -5.94078 5.99076
H -0.396311 -5.44254 7.20696
O 13.8469 9.03209 0.814355
H 13.6994 9.94429 1.19664
H 13.9945 8.37921 1.55729
O 5.13162 -6.71623 3.41248
H 5.03766 -7.69401 3.59982
H 4.23543 -6.27711 3.47571
O 10.9028 -0.79443 -8.65251
H 11.8568 -0.658403 -8.38528
H 10.3555 -1.00035 -7.84129
O 4.69554 8.13886 6.25901
H 4.65081 9.03008 6.71036
H 5.23824 7.51009 6.81588
O -2.79588 -14.5197 -10.2899
H -3.38332 -14.0368 -10.9393
H -3.13584 -14.3741 -9.36081
O 4.72539 4.12212 -0.433374
H 5.20934 3.3367 -0.0475055
H 4.73761 4.06361 -1.43158
O 5.65926 3.37014 14.4201
H 5.96383 2.74627 -14.9059
H 4.68861 3.57527 14.5456
O 4.52903 -1.88532 6.67607
H 4.45305 -1.49701 7.59445
H 4.55704 -1.14631 6.00298
O 6.12444 -12.4359 2.83348
H 6.05614 -12.8986 1.94961
H 5.45754 -12.8278 3.46726
O -4.27518 -2.54314 10.3705
H -5.05928 -2.86431 9.83945
H -3.96394 -3.27253 10.9797
O -6.31347 0.940522 10.8426
H -5.42267 1.05407 10.4026
H -6.20914 1.0259 11.8334
O -3.46164 -6.87704 -2.00416
H -3.99109 -6.27547 -1.406
H -3.78133 -6.77572 -2.94624
O 2.47406 -5.78368 2.81606
H 1.72644 -6.11571 2.2409
H 2.09889 -5.25991 3.58085
O -10.0749 -7.54105 3.02942
H -11.0172 -7.37338 3.31927
H -10.0122 -8.44488 2.60617
O 7.88965 -10.3746 -11.0134
H 7.25135 -9.81847 -11.5456
H 7.6122 -10.373 -10.0527
O 1.91801 -6.9533 -6.82118
H 1.77527 -6.07797 -7.28315
H 1.38615 -6.97401 -5.9746
O 1.94781 12.2832 14.5786
H 2.83774 11.9092 14.8395
H 2.079 13.147 14.0921
O 12.9287 9.24247 -11.8476
H 12.5811 10.1221 -11.5229
H 12.9717 9.24929 -12.8466
O -8.50409 -12.6423 1.33842
H -9.36394 -13.057 1.04061
H -8.07533 -13.224 2.02965
O 2.62127 6.05194 -2.03993
H 2.57714 5.53369 -1.18585
H 2.48539 7.02379 -1.8475
O -5.52375 -6.61429 -10.7231
H -6.12949 -6.97462 -11.4325
H -4.68433 -6.27097 -11.1444
O -2.98092 -11.4133 13.3235
H -3.4234 -11.3061 12.4332
H -2.73161 -10.5138 13.6823
O -2.12459 -4.95138 -9.87602
H -1.59859 -4.36927 -10.4961
H -1.69935 -5.85508 -9.82613
O 8.15644 -13.5733 4.19267
H 8.47147 -14.306 3.58945
H 7.39007 -13.0949 3.76392
O -4.95066 11.9733 -8.95093
H -5.5241 12.6444 -8.48102
H -4.01703 12.0263 -8.59666
O -2.53839 13.0203 -8.46968
H -2.46324 13.6576 -9.23667
H -2.00828 12.1959 -8.66808
O -14.2658 3.49228 -0.268555
H -14.7707 2.73842 0.151804
H -13.5873 3.12514 -0.904825
O 14.3526 9.89143 13.6149
H 14.8079 10.4205 14.331
H 14.699 8.9534 13.6222
O 10.0142 -9.92821 6.9591
H 9.32986 -9.31643 6.56241
H 10.926 -9.54003 6.82498
O -7.39116 -10.5537 -11.5169
H -6.46995 -10.4131 -11.8796
H -7.44814 -11.4577 -11.0932
O -0.991469 -10.5065 7.34629
H -0.519821 -9.70666 6.97504
H -1.0675 -11.2075 6.63722
O 6.24921 7.56192 14.6321
H 6.19858 7.18906 -14.4871
H 5.48053 7.21884 14.0923
O -10.4803 -14.2951 -6.17559
H -11.1177 -14.7058 -6.82752
H -10.9914 -13.9112 -5.40652
O 2.37658 -13.1857 -10.9496
H 1.41852 -13.4585 -11.0373
H 2.53702 -12.3556 -11.4836
O -2.51877 -10.1815 4.17423
H -3.10898 -10.5128 3.43814
H -2.16157 -9.27879 3.93425
O -7.42364 1.98384 7.64331
H -7.8111 2.1236 8.55453
H -7.93348 2.52827 6.97724
O -8.7573 7.242 -14.2389
H -8.86692 6.36015 -14.6975
H -8.08707 7.15346 -13.5021
O -6.10927 14.3136 -7.69582
H -5.39436 14.9302 -7.36602
H -6.91827 14.8452 -7.9466
O 1.19766 -8.57033 -2.06786
H 1.57531 -8.26522 -1.19363
H 0.199531 -8.5181 -2.03617
O -14.8686 8.09248 -5.78152
H 14.2648 8.42987 -6.01328
H -14.3469 7.93881 -6.62071
O -0.894001 4.21206 5.59306
H -0.849124 3.21478 5.53458
H -1.82921 4.51495 5.40968
O -4.34577 -3.51289 -10.4868
H -3.67434 -4.11024 -10.0482
H -4.38575 -2.64123 -9.99829
O -0.962323 3.54795 -8.28874
H -0.569224 3.90099 -7.43973
H -1.44495 4.28372 -8.76383
O 2.90278 4.14474 9.03849
H 2.05352 3.98541 8.53514
H 3.23478 3.27959 9.41436
O 7.06714 -3.27093 14.8612
H 6.83707 -3.97299 -14.5107
H 7.22177 -3.70075 13.9716
O -9.39665 4.75622 14.9239
H -9.54913 4.60311 13.9475
H -9.02514 3.92507 -14.7082
O 0.202707 -7.69753 -4.69475
H 0.584618 -8.08462 -3.85552
H -0.62646 -8.19733 -4.9451
O -1.7476 -3.97162 9.19053
H -1.86304 -3.50901 8.31152
H -2.00464 -4.9335 9.09725
O 11.3549 2.60178 2.5964
H 11.5792 2.1163 3.4414
H 10.6981 3.32935 2.79426
O 0.936461 6.85293 -5.77035
H 0.63541 7.79378 -5.92582
H 0.168207 6.22911 -5.91395
O 11.4569 -3.3348 4.9765
H 11.9463 -3.34715 4.10456
H 11.2185 -4.27004 5.2382
O 13.384 -1.45019 3.05626
H 12.7651 -2.14632 2.69245
H 14.2449 -1.47109 2.54791
O 12.7021 12.0458 -10.7113
H 12.6932 11.9249 -9.7187
H 11.9096 11.5846 -11.1104
O -12.9821 -6.96999 -1.16418
H -12.6569 -7.69949 -0.562467
H -13.0992 -6.12926 -0.635538
O 1.23054 -11.0331 0.586693
H 1.82785 -11.1878 -0.200243
H 0.281338 -10.9727 0.277895
O 9.37043 -10.9514 4.20133
H 9.60121 -10.5904 5.10488
H 8.93506 -11.8461 4.3011
O -7.93191 0.236886 1.53258
H -7.41971 0.698624 2.25676
H -7.67699 -0.729767 1.50836
O 12.2152 -7.64005 -8.30195
H 11.5041 -7.03238 -8.65562
H 12.6321 -7.22893 -7.49128
O 12.5841 7.03585 -3.47002
H 11.9564 7.80756 -3.57221
H 13.4049 7.33594 -2.98398
O 0.715165 11.1633 -4.85773
H 0.700877 12.1402 -5.07085
H 0.20162 10.9983 -4.01569
O -5.88252 -8.82621 5.86928
H -6.25016 -8.00086 5.44077
H -6.19783 -9.63132 5.36692
O -14.6173 -1.62928 1.41149
H -13.7841 -1.19339 1.07124
H -14.7852 -2.47211 0.900186
O 12.6632 -6.74419 14.6601
H 13.111 -6.93707 -14.5126
H 11.7083 -6.49565 14.823
O 3.34298 1.74962 13.2352
H 3.03593 0.950773 13.7525
H 4.29327 1.9538 13.4703
O -4.89573 14.7121 8.12913
H -5.1483 13.7696 7.91047
H -5.48124 -14.9938 8.86514
O -12.827 8.75977 0.14234
H -12.8139 9.75153 0.0148897
H -12.3026 8.32287 -0.588518
O -7.60678 8.02979 -10.6414
H -7.07981 8.35673 -9.85689
H -7.27712 8.47568 -11.4735
O 7.64121 5.24 13.7868
H 7.22423 6.09355 14.0992
H 7.02103 4.47814 13.9737
O 6.30861 -11.3548 -14.4195
H 5.37976 -11.6225 -14.6756
H 6.64654 -10.6672 14.9837
O 2.81682 11.3853 -0.627893
H 2.18821 12.1624 -0.657468
H 3.28759 11.3707 0.254232
O -7.68289 4.55965 -8.29946
H -7.13975 3.72233 -8.36179
H -7.91506 4.8756 -9.21939
O 10.8713 -11.7033 1.33136
H 11.5578 -11.1542 1.80791
H 10.1662 -11.9913 1.97946
O -2.85056 -13.3499 0.068506
H -3.15982 -14.0016 0.761035
H -3.64275 -12.9702 -0.409285
O 11.3637 3.64078 -8.75567
H 11.1028 3.19289 -9.61085
H 10.927 3.17265 -7.9875
O -7.77008 14.3016 5.87045
H -7.17394 14.8554 5.28922
H -7.70738 13.3425 5.59428
O -12.8912 14.7627 0.837034
H -13.3877 14.0797 1.3728
H -12.8271 14.4586 -0.113422
O 10.6781 -2.12851 7.38136
H 11.2681 -1.32538 7.46436
H 10.7548 -2.50442 6.45788
O -11.9123 -10.5675 -10.2601
H -12.6837 -9.98262 -10.5107
H -11.8492 -10.6274 -9.2639
O 10.563 7.52836 13.8565
H 10.2694 7.55718 14.812
H 9.76978 7.36963 13.2687
O -10.1443 14.6232 -2.47577
H -9.65542 14.8552 -1.63484
H -9.48586 14.471 -3.21288
O 0.955441 14.8467 -13.048
H 0.74744 -14.992 -12.0921
H 1.89219 14.5039 -13.1186
O 9.83404 1.65365 -6.52875
H 8.94382 2.02241 -6.79616
H 10.0516 0.861537 -7.09902
O 13.2809 -10.6767 2.93573
H 13.503 -10.4505 3.88414
H 13.3701 -9.85825 2.36818
O 11.0666 -13.4628 -12.1313
H 11.7636 -13.3859 -12.8442
H 11.1332 -12.6789 -11.514
O 12.1267 6.90895 2.61588
H 12.8338 7.33585 3.17952
H 11.2541 7.37339 2.76744
O 3.81078 -6.01394 -9.65948
H 4.66083 -5.98517 -9.13358
H 3.38058 -5.1113 -9.64729
O 3.83285 -12.6508 -13.6105
H 3.79458 -12.25 -12.6952
H 3.87262 -13.6473 -13.5367
O -6.84616 11.0016 5.90496
H -7.74855 10.6014 5.74507
H -6.14821 10.289 5.83373
O -8.77612 -14.0663 -12.079
H -9.19476 -14.6469 -12.7773
H -8.10114 -14.5962 -11.5656
O -2.40559 5.74429 -4.11155
H -2.0911 6.07677 -3.22242
H -3.17596 6.30111 -4.42215
O -11.054 14.6089 8.69419
H -10.9763 13.7636 8.16566
H -11.7328 -14.8387 8.26822
O 1.98145 0.73861 -6.68845
H 1.23484 0.297429 -6.19054
H 2.39069 1.44849 -6.11523
O -7.23242 14.1945 -10.3263
H -6.71278 14.0086 -9.4924
H -6.65871 14.0108 -11.1245
O -11.2967 -10.3433 -1.2319
H -12.1368 -10.3103 -1.77342
H -11.4477 -9.88783 -0.354535
O -2.42303 1.88238 -5.83667
H -2.02673 2.69476 -6.26442
H -3.17674 2.1547 -5.23855
O 7.22017 8.41083 -11.1257
H 7.81046 8.04156 -10.4079
H 6.7331 9.21175 -10.7774
O 4.00109 1.88944 10.3187
H 3.44188 1.75704 11.1371
H 4.86493 2.32481 10.5722
O -7.5844 -3.48431 -5.20936
H -7.46863 -3.29486 -6.1844
H -8.2021 -2.80726 -4.80931
O -0.0705948 -8.76432 -13.4529
H -0.884532 -8.48263 -13.9609
H -0.223408 -8.62455 -12.4745
O 5.95452 -11.0968 6.35621
H 5.29966 -11.8075 6.61319
H 6.88411 -11.4583 6.42841
O -14.021 -0.205341 -11.8953
H -13.7424 -1.14403 -12.0983
H -14.497 -0.18168 -11.0161
O 3.36177 12.238 8.69621
H 2.46164 12.0608 8.29823
H 3.35102 11.995 9.66618
O -6.35834 10.1418 -3.94421
H -5.50916 10.6473 -4.09711
H -6.49122 9.48193 -4.68372
O -0.417907 -12.6539 14.8206
H -1.28939 -12.2736 14.511
H -0.36853 -12.6051 -14.2276
O 13.1064 13.8075 3.5315
H 13.2867 14.6172 2.97301
H 13.935 13.5567 4.03211
O -7.7588 -5.14698 -10.0515
H -6.85807 -5.47824 -10.3325
H -8.15382 -5.77977 -9.38551
O -11.067 -13.3289 0.773094
H -11.32 -12.4937 0.284927
H -11.8063 -13.9978 0.694605
O -0.41828 -5.37347 11.4754
H -0.195778 -6.0645 10.7876
H 0.114028 -4.54527 11.3001
O 3.99393 -8.68718 -10.0305
H 4.11964 -7.70568 -9.88612
H 3.69577 -9.11414 -9.17677
O -13.6018 -4.19831 -5.61416
H -13.5811 -5.05694 -6.12632
H -12.7462 -4.09166 -5.10755
O 13.6002 -3.74929 6.96462
H 12.7373 -3.46847 6.5445
H 14.0097 -2.96948 7.43812
O -13.1906 14.0223 14.6555
H -12.9613 13.6705 13.748
H -13.1302 15.0205 14.6511
O -12.9578 9.19314 2.77569
H -12.8294 9.14588 1.7851
H -13.7584 8.65247 3.03415
O -5.90668 -12.8664 -13.9666
H -6.86584 -12.639 -13.7982
H -5.55389 -12.2952 -14.7077
O -2.74834 12.7888 -12.4091
H -3.29926 13.2023 -13.134
H -2.3077 13.5091 -11.8733
O 2.28178 -0.376843 14.8492
H 1.29702 -0.539918 14.9096
H 2.77388 -1.20229 -14.92
O -14.653 6.0982 9.55257
H -14.9775 5.57354 10.3396
H -14.4893 5.47955 8.78415
O 8.0946 -0.302754 3.7103
H 8.66609 -0.831704 3.08293
H 7.91967 -0.840123 4.53529
O 6.56909 12.6653 0.33047
H 6.22926 12.5355 -0.601002
H 6.04814 13.3928 0.776941
O 4.67972 14.7306 8.53584
H 4.32978 13.795 8.48896
H 5.67932 14.712 8.55672
O 10.2531 13.0437 -6.76286
H 10.0203 13.9775 -7.03479
H 10.1082 12.9371 -5.77918
O -7.62193 -8.07199 14.3811
H -8.30377 -8.68226 13.9779
H -7.06027 -7.674 13.6558
O -12.6952 14.4377 -1.7932
H -11.7903 14.6384 -2.16848
H -13.2486 13.9759 -2.48633
O 7.53343 -8.93774 13.5247
H 8.11336 -9.73221 13.3444
H 6.67445 -9.03098 13.0213