2593
Atoms. Timestep: 18495000
O -2.56659 -3.76598 -12.4652
H -1.98003 -4.01776 -13.235
H -3.19356 -3.03983 -12.7474
O 10.0198 -3.17474 8.18998
H 10.8463 -2.61256 8.15991
H 9.46318 -2.90727 8.97654
O 0.547203 -11.4003 10.4495
H 0.984853 -10.7103 9.87296
H 0.269451 -10.9839 11.3152
O 7.6557 -14.1447 -11.2778
H 7.6315 14.8267 -11.3098
H 8.18022 -13.7989 -12.0557
O 9.45684 -10.5625 -0.0206974
H 9.10753 -11.4105 0.377834
H 8.74937 -9.85712 0.0238229
O -11.9071 0.504918 11.1738
H -11.2549 -0.155689 11.5455
H -12.8283 0.116757 11.2036
O 7.27844 10.4286 11.2509
H 6.33071 10.5244 11.5553
H 7.85642 10.1885 12.0308
O 1.29418 -9.31295 8.70031
H 2.0732 -8.75348 8.98345
H 1.33766 -9.46995 7.71365
O -10.6584 -14.5504 -12.2216
H -11.2339 -13.8358 -11.8241
H -11.1803 14.9162 -12.9097
O 1.21771 -8.4481 -10.9384
H 1.45147 -9.21859 -10.3453
H 0.747873 -7.74607 -10.4032
O 3.43724 9.70826 0.286701
H 3.38067 9.88131 1.27001
H 3.20053 8.75438 0.101977
O 7.0955 -6.22206 4.95804
H 7.45278 -5.85456 5.81672
H 7.09953 -5.50482 4.26121
O -6.73826 7.57255 9.38939
H -5.95371 7.56824 8.76931
H -6.42632 7.39538 10.3228
O -12.7832 1.14517 4.3759
H -12.2594 0.928618 3.55202
H -12.7882 0.352562 4.98564
O -10.2247 -7.11355 -2.99161
H -10.9602 -6.43617 -2.97878
H -10.5784 -7.99561 -2.68033
O -13.9904 3.30595 -7.35903
H -13.6932 3.32267 -6.40432
H -14.6208 4.06421 -7.52523
O -11.3127 14.9282 -9.17835
H -10.7753 14.2604 -9.69338
H -11.3731 -14.1906 -9.69865
O -2.96379 -7.36755 -12.0146
H -3.22724 -6.75796 -12.7623
H -2.57901 -8.21018 -12.3914
O -2.367 -0.184446 -6.59874
H -2.85449 -0.781511 -5.96163
H -2.14869 -0.693115 -7.43158
O -6.46929 10.3816 -10.3564
H -5.60696 10.6878 -9.95313
H -6.57936 10.7941 -11.2608
O 14.8556 -5.7354 12.2578
H 14.3513 -5.33778 11.4912
H 14.442 -5.43858 13.1185
O -1.55003 -13.4053 -6.99036
H -0.63903 -12.9942 -7.02338
H -1.84689 -13.6328 -7.91781
O -7.90158 -5.74041 -8.20979
H -8.00422 -6.45327 -8.90356
H -7.22071 -5.07435 -8.51445
O -1.98131 0.10663 -11.0307
H -2.12944 -0.213156 -11.9666
H -2.83143 0.491827 -10.6716
O -7.75857 -0.603347 -3.13398
H -7.94693 -0.522763 -2.15517
H -8.19563 -1.42906 -3.49065
O 0.957357 8.08841 -11.7083
H 0.745541 9.00026 -11.3566
H 1.94906 7.97995 -11.7775
O 0.0897556 -13.3519 2.32054
H 0.325086 -13.9462 3.08959
H -0.871743 -13.4838 2.07939
O -5.82703 12.0684 14.7854
H -6.25379 11.8014 -14.3212
H -6.27295 11.5871 14.0307
O -11.9175 14.8312 4.96248
H -11.4531 14.7758 4.07856
H -11.2634 -14.8608 5.66575
O -13.9725 -5.57515 -11.0585
H -13.4634 -5.54248 -11.9187
H -14.6643 -6.29553 -11.1078
O -2.00784 2.658 -6.92912
H -1.01364 2.65901 -6.82148
H -2.37521 1.77924 -6.62439
O -14.4908 -7.8401 -14.7621
H -14.5421 -8.29781 14.321
H 14.9383 -6.99987 -14.7885
O -12.2798 -1.83633 8.97892
H -12.4882 -2.79943 8.80839
H -12.5137 -1.60693 9.92376
O -4.92101 11.407 9.48186
H -5.59123 10.8287 9.94706
H -5.02379 12.3521 9.79211
O 7.08112 0.107604 -2.24443
H 6.55855 0.741506 -1.67423
H 7.87776 0.578938 -2.62291
O -4.76411 2.117 -11.5528
H -4.2122 2.06469 -12.3851
H -4.48755 2.91621 -11.0191
O -12.0605 7.5879 -11.3717
H -11.1584 7.89707 -11.0705
H -11.9776 6.69064 -11.8054
O 8.69708 8.81444 12.9603
H 7.94835 8.26577 13.3324
H 9.57123 8.3944 13.2042
O -2.99986 6.47536 6.05217
H -2.04628 6.63322 6.30865
H -3.11274 6.63825 5.07199
O -5.53606 14.6552 3.24798
H -4.81056 13.9699 3.31143
H -6.26036 14.3191 2.64595
O -3.45576 7.25262 14.2616
H -3.07878 7.59481 -14.8483
H -3.1929 7.8648 13.5158
O 11.2068 -4.82065 6.27428
H 10.6165 -4.46875 7.00077
H 12.0524 -4.28774 6.24442
O -13.4873 -12.5988 -8.46576
H -14.2081 -11.9207 -8.60963
H -12.8821 -12.6159 -9.26167
O -2.57654 13.5974 0.0523089
H -1.66656 13.196 0.156565
H -3.26022 12.9782 0.438594
O -7.70039 -6.11648 -3.53315
H -8.65536 -6.38051 -3.39764
H -7.49905 -6.08475 -4.51218
O -9.01582 12.5447 -4.86342
H -9.12143 11.8121 -5.53588
H -9.70108 13.2533 -5.03201
O 9.68232 3.27085 6.24314
H 9.07336 2.75005 5.64483
H 10.078 4.03446 5.73285
O 8.00796 -8.59513 4.30018
H 7.66348 -7.66513 4.42853
H 7.88104 -9.11697 5.14375
O 2.29351 2.10825 13.8483
H 1.99547 2.89051 13.3012
H 1.54463 1.81112 14.4407
O -3.69364 -13.9616 6.19696
H -3.30803 -13.368 6.90334
H -3.66265 -14.9119 6.50676
O -1.71883 -2.91033 10.5978
H -1.4228 -3.86038 10.4989
H -2.52265 -2.75025 10.0249
O -13.2397 8.89133 -4.42631
H -13.4344 8.01153 -4.85995
H -12.73 8.73992 -3.57933
O -5.65761 5.34915 -11.7579
H -6.61677 5.08725 -11.8649
H -5.29901 4.9617 -10.9086
O -4.18743 10.4936 -5.00545
H -3.4495 11.1667 -4.95711
H -4.77191 10.6956 -5.79134
O 2.29493 6.4169 14.8694
H 1.61501 6.39529 -14.3683
H 2.87613 7.22347 14.9776
O -6.37121 9.07964 -4.17065
H -6.96833 9.7587 -3.74362
H -5.50972 9.51289 -4.43554
O 0.484079 5.38789 -5.1196
H 0.962622 4.58792 -5.48166
H 0.654321 5.46166 -4.13695
O -2.52442 -9.19377 -14.0273
H -1.54154 -9.27421 -13.8615
H -2.69778 -8.41699 -14.6328
O 14.3767 -0.81235 -3.81555
H 13.5411 -1.33875 -3.65867
H 14.7858 -1.08781 -4.6855
O -3.50393 2.9634 4.75436
H -2.53546 3.12364 4.56347
H -4.05686 3.33905 4.01059
O 6.75864 -5.44335 -6.82691
H 7.46795 -5.37702 -6.12512
H 5.97585 -4.8793 -6.56401
O 6.19054 -0.589221 -6.60493
H 5.50801 -0.174362 -7.20666
H 6.81448 0.117544 -6.27144
O 13.98 -10.0929 9.60132
H 14.3619 -9.16868 9.602
H 13.2891 -10.1687 10.3203
O 8.59715 -2.32061 5.06231
H 7.61038 -2.17201 5.12741
H 8.79173 -2.9375 4.29967
O 4.17348 4.52633 13.5326
H 3.62788 5.32415 13.7892
H 4.22342 3.89405 14.3058
O 10.8484 -8.60173 -10.5198
H 11.4687 -8.63995 -11.3032
H 11.3188 -8.18436 -9.74225
O -10.8892 -14.6414 7.37097
H -11.835 -14.6738 7.69402
H -10.5059 14.4057 7.36874
O -11.4224 9.07014 5.51665
H -12.2791 9.36221 5.0915
H -11.6224 8.55914 6.35266
O -5.48778 -6.71824 3.31118
H -6.45503 -6.95781 3.39514
H -5.04237 -6.81315 4.20148
O 9.31097 -11.2773 3.43033
H 8.85614 -10.4119 3.64068
H 8.70406 -12.0377 3.66166
O 14.6422 -14.5992 -1.72857
H -14.6563 14.7516 -1.3237
H 14.3451 -13.9353 -1.04222
O -5.45061 -13.3995 -8.1288
H -4.74331 -13.2491 -7.43806
H -5.11004 -14.0351 -8.82164
O 0.0510955 8.23966 5.0752
H -0.291302 7.42355 5.54077
H 1.05091 8.24026 5.09559
O -9.32282 6.27655 2.06958
H -9.81404 5.42644 2.25946
H -8.45051 6.06601 1.62823
O -11.1101 4.27513 -8.77406
H -11.9198 4.35586 -9.35545
H -10.888 3.30878 -8.64429
O -4.60356 8.08066 -12.3836
H -5.37185 8.59886 -12.0078
H -4.61653 7.15104 -12.0153
O 12.2991 -14.0268 -5.65638
H 13.225 -13.8472 -5.9888
H 12.331 -14.7275 -4.94355
O 12.9268 8.32922 1.30878
H 13.4445 7.47455 1.26938
H 13.1456 8.81268 2.15638
O -11.7471 7.33862 -2.72978
H -11.9046 7.18075 -1.75495
H -11.5882 6.46391 -3.18768
O 10.8798 10.8449 1.10681
H 10.012 10.9009 0.613009
H 11.2682 9.93018 0.995479
O -14.0813 -14.5556 1.83889
H -14.2913 -14.3917 2.80279
H -14.4538 -13.8107 1.28532
O 14.0557 -5.17254 1.50815
H 13.4937 -4.95257 0.710747
H 13.4632 -5.373 2.28841
O -4.32104 13.664 7.43459
H -5.01412 13.1985 6.88421
H -4.58242 13.6287 8.3992
O 5.33382 9.44483 -7.95901
H 4.68322 9.9655 -7.40615
H 6.2598 9.78274 -7.79046
O 3.66179 12.5252 5.89704
H 4.22284 13.1226 6.47008
H 4.07543 12.449 4.98977
O -1.64385 10.3954 3.41578
H -1.72709 9.43141 3.66845
H -0.67719 10.6497 3.38543
O 5.22364 -3.17858 -6.534
H 5.60475 -2.25449 -6.56301
H 4.91684 -3.44147 -7.44876
O -14.9836 -14.6197 -6.32541
H -14.4506 -14.0429 -6.94449
H -14.3786 14.9563 -5.63385
O 11.8766 -4.27682 -0.294894
H 12.4711 -3.56032 -0.659833
H 10.9329 -4.10215 -0.575981
O 4.54346 14.4652 2.12967
H 3.98531 14.6959 1.33264
H 5.14458 -14.7371 2.34939
O -6.37485 12.5373 6.17256
H -7.25194 12.9422 5.91416
H -6.53125 11.6431 6.59223
O 13.7199 -10.821 -11.9432
H 14.5682 -10.3836 -12.2417
H 13.6566 -11.7345 -12.3451
O 0.867272 12.072 6.06234
H 1.84994 12.1913 6.20438
H 0.529737 11.3455 6.66087
O 7.75156 -8.59908 0.275126
H 6.90691 -8.39128 -0.218249
H 8.3395 -7.79022 0.284869
O 1.03961 7.08389 -7.68584
H 0.292004 7.33258 -7.06998
H 1.49983 7.91305 -8.00321
O -13.9806 -12.1954 -2.9214
H -14.3758 -13.0401 -2.56031
H -14.0497 -12.1949 -3.91903
O 8.06107 14.0117 2.30209
H 8.11275 13.3376 3.03889
H 8.29886 14.9149 2.65942
O 6.32053 -8.02007 -13.4682
H 7.18431 -7.97915 -12.9659
H 5.59669 -8.34663 -12.8604
O 2.32324 12.3953 12.1754
H 1.98264 13.2794 12.4954
H 1.58768 11.7192 12.2187
O 12.3568 14.0116 13.4063
H 13.0676 13.9447 12.7061
H 12.6639 14.6229 14.1358
O -5.98429 10.8083 -7.16562
H -6.23476 9.96743 -7.64536
H -6.59626 11.5475 -7.44697
O 12.9047 5.62758 -3.10988
H 12.0909 5.45462 -2.55518
H 13.6254 6.01259 -2.53331
O 12.5556 3.5314 7.18
H 11.9876 3.52374 6.357
H 12.3825 4.36988 7.69672
O -11.4984 -7.00191 -9.02684
H -12.1902 -7.64861 -9.34829
H -11.635 -6.11804 -9.47425
O 5.82416 -10.6918 -2.4153
H 5.62295 -9.78832 -2.03671
H 6.80567 -10.7686 -2.59069
O -8.11351 -12.5347 -2.74477
H -7.59396 -12.7772 -3.5641
H -8.02513 -11.5536 -2.57227
O -1.39145 11.0157 -1.68151
H -1.40557 11.3013 -0.723242
H -0.748422 11.588 -2.19044
O 10.9651 0.648805 2.01836
H 10.1365 1.05946 1.63791
H 11.4717 0.18565 1.29113
O -9.10843 -4.03512 1.94661
H -8.9966 -4.01135 2.94007
H -8.42685 -4.64948 1.54906
O -6.61967 4.34075 11.2137
H -6.4978 5.33027 11.136
H -6.30535 4.03577 12.1127
O -3.77753 -14.0456 12.1092
H -3.93251 -14.6759 12.8699
H -3.38992 -13.192 12.4572
O 0.199635 -6.24321 -9.62724
H -0.123652 -6.34098 -8.68598
H -0.054096 -5.3405 -9.97475
O -9.05797 -12.6561 4.65109
H -8.34284 -13.1478 5.14794
H -8.71712 -12.3951 3.7479
O -14.6595 -7.92175 5.98472
H 14.5612 -8.38839 5.51583
H 14.9375 -7.2764 6.651
O -11.8634 -7.78937 5.86443
H -11.426 -8.49951 5.31272
H -12.8548 -7.92017 5.85099
O -13.9956 -2.80434 -12.7649
H -13.9502 -1.86318 -12.43
H -13.9291 -3.43646 -11.9929
O 9.39059 4.87139 1.37081
H 10.3876 4.86775 1.44834
H 9.07685 5.79477 1.1495
O 1.85477 -13.33 -12.9769
H 2.61581 -12.6858 -13.0534
H 2.21274 -14.2567 -12.8625
O -4.62401 -1.82586 -12.2502
H -4.85301 -1.44597 -11.3539
H -4.12896 -1.14157 -12.7857
O 8.63003 -3.91059 -0.989379
H 7.64259 -4.06829 -1.00079
H 9.09135 -4.64994 -1.47988
O -12.3836 -5.59317 12.8359
H -12.0832 -6.22681 12.1229
H -13.3822 -5.54113 12.8365
O -2.63385 9.19492 -13.9797
H -2.91075 9.90295 -14.6294
H -3.42634 8.90811 -13.4415
O 10.0567 -0.0117436 4.6306
H 10.6024 -0.0841817 3.79569
H 9.51241 -0.842639 4.74619
O 1.22843 -6.48767 11.7642
H 0.403597 -7.00357 11.9955
H 1.13567 -6.10563 10.8447
O -10.5977 9.15806 11.627
H -10.8501 8.5611 12.3885
H -9.94859 9.84873 11.9457
O 4.41845 -12.1185 2.08191
H 4.1089 -12.0259 1.13552
H 5.2319 -11.5543 2.22324
O -3.42463 -9.17425 -3.8005
H -4.00685 -8.62277 -3.20307
H -3.05859 -9.94967 -3.28593
O 7.02 -2.04569 -12.2597
H 6.95404 -3.02722 -12.4393
H 7.27363 -1.89811 -11.3037
O 7.96098 -13.6122 -1.42005
H 8.1152 -12.8169 -2.00627
H 7.62627 -13.3088 -0.527884
O 5.34258 -12.5666 -11.0176
H 4.71344 -13.068 -10.4235
H 6.17766 -13.1016 -11.1458
O 12.3776 -0.529016 -0.32785
H 11.528 -0.83949 -0.754285
H 13.0773 -1.23684 -0.424893
O 7.41689 -11.299 12.4897
H 6.43288 -11.3784 12.6492
H 7.59992 -11.3427 11.5075
O -4.9621 1.41125 6.54359
H -5.46404 2.19843 6.90199
H -4.24816 1.72749 5.91884
O -10.1507 13.6342 -1.79191
H -9.83982 13.567 -0.843816
H -10.1368 14.5917 -2.08012
O -3.09702 11.2314 13.964
H -3.98687 11.5183 14.3188
H -2.82742 11.8344 13.2132
O 10.006 0.104069 9.89587
H 9.3343 -0.0519791 9.17162
H 10.549 0.914989 9.67778
O -4.51881 -10.8575 -13.0697
H -3.57004 -10.5565 -13.1662
H -4.80763 -10.7495 -12.1184
O 13.7214 10.823 9.86696
H 13.9496 11.5921 9.27005
H 14.4662 10.6734 10.5174
O 0.441326 12.3382 -8.93552
H 0.759049 12.3239 -7.98743
H 1.17496 12.0231 -9.53767
O -11.4984 8.37567 0.940594
H -11.2921 9.27476 0.554445
H -10.7502 8.09047 1.53957
O -4.88391 1.70509 -8.19385
H -5.79939 2.06509 -8.37366
H -4.19966 2.37289 -8.48689
O 0.0563392 -8.86052 -1.99021
H -0.139867 -7.93554 -1.6647
H -0.740597 -9.44442 -1.83534
O 6.07954 14.3753 -1.60667
H 6.73091 -14.8366 -1.60838
H 6.14918 13.8742 -2.46932
O 5.58653 12.0389 3.38863
H 5.28 12.6792 2.6843
H 6.48038 11.6684 3.13604
O 8.28717 -0.266285 7.4029
H 7.3928 -0.539708 7.04881
H 8.99614 -0.845887 7.00109
O -12.2061 5.24372 -12.6985
H -11.2685 5.03018 -12.9728
H -12.6207 4.43878 -12.274
O 8.72411 8.28556 1.24356
H 9.42856 8.17278 0.542801
H 8.10636 9.02614 0.979028
O -5.77563 -2.62866 13.6564
H -5.88444 -2.92405 14.6056
H -6.54301 -2.04085 13.4002
O 7.1577 -1.99809 -9.61733
H 8.09935 -1.88992 -9.29855
H 6.81922 -2.90217 -9.35636
O -14.5428 10.2948 -8.70616
H -13.8615 10.2792 -7.97426
H 14.7407 10.9935 -8.50695
O -0.811992 10.8138 -12.154
H 0.0171342 11.084 -12.6434
H -1.47584 10.4418 -12.8028
O -12.3457 4.5606 -3.61402
H -11.7291 3.78127 -3.7255
H -13.2928 4.25148 -3.70144
O 7.14248 -8.9922 -6.75192
H 6.41187 -8.37026 -6.47005
H 6.95891 -9.90693 -6.39192
O 1.3639 -11.2876 0.457351
H 0.487107 -11.3961 -0.011158
H 1.3845 -11.8752 1.26632
O 14.5859 -6.18929 7.57324
H 14.2242 -5.39003 7.09327
H -14.4889 -5.9691 7.95924
O -6.14605 -6.27376 6.52794
H -5.96609 -5.29895 6.39599
H -7.10112 -6.46952 6.30535
O 6.20152 3.03005 -13.6589
H 5.20174 3.0438 -13.6418
H 6.51967 2.09199 -13.7962
O 6.46575 -0.407845 13.634
H 5.58874 0.0689482 13.5743
H 6.45938 -1.19579 13.0182
O 7.98042 -4.93837 7.23602
H 7.10982 -4.56382 7.55509
H 8.70042 -4.25428 7.35289
O -12.0853 0.169359 -14.5762
H -12.8704 -0.272612 14.9605
H -12.4066 0.879881 -13.9502
O 14.5286 6.09383 1.76693
H 14.6266 5.86008 2.7343
H -14.6141 5.82662 1.27391
O 8.69376 -12.4863 14.7442
H 8.18171 -12.2623 13.915
H 8.94458 -11.6428 -14.7515
O -7.02376 -12.957 -5.47052
H -7.79688 -12.4476 -5.84851
H -6.18011 -12.6655 -5.92142
O -3.60033 -14.8194 -11.6905
H -3.38661 14.242 -12.0476
H -4.1651 -14.3258 -12.3519
O 13.795 10.4178 6.63129
H 13.1642 9.77463 7.06549
H 13.3469 11.3057 6.52787
O 10.9046 -9.9025 -2.29984
H 10.3204 -10.1097 -1.51509
H 10.8698 -10.6609 -2.95076
O -3.8396 -13.1867 -5.88712
H -2.92336 -13.353 -6.25164
H -4.07421 -13.9067 -5.23398
O 6.5972 -4.40058 14.4247
H 5.76074 -3.90446 14.1918
H 6.7388 -4.36917 -14.5565
O -9.16109 -13.1847 8.86551
H -9.76101 -13.5998 8.18154
H -9.62836 -13.1628 9.74938
O -2.75933 -10.0314 9.99009
H -3.72108 -9.75936 9.95703
H -2.18261 -9.21477 10.0143
O -7.95585 2.01189 14.3788
H -8.81934 2.19969 13.9107
H -8.13586 1.80844 -14.6294
O 0.886678 10.9186 -6.38013
H 0.408533 11.6402 -5.87947
H 0.348123 10.0767 -6.34668
O 9.36598 -4.23547 12.972
H 9.83569 -3.36635 12.817
H 8.58716 -4.08926 13.582
O -7.29399 10.4394 10.3377
H -7.82382 11.238 10.0521
H -7.42559 9.69893 9.67862
O -14.1286 -14.8563 14.4926
H -14.0438 14.3995 13.7985
H -14.865 14.8779 -14.8442
O -8.67957 11.1109 3.14812
H -8.37885 11.0346 4.09879
H -9.66759 11.2632 3.12226
O 6.79166 5.63082 -2.82038
H 6.3526 4.78059 -3.11086
H 6.10712 6.23908 -2.41856
O -2.71798 -11.5261 12.3355
H -2.59641 -10.8386 13.0515
H -2.78644 -11.0731 11.4466
O -11.3306 11.5898 3.72603
H -12.1548 11.7682 3.18846
H -11.4558 11.9401 4.65429
O 4.03269 -3.61268 14.2222
H 3.17402 -4.11448 14.3267
H 3.88425 -2.8165 13.6356
O -5.0811 13.9163 -9.79903
H -4.69793 13.0016 -9.92702
H -4.83617 14.4924 -10.5789
O -9.31509 -8.5717 -9.11409
H -10.2285 -8.22647 -9.32994
H -9.30193 -8.91527 -8.17503
O -6.98243 7.38696 -8.44372
H -7.25862 7.8028 -7.57721
H -7.53107 6.5676 -8.61006
O -13.2796 -8.79028 3.46406
H -13.9018 -8.2304 4.01132
H -13.1853 -9.69243 3.88509
O 2.26366 -8.54875 -0.262082
H 2.14481 -9.44575 0.163715
H 2.20445 -8.64113 -1.25606
O 0.0750113 -9.43729 -13.3562
H 0.660893 -9.21658 -12.5764
H 0.622907 -9.44646 -14.1927
O -8.37541 1.20736 -12.6729
H -9.0887 0.55841 -12.9377
H -7.94891 0.904477 -11.8207
O -10.9924 -11.9334 -14.6528
H -11.7129 -11.297 -14.9286
H -10.1445 -11.4279 -14.4928
O 2.73155 7.78068 8.98032
H 3.68723 7.90842 8.71502
H 2.26397 8.66465 8.97804
O 0.171161 -6.64584 0.0625822
H 0.813149 -7.41062 0.00785688
H 0.485374 -5.99574 0.754448
O 10.4697 -7.43106 6.86289
H 10.7126 -8.07499 6.13736
H 10.5781 -6.49508 6.52787
O 5.46931 -4.40506 8.13761
H 5.33291 -3.4152 8.17783
H 5.22178 -4.81164 9.01708
O 8.48673 -4.20747 -4.69612
H 8.67823 -4.94448 -4.0479
H 7.86874 -3.54433 -4.27379
O 10.9553 3.84219 -4.55981
H 10.8377 3.19897 -5.31644
H 11.9056 3.82134 -4.24927
O -11.0886 -6.51955 -6.33378
H -11.3298 -6.66178 -7.29379
H -10.6627 -5.62111 -6.22668
O 9.68495 -14.568 8.21053
H 9.21416 -14.7798 9.06698
H 10.2998 14.6505 7.97324
O 13.5144 0.0593168 10.04
H 13.2343 1.0192 10.055
H 14.0127 -0.129318 9.1937
O -6.83276 -6.91696 -13.96
H -7.21962 -6.18027 -14.5146
H -6.70471 -6.59571 -13.0216
O -13.6388 -2.05201 14.5646
H -14.5787 -2.06889 14.2236
H -13.619 -2.39317 -14.4663
O -13.4323 8.2248 13.3102
H -12.8442 7.52653 13.7184
H -13.9237 8.71075 14.033
O 5.03391 -13.4345 11.0465
H 4.28708 -13.5066 11.7076
H 4.66019 -13.4452 10.119
O 5.00903 5.25132 11.1489
H 5.12325 6.23982 11.0496
H 4.6245 5.04903 12.0496
O -3.71933 4.44828 -5.42955
H -4.42291 3.78065 -5.18606
H -3.01278 4.00249 -5.97918
O 11.1331 10.8232 4.34315
H 11.2015 11.6619 3.80295
H 11.9333 10.249 4.16998
O -8.59168 -7.31636 3.3253
H -8.00967 -7.88399 2.74298
H -9.50769 -7.26075 2.92798
O 2.05429 2.77272 7.5281
H 1.87384 2.97953 6.56649
H 1.85905 3.58006 8.085
O 9.6602 -9.9681 -7.24151
H 10.3768 -9.28335 -7.1085
H 8.76371 -9.53196 -7.16323
O -3.06006 12.5178 -12.3355
H -3.27355 11.9483 -11.5417
H -2.08305 12.731 -12.3397
O -13.0623 -12.7065 -12.7863
H -13.0929 -12.9562 -13.7541
H -13.4349 -13.4545 -12.2371
O 14.6645 -1.6393 -6.46116
H 14.1601 -2.01099 -7.24058
H -14.5663 -1.05341 -6.79171
O -4.59941 -0.774679 -9.74622
H -4.8402 -0.0487857 -9.10191
H -4.16555 -1.52829 -9.25238
O -2.14638 12.8307 4.36113
H -1.5394 12.0688 4.13503
H -3.09644 12.5199 4.33205
O 3.96081 -11.8909 -0.566659
H 2.99321 -11.6635 -0.676449
H 4.51999 -11.1952 -1.0176
O 0.751394 -14.9042 -9.09354
H 1.23171 -14.5223 -8.30391
H 0.392617 14.1627 -8.86034
O 10.7637 11.3447 10.4952
H 10.345 10.5701 10.021
H 11.7533 11.2095 10.545
O 7.08972 4.70294 13.2216
H 6.16653 5.03971 13.4069
H 7.43256 5.11704 12.3784
O 14.7285 0.155459 7.60387
H -14.8528 -0.596575 7.07201
H 14.0674 0.653316 7.04259
O 3.57082 -14.6051 -0.564078
H 3.78036 -13.6274 -0.577625
H 4.34752 14.8531 -0.930363
O 13.1855 2.26338 -13.6184
H 12.9762 1.872 -14.5145
H 12.48 1.99267 -12.9634
O 7.99023 2.77974 8.46469
H 8.74613 2.8138 7.81087
H 7.50273 1.91222 8.36569
O -9.07862 -1.52054 -6.4116
H -9.20631 -0.735313 -5.80568
H -8.87233 -1.19849 -7.33559
O 12.2488 -13.9704 10.0467
H 11.7731 -14.5986 9.43099
H 11.6634 -13.1821 10.2361
O 7.18602 6.78196 -10.2686
H 6.68769 7.62374 -10.0609
H 7.9445 6.67636 -9.6255
O 6.47555 -1.65411 1.43531
H 7.41649 -1.39202 1.22092
H 6.10476 -1.03121 2.12419
O -0.616751 -3.23612 4.5916
H -0.586924 -3.0049 3.61914
H 0.199596 -3.76 4.83485
O -0.389349 7.0418 12.8026
H -0.431937 7.17871 13.7922
H -1.14166 7.53454 12.3652
O -1.36839 -6.88267 14.081
H -0.735622 -6.54662 14.7787
H -2.16849 -6.28413 14.0406
O -5.35666 -9.50909 9.97117
H -5.40793 -10.5049 10.0473
H -5.75576 -9.09143 10.7874
O -5.47662 -12.2404 10.4635
H -5.59416 -12.5589 9.52293
H -4.77862 -12.7938 10.9181
O -1.59728 -14.9315 -14.9764
H -1.2827 -14.0885 -14.5399
H -2.57041 -14.8518 14.7782
O -10.5028 -2.27191 5.31145
H -9.61545 -2.4031 5.7535
H -10.9811 -3.14849 5.25728
O 4.67627 -4.37309 5.50832
H 4.98169 -5.0654 4.85452
H 5.02107 -4.59976 6.41924
O 8.26323 1.47568 -6.03545
H 8.43849 2.2531 -6.63957
H 8.91955 1.48523 -5.28101
O 0.190762 14.7624 4.61442
H 0.256411 14.4579 5.56466
H -0.291689 14.0718 4.07562
O 2.7964 -12.8953 12.4625
H 2.32631 -13.7733 12.5529
H 2.14716 -12.1997 12.1549
O 2.68695 8.11285 -3.23923
H 2.10849 8.80111 -2.80138
H 2.12645 7.33077 -3.51166
O -11.1864 -10.2802 12.2341
H -10.4573 -10.8433 12.6231
H -11.9937 -10.3271 12.8224
O -2.52897 5.39383 0.256881
H -3.34877 4.85834 0.0538529
H -2.2471 5.89497 -0.561307
O -10.9411 -1.8603 -10.5676
H -11.576 -2.18779 -9.86782
H -10.2772 -1.23927 -10.151
O -5.99201 -8.38886 12.6495
H -6.20889 -8.75015 13.5563
H -5.93242 -7.39159 12.6935
O -10.292 -14.332 2.77052
H -10.4976 -13.841 1.92391
H -9.7889 -13.7303 3.39095
O 14.2346 -12.7781 0.0304253
H 14.5055 -11.8829 -0.323514
H 13.3225 -12.7143 0.435459
O -7.01969 13.7745 0.431743
H -7.91937 13.3386 0.456812
H -6.33973 13.117 0.107023
O 8.93616 -10.9023 -13.1946
H 9.65993 -11.2329 -12.5888
H 8.79909 -9.92287 -13.0465
O 3.29464 -13.4458 4.22219
H 3.40365 -14.4145 3.99917
H 3.46122 -12.8947 3.40452
O -9.49654 -11.1778 -9.96033
H -9.49637 -10.2258 -9.65419
H -8.56042 -11.5295 -9.95604
O 11.463 13.5148 8.67729
H 11.0672 12.7159 8.22447
H 11.7984 13.2529 9.58227
O 12.0759 4.24573 11.8415
H 11.097 4.09123 11.7071
H 12.4432 4.75336 11.0621
O 0.348331 -12.7663 8.0337
H 0.400368 -12.4247 8.97213
H 0.997738 -12.2664 7.46057
O -0.492213 -13.0156 13.0731
H -0.459148 -13.0395 14.0723
H -1.21231 -12.3874 12.7784
O -5.75696 -5.35513 12.3695
H -5.46092 -5.38617 11.4148
H -5.36316 -4.55086 12.8146
O -0.465767 -12.4974 -14.0225
H 0.512716 -12.59 -13.838
H -0.948371 -12.2982 -13.1695
O -9.74759 3.45373 2.3493
H -9.76461 2.54511 1.93197
H -9.39791 3.38488 3.28365
O -2.41715 12.7794 -5.40673
H -1.47827 13.0986 -5.53591
H -2.87702 12.729 -6.29331
O 3.24574 8.23855 5.2989
H 3.66686 8.29391 6.20423
H 3.84537 7.72744 4.68306
O 1.83032 -3.67792 -10.9791
H 1.76117 -2.71497 -11.2399
H 2.30983 -4.18381 -11.6962
O 10.972 -11.747 -4.32169
H 11.2876 -11.4887 -5.23473
H 11.1141 -12.7273 -4.18484
O 1.47807 14.8845 12.9117
H 1.22809 14.4109 13.7563
H 0.761743 -14.4306 12.6726
O 7.00738 12.6894 0.320784
H 6.52941 13.288 -0.322031
H 7.47325 13.2445 1.00988
O -2.55471 -7.72079 -5.76408
H -3.26228 -7.2453 -6.28686
H -2.95392 -8.09618 -4.92758
O 12.767 12.3551 -6.35401
H 13.4523 12.8312 -6.90524
H 12.7794 12.7166 -5.42171
O 1.07519 5.73673 -2.00354
H 1.89696 5.18958 -1.8443
H 0.531508 5.77341 -1.16503
O 8.72919 13.0974 -11.083
H 8.41911 12.687 -11.9406
H 9.72305 13.2059 -11.1056
O 2.16792 -10.3283 -9.18178
H 3.07686 -10.7291 -9.06679
H 1.94366 -9.7751 -8.37948
O 14.1483 6.84593 -5.25812
H 13.6629 6.41836 -4.49547
H -14.8444 6.65217 -5.18133
O 8.07534 13.2843 -8.22609
H 8.78154 13.2987 -7.5182
H 8.48873 13.0443 -9.10448
O -11.5191 13.3717 -14.957
H -11.6812 14.3275 14.7681
H -10.5619 13.1406 14.8395
O 3.7762 6.11831 -10.5022
H 3.97491 6.19779 -11.4791
H 2.78609 6.08946 -10.3647
O 4.9855 7.08988 3.47099
H 5.68769 6.38163 3.39794
H 4.49043 7.15901 2.60487
O -8.6889 -3.11135 -3.7277
H -8.67845 -3.8182 -3.0204
H -8.78262 -3.54025 -4.6262
O 6.86539 -1.67329 11.2693
H 6.12851 -1.30996 10.6992
H 6.92054 -2.66473 11.1508
O 7.96425 -5.39185 -9.54927
H 7.20248 -5.50014 -10.188
H 7.65398 -5.60119 -8.62194
O 4.46061 4.79195 0.695601
H 3.70797 5.36131 1.02635
H 5.27963 5.35459 0.582992
O -7.36074 -5.72214 0.950162
H -6.44973 -6.12526 1.03726
H -7.94896 -6.33789 0.425858
O -8.68242 13.8852 5.43218
H -9.3166 13.9362 4.66066
H -8.14969 14.73 5.48223
O -8.89315 7.45082 -2.76277
H -8.45453 8.10008 -2.1414
H -9.88549 7.49865 -2.64869
O -14.6072 -7.95432 10.4509
H -14.546 -7.07646 10.9259
H -13.6866 -8.29346 10.2573
O 5.57337 13.3739 -4.17725
H 4.83575 12.8706 -3.72706
H 6.41729 12.8392 -4.13264
O -13.1487 6.10371 0.174404
H -12.6008 6.78402 0.661212
H -12.895 5.18748 0.484543
O -8.97623 -2.92502 10.1637
H -8.70079 -1.96397 10.187
H -9.41965 -3.16569 11.0271
O 14.5173 -9.3148 13.0286
H 14.8813 -8.99167 12.155
H 13.532 -9.4638 12.9445
O -9.42835 10.1503 -6.20514
H -9.2431 9.20913 -5.92237
H -9.20873 10.2563 -7.17497
O 9.87303 -14.4063 12.9979
H 9.52053 -13.8016 13.7122
H 10.6884 -14.8783 13.3333
O 7.22176 -4.68513 -12.7387
H 8.11867 -4.79149 -13.168
H 6.96779 -5.53756 -12.2816
O 8.47513 1.99931 1.24031
H 8.96949 2.84611 1.43667
H 7.78933 2.17011 0.532821
O -14.3303 3.27791 -1.15498
H -14.611 2.99841 -2.07322
H -13.3926 2.97417 -0.986112
O 6.04251 -13.9572 -5.27159
H 6.27108 -14.692 -4.63288
H 5.86088 -14.3455 -6.17509
O 12.2069 11.325 13.7124
H 12.0215 12.1587 13.1923
H 12.9063 11.5112 14.4025
O -12.8454 -9.07011 -5.3993
H -12.202 -8.71474 -6.07732
H -12.8568 -10.0691 -5.44209
O 12.9388 5.00859 -14.1236
H 13.1583 4.06365 -13.8809
H 12.0547 5.03608 -14.5901
O -11.6923 3.36052 11.5023
H -12.4965 3.94074 11.3734
H -11.9261 2.41326 11.283
O 1.22658 -1.43611 14.3787
H 0.936277 -0.498239 14.5689
H 2.09307 -1.42213 13.8797
O 9.93672 -11.3312 -10.5303
H 9.70239 -11.513 -9.57529
H 10.3084 -10.4064 -10.6121
O 3.67592 -4.75662 -12.879
H 4.64626 -4.76466 -12.6373
H 3.57323 -4.48843 -13.8368
O 8.53979 13.2793 10.1635
H 8.85754 12.3404 10.2959
H 8.84231 13.8449 10.9308
O 10.7196 -2.49157 -5.70766
H 10.1474 -3.1192 -5.17972
H 11.467 -3.0008 -6.13441
O -7.03244 -9.20269 -5.34501
H -6.38576 -9.79427 -5.82654
H -6.79377 -8.2454 -5.50834
O 1.09974 5.82135 -10.1716
H 1.05291 6.11589 -9.21707
H 0.652336 6.5013 -10.7526
O 4.24841 -5.24616 -4.98013
H 3.44611 -5.29931 -5.57471
H 4.55132 -4.29547 -4.91322
O 9.87785 11.4384 7.30959
H 10.3876 10.9542 6.59841
H 8.95578 11.6407 6.97963
O 12.3316 0.775147 6.32827
H 12.3387 1.77417 6.37233
H 11.4499 0.463377 5.97416
O -11.5108 -12.7297 -10.5719
H -11.8753 -12.3956 -11.4411
H -10.7303 -12.167 -10.2994
O -9.1389 3.89618 7.14264
H -9.70504 3.18842 7.56524
H -9.68575 4.72191 7.00421
O 9.35492 9.06306 9.60727
H 9.06877 8.6563 8.73969
H 8.58597 9.05986 10.2466
O -13.1422 8.75139 3.07668
H -13.0879 7.79612 3.36745
H -12.397 8.94883 2.43978
O 12.476 -3.59395 -11.1877
H 11.859 -4.26993 -10.7848
H 11.9535 -2.78574 -11.4594
O -12.3855 5.97392 14.4338
H -13.2588 5.50321 14.3075
H -12.0949 5.88726 -14.584
O 9.06401 8.41952 -12.9095
H 8.51556 8.78701 -13.6607
H 9.35323 7.48855 -13.1324
O 6.26633 13.6985 14.3503
H 6.28013 13.2903 13.4375
H 5.46973 14.297 14.4358
O 9.70048 2.93572 11.1075
H 9.31037 3.06724 10.1961
H 9.01073 2.53514 11.7107
O 1.06902 4.7575 3.29096
H 0.396112 4.0224 3.37377
H 1.54191 4.87642 4.16404
O -9.10936 -4.10433 -6.20962
H -8.70719 -4.69572 -6.90859
H -9.23596 -3.18536 -6.58312
O -4.69995 -3.57937 5.99677
H -4.11332 -3.68774 5.19418
H -4.61352 -2.6476 6.34945
O -1.53629 -2.66841 7.11009
H -1.27172 -2.96529 6.19254
H -2.41021 -2.18442 7.06477
O 13.0548 -3.0698 -13.8839
H 13.5417 -3.36332 -13.0612
H 12.831 -2.09799 -13.8098
O 10.0706 -12.0219 7.01945
H 10.2174 -12.9325 7.40584
H 10.9415 -11.6535 6.69415
O 8.2356 3.67905 -7.87431
H 7.35158 3.91953 -7.47342
H 8.738 4.51406 -8.0988
O -3.73026 1.76994 9.58758
H -3.68438 2.76652 9.65657
H -3.92109 1.50978 8.64104
O 11.8631 7.86756 7.07725
H 12.2348 6.97844 6.81014
H 10.9779 8.00583 6.63307
O -5.40007 6.16009 -2.30915
H -5.56587 6.41106 -3.26286
H -5.07994 6.96179 -1.80434
O -3.17136 -9.78805 6.1494
H -2.77264 -10.1567 5.30967
H -2.95021 -10.3909 6.91602
O -0.247902 -6.13794 -13.3684
H -0.0519729 -6.85995 -12.7048
H 0.588472 -5.9057 -13.865
O 8.30282 11.5459 3.59359
H 9.29082 11.5825 3.74376
H 7.99309 10.5963 3.64344
O 5.80596 -3.39579 -1.08227
H 6.01425 -2.64716 -0.452821
H 5.70731 -3.0341 -2.00935
O -1.86866 6.44543 -5.0993
H -1.00518 5.94426 -5.04223
H -2.62429 5.7976 -5.19615
O 5.10509 -10.6748 7.55829
H 5.90065 -10.3453 8.06672
H 4.71823 -11.4708 8.02395
O 13.1368 2.14409 13.4447
H 13.6084 1.6278 12.7299
H 12.6356 2.90433 13.0313
O -10.7255 -13.2285 -2.05579
H -11.2525 -13.3461 -2.8975
H -9.80603 -12.9058 -2.28055
O 14.2806 7.21437 11.3394
H 14.6726 7.7434 12.092
H 13.3562 7.54355 11.1466
O 9.93071 10.7282 -3.32253
H 10.1538 9.817 -3.66883
H 10.7624 11.1697 -2.98573
O 1.39725 -9.0292 -6.70015
H 1.71351 -9.06846 -5.75227
H 0.484033 -9.43173 -6.76377
O 0.00147566 0.0637987 4.59875
H -0.18281 -0.809987 4.14867
H 0.422775 -0.102794 5.49026
O 6.92916 -9.83583 9.25559
H 6.99422 -8.87762 8.97697
H 7.76592 -10.3167 8.99359
O -13.2802 -8.72376 0.320035
H -12.8978 -8.88323 1.2302
H -13.4892 -7.75182 0.211879
O 12.4252 14.2906 4.23104
H 12.9791 -14.9555 3.82093
H 11.8711 13.8533 3.52273
O -0.529144 2.74848 4.37545
H -0.0897842 1.86267 4.22597
H -0.74376 2.85448 5.34639
O 6.50214 -7.90759 11.7434
H 6.75555 -8.8477 11.5154
H 6.45298 -7.80735 12.7372
O -4.86526 4.33828 -0.457185
H -4.77277 3.35481 -0.612955
H -5.01492 4.80149 -1.33073
O -9.32273 4.96868 11.5168
H -8.43219 4.52327 11.4242
H -10.0464 4.318 11.2867
O -12.9351 3.63422 5.58716
H -12.1755 3.85418 6.19923
H -12.7552 2.76174 5.13281
O 4.46096 -10.3906 -5.00087
H 3.61357 -9.94234 -4.71625
H 5.16198 -10.2534 -4.30103
O -14.0404 -9.8453 -12.9006
H -13.763 -10.7293 -13.2769
H -13.9374 -9.13816 -13.6002
O 0.729754 -1.69925 10.7678
H 0.496387 -0.750975 10.9831
H -0.105139 -2.20914 10.5604
O -6.13591 -4.20479 -9.31023
H -5.49497 -4.69812 -9.89834
H -5.62599 -3.63595 -8.6649
O 6.63251 7.79097 14.3539
H 6.74061 7.29706 -14.7539
H 5.66622 7.80519 14.0968
O -13.309 -2.34564 -2.76507
H -12.5282 -2.13011 -3.35152
H -14.1265 -1.89043 -3.11787
O -4.45937 -6.73341 -7.5757
H -4.16594 -6.0457 -8.23976
H -4.74095 -7.56322 -8.05754
O -3.22878 10.2336 7.47701
H -3.83707 10.7759 8.05664
H -3.70342 9.99087 6.63095
O -10.5647 -5.16872 6.51809
H -10.2253 -5.35737 7.43964
H -11.1351 -5.93036 6.21055
O -13.7143 1.09736 -9.11378
H -13.8499 1.95574 -8.619
H -13.3225 0.415121 -8.49644
O -7.28546 11.4137 -12.7645
H -7.83834 10.604 -12.9614
H -7.80793 12.2365 -12.9881
O 3.76227 13.5465 -7.13662
H 4.68697 13.8246 -7.39668
H 3.76069 12.5751 -6.89922
O -2.42018 -11.7334 7.8857
H -2.47188 -11.1865 8.72132
H -1.59657 -12.3001 7.90869
O -7.44316 -0.642035 13.2536
H -7.13206 0.171122 13.7455
H -7.94067 -0.364389 12.4317
O -2.35395 8.85462 12.0724
H -2.67997 9.79853 12.125
H -2.15462 8.62347 11.1201
O -4.23213 3.90868 -9.55425
H -3.23951 3.89225 -9.67452
H -4.49424 4.73706 -9.05916
O 13.1085 4.19764 -10.7952
H 13.85 4.70148 -11.2383
H 12.3542 4.82274 -10.5944
O -9.7631 4.62257 -14.0504
H -9.98316 4.09134 -14.8686
H -9.04063 5.28009 -14.2642
O -2.26864 8.43438 9.08406
H -1.40227 8.30275 8.60227
H -2.78341 9.17283 8.64847
O 13.802 -13.5373 3.50104
H 13.2306 -13.0202 2.86379
H 14.0505 -12.9542 4.27451
O -8.71519 9.1435 -0.362097
H -7.86994 9.23913 0.163686
H -9.254 8.38661 0.00780384
O 3.27394 -6.0269 -9.2986
H 2.40862 -6.08527 -9.79643
H 3.14417 -6.35949 -8.36448
O 5.45712 3.73058 -10.6586
H 4.65768 4.26199 -10.3783
H 6.12338 4.33558 -11.0946
O 6.75725 0.345668 -13.7478
H 6.88653 -0.377481 -13.0692
H 6.77482 -0.0512981 -14.6654
O -6.87004 -14.1021 5.36974