LAMMPS Description

       848 atoms
       792 bonds
      1375 angles
      1122 dihedrals
       848 impropers

        10 atom types
         9 bond types
        14 angle types
        10 dihedral types
        10 improper types

# Cell: 21.321458 21.321458 21.321458 90.0000 90.0000 90.0000
    0.000000    21.321458 xlo xhi
    0.000000    21.321458 ylo yhi
    0.000000    21.321458 zlo zhi

Masses

         1 12.01115	# c0x
         2 12.01115	# c2oe
         3 12.01115	# c3oe
         4 18.99840	# ff
         5 1.00797	# hc
         6 6.94000	# Li+
         7 14.00670	# n2-
         8 15.99940	# o=
         9 15.99940	# oc
        10 32.06400	# s'

Atoms

1 1 6 1.00000000 2.274680 4.484715 14.856199 0 0 0	# Li	Li+
2 2 1 0.60000000 9.601656 6.558944 3.053876 0 0 0	# C1	c0x
3 2 4 -0.16000000 9.641548 8.035899 3.239176 0 0 0	# F1	ff
4 2 4 -0.16000000 8.590648 5.972464 3.971006 0 0 0	# F2	ff
5 2 4 -0.16000000 10.945010 5.953167 3.340308 0 0 0	# F3	ff
6 2 10 0.64000000 9.161563 6.205133 1.380853 0 0 0	# S1	s'
7 2 8 -0.42000000 7.696148 6.754771 1.083587 0 0 0	# O1	o=
8 2 8 -0.42000000 10.201549 6.864524 0.399783 0 0 0	# O2	o=
9 2 7 -0.84000000 9.216586 4.499688 1.145926 0 0 0	# N	n2-
10 2 10 0.64000000 7.614727 3.861933 1.249571 0 0 0	# S2	s'
11 2 8 -0.42000000 7.253842 3.584220 2.777869 0 0 0	# O3	o=
12 2 8 -0.42000000 6.542794 4.891529 0.649877 0 0 0	# O4	o=
13 2 1 0.60000000 7.585681 2.310915 0.331160 0 0 0	# C2	c0x
14 2 4 -0.16000000 8.843470 2.188877 20.873982 0 0 -1	# F4	ff
15 2 4 -0.16000000 7.499948 1.178766 1.296369 0 0 0	# F5	ff
16 2 4 -0.16000000 6.423719 2.270010 20.699721 0 0 -1	# F6	ff
17 3 6 1.00000000 12.464681 15.938616 13.719718 0 0 0	# Li	Li+
18 4 1 0.60000000 3.091253 1.865334 14.252143 0 0 0	# C1	c0x
19 4 4 -0.16000000 4.234167 1.736605 15.192801 0 0 0	# F1	ff
20 4 4 -0.16000000 3.003214 3.275910 13.768225 0 0 0	# F2	ff
21 4 4 -0.16000000 1.824326 1.516822 14.971580 0 0 0	# F3	ff
22 4 10 0.64000000 3.342142 0.729809 12.826446 0 0 0	# S1	s'
23 4 8 -0.42000000 2.041973 21.160617 12.568278 0 -1 0	# O1	o=
24 4 8 -0.42000000 3.668093 1.565204 11.506159 0 0 0	# O2	o=
25 4 7 -0.84000000 4.646411 21.024661 13.145871 0 -1 0	# N	n2-
26 4 10 0.64000000 5.573637 21.060432 11.710832 0 -1 0	# S2	s'
27 4 8 -0.42000000 4.686901 20.611603 10.480097 0 -1 0	# O3	o=
28 4 8 -0.42000000 6.115629 1.203696 11.481443 0 0 0	# O4	o=
29 4 1 0.60000000 6.889907 20.000216 11.903777 0 -1 0	# C2	c0x
30 4 4 -0.16000000 6.491416 18.623668 11.515773 0 -1 0	# F4	ff
31 4 4 -0.16000000 7.991814 20.488746 11.033823 0 -1 0	# F5	ff
32 4 4 -0.16000000 7.282382 20.024563 13.340893 0 -1 0	# F6	ff
33 5 6 1.00000000 0.423753 19.274489 11.791826 0 0 0	# Li	Li+
34 6 1 0.60000000 11.835247 9.329428 12.078612 0 0 0	# C1	c0x
35 6 4 -0.16000000 12.662391 8.257155 12.694161 0 0 0	# F1	ff
36 6 4 -0.16000000 12.268636 9.539526 10.669028 0 0 0	# F2	ff
37 6 4 -0.16000000 12.012106 10.594135 12.845669 0 0 0	# F3	ff
38 6 10 0.64000000 10.109061 8.843239 12.104068 0 0 0	# S1	s'
39 6 8 -0.42000000 9.400187 9.423162 13.400567 0 0 0	# O1	o=
40 6 8 -0.42000000 9.379970 9.412585 10.813871 0 0 0	# O2	o=
41 6 7 -0.84000000 9.992946 7.081057 12.116054 0 0 0	# N	n2-
42 6 10 0.64000000 8.291916 6.618232 12.227056 0 0 0	# S2	s'
43 6 8 -0.42000000 7.393899 7.747277 11.556881 0 0 0	# O3	o=
44 6 8 -0.42000000 8.067959 5.241024 11.465927 0 0 0	# O4	o=
45 6 1 0.60000000 7.832245 6.434536 13.948341 0 0 0	# C2	c0x
46 6 4 -0.16000000 6.401867 6.812974 14.123205 0 0 0	# F4	ff
47 6 4 -0.16000000 8.026321 5.018085 14.365913 0 0 0	# F5	ff
48 6 4 -0.16000000 8.685040 7.320424 14.788769 0 0 0	# F6	ff
49 7 3 0.00100000 14.155922 21.204047 4.397599 0 0 0	# C1	c3oe
50 7 9 -0.32000000 13.653912 1.013664 3.571148 0 1 0	# O1	oc
51 7 2 0.05400000 14.750974 1.492194 2.693876 0 1 0	# C2	c2oe
52 7 2 0.05400000 14.303577 1.397926 1.230217 0 1 0	# C3	c2oe
53 7 9 -0.32000000 13.929645 21.310549 0.922556 0 0 0	# O2	oc
54 7 3 0.00100000 12.450870 21.249829 0.724840 0 0 0	# C4	c3oe
55 7 5 0.05300000 13.367566 20.872355 5.054905 0 0 0	# H1	hc
56 7 5 0.05300000 15.010224 0.214297 4.987492 0 1 0	# H2	hc
57 7 5 0.05300000 14.458428 20.382968 3.749533 0 0 0	# H3	hc
58 7 5 0.05300000 15.637812 0.882069 2.842743 0 1 0	# H4	hc
59 7 5 0.05300000 14.970604 2.524477 2.945750 0 1 0	# H5	hc
60 7 5 0.05300000 15.120868 1.702299 0.578375 0 1 0	# H6	hc
61 7 5 0.05300000 13.445332 2.045530 1.067152 0 1 0	# H7	hc
62 7 5 0.05300000 12.145996 20.225476 0.613929 0 0 0	# H8	hc
63 7 5 0.05300000 12.184486 0.485304 21.151211 0 1 -1	# H9	hc
64 7 5 0.05300000 11.948489 0.364823 1.588516 0 1 0	# H10	hc
65 8 3 0.00100000 10.920623 2.908400 4.544986 0 0 0	# C1	c3oe
66 8 9 -0.32000000 11.052946 1.661972 5.369176 0 0 0	# O1	oc
67 8 2 0.05400000 10.923175 2.010603 6.823041 0 0 0	# C2	c2oe
68 8 2 0.05400000 10.890227 0.718018 7.665366 0 0 0	# C3	c2oe
69 8 9 -0.32000000 10.774965 1.072401 9.115641 0 0 0	# O2	oc
70 8 3 0.00100000 12.098429 0.848592 9.786779 0 0 0	# C4	c3oe
71 8 5 0.05300000 11.051847 2.662989 3.491438 0 0 0	# H1	hc
72 8 5 0.05300000 11.681983 3.628047 4.848152 0 0 0	# H2	hc
73 8 5 0.05300000 9.931848 3.339966 4.696943 0 0 0	# H3	hc
74 8 5 0.05300000 9.999428 2.567153 6.979330 0 0 0	# H4	hc
75 8 5 0.05300000 11.771549 2.623501 7.128360 0 0 0	# H5	hc
76 8 5 0.05300000 11.804111 0.152110 7.505813 0 0 0	# H6	hc
77 8 5 0.05300000 10.033290 0.113176 7.368783 0 0 0	# H7	hc
78 8 5 0.05300000 12.009668 1.067064 10.849553 0 0 0	# H8	hc
79 8 5 0.05300000 12.846945 1.502586 9.342650 0 0 0	# H9	hc
80 8 5 0.05300000 12.399374 21.137143 9.654992 0 -1 0	# H10	hc
81 9 3 0.00100000 16.847975 16.867884 11.862523 0 0 0	# C1	c3oe
82 9 9 -0.32000000 15.623074 16.983413 11.023891 0 0 0	# O1	oc
83 9 2 0.05400000 15.610393 18.324047 10.369545 0 0 0	# C2	c2oe
84 9 2 0.05400000 14.596949 18.315149 9.239268 0 0 0	# C3	c2oe
85 9 9 -0.32000000 13.234701 18.046316 9.792005 0 0 0	# O2	oc
86 9 3 0.00100000 12.502697 19.341645 9.957593 0 0 0	# C4	c3oe
87 9 5 0.05300000 17.113874 15.818977 11.975623 0 0 0	# H1	hc
88 9 5 0.05300000 16.655039 17.301517 12.838491 0 0 0	# H2	hc
89 9 5 0.05300000 17.668065 17.402557 11.382638 0 0 0	# H3	hc
90 9 5 0.05300000 16.598984 18.547440 9.969929 0 0 0	# H4	hc
91 9 5 0.05300000 15.331443 19.080893 11.099548 0 0 0	# H5	hc
92 9 5 0.05300000 14.862611 17.530951 8.537845 0 0 0	# H6	hc
93 9 5 0.05300000 14.604281 19.277975 8.735403 0 0 0	# H7	hc
94 9 5 0.05300000 11.534691 19.157713 10.422421 0 0 0	# H8	hc
95 9 5 0.05300000 12.354757 19.799673 8.980042 0 0 0	# H9	hc
96 9 5 0.05300000 13.087662 20.010034 10.589873 0 0 0	# H10	hc
97 10 3 0.00100000 0.598113 2.238775 17.249101 0 0 0	# C1	c3oe
98 10 9 -0.32000000 0.438058 2.292796 18.745266 0 0 0	# O1	oc
99 10 2 0.05400000 0.272238 0.896877 19.262166 0 0 0	# C2	c2oe
100 10 2 0.05400000 1.558728 0.099100 18.990126 0 0 0	# C3	c2oe
101 10 9 -0.32000000 2.507363 0.941646 18.193512 0 0 0	# O2	oc
102 10 3 0.00100000 3.413979 1.676795 19.143716 0 0 0	# C4	c3oe
103 10 5 0.05300000 0.675618 3.249627 16.852390 0 0 0	# H1	hc
104 10 5 0.05300000 21.055059 1.740891 16.808015 -1 0 0	# H2	hc
105 10 5 0.05300000 1.501047 1.681740 17.001586 0 0 0	# H3	hc
106 10 5 0.05300000 20.748315 0.417053 18.772494 -1 0 0	# H4	hc
107 10 5 0.05300000 0.097443 0.933453 20.336895 0 0 0	# H5	hc
108 10 5 0.05300000 1.310249 20.525813 18.418837 0 -1 0	# H6	hc
109 10 5 0.05300000 2.021584 21.133053 19.930868 0 -1 0	# H7	hc
110 10 5 0.05300000 4.097780 2.311285 18.581891 0 0 0	# H8	hc
111 10 5 0.05300000 3.984178 0.957094 19.726000 0 0 0	# H9	hc
112 10 5 0.05300000 2.814626 2.293436 19.816164 0 0 0	# H10	hc
113 11 3 0.00100000 8.543363 19.709505 0.783426 0 0 0	# C1	c3oe
114 11 9 -0.32000000 9.892941 19.324083 1.307165 0 0 0	# O1	oc
115 11 2 0.05400000 10.844785 18.936893 0.187766 0 0 0	# C2	c2oe
116 11 2 0.05400000 10.769564 19.946018 20.331004 0 0 -1	# C3	c2oe
117 11 9 -0.32000000 9.442072 19.847077 19.661093 0 0 -1	# O2	oc
118 11 3 0.00100000 9.600174 18.944740 18.462438 0 0 -1	# C4	c3oe
119 11 5 0.05300000 7.960443 20.157365 1.593176 0 0 0	# H1	hc
120 11 5 0.05300000 8.029289 18.823767 0.416471 0 0 0	# H2	hc
121 11 5 0.05300000 8.653420 20.430123 21.298578 0 0 -1	# H3	hc
122 11 5 0.05300000 10.565233 17.951605 21.140380 0 0 -1	# H4	hc
123 11 5 0.05300000 11.860953 18.892142 0.569870 0 0 0	# H5	hc
124 11 5 0.05300000 11.558468 19.729344 19.610710 0 0 -1	# H6	hc
125 11 5 0.05300000 10.898187 20.958783 20.713346 0 0 -1	# H7	hc
126 11 5 0.05300000 8.648245 18.846793 17.946222 0 0 -1	# H8	hc
127 11 5 0.05300000 9.938248 17.960832 18.793093 0 0 -1	# H9	hc
128 11 5 0.05300000 10.341432 19.370355 17.781905 0 0 -1	# H10	hc
129 12 3 0.00100000 16.332892 18.390128 3.652419 0 0 0	# C1	c3oe
130 12 9 -0.32000000 16.855395 19.696230 3.115615 0 0 0	# O1	oc
131 12 2 0.05400000 16.904717 20.759623 4.204119 0 0 0	# C2	c2oe
132 12 2 0.05400000 16.694029 20.126844 5.611060 0 0 0	# C3	c2oe
133 12 9 -0.32000000 16.772865 21.201663 6.692713 0 0 0	# O2	oc
134 12 3 0.00100000 15.371534 0.297819 7.123704 0 1 0	# C4	c3oe
135 12 5 0.05300000 16.690561 17.571126 3.022678 0 0 0	# H1	hc
136 12 5 0.05300000 15.243280 18.401063 3.643487 0 0 0	# H2	hc
137 12 5 0.05300000 16.687037 18.245113 4.668144 0 0 0	# H3	hc
138 12 5 0.05300000 16.124711 0.165785 4.019902 0 1 0	# H4	hc
139 12 5 0.05300000 17.871948 21.258624 4.172567 0 0 0	# H5	hc
140 12 5 0.05300000 17.466289 19.382639 5.789276 0 0 0	# H6	hc
141 12 5 0.05300000 15.717102 19.650873 5.648667 0 0 0	# H7	hc
142 12 5 0.05300000 15.389147 0.839684 8.084443 0 1 0	# H8	hc
143 12 5 0.05300000 14.768794 20.749408 7.240568 0 0 0	# H9	hc
144 12 5 0.05300000 14.954547 0.943716 6.362159 0 1 0	# H10	hc
145 13 3 0.00100000 5.952792 9.810232 19.314550 0 0 0	# C1	c3oe
146 13 9 -0.32000000 7.045408 8.807104 19.237015 0 0 0	# O1	oc
147 13 2 0.05400000 7.753795 8.816744 20.533041 0 0 0	# C2	c2oe
148 13 2 0.05400000 8.636172 7.594408 20.653166 0 0 0	# C3	c2oe
149 13 9 -0.32000000 9.686382 7.608685 19.568382 0 0 0	# O2	oc
150 13 3 0.00100000 9.532213 6.400042 18.681948 0 0 0	# C4	c3oe
151 13 5 0.05300000 5.150832 9.525975 18.643242 0 0 0	# H1	hc
152 13 5 0.05300000 6.340895 10.786679 19.031047 0 0 0	# H2	hc
153 13 5 0.05300000 5.574650 9.852785 20.338493 0 0 0	# H3	hc
154 13 5 0.05300000 7.028660 8.819049 0.023849 0 0 1	# H4	hc
155 13 5 0.05300000 8.371927 9.711385 20.596513 0 0 0	# H5	hc
156 13 5 0.05300000 8.030327 6.694881 20.560957 0 0 0	# H6	hc
157 13 5 0.05300000 9.099094 7.617341 0.296343 0 0 1	# H7	hc
158 13 5 0.05300000 10.393481 6.326317 18.015648 0 0 0	# H8	hc
159 13 5 0.05300000 8.623866 6.496338 18.089525 0 0 0	# H9	hc
160 13 5 0.05300000 9.471062 5.502618 19.294466 0 0 0	# H10	hc
161 14 3 0.00100000 7.288764 18.504014 4.139414 0 0 0	# C1	c3oe
162 14 9 -0.32000000 8.165142 17.479085 4.785982 0 0 0	# O1	oc
163 14 2 0.05400000 8.826116 18.090713 5.977560 0 0 0	# C2	c2oe
164 14 2 0.05400000 7.776617 18.328602 7.077839 0 0 0	# C3	c2oe
165 14 9 -0.32000000 7.171222 17.013884 7.483377 0 0 0	# O2	oc
166 14 3 0.00100000 6.295479 17.210384 8.687179 0 0 0	# C4	c3oe
167 14 5 0.05300000 6.901921 18.111601 3.201125 0 0 0	# H1	hc
168 14 5 0.05300000 7.868942 19.406392 3.945525 0 0 0	# H2	hc
169 14 5 0.05300000 6.459191 18.742176 4.804008 0 0 0	# H3	hc
170 14 5 0.05300000 9.281769 19.039828 5.695498 0 0 0	# H4	hc
171 14 5 0.05300000 9.590963 17.417753 6.347371 0 0 0	# H5	hc
172 14 5 0.05300000 6.994887 18.983958 6.694882 0 0 0	# H6	hc
173 14 5 0.05300000 8.251212 18.795454 7.938720 0 0 0	# H7	hc
174 14 5 0.05300000 6.274201 16.294717 9.274793 0 0 0	# H8	hc
175 14 5 0.05300000 5.287796 17.453748 8.364786 0 0 0	# H9	hc
176 14 5 0.05300000 6.689070 18.022716 9.295981 0 0 0	# H10	hc
177 15 3 0.00100000 0.206335 4.606479 21.212501 0 0 0	# C1	c3oe
178 15 9 -0.32000000 1.356822 3.819686 0.434672 0 0 1	# O1	oc
179 15 2 0.05400000 2.547949 4.708710 0.513836 0 0 1	# C2	c2oe
180 15 2 0.05400000 2.210737 5.931687 1.385183 0 0 1	# C3	c2oe
181 15 9 -0.32000000 1.859227 5.467275 2.762857 0 0 1	# O2	oc
182 15 3 0.00100000 2.996014 4.653864 3.305681 0 0 1	# C4	c3oe
183 15 5 0.05300000 20.674563 3.960607 21.102173 -1 0 0	# H1	hc
184 15 5 0.05300000 0.474384 5.023344 20.241295 0 0 0	# H2	hc
185 15 5 0.05300000 21.284014 5.413560 0.577486 -1 0 1	# H3	hc
186 15 5 0.05300000 2.816981 5.031095 20.844385 0 0 0	# H4	hc
187 15 5 0.05300000 3.379357 4.164991 0.956028 0 0 1	# H5	hc
188 15 5 0.05300000 1.362376 6.463740 0.953444 0 0 1	# H6	hc
189 15 5 0.05300000 3.071601 6.597477 1.432277 0 0 1	# H7	hc
190 15 5 0.05300000 2.724221 4.252583 4.279903 0 0 1	# H8	hc
191 15 5 0.05300000 3.878183 5.286216 3.405598 0 0 1	# H9	hc
192 15 5 0.05300000 3.213868 3.832822 2.622843 0 0 1	# H10	hc
193 16 3 0.00100000 13.739174 17.539022 18.241662 0 0 0	# C1	c3oe
194 16 9 -0.32000000 14.316566 16.178459 17.983482 0 0 0	# O1	oc
195 16 2 0.05400000 15.784680 16.249110 18.214319 0 0 0	# C2	c2oe
196 16 2 0.05400000 16.502546 16.431388 16.868744 0 0 0	# C3	c2oe
197 16 9 -0.32000000 15.952446 17.646551 16.173975 0 0 0	# O2	oc
198 16 3 0.00100000 16.540959 17.755014 14.795585 0 0 0	# C4	c3oe
199 16 5 0.05300000 12.697342 17.562138 17.928957 0 0 0	# H1	hc
200 16 5 0.05300000 14.304237 18.284556 17.680133 0 0 0	# H2	hc
201 16 5 0.05300000 13.805693 17.762045 19.306333 0 0 0	# H3	hc
202 16 5 0.05300000 16.120176 15.323485 18.679735 0 0 0	# H4	hc
203 16 5 0.05300000 16.010578 17.088265 18.869915 0 0 0	# H5	hc
204 16 5 0.05300000 16.359845 15.547835 16.247117 0 0 0	# H6	hc
205 16 5 0.05300000 17.565981 16.578290 17.054331 0 0 0	# H7	hc
206 16 5 0.05300000 15.751955 17.990830 14.079921 0 0 0	# H8	hc
207 16 5 0.05300000 17.007686 16.810047 14.521856 0 0 0	# H9	hc
208 16 5 0.05300000 17.289378 18.546527 14.783888 0 0 0	# H10	hc
209 17 3 0.00100000 2.500252 18.899163 1.742927 0 0 0	# C1	c3oe
210 17 9 -0.32000000 1.741503 20.115979 2.200317 0 0 0	# O1	oc
211 17 2 0.05400000 2.361010 20.646595 3.460495 0 0 0	# C2	c2oe
212 17 2 0.05400000 1.261986 20.894764 4.516205 0 0 0	# C3	c2oe
213 17 9 -0.32000000 0.515939 19.614555 4.806304 0 0 0	# O2	oc
214 17 3 0.00100000 1.452085 18.439960 4.762838 0 0 0	# C4	c3oe
215 17 5 0.05300000 1.968659 18.428890 0.916817 0 0 0	# H1	hc
216 17 5 0.05300000 2.586806 18.193186 2.564311 0 0 0	# H2	hc
217 17 5 0.05300000 3.494927 19.192830 1.413725 0 0 0	# H3	hc
218 17 5 0.05300000 2.867220 0.267469 3.242797 0 1 0	# H4	hc
219 17 5 0.05300000 3.083735 19.929174 3.844248 0 0 0	# H5	hc
220 17 5 0.05300000 0.563479 0.323145 4.144099 0 1 0	# H6	hc
221 17 5 0.05300000 1.723348 21.257028 5.433014 0 0 0	# H7	hc
222 17 5 0.05300000 0.873351 17.519361 4.678814 0 0 0	# H8	hc
223 17 5 0.05300000 2.046954 18.410821 5.673534 0 0 0	# H9	hc
224 17 5 0.05300000 2.108209 18.531861 3.907650 0 0 0	# H10	hc
225 18 3 0.00100000 16.062881 0.526667 14.757224 0 0 0	# C1	c3oe
226 18 9 -0.32000000 15.318165 0.621189 13.458018 0 0 0	# O1	oc
227 18 2 0.05400000 14.113773 21.040860 13.490951 0 -1 0	# C2	c2oe
228 18 2 0.05400000 13.757147 20.696807 14.950018 0 -1 0	# C3	c2oe
229 18 9 -0.32000000 13.461627 0.636807 15.704615 0 0 0	# O2	oc
230 18 3 0.00100000 13.667194 0.399506 17.172318 0 0 0	# C4	c3oe
231 18 5 0.05300000 17.086630 0.871435 14.615381 0 0 0	# H1	hc
232 18 5 0.05300000 16.073446 20.816992 15.093527 0 -1 0	# H2	hc
233 18 5 0.05300000 15.571591 1.148329 15.504578 0 0 0	# H3	hc
234 18 5 0.05300000 14.333759 20.122344 12.946114 0 -1 0	# H4	hc
235 18 5 0.05300000 13.270615 0.225023 13.021876 0 0 0	# H5	hc
236 18 5 0.05300000 14.592050 20.181148 15.417041 0 -1 0	# H6	hc
237 18 5 0.05300000 12.878691 20.051097 14.965517 0 -1 0	# H7	hc
238 18 5 0.05300000 13.236533 1.223447 17.736055 0 0 0	# H8	hc
239 18 5 0.05300000 14.734121 0.333353 17.385025 0 0 0	# H9	hc
240 18 5 0.05300000 13.180511 20.790083 17.461557 0 -1 0	# H10	hc
241 19 3 0.00100000 2.191129 12.152940 2.019716 0 0 0	# C1	c3oe
242 19 9 -0.32000000 3.231257 12.873680 1.213633 0 0 0	# O1	oc
243 19 2 0.05400000 4.029988 13.845428 2.064638 0 0 0	# C2	c2oe
244 19 2 0.05400000 3.298286 15.212064 2.132327 0 0 0	# C3	c2oe
245 19 9 -0.32000000 4.174233 16.239424 2.839805 0 0 0	# O2	oc
246 19 3 0.00100000 4.053022 16.156209 4.337835 0 0 0	# C4	c3oe
247 19 5 0.05300000 1.627488 11.490125 1.361235 0 0 0	# H1	hc
248 19 5 0.05300000 1.513442 12.874068 2.471624 0 0 0	# H2	hc
249 19 5 0.05300000 2.672040 11.563074 2.797842 0 0 0	# H3	hc
250 19 5 0.05300000 5.018263 13.983912 1.629846 0 0 0	# H4	hc
251 19 5 0.05300000 4.132447 13.439942 3.072930 0 0 0	# H5	hc
252 19 5 0.05300000 2.364239 15.093957 2.681836 0 0 0	# H6	hc
253 19 5 0.05300000 3.078548 15.554721 1.122531 0 0 0	# H7	hc
254 19 5 0.05300000 4.600306 16.987564 4.787000 0 0 0	# H8	hc
255 19 5 0.05300000 4.478891 15.221862 4.686951 0 0 0	# H9	hc
256 19 5 0.05300000 3.005001 16.215719 4.628096 0 0 0	# H10	hc
257 20 3 0.00100000 18.174106 8.292782 17.367310 0 0 0	# C1	c3oe
258 20 9 -0.32000000 19.060101 7.457075 16.493531 0 0 0	# O1	oc
259 20 2 0.05400000 20.350335 8.183042 16.272403 0 0 0	# C2	c2oe
260 20 2 0.05400000 20.648992 8.263439 14.771038 0 0 0	# C3	c2oe
261 20 9 -0.32000000 0.615536 8.998345 14.566109 1 0 0	# O2	oc
262 20 3 0.00100000 0.837198 9.213372 13.103462 1 0 0	# C4	c3oe
263 20 5 0.05300000 17.271979 7.736070 17.612102 0 0 0	# H1	hc
264 20 5 0.05300000 17.904549 9.207524 16.839970 0 0 0	# H2	hc
265 20 5 0.05300000 18.704695 8.544942 18.284708 0 0 0	# H3	hc
266 20 5 0.05300000 21.157600 7.650793 16.775261 0 0 0	# H4	hc
267 20 5 0.05300000 20.271938 9.190556 16.675658 0 0 0	# H5	hc
268 20 5 0.05300000 19.843999 8.794708 14.268663 0 0 0	# H6	hc
269 20 5 0.05300000 20.733487 7.257381 14.360906 0 0 0	# H7	hc
270 20 5 0.05300000 1.763894 9.764350 12.955375 1 0 0	# H8	hc
271 20 5 0.05300000 0.005344 9.782596 12.689278 1 0 0	# H9	hc
272 20 5 0.05300000 0.903501 8.249273 12.601862 1 0 0	# H10	hc
273 21 3 0.00100000 3.156140 8.467220 18.101284 0 0 0	# C1	c3oe
274 21 9 -0.32000000 2.396470 7.263142 18.549176 0 0 0	# O1	oc
275 21 2 0.05400000 3.374243 6.210268 18.938159 0 0 0	# C2	c2oe
276 21 2 0.05400000 3.114804 4.938809 18.113951 0 0 0	# C3	c2oe
277 21 9 -0.32000000 3.215373 5.271989 16.660713 0 0 0	# O2	oc
278 21 3 0.00100000 1.998730 6.057751 16.263179 0 0 0	# C4	c3oe
279 21 5 0.05300000 2.483173 9.155537 17.596632 0 0 0	# H1	hc
280 21 5 0.05300000 3.948078 8.160803 17.414482 0 0 0	# H2	hc
281 21 5 0.05300000 3.596632 8.957639 18.968086 0 0 0	# H3	hc
282 21 5 0.05300000 3.257200 5.992821 19.986552 0 0 0	# H4	hc
283 21 5 0.05300000 4.385498 6.565756 18.754433 0 0 0	# H5	hc
284 21 5 0.05300000 2.119456 4.552417 18.332911 0 0 0	# H6	hc
285 21 5 0.05300000 3.862127 4.186429 18.365071 0 0 0	# H7	hc
286 21 5 0.05300000 2.032758 6.270099 15.196147 0 0 0	# H8	hc
287 21 5 0.05300000 1.974511 6.994094 16.818201 0 0 0	# H9	hc
288 21 5 0.05300000 1.103138 5.478503 16.491071 0 0 0	# H10	hc
289 22 3 0.00100000 16.669508 19.539991 16.593994 0 0 0	# C1	c3oe
290 22 9 -0.32000000 17.340009 18.230142 16.896346 0 0 0	# O1	oc
291 22 2 0.05400000 18.563599 18.498210 17.706112 0 0 0	# C2	c2oe
292 22 2 0.05400000 19.618194 17.406532 17.445751 0 0 0	# C3	c2oe
293 22 9 -0.32000000 19.855056 17.274537 15.980406 0 0 0	# O2	oc
294 22 3 0.00100000 19.104395 16.059280 15.506282 0 0 0	# C4	c3oe
295 22 5 0.05300000 16.017331 19.427162 15.729282 0 0 0	# H1	hc
296 22 5 0.05300000 17.427578 20.298016 16.382114 0 0 0	# H2	hc
297 22 5 0.05300000 16.080952 19.848510 17.455238 0 0 0	# H3	hc
298 22 5 0.05300000 18.288283 18.474533 18.760311 0 0 0	# H4	hc
299 22 5 0.05300000 18.967222 19.476097 17.459026 0 0 0	# H5	hc
300 22 5 0.05300000 19.279598 16.456227 17.850699 0 0 0	# H6	hc
301 22 5 0.05300000 20.552168 17.695021 17.929261 0 0 0	# H7	hc
302 22 5 0.05300000 19.337605 15.863665 14.463135 0 0 0	# H8	hc
303 22 5 0.05300000 18.035187 16.230964 15.612570 0 0 0	# H9	hc
304 22 5 0.05300000 19.392488 15.198595 16.112249 0 0 0	# H10	hc
305 23 3 0.00100000 16.084732 17.576770 6.782441 0 0 0	# C1	c3oe
306 23 9 -0.32000000 14.940458 18.166720 6.005917 0 0 0	# O1	oc
307 23 2 0.05400000 13.871076 18.622599 6.954530 0 0 0	# C2	c2oe
308 23 2 0.05400000 12.524608 18.677378 6.237075 0 0 0	# C3	c2oe
309 23 9 -0.32000000 12.600751 19.631531 5.096003 0 0 0	# O2	oc
310 23 3 0.00100000 12.202255 18.933755 3.839729 0 0 0	# C4	c3oe
311 23 5 0.05300000 16.746793 17.050624 6.100315 0 0 0	# H1	hc
312 23 5 0.05300000 15.699941 16.879161 7.523537 0 0 0	# H2	hc
313 23 5 0.05300000 16.638319 18.372759 7.285199 0 0 0	# H3	hc
314 23 5 0.05300000 14.113973 19.598952 7.327409 0 0 0	# H4	hc
315 23 5 0.05300000 13.800202 17.932980 7.777990 0 0 0	# H5	hc
316 23 5 0.05300000 11.758628 19.009809 6.935987 0 0 0	# H6	hc
317 23 5 0.05300000 12.275031 17.688549 5.866050 0 0 0	# H7	hc
318 23 5 0.05300000 12.011622 19.670597 3.061370 0 0 0	# H8	hc
319 23 5 0.05300000 11.299627 18.353111 4.019838 0 0 0	# H9	hc
320 23 5 0.05300000 13.005606 18.269349 3.523616 0 0 0	# H10	hc
321 24 3 0.00100000 19.866557 0.032890 14.519405 0 0 0	# C1	c3oe
322 24 9 -0.32000000 20.028931 0.464249 13.107813 0 0 0	# O1	oc
323 24 2 0.05400000 0.060968 0.981959 12.975659 1 0 0	# C2	c2oe
324 24 2 0.05400000 0.953235 0.132881 13.854902 1 0 0	# C3	c2oe
325 24 9 -0.32000000 2.287934 0.688096 13.797318 1 0 0	# O2	oc
326 24 3 0.00100000 2.290797 1.826212 12.772577 1 0 0	# C4	c3oe
327 24 5 0.05300000 18.814018 21.278959 14.760135 0 -1 0	# H1	hc
328 24 5 0.05300000 20.338736 0.767038 15.174674 0 0 0	# H2	hc
329 24 5 0.05300000 20.345901 20.385540 14.655853 0 -1 0	# H3	hc
330 24 5 0.05300000 0.098344 2.020436 13.305419 1 0 0	# H4	hc
331 24 5 0.05300000 0.389750 0.910615 11.934460 1 0 0	# H5	hc
332 24 5 0.05300000 0.964429 20.426265 13.480889 1 -1 0	# H6	hc
333 24 5 0.05300000 0.589635 0.146583 14.877661 1 0 0	# H7	hc
334 24 5 0.05300000 3.284878 2.284642 12.733597 1 0 0	# H8	hc
335 24 5 0.05300000 1.560351 2.574944 13.056890 1 0 0	# H9	hc
336 24 5 0.05300000 2.039657 1.427067 11.787224 1 0 0	# H10	hc
337 25 3 0.00100000 11.579663 8.138295 16.454877 0 0 0	# C1	c3oe
338 25 9 -0.32000000 12.442775 8.062067 15.234664 0 0 0	# O1	oc
339 25 2 0.05400000 12.923224 6.654648 15.040959 0 0 0	# C2	c2oe
340 25 2 0.05400000 14.091343 6.655503 14.041018 0 0 0	# C3	c2oe
341 25 9 -0.32000000 14.542820 5.254264 13.800566 0 0 0	# O2	oc
342 25 3 0.00100000 13.793403 4.710059 12.622261 0 0 0	# C4	c3oe
343 25 5 0.05300000 10.876494 8.962977 16.350187 0 0 0	# H1	hc
344 25 5 0.05300000 12.205529 8.304323 17.330024 0 0 0	# H2	hc
345 25 5 0.05300000 11.029828 7.205486 16.571495 0 0 0	# H3	hc
346 25 5 0.05300000 12.111465 6.035437 14.657006 0 0 0	# H4	hc
347 25 5 0.05300000 13.264769 6.255028 15.995973 0 0 0	# H5	hc
348 25 5 0.05300000 14.917335 7.237892 14.448755 0 0 0	# H6	hc
349 25 5 0.05300000 13.765892 7.096363 13.102140 0 0 0	# H7	hc
350 25 5 0.05300000 14.116651 3.691308 12.422969 0 0 0	# H8	hc
351 25 5 0.05300000 13.990752 5.332637 11.748453 0 0 0	# H9	hc
352 25 5 0.05300000 12.724470 4.717285 12.838242 0 0 0	# H10	hc
353 26 3 0.00100000 13.012648 3.205301 18.288817 0 0 0	# C1	c3oe
354 26 9 -0.32000000 11.876944 2.427075 17.695500 0 0 0	# O1	oc
355 26 2 0.05400000 10.782828 3.370358 17.287130 0 0 0	# C2	c2oe
356 26 2 0.05400000 9.573607 2.563263 16.780157 0 0 0	# C3	c2oe
357 26 9 -0.32000000 9.078597 1.662426 17.872293 0 0 0	# O2	oc
358 26 3 0.00100000 9.775925 2.002359 19.155515 0 0 0	# C4	c3oe
359 26 5 0.05300000 13.559711 2.575178 18.991771 0 0 0	# H1	hc
360 26 5 0.05300000 12.622066 4.073337 18.808658 0 0 0	# H2	hc
361 26 5 0.05300000 13.682232 3.530276 17.495830 0 0 0	# H3	hc
362 26 5 0.05300000 11.143600 4.021831 16.491697 0 0 0	# H4	hc
363 26 5 0.05300000 10.483505 3.974439 18.143441 0 0 0	# H5	hc
364 26 5 0.05300000 9.872523 1.962471 15.922154 0 0 0	# H6	hc
365 26 5 0.05300000 8.777885 3.247300 16.485224 0 0 0	# H7	hc
366 26 5 0.05300000 9.597351 1.213270 19.884663 0 0 0	# H8	hc
367 26 5 0.05300000 9.391026 2.947387 19.537930 0 0 0	# H9	hc
368 26 5 0.05300000 10.844480 2.092960 18.976842 0 0 0	# H10	hc
369 27 3 0.00100000 10.227342 10.538924 14.925990 0 0 0	# C1	c3oe
370 27 9 -0.32000000 11.491795 11.310266 14.990263 0 0 0	# O1	oc
371 27 2 0.05400000 11.266021 12.641654 15.629925 0 0 0	# C2	c2oe
372 27 2 0.05400000 12.115079 12.721426 16.901090 0 0 0	# C3	c2oe
373 27 9 -0.32000000 12.031214 14.091154 17.458359 0 0 0	# O2	oc
374 27 3 0.00100000 13.058055 14.921457 16.746292 0 0 0	# C4	c3oe
375 27 5 0.05300000 10.425613 9.583108 14.449400 0 0 0	# H1	hc
376 27 5 0.05300000 9.489063 11.093351 14.345352 0 0 0	# H2	hc
377 27 5 0.05300000 9.850741 10.370690 15.931840 0 0 0	# H3	hc
378 27 5 0.05300000 10.208979 12.744240 15.893635 0 0 0	# H4	hc
379 27 5 0.05300000 11.549560 13.439321 14.944380 0 0 0	# H5	hc
380 27 5 0.05300000 13.149308 12.484362 16.664415 0 0 0	# H6	hc
381 27 5 0.05300000 11.735565 12.008889 17.636034 0 0 0	# H7	hc
382 27 5 0.05300000 12.970531 15.957885 17.053784 0 0 0	# H8	hc
383 27 5 0.05300000 12.899128 14.846324 15.669327 0 0 0	# H9	hc
384 27 5 0.05300000 14.055197 14.549278 16.989448 0 0 0	# H10	hc
385 28 3 0.00100000 11.564264 17.351094 11.874064 0 0 0	# C1	c3oe
386 28 9 -0.32000000 10.296958 17.642821 11.124499 0 0 0	# O1	oc
387 28 2 0.05400000 10.500357 17.326795 9.673025 0 0 0	# C2	c2oe
388 28 2 0.05400000 11.649889 16.304591 9.533271 0 0 0	# C3	c2oe
389 28 9 -0.32000000 11.890077 15.993141 8.082711 0 0 0	# O2	oc
390 28 3 0.00100000 10.771791 16.542754 7.253099 0 0 0	# C4	c3oe
391 28 5 0.05300000 11.527569 17.828182 12.852251 0 0 0	# H1	hc
392 28 5 0.05300000 12.414462 17.737761 11.314773 0 0 0	# H2	hc
393 28 5 0.05300000 11.671650 16.274241 11.998203 0 0 0	# H3	hc
394 28 5 0.05300000 10.750760 18.239768 9.131847 0 0 0	# H4	hc
395 28 5 0.05300000 9.583868 16.901167 9.264415 0 0 0	# H5	hc
396 28 5 0.05300000 11.382790 15.389575 10.057838 0 0 0	# H6	hc
397 28 5 0.05300000 12.553987 16.713767 9.968857 0 0 0	# H7	hc
398 28 5 0.05300000 11.083325 16.588558 6.208964 0 0 0	# H8	hc
399 28 5 0.05300000 10.518280 17.543736 7.601198 0 0 0	# H9	hc
400 28 5 0.05300000 9.901502 15.895086 7.342941 0 0 0	# H10	hc
401 29 3 0.00100000 1.192455 20.297108 7.159531 0 0 0	# C1	c3oe
402 29 9 -0.32000000 2.484188 21.040174 7.314455 0 0 0	# O1	oc
403 29 2 0.05400000 3.403646 20.266484 8.197845 0 0 0	# C2	c2oe
404 29 2 0.05400000 4.263417 19.321427 7.352344 0 0 0	# C3	c2oe
405 29 9 -0.32000000 5.027389 20.103489 6.323766 0 0 0	# O2	oc
406 29 3 0.00100000 5.392206 0.128523 6.869701 0 1 0	# C4	c3oe
407 29 5 0.05300000 0.495575 20.899889 6.578564 0 0 0	# H1	hc
408 29 5 0.05300000 0.765622 20.093956 8.141453 0 0 0	# H2	hc
409 29 5 0.05300000 1.376533 19.359892 6.644952 0 0 0	# H3	hc
410 29 5 0.05300000 2.814336 19.680331 8.878175 0 0 0	# H4	hc
411 29 5 0.05300000 4.043214 20.947737 8.760365 0 0 0	# H5	hc
412 29 5 0.05300000 3.624688 18.589334 6.860230 0 0 0	# H6	hc
413 29 5 0.05300000 4.965857 18.809119 8.001041 0 0 0	# H7	hc
414 29 5 0.05300000 5.612260 0.804940 6.044171 0 1 0	# H8	hc
415 29 5 0.05300000 6.270495 0.035542 7.506314 0 1 0	# H9	hc
416 29 5 0.05300000 4.561678 0.524740 7.451154 0 1 0	# H10	hc
417 30 3 0.00100000 5.858011 15.655423 13.152379 0 0 0	# C1	c3oe
418 30 9 -0.32000000 6.690987 15.195355 14.309033 0 0 0	# O1	oc
419 30 2 0.05400000 6.392394 16.054770 15.498971 0 0 0	# C2	c2oe
420 30 2 0.05400000 6.497143 15.213038 16.782806 0 0 0	# C3	c2oe
421 30 9 -0.32000000 7.889958 14.683520 16.910371 0 0 0	# O2	oc
422 30 3 0.00100000 8.859228 15.797763 16.649662 0 0 0	# C4	c3oe
423 30 5 0.05300000 5.833875 14.879074 12.389547 0 0 0	# H1	hc
424 30 5 0.05300000 6.289839 16.563535 12.733382 0 0 0	# H2	hc
425 30 5 0.05300000 4.843643 15.860191 13.495290 0 0 0	# H3	hc
426 30 5 0.05300000 5.387335 16.461910 15.410986 0 0 0	# H4	hc
427 30 5 0.05300000 7.112859 16.871792 15.542209 0 0 0	# H5	hc
428 30 5 0.05300000 5.794708 14.380950 16.731020 0 0 0	# H6	hc
429 30 5 0.05300000 6.262256 15.834584 17.647024 0 0 0	# H7	hc
430 30 5 0.05300000 9.841978 15.520938 17.025959 0 0 0	# H8	hc
431 30 5 0.05300000 8.517533 16.701079 17.155753 0 0 0	# H9	hc
432 30 5 0.05300000 8.919362 15.983407 15.577028 0 0 0	# H10	hc
433 31 3 0.00100000 2.828797 10.170474 9.753609 0 0 0	# C1	c3oe
434 31 9 -0.32000000 1.981468 10.680735 8.626692 0 0 0	# O1	oc
435 31 2 0.05400000 2.846002 11.554921 7.796845 0 0 0	# C2	c2oe
436 31 2 0.05400000 3.700768 10.674921 6.876946 0 0 0	# C3	c2oe
437 31 9 -0.32000000 2.805511 9.997902 5.876705 0 0 0	# O2	oc
438 31 3 0.00100000 3.504332 8.821829 5.267446 0 0 0	# C4	c3oe
439 31 5 0.05300000 2.201156 9.710480 10.510666 0 0 0	# H1	hc
440 31 5 0.05300000 3.375910 11.003712 10.191558 0 0 0	# H2	hc
441 31 5 0.05300000 3.539014 9.435569 9.370194 0 0 0	# H3	hc
442 31 5 0.05300000 3.485069 12.157451 8.436475 0 0 0	# H4	hc
443 31 5 0.05300000 2.217513 12.205771 7.189184 0 0 0	# H5	hc
444 31 5 0.05300000 4.192567 9.907984 7.482728 0 0 0	# H6	hc
445 31 5 0.05300000 4.452998 11.279027 6.374536 0 0 0	# H7	hc
446 31 5 0.05300000 3.246475 8.753657 4.208896 0 0 0	# H8	hc
447 31 5 0.05300000 3.186742 7.915585 5.776460 0 0 0	# H9	hc
448 31 5 0.05300000 4.581312 8.939103 5.371063 0 0 0	# H10	hc
449 32 3 0.00100000 4.662868 18.983759 16.461566 0 0 0	# C1	c3oe
450 32 9 -0.32000000 3.394744 19.327596 17.183064 0 0 0	# O1	oc
451 32 2 0.05400000 2.160482 19.311060 16.284233 0 0 0	# C2	c2oe
452 32 2 0.05400000 1.693517 17.867789 16.019805 0 0 0	# C3	c2oe
453 32 9 -0.32000000 2.608548 17.262251 15.051968 0 0 0	# O2	oc
454 32 3 0.00100000 2.398510 18.026963 13.774583 0 0 0	# C4	c3oe
455 32 5 0.05300000 5.496828 19.045557 17.169378 0 0 0	# H1	hc
456 32 5 0.05300000 4.829463 19.685833 15.648311 0 0 0	# H2	hc
457 32 5 0.05300000 4.599642 17.973424 16.069254 0 0 0	# H3	hc
458 32 5 0.05300000 2.427951 19.762307 15.320634 0 0 0	# H4	hc
459 32 5 0.05300000 1.358589 19.881903 16.733117 0 0 0	# H5	hc
460 32 5 0.05300000 0.675528 17.863047 15.631179 0 0 0	# H6	hc
461 32 5 0.05300000 1.734454 17.299710 16.950829 0 0 0	# H7	hc
462 32 5 0.05300000 2.498796 17.366677 12.935287 0 0 0	# H8	hc
463 32 5 0.05300000 3.133636 18.826748 13.704194 0 0 0	# H9	hc
464 32 5 0.05300000 1.390398 18.462368 13.776057 0 0 0	# H10	hc
465 33 3 0.00100000 16.988505 10.073731 1.774358 0 0 0	# C1	c3oe