LAMMPS data file via write_data, version 15 May 2015, timestep = 8008000

2611 atoms
6 atom types
1749 bonds
4 bond types
894 angles
3 angle types
44 dihedrals
3 dihedral types
10 impropers
1 improper types

-1.4942834735800714e+01 1.4942834735800714e+01 xlo xhi
-1.4942834735800714e+01 1.4942834735800714e+01 ylo yhi
-1.4942834735800714e+01 1.4942834735800714e+01 zlo zhi

Masses

1 15.9994
2 1.00794
3 12.0107
4 1.00794
5 12.0107
6 12.0107

Bond Coeffs # harmonic

1 1000 1
2 469 1.4
3 367 1.08
4 469 0.7

Angle Coeffs # harmonic

1 100 109.47
2 35 120
3 63 120

Dihedral Coeffs # opls

1 0 7.25 0 0
2 0 7.25 0 0
3 0 7.25 0 0

Improper Coeffs # cvff

1 2.5 -1 2

Atoms # full

868 290 1 -8.1999999999999995e-01 -1.1014748425681494e+01 -1.1144601522989058e+01 -1.4163317099911096e+01 0 -4 -3
44 15 2 4.0999999999999998e-01 -1.4266051175668091e+01 -1.4456271461774513e+01 -1.3666409850610293e+01 2 0 2
1515 505 2 4.0999999999999998e-01 -1.0414604911505791e+01 -9.6106672585782498e+00 -1.1434388032115283e+01 4 2 2
255 85 2 4.0999999999999998e-01 -1.1204193962362925e+01 -7.4470511669680581e+00 -1.0064405649224650e+01 2 -3 0
253 85 1 -8.1999999999999995e-01 -1.1300282008211257e+01 -6.8836350382372462e+00 -1.0884972275357075e+01 2 -3 0
740 247 2 4.0999999999999998e-01 -1.3727806431207705e+01 -8.9125321772667760e+00 -9.1669372386741941e+00 1 -1 0
739 247 1 -8.1999999999999995e-01 -1.2800107835938391e+01 -8.7387856266234358e+00 -8.8365015789404424e+00 1 -1 0
1514 505 2 4.0999999999999998e-01 -1.1209651015476583e+01 -9.8069990106652440e+00 -1.0021595533580976e+01 4 2 2
254 85 2 4.0999999999999998e-01 -1.0408331318532056e+01 -6.5093649339438553e+00 -1.1138637600530471e+01 2 -3 0
1513 505 1 -8.1999999999999995e-01 -1.0707703418317555e+01 -1.0276314507257464e+01 -1.0748088354630593e+01 4 2 2
741 247 2 4.0999999999999998e-01 -1.2532854167187857e+01 -9.4608854544548606e+00 -8.1984203862395812e+00 1 -1 0
36 12 2 4.0999999999999998e-01 -9.4263158683131145e+00 -1.2759837525913319e+01 -1.0113917891284959e+01 -2 -1 -1
35 12 2 4.0999999999999998e-01 -9.2459459542158129e+00 -1.1510983670348615e+01 -1.1150478477323910e+01 -2 -1 -1
421 141 1 -8.1999999999999995e-01 -1.1834211453743121e+01 -1.4110433723858845e+01 -9.2368182647986004e+00 3 -3 2
1106 369 2 4.0999999999999998e-01 -1.2188252905229145e+01 -7.5812307025345680e+00 -1.2516374122827219e+01 1 -2 -3
45 15 2 4.0999999999999998e-01 -1.2934175731898424e+01 -1.3758309029466702e+01 -1.3029555576281911e+01 2 0 2
869 290 2 4.0999999999999998e-01 -1.1165469226377027e+01 -1.2016801041479509e+01 -1.4628668016733027e+01 0 -4 -3
458 153 2 4.0999999999999998e-01 -1.2279219319306707e+01 -1.3243559715873381e+01 -1.0726191394695437e+01 6 2 0
1105 369 1 -8.1999999999999995e-01 -1.2660341429645136e+01 -7.5355382658151813e+00 -1.3396740459961004e+01 1 -2 -3
2321 774 2 4.0999999999999998e-01 -8.5723026313485136e+00 -6.8978812819247075e+00 -9.4320188127379332e+00 5 -2 -1
2320 774 1 -8.1999999999999995e-01 -9.0610319266972859e+00 -7.0322223616428676e+00 -8.5699884259609966e+00 5 -2 -1
2023 675 1 -8.1999999999999995e-01 -1.3488375828687051e+01 -1.0163207749682737e+01 -1.3393682332104127e+01 1 0 -3
457 153 1 -8.1999999999999995e-01 -1.2424968290759018e+01 -1.2960148178174427e+01 -1.1674049706665379e+01 6 2 0
239 80 2 4.0999999999999998e-01 -1.2029369338728371e+01 -1.2528584729252676e+01 -7.8680080140681845e+00 1 -3 0
34 12 1 -8.1999999999999995e-01 -8.8293629434719136e+00 -1.2351729632480986e+01 -1.0804638813636185e+01 -2 -1 -1
459 153 2 4.0999999999999998e-01 -1.2326631495630306e+01 -1.1967456541611265e+01 -1.1744002716612361e+01 6 2 0
43 15 1 -8.1999999999999995e-01 -1.3325845253057754e+01 -1.4170709838736789e+01 -1.3852064440438745e+01 2 0 2
1107 369 2 4.0999999999999998e-01 -1.2366688013934313e+01 -6.7169187124446275e+00 -1.3890329315824163e+01 1 -2 -3
1151 384 2 4.0999999999999998e-01 -9.0209295513879049e+00 -1.4865916707574330e+01 -1.2801401542116453e+01 4 -4 1
870 290 2 4.0999999999999998e-01 -1.1890927580227952e+01 -1.0777974419691063e+01 -1.3850435472942280e+01 0 -4 -3
2024 675 2 4.0999999999999998e-01 -1.4243841994748845e+01 -1.0398692891002728e+01 -1.2782275858868569e+01 1 0 -3
2025 675 2 4.0999999999999998e-01 -1.3201024144508628e+01 -9.2210910937317383e+00 -1.3220923880325355e+01 1 0 -3
1313 438 2 4.0999999999999998e-01 -9.1409317680253821e+00 -9.5167308602691421e+00 -1.2718888827911318e+01 3 0 1
1444 482 1 -8.1999999999999995e-01 -8.3633895201492194e+00 -1.1091384241115708e+01 -1.3755065024202704e+01 0 -1 -5
1326 442 2 4.0999999999999998e-01 -1.2949551922951750e+01 -6.2069624145662416e+00 -8.5601792129866290e+00 4 -3 2
273 91 2 4.0999999999999998e-01 -1.1579295731382812e+01 -5.1143471929889603e+00 -1.1276607775984317e+01 -2 -3 2
1312 438 1 -8.1999999999999995e-01 -9.5690572974808035e+00 -8.6130614962147511e+00 -1.2728399618328842e+01 3 0 1
1324 442 1 -8.1999999999999995e-01 -1.3662412354859267e+01 -5.7859732104279384e+00 -9.1210698702841135e+00 4 -3 2
1314 438 2 4.0999999999999998e-01 -9.3779798244593273e+00 -8.1628717546474583e+00 -1.3600648915446182e+01 3 0 1
1325 442 2 4.0999999999999998e-01 -1.3354363211414347e+01 -5.7385673328691915e+00 -1.0071258627236965e+01 4 -3 2
2322 774 2 4.0999999999999998e-01 -9.6195022256929192e+00 -6.2261037662159939e+00 -8.3743255291698127e+00 5 -2 -1
1445 482 2 4.0999999999999998e-01 -9.3369912142537572e+00 -1.1218183586703779e+01 -1.3944859430332938e+01 0 -1 -5
1152 384 2 4.0999999999999998e-01 -8.3256384698814774e+00 -1.3944494845720820e+01 -1.1646334784030543e+01 4 -4 1
422 141 2 4.0999999999999998e-01 -1.1183736418988651e+01 -1.4123733334845387e+01 -8.4774069118634756e+00 3 -3 2
1150 384 1 -8.1999999999999995e-01 -8.4384532191624295e+00 -1.4877288960560902e+01 -1.1988633275623949e+01 4 -4 1
1188 396 2 4.0999999999999998e-01 -1.1254950561332496e+01 -1.4769047241834743e+01 -1.3885022408041538e+01 1 1 -4
1446 482 2 4.0999999999999998e-01 -7.8414692730930184e+00 -1.1829035491848206e+01 -1.4183399175985119e+01 0 -1 -5
1186 396 1 -8.1999999999999995e-01 -1.0316390712087962e+01 -1.4940582555601400e+01 -1.4184490762108975e+01 1 1 -4
899 300 2 4.0999999999999998e-01 -6.5708658800206301e+00 -1.4079707723696577e+01 -1.4442996221810015e+01 3 0 1
1685 562 2 4.0999999999999998e-01 -2.0503879352482457e-01 -1.3473106445727021e+01 -1.1093721493328948e+01 3 1 -1
297 99 2 4.0999999999999998e-01 -6.8671722813283385e+00 -1.3063929858255877e+01 -7.8231847739464122e+00 4 -4 -3
1898 633 2 4.0999999999999998e-01 -6.2497890772023563e+00 -9.2312260039830889e+00 -1.2375896492583060e+01 3 -2 -1
1610 537 2 4.0999999999999998e-01 -2.2034590465834203e+00 -6.4168271461110553e+00 -1.3868714809066153e+01 2 0 -3
777 259 2 4.0999999999999998e-01 -1.8821037239887879e+00 -8.9879490915419780e+00 -7.6928390858558400e+00 3 2 -2
652 218 1 -8.1999999999999995e-01 -4.3731204797014964e+00 -1.0776585153430691e+01 -9.9905542758038060e+00 2 0 -3
2576 859 2 4.0999999999999998e-01 -5.6053222893666739e+00 -1.1964580222577419e+01 -9.6517578705231806e+00 4 1 2
1395 465 2 4.0999999999999998e-01 -4.5037877658071785e+00 -5.7054672234695829e+00 -8.3424218696157588e+00 2 2 -3
1358 453 2 4.0999999999999998e-01 -9.4997992181117219e-01 -5.4257597690890567e+00 -1.1475553585478032e+01 6 -1 -2
1393 465 1 -8.1999999999999995e-01 -5.0601352783345206e+00 -6.4786348929611464e+00 -8.6468713777932145e+00 2 2 -3
2417 806 2 4.0999999999999998e-01 -4.9904093388029125e-01 -6.9111322564181439e+00 -8.4349748653023386e+00 5 -2 0
1240 414 1 -8.1999999999999995e-01 -3.3319193093150794e+00 -9.6701160712738492e+00 -7.5077803411817685e+00 3 4 0
249 83 2 4.0999999999999998e-01 -5.8743630546649648e+00 -7.7087492524780119e+00 -1.4040585327586228e+01 3 -2 -4
841 281 1 -8.1999999999999995e-01 -4.3422109506287772e+00 -1.4196907948695223e+01 -1.1562889474804706e+01 3 -5 -2
1038 346 2 4.0999999999999998e-01 -3.0641070943919395e+00 -1.4659162470917854e+01 -1.4626410550929043e+01 -1 -2 2
1420 474 1 -8.1999999999999995e-01 -8.1601301746234611e-01 -7.2557506577761988e+00 -1.1810106185547960e+01 3 -2 -1
1242 414 2 4.0999999999999998e-01 -3.8163031568988970e+00 -9.8535553973563772e+00 -8.3631881728458897e+00 3 4 0
813 271 2 4.0999999999999998e-01 -3.3274224697007622e+00 -1.3562237680815338e+01 -1.2715208353607702e+01 5 -1 0
2117 706 2 4.0999999999999998e-01 -1.5203269163761473e+00 -9.8085351540944945e+00 -1.4045118235308447e+01 3 0 3
1421 474 2 4.0999999999999998e-01 -1.1405876679832474e+00 -8.0962533821212261e+00 -1.2243934156417073e+01 3 -2 -1
2418 806 2 4.0999999999999998e-01 -4.4072608610436070e-01 -6.6906340705643039e+00 -1.0051949529522947e+01 5 -2 0
1394 465 2 4.0999999999999998e-01 -5.2514776240693468e+00 -6.3872374813152462e+00 -9.6241302356172742e+00 2 2 -3
614 205 2 4.0999999999999998e-01 -5.4902593952401482e+00 -6.5478816322673694e+00 -1.2114702301875646e+01 2 1 3
812 271 2 4.0999999999999998e-01 -2.9724872933982684e+00 -1.2551682473644121e+01 -1.3947858467821884e+01 5 -1 0
1684 562 1 -8.1999999999999995e-01 -1.1200743787783143e+00 -1.3869446616407981e+01 -1.1168718737138374e+01 3 1 -1
1686 562 2 4.0999999999999998e-01 -1.3824692276490413e+00 -1.3922310248822443e+01 -1.2132230351858560e+01 3 1 -1
1793 598 2 4.0999999999999998e-01 -2.0878845704662616e+00 -1.3683727445562573e+01 -9.6675585710516962e+00 2 2 2
775 259 1 -8.1999999999999995e-01 -1.0977811252279057e+00 -8.3683105021264037e+00 -7.6630668842375194e+00 3 2 -2
811 271 1 -8.1999999999999995e-01 -2.7758116298037763e+00 -1.3443677845246121e+01 -1.3540841032917605e+01 5 -1 0
1792 598 1 -8.1999999999999995e-01 -2.8955232035633198e+00 -1.3419338154569401e+01 -9.1404737625692185e+00 2 2 2
123 41 2 4.0999999999999998e-01 -2.1585227493377506e+00 -1.2466737914147991e+01 -8.0029331554063567e+00 4 -1 -1
1794 598 2 4.0999999999999998e-01 -3.3854686954362059e+00 -1.4240231881678614e+01 -8.8470676017416938e+00 2 2 2
2575 859 1 -8.1999999999999995e-01 -6.2992504471917812e+00 -1.2665160741259509e+01 -9.4854721913473998e+00 4 1 2
842 281 2 4.0999999999999998e-01 -3.9939550721797339e+00 -1.3834641176514390e+01 -1.0698319712109278e+01 3 -5 -2
900 300 2 4.0999999999999998e-01 -5.6597725813180055e+00 -1.2728994948725253e+01 -1.4332945701112912e+01 3 0 1
2116 706 1 -8.1999999999999995e-01 -8.9924536664257104e-01 -9.3514349748058017e+00 -1.3408472835682414e+01 3 0 3
898 300 1 -8.1999999999999995e-01 -6.5569407192489528e+00 -1.3090241819660651e+01 -1.4587091862532619e+01 3 0 1
1750 584 1 -8.1999999999999995e-01 -3.3424322410683533e+00 -1.1084916165811295e+01 -1.4752350580575316e+01 0 -1 -2
2577 859 2 4.0999999999999998e-01 -7.0995636068730663e+00 -1.2483866099335987e+01 -1.0056988895359062e+01 4 1 2
2416 806 1 -8.1999999999999995e-01 -2.0101511037541187e-01 -6.2960223174831960e+00 -9.1649205117192487e+00 5 -2 0
653 218 2 4.0999999999999998e-01 -3.8954394786817534e+00 -1.1539775446776426e+01 -1.0425711362890958e+01 2 0 -3
248 83 2 4.0999999999999998e-01 -4.2655618593382592e+00 -7.4789657075342548e+00 -1.3880631146992425e+01 3 -2 -4
654 218 2 4.0999999999999998e-01 -4.8028617439701886e+00 -1.0208594441358313e+01 -1.0692486783513417e+01 2 0 -3
247 83 1 -8.1999999999999995e-01 -5.1110955355140515e+00 -7.6998978142015773e+00 -1.3394563200902041e+01 3 -2 -4
1899 633 2 4.0999999999999998e-01 -6.9730117751932017e+00 -1.0679027149051631e+01 -1.2158071124173031e+01 3 -2 -1
613 205 1 -8.1999999999999995e-01 -5.7171288067080166e+00 -5.8439297210717882e+00 -1.1441662756930922e+01 2 1 3
1609 537 1 -8.1999999999999995e-01 -2.5677488670910051e+00 -6.6305601169766515e+00 -1.4775142624912164e+01 2 0 -3
1897 633 1 -8.1999999999999995e-01 -6.1345864985396705e+00 -1.0154599034681578e+01 -1.2009685010946333e+01 3 -2 -1
1752 584 2 4.0999999999999998e-01 -3.9710090002448339e+00 -1.0311800190187999e+01 -1.4837104219296407e+01 0 -1 -2
1422 474 2 4.0999999999999998e-01 -1.2462606920919939e-03 -6.9272366345848404e+00 -1.2287844542831619e+01 3 -2 -1
963 321 2 4.0999999999999998e-01 -7.6513684055555720e+00 -1.4384451732212888e+01 -1.2899330746372488e+00 3 -2 -1
105 35 2 4.0999999999999998e-01 -1.4793186115891789e+01 -1.0260885263049808e+01 -6.3673716841420358e+00 2 -1 2
1438 480 1 -8.1999999999999995e-01 -8.6151133056061333e+00 -8.1282532661341413e+00 -6.7840563479249916e-01 3 -1 3
1440 480 2 4.0999999999999998e-01 -8.6476096799009383e+00 -7.7500039354308186e+00 -1.6035389654080632e+00 3 -1 3
2560 854 1 -8.1999999999999995e-01 -1.3720798513472344e+01 -9.0302804426385777e+00 -4.8890495496374591e+00 1 2 -3
1370 457 2 4.0999999999999998e-01 -1.0806852021930151e+01 -1.3718992402233884e+01 -4.9907446249628169e+00 5 0 0
923 308 2 4.0999999999999998e-01 -1.3425894387776305e+01 -1.1397543449162789e+01 -2.5858243499464493e+00 3 -1 -1
2461 821 1 -8.1999999999999995e-01 -1.0706833908044842e+01 -1.2777715310687441e+01 -3.1503639279648485e+00 6 -2 -2
957 319 2 4.0999999999999998e-01 -1.0054224465593212e+01 -6.4585461476062065e+00 -2.5731923124126403e+00 4 -3 1
259 87 1 -8.1999999999999995e-01 -9.3517303332566684e+00 -1.1028143801359894e+01 -7.0578409968344680e+00 3 0 -1
261 87 2 4.0999999999999998e-01 -8.6408943937165716e+00 -1.1669826709446015e+01 -7.3458610640871322e+00 3 0 -1
956 319 2 4.0999999999999998e-01 -9.0853311117178315e+00 -6.2604662106132061e+00 -3.8726680328193748e+00 4 -3 1
955 319 1 -8.1999999999999995e-01 -9.2619343313253815e+00 -6.8212972422970974e+00 -3.0637922103951389e+00 4 -3 1
376 126 1 -8.1999999999999995e-01 -1.1470945310430739e+01 -5.6532595813334225e+00 -2.0950191261249334e+00 1 1 -1
2091 697 2 4.0999999999999998e-01 -1.2849543681472850e+01 -1.0698453503336999e+01 -4.6695801917532673e+00 4 0 -1
256 86 1 -8.1999999999999995e-01 -9.8340623557211799e+00 -1.1210837311783251e+01 -9.0321845612464813e-01 1 -2 -1
2462 821 2 4.0999999999999998e-01 -1.1464300926860666e+01 -1.2375897728160373e+01 -3.6649381110912103e+00 6 -2 -2
2463 821 2 4.0999999999999998e-01 -1.0527009592867760e+01 -1.2225618590583888e+01 -2.3362062846899843e+00 6 -2 -2
688 230 1 -8.1999999999999995e-01 -1.2248655041754549e+01 -8.6526354174114566e+00 -7.9153377487049603e-01 3 -2 0
377 126 2 4.0999999999999998e-01 -1.2086867918588970e+01 -5.5468818624569050e+00 -1.3144274524362221e+00 1 1 -1
257 86 2 4.0999999999999998e-01 -8.8630575411644550e+00 -1.1423872651357708e+01 -1.0116888714317245e+00 1 -2 -1
231 77 2 4.0999999999999998e-01 -1.4425054577648307e+01 -1.4429875478019239e+01 -7.2226578006231712e-01 3 0 -1
922 308 1 -8.1999999999999995e-01 -1.3704138504562836e+01 -1.0595224658869308e+01 -2.0577476318951096e+00 3 -1 -1
502 168 1 -8.1999999999999995e-01 -1.1404667756648781e+01 -7.5289636547807079e+00 -5.2808983221531509e+00 3 0 0
2561 854 2 4.0999999999999998e-01 -1.3140789387707891e+01 -8.2545538736388053e+00 -5.1377219607177516e+00 1 2 -3
2090 697 2 4.0999999999999998e-01 -1.2299938315027092e+01 -1.1737791325824968e+01 -5.8028665405578295e+00 4 0 -1
689 230 2 4.0999999999999998e-01 -1.1475672441817963e+01 -8.1119323185959615e+00 -1.1234046766601011e+00 3 -2 0
238 80 1 -8.1999999999999995e-01 -1.2007517072472570e+01 -1.1614805523115013e+01 -7.4623846515965848e+00 1 -3 0
2089 697 1 -8.1999999999999995e-01 -1.2663483068394623e+01 -1.1659364468973727e+01 -4.8745968004643405e+00 4 0 -1
924 308 2 4.0999999999999998e-01 -1.2962870137549876e+01 -1.0327965857555327e+01 -1.4420413918564012e+00 3 -1 -1
96 32 2 4.0999999999999998e-01 -8.5356231038372723e+00 -8.0731311478076577e+00 -7.1799570430334088e+00 0 0 -1
453 151 2 4.0999999999999998e-01 -1.3878936782818938e+01 -1.2792716311515516e+01 -3.9736788706932025e+00 1 -2 -3
1369 457 1 -8.1999999999999995e-01 -1.1209901968663960e+01 -1.4299044598131069e+01 -5.6986220530828540e+00 5 0 0
378 126 2 4.0999999999999998e-01 -1.1939132765820688e+01 -5.3658674978301466e+00 -2.9306066619027433e+00 1 1 -1
2562 854 2 4.0999999999999998e-01 -1.3711067229327755e+01 -9.1489486705647707e+00 -3.8961631491406692e+00 1 2 -3
658 220 1 -8.1999999999999995e-01 -9.3378452713858060e+00 -5.4769826860323061e+00 -5.5424956536218293e+00 -1 0 -3
451 151 1 -8.1999999999999995e-01 -1.4548352596838791e+01 -1.3032419394492752e+01 -3.2705251450424875e+00 1 -2 -3
2253 751 2 4.0999999999999998e-01 -1.0571369378508313e+01 -1.2447432290388484e+01 -7.7769613354393030e-02 -2 -3 -6
260 87 2 4.0999999999999998e-01 -8.9299325067616078e+00 -1.0162462539252115e+01 -6.7882434781132552e+00 3 0 -1
258 86 2 4.0999999999999998e-01 -9.9520011614548842e+00 -1.0220424153361652e+01 -8.3129868968471321e-01 1 -2 -1
659 220 2 4.0999999999999998e-01 -8.5534552560403263e+00 -5.3516514165170577e+00 -6.1499696146705087e+00 -1 0 -3
1143 381 2 4.0999999999999998e-01 -1.4815477218399407e+01 -1.3708838404725686e+01 -6.9666859685284610e+00 2 -3 -3
285 95 2 4.0999999999999998e-01 -8.8908653126421413e+00 -1.2439050223554354e+01 -3.6994482512244780e+00 0 1 -2
283 95 1 -8.1999999999999995e-01 -8.0860837548252729e+00 -1.2278908957341594e+01 -4.2710089705062337e+00 0 1 -2
240 80 2 4.0999999999999998e-01 -1.1062882954387012e+01 -1.1288676311636211e+01 -7.4262407136089008e+00 1 -3 0
284 95 2 4.0999999999999998e-01 -8.2660585519817751e+00 -1.2605170876540358e+01 -5.1989973683015691e+00 0 1 -2
503 168 2 4.0999999999999998e-01 -1.0909670518104370e+01 -6.6604417117112966e+00 -5.2554499849897613e+00 3 0 0
504 168 2 4.0999999999999998e-01 -1.0769149924891574e+01 -8.2684291211947940e+00 -5.5029527329942418e+00 3 0 0
94 32 1 -8.1999999999999995e-01 -8.2990648402536564e+00 -8.6058052775003624e+00 -6.3673693796789657e+00 0 0 -1
1439 480 2 4.0999999999999998e-01 -8.8526671123003062e+00 -7.4155563299546721e+00 -1.8381745053366316e-02 3 -1 3
547 183 1 -8.1999999999999995e-01 -3.5490951151438104e+00 -1.1842884287873074e+01 -1.8441119866345623e-01 3 -1 1
1241 414 2 4.0999999999999998e-01 -3.8595176843433237e+00 -9.0222672569296734e+00 -6.9582968383642232e+00 3 4 0
122 41 2 4.0999999999999998e-01 -2.4216761310150563e+00 -1.1005118428818982e+01 -7.3239295540255043e+00 4 -1 -1
121 41 1 -8.1999999999999995e-01 -1.9485360304531216e+00 -1.1880050821270828e+01 -7.2208180330003726e+00 4 -1 -1
656 219 2 4.0999999999999998e-01 -4.2582632075772509e-01 -1.2591185407368391e+01 -6.7544388667750646e+00 1 1 1
1232 411 2 4.0999999999999998e-01 -5.1777815736229496e+00 -7.5429133809409139e+00 -7.3664130453372136e+00 -1 1 -1
1646 549 2 4.0999999999999998e-01 -6.8202310105057808e+00 -6.3496437084607393e+00 -3.5406746473758925e+00 1 1 0
23 8 2 4.0999999999999998e-01 -4.9000865961384736e+00 -5.0935477857383678e+00 -2.7626839764217959e+00 3 -4 1
941 314 2 4.0999999999999998e-01 -1.2757520881296163e+00 -5.4676503937519421e+00 -6.1118158666116482e+00 0 -4 0
788 263 2 4.0999999999999998e-01 -3.8739735408824547e+00 -9.0975988288572953e+00 -2.2511218624444016e+00 0 -1 1
528 176 2 4.0999999999999998e-01 -9.3775715223632261e-01 -1.4597443950102532e+01 -2.7208213988914736e+00 4 -1 -3
2506 836 1 -8.1999999999999995e-01 -6.3582981596889372e+00 -1.3176014088871472e+01 -1.4261862113423671e+00 6 -2 -1
1647 549 2 4.0999999999999998e-01 -5.9131222428450947e+00 -5.2885349471577054e+00 -4.3879225532947679e+00 1 1 0
1576 526 1 -8.1999999999999995e-01 -2.7518833121478359e-01 -6.4005162271180378e+00 -2.7567577248924042e+00 -1 -1 2
548 183 2 4.0999999999999998e-01 -3.8172214244624580e+00 -1.2450832320219039e+01 -9.3174494966186749e-01 3 -1 1
556 186 1 -8.1999999999999995e-01 -3.0322856779052625e+00 -1.4748178841956859e+01 -5.9208963828970944e+00 1 0 -2
296 99 2 4.0999999999999998e-01 -7.1238246992721868e+00 -1.4101888076827473e+01 -6.5889241037298358e+00 4 -4 -3
295 99 1 -8.1999999999999995e-01 -7.2297074638347709e+00 -1.3156039191862288e+01 -6.8957774433555326e+00 4 -4 -3
807 269 2 4.0999999999999998e-01 -4.1801435253418902e+00 -1.0201922112659144e+01 -4.1677665668684849e+00 2 -1 5
2307 769 2 4.0999999999999998e-01 -5.7020992815230649e+00 -9.9222362055730891e+00 -9.7196651440340176e-01 3 -2 -2
1231 411 1 -8.1999999999999995e-01 -5.0536069137063606e+00 -7.8655206780588340e+00 -6.4280605146843577e+00 -1 1 -1
95 32 2 4.0999999999999998e-01 -7.3983050834233737e+00 -8.3254695818778828e+00 -6.0356405817110961e+00 0 0 -1
2508 836 2 4.0999999999999998e-01 -5.6916103774872937e+00 -1.3114411608162230e+01 -2.1689733876878652e+00 6 -2 -1
557 186 2 4.0999999999999998e-01 -2.1189785419910265e+00 -1.4342654478557172e+01 -5.8832091984409800e+00 1 0 -2
1578 526 2 4.0999999999999998e-01 -9.6094691758837136e-01 -6.5898667070601000e+00 -2.0539904811507022e+00 -1 -1 2
2306 769 2 4.0999999999999998e-01 -7.0114759273552281e+00 -9.8881504054697995e+00 -1.9471578128121614e+00 3 -2 -2
493 165 1 -8.1999999999999995e-01 -5.5883285919238865e+00 -1.1863090588750520e+01 -4.8436223444656150e+00 1 -1 -2
2507 836 2 4.0999999999999998e-01 -6.6527252141605757e+00 -1.2256592039182095e+01 -1.1654640567753223e+00 6 -2 -1
806 269 2 4.0999999999999998e-01 -4.6820806164977498e+00 -8.7063457138385303e+00 -4.5895929800930606e+00 2 -1 5
1165 389 1 -8.1999999999999995e-01 -9.0987345372059991e-03 -1.3075135456777959e+01 -2.7398644082314796e+00 0 1 2
120 40 2 4.0999999999999998e-01 -1.8430412565298298e+00 -1.2084587992757129e+01 -5.0871762056016028e+00 3 0 0
1388 463 2 4.0999999999999998e-01 -4.1621901080335189e+00 -1.2937118731904176e+01 -3.6208896392327095e+00 4 -2 0
149 50 2 4.0999999999999998e-01 -3.3435612963868717e+00 -6.0156414101385245e+00 -1.1686890100067391e+00 -3 -4 -2
1389 463 2 4.0999999999999998e-01 -3.3306561438229956e+00 -1.3914958278091385e+01 -2.6114302824388496e+00 4 -2 0
119 40 2 4.0999999999999998e-01 -1.9678374468656088e+00 -1.0618276439882695e+01 -4.3793742447301636e+00 3 0 0
549 183 2 4.0999999999999998e-01 -3.5543896478047401e+00 -1.0896225327612191e+01 -5.0660531090873917e-01 3 -1 1
2305 769 1 -8.1999999999999995e-01 -6.6218652405821050e+00 -1.0286927052195718e+01 -1.1169885919573534e+00 3 -2 -2
1387 463 1 -8.1999999999999995e-01 -3.9243307259557909e+00 -1.3112069876740554e+01 -2.6654759885461718e+00 4 -2 0
1558 520 1 -8.1999999999999995e-01 -1.2322836347053627e+00 -7.6101477937701203e+00 -4.8721559542874910e+00 4 0 -2
1167 389 2 4.0999999999999998e-01 -6.5610987078061633e-01 -1.2531667816741297e+01 -3.2746725712639364e+00 0 1 2
495 165 2 4.0999999999999998e-01 -6.4822751423877847e+00 -1.1842548454812674e+01 -4.3959195137961409e+00 1 -1 -2
776 259 2 4.0999999999999998e-01 -9.4818120090412883e-01 -8.0649706152088392e+00 -6.7220009828979581e+00 3 2 -2
118 40 1 -8.1999999999999995e-01 -1.5332768990183023e+00 -1.1517226990660092e+01 -4.3241900661740740e+00 3 0 0
1233 411 2 4.0999999999999998e-01 -5.5303385556017641e+00 -7.2517639064425543e+00 -5.7987515121373470e+00 -1 1 -1
1645 549 1 -8.1999999999999995e-01 -6.0883653526500652e+00 -6.2579193109489815e+00 -4.2159224099014132e+00 1 1 0
805 269 1 -8.1999999999999995e-01 -4.0398168132112140e+00 -9.2224686569719019e+00 -4.0229232662111531e+00 2 -1 5
494 165 2 4.0999999999999998e-01 -5.6434614567836494e+00 -1.2419539063925182e+01 -5.6726734232802052e+00 1 -1 -2
787 263 1 -8.1999999999999995e-01 -3.7466123704475081e+00 -9.1862315586461332e+00 -1.2632333965295928e+00 0 -1 1
148 50 1 -8.1999999999999995e-01 -2.6207053489239378e+00 -6.6549645953637935e+00 -9.0649559340639208e-01 -3 -4 -2
789 263 2 4.0999999999999998e-01 -3.1339954023207603e+00 -8.4649240024987940e+00 -9.4009857835112065e-01 0 -1 1
1560 520 2 4.0999999999999998e-01 -7.9271392592801604e-01 -7.1142021273025078e+00 -4.1232790412501803e+00 4 0 -2
1559 520 2 4.0999999999999998e-01 -2.0298594221563135e+00 -8.1022023212817285e+00 -4.5232212336030759e+00 4 0 -2
1803 601 2 4.0999999999999998e-01 -1.1320888049553430e+01 -1.2803254711975425e+01 6.3788105448533532e+00 3 1 -1
1885 629 1 -8.1999999999999995e-01 -8.8295811278503393e+00 -5.2500494465468428e+00 3.4513587497054505e+00 5 -3 -1
1887 629 2 4.0999999999999998e-01 -9.0157650241737706e+00 -5.2695358539286481e+00 4.4336805367941761e+00 5 -3 -1
2055 685 2 4.0999999999999998e-01 -1.0744246904837389e+01 -6.0399212809929868e+00 9.0742416495424294e-01 2 2 1
1373 458 2 4.0999999999999998e-01 -9.5885891635013607e+00 -9.8934922080611365e+00 1.7953299285462254e+00 0 -2 -4
234 78 2 4.0999999999999998e-01 -1.1958774004511742e+01 -1.0033300844883119e+01 2.8764145919591808e+00 2 -2 -2
2446 816 1 -8.1999999999999995e-01 -1.4189535838515434e+01 -6.1615360522716180e+00 3.5322633047817877e+00 1 -5 -1
232 78 1 -8.1999999999999995e-01 -1.1184045782948887e+01 -9.8859831755476364e+00 2.2615211482171329e+00 2 -2 -2
233 78 2 4.0999999999999998e-01 -1.1513899047360006e+01 -9.8192323420917695e+00 1.3198516692485835e+00 2 -2 -2
880 294 1 -8.1999999999999995e-01 -1.3450885365695777e+01 -1.3159961508017766e+01 9.5604538339202527e-01 2 -4 0
407 136 2 4.0999999999999998e-01 -9.3270975158290064e+00 -1.4822236624665184e+01 7.3054359118487522e+00 3 1 -1
1947 649 2 4.0999999999999998e-01 -1.2804618464225864e+01 -1.1473019943895528e+01 4.9904736452689118e+00 1 0 -1
1946 649 2 4.0999999999999998e-01 -1.2886843883813071e+01 -9.8739956622772063e+00 4.6695569996969919e+00 1 0 -1
2459 820 2 4.0999999999999998e-01 -1.4776560038634969e+01 -1.1396620699588516e+01 3.3338215304501038e+00 3 -4 0
2053 685 1 -8.1999999999999995e-01 -9.7513836222875714e+00 -6.1478892605150133e+00 9.5807647425079878e-01 2 2 1
1801 601 1 -8.1999999999999995e-01 -1.2293355830204931e+01 -1.2783086268099268e+01 6.6109740722481032e+00 3 1 -1
1493 498 2 4.0999999999999998e-01 -1.3532035165322373e+01 -1.3815432818682536e+01 5.8603526121057765e+00 0 2 4
2447 816 2 4.0999999999999998e-01 -1.3226182093409536e+01 -6.2585618102711660e+00 3.2821916966274589e+00 1 -5 -1
1492 498 1 -8.1999999999999995e-01 -1.4085061732006253e+01 -1.3987856790001182e+01 5.0452257246539443e+00 0 2 4
115 39 1 -8.1999999999999995e-01 -9.4448815099687380e+00 -1.1512847228071191e+01 6.5071049502740390e+00 3 1 0
116 39 2 4.0999999999999998e-01 -9.4421126756617682e+00 -1.0546202102675252e+01 6.2509999330206529e+00 3 1 0
1657 553 1 -8.1999999999999995e-01 -1.3672320886801472e+01 -7.8525527007301141e+00 1.3633866508440047e+00 3 -2 2
1658 553 2 4.0999999999999998e-01 -1.4326190764592686e+01 -8.1729455938555180e+00 6.7796498808512951e-01 3 -2 2
882 294 2 4.0999999999999998e-01 -1.3978440186734819e+01 -1.2435148045387713e+01 1.3991386017704475e+00 2 -4 0
1659 553 2 4.0999999999999998e-01 -1.4124475240039555e+01 -7.2076739972056574e+00 1.9795750519603015e+00 3 -2 2
1945 649 1 -8.1999999999999995e-01 -1.3007255641469600e+01 -1.0790551716105455e+01 4.2882090517480425e+00 1 0 -1
2252 751 2 4.0999999999999998e-01 -1.1708437413754138e+01 -1.3443128081403383e+01 5.4052909583601938e-01 -2 -3 -6
1372 458 1 -8.1999999999999995e-01 -8.5954577431363504e+00 -9.8566739434021571e+00 1.6842684838537476e+00 0 -2 -4
881 294 2 4.0999999999999998e-01 -1.3305832530034550e+01 -1.3909254902483529e+01 1.6022027575679214e+00 2 -4 0
117 39 2 4.0999999999999998e-01 -9.0686243157440618e+00 -1.2057348757913228e+01 5.7574724716922692e+00 3 1 0
1764 588 2 4.0999999999999998e-01 -1.3835209120162105e+01 -7.2969610734574424e+00 6.6038230271983114e+00 3 -1 -2
1374 458 2 4.0999999999999998e-01 -8.3746446843416216e+00 -9.5888235509257065e+00 7.4645294134523255e-01 0 -2 -4
265 89 1 -8.1999999999999995e-01 -9.3141298278914206e+00 -8.9165316240559438e+00 5.5140500318779484e+00 2 -1 2
267 89 2 4.0999999999999998e-01 -8.5564637189341148e+00 -9.3552752949983891e+00 5.0308872153176996e+00 2 -1 2
398 133 2 4.0999999999999998e-01 -1.1204474301661417e+01 -9.2246749514411714e+00 5.6611023870528836e+00 0 0 -4
1762 588 1 -8.1999999999999995e-01 -1.4569656622217341e+01 -6.7335488550873226e+00 6.2254663223805924e+00 3 -1 -2
266 89 2 4.0999999999999998e-01 -9.0406320585435118e+00 -7.9976426558553406e+00 5.7983777875905762e+00 2 -1 2
397 133 1 -8.1999999999999995e-01 -1.2086412317178475e+01 -8.8177363947054541e+00 5.8989817706126022e+00 0 0 -4
2054 685 2 4.0999999999999998e-01 -9.4220499897080181e+00 -5.7955451763119985e+00 1.8340863242794594e+00 2 2 1
1337 446 2 4.0999999999999998e-01 -9.6772947494721482e+00 -1.4640536458736184e+01 9.7380658066784953e-01 3 -1 2
1763 588 2 4.0999999999999998e-01 -1.4399654934479322e+01 -6.5733039877237029e+00 5.2531385694164232e+00 3 -1 -2
399 133 2 4.0999999999999998e-01 -1.2173598928697620e+01 -8.7692590079426687e+00 6.8939936720569239e+00 0 0 -4
2251 751 1 -8.1999999999999995e-01 -1.0757010174438085e+01 -1.3377328665914273e+01 2.3976855503760497e-01 -2 -3 -6
719 240 2 4.0999999999999998e-01 -9.1778847798321230e+00 -1.1705326491053658e+01 3.2365434831210234e+00 1 2 -3
1759 587 1 -8.1999999999999995e-01 -7.9739610992743053e+00 -6.3990680349009956e+00 6.7591990485767379e+00 1 -2 0
720 240 2 4.0999999999999998e-01 -7.9268982615569348e+00 -1.2753011954748189e+01 3.2999076289760989e+00 1 2 -3
2448 816 2 4.0999999999999998e-01 -1.4384413779796647e+01 -5.2035520916481310e+00 3.7427141997810498e+00 1 -5 -1
2190 730 2 4.0999999999999998e-01 -1.1324100299635509e+01 -6.2711988334578042e+00 4.9754964826539858e+00 3 -1 0
718 240 1 -8.1999999999999995e-01 -8.7712439603363173e+00 -1.2461388493556260e+01 3.7493921546440330e+00 1 2 -3
2189 730 2 4.0999999999999998e-01 -1.0671871967030404e+01 -5.5741366480976939e+00 3.6506079454577840e+00 3 -1 0
2188 730 1 -8.1999999999999995e-01 -1.1518898625201111e+01 -5.7263599415402151e+00 4.1598958264027974e+00 3 -1 0
1530 510 2 4.0999999999999998e-01 -1.3671536584975271e+01 -1.4820968965501251e+01 3.7378450058621180e+00 3 -1 -1
840 280 2 4.0999999999999998e-01 -1.3465552183754557e+01 -5.4488949642803526e+00 6.1465811489289202e-01 5 3 -5
838 280 1 -8.1999999999999995e-01 -1.2525300935032945e+01 -5.1336075804666521e+00 4.8612138991974518e-01 5 3 -5
1886 629 2 4.0999999999999998e-01 -7.8449665780784885e+00 -5.3320247604034421e+00 3.2970393016474819e+00 5 -3 -1
690 230 2 4.0999999999999998e-01 -1.2544425933225503e+01 -8.3010821586736352e+00 9.6683616210048839e-02 3 -2 0
406 136 1 -8.1999999999999995e-01 -9.8967623855448217e+00 -1.4935759487581217e+01 6.4914366896293156e+00 3 1 -1
916 306 1 -8.1999999999999995e-01 -3.3968008442944431e-01 -8.8065580557168790e+00 1.2413567862844666e-01 2 -2 -2
1321 441 1 -8.1999999999999995e-01 -1.4405724784553033e+00 -1.4356164521319617e+01 6.0181750061337329e+00 1 -2 -1