LAMMPS data file via write_data, version 15 May 2015, timestep = 23005000

2611 atoms
6 atom types
1749 bonds
4 bond types
894 angles
3 angle types
44 dihedrals
3 dihedral types
10 impropers
1 improper types

-1.5015571529183044e+01 1.5015571529183044e+01 xlo xhi
-1.5015571529183044e+01 1.5015571529183044e+01 ylo yhi
-1.5015571529183044e+01 1.5015571529183044e+01 zlo zhi

Masses

1 15.9994
2 1.00794
3 12.0107
4 1.00794
5 12.0107
6 12.0107

Bond Coeffs # harmonic

1 1000 1
2 469 1.4
3 367 1.08
4 469 0.7

Angle Coeffs # harmonic

1 100 109.47
2 35 120
3 63 120

Dihedral Coeffs # opls

1 0 7.25 0 0
2 0 7.25 0 0
3 0 7.25 0 0

Improper Coeffs # cvff

1 2.5 -1 2

Atoms # full

2177 726 2 4.0999999999999998e-01 -1.4118792833502873e+01 -1.2603925196148992e+01 -8.8329087279074265e+00 1 -5 0
1650 550 2 4.0999999999999998e-01 -1.4094545544529142e+01 -6.9940428259060585e+00 -1.4884486663235569e+01 2 0 -2
2180 727 2 4.0999999999999998e-01 -1.0834529945020892e+01 -8.2581899732470294e+00 -1.1495219352667409e+01 -1 2 -3
863 288 2 4.0999999999999998e-01 -1.3957470463764144e+01 -1.0442972337423740e+01 -1.1330391214042354e+01 4 4 4
1130 377 2 4.0999999999999998e-01 -1.4747240942525965e+01 -1.0108274430217723e+01 -1.3968844532718057e+01 4 2 3
2179 727 1 -8.1999999999999995e-01 -1.1063178143396472e+01 -7.9953828811724925e+00 -1.2432607907569837e+01 -1 2 -3
864 288 2 4.0999999999999998e-01 -1.4131797373356216e+01 -1.0485967180311405e+01 -9.7072745826415208e+00 4 4 4
1423 475 1 -8.1999999999999995e-01 -9.3563861568059359e+00 -1.2629446202302331e+01 -1.0534591902094068e+01 7 -3 2
2069 690 2 4.0999999999999998e-01 -1.4559719737227054e+01 -8.4632533460138788e+00 -9.9394755462482145e+00 1 -5 3
1066 356 1 -8.1999999999999995e-01 -9.3223545549788192e+00 -6.7669167498154632e+00 -7.8534379751040806e+00 2 -5 -3
1425 475 2 4.0999999999999998e-01 -9.6174372329842246e+00 -1.1770774573270462e+01 -1.0093479447178350e+01 7 -3 2
1566 522 2 4.0999999999999998e-01 -9.8874300642900455e+00 -1.0604953242201013e+01 -1.4400416850533571e+01 5 -2 6
1068 356 2 4.0999999999999998e-01 -9.2647001702670284e+00 -5.8092968026893690e+00 -8.1357230550361379e+00 2 -5 -3
1424 475 2 4.0999999999999998e-01 -9.5834744729831964e+00 -1.3395563239371933e+01 -9.9333095704390164e+00 7 -3 2
1564 522 1 -8.1999999999999995e-01 -1.0726463682050587e+01 -1.0089947363371703e+01 -1.4224813890107674e+01 5 -2 6
2181 727 2 4.0999999999999998e-01 -1.1084709212162393e+01 -8.8105399504958655e+00 -1.3011486472322199e+01 -1 2 -3
1565 522 2 4.0999999999999998e-01 -1.1513455352988206e+01 -1.0613597741811292e+01 -1.4551125554278123e+01 5 -2 6
1474 492 1 -8.1999999999999995e-01 -1.4277646243766963e+01 -7.2760353267402316e+00 -1.2976649640158348e+01 -1 0 1
1475 492 2 4.0999999999999998e-01 -1.3379790485204788e+01 -7.0853247351152611e+00 -1.2579749994005979e+01 -1 0 1
1876 626 1 -8.1999999999999995e-01 -1.0054827935296666e+01 -1.4616559189617064e+01 -1.2531413375409077e+01 0 -2 7
58 20 1 -8.1999999999999995e-01 -1.1793060573373339e+01 -1.3891093282894396e+01 -7.8107048288882872e+00 -4 -3 2
130 44 1 -8.1999999999999995e-01 -1.1189420517438190e+01 -8.9702673662775307e+00 -9.8872047248237536e+00 2 2 -4
132 44 2 4.0999999999999998e-01 -1.2100004938033159e+01 -9.3830619673881515e+00 -9.8652613379703133e+00 2 2 -4
2037 679 2 4.0999999999999998e-01 -1.1393802090379236e+01 -6.1793389340663865e+00 -1.0735807371058417e+01 7 -3 2
1476 492 2 4.0999999999999998e-01 -1.4683074583927116e+01 -8.0674216624694211e+00 -1.2519068636534850e+01 -1 0 1
884 295 2 4.0999999999999998e-01 -1.0559021679818294e+01 -1.4251472103296807e+01 -1.4505946217703782e+01 6 -3 0
60 20 2 4.0999999999999998e-01 -1.2517297148950671e+01 -1.4096738728618330e+01 -8.4689116343335566e+00 -4 -3 2
131 44 2 4.0999999999999998e-01 -1.0936536327921354e+01 -8.6716921694362643e+00 -8.9669073319850234e+00 2 2 -4
769 257 1 -8.1999999999999995e-01 -1.3817274174055534e+01 -1.4077926960397734e+01 -9.6385192493967402e+00 0 -4 0
862 288 1 -8.1999999999999995e-01 -1.3926386328371230e+01 -9.9000131334601242e+00 -1.0491180898696381e+01 4 4 4
1563 521 2 4.0999999999999998e-01 -1.0038451400873495e+01 -6.6676489193429713e+00 -1.2693775035132564e+01 10 -5 4
59 20 2 4.0999999999999998e-01 -1.0978052042852578e+01 -1.4425839140305017e+01 -8.0339823167478137e+00 -4 -3 2
1877 626 2 4.0999999999999998e-01 -1.0115454296898342e+01 -1.3715843135946322e+01 -1.2101204236664438e+01 0 -2 7
1026 342 2 4.0999999999999998e-01 -1.0581212236317191e+01 -1.2401941605428796e+01 -7.6156615566156782e+00 1 1 3
770 257 2 4.0999999999999998e-01 -1.3818823256237517e+01 -1.4079905505729050e+01 -1.0638538528723288e+01 0 -4 0
1562 521 2 4.0999999999999998e-01 -8.7019373412318917e+00 -6.1544079287230442e+00 -1.3479306636263768e+01 10 -5 4
1129 377 1 -8.1999999999999995e-01 -1.4229095079786955e+01 -1.0576875788804717e+01 -1.3253315008194495e+01 4 2 3
2059 687 1 -8.1999999999999995e-01 -7.6331491636861744e+00 -1.1071876361748984e+01 -8.1626568071436409e+00 0 -6 1
1561 521 1 -8.1999999999999995e-01 -9.5248391177346186e+00 -5.8629239589328055e+00 -1.2991541741276885e+01 10 -5 4
1131 377 2 4.0999999999999998e-01 -1.3405397387473512e+01 -1.0982504129806301e+01 -1.3649588442845383e+01 4 2 3
1969 657 1 -8.1999999999999995e-01 -1.3667158739643876e+01 -1.4442860461199714e+01 -1.2219785011408050e+01 3 -5 -5
771 257 2 4.0999999999999998e-01 -1.4703745572998887e+01 -1.4396940589863494e+01 -9.3031931363138725e+00 0 -4 0
1970 657 2 4.0999999999999998e-01 -1.4617614741590947e+01 -1.4619202628203691e+01 -1.2475874218719216e+01 3 -5 -5
2176 726 1 -8.1999999999999995e-01 -1.4305241051355756e+01 -1.1718211383271438e+01 -8.4077111034314438e+00 1 -5 0
1025 342 2 4.0999999999999998e-01 -1.0910441131377087e+01 -1.0803219489749921e+01 -7.6650775412440257e+00 1 1 3
2036 679 2 4.0999999999999998e-01 -1.2019818743090310e+01 -5.0419491698584924e+00 -1.1726359607906391e+01 7 -3 2
2061 687 2 4.0999999999999998e-01 -8.5926777755834358e+00 -1.1130971023402186e+01 -7.8872342979031265e+00 0 -6 1
394 132 1 -8.1999999999999995e-01 -9.6385494764202377e+00 -1.4933681858405615e+01 -9.3702459982063111e+00 4 0 -1
1067 356 2 4.0999999999999998e-01 -1.0281987397380707e+01 -7.0453600127307627e+00 -7.8132009671811753e+00 2 -5 -3
2012 671 2 4.0999999999999998e-01 -7.7639580026367945e+00 -1.2648860879579573e+01 -1.1198050416470954e+01 1 -1 6
1442 481 2 4.0999999999999998e-01 -1.4951153190579172e+01 -6.2806192313275009e+00 -9.8248081836041035e+00 0 -5 1
2068 690 1 -8.1999999999999995e-01 -1.4944489452982207e+01 -7.8461960226378533e+00 -9.2530082309001038e+00 1 -5 3
1878 626 2 4.0999999999999998e-01 -9.0942439055738014e+00 -1.4849276504475519e+01 -1.2683616694914557e+01 0 -2 7
2035 679 1 -8.1999999999999995e-01 -1.2006502871711039e+01 -5.3908047623697275e+00 -1.0789253755392924e+01 7 -3 2
497 166 2 4.0999999999999998e-01 -1.2387771066803948e+01 -6.5382967432239738e+00 -7.5426515677748656e+00 -2 -6 -2
1005 335 2 4.0999999999999998e-01 -1.4662728509381642e+01 -5.6569915104266393e+00 -1.3039089968539450e+01 5 1 -2
1024 342 1 -8.1999999999999995e-01 -1.0185973944506824e+01 -1.1489916914307965e+01 -7.7253998044348382e+00 1 1 3
1045 349 1 -8.1999999999999995e-01 -7.9727437799006413e+00 -1.1946985091201689e+01 -1.4796856655075269e+01 -1 -2 1
1542 514 2 4.0999999999999998e-01 -7.7469928814509021e+00 -7.6091972330016597e+00 -8.0754674364313885e+00 3 3 4
1049 350 2 4.0999999999999998e-01 -1.3000043434744880e+01 -1.0747635206219675e+01 -8.0303809823717032e+00 -1 3 -1
498 166 2 4.0999999999999998e-01 -1.2544569591626296e+01 -8.1512976845753151e+00 -7.7436199452991366e+00 -2 -6 -2
2295 765 2 4.0999999999999998e-01 -1.6273418676233931e-01 -1.1980531659219199e+01 -1.2803233360459185e+01 2 -3 2
2071 691 1 -8.1999999999999995e-01 -5.6982508849251978e+00 -9.2031775754287999e+00 -1.2362182265974120e+01 2 2 -2
1457 486 2 4.0999999999999998e-01 -1.7515591010988700e+00 -5.4593355965174126e+00 -1.3808816997876477e+01 1 -1 -2
1373 458 2 4.0999999999999998e-01 -5.3548219454426125e+00 -8.3215052980331343e+00 -8.4064353126100677e+00 1 -9 -6
2013 671 2 4.0999999999999998e-01 -7.1921373875020027e+00 -1.2258126757179316e+01 -1.2676933116339400e+01 1 -1 6
2073 691 2 4.0999999999999998e-01 -5.6863656742693678e+00 -9.6653929673976897e+00 -1.1475468906304060e+01 2 2 -2
1278 426 2 4.0999999999999998e-01 -5.9054305345400824e+00 -1.4045941718821981e+01 -1.1602097738733704e+01 0 1 2
1936 646 1 -8.1999999999999995e-01 -6.8933795295738385e+00 -6.7715868596180115e+00 -1.3951413162649427e+01 3 -1 2
2409 803 2 4.0999999999999998e-01 -3.3933736950109523e+00 -1.2122201732001873e+01 -8.0851049173822513e+00 2 -3 5
1938 646 2 4.0999999999999998e-01 -6.8304011785248768e+00 -7.4461662085813458e+00 -1.3215871673328088e+01 3 -1 2
1587 529 2 4.0999999999999998e-01 -1.4602613937515763e+00 -1.2952167852350275e+01 -9.0047731079102711e+00 4 -1 -5
818 273 2 4.0999999999999998e-01 -2.9595831236845402e+00 -1.3275399796876037e+01 -1.3310195663346793e+01 1 -5 -2
1937 646 2 4.0999999999999998e-01 -6.2408630080188683e+00 -6.0327638285054714e+00 -1.3782867677201381e+01 3 -1 2
2231 744 2 4.0999999999999998e-01 -1.8296501671928862e+00 -6.4595857842680040e+00 -1.0297827638479049e+01 -2 -3 -2
463 155 1 -8.1999999999999995e-01 -4.7807178736724580e+00 -5.0131173035203105e+00 -1.3178454550084938e+01 9 5 4
1208 403 2 4.0999999999999998e-01 -3.8538619410347721e+00 -5.7334267177406826e+00 -1.0475115167639261e+01 3 7 -8
1374 458 2 4.0999999999999998e-01 -4.0367530639018305e+00 -9.2543240261428821e+00 -8.1629404322186900e+00 1 -9 -6
1774 592 1 -8.1999999999999995e-01 -3.2637839866670326e-01 -1.2391684898536283e+01 -7.7092364110654481e+00 2 -3 -4
819 273 2 4.0999999999999998e-01 -1.5118132559415862e+00 -1.3372447455859842e+01 -1.4059388680319399e+01 1 -5 -2
1264 422 1 -8.1999999999999995e-01 -2.7525789797251985e+00 -1.0697900886817251e+01 -1.4566132473718712e+01 6 -3 2
2072 691 2 4.0999999999999998e-01 -6.3465790569523453e+00 -9.6629567877939415e+00 -1.2969074756959088e+01 2 2 -2
2570 857 2 4.0999999999999998e-01 -6.0868622456570556e+00 -1.0993261307427810e+01 -9.4825127145754742e+00 1 0 3
2293 765 1 -8.1999999999999995e-01 -1.6884619817576763e-01 -1.2828483935757649e+01 -1.3333313032396340e+01 2 -3 2
817 273 1 -8.1999999999999995e-01 -2.4812078598213425e+00 -1.3609883472561537e+01 -1.4122182483660964e+01 1 -5 -2
2232 744 2 4.0999999999999998e-01 -1.0324356332033133e+00 -5.8497917226896821e+00 -9.0096715044999698e+00 -2 -3 -2
126 42 2 4.0999999999999998e-01 -7.4001700654201592e+00 -1.4458624287886913e+01 -7.9909485994210687e+00 1 -5 -1
2569 857 1 -8.1999999999999995e-01 -5.3254759815789754e+00 -1.0633685715541652e+01 -1.0021995088883607e+01 1 0 3
119 40 2 4.0999999999999998e-01 -4.8192205733042144e+00 -7.8808995417269117e+00 -1.4378208027934869e+01 -2 1 -1
1265 422 2 4.0999999999999998e-01 -3.1035291633426461e+00 -9.8665640615497487e+00 -1.4997128850798665e+01 6 -3 2
1586 529 2 4.0999999999999998e-01 -2.3989145857776482e+00 -1.4268506645518668e+01 -9.2348348694658142e+00 4 -1 -5
1266 422 2 4.0999999999999998e-01 -2.9885859481636938e+00 -1.0694684263287524e+01 -1.3594363358468339e+01 6 -3 2
208 70 1 -8.1999999999999995e-01 -3.3194615782964050e+00 -7.4704358427921038e+00 -1.0767649977437413e+01 2 -2 2
2257 753 1 -8.1999999999999995e-01 -3.2822481437381903e+00 -1.2230178908819935e+01 -1.1859325656174189e+01 1 0 -1
209 70 2 4.0999999999999998e-01 -3.6643439094310875e+00 -8.0975929521167131e+00 -1.1466058866251309e+01 2 -2 2
1585 529 1 -8.1999999999999995e-01 -2.0625951346820521e+00 -1.3422921395004224e+01 -9.6494668479128016e+00 4 -1 -5
2571 857 2 4.0999999999999998e-01 -4.4657362308108723e+00 -1.0805429467594003e+01 -9.5409580981999795e+00 1 0 3
2011 671 1 -8.1999999999999995e-01 -7.0496516426745934e+00 -1.2835114305381337e+01 -1.1872676927218487e+01 1 -1 6
210 70 2 4.0999999999999998e-01 -3.6556269766075165e+00 -7.7541813561790898e+00 -9.8695819534564890e+00 2 -2 2
2230 744 1 -8.1999999999999995e-01 -9.4925065466889436e-01 -6.1171338836716078e+00 -9.9696992590968421e+00 -2 -3 -2
2259 753 2 4.0999999999999998e-01 -4.2574403771733387e+00 -1.2324238629859208e+01 -1.1658831923644952e+01 1 0 -1
2258 753 2 4.0999999999999998e-01 -2.7487483614875590e+00 -1.2637503641499961e+01 -1.1118036630467378e+01 1 0 -1
1540 514 1 -8.1999999999999995e-01 -6.9788220862872610e+00 -8.1859843202686751e+00 -7.7974833421542398e+00 3 3 4
1372 458 1 -8.1999999999999995e-01 -4.3552038911614268e+00 -8.3432381513875633e+00 -8.4247734549841553e+00 1 -9 -6
125 42 2 4.0999999999999998e-01 -7.1264122019170930e+00 -1.2849625198300831e+01 -8.0450293135125364e+00 1 -5 -1
2407 803 1 -8.1999999999999995e-01 -3.5521736291947299e+00 -1.1143829680968077e+01 -7.9523813873214886e+00 2 -3 5
1775 592 2 4.0999999999999998e-01 -1.4091698469347946e-01 -1.1506826810339895e+01 -8.1366414435357157e+00 2 -3 -4
1276 426 1 -8.1999999999999995e-01 -5.2216616856823048e+00 -1.4775633117724935e+01 -1.1609547627056644e+01 0 1 2
2060 687 2 4.0999999999999998e-01 -7.3113610319124129e+00 -1.0131751657516553e+01 -8.0501274975613093e+00 0 -6 1
124 42 1 -8.1999999999999995e-01 -6.7213421969047218e+00 -1.3740299308304184e+01 -7.8384795656618946e+00 1 -5 -1
738 246 2 4.0999999999999998e-01 -7.5472559415846661e+00 -1.1813108373695977e+01 -5.5007409375300700e+00 0 0 -1
737 246 2 4.0999999999999998e-01 -9.0126526224661756e+00 -1.2503719814862194e+01 -5.2947931729436419e+00 0 0 -1
736 246 1 -8.1999999999999995e-01 -8.0307078567243799e+00 -1.2609834909081195e+01 -5.1380483763957780e+00 0 0 -1
2201 734 2 4.0999999999999998e-01 -8.1269952400331071e+00 -1.1709883889294435e+01 -3.4019323706408713e+00 3 -2 1
756 252 2 4.0999999999999998e-01 -9.4244795321759867e+00 -9.3249206429398850e+00 -3.6213212083768163e+00 1 -2 -7
496 166 1 -8.1999999999999995e-01 -1.1941291605911971e+01 -7.4241139500158573e+00 -7.4160465547246499e+00 -2 -6 -2
2525 842 2 4.0999999999999998e-01 -1.1884384282390949e+01 -7.3117984800245894e+00 -5.5661136025057552e+00 4 0 2
2524 842 1 -8.1999999999999995e-01 -1.1846524142256635e+01 -7.5273482504351907e+00 -4.5903319764700736e+00 4 0 2
952 318 1 -8.1999999999999995e-01 -1.0600642214854469e+01 -1.2131987254337318e+01 -4.2908110766873584e+00 5 -2 -2
2526 842 2 4.0999999999999998e-01 -1.2288067774708329e+01 -6.7962867950743178e+00 -4.0701077979297224e+00 4 0 2
1048 350 1 -8.1999999999999995e-01 -1.2549761752533097e+01 -1.0104189837536044e+01 -7.4112935130957345e+00 -1 3 -1
1050 350 2 4.0999999999999998e-01 -1.3029305142713202e+01 -1.0094845996959048e+01 -6.5337995419173556e+00 -1 3 -1
954 318 2 4.0999999999999998e-01 -1.0943053688287364e+01 -1.2357800089336013e+01 -3.3787760825188986e+00 5 -2 -2
1179 393 2 4.0999999999999998e-01 -1.4568402927423458e+01 -5.4491955422141043e+00 -5.7007043850908872e+00 3 3 -6
953 318 2 4.0999999999999998e-01 -1.0523021166852207e+01 -1.1139098104460492e+01 -4.3813149717439934e+00 5 -2 -2
1337 446 2 4.0999999999999998e-01 -1.2862745427077936e+01 -9.1277512764354345e+00 -4.7829854955515358e+00 5 1 2
332 111 2 4.0999999999999998e-01 -1.2660282460496534e+01 -1.3150724291506441e+01 -6.4491025356722051e+00 4 0 2
2366 789 2 4.0999999999999998e-01 -8.4706401298942104e+00 -9.0215838500287422e+00 -5.0110568874727015e+00 1 0 4
755 252 2 4.0999999999999998e-01 -1.0678844990201437e+01 -8.7877626662311670e+00 -4.5184135434640158e+00 1 -2 -7
754 252 1 -8.1999999999999995e-01 -9.9824754820316723e+00 -9.5003101815940116e+00 -4.4324462761364583e+00 1 -2 -7
333 111 2 4.0999999999999998e-01 -1.2192023639828880e+01 -1.2944817816889163e+01 -4.8982697232580890e+00 4 0 2
385 129 1 -8.1999999999999995e-01 -1.3551607222771763e+01 -5.0829587740117166e+00 -3.0871324646691125e+00 3 1 4
2563 855 1 -8.1999999999999995e-01 -1.2791306423746454e+01 -1.2442245279373797e+01 -2.2203405852183540e+00 4 4 -1
331 111 1 -8.1999999999999995e-01 -1.2979081948786462e+01 -1.3010692838410424e+01 -5.5116576490122178e+00 4 0 2
2365 789 1 -8.1999999999999995e-01 -7.5646011617950739e+00 -9.1854431176746552e+00 -5.4012983020174552e+00 1 0 4
659 220 2 4.0999999999999998e-01 -1.0599426310712246e+01 -1.0548582034866749e+01 -7.3479927665676392e-01 0 0 -1
2200 734 1 -8.1999999999999995e-01 -8.0788508813472788e+00 -1.1917332202639068e+01 -2.4248488803759258e+00 3 -2 1
2202 734 2 4.0999999999999998e-01 -8.9967401099330679e+00 -1.1877312652513476e+01 -2.0299784739210622e+00 3 -2 1
306 102 2 4.0999999999999998e-01 -8.0667991111345234e+00 -5.9482733024606542e+00 -6.2008476030191861e+00 0 -8 6
1336 446 1 -8.1999999999999995e-01 -1.3257059774366006e+01 -1.0031300610391597e+01 -4.9507941953382986e+00 5 1 2
610 204 1 -8.1999999999999995e-01 -1.4363123018243916e+01 -1.4588253359896298e+01 -2.4593797724873081e+00 -2 1 0
703 235 1 -8.1999999999999995e-01 -8.3937059523977720e+00 -8.0626279932720202e+00 -2.4208525929071207e+00 6 2 -3
1338 446 2 4.0999999999999998e-01 -1.2528889895825097e+01 -1.0716694626353163e+01 -4.9577588749953136e+00 5 1 2
704 235 2 4.0999999999999998e-01 -9.0773844280552467e+00 -7.5554425948078263e+00 -1.8960749322384078e+00 6 2 -3
660 220 2 4.0999999999999998e-01 -1.1435188235893602e+01 -1.1695983327654648e+01 -1.5420902857601746e+00 0 0 -1
1177 393 1 -8.1999999999999995e-01 -1.3573758040691814e+01 -5.5164388097667345e+00 -5.7794749410826824e+00 3 3 -6
658 220 1 -8.1999999999999995e-01 -1.0531141678514309e+01 -1.1425064961322541e+01 -1.2114122004532639e+00 0 0 -1
1807 603 1 -8.1999999999999995e-01 -9.8468146596435471e+00 -5.2597810205990445e+00 -3.2779730714451034e+00 5 1 2
294 98 2 4.0999999999999998e-01 -1.4803082383785760e+01 -1.2535367318361128e+01 -5.1136448141995867e+00 2 -1 -1
1721 574 2 4.0999999999999998e-01 -1.0082449490374064e+01 -1.4236354011049320e+01 -5.0492903825940765e+00 3 -4 -1
386 129 2 4.0999999999999998e-01 -1.3569123867703810e+01 -5.0246284741887095e+00 -4.0852985749967896e+00 3 1 4
1730 577 2 4.0999999999999998e-01 -1.0920315169603112e+01 -5.9527188659075883e+00 -1.5654130266496527e+00 3 -9 -1
2564 855 2 4.0999999999999998e-01 -1.3430023674319807e+01 -1.1794162977270149e+01 -2.6351591645391945e+00 4 4 -1
1729 577 1 -8.1999999999999995e-01 -1.1136490967815417e+01 -6.7442364951369456e+00 -9.9373764834440514e-01 3 -9 -1
1808 603 2 4.0999999999999998e-01 -9.2989136920960149e+00 -5.6696668924769060e+00 -4.0072486942630103e+00 5 1 2
2565 855 2 4.0999999999999998e-01 -1.3201618917845414e+01 -1.3354152883399877e+01 -2.2097078490380060e+00 4 4 -1
1178 393 2 4.0999999999999998e-01 -1.3269090073304296e+01 -5.0169109410767270e+00 -6.5904583981713785e+00 3 3 -6
304 102 1 -8.1999999999999995e-01 -7.7834543160493812e+00 -5.9058341837376975e+00 -5.2427455791848114e+00 0 -8 6
2142 714 2 4.0999999999999998e-01 -1.1019472977382858e+01 -8.2289828305433943e+00 -5.0951855348504438e-02 4 -4 5
611 204 2 4.0999999999999998e-01 -1.4664479616255994e+01 -1.4873981338322567e+01 -3.3690988411632752e+00 -2 1 0
1731 577 2 4.0999999999999998e-01 -1.1752344457918401e+01 -6.4650356088620686e+00 -2.5697699930374185e-01 3 -9 -1
705 235 2 4.0999999999999998e-01 -7.6201673011650106e+00 -8.2894532294818184e+00 -1.8290476466529189e+00 6 2 -3
2208 736 2 4.0999999999999998e-01 -1.4745813702714019e+01 -5.4933110701206012e+00 -2.0561705227504401e+00 2 -2 7
1060 354 1 -8.1999999999999995e-01 -1.5194458080409561e+00 -5.4622055397787399e+00 -1.1417161636594813e+00 -1 1 -8
2408 803 2 4.0999999999999998e-01 -2.9405423793047145e+00 -1.0800558671548623e+01 -7.2395580841084781e+00 2 -3 5
1929 643 2 4.0999999999999998e-01 -1.1218834759341334e-01 -5.7256847954217314e+00 -6.8561710526027611e+00 0 -1 4
261 87 2 4.0999999999999998e-01 -3.2781264460010036e+00 -7.1462690779279239e+00 -7.0068714060489459e+00 6 -1 -2
1541 514 2 4.0999999999999998e-01 -7.1150661665927588e+00 -8.4910757867147630e+00 -6.8549327634106003e+00 3 3 4
426 142 2 4.0999999999999998e-01 -1.1453725972205806e+00 -1.4913814730036080e+01 -4.6123220969200300e+00 1 -5 1
841 281 1 -8.1999999999999995e-01 -1.6094159019992933e+00 -1.0183892846318068e+01 -6.1273715076952175e+00 8 -9 -6
2161 721 1 -8.1999999999999995e-01 -6.9028565542776370e+00 -1.4700696145823162e+01 -1.8573434893567828e+00 4 -5 0
1502 501 2 4.0999999999999998e-01 -5.0509005615040294e+00 -5.9778747854528689e+00 -1.5500718176652661e-01 -3 -5 5
1776 592 2 4.0999999999999998e-01 -2.0047826711260441e-01 -1.2316948493473538e+01 -6.7199899249954456e+00 2 -3 -4
425 142 2 4.0999999999999998e-01 -2.6625997305111735e+00 -1.4691686321116739e+01 -5.1739508704386985e+00 1 -5 1
1522 508 1 -8.1999999999999995e-01 -5.1005526476262357e+00 -6.9736822283181041e+00 -4.5271055251269292e+00 -1 -1 1
171 57 2 4.0999999999999998e-01 -5.6594367562070325e+00 -1.1345358449938390e+01 -7.8397647158244865e-01 -1 -1 1
260 87 2 4.0999999999999998e-01 -2.4463933714877530e+00 -5.7836659459057707e+00 -6.6629545207370580e+00 6 -1 -2
2008 670 1 -8.1999999999999995e-01 -7.3527187495781909e-01 -1.2297819823177061e+01 -2.2875712219884186e+00 7 -7 4
843 281 2 4.0999999999999998e-01 -1.1365513062333381e+00 -1.0831445098244712e+01 -5.5297763177073964e+00 8 -9 -6
170 57 2 4.0999999999999998e-01 -7.1385293500056903e+00 -1.1200671863136577e+01 -1.4608051036939518e+00 -1 -1 1
1945 649 1 -8.1999999999999995e-01 -1.8380864479704329e-01 -6.0601382074341785e+00 -3.6860489312010110e+00 -1 -2 -3
1927 643 1 -8.1999999999999995e-01 -9.3587452018442008e-01 -5.3488230154309573e+00 -7.2799176209588730e+00 0 -1 4
305 102 2 4.0999999999999998e-01 -6.7915931977210882e+00 -6.0185639782897553e+00 -5.1831761517919173e+00 0 -8 6
1061 354 2 4.0999999999999998e-01 -1.7032449425110130e+00 -6.3957758430597220e+00 -1.4494647988785232e+00 -1 1 -8
2162 721 2 4.0999999999999998e-01 -7.0321757848962463e+00 -1.3712436721909771e+01 -1.7757060467972163e+00 4 -5 0
1289 430 2 4.0999999999999998e-01 -3.6178372105606886e+00 -1.1055323611127424e+01 -3.2832663077817159e-01 -5 0 -3
259 87 1 -8.1999999999999995e-01 -3.2772290001587070e+00 -6.3045532007554073e+00 -6.4669099212865291e+00 6 -1 -2
169 57 1 -8.1999999999999995e-01 -6.4686811844949190e+00 -1.0762923577577393e+01 -8.6103442101162209e-01 -1 -1 1
1008 336 2 4.0999999999999998e-01 -1.9661942735864990e-01 -1.2569813779051486e+01 -3.9383889654253377e+00 1 -5 6
83 28 2 4.0999999999999998e-01 -5.8449439814429205e+00 -6.1751519850645948e+00 -2.6844617244131737e+00 1 -2 -5
979 327 1 -8.1999999999999995e-01 -3.9672022120927952e+00 -9.6158717090967158e+00 -4.6075294672013154e+00 0 -5 -1
2239 747 1 -8.1999999999999995e-01 -4.7345761037351153e+00 -1.4723609327949749e+01 -6.1421419281429834e+00 -1 -3 -1
742 248 1 -8.1999999999999995e-01 -2.8783078600130771e+00 -9.6255234076958907e+00 -1.3132626172315529e+00 4 -1 3
743 248 2 4.0999999999999998e-01 -3.6779391144241629e+00 -1.0109482342302634e+01 -1.6688163211868350e+00 4 -1 3
980 327 2 4.0999999999999998e-01 -3.1266847513473639e+00 -9.4703065486009343e+00 -5.1294356027002781e+00 0 -5 -1
1618 540 1 -8.1999999999999995e-01 -2.2471089901724568e+00 -1.4696853325696626e+01 -1.2532608286896298e+00 1 5 0
1126 376 1 -8.1999999999999995e-01 -4.6386889582190651e+00 -1.2160886703082021e+01 -3.4028432028280324e+00 -1 1 2
1127 376 2 4.0999999999999998e-01 -5.6059194420488456e+00 -1.2223926354520273e+01 -3.6488839541594071e+00 -1 1 2
724 242 1 -8.1999999999999995e-01 -2.6847201226438475e+00 -7.6034336468022463e+00 -3.0407027000335738e+00 6 -3 2
1128 376 2 4.0999999999999998e-01 -4.4176287179250622e+00 -1.2871632635444575e+01 -2.7349978078356187e+00 -1 1 2
744 248 2 4.0999999999999998e-01 -2.6353786226885063e+00 -8.8811519910348871e+00 -1.9353087874217820e+00 4 -1 3
842 281 2 4.0999999999999998e-01 -9.4855593802423321e-01 -9.5356512713339434e+00 -6.5056462631446337e+00 8 -9 -6
981 327 2 4.0999999999999998e-01 -4.2530750325195523e+00 -1.0570125728216052e+01 -4.6953979003499224e+00 0 -5 -1
2010 670 2 4.0999999999999998e-01 -1.0204436701439796e+00 -1.1588022092726916e+01 -1.6434368151234349e+00 7 -7 4
725 242 2 4.0999999999999998e-01 -3.3305382444559015e+00 -8.3129770631463060e+00 -3.3226813909278743e+00 6 -3 2
726 242 2 4.0999999999999998e-01 -2.5161400337243212e+00 -6.9827712264248358e+00 -3.8064727288049589e+00 6 -3 2
2009 670 2 4.0999999999999998e-01 -1.2719714309956220e+00 -1.3126650959335683e+01 -2.1293391871163365e+00 7 -7 4
1524 508 2 4.0999999999999998e-01 -4.8811119714192941e+00 -7.9468230446131676e+00 -4.4571941020520267e+00 -1 -1 1
1523 508 2 4.0999999999999998e-01 -4.5051560996632851e+00 -6.5457465791892382e+00 -5.2071194084278254e+00 -1 -1 1
1006 336 1 -8.1999999999999995e-01 -7.7454402009440315e-03 -1.2378066207307322e+01 -4.9015111460158582e+00 1 -5 6
2241 747 2 4.0999999999999998e-01 -5.3621117522788460e+00 -1.4262846150437893e+01 -6.7697892378088742e+00 -1 -3 -1
82 28 1 -8.1999999999999995e-01 -5.9327326150570681e+00 -5.7101340824491800e+00 -1.8034984002070047e+00 1 -2 -5
2367 789 2 4.0999999999999998e-01 -6.9068926445979049e+00 -8.5512941576956454e+00 -4.9947033701451460e+00 1 0 4
1146 382 2 4.0999999999999998e-01 -9.5081805394344965e+00 -1.1918853082594445e+01 5.6953458693787518e-01 3 0 1
1144 382 1 -8.1999999999999995e-01 -9.1437439420795261e+00 -1.1780790634450572e+01 1.4904958171291884e+00 3 0 1
153 51 2 4.0999999999999998e-01 -1.2684668826580094e+01 -1.1233685099084511e+01 1.2002439802791312e+00 10 -6 -1
544 182 1 -8.1999999999999995e-01 -9.5453193258016533e+00 -6.4211393506152792e+00 3.4942975471432920e+00 3 -2 -3
1145 382 2 4.0999999999999998e-01 -9.1708378020106984e+00 -1.0807180197267909e+01 1.7171971636228189e+00 3 0 1
978 326 2 4.0999999999999998e-01 -9.4066844007265651e+00 -1.3519102587689142e+01 1.9019369209677190e+00 4 1 1
152 51 2 4.0999999999999998e-01 -1.2321318019807418e+01 -9.6668341219360752e+00 1.4825562533219721e+00 10 -6 -1
1539 513 2 4.0999999999999998e-01 -9.6609775284333796e+00 -7.9991462358092109e+00 2.9020121723767556e+00 4 -1 0
151 51 1 -8.1999999999999995e-01 -1.2844885499236167e+01 -1.0454801185539367e+01 1.8066393067838380e+00 10 -6 -1
2141 714 2 4.0999999999999998e-01 -1.0242422207558917e+01 -8.9776167343004456e+00 1.1748072832274179e+00 4 -4 5
2042 681 2 4.0999999999999998e-01 -1.2285265381592584e+01 -1.3447195741453967e+01 1.9345445385211573e+00 4 3 0
2167 723 1 -8.1999999999999995e-01 -1.1328688622000371e+01 -1.0736291809711551e+01 3.9856461499819762e+00 3 4 -3
2140 714 1 -8.1999999999999995e-01 -1.0832672047047312e+01 -9.1123790469043300e+00 3.7888701235732469e-01 4 -4 5
1906 636 1 -8.1999999999999995e-01 -1.0617857640444440e+01 -8.8574914342412860e+00 5.5177017111937996e+00 3 -6 -1
2168 723 2 4.0999999999999998e-01 -1.2070545768949959e+01 -1.0797862939889558e+01 3.3178873169362735e+00 3 4 -3
1537 513 1 -8.1999999999999995e-01 -9.5295336170361384e+00 -8.9753584324826505e+00 2.7294514438498094e+00 4 -1 0
1538 513 2 4.0999999999999998e-01 -9.9819589607939747e+00 -9.5046104270618059e+00 3.4472595859058597e+00 4 -1 0
1959 653 2 4.0999999999999998e-01 -1.1280879920411744e+01 -7.0089631369033381e+00 5.9751256776166795e+00 2 4 -3
2169 723 2 4.0999999999999998e-01 -1.1245239142687973e+01 -1.1605920000547039e+01 4.4722957350369779e+00 3 4 -3
1907 636 2 4.0999999999999998e-01 -1.1043692744528046e+01 -9.6014306360469384e+00 5.0026640465618453e+00 3 -6 -1
1191 397 2 4.0999999999999998e-01 -1.3251377104288460e+01 -1.2638775694932598e+01 4.9708930364572463e+00 -2 -3 1
2041 681 1 -8.1999999999999995e-01 -1.3038884768581930e+01 -1.3662531871499516e+01 1.3134704701024358e+00 4 3 0
918 306 2 4.0999999999999998e-01 -1.4107736538438273e+01 -9.6532924256563710e+00 3.6393126691647506e+00 2 -5 -4
775 259 1 -8.1999999999999995e-01 -1.2221952089833854e+01 -6.3817289106334627e+00 1.5008223231654565e+00 3 -3 -2
1908 636 2 4.0999999999999998e-01 -1.0119737595137288e+01 -9.2350076526074858e+00 6.2983442632702289e+00 3 -6 -1
1957 653 1 -8.1999999999999995e-01 -1.1455730146324116e+01 -6.0385112685884170e+00 5.8087062698322978e+00 2 4 -3
1324 442 1 -8.1999999999999995e-01 -1.0014360495976650e+01 -1.4457383223124841e+01 7.0017497328787055e+00 10 -2 3
722 241 2 4.0999999999999998e-01 -1.4124957176942820e+01 -1.2006047516247174e+01 7.3310996177699383e+00 2 0 -4
1958 653 2 4.0999999999999998e-01 -1.2354550485293954e+01 -5.9298042593684084e+00 5.3840303392375883e+00 2 4 -3
976 326 1 -8.1999999999999995e-01 -9.2674503030744262e+00 -1.4508941212387445e+01 1.9315713739995655e+00 4 1 1
2423 808 2 4.0999999999999998e-01 -1.4172128509577412e+01 -6.9540514651239445e+00 4.2871942440716939e+00 0 -1 6
539 180 2 4.0999999999999998e-01 -1.3987949946545044e+01 -6.7009256668712815e+00 1.3027094167790754e+00 -5 1 3
1189 397 1 -8.1999999999999995e-01 -1.2649227931778999e+01 -1.3378635783231591e+01 4.6707792808121749e+00 -2 -3 1
1190 397 2 4.0999999999999998e-01 -1.2684375473777591e+01 -1.4126628982706411e+01 5.3335881997612855e+00 -2 -3 1
721 241 1 -8.1999999999999995e-01 -1.4327150824121718e+01 -1.1777571910781949e+01 6.3787543580214336e+00 2 0 -4
581 194 2 4.0999999999999998e-01 -1.4488203714589901e+01 -1.3249575926414817e+01 2.3950301718354741e+00 -4 2 2
919 307 1 -8.1999999999999995e-01 -8.9333599729941131e+00 -1.1512646436356317e+01 5.5015179070193536e+00 -2 -2 -7
920 307 2 4.0999999999999998e-01 -8.0489464492853759e+00 -1.1964428805489074e+01 5.6187794959127668e+00 -2 -2 -7
546 182 2 4.0999999999999998e-01 -8.5601192547426486e+00 -6.2645208648845205e+00 3.4243240016893370e+00 3 -2 -3
545 182 2 4.0999999999999998e-01 -9.8029562769509599e+00 -6.4984483189042965e+00 4.4574649008183034e+00 3 -2 -3
2422 808 1 -8.1999999999999995e-01 -1.4011853157814471e+01 -6.1027684933403759e+00 4.7868682198700032e+00 0 -1 6
1119 373 2 4.0999999999999998e-01 -8.2574902315764174e+00 -1.0132785401314788e+01 6.2809293451974053e+00 -1 -3 -1
2043 681 2 4.0999999999999998e-01 -1.3240881128845400e+01 -1.4640784428076403e+01 1.3610546786484381e+00 4 3 0
916 306 1 -8.1999999999999995e-01 -1.4327554527196670e+01 -8.7081840321094361e+00 3.8811700899149333e+00 2 -5 -4
2514 838 2 4.0999999999999998e-01 -7.6830688144401647e+00 -6.5165006007769257e+00 7.0322406748373059e+00 4 5 2
785 262 2 4.0999999999999998e-01 -1.2099949549480430e+01 -8.3597619989704057e+00 7.1445732482897082e+00 3 0 -5