2611
Atoms. Timestep: 23000000
O 1.18073 4.14268 -3.41657
H 0.655039 4.98498 -3.53533
H 2.13226 4.30394 -3.6783
O 13.2678 -6.3662 -2.14521
H 13.7308 -5.9183 -1.38044
H 13.4627 -5.86867 -2.99043
O -7.98886 6.28195 4.0384
H -8.21152 5.31117 4.12748
H -7.03248 6.3807 3.76362
O -7.30786 10.4393 1.68775
H -7.53833 11.4028 1.82357
H -6.89689 10.0739 2.52296
O 13.5139 -11.7269 -2.69963
H 12.7982 -11.7122 -2.0014
H 14.083 -12.5398 -2.57653
O 4.39031 2.64424 -9.57098
H 3.8602 2.46096 -10.3988
H 5.29175 2.99579 -9.82346
O -0.841759 -5.67753 3.11688
H 0.0680867 -5.86198 2.74528
H -1.35537 -6.53312 3.1809
O 9.50296 -0.252625 -3.42713
H 10.4111 -0.398899 -3.81921
H 9.56864 0.391848 -2.66537
O 7.9272 -13.6951 -5.39433
H 7.01491 -13.7475 -4.98823
H 8.40667 -12.8947 -5.03472
O -5.93901 10.0273 13.9458
H -6.32244 10.9308 13.7547
H -5.44454 10.0521 14.8146
O -8.09899 -8.06748 7.57785
H -7.86835 -8.34849 8.50939
H -9.01778 -8.38989 7.35028
O 13.2772 8.23384 12.1827
H 12.5518 8.62322 12.7502
H 12.9647 8.17751 11.2346
O -5.11695 10.5997 -11.0866
H -4.41445 10.9731 -10.4808
H -5.97945 11.0821 -10.9339
O -6.57273 -9.37596 9.42019
H -6.89842 -9.5326 10.3526
H -5.71589 -9.87168 9.27875
O -0.543354 -10.6086 -1.01803
H -0.970752 -11.5083 -1.10642
H -0.604581 -10.3024 -0.0680787
O -6.57754 3.81523 12.3583
H -6.7524 4.73157 12.7184
H -7.24814 3.60283 11.6476
O 14.8537 -4.94439 -0.500348
H 14.8926 -4.80085 0.488493
H -14.2177 -4.99987 -0.865899
O 8.59292 -8.64167 -10.6572
H 9.30015 -8.76758 -9.96159
H 8.32295 -7.67932 -10.6877
O -8.21032 13.0754 1.56134
H -8.789 12.9544 0.754856
H -8.46603 13.9202 2.03135
O -12.3073 -13.9174 -9.99464
H -11.6058 -14.5497 -9.66593
H -12.6573 -14.2364 -10.8754
O 7.05276 1.38457 1.41354
H 7.01237 0.401866 1.23303
H 6.44062 1.60966 2.17152
O -7.82833 -0.000979008 -5.48724
H -7.24465 -0.750877 -5.79852
H -7.26901 0.812275 -5.32694
O 14.0281 4.47479 10.0297
H 13.0433 4.36182 9.89805
H 14.5199 3.89573 9.37956
O -14.5141 -6.95504 7.61198
H -14.9972 -7.81571 7.7726
H -14.7542 -6.29943 8.32783
O -3.32412 -4.54624 6.08174
H -3.72238 -5.34958 6.52441
H -2.34407 -4.6917 5.94659
O -5.49752 -13.9666 12.5931
H -4.70968 -13.4817 12.9726
H -5.44826 -14.9326 12.8469
O 3.27285 -1.67167 -7.57844
H 3.34568 -2.62685 -7.29166
H 3.98583 -1.13347 -7.12909
O -5.13654 -6.1273 -1.12227
H -4.40274 -6.13712 -1.80151
H -5.90352 -5.58679 -1.46798
O -5.02274 4.78421 -7.82099
H -4.20934 4.32742 -8.18104
H -5.10657 4.59364 -6.84294
O -10.3904 -4.75068 5.25106
H -10.6915 -4.44632 6.15475
H -11.1798 -4.81348 4.64042
O -4.47802 -3.7602 -13.4076
H -4.46069 -4.03283 -12.4457
H -3.62103 -4.03066 -13.8462
O 10.957 6.05801 -5.57764
H 10.1675 5.81872 -6.14275
H 11.2576 6.98534 -5.80044
O 6.45036 1.54946 14.6114
H 5.48025 1.79116 14.5916
H 6.83784 1.79849 -14.5015
O -3.94487 13.8652 -6.73956
H -3.69288 14.3384 -7.58367
H -3.73501 14.4486 -5.95502
O 6.9064 12.4768 7.80909
H 7.07468 13.4538 7.67815
H 7.69374 12.061 8.26424
O 11.4063 -13.5274 9.3981
H 10.6866 -13.2134 10.0172
H 11.0053 -14.1032 8.68567
O 10.6742 -5.64226 11.0813
H 9.84342 -5.9898 11.516
H 11.4676 -5.87828 11.6423
O 3.83244 8.39892 -7.93558
H 3.63878 9.30969 -8.30018
H 3.26328 7.724 -8.40511
O 9.12038 -12.2912 -2.95788
H 8.44219 -11.861 -2.36208
H 9.486 -13.1079 -2.51148
O -3.80709 -7.74823 -14.9346
H -3.14715 -7.58742 -14.2007
H -3.5185 -7.25644 14.2444
O -2.92041 12.6878 -12.7984
H -2.56681 13.5111 -12.3544
H -3.90416 12.7863 -12.9482
O -6.449 -14.4611 -5.64836
H -6.26633 -14.8178 -6.56453
H -6.28342 -13.4751 -5.63543
O -9.56553 9.10549 10.3109
H -9.99061 9.18503 9.4093
H -9.98675 9.7616 10.937
O -11.1471 -7.70118 -8.4539
H -11.6263 -8.51534 -8.12619
H -10.4257 -7.45581 -7.80636
O -0.871584 1.41963 14.3289
H -1.63486 1.15464 13.7397
H -0.432549 2.23784 13.9578
O 8.8579 -4.71336 -2.36292
H 8.37885 -5.5347 -2.05334
H 9.57269 -4.4765 -1.70497
O 7.65789 6.56658 11.4072
H 8.48962 6.5164 10.8544
H 7.09198 5.76104 11.2318
O 10.686 8.63425 -1.86807
H 10.1262 8.73952 -2.68998
H 11.5873 8.28302 -2.12138
O 11.5622 10.9361 -12.7374
H 11.8508 10.4517 -11.9116
H 10.7706 10.473 -13.136
O 3.18972 2.12877 -7.35364
H 3.75079 2.39532 -8.13726
H 3.6575 1.4114 -6.8374
O -14.2518 -9.21268 4.78812
H -14.2858 -9.99408 5.41117
H -13.344 -9.15695 4.37254
O -4.74977 11.5332 2.01674
H -4.25647 11.4666 1.14948
H -5.52313 10.8993 2.00984
O 10.7145 6.43723 10.6688
H 10.9682 6.25473 11.6187
H 10.9069 5.62962 10.1114
O 9.01006 8.94113 -10.772
H 9.88811 8.91355 -10.2944
H 9.12189 9.40976 -11.6483
O -6.42828 -12.9156 10.2905
H -5.87662 -13.104 9.47804
H -5.98719 -13.3168 11.0932
O 10.6359 2.2126 -7.99066
H 10.1024 2.39224 -7.16415
H 11.5054 2.70371 -7.93947
O -3.98099 -10.5273 0.237153
H -4.8411 -10.4346 0.738685
H -4.07566 -11.2399 -0.457953
O -6.25911 -14.9963 4.39741
H -5.72628 14.163 4.48935
H -7.03872 14.8405 3.79297
O 3.26573 -4.5986 0.780874
H 2.52616 -4.21032 0.231149
H 3.83451 -5.18706 0.206306
O 8.49878 2.48281 -0.438897
H 7.86691 2.1473 0.259742
H 9.43658 2.25463 -0.17737
O -0.11606 -4.82267 5.59915
H -0.381515 -5.38511 4.81613
H 0.634584 -5.26613 6.08885
O 4.16932 -10.4463 -5.6938
H 3.39524 -9.8496 -5.90507
H 4.07091 -11.3085 -6.19074
O -9.36487 8.48374 2.90392
H -8.78656 7.70005 3.13044
H -8.79493 9.23063 2.56153
O 8.59946 5.5408 -7.06991
H 8.50741 4.62872 -6.67046
H 7.80883 6.09754 -6.81524
O 1.87257 0.564945 -9.69185
H 1.21859 1.24877 -10.0153
H 2.20912 0.827206 -8.78748
O 6.65758 -5.69823 1.22155
H 5.9614 -6.40168 1.07866
H 6.92641 -5.31133 0.339531
O 8.0029 14.9884 10.9392
H 7.87412 -14.3075 10.2414
H 8.31608 -14.587 11.7884
O -4.40643 11.8822 11.4662
H -4.17914 11.0853 10.9067
H -3.68604 12.0302 12.1438
O 3.41041 -2.0491 -2.25325
H 2.77502 -2.47568 -1.60963
H 2.91928 -1.38289 -2.81438
O -4.38013 -7.68619 -11.3271
H -4.90875 -8.42452 -11.7458
H -5.00385 -6.99303 -10.9659
O 3.75574 -6.34216 -8.81
H 4.73203 -6.54518 -8.88459
H 3.54153 -6.07581 -7.87027
O -6.63253 6.14409 0.148727
H -7.31005 6.37078 -0.550922
H -6.14052 6.97228 0.416979
O 5.58863 12.4904 -3.29973
H 4.97423 11.9596 -3.88338
H 6.44664 11.9915 -3.17812
O -3.44339 -1.59363 -14.6859
H -4.15124 -2.22117 -14.3618
H -2.54702 -2.02796 -14.5975
O -8.73322 12.7873 10.9537
H -8.38497 13.1721 10.099
H -9.73205 12.8348 10.9581
O -2.94908 0.598676 10.2625
H -3.32136 1.50587 10.4582
H -2.67418 0.159557 11.1178
O -8.26475 4.39159 -11.2222
H -8.37719 3.73612 -10.4754
H -7.36237 4.27326 -11.6365
O -4.40121 3.27118 10.7068
H -4.26329 4.02686 10.0666
H -5.28709 3.37484 11.1589
O -2.31978 14.3866 4.74662
H -2.73112 -14.7698 5.09049
H -1.86619 13.9068 5.49763
O 10.8089 -2.20372 4.53465
H 10.3563 -1.32843 4.36454
H 10.6943 -2.79839 3.73894
O 10.8236 -4.54127 -0.253926
H 11.2073 -5.25528 0.331606
H 10.6519 -3.72029 0.290524
O 12.5013 13.7301 -4.78396
H 13.3123 14.3092 -4.70135
H 12.6182 13.1005 -5.55197
O -1.15048 9.48727 0.595172
H -1.05114 9.94995 1.47607
H -1.29132 10.1672 -0.124411
O 3.6015 -1.37656 8.78464
H 3.85478 -2.08377 9.44466
H 4.23054 -0.60357 8.86653
O 10.4811 -3.21483 9.98435
H 9.56269 -2.93005 9.70975
H 10.4388 -4.12572 10.3947
O 4.0648 12.9655 12.5137
H 3.89109 13.922 12.2794
H 3.19591 12.5013 12.6853
O -2.59442 -5.00836 -5.85272
H -2.59111 -4.06284 -5.52728
H -2.658 -5.01716 -6.85062
O 0.0850299 -1.65928 11.947
H 0.34437 -1.56637 10.9858
H -0.604818 -2.37741 12.0382
O 12.3191 12.9995 -2.23428
H 12.9774 13.6094 -1.79308
H 12.3777 13.1077 -3.22665
O 14.2355 10.9894 -12.9598
H 13.2529 11.1564 -13.0404
H 14.5117 11.0801 -12.0031
O 11.5519 13.7945 -13.5011
H 11.7559 12.8233 -13.3781
H 10.6679 13.8941 -13.9577
O 6.18061 -11.8606 7.24892
H 6.44373 -10.9534 7.57701
H 6.76293 -12.5517 7.677
O 14.3231 14.2791 -9.03485
H 13.5341 14.588 -8.50394
H -14.838 14.4693 -8.52576
O -4.28351 -13.2573 5.27766
H -4.91519 -13.8455 4.77269
H -4.45687 -12.3014 5.0411
O 3.68884 13.6403 4.38022
H 4.32495 12.8695 4.41496
H 3.68799 14.0305 3.45953
O -5.94039 4.95375 -5.30919
H -6.84964 4.84512 -4.90746
H -5.8119 5.90457 -5.59089
O 14.3926 -8.84773 10.4187
H -14.9771 -8.2453 10.9077
H 13.555 -8.34701 10.2008
O 14.5266 -14.7278 -5.3871
H 13.7838 -14.1657 -5.75059
H -14.7422 -14.7926 -6.06566
O -9.76486 -6.78932 14.4346
H -10.5716 -7.08282 14.9475
H -8.97693 -7.34073 14.7085
O -3.8084 -1.01095 0.879178
H -4.60604 -0.548931 0.49158
H -3.89717 -1.99792 0.745276
O 3.41398 -3.32434 6.93015
H 3.12085 -4.26305 7.11131
H 3.19328 -2.74847 7.7173
O -5.54306 -6.58392 -5.37852
H -5.09558 -7.47063 -5.2626
H -5.4517 -6.28616 -6.32874
O 12.018 8.44276 3.85538
H 12.4648 7.70378 3.35125
H 12.1593 9.3077 3.3739
O 12.946 -9.21183 -8.62839
H 13.3965 -8.93792 -7.77871
H 12.0685 -8.73898 -8.70782
O 2.12055 4.85054 1.88289
H 1.6488 3.97593 1.99438
H 1.68802 5.5391 2.4649
O -2.76285 7.40036 8.37993
H -2.83022 6.40585 8.45957
H -2.95827 7.67329 7.43799
O -8.0534 10.8632 -13.076
H -7.87011 9.89868 -13.266
H -7.71563 11.0931 -12.1633
O -12.0334 10.4866 5.84915
H -12.698 11.203 6.06149
H -12.509 9.6922 5.47143
O -4.50191 8.0959 0.644107
H -3.8331 7.56437 0.124415
H -4.02604 8.67189 1.30873
O 5.86283 8.78641 8.21947
H 5.79242 9.12098 9.15917
H 5.43464 9.44324 7.59886
O -13.6227 -14.6859 -7.54738
H -13.2162 -14.3659 -8.40312
H -13.0308 14.6217 -7.13582
O 0.636601 -10.0869 -8.66541
H 0.77106 -10.281 -9.6371
H 1.43693 -9.60581 -8.30776
O 4.57868 12.6453 -8.82638
H 5.50163 12.3569 -8.5716
H 4.57853 13.6255 -9.02453
O -5.08119 1.93697 14.0884
H -5.64732 2.36755 13.3855
H -5.55588 1.97417 14.9677
O 11.9734 1.1726 12.7242
H 11.408 0.53008 12.207
H 11.9153 2.07905 12.306
O -8.78347 7.13111 -1.4954
H -9.49132 6.46313 -1.26587
H -8.74366 7.24685 -2.48784
O 7.77594 -2.25183 -3.30965
H 8.31593 -3.07138 -3.11815
H 8.3844 -1.4619 -3.3852
O -0.861406 10.7548 -10.9437
H -0.544187 10.3344 -10.0937
H -1.68272 11.2954 -10.762
O 3.28317 5.28494 -13.5103
H 2.33732 5.26023 -13.8339
H 3.35939 5.93284 -12.7525
O 14.0909 -4.0617 2.02816
H 14.0524 -3.18978 2.51622
H 13.4024 -4.68338 2.40165
O -12.9141 6.57334 4.91421
H -13.4674 7.40395 4.85209
H -12.3477 6.61099 5.7374
O 13.2263 12.8361 12.4164
H 13.8722 12.1353 12.1137
H 13.3791 13.6768 11.897
O 11.0328 -7.362 1.13747
H 11.4441 -7.89569 0.398606
H 10.3654 -7.92562 1.62412
O -9.65567 9.41605 -9.5738
H -9.9762 9.26304 -10.5086
H -8.67569 9.61462 -9.58579
O 2.13493 6.04139 -6.58266
H 1.65159 6.90421 -6.43489
H 2.73671 5.85906 -5.80514
O 0.816012 -9.46246 1.49288
H 0.0919739 -8.88442 1.86914
H 1.30076 -9.91788 2.23956
O -10.5813 -1.13605 1.53861
H -10.786 -2.06294 1.22411
H -10.93 -1.01481 2.46794
O 3.48603 7.31152 -11.5421
H 4.16646 8.01609 -11.7434
H 3.68599 6.8993 -10.6533
O -14.6074 -8.38363 -1.06
H 14.4918 -8.09841 -1.38598
H -13.9569 -8.36442 -1.81923
O 2.3663 -8.39554 -12.2556
H 1.43095 -8.16981 -11.9834
H 2.41077 -8.48834 -13.2502
O 10.6601 2.59388 2.48105
H 11.3821 3.03993 3.00985
H 9.83394 3.15679 2.504
O -10.4958 14.2855 -9.07101
H -9.59131 14.5466 -8.73379
H -10.699 13.348 -8.78861
O 7.23715 9.89356 1.12275
H 6.64524 9.60629 1.87577
H 6.88371 9.52655 0.262328
O 6.13806 -14.3419 4.35351
H 5.60132 14.9208 3.94415
H 5.79084 -13.4603 4.03406
O 10.2825 -13.6478 -0.799418
H 11.0743 -14.1389 -0.436557
H 9.44621 -14.0202 -0.39713
O 3.57059 -12.3487 7.47255
H 4.54359 -12.1729 7.32324
H 3.25337 -13.0401 6.82353
O 7.433 -8.50124 -3.76625
H 8.1608 -8.37531 -3.09218
H 7.29827 -9.478 -3.93274
O -4.01206 11.4941 6.85755
H -3.35666 12.1837 7.16549
H -4.26691 11.677 5.90806
O -7.6895 8.25076 -13.6122
H -8.37826 8.2645 -14.337
H -6.92837 7.66321 -13.8868
O -5.33055 -2.5273 9.17738
H -5.49223 -1.69843 9.71289
H -4.50385 -2.41235 8.62668
O -0.49846 4.51478 10.3386
H 0.323112 4.20775 9.85829
H -0.478553 5.51034 10.4301
O -2.5265 -14.7411 -4.74582
H -3.27359 -14.6111 -4.09398
H -1.71151 -14.2631 -4.41831
O -0.191806 7.11744 10.2563
H -0.861239 7.55868 10.8539
H -0.481142 7.21297 9.30387
O 3.80162 -12.9314 -6.78657
H 2.91704 -13.0525 -6.33627
H 3.73306 -13.2243 -7.7402
O -9.49157 1.41603 12.8129
H -9.17358 1.59409 11.8817
H -8.91833 0.711958 13.232
O 9.02159 8.70548 -4.23665
H 9.76995 8.42824 -4.83916
H 8.25064 9.02447 -4.78784
O -11.3445 1.31969 0.397476
H -11.0652 0.389069 0.161088
H -11.3164 1.89405 -0.420606
O 1.67024 2.40016 -13.488
H 1.16365 2.82033 -14.2409
H 1.06676 1.78227 -12.9841
O -10.6137 12.8374 7.5404
H -11.4861 13.0749 7.96752
H -10.5617 11.8464 7.4176
O 6.78973 9.95495 -5.65397
H 5.94283 10.4709 -5.52574
H 6.66722 9.29135 -6.3919
O -12.7696 -6.01876 -5.89003
H -12.4251 -5.26119 -5.33567
H -12.5402 -5.86035 -6.85033
O -10.3423 -0.177635 9.90328
H -10.9297 -0.623856 10.5784
H -9.74385 -0.858115 9.48056
O 4.99758 7.46995 -2.88791
H 5.88182 7.20624 -2.50254
H 4.81621 8.43088 -2.67904
O -3.56503 7.39461 -8.77796
H -4.11597 6.87827 -8.12238
H -4.09241 7.54007 -9.61499
O -4.68079 -4.91671 -10.767
H -3.72404 -4.63157 -10.8241
H -5.11616 -4.46832 -9.98637
O -4.3821 8.09035 5.86542
H -3.95105 7.81581 5.00591
H -4.59845 9.06609 5.83301
O -11.1782 9.6648 -12.157
H -10.589 10.1077 -12.8327
H -11.2817 8.69741 -12.3881
O 4.73576 -7.15789 7.28895
H 3.90281 -6.62252 7.14928
H 5.36236 -7.0049 6.52482
O 1.3026 1.83783 -5.22697
H 1.38654 2.46293 -4.45099
H 2.02095 2.03596 -5.89378
O -6.47228 -13.0098 14.9633
H -7.33133 -13.5215 14.9507
H -6.1016 -12.9579 14.0361
O -14.6036 -14.6802 9.80779
H 14.8507 -14.655 10.645
H -13.7738 -14.1367 9.93469
O 9.68844 -3.9906 -13.3174
H 10.358 -3.31126 -13.6176
H 9.05769 -4.1908 -14.067
O -5.24719 -7.73537 12.0738
H -5.74305 -8.59784 11.9729
H -5.82529 -6.98036 11.7645
O 11.3285 3.65343 12.0018
H 11.4384 4.51225 12.5021
H 10.3549 3.4484 11.9015
O -14.4338 5.52187 -3.8162
H -14.4337 5.98486 -2.92988
H 14.6278 5.29111 -4.07156
O -11.5179 -8.27773 -4.87419
H -11.8834 -7.42865 -5.25544
H -11.5464 -8.23414 -3.87559
O -14.5745 -13.0482 3.8151
H -13.9376 -12.2782 3.85294
H 14.6691 -12.8861 4.4481
O -9.66408 4.36732 6.77322
H -10.3723 4.92484 7.20623
H -8.77427 4.591 7.17089
O -4.95984 8.90503 11.5076
H -5.56555 8.81608 10.717
H -5.48102 9.24564 12.2901
O -3.49802 7.33145 14.796
H -3.132 7.7374 -14.3672
H -4.49389 7.27058 14.8628
O 14.9587 -13.5597 1.21879
H -14.182 -13.9245 0.861542
H -14.9808 -13.4762 2.21339
O -9.05745 -4.13681 -5.90252
H -9.88212 -3.89754 -5.3901
H -9.01147 -3.58626 -6.73601
O 8.79976 2.76136 11.4867
H 8.31156 2.98064 12.3314
H 8.37102 3.23948 10.7202
O 9.91538 4.87163 -9.69483
H 9.35719 5.12217 -8.9039
H 10.4307 5.67027 -10.0055
O -11.695 -9.4953 13.5111
H -12.481 -9.27777 14.0897
H -11.8728 -9.18544 12.5771
O 3.79521 9.91203 -14.3277
H 3.20551 10.6863 -14.0981
H 3.80409 9.26275 -13.5673
O -11.0784 11.4689 -8.68906
H -10.4986 10.6654 -8.8235
H -11.8379 11.4445 -9.33915
O -6.88368 10.3982 -6.20423
H -7.84147 10.2173 -6.42748
H -6.82212 10.7733 -5.27934
O -1.86987 3.51723 12.3413
H -2.69023 3.08224 11.9702
H -1.34551 3.92991 11.5965
O -11.6149 -4.93385 1.43374
H -10.7604 -4.8036 1.9366
H -12.3783 -4.97266 2.07833
O 7.26243 3.27235 3.9453
H 6.61761 2.54724 4.18685
H 6.93551 3.75134 3.13067
O -7.24329 -5.39315 3.37099
H -7.3792 -5.24816 4.351
H -6.46825 -6.00896 3.2295
O 5.85776 -6.45881 11.7087
H 5.43355 -5.66924 12.152
H 5.24293 -6.81667 11.0059
O -7.28076 1.10183 3.94722
H -7.36997 2.09617 3.89021
H -7.59982 0.789323 4.84191
O -14.27 8.90069 4.94451
H -14.9928 9.30885 5.50202
H -14.4545 9.07776 3.9778
O 7.94933 -4.84653 3.43654
H 8.88859 -5.13949 3.258
H 7.36554 -5.11325 2.66975
O 8.58405 -6.41868 12.6237
H 7.73878 -6.46226 12.0912
H 8.43735 -5.8547 13.4363
O -0.326592 7.37875 -6.90028
H -0.979293 8.08798 -7.16654
H -0.81299 6.51849 -6.74767
O 0.520433 -0.877683 -13.9636
H -0.0371577 -0.213488 -14.4615
H 0.774417 -1.62576 -14.5767
O -7.02794 -3.06526 7.11983
H -6.22718 -2.64976 7.5512
H -7.19188 -2.63162 6.23383
O 10.2361 0.647553 4.47732
H 10.2698 1.35935 3.7758
H 9.29523 0.324905 4.57985
O 4.32429 -12.249 -10.0627
H 4.30797 -12.1823 -11.0603
H 4.72475 -11.4167 -9.67953
O 6.95646 13.7071 -1.12193
H 7.91284 13.5282 -1.35275
H 6.38222 13.532 -1.92163
O 13.4637 -13.1222 5.6952
H 13.8363 -13.0212 6.61766
H 13.165 -14.0666 5.55799
O 10.197 -8.38475 -8.10283
H 9.93736 -7.62209 -7.51049
H 10.1854 -9.23473 -7.57622
O -5.03408 -1.26827 -11.3517
H -4.21086 -0.777349 -11.0666
H -5.04509 -1.35014 -12.3482
O -14.4922 0.260988 -3.20677
H -14.1599 1.20399 -3.22349
H -14.804 0.00120889 -4.12068
O -4.55353 -4.9206 13.2918
H -5.21198 -5.48319 12.792
H -4.7068 -5.02213 14.2748
O -10.4276 -3.61406 -9.76146
H -9.60271 -3.42132 -9.23008
H -10.232 -4.32849 -10.4332
O 14.9646 9.44538 2.37606
H 14.4976 8.87837 1.69755
H -14.657 10.2558 1.92928
O 0.441928 6.60161 3.55821
H 0.494206 7.59951 3.52109
H 1.1182 6.25639 4.20891
O -14.6662 4.10724 13.8639
H -14.8113 4.82719 13.1852
H -13.9443 3.49175 13.5477
O 9.81181 0.500779 -13.4511
H 9.9192 1.15359 -14.2009
H 8.88452 0.126802 -13.465
O 14.1304 14.2935 -0.832989
H 14.6366 13.6299 -0.28231
H 13.5875 14.8802 -0.232154
O 11.769 -5.76959 5.6438
H 11.2507 -5.07014 6.13587
H 11.8253 -6.5972 6.20219
O -9.37667 -3.8605 13.8439
H -9.15228 -4.74874 14.2447
H -9.14735 -3.86645 12.8706
O 5.98458 -3.06121 -14.3075
H 5.76773 -3.38166 -13.3854
H 5.16775 -2.65952 -14.7214
O 14.1718 6.92976 14.9631
H 14.7031 6.27561 14.4249
H 14.7338 7.73284 -14.8394
O -2.23392 12.7501 13.2044
H -1.52887 12.3215 13.7693
H -2.81074 13.333 13.7766
O -2.51959 -0.00638105 -11.6069
H -1.65134 -0.501745 -11.6328
H -2.57133 0.616614 -12.3873
O 8.59548 11.8379 -3.14105
H 9.40251 12.362 -3.41303
H 8.79561 10.8603 -3.20553
O 10.984 4.13106 9.03464
H 10.9481 3.30592 9.59835
H 10.4194 4.00262 8.21937
O -11.1863 3.09558 -13.0281
H -10.6965 2.92782 -13.8836
H -11.2574 4.08079 -12.8725
O -6.80909 3.68816 -13.5404
H -7.50689 3.44711 -14.2149
H -6.27957 2.87379 -13.303
O -11.0523 2.16688 6.58612
H -12.0055 2.30973 6.31982
H -10.5555 3.0324 6.52343
O -0.48468 12.4394 -3.12781
H -0.267821 13.356 -3.46344
H -1.47349 12.2955 -3.16647
O 11.033 1.1986 9.16619
H 10.8947 1.59508 8.25865
H 11.872 0.654556 9.16795
O 2.04119 10.7901 -11.9116
H 1.53118 9.96623 -12.1587
H 2.14893 11.3701 -12.7191
O -11.9666 5.93535 7.48394
H -12.2248 6.86571 7.7441
H -11.9828 5.34663 8.29207
O -8.8852 -10.2044 0.0195413
H -9.81034 -10.1231 0.390241
H -8.8089 -9.65177 -0.810342
O 12.8398 -2.96518 -1.09453
H 13.5794 -3.50039 -0.686424
H 11.9714 -3.44379 -0.965211
O -12.8799 12.4779 2.41388
H -12.2962 11.6773 2.54897
H -12.7754 13.1012 3.18884
O -7.39324 -2.53294 0.447571
H -6.49875 -2.9776 0.493286
H -7.33513 -1.62407 0.860498
O -1.26787 11.4649 -7.70501
H -0.561834 10.7985 -7.94463
H -1.67657 11.2162 -6.82691
O 3.97182 2.25133 -12.099
H 3.21493 2.50044 -12.7031
H 4.83976 2.47391 -12.5429
O 10.8843 2.66086 14.9746
H 11.1596 2.34234 14.0676
H 10.2932 3.46195 14.8813
O 4.5071 4.74922 14.0879
H 4.57268 4.93402 -14.9321
H 3.74594 5.26956 13.7008
O 0.157235 5.8716 -13.8205
H -0.394298 6.12129 -14.6164
H 0.26522 6.66872 -13.2265
O 9.38218 -9.23714 2.20445
H 8.66929 -9.29795 2.90303
H 9.73232 -10.1523 2.005
O -5.22606 7.7763 -11.394
H -5.35227 8.76826 -11.3966
H -5.75643 7.37476 -10.6474
O -0.722335 12.7365 -14.3157
H -1.53556 12.5098 -13.7798
H -0.405146 13.6522 -14.0689
O 7.07532 7.14915 -10.3921
H 7.92314 7.66615 -10.2744
H 7.07124 6.71638 -11.2935
O 3.91703 -4.53864 3.55536
H 3.51731 -4.63203 2.64353
H 3.20396 -4.28013 4.20699
O -1.42756 11.3377 3.0104
H -2.05892 12.1089 3.0921
H -0.711278 11.4186 3.70346
O -8.20714 -8.42136 -2.08111
H -8.1595 -7.56571 -1.56582
H -7.2943 -8.66398 -2.40942
O 6.17557 10.2327 10.5409
H 6.61503 10.9795 11.0399
H 5.2749 10.0523 10.9361
O 14.254 -9.87793 7.86367
H 13.8966 -10.8089 7.93825
H 14.4154 -9.50855 8.77879
O -3.93024 11.1202 -6.47495
H -3.8876 11.9893 -6.96755
H -4.8784 10.8048 -6.43692
O -6.42062 -1.22356 -3.29677
H -5.77018 -1.60737 -3.95216
H -6.64918 -0.287286 -3.56337
O -4.3997 10.408 -13.745
H -4.9 10.3447 -12.8815
H -3.46199 10.7055 -13.5659
O 13.8565 -12.3338 8.78496
H 14.6556 -12.5279 9.35391
H 13.0511 -12.7759 9.17959
O -3.40856 -6.11856 -3.07086
H -3.63866 -5.95251 -4.02972
H -2.85597 -5.36049 -2.7246
O -14.0982 6.67892 -10.2093
H 14.953 6.96319 -10.3431
H -14.0753 5.72764 -9.90194
O -8.59939 0.300887 -9.82263
H -7.9555 -0.453563 -9.69563
H -8.49933 0.672697 -10.7455
O 1.6309 11.7552 12.9641
H 1.9872 11.5893 13.8836
H 1.02311 11.0057 12.7019
O -9.23519 -13.4705 -3.86897
H -9.95611 -12.8434 -3.57414
H -9.55544 -14.0012 -4.65366
O -0.361773 14.2671 -6.53935
H -1.00697 -14.9707 -6.58333
H -0.733181 13.4869 -7.04263
O -3.07931 -8.0284 0.0190029
H -3.52128 -8.92481 0.0510076
H -3.77566 -7.31651 -0.0717884
O 13.0023 -7.87453 -12.4687
H 12.3151 -8.58081 -12.2988
H 13.7719 -8.00087 -11.8429
O 6.84376 -12.1698 -0.871509
H 7.16399 -12.8512 -0.213416
H 6.94121 -11.2554 -0.478634
O 12.4258 -0.769871 -5.88127
H 13.3967 -0.958034 -6.02892
H 11.9039 -1.61757 -5.9758
O -9.26108 -9.9037 -4.70042
H -8.91451 -9.51518 -3.84668
H -10.1615 -9.51776 -4.90091
O 2.3318 12.5569 -14.0989
H 1.37714 12.8545 -14.0974
H 2.93033 13.3569 -14.0577
O -0.612487 -11.7445 8.59346
H -0.669087 -10.9788 7.95277
H -1.04119 -11.4869 9.45936
O -4.68976 12.4228 4.47458
H -3.91481 13.0508 4.54546
H -4.69942 12.0067 3.5654
O 1.17015 6.54142 -9.3819
H 1.42101 5.84834 -10.0576
H 1.31292 6.17685 -8.46177
O -14.5818 14.2481 -11.7807
H 14.8564 14.3463 -12.6018
H 14.8274 14.1962 -10.976
O 13.265 -9.74806 -4.54702
H 14.0224 -9.28199 -5.00422
H 13.6235 -10.3295 -3.81679
O -9.05242 -4.49064 1.82781
H -8.4425 -4.88321 2.51615
H -8.53395 -3.87309 1.23641
O 8.7379 9.16282 10.6053
H 8.41734 8.3304 10.1534
H 7.95174 9.70329 10.9049
O 2.85556 8.4877 -5.15312
H 3.06939 7.85471 -4.40913
H 3.42692 8.27549 -5.94587
O -11.5485 -8.07816 9.99621
H -11.6958 -7.7659 9.05774
H -10.7205 -7.65375 10.3626
O -12.3271 1.65166 -8.81271
H -12.1471 0.786115 -9.28
H -12.0842 2.41225 -9.41471
O 8.63209 13.8173 -8.83648
H 8.11965 12.9691 -8.70303
H 8.08839 14.5902 -8.50934
O 4.88727 12.9393 9.96528
H 4.8192 12.7033 10.9346
H 5.70763 12.5197 9.57687
O 12.4152 -5.18284 -9.92963
H 11.8822 -5.71532 -10.5871
H 13.3006 -5.62395 -9.78332
O 12.5643 -8.53144 13.3619
H 13.2042 -9.21725 13.7084
H 11.6291 -8.80353 13.5887
O 11.7801 -12.6382 -12.4772
H 12.6633 -12.86 -12.8904
H 11.6393 -13.2065 -11.6665
O 2.78873 -5.71534 -14.8153
H 1.87128 -5.85258 14.8119
H 2.73443 -5.13585 -14.0021
O -11.6858 7.5261 -0.63627
H -12.4216 6.97458 -0.243271
H -10.8308 7.33252 -0.155271
O -9.8807 8.65533 14.7639
H -10.7976 9.00027 14.5635
H -9.31471 8.71603 13.9418
O -9.38981 9.34232 -6.64372
H -10.2598 9.56587 -6.2044
H -9.47864 9.45132 -7.63374
O -2.26828 -14.673 -12.7014
H -3.04322 -14.2862 -12.2017
H -1.5465 -13.9855 -12.7812
O 1.03631 2.7162 3.7232
H 0.830025 1.78884 3.41113
H 0.495257 2.92152 4.53869
O 14.2556 1.73839 14.5894
H 14.4087 2.71085 14.414
H 13.3146 1.50045 14.349
O 11.5359 -14.5769 -10.6016
H 11.3427 14.9063 -11.4352
H 11.4826 14.8137 -9.81097
O 3.8584 14.5779 -2.88689
H 4.45619 13.8048 -3.09862
H 3.06284 14.2537 -2.37512
O 6.45828 0.75701 -3.23079
H 7.33019 1.2185 -3.39428
H 6.52688 0.197882 -2.4046
O -7.91167 2.7838 -8.9433
H -8.25617 1.85935 -9.10651
H -8.59396 3.30876 -8.43455
O 4.44668 10.2355 -0.549196
H 4.38047 9.34119 -0.106808
H 5.17948 10.2175 -1.22935
O -3.67696 -9.20684 -4.37692
H -3.23977 -9.21468 -5.27621
H -2.97739 -9.12667 -3.66691
O -1.88463 -1.55013 -3.66557
H -1.24664 -0.944777 -4.14142
H -2.80273 -1.42991 -4.04316
O -0.803247 -13.7775 -9.73175
H -0.945475 -13.2502 -10.5694
H 0.101813 -14.2021 -9.75481
O 6.56933 -11.0216 -4.33615
H 5.71217 -10.6477 -4.69029
H 6.48174 -12.0119 -4.22858
O 12.9466 7.75373 -3.75453
H 13.2557 7.99979 -4.67311
H 12.8392 6.76142 -3.69363
O 4.94001 -14.5992 -9.091
H 4.72414 -13.7337 -9.54295
H 5.66526 -14.4522 -8.41844
O 10.5619 2.33366 6.79095
H 10.5442 1.53354 6.19144
H 10.4924 3.16493 6.23949
O -14.4433 -12.0705 -10.6793
H -14.8502 -12.4338 -11.5173
H -13.7136 -12.6808 -10.3713
O -9.31475 -10.7704 13.1803
H -8.91794 -10.9083 14.0878
H -10.256 -10.4462 13.2739
O 2.60054 -14.3671 5.98183
H 3.14695 14.9762 5.46273
H 1.68981 -14.2959 5.57511
O -8.12197 7.67 -4.1953
H -8.75665 8.20749 -4.75046
H -7.37366 7.33952 -4.7704
O -3.1754 11.8516 -9.55305
H -2.4464 11.4415 -9.00512
H -3.31275 12.8004 -9.26842
O 6.02787 4.48234 11.3607
H 5.59371 4.36671 12.2541
H 5.4821 4.01921 10.6625
O 13.5098 3.78326 -11.8259
H 13.7671 2.81965 -11.7541
H 12.5152 3.85827 -11.8965
O -12.4075 14.9948 -13.1755
H -12.0688 14.5431 -14.0008
H -13.0886 14.4121 -12.7322
O 13.1876 -10.2851 0.755999
H 14.1316 -10.3023 0.426445
H 13.1625 -9.89135 1.67485
O -12.265 -1.9867 -6.5026
H -11.3246 -1.66878 -6.62307
H -12.8034 -1.74858 -7.31085
O 8.98717 14.2707 -14.584
H 8.26646 13.7979 14.9095
H 8.59513 -14.9493 -14.0971
O -9.16169 0.756978 -3.38034
H -8.99046 0.251951 -4.22624
H -9.49277 1.67436 -3.60106
O 7.77442 -11.461 -8.8362
H 7.30736 -10.703 -9.29144
H 8.14927 -11.146 -7.96429
O -12.1325 -5.19854 -1.29142
H -11.8551 -4.85529 -0.394122
H -12.0406 -4.46985 -1.97002
O 14.2347 -5.04366 9.31602
H 13.3926 -5.42774 8.93756
H 14.0089 -4.29563 9.94003
O 3.43285 -10.485 11.0184
H 2.48057 -10.4704 10.7137
H 3.84984 -11.3585 10.7673
O -3.77633 14.2731 -0.705818
H -4.6764 14.2637 -0.270278
H -3.85902 14.6356 -1.63408
O 9.65259 0.104338 11.2925
H 9.86167 -0.108682 10.3381
H 9.34705 1.05387 11.3629
O 13.9835 -8.54728 2.82028
H 14.1989 -7.6884 2.35567
H 14.7714 -8.83984 3.36207
O -7.35706 -11.0826 7.36306
H -6.80023 -10.8637 6.56184
H -7.20895 -10.3918 8.07071
O 12.6821 10.8464 0.102379
H 13.5105 11.3294 0.385851
H 12.1901 11.3963 -0.572482
O -2.10332 -2.7678 -8.24827
H -1.19151 -2.55644 -7.89633
H -2.02556 -3.1405 -9.17291
O 10.9394 6.02532 1.07973
H 11.582 5.42738 1.5588
H 10.3951 6.5329 1.74759
O 14.9797 2.21053 8.82825
H -14.4155 1.49749 8.47443
H 14.726 1.99474 9.77112
O 5.50958 -9.70324 -9.18013
H 5.25323 -9.18826 -9.99806
H 5.93607 -9.08686 -8.51824
O -6.70338 11.3209 7.83967
H -7.1849 12.1967 7.87151
H -5.75485 11.472 7.56146
O 0.282863 -13.4133 4.4215
H 0.232629 -12.4403 4.64628
H -0.223702 -13.9397 5.10431
O -3.27242 12.657 -3.53867
H -3.40006 12.3756 -4.48968
H -3.90811 13.3979 -3.32215
O 2.35888 -5.1398 9.43508
H 3.18121 -4.72677 9.82637
H 2.00717 -5.83759 10.059
O -6.76078 0.969666 7.79641
H -7.56224 0.685373 7.27033
H -6.98858 0.982572 8.77
O -11.7845 -12.4995 -2.8658
H -12.4015 -12.064 -3.52124
H -12.1142 -12.3332 -1.9365
O -5.43219 1.4123 0.690832
H -5.62821 1.27517 1.66176
H -5.41884 2.3915 0.488553
O 13.0415 -0.327161 3.7511
H 12.0494 -0.333798 3.87577
H 13.4538 -1.03819 4.32067
O 2.90589 -8.83499 -7.80266
H 3.32129 -7.93589 -7.94042
H 3.57536 -9.54727 -8.01339
O 0.853687 8.17842 -11.9489
H 0.201357 8.58713 -11.3107
H 1.62448 7.79675 -11.4389
O 1.12042 -2.71806 14.0227
H 0.948434 -3.70229 13.9823
H 0.587783 -2.25724 13.3129
O -2.68474 -0.000270169 3.27035
H -2.83395 -0.480519 2.40604
H -2.55179 -0.667112 4.00354
O 14.0801 11.5513 -6.53364
H 14.1957 10.5625 -6.43941
H 14.9547 12.0065 -6.36682
O -8.68221 -14.8104 3.42791
H -9.26337 14.5701 3.95489
H -8.97255 -13.8666 3.58574
O -4.87289 -11.6586 -4.01118
H -4.49937 -10.7337 -3.94016
H -4.93126 -12.0654 -3.09957
O 2.20747 5.94153 5.64269
H 2.24818 4.95953 5.82691
H 3.05223 6.37484 5.95663
O 4.97214 -12.4507 10.5311
H 5.84368 -11.962 10.57
H 5.00344 -13.1301 9.79804
O 0.327046 -1.48027 -7.4265
H 0.591624 -2.20051 -6.78527
H 1.07226 -1.31998 -8.07371
O 11.7855 9.10242 -10.2025
H 11.8395 9.92016 -9.62956
H 12.491 8.45164 -9.92198
O 10.8794 3.53357 -12.3992
H 10.0968 3.06407 -11.9904
H 11.2753 2.95952 -13.1158
O -12.9591 -1.09834 -12.6625
H -13.0288 -0.135262 -12.9224
H -12.4871 -1.60492 -13.3839
O 7.54268 5.86138 -12.8134
H 6.94468 6.22667 -13.5267
H 8.49553 5.9336 -13.1079
O -13.1286 -4.35686 -13.3527
H -13.5201 -4.08268 -12.4744
H -13.5959 -5.17622 -13.6847
O 0.679767 -8.62024 -4.6314
H 1.21258 -8.48305 -3.79641
H -0.25411 -8.88495 -4.39114
O -11.3537 5.18985 10.0853
H -10.5461 5.31904 10.6606
H -11.4575 4.21894 9.86973
O 2.49339 -12.8253 -2.70026
H 3.12777 -13.2165 -2.03355
H 2.5824 -13.311 -3.5698
O -2.3782 -10.8016 -13.2178
H -1.47447 -11.2294 -13.2029
H -2.82314 -10.9317 -12.3318
O 5.51997 1.0688 4.03944
H 4.79465 1.73213 3.85551
H 5.11354 0.202097 4.3285
O -10.6611 -13.8277 13.9189
H -10.7679 -13.6275 12.945
H -11.0032 -14.7477 14.1095
O -10.759 -11.9566 -8.17006
H -11.3796 -11.3914 -7.62665
H -11.1658 -12.131 -9.06669
O -6.99562 9.48331 9.85209
H -7.97752 9.36029 9.99588
H -6.84676 10.1281 9.10245
O 11.8169 1.58646 -5.0368
H 12.413 2.23263 -5.51338
H 12.043 0.654115 -5.31882
O -12.4474 9.04931 9.72314
H -12.2693 8.59681 10.5969
H -11.5823 9.20689 9.24699
O -8.17417 8.62101 12.6812
H -7.42117 9.22249 12.9479
H -8.51739 8.89495 11.7828
O 4.29934 2.58364 10.2401
H 3.73364 2.02616 10.8477
H 4.88599 1.98813 9.69136
O 6.12188 -0.386028 11.3906
H 5.24925 -0.0219018 11.716
H 6.71693 -0.573524 12.1721
O -8.32421 -11.1224 -14.3868
H -8.65474 -11.5953 -13.5701
H -7.39802 -11.4332 -14.6001
O -12.009 -9.70555 -6.95826
H -12.7688 -10.2862 -6.66587
H -11.8085 -9.03454 -6.24449
O -2.35093 7.14284 4.07691
H -1.38725 7.02946 3.83528
H -2.71378 7.9585 3.62639
O -9.12071 3.24675 14.8178
H -9.28895 2.61959 14.0574
H -9.57349 4.11967 14.6364
O -2.34623 -3.1867 -11.1771
H -1.53618 -2.60696 -11.0897
H -2.82884 -2.95981 -12.023
O 1.39456 -3.49921 -0.854116
H 0.80471 -4.04067 -1.45314
H 0.88388 -2.71355 -0.505032
O -7.90172 2.00923 -0.863289
H -7.97849 1.41201 -1.66164
H -7.51706 1.49406 -0.0974195
O -9.39736 -6.83836 -6.6119
H -9.31327 -5.84785 -6.50354
H -9.61322 -7.25321 -5.72803
O -9.88526 6.057 -12.69
H -9.33277 6.89009 -12.6652
H -9.48566 5.37369 -12.079
O -4.54454 -3.67964 0.955001
H -4.69505 -4.48297 0.378853
H -4.29096 -3.97327 1.87663
O 9.32514 4.17443 5.37193
H 8.52114 4.02807 4.79566
H 9.59813 5.13528 5.32539
O -1.87459 5.22282 6.30686
H -1.55595 4.32577 6.00078
H -2.3195 5.69579 5.54641
O 14.1832 -1.41865 12.9996
H 13.4677 -0.729278 12.8868
H -14.9633 -0.972112 13.2666
O 7.96794 -2.49452 9.39663
H 7.22507 -2.90486 8.86777
H 8.11011 -1.55162 9.09554
O 12.1313 -13.4936 -6.60554
H 12.8425 -13.0911 -7.18185
H 11.7098 -12.7786 -6.04795
O -12.5259 -13.1615 10.4372
H -12.6402 -12.212 10.7295
H -11.619 -13.2787 10.0324
O -6.39469 -10.5868 1.21851
H -7.10851 -10.6559 0.521658
H -6.29784 -9.63309 1.50305
O -1.8577 -8.39898 2.58441