2611
Atoms. Timestep: 8000000
O 0.493326 -14.863 -3.07201
H -0.391523 -14.3972 -3.07817
H 0.691379 14.7086 -2.14803
O -9.38503 -6.83042 -1.23432
H -10.0147 -6.09486 -0.984386
H -9.90369 -7.66594 -1.41558
O 5.70753 7.99458 -8.37034
H 4.86221 8.0998 -7.84656
H 6.09991 8.89574 -8.55446
O 1.59695 -11.8837 3.2879
H 1.48887 -10.8896 3.29122
H 2.39899 -12.1336 3.83034
O -3.57569 5.38846 -0.879163
H -3.55462 6.1331 -1.54627
H -2.66808 5.27802 -0.474165
O 9.30968 -0.222376 -5.04231
H 8.53722 0.410519 -5.09438
H 9.88022 0.0120983 -4.25525
O 13.9895 -5.27678 -10.4494
H 13.9526 -5.33361 -9.45174
H 14.9215 -5.05571 -10.7365
O -5.41224 -3.50502 -1.76272
H -6.17919 -3.98906 -2.18397
H -5.20101 -2.68638 -2.29674
O -2.95091 5.64255 7.66217
H -2.31337 6.41071 7.72076
H -3.87413 5.98775 7.49346
O 14.2141 3.59391 -12.7602
H 14.7863 2.97075 -13.2933
H 13.3814 3.80272 -13.2729
O 6.4371 13.6646 7.04979
H 6.66793 14.2726 6.29018
H 6.44773 12.7163 6.73275
O -8.88975 -12.5146 -6.12056
H -8.95975 -11.9482 -6.94168
H -8.71604 -13.4635 -6.38401
O -8.25865 11.7905 -7.53064
H -7.80222 10.9249 -7.32485
H -8.3088 11.9134 -8.52176
O 8.76448 6.94751 9.33162
H 8.24983 7.28453 8.54325
H 9.34564 7.67919 9.6878
O -12.6188 -14.1889 -14.3463
H -13.3736 -13.5464 -14.2143
H -12.4747 -14.711 -13.5057
O -6.86283 -4.36513 3.39561
H -6.61819 -3.57404 3.95622
H -6.56424 -4.21131 2.45373
O -2.80218 11.9232 -11.3239
H -3.2214 12.7185 -10.8859
H -1.85431 11.8352 -11.0177
O 13.3503 11.7323 8.7832
H 12.9875 11.1492 8.05639
H 14.3351 11.5822 8.87063
O -8.5394 -3.61957 -8.82395
H -7.60755 -3.25681 -8.82751
H -8.79222 -3.87978 -7.8921
O 6.92666 11.3859 0.678597
H 6.20247 11.9455 1.08152
H 6.59186 10.9635 -0.163691
O -3.28485 -4.24419 -14.2139
H -2.77166 -4.99984 -13.807
H -2.95302 -3.37736 -13.8418
O -5.43507 12.8889 7.52069
H -6.00226 12.0976 7.29235
H -4.81378 13.0838 6.76176
O -4.7498 6.7809 10.3597
H -5.39013 6.26177 9.79362
H -4.86299 6.51782 11.3178
O 11.4831 11.7552 3.31057
H 10.7584 11.4904 2.67445
H 11.7171 10.9762 3.89224
O -8.91022 2.2102 5.75778
H -8.87238 1.826 6.68023
H -9.81673 2.60014 5.59605
O 10.1692 0.654035 0.216546
H 11.1227 0.822974 0.466191
H 10.1303 -0.0466871 -0.495802
O 11.9414 -1.33959 -13.9542
H 12.702 -1.05253 -14.5365
H 12.2994 -1.78761 -13.1351
O 13.3476 -14.8112 -6.80774
H 12.9576 14.2143 -7.10009
H 14.247 14.931 -6.39978
O 1.45221 3.00078 13.0897
H 1.08285 2.13704 12.7469
H 1.60201 3.62642 12.3241
O 9.21865 -12.0761 8.80855
H 8.56308 -11.9179 8.07019
H 10.0256 -11.5029 8.66631
O 6.09129 5.31816 -8.78961
H 5.38053 5.25392 -8.08914
H 6.18804 6.27016 -9.07995
O -10.5152 -9.06122 -5.31431
H -9.54278 -8.8304 -5.28105
H -10.7091 -9.78395 -4.65096
O -11.6076 -0.482157 3.20902
H -12.4309 -0.554135 2.6461
H -11.8682 -0.356988 4.1663
O 2.67531 -7.52607 -14.5338
H 2.01705 -8.23789 -14.2889
H 3.56762 -7.7477 -14.1406
O 14.1489 -8.61273 -9.85031
H 14.7586 -8.47884 -9.0691
H 13.3598 -8.00435 -9.76537
O 10.7084 -3.82888 -3.60436
H 10.3073 -3.5774 -4.48514
H 10.0373 -4.33806 -3.06563
O 3.72759 -2.43401 10.678
H 3.09622 -2.08014 11.368
H 4.59591 -1.94156 10.7369
O 10.1423 -11.1278 3.74932
H 9.27059 -10.6896 3.53014
H 10.5604 -10.6657 4.53138
O -6.71338 -14.2355 1.46733
H -5.95662 -13.958 2.05918
H -7.55334 -13.7823 1.76568
O 1.39545 12.5565 -6.10897
H 2.03277 13.2277 -6.48746
H 1.15043 11.8936 -6.81646
O -1.45401 -9.74356 -9.87201
H -0.959518 -8.89449 -9.68621
H -0.969923 -10.2641 -10.5753
O 1.82186 2.59732 -9.59244
H 2.71682 2.1621 -9.49448
H 1.37657 2.26074 -10.4221
O 9.19762 -12.5771 13.9799
H 8.9358 -12.4407 14.9353
H 8.73208 -11.9025 13.4071
O -1.29438 5.37282 9.91536
H -0.484486 4.9398 9.51972
H -1.97265 5.52978 9.19754
O 2.12687 -11.012 -11.124
H 2.07703 -10.016 -11.0499
H 2.28363 -11.4062 -10.2185
O 13.0209 14.3331 -2.88623
H 13.0902 -14.5958 -3.11974
H 13.7215 13.82 -3.38208
O -4.00174 -4.89481 10.104
H -4.07677 -4.81325 9.11014
H -3.2462 -4.32604 10.429
O 10.3056 -14.7187 0.380867
H 10.7244 -13.8386 0.604857
H 10.9935 14.5767 -0.022523
O 13.5934 13.2768 1.6991
H 12.9654 12.796 2.31101
H 14.0509 14.0109 2.20078
O -3.19206 -6.02632 -1.9691
H -3.97504 -5.46153 -1.70846
H -2.69295 -6.30341 -1.14807
O 13.6316 4.66028 3.19596
H 12.9435 5.37062 3.34402
H 13.5869 4.34538 2.24791
O -1.02004 -10.5074 5.11908
H -0.411475 -11.0148 5.7291
H -0.547384 -9.69547 4.77657
O -4.77307 0.846356 -5.51348
H -5.51404 0.332831 -5.08079
H -5.05873 1.13856 -6.42616
O 8.08011 -1.92525 -1.82692
H 8.23691 -2.9122 -1.86296
H 8.95897 -1.44855 -1.80926
O -1.43531 11.2206 14.6087
H -2.24644 11.6189 -14.8618
H -1.29756 11.6326 13.708
O 4.61754 -10.6625 10.2166
H 5.59187 -10.651 10.4413
H 4.40796 -9.90125 9.60298
O 2.02642 11.7909 0.479689
H 1.98408 12.3424 -0.353365
H 2.29779 10.8569 0.247588
O -10.7622 -10.379 10.3789
H -11.4522 -10.8617 10.9182
H -10.2163 -11.0416 9.86615
O 12.4643 10.8568 -12.4748
H 11.7395 11.5189 -12.6647
H 12.0663 10.034 -12.069
O 1.35752 4.73468 5.34059
H 1.13578 4.68374 4.36684
H 1.51869 3.81336 5.69438
O -7.54038 -6.84337 -7.18776
H -6.85926 -6.74051 -7.91264
H -8.43775 -7.01279 -7.59519
O -12.8173 0.135704 -3.70528
H -12.6501 0.679979 -4.52732
H -13.7557 -0.209645 -3.71939
O -6.11475 1.80873 -8.03003
H -5.62205 2.39949 -8.66894
H -7.08047 1.77209 -8.28696
O 1.89336 10.3244 -11.231
H 2.78117 10.7042 -10.9712
H 1.17492 10.9914 -11.034
O -3.18364 10.1853 -1.93506
H -2.72449 10.9265 -2.42469
H -2.86326 10.1627 -0.988064
O 12.3017 14.3282 13.5021
H 11.4141 14.1725 13.0685
H 12.8713 13.5131 13.3976
O 9.37738 11.8335 -10.1734
H 8.98369 11.1722 -10.8119
H 9.43959 12.728 -10.6162
O 5.83877 8.581 -0.332877
H 6.74219 8.66713 0.0870963
H 5.8203 9.09284 -1.19174
O 4.4541 2.56935 -3.13161
H 4.58882 2.50798 -2.14264
H 3.55816 2.97075 -3.32167
O 8.66573 5.02158 -8.7853
H 7.68626 5.2174 -8.8328
H 8.85029 4.43373 -7.99769
O -10.8647 -6.34171 7.94479
H -11.0246 -7.32109 8.06807
H -11.742 -5.86419 7.89674
O -3.49884 -9.29531 4.53112
H -2.69966 -9.86395 4.33642
H -4.26364 -9.87808 4.80576
O 10.5977 -7.50707 3.07633
H 9.89464 -8.03923 2.60469
H 11.082 -8.0949 3.72432
O 4.9728 -8.29638 -13.2775
H 5.2475 -9.04421 -13.8819
H 5.48794 -8.35263 -12.4223
O -1.60509 -3.13833 2.36067
H -1.41033 -2.77464 3.27158
H -2.45343 -2.73666 2.01579
O -2.72924 3.74464 12.526
H -2.40053 3.84327 11.5867
H -2.17066 3.06769 13.0052
O -14.4867 -13.3991 -1.40953
H -14.1617 -14.3442 -1.37523
H 14.493 -13.3767 -1.80299
O -11.5006 -11.5648 1.51483
H -10.533 -11.4482 1.73845
H -12.0444 -10.9049 2.03338
O 13.5075 2.7488 14.2078
H 12.6387 3.24362 14.2251
H 13.467 2.02823 13.5156
O -11.9451 -10.1415 -7.32679
H -12.0918 -11.1296 -7.37391
H -11.3281 -9.93201 -6.56824
O 14.171 12.935 -11.107
H 13.5135 13.6239 -10.8019
H 13.6826 12.1066 -11.3813
O -4.69219 12.928 -0.253882
H -5.05608 13.5146 -0.977388
H -5.32412 12.1706 -0.0894214
O -4.20801 -8.06997 -13.7007
H -5.19917 -8.01523 -13.58
H -3.99692 -8.20245 -14.6691
O -0.79999 -5.01391 14.0156
H -1.76059 -5.2587 14.1471
H -0.729729 -4.03738 13.812
O -10.6671 -9.43276 -12.408
H -10.0487 -9.97421 -12.9776
H -10.5731 -9.71427 -11.4531
O -12.527 -11.4165 -0.998509
H -12.206 -11.4343 -0.0516205
H -13.1966 -12.1462 -1.13722
O -10.7708 -11.479 -4.12204
H -10.0974 -12.0658 -4.57161
H -11.4662 -12.0467 -3.68149
O 10.0445 9.28013 10.5787
H 9.68265 9.07192 11.4874
H 9.41825 9.8988 10.1043
O -6.5836 -11.1908 4.86479
H -6.43826 -10.2389 5.13461
H -5.96753 -11.4215 4.11168
O 12.1671 -5.39106 2.3228
H 11.731 -6.21927 2.67472
H 11.9004 -5.25352 1.3689
O -13.1873 -5.0832 -10.6794
H -12.5492 -4.57667 -10.0995
H -12.9779 -6.05984 -10.6314
O 5.597 0.685636 0.819397
H 4.87937 0.718473 1.51502
H 5.36065 0.00224214 0.128691
O 14.3318 -6.89293 13.2243
H -14.8352 -7.57434 13.2356
H 13.665 -7.10801 13.9379
O 11.1077 -13.8241 -5.67221
H 11.9899 -13.8883 -6.13856
H 11.0488 -14.5347 -4.97111
O -8.61111 -11.027 -2.14804
H -8.14398 -10.7284 -2.98027
H -9.47204 -11.4738 -2.3911
O 7.04434 -1.88212 -10.967
H 7.31516 -2.12689 -10.036
H 6.21182 -1.32895 -10.9374
O -2.42008 -5.46102 3.81288
H -2.02628 -5.03066 4.62509
H -2.55485 -4.77068 3.10208
O 13.3407 -1.9591 -7.92638
H 12.5197 -1.44826 -7.67134
H 14.1488 -1.39184 -7.76808
O -7.77979 -10.0732 -4.82595
H -6.85087 -9.8498 -5.12117
H -8.13118 -10.8308 -5.37597
O -8.25291 6.54651 -9.88163
H -8.93257 7.21834 -9.58723
H -8.69206 5.65509 -9.99335
O 2.2652 9.07659 -13.7599
H 3.20662 9.33921 -13.9714
H 1.96109 9.55906 -12.9385
O 1.26018 -5.33061 -13.4511
H 1.79848 -6.03932 -13.9071
H 0.464859 -5.10294 -14.0128
O -13.1025 7.7688 -11.1468
H -12.9067 8.08613 -10.2189
H -12.2909 7.88915 -11.7184
O -13.8823 11.0941 -10.5759
H -14.2738 10.5914 -9.80512
H -14.4062 11.9322 -10.7278
O -11.4766 12.4884 -14.21
H -10.9565 13.2056 -14.6737
H -11.8409 12.8443 -13.3494
O -14.3293 1.57383 4.47156
H -13.5822 1.02508 4.84665
H -13.9778 2.16186 3.74312
O 10.5417 -1.20788 -1.54454
H 10.8702 -0.670992 -2.32156
H 10.9259 -2.12998 -1.59028
O -10.0586 1.33219 -10.8036
H -10.8984 1.27571 -11.3435
H -9.66074 0.419593 -10.7097
O -12.6031 11.0948 13.4133
H -11.9284 11.3529 12.7219
H -12.329 11.4648 14.301
O -5.29975 7.71682 3.23235
H -5.39643 7.33001 4.14941
H -5.41712 6.99382 2.55157
O -7.96144 13.011 -10.0886
H -8.70438 13.4488 -10.5949
H -7.42127 12.4456 -10.7118
O -7.44311 14.5934 8.32371
H -6.78441 13.8455 8.4055
H -7.47395 14.9081 7.37505
O 13.7106 -2.14402 6.00064
H 13.464 -3.01652 5.57883
H 13.5938 -1.40712 5.33482
O -8.95168 -2.58383 8.77951
H -9.84567 -2.93522 9.05748
H -8.39179 -2.41765 9.59122
O 8.0359 9.67609 -11.5226
H 8.88427 9.21565 -11.2614
H 7.25428 9.14916 -11.1889
O -4.14401 7.467 13.1818
H -4.32051 6.77442 13.8812
H -3.21548 7.35443 12.8281
O -1.30752 4.49468 -11.0399
H -0.339965 4.69361 -10.8842
H -1.86688 5.20322 -10.6097
O -6.32549 0.130573 11.0199
H -5.41278 0.328547 11.3773
H -6.33113 -0.779668 10.6059
O -12.7786 4.32108 7.02859
H -13.5979 4.6272 6.54378
H -12.0944 5.05036 7.02043
O 5.89518 -10.5032 -14.63
H 5.05106 -11.0389 -14.6507
H 6.64232 -11.0715 -14.2855
O -8.00736 -11.0977 9.0624
H -8.02455 -10.1479 9.37481
H -7.06166 -11.4211 9.03096
O 2.12277 -6.20189 -6.60302
H 2.07134 -5.38038 -7.17085
H 2.66723 -6.00927 -5.78668
O 14.199 3.17874 0.258708
H -14.7841 2.7783 0.295914
H 13.5152 2.45858 0.375997
O 12.8522 6.18237 9.16838
H 13.1081 7.12565 8.95691
H 13.5936 5.74126 9.67399
O 11.4302 -12.3413 -12.0973
H 12.415 -12.4077 -11.937
H 10.972 -13.1303 -11.6881
O -12.0753 -5.39904 -2.14174
H -12.4851 -6.00251 -1.45772
H -11.9102 -5.91297 -2.98351
O 3.77454 -2.80492 -1.55243
H 3.30245 -3.14369 -0.738601
H 3.16993 -2.88274 -2.34511
O 13.2859 11.5647 13.3704
H 12.9604 11.3215 12.4566
H 14.2795 11.4583 13.4095
O 5.85213 10.9722 -1.79571
H 5.2667 11.6702 -2.208
H 6.73482 10.9576 -2.2654
O 0.436721 10.5606 -7.78169
H -0.468792 10.6958 -7.37954
H 0.438937 9.71965 -8.32275
O 1.82825 3.3775 -3.03793
H 1.68709 3.19738 -2.06449
H 1.20204 2.81294 -3.5756
O 12.0717 -6.92322 6.21532
H 12.3349 -6.18927 5.58922
H 12.8931 -7.37415 6.56439
O -8.84361 -11.6193 6.26808
H -8.75211 -11.3958 7.23846
H -7.97195 -11.4581 5.80528
O 2.82503 -7.33384 3.20548
H 3.18711 -7.33751 2.27336
H 2.58314 -6.39902 3.4654
O -12.622 8.38748 -8.59545
H -12.476 7.52758 -8.10637
H -13.0379 9.05543 -7.97835
O -9.9661 10.7607 4.89052
H -10.6854 10.7585 4.19587
H -9.19494 11.3108 4.57007
O 3.53702 8.32229 -6.80217
H 3.35098 9.0881 -6.18663
H 2.68731 8.037 -7.24553
O 6.00277 -8.82206 -2.86367
H 6.85298 -8.43796 -3.22363
H 5.31067 -8.10268 -2.80481
O 1.44615 5.46935 11.669
H 2.15069 5.31611 10.9761
H 0.548727 5.50607 11.2294
O 6.54582 10.6266 -8.57079
H 6.61915 11.1386 -9.42666
H 7.19315 10.9968 -7.90451
O -13.2197 -12.5701 -7.74727
H -13.2604 -13.5055 -7.39616
H -14.148 -12.2165 -7.86216
O -8.197 0.190371 14.8038
H -8.58428 0.71711 -14.3383
H -8.52723 0.561484 13.9359
O -2.43143 2.15684 5.14479
H -2.55978 3.03143 4.67726
H -3.28907 1.6428 5.13155
O 1.06778 -0.479394 -9.72883
H 1.57621 -0.472438 -8.86777
H 0.127116 -0.183481 -9.56287
O -13.9475 -2.31667 2.26869
H -13.2209 -2.8968 2.63669
H -13.6472 -1.91464 1.40374
O -5.47507 -11.9758 9.76464
H -5.24131 -12.9322 9.58978
H -4.73469 -11.5399 10.2763
O -9.68377 8.96568 -9.11868
H -10.6483 8.92403 -8.8581
H -9.59505 9.44258 -9.99313
O -10.8807 2.7305 0.126226
H -10.782 2.74167 -0.868815
H -10.252 2.05758 0.515961
O 14.1893 10.7268 -1.20103
H 14.5959 11.0957 -0.3652
H 14.8866 10.2337 -1.72132
O 0.770387 4.39178 8.42315
H 1.35606 5.14735 8.12981
H 0.774169 3.67644 7.72441
O 13.5202 -12.8077 -3.28718
H 12.9024 -12.1039 -2.93645
H 14.3386 -12.3747 -3.66484
O -9.00285 -1.56405 2.50809
H -9.08173 -2.55997 2.46448
H -9.91521 -1.16 2.57373
O 13.9973 -13.5456 -10.6979
H 14.2701 -13.1089 -9.84061
H 13.3335 -14.2687 -10.5071
O 6.27772 7.61674 14.204
H 6.65728 8.05378 13.3885
H 5.69258 6.85312 13.9311
O 1.39171 14.057 -9.46277
H 1.44047 14.533 -8.58469
H 2.31091 13.7813 -9.74396
O -10.3444 7.33513 1.79674
H -9.41146 7.40363 1.4434
H -10.9611 7.86489 1.21447
O -13.4189 12.0496 6.46075
H -12.5084 11.6951 6.24805
H -13.5332 12.1009 7.45285
O 0.189593 0.548641 12.2386
H -0.0824977 0.784463 11.3057
H 0.952375 -0.0973585 12.2101
O -3.12459 -1.62771 -10.6688
H -2.76221 -1.82142 -11.5804
H -3.03777 -2.44246 -10.0955
O 11.5377 5.03761 5.97866
H 12.1457 4.32874 5.62117
H 11.1959 4.7616 6.87696
O -3.62171 5.00473 -5.82478
H -4.60495 4.83752 -5.75238
H -3.29607 4.69621 -6.7185
O 10.8896 -14.5974 9.42902
H 10.1514 -13.9613 9.65386
H 10.573 14.6557 8.73416
O 11.2377 -11.0023 -14.2855
H 11.2621 -11.5354 -13.4398
H 11.1903 -11.6221 14.8298
O 11.5047 -3.0885 11.8692
H 11.367 -2.10911 11.7216
H 11.0425 -3.60268 11.1467
O -5.40708 -9.42787 -5.80347
H -5.29284 -9.0052 -6.70251
H -4.61978 -10.0124 -5.60752
O 13.0562 4.29289 -6.73372
H 12.6518 4.80678 -7.49028
H 13.4434 4.93004 -6.06732
O 5.84707 -11.7228 -4.53363
H 6.6541 -11.6398 -3.94901
H 5.19788 -12.3592 -4.11722
O -14.1635 -8.12374 -7.5499
H -14.4042 -7.41138 -6.89066
H -13.1772 -8.28583 -7.52027
O 6.15289 13.2589 -13.705
H 6.38602 12.6045 -14.4242
H 5.21987 13.5902 -13.8454
O -6.11919 10.3159 3.82585
H -5.52416 10.9877 3.3848
H -5.82424 9.39387 3.57502
O 12.3584 14.411 -9.82639
H 11.6201 -14.8134 -9.81523
H 12.1996 13.731 -9.11056
O -14.6769 1.23174 -14.0147
H -14.6012 0.265687 -14.2616
H 14.565 1.68024 -14.6208
O 3.2811 -11.0755 -7.71917
H 3.85286 -11.4854 -8.42983
H 3.75292 -10.2866 -7.32564
O 1.29799 -9.92766 8.93217
H 1.29529 -10.6049 9.66793
H 2.23011 -9.59528 8.78851
O 0.456178 2.011 -5.08784
H 0.870225 2.69338 -5.69023
H -0.507779 1.89581 -5.3276
O -1.46365 12.2537 -2.84984
H -1.84124 12.7427 -2.06357
H -1.02925 12.9061 -3.47088
O 14.4335 -4.61572 14.8185
H 14.4977 -5.51944 14.3952
H 14.3372 -3.92026 14.1064
O -8.3025 3.32022 1.37288
H -8.87347 2.79033 1.99992
H -7.35751 2.99814 1.42964
O 2.64554 -3.7478 -4.33339
H 3.55426 -4.13075 -4.49933
H 2.39899 -3.13661 -5.08547
O 14.2145 -0.943741 -4.0828
H 13.9905 -0.1368 -4.6293
H 13.8397 -1.75934 -4.52364
O -4.68918 -5.413 7.19297
H -5.33551 -5.93399 7.75046
H -4.30293 -6.00726 6.48754
O -2.98811 8.99279 3.92991
H -2.19004 8.63875 3.44235
H -3.82115 8.71576 3.45109
O -1.83951 -13.7311 -2.43631
H -2.06301 -14.6253 -2.04843
H -2.65193 -13.3447 -2.87291
O -0.458649 -11.5365 -11.6661
H 0.52293 -11.4386 -11.8301
H -0.710936 -12.5026 -11.7209
O -13.4568 14.3993 12.5414
H -13.6591 14.0828 13.4681
H -13.8368 -14.5837 12.4115
O -0.150796 -13.757 -6.81492
H -0.458282 -12.9094 -7.24734
H 0.611479 -13.5592 -6.19864
O 13.2328 6.30079 -0.745218
H 13.6425 5.43105 -0.470097
H 13.8106 6.7382 -1.43428
O -1.23908 7.4278 -12.533
H -1.0505 6.47131 -12.7555
H -1.39694 7.94137 -13.3764
O 0.72823 2.38596 -12.6147
H 0.495683 3.08261 -13.2933
H -0.0502568 2.24299 -12.0035
O -12.0478 -3.75308 3.54684
H -11.9413 -2.93242 4.10821
H -11.699 -4.54611 4.04629
O -5.5686 3.22489 2.48548
H -5.46303 4.07404 1.96803
H -5.53856 3.42535 3.4647
O -4.88491 2.84631 -0.767655
H -4.76882 3.83943 -0.782137
H -4.20213 2.43974 -0.160636
O 10.4969 -3.82302 5.65529
H 11.1353 -4.58694 5.74883
H 10.9059 -3.11537 5.07923
O -5.07799 -0.120292 -1.21174
H -5.47118 -0.437348 -0.348699
H -5.08113 0.879477 -1.23208
O -13.3859 1.6845 -6.62302
H -14.3845 1.68157 -6.57006
H -13.0453 2.60732 -6.44314
O -12.1286 8.9033 0.208619
H -12.8002 8.81899 0.944701
H -12.6017 9.06555 -0.657283
O 10.8954 -5.53635 -0.179949
H 10.7044 -6.46906 -0.485795
H 10.0917 -5.1675 0.286903
O -13.1302 -12.1188 9.36234
H -13.2693 -11.8722 8.4033
H -12.3388 -12.7253 9.43907
O -9.94871 5.9931 14.7185
H -8.98481 6.2329 14.6029
H -10.0292 5.24313 -14.5237
O -14.1465 0.918455 8.71961
H -14.0959 1.60148 9.44822
H -13.2327 0.553994 8.54034
O 12.0514 10.4287 6.61002
H 12.3487 9.56261 6.20815
H 11.0593 10.4149 6.73507
O 13.8441 -11.128 6.20722
H 13.3519 -11.1932 7.07522
H 14.6397 -11.7335 6.22893
O 1.01509 0.447317 3.59588
H 0.539444 0.0316293 2.82068
H 0.378275 0.553779 4.35948
O -5.52113 2.514 -14.3859
H -5.29428 1.87456 14.7783
H -5.35474 3.45012 -14.6956
O -6.6522 -3.4309 -12.2534
H -6.40054 -3.67629 -13.1895
H -5.99363 -3.83031 -11.6156
O 5.48664 0.929586 -14.3756
H 5.95216 1.4969 -13.6963
H 4.53095 1.21455 -14.4493
O 8.94534 -8.83511 -13.1041
H 9.70844 -9.47842 -13.0424
H 8.47908 -8.9541 -13.9807
O -0.519207 -13.4804 3.97661
H 0.143436 -12.7439 4.11229
H -0.639812 -13.9823 4.83312
O 1.38216 5.09791 -11.4887
H 1.79408 4.2626 -11.8528
H 2.05301 5.58343 -10.9282
O -3.54681 2.46807 8.00282
H -3.68516 2.00767 7.12598
H -3.56552 3.45845 7.86586
O -5.67574 7.67568 -4.86582
H -5.97423 8.60322 -5.09064
H -5.2239 7.26926 -5.65993
O 6.1696 -4.90887 -7.2164
H 5.81603 -5.2153 -6.33263
H 5.44479 -4.43965 -7.72082
O 1.19289 8.86531 -3.01578
H 0.387157 9.04844 -3.579
H 1.38981 7.88494 -3.02449
O 5.59567 8.14877 -11.2657
H 4.61241 8.23776 -11.1068
H 5.75783 7.4643 -11.9764
O 7.83139 -12.1941 -0.244016
H 8.68538 -11.9768 0.228684
H 7.46869 -13.0588 0.103636
O -13.9216 4.05885 14.0544
H -14.7811 3.56072 13.9405
H -14.0944 4.9148 14.5417
O 8.65024 5.6792 5.39213
H 8.05062 4.98501 4.99399
H 9.55582 5.28595 5.55106
O -5.53369 -11.0265 -8.81439
H -5.28718 -11.9242 -9.1794
H -6.49507 -10.8378 -9.01463
O 2.14643 -12.5113 -5.81878
H 2.32661 -11.8564 -5.08495
H 2.44425 -12.1244 -6.69145
O -10.2329 -4.68573 -6.19326
H -10.9406 -4.03397 -6.46601
H -9.74637 -4.33412 -5.39352
O 10.4273 12.9278 11.1804
H 10.4936 12.2449 10.4529
H 10.8566 13.779 10.8786
O 3.76479 -9.79784 3.63112
H 3.54192 -8.8341 3.48451
H 4.45867 -9.8743 4.34712
O -7.65404 8.25925 -14.8015
H -8.49474 8.65509 -14.4321
H -6.93377 8.95289 -14.8079
O 14.0466 -2.5659 13.1083
H 13.2522 -2.63791 12.5051
H 14.8365 -2.24997 12.5827
O 3.85215 3.93781 -0.415282
H 4.66429 4.50492 -0.552338
H 3.05854 4.38759 -0.82496
O 9.71958 4.87349 -3.9242
H 10.1071 5.6421 -3.41526
H 8.73938 4.80992 -3.73674
O 0.758147 5.83408 2.59968
H 1.68336 6.02749 2.92609
H 0.793704 5.56497 1.63724
O 11.2947 4.46301 -13.9702
H 10.5691 4.45743 -14.6583
H 11.0869 3.78927 -13.2611
O -2.39206 4.02363 -8.0255
H -3.12167 3.97058 -8.70729
H -2.15968 3.10238 -7.71364
O -12.2579 -7.07354 0.0789863
H -11.3051 -7.19499 0.357205
H -12.8525 -7.59824 0.688184
O 7.56602 10.826 9.99932
H 7.87555 11.4974 9.32599
H 6.65113 10.5054 9.75405
O 8.45088 -5.78118 3.39659
H 7.95179 -6.61484 3.63297
H 9.41157 -6.00361 3.23054
O 2.60319 13.187 12.1601
H 3.59186 13.179 12.0103
H 2.37554 12.5724 12.9153
O 11.938 8.32033 -7.89363
H 11.6271 7.42083 -8.20054
H 11.1966 8.98306 -7.99892
O 8.25921 0.74014 13.766
H 7.36677 0.72377 14.2168
H 8.23355 1.38142 12.9991
O -13.8741 -9.00885 -13.483
H -14.0735 -9.11267 -14.4574
H -13.4167 -8.13328 -13.3278
O -1.17894 6.24117 0.17466
H -1.72736 6.03339 0.984616
H -1.09475 7.23255 0.0744863
O 10.022 -2.75138 -8.16874
H 10.1295 -3.61771 -7.68101
H 10.3417 -2.00116 -7.59005
O -2.50146 -1.83764 -13.4088
H -1.50665 -1.78338 -13.4947
H -2.91565 -1.02047 -13.8096
O -7.79212 12.2609 4.34933
H -7.06523 11.5769 4.28742
H -7.96791 12.6434 3.44231
O 11.425 8.70588 -11.0076
H 10.6946 8.03788 -11.1497
H 12.2983 8.22884 -10.9083
O -4.17273 5.14366 14.5081
H -3.89613 4.61554 13.7053
H -3.51561 4.99546 -14.6516
O 3.65842 -5.14417 14.1793
H 3.16889 -5.99118 14.3864
H 3.8566 -5.10467 13.1999
O 6.39764 -2.32752 -3.96621
H 7.07309 -1.97048 -3.32102
H 5.66466 -1.65793 -4.08599
O 10.4289 10.7345 -8.03538
H 9.59807 10.6225 -7.4903
H 10.1994 11.1649 -8.90831
O 5.325 -4.20994 0.314662
H 4.41992 -4.35268 -0.0858487
H 5.9048 -3.72153 -0.337454
O -11.4198 -10.8383 -10.0665
H -12.2038 -10.9242 -10.6812
H -11.6433 -10.2021 -9.32805
O 7.19223 -1.75353 12.8201
H 7.23398 -2.55182 13.4209
H 7.80012 -1.04083 13.1701
O 3.30003 -11.4271 -13.7268
H 3.01049 -10.9195 -12.9154
H 2.66543 -11.245 -14.4779
O 13.3941 1.18337 -11.4153
H 14.1465 0.673613 -11.8324
H 13.4418 2.14073 -11.7002
O -9.70965 10.2182 -14.9364
H -8.83522 10.5769 14.6357
H -10.2313 10.9539 -14.5044
O -0.401907 -8.90507 -13.667
H -0.859169 -9.76205 -13.4293
H -0.510077 -8.72977 -14.6455
O 11.3255 -0.612506 -6.91981
H 11.8294 0.250785 -6.94707
H 10.5561 -0.529481 -6.28643
O -4.9417 0.991568 5.79998
H -5.0491 0.468842 4.95429
H -5.47577 0.561435 6.52779
O 4.77791 -3.5092 -9.68809
H 5.74376 -3.76155 -9.62952
H 4.58632 -3.13204 -10.5942
O -14.4376 -11.6551 14.0639
H -14.5659 -12.2064 13.2396
H -14.6475 -12.2076 14.8705
O -5.13818 6.1799 5.8375
H -5.58876 5.31731 5.60755
H -5.78606 6.77948 6.3073
O -14.4714 11.3327 1.21164
H -14.4362 11.0864 2.18017
H 14.8086 12.1083 1.08723
O -3.18783 -10.463 -4.09345
H -2.31844 -10.2426 -4.53567
H -3.7713 -9.65095 -4.08218
O -0.0566545 13.1492 5.54565
H 0.512898 12.6788 4.8716
H -0.389295 12.4894 6.21945
O -12.5312 0.834741 -12.1466
H -13.3577 1.11936 -12.6323
H -12.7348 0.0342025 -11.583
O -6.25535 4.44418 -6.85872
H -5.7598 4.09094 -7.6522
H -7.21421 4.16571 -6.91353
O -4.16073 -9.83619 -1.10365
H -4.49749 -9.48504 -1.97729
H -3.34359 -10.391 -1.26011
O 11.8006 -1.99316 3.5561
H 11.3874 -2.10334 2.65216
H 12.5366 -1.31815 3.50608
O -14.1585 6.21696 -14.4267
H -13.9691 7.1986 -14.4487
H -13.4809 5.75963 -13.8507
O 1.24317 -8.41599 -11.309
H 0.625343 -8.62363 -12.0674
H 1.00192 -7.52873 -10.9159
O 10.2329 -6.48194 -12.4987
H 9.90523 -7.41984 -12.6125
H 11.0989 -6.36998 -12.9859
O -8.06404 7.28244 0.266677
H -8.05496 6.60797 -0.471543
H -7.84223 8.18458 -0.103337
O -7.495 -6.21839 0.424677
H -6.57216 -6.57878 0.288808
H -8.05798 -6.43443 -0.373031
O 3.65397 12.2984 -10.049
H 4.54014 12.6642 -10.3334
H 3.66037 12.1392 -9.06177
O -2.41558 -13.1546 13.4465
H -2.8558 -13.6328 12.6866
H -3.10998 -12.8655 14.1055
O 13.7114 1.57911 -5.14795
H 13.9024 2.51979 -4.86762
H 13.2294 1.58378 -6.02412
O -8.30541 12.9811 -1.88005
H -8.21217 13.9055 -2.24987
H -8.30281 12.3201 -2.6304
O 1.19844 -4.82836 4.78292
H 0.343502 -4.36172 5.00941
H 1.3557 -4.77587 3.79678
O 0.670451 -11.9025 6.87044
H 0.613506 -11.3893 7.72676
H 0.299126 -12.8209 7.00698
O 7.16972 3.66749 3.83275
H 7.54552 2.8827 3.33995
H 6.93167 4.38751 3.18094
O 1.34502 -0.795069 9.25399
H 1.90885 -0.166526 9.78971
H 1.93006 -1.47989 8.81958
O 1.07921 -0.782357 -5.04461
H 0.912762 0.187829 -4.86855
H 0.333035 -1.32412 -4.65772
O -4.84643 -2.41586 -5.15881
H -4.06011 -1.98784 -4.71331
H -5.47941 -1.70726 -5.47055
O -11.0915 -3.96999 1.01728
H -11.159 -4.14016 2.00036
H -11.9687 -4.17389 0.582699
O -4.36618 14.6227 -13.3673
H -3.56382 -14.9333 -12.8788
H -4.6536 -14.6035 -14.0493
O -4.71943 -11.2876 2.79641
H -5.14134 -11.2775 1.88985
H -3.7731 -11.6017 2.72013
O 4.45429 -10.9526 -1.94544
H 4.9162 -10.2938 -2.53924
H 4.71048 -10.7808 -0.994228
O 4.05841 -2.90015 3.24897
H 4.14919 -2.98885 2.25707
H 4.51098 -3.67203 3.69544
O 4.99271 9.38505 -14.0303
H 5.55269 9.3578 -13.2022
H 5.47064 8.91378 -14.7715
O 10.094 -4.73461 10.2189
H 9.50454 -4.04061 9.8055
H 10.2146 -5.49357 9.57903
O 5.4367 -9.73602 6.04792
H 6.00525 -10.036 6.81391
H 5.40618 -8.73673 6.02677
O 10.4711 2.69533 4.57967
H 11.3905 2.51439 4.92866
H 10.0077 1.82842 4.39606
O -10.145 4.09525 -13.4197
H -9.1882 4.21618 -13.1552
H -10.7231 4.13117 -12.6046
O -9.45729 -11.9496 -14.1376
H -10.3698 -11.94 -14.5464
H -9.04399 -12.8511 -14.2662
O 7.21971 -11.6046 10.9963
H 7.2277 -10.8392 11.6398
H 8.15979 -11.8697 10.7819
O 1.05495 6.16991 -4.01191
H 0.178539 5.93132 -4.43018
H 1.47538 5.34817 -3.62727
O -14.8764 -4.33283 9.72288
H 14.7908 -3.39841 9.45233
H 14.2934 -4.70354 10.2984
O 13.8788 -12.8668 0.983791
H 14.2306 -13.2932 1.81705
H 14.4258 -13.1634 0.201013
O -3.35131 -0.495695 9.90774
H -3.64845 -0.599306 10.8569
H -2.65103 0.21608 9.85352
O 0.72471 -4.84623 1.82067
H 0.175457 -4.02511 1.97577
H 0.125629 -5.60408 1.56237
O -0.997936 11.5952 7.54957
H -1.07829 11.2981 8.50101
H -1.6433 11.0815 6.98432
O 4.35657 -7.94174 0.89365
H 5.23477 -7.46754 0.831487
H 4.49453 -8.92023 0.740393
O -1.11833 -2.39711 13.1499
H -0.547149 -2.38507 12.3292
H -2.03367 -2.0639 12.9239
O -8.36007 -14.6143 -14.1557
H -8.98809 14.8789 -14.8198
H -7.63705 14.6291 -13.9373
O -8.96202 -6.50094 2.72432
H -8.4632 -6.45573 1.85882
H -8.32557 -6.36402 3.48337
O 11.4283 5.5982 -8.51307
H 11.9146 5.29838 -9.33381
H 10.4427 5.56582 -8.67905
O 5.71233 -1.91403 -14.0809
H 5.54726 -1.00795 -14.4705
H 6.66393 -1.97943 -13.7807
O -10.5397 -2.95822 -1.62229
H -11.0725 -3.68968 -2.04785
H -10.3816 -3.17781 -0.659626
O -13.3125 6.77876 10.0266
H -12.9321 6.88829 10.9449
H -12.5795 6.85548 9.35079
O 1.7396 14.2367 -0.748013
H 2.47787 14.8984 -0.878621
H 1.338 14.3602 0.159417
O 7.59341 -4.23528 14.3827
H 7.93643 -3.62556 -14.8016
H 6.86979 -4.81454 14.7579
O -14.8596 -9.34613 -1.64957
H -14.4817 -10.2628 -1.77966
H -14.9189 -9.14575 -0.671665
O 13.0621 1.20342 8.18252
H 12.4828 0.416387 8.39446
H 13.9667 1.07012 8.58746
O 6.73042 -12.6156 -7.24251
H 6.51805 -11.9656 -6.51287
H 6.78541 -13.5384 -6.86124
O -12.5495 4.90918 -11.691
H -13.1415 5.67458 -11.4388
H -12.994 4.04831 -11.4435
O 8.37988 10.0298 3.93672
H 9.06297 9.3803 4.27065
H 8.72504 10.4836 3.11521
O 3.83967 5.06476 -7.00874
H 2.97706 4.55941 -7.031
H 3.68317 5.9745 -6.62423
O -5.71033 -6.77344 -9.1852
H -4.83664 -7.16667 -8.89884
H -5.55917 -6.14662 -9.94954
O 4.96215 10.6889 8.94018
H 4.72421 10.2122 8.09399
H 4.2493 11.3552 9.15914
O -13.1436 8.02316 5.04668
H -13.9641 8.16093 5.60135
H -12.3705 8.49324 5.47261
O 14.6801 -1.94227 8.7659
H -14.6925 -1.09489 8.83761
H 14.1732 -1.9479 7.90398
O -11.4342 7.48155 -13.2193
H -12.06 8.16399 -13.597
H -10.755 7.2337 -13.9101
O -11.7874 -6.3308 -4.6071
H -11.3944 -7.23237 -4.7879
H -11.3622 -5.65503 -5.20919
O -2.69085 1.22961 -13.6283
H -3.45868 1.81454 -13.367
H -2.03049 1.19168 -12.8783
O -10.1229 -14.8238 -1.21549
H -10.3204 -14.7257 -0.240139
H -9.17962 -14.5441 -1.3943
O 4.42527 1.18891 -9.27862
H 4.68533 0.249284 -9.50096
H 5.05206 1.55426 -8.59042
O 8.48007 4.27093 -11.2551
H 8.66965 4.64838 -10.3487
H 7.64817 4.6871 -11.6221
O -7.18635 -12.2658 12.1133
H -6.66781 -12.276 12.9683
H -6.6256 -11.8663 11.3881
O 6.01325 -13.7024 13.3296
H 6.13919 -14.1516 14.2141
H 6.80309 -13.1205 13.1359
O -13.6325 -1.08427 -7.85353
H -14.0625 -1.04321 -8.75538
H -13.5141 -0.157087 -7.49816
O 1.30987 12.276 14.7354
H 0.493136 11.739 14.9463
H 2.12439 11.7133 14.8763
O 14.531 -7.32971 9.14994
H 13.6983 -7.78938 9.45872
H 14.4582 -6.34943 9.3336
O 7.92165 4.91011 14.3948
H 7.99796 5.80669 14.8311
H 8.00799 4.19402 -14.8113
O -0.960745 13.6055 2.17803
H -1.27048 13.2421 3.05666
H -0.0694087 14.0437 2.29412
O 0.11661 -1.83322 -14.241
H 1.10881 -1.8525 -14.364
H -0.328946 -1.77678 14.7643
O -1.81978 1.60291 13.8463
H -2.02716 1.39833 14.8029
H -1.24116 0.880006 13.4687
O 12.2912 8.25772 0.592732
H 12.5611 7.4596 0.0541166
H 12.9846 8.97225 0.500278
O -5.81889 6.43087 -11.1645
H -6.52133 6.76707 -10.5372
H -5.57931 7.1523 -11.8142
O 13.2081 -5.39377 11.1171
H 13.1446 -6.15802 11.7588
H 12.5464 -4.6887 11.3719
O -14.7831 -1.1066 -10.4142
H -14.0787 -1.55258 -10.9664
H 14.2118 -1.35853 -10.76
O 8.41122 -10.9643 -10.656
H 8.11957 -10.1045 -11.0751
H 8.43794 -10.8584 -9.66201
O -4.12318 -14.4712 10.0071
H -3.36399 -14.0389 9.52059
H -4.05919 14.4344 9.90955
O 12.7811 0.689165 0.653687
H 13.2365 0.125624 -0.0354804
H 13.0448 0.377441 1.56651
O -2.2144 -10.6701 1.74621
H -2.48247 -9.82639 1.28122
H -1.27526 -10.9049 1.49554
O 7.12062 4.7275 -3.52545
H 6.71574 5.51705 -3.98659
H 6.49546 3.94938 -3.58606
O 5.9074 -4.5524 4.56575
H 6.20581 -4.06054 5.38367
H 6.70232 -4.94929 4.1069
O -4.69802 -2.71079 6.81985
H -4.68553 -3.68564 7.04229
H -5.6402 -2.41822 6.65656
O -8.42311 -12.0837 2.52831
H -7.76078 -12.0977 3.27737
H -8.41235 -11.1847 2.0906
O 4.60928 -0.235631 -4.27676
H 4.72291 0.725057 -4.02352
H 3.67144 -0.389683 -4.5877
O -3.69584 11.8996 -14.0685
H -3.36883 11.7972 -13.1291
H -3.95161 12.8527 -14.2303
O -3.13605 6.17875 -9.76972
H -3.85999 6.49203 -10.3843
H -2.82313 6.94332 -9.20627
O 2.61264 -5.19722 -0.450761
H 1.86612 -5.59376 -0.985013
H 2.3418 -5.14154 0.510231
O 9.18022 10.4438 7.01944
H 9.10642 9.53226 6.61499
H 8.31804 10.9347 6.89447
O 4.08281 -13.3092 -11.7771
H 3.93166 -12.5532 -12.4139
H 4.53988 -12.9672 -10.9561
O 14.0678 9.87052 -9.20013
H 14.2265 9.36344 -10.0473
H 13.4166 9.37039 -8.62934
O -5.31091 -10.1621 13.5917
H -6.21282 -9.87547 13.9148
H -4.80636 -9.36452 13.2611
O 1.47903 -14.8452 1.9823
H 1.00102 -14.0076 2.24673
H 2.27319 14.9216 2.57547
O -14.0165 5.29153 1.17374
H -14.6251 4.69199 0.653946
H -13.2658 5.59436 0.586707
O 8.18941 14.8676 -3.77414
H 8.13874 14.7978 -2.77788
H 9.02016 14.415 -4.09813
O -6.6341 -7.13717 8.2569
H -7.45883 -6.57179 8.2686
H -6.68801 -7.82039 8.98509
O 11.0261 11.0363 -1.04241
H 11.7507 10.3938 -1.29167
H 11.4274 11.9302 -0.842864
O 3.56806 -11.8373 12.2936
H 4.073 -12.6151 12.6679
H 4.01001 -11.5269 11.452
O 1.76507 10.3183 6.52938
H 1.102 10.7953 7.1063
H 1.28212 9.71087 5.89875
O -6.82176 13.1431 -13.6165
H -5.97633 13.6618 -13.4896
H -6.91935 12.4784 -12.8758
O -1.68194 -2.34873 -7.2708
H -1.24896 -2.39161 -6.37043
H -2.37131 -3.06942 -7.34379
O -5.16785 -14.9378 4.47772
H -4.40335 -14.445 4.06216
H -4.82109 14.3375 5.17849
O 10.4661 11.5773 14.8324
H 9.79514 12.2027 14.434
H 11.1985 11.4098 14.1725
O -13.8412 -10.1863 -11.1926
H -13.7581 -9.70668 -12.0661
H -14.754 -10.0332 -10.8139
O 11.7458 -6.716 -10.2813