LAMMPS data file via write_data, version 15 May 2015, timestep = 18500000

2593 atoms
6 atom types
1728 bonds
4 bond types
864 angles
3 angle types
0 dihedrals
3 dihedral types
0 impropers
1 improper types

-1.4958669215915341e+01 1.4958669215915341e+01 xlo xhi
-1.4958669215915341e+01 1.4958669215915341e+01 ylo yhi
-1.4958669215915341e+01 1.4958669215915341e+01 zlo zhi

Masses

1 15.9994
2 1.00794
3 12.0107
4 1.00794
5 12.0107
6 12.0107

Bond Coeffs # harmonic

1 1000 1
2 469 1.4
3 367 1.08
4 469 0.7

Angle Coeffs # harmonic

1 100 109.47
2 35 120
3 63 120

Dihedral Coeffs # opls

1 0 7.25 0 0
2 0 7.25 0 0
3 0 7.25 0 0

Improper Coeffs # cvff

1 2.5 -1 2

Atoms # full

437 146 2 4.0999999999999998e-01 -1.0125697124941636e+01 -7.3713337806849664e+00 -8.5004334303416087e+00 10 2 0
436 146 1 -8.1999999999999995e-01 -9.3666844175722979e+00 -6.8890145563675294e+00 -8.0630839725374184e+00 10 2 0
1479 493 2 4.0999999999999998e-01 -8.3964485236030910e+00 -8.5711111944743550e+00 -1.0285075862320664e+01 3 -4 2
1176 392 2 4.0999999999999998e-01 -8.1274859032660522e+00 -1.4772169255913187e+01 -1.3855620813924613e+01 5 2 -5
642 214 2 4.0999999999999998e-01 -1.1385729166950018e+01 -9.4001538931550321e+00 -1.3956899901942924e+01 6 2 -6
524 175 2 4.0999999999999998e-01 -8.2105251747019707e+00 -1.4487369770009666e+01 -1.1393571887583269e+01 8 -1 -1
523 175 1 -8.1999999999999995e-01 -8.4188145246440040e+00 -1.3579276927194536e+01 -1.1030268090429857e+01 8 -1 -1
2555 852 2 4.0999999999999998e-01 -1.0997953466959251e+01 -1.3869868633961303e+01 -8.2061747422822471e+00 4 5 1
921 307 2 4.0999999999999998e-01 -1.4196910090705726e+01 -1.1181528064859593e+01 -7.9693488864013435e+00 6 2 0
140 47 2 4.0999999999999998e-01 -1.0712945456169589e+01 -1.1153315742723315e+01 -1.0240212767176718e+01 6 -1 -3
2530 844 1 -8.1999999999999995e-01 -8.5022329680856181e+00 -1.4039271422632227e+01 -7.4865743048462710e+00 10 1 -3
1241 414 2 4.0999999999999998e-01 -9.1890002473520518e+00 -1.1371365157658875e+01 -1.4544882926450267e+01 6 4 -2
525 175 2 4.0999999999999998e-01 -9.4094996153844317e+00 -1.3443443985847349e+01 -1.1020311138496101e+01 8 -1 -1
141 47 2 4.0999999999999998e-01 -1.0771684834548779e+01 -9.8588698685087301e+00 -1.1233995385806605e+01 6 -1 -3
139 47 1 -8.1999999999999995e-01 -1.0855408040500125e+01 -1.0164550867505334e+01 -1.0285545969046019e+01 6 -1 -3
137 46 2 4.0999999999999998e-01 -8.8785957169583831e+00 -1.2312288315962469e+01 -9.3745334089383263e+00 4 -3 0
1174 392 1 -8.1999999999999995e-01 -7.7834585434811521e+00 -1.3843154409360535e+01 -1.3991941346398411e+01 5 2 -5
641 214 2 4.0999999999999998e-01 -1.2270293955963721e+01 -8.5582847944926748e+00 -1.2872719946640146e+01 6 2 -6
1607 536 2 4.0999999999999998e-01 -1.1021266126089522e+01 -5.8735426952600065e+00 -1.3393815247629156e+01 7 1 -3
418 140 1 -8.1999999999999995e-01 -8.4609436156190299e+00 -7.2083301197247280e+00 -1.2099416593552105e+01 8 -1 -4
419 140 2 4.0999999999999998e-01 -8.1358400631077803e+00 -6.6278751188034128e+00 -1.1352833474324177e+01 8 -1 -4
1782 594 2 4.0999999999999998e-01 -8.7934663647751528e+00 -8.8149314234963576e+00 -1.2962804520307595e+01 2 0 -2
420 140 2 4.0999999999999998e-01 -8.7019939131565192e+00 -6.6377703712409968e+00 -1.2884504546036066e+01 8 -1 -4
1175 392 2 4.0999999999999998e-01 -8.5013620842631212e+00 -1.3278207927033897e+01 -1.4398705039332354e+01 5 2 -5
803 268 2 4.0999999999999998e-01 -1.1920039368793180e+01 -1.2601897396300927e+01 -1.0638386475136009e+01 6 -1 -6
1780 594 1 -8.1999999999999995e-01 -8.7745465733919357e+00 -9.6167938182581842e+00 -1.3560019241295910e+01 2 0 -2
2059 687 1 -8.1999999999999995e-01 -1.1833513345604336e+01 -8.0385642636852648e+00 -8.6208396602565536e+00 2 2 -4
2060 687 2 4.0999999999999998e-01 -1.1680035567302667e+01 -8.9528686827061392e+00 -8.9956712311366829e+00 2 2 -4
920 307 2 4.0999999999999998e-01 -1.3139977413461489e+01 -1.2348044845027163e+01 -8.4038330472634311e+00 6 2 0
1240 414 1 -8.1999999999999995e-01 -9.7528239630624185e+00 -1.2183462214179613e+01 -1.4695242240603795e+01 6 4 -2
2061 687 2 4.0999999999999998e-01 -1.2089493668196779e+01 -8.1121340813952791e+00 -7.6569577704951381e+00 2 2 -4
1606 536 1 -8.1999999999999995e-01 -1.0342207340446713e+01 -5.9107289191487240e+00 -1.4126961230978642e+01 7 1 -3
640 214 1 -8.1999999999999995e-01 -1.1836611310952119e+01 -9.4385693001581750e+00 -1.3065139691668779e+01 6 2 -6
1242 414 2 4.0999999999999998e-01 -1.0545224594894009e+01 -1.2156584025322141e+01 -1.4085828143872778e+01 6 4 -2
1781 594 2 4.0999999999999998e-01 -8.3192241084886334e+00 -1.0372421304280262e+01 -1.3089152719634214e+01 2 0 -2
919 307 1 -8.1999999999999995e-01 -1.3843119638056796e+01 -1.1718802395828632e+01 -8.7349699428666590e+00 6 2 0
1074 358 2 4.0999999999999998e-01 -1.2845055615839023e+01 -1.0738107276813119e+01 -1.2082519064892900e+01 1 0 1
2587 863 1 -8.1999999999999995e-01 -1.2361876806216294e+01 -6.9940860381421741e+00 -1.1600562504753871e+01 3 0 -5
2346 782 2 4.0999999999999998e-01 -8.0092189826644251e+00 -6.1160107700022106e+00 -9.0879902356539581e+00 8 4 -1
1072 358 1 -8.1999999999999995e-01 -1.3393193344296156e+01 -1.1405997290825447e+01 -1.1579056418569781e+01 1 0 1
2477 826 2 4.0999999999999998e-01 -1.4478146968624204e+01 -5.3120553928357133e+00 -1.2827069119929043e+01 2 3 -3
2588 863 2 4.0999999999999998e-01 -1.2161209997538521e+01 -7.4037344801129290e+00 -1.0710659328812763e+01 3 0 -5
802 268 1 -8.1999999999999995e-01 -1.1127495773462764e+01 -1.3169564064067627e+01 -1.0415595237303183e+01 6 -1 -6
2531 844 2 4.0999999999999998e-01 -8.5978268320134354e+00 -1.3060804735234004e+01 -7.6695263352057959e+00 10 1 -3
804 268 2 4.0999999999999998e-01 -1.1338412565927902e+01 -1.4127529443888813e+01 -1.0610076959706157e+01 6 -1 -6
1073 358 2 4.0999999999999998e-01 -1.3620663679275028e+01 -1.1038574372554951e+01 -1.0677244724927963e+01 1 0 1
2589 863 2 4.0999999999999998e-01 -1.3343465237807337e+01 -6.8170294530479776e+00 -1.1672269472337904e+01 3 0 -5
2554 852 1 -8.1999999999999995e-01 -1.1883168099966417e+01 -1.3665804921851063e+01 -7.7881319646979570e+00 4 5 1
136 46 1 -8.1999999999999995e-01 -8.5294652489285845e+00 -1.1689994295247216e+01 -8.6739160007307099e+00 4 -3 0
138 46 2 4.0999999999999998e-01 -8.3617098807501318e+00 -1.0791572252983983e+01 -9.0797518817059917e+00 4 -3 0
1477 493 1 -8.1999999999999995e-01 -7.7285033998391430e+00 -9.2178885020385675e+00 -9.9169249105200805e+00 3 -4 2
1146 382 2 4.0999999999999998e-01 -7.5840441665969465e+00 -1.0414107093880812e+01 -1.1162548091785130e+01 6 1 -5
1608 536 2 4.0999999999999998e-01 -1.0324807170203698e+01 -6.8305911499103154e+00 -1.4518825261586333e+01 7 1 -3
2476 826 1 -8.1999999999999995e-01 -1.4672133347373181e+01 -6.2848484067258212e+00 -1.2700381575370464e+01 2 3 -3
2505 835 2 4.0999999999999998e-01 -1.3932683275971838e+01 -1.1328643125328963e+01 -1.4386491130545734e+01 3 2 0
1145 382 2 4.0999999999999998e-01 -7.4648907940190723e+00 -1.2014652362938016e+01 -1.1463715234027017e+01 6 1 -5
1286 429 2 4.0999999999999998e-01 -4.4297592361174942e-01 -6.2310671823771902e+00 -1.4431710018976673e+01 -1 -2 4
2574 858 2 4.0999999999999998e-01 -7.1819365413966096e-01 -1.0654469935624720e+01 -9.5179084643397331e+00 4 5 -5
1699 567 1 -8.1999999999999995e-01 -3.3451064173911877e+00 -1.0890329767145399e+01 -8.4269099743840208e+00 7 3 -5
1153 385 1 -8.1999999999999995e-01 -6.8667108955862570e+00 -5.2753776122564311e+00 -1.4259798476194325e+01 1 0 -6
1830 610 2 4.0999999999999998e-01 -1.8197608042922262e+00 -5.2587195568882450e+00 -9.2538959349894192e+00 0 2 -2
1511 504 2 4.0999999999999998e-01 -2.2607148196460454e+00 -9.3224736145248031e+00 -7.6375263789216650e+00 8 5 -3
2572 858 1 -8.1999999999999995e-01 -1.4942345809927637e-01 -9.8328341842007418e+00 -9.4802012261415278e+00 4 5 -5
2116 706 1 -8.1999999999999995e-01 -5.1541790774983731e-01 -1.4616030750049083e+01 -1.3364400367862967e+01 3 2 3
2133 711 2 4.0999999999999998e-01 -3.3540953009710250e+00 -1.1828910323286369e+01 -1.4221519731188263e+01 2 3 -5
1144 382 1 -8.1999999999999995e-01 -7.2893380154484557e+00 -1.1100014945398632e+01 -1.1827894178610091e+01 6 1 -5
1335 445 2 4.0999999999999998e-01 -3.7597712431195323e+00 -1.4009694509211501e+01 -1.1232731416865386e+01 5 2 -1
2344 782 1 -8.1999999999999995e-01 -7.3041701273152855e+00 -6.0496725589251792e+00 -9.7940440808173239e+00 8 4 -1
2345 782 2 4.0999999999999998e-01 -6.5021758937901133e+00 -5.5828155959098744e+00 -9.4214094759346949e+00 8 4 -1
1426 476 1 -8.1999999999999995e-01 -5.2054676360466416e+00 -5.0854452522725762e+00 -8.1946540363277727e+00 2 -2 0
835 279 1 -8.1999999999999995e-01 -3.8476264032914234e+00 -1.4343287646750305e+01 -1.3383954118263834e+01 2 6 -6
1552 518 1 -8.1999999999999995e-01 -4.4102632326954794e+00 -1.1042563865046406e+01 -1.1195640071193637e+01 1 2 -2
2543 848 2 4.0999999999999998e-01 -3.1100392099461889e+00 -9.0565700238704636e+00 -1.0553993844067385e+01 2 2 -5
1299 433 2 4.0999999999999998e-01 -2.2039999456100823e-01 -1.0066097691412935e+01 -1.2672852685110753e+01 1 0 -4
2131 711 1 -8.1999999999999995e-01 -2.9589973386325124e+00 -1.1687361094934975e+01 -1.3313847932291338e+01 2 3 -5
836 279 2 4.0999999999999998e-01 -4.8002155048924777e+00 -1.4069678066586542e+01 -1.3250843365742876e+01 2 6 -6
1478 493 2 4.0999999999999998e-01 -6.9790503807954414e+00 -8.7144868229047923e+00 -9.4869090819913708e+00 3 -4 2
1554 518 2 4.0999999999999998e-01 -3.7714037464721315e+00 -1.1122223340473152e+01 -1.1960832643607930e+01 1 2 -2
1297 433 1 -8.1999999999999995e-01 -3.9624574129335777e-01 -1.0718491161537290e+01 -1.3410055409037680e+01 1 0 -4
1701 567 2 4.0999999999999998e-01 -3.5741035568311688e+00 -1.1151147466865769e+01 -9.3647485014534588e+00 7 3 -5
1285 429 1 -8.1999999999999995e-01 -1.2160374195775461e+00 -5.7961378814448761e+00 -1.3969953457385239e+01 -1 -2 4
1334 445 2 4.0999999999999998e-01 -4.5181783411513017e+00 -1.3047739927149140e+01 -1.0152867125327852e+01 5 2 -1
516 172 2 4.0999999999999998e-01 -5.9952700561021004e+00 -6.1942993041729739e+00 -1.2967399234397643e+01 4 0 -3
1553 518 2 4.0999999999999998e-01 -5.3102649661491039e+00 -1.0774498364674265e+01 -1.1539361589899883e+01 1 2 -2
1244 415 2 4.0999999999999998e-01 -5.3729156953080643e+00 -6.7549448073045912e+00 -8.1255628945163405e+00 0 -1 -4
1333 445 1 -8.1999999999999995e-01 -4.0926804790778668e+00 -1.3941911263135580e+01 -1.0292208291320559e+01 5 2 -1
1829 610 2 4.0999999999999998e-01 -2.7645809290392371e+00 -6.5897055240921176e+00 -9.3032477097819388e+00 0 2 -2
514 172 1 -8.1999999999999995e-01 -5.3512904791536506e+00 -6.4651779400440343e+00 -1.2251912142150204e+01 4 0 -3
1338 446 2 4.0999999999999998e-01 -1.2685920654578648e+00 -1.4143768522994877e+01 -1.4837785462710530e+01 5 0 -3
1700 567 2 4.0999999999999998e-01 -4.1864708763766600e+00 -1.0757069304654536e+01 -7.9031216859497073e+00 7 3 -5
2480 827 2 4.0999999999999998e-01 -1.2154855619795164e+00 -8.1574570503902812e+00 -1.2246773949687062e+01 3 -3 -5
1828 610 1 -8.1999999999999995e-01 -2.4727441534854062e+00 -5.8159639042104150e+00 -8.7409649698383802e+00 0 2 -2
2479 827 1 -8.1999999999999995e-01 -4.6736226407965020e-01 -8.6178587941775948e+00 -1.1768915742246687e+01 3 -3 -5
837 279 2 4.0999999999999998e-01 -3.2501303979485225e+00 -1.3556429020052612e+01 -1.3229491237479023e+01 2 6 -6
476 159 2 4.0999999999999998e-01 -2.1925629196496939e+00 -1.2530469068349621e+01 -1.0501288331647601e+01 4 -1 0
954 318 2 4.0999999999999998e-01 -2.6261374658596743e+00 -6.7830540229081056e+00 -1.3606465320907475e+01 5 2 -5
952 318 1 -8.1999999999999995e-01 -3.3134371792748905e+00 -7.5085735602954395e+00 -1.3571149075139351e+01 5 2 -5
2544 848 2 4.0999999999999998e-01 -3.9566444432698482e+00 -7.8527208872518015e+00 -9.8464268131843902e+00 2 2 -5
2542 848 1 -8.1999999999999995e-01 -3.0502589397970628e+00 -8.1417735361116854e+00 -1.0154518687179433e+01 2 2 -5
953 318 2 4.0999999999999998e-01 -3.9243243453899783e+00 -7.3515109953719575e+00 -1.2795162594930856e+01 5 2 -5
515 172 2 4.0999999999999998e-01 -5.8396683995432372e+00 -6.5677748887743679e+00 -1.1385328307703668e+01 4 0 -3
1243 415 1 -8.1999999999999995e-01 -5.3875266541039579e+00 -7.7544310880445044e+00 -8.1542057304692506e+00 0 -1 -4
477 159 2 4.0999999999999998e-01 -1.5718894413692368e+00 -1.1860733732299096e+01 -1.1855121157259283e+01 4 -1 0
475 159 1 -8.1999999999999995e-01 -1.4225850336905896e+00 -1.2015886141605016e+01 -1.0878574892228933e+01 4 -1 0
2132 711 2 4.0999999999999998e-01 -2.0436099220592858e+00 -1.1295512739559504e+01 -1.3406191948026461e+01 2 3 -5
2573 858 2 4.0999999999999998e-01 -3.4706776880988954e-01 -9.2540349832303370e+00 -1.0271361754764433e+01 4 5 -5
589 197 1 -8.1999999999999995e-01 -1.1360146483637621e+01 -7.8909617016395597e+00 -5.3567764455081122e+00 5 -1 0
823 275 1 -8.1999999999999995e-01 -9.5271541817510688e+00 -1.2036663738375003e+01 -3.4515863393321542e+00 4 4 -6
825 275 2 4.0999999999999998e-01 -9.1615906304980896e+00 -1.2480900797088559e+01 -4.2695248448401184e+00 4 4 -6
1103 368 2 4.0999999999999998e-01 -1.4786761207691516e+01 -1.4775418699809432e+01 -1.4341486291301742e+00 3 3 -2
501 167 2 4.0999999999999998e-01 -1.3585507001082121e+01 -1.3208530746578521e+01 -3.9116451910636503e+00 6 1 -1
591 197 2 4.0999999999999998e-01 -1.1563844804333408e+01 -6.9168577700098623e+00 -5.2586169216907290e+00 5 -1 0
212 71 2 4.0999999999999998e-01 -1.0221708356562289e+01 -5.4292401693677927e+00 -2.1578652058153995e+00 5 -2 -7
1181 394 2 4.0999999999999998e-01 -1.0238123984159596e+01 -1.1402097042735633e+01 -6.0191269023295604e+00 6 6 -2
184 62 1 -8.1999999999999995e-01 -1.4448227916853403e+01 -9.3530004632072306e+00 -1.3586095018269670e+00 10 4 -5
223 75 1 -8.1999999999999995e-01 -8.0215802184680491e+00 -1.4579873664808996e+01 -2.6649465781526409e+00 4 2 1
824 275 2 4.0999999999999998e-01 -8.8491013815597412e+00 -1.2079421089612168e+01 -2.7178132749837847e+00 4 4 -6
624 208 2 4.0999999999999998e-01 -9.6701165592856118e+00 -1.0217386229503720e+01 -3.1852636807406860e+00 8 0 -1
590 197 2 4.0999999999999998e-01 -1.0374537304125667e+01 -8.0358176970221038e+00 -5.2696099201106499e+00 5 -1 0
110 37 2 4.0999999999999998e-01 -7.7025572689756956e+00 -8.4546758695106270e+00 -2.2622181094067191e+00 9 5 -7
2113 705 1 -8.1999999999999995e-01 -8.1802797703232635e+00 -8.4411775943594467e+00 -5.8271687703652759e+00 5 1 -3
186 62 2 4.0999999999999998e-01 -1.4001454154010837e+01 -1.0200072260814459e+01 -1.0707392744182478e+00 10 4 -5
622 208 1 -8.1999999999999995e-01 -1.0157540152278376e+01 -9.3789698694109944e+00 -2.9413724164825013e+00 8 0 -1
2395 799 1 -8.1999999999999995e-01 -1.3334697322079091e+01 -9.6228976975534231e+00 -5.8794158223154831e+00 2 2 -4
1108 370 1 -8.1999999999999995e-01 -1.2820921111460457e+01 -6.9810169134838604e+00 -1.1012154959708003e+00 9 2 -7
2303 768 2 4.0999999999999998e-01 -8.7958311760462138e+00 -6.2673163733934416e+00 -3.3648957062906835e+00 4 2 1
2302 768 1 -8.1999999999999995e-01 -8.6848499372283907e+00 -6.0953615176024059e+00 -2.3860589469827289e+00 4 2 1
623 208 2 4.0999999999999998e-01 -1.0443890825247548e+01 -8.9055714600506555e+00 -3.7743813829034405e+00 8 0 -1
1109 370 2 4.0999999999999998e-01 -1.2069327443285067e+01 -6.5268759648044821e+00 -1.5796188187974582e+00 9 2 -7
2114 705 2 4.0999999999999998e-01 -8.5539639775249885e+00 -9.3484872303450501e+00 -6.0199277879617039e+00 5 1 -3
1791 597 2 4.0999999999999998e-01 -1.2050104861068236e+01 -1.2150479505466810e+01 -4.5777066823372561e+00 2 0 0
185 62 2 4.0999999999999998e-01 -1.3786673042098984e+01 -8.6033973970749695e+00 -1.3374652363016342e+00 10 4 -5
1790 597 2 4.0999999999999998e-01 -1.2599978863195753e+01 -1.1304618427336786e+01 -5.8617635001210786e+00 2 0 0
2396 799 2 4.0999999999999998e-01 -1.2670853623846764e+01 -8.8986590086576189e+00 -5.6928773866973970e+00 2 2 -4
2486 829 2 4.0999999999999998e-01 -9.6607048661468671e+00 -7.7919998658161127e+00 -5.4131686080989283e-01 1 1 -6
2397 799 2 4.0999999999999998e-01 -1.4260970515196883e+01 -9.2542437310506429e+00 -5.8011923472739895e+00 2 2 -4
2225 742 2 4.0999999999999998e-01 -1.4663172459150491e+01 -5.4203764190853647e+00 -7.3630629082599439e+00 5 0 -5
1231 411 1 -8.1999999999999995e-01 -8.7798808047968251e+00 -5.9368595322604971e+00 -5.1589031496194835e+00 7 -2 -5
1232 411 2 4.0999999999999998e-01 -8.6925421203383646e+00 -6.9046900859085145e+00 -5.3948751211208119e+00 7 -2 -5
1789 597 1 -8.1999999999999995e-01 -1.1963235758722240e+01 -1.2016238916354721e+01 -5.5648439247296739e+00 2 0 0
1773 591 2 4.0999999999999998e-01 -1.1113335246615916e+01 -1.1888395247999439e+01 -2.8679642317595295e+00 7 0 -11
1180 394 1 -8.1999999999999995e-01 -9.3198797886986675e+00 -1.1059963281997561e+01 -6.2185731615064093e+00 6 6 -2
1771 591 1 -8.1999999999999995e-01 -1.2109374942817761e+01 -1.1806398238690855e+01 -2.8334941349100902e+00 7 0 -11
1550 517 2 4.0999999999999998e-01 -1.3965823750491495e+01 -6.1076367504561109e+00 -2.2015309344605942e+00 3 -2 -5
1772 591 2 4.0999999999999998e-01 -1.2399985384415608e+01 -1.1669662536536640e+01 -1.8864694965400819e+00 7 0 -11
499 167 1 -8.1999999999999995e-01 -1.4086248360636798e+01 -1.4052220340950912e+01 -3.7181182903736651e+00 6 1 -1
1233 411 2 4.0999999999999998e-01 -8.9243816877414659e+00 -5.4024577713504272e+00 -5.9916942095309871e+00 7 -2 -5
1110 370 2 4.0999999999999998e-01 -1.2586128004751425e+01 -7.0854931343817631e+00 -1.3479752932003564e-01 9 2 -7
2487 829 2 4.0999999999999998e-01 -8.5835963443559660e+00 -9.0186154051558507e+00 -4.9777538419246348e-01 1 1 -6
2556 852 2 4.0999999999999998e-01 -1.1755079452829706e+01 -1.3021697871353172e+01 -7.0339926464949176e+00 4 5 1
895 299 1 -8.1999999999999995e-01 -1.3150571817934313e+01 -1.1408865938993795e+01 -1.9253704697884899e-01 4 2 0
225 75 2 4.0999999999999998e-01 -7.6581833795182765e+00 -1.4032633179147600e+01 -1.9109722698883385e+00 4 2 1
530 177 2 4.0999999999999998e-01 -1.1010814220612932e+01 -1.4624067703364512e+01 -2.2372720620973450e+00 0 -1 -3
1549 517 1 -8.1999999999999995e-01 -1.4750196314452449e+01 -5.8407490342691517e+00 -2.7614749607811628e+00 3 -2 -5
2532 844 2 4.0999999999999998e-01 -8.9758338332959120e+00 -1.4267118046881807e+01 -6.6358129389159934e+00 10 1 -3
2304 768 2 4.0999999999999998e-01 -7.7115341952072782e+00 -6.0912710511686665e+00 -2.1566107667369714e+00 4 2 1
211 71 1 -8.1999999999999995e-01 -1.1132795408292415e+01 -5.0910052424352283e+00 -1.9222293470191598e+00 5 -2 -7
500 167 2 4.0999999999999998e-01 -1.4849459396472030e+01 -1.4141119407878817e+01 -4.3581281106732170e+00 6 1 -1
2226 742 2 4.0999999999999998e-01 -1.3438876882093199e+01 -5.2574048255008421e+00 -6.2948003433199151e+00 5 0 -5
1182 394 2 4.0999999999999998e-01 -9.0087898966983122e+00 -1.1430777454704526e+01 -7.0936312401811685e+00 6 6 -2
1047 349 2 4.0999999999999998e-01 -9.2077014750443453e+00 -1.4928095121620109e+01 -4.2823795833660601e+00 7 -1 -2
438 146 2 4.0999999999999998e-01 -8.9226480205605299e+00 -7.4951048317551203e+00 -7.4031650527437591e+00 10 2 0
2115 705 2 4.0999999999999998e-01 -7.2210326644050582e+00 -8.5261424869453393e+00 -5.5576643299786657e+00 5 1 -3
132 44 2 4.0999999999999998e-01 -3.4562582929670089e+00 -1.3312850949872917e+01 -7.0671079319693142e+00 3 5 -5
2300 767 2 4.0999999999999998e-01 -3.8476169184192930e+00 -7.8434393394714128e+00 -2.9521952495670174e+00 4 3 1
131 44 2 4.0999999999999998e-01 -2.3370948997371972e+00 -1.2374139759445098e+01 -6.3370813051013606e+00 3 5 -5
1884 628 2 4.0999999999999998e-01 -1.7091069445660345e+00 -7.2302927768803507e+00 -1.0340586335421467e+00 7 -6 -4
130 44 1 -8.1999999999999995e-01 -2.5270748656456359e+00 -1.3287033841255615e+01 -6.6983826892950553e+00 3 5 -5
1245 415 2 4.0999999999999998e-01 -5.4690713859800208e+00 -8.1133714753441595e+00 -7.2244106209057239e+00 0 -1 -4
1498 500 1 -8.1999999999999995e-01 -3.4683632473911423e+00 -6.3864745008349342e+00 -5.7823156927280497e+00 4 3 -2
1883 628 2 4.0999999999999998e-01 -4.5354589302920623e-01 -8.1160508608916366e+00 -4.8120841304119466e-01 7 -6 -4
1625 542 2 4.0999999999999998e-01 -3.1050495063134260e+00 -5.7724894474238564e+00 -1.9797233668788241e+00 6 2 -4
1499 500 2 4.0999999999999998e-01 -3.7657088498418823e+00 -7.3258255054640768e+00 -5.9532308790025326e+00 4 3 -2
1510 504 1 -8.1999999999999995e-01 -1.9563049409376436e+00 -8.8142870751175622e+00 -6.8318665518133272e+00 8 5 -3
1968 656 2 4.0999999999999998e-01 -6.2196279619670403e+00 -1.4224606784382640e+01 -4.7487571799671979e+00 3 -2 -3
1316 439 2 4.0999999999999998e-01 -1.4769889450605174e+00 -7.2309701359923206e+00 -5.3994842222660662e+00 6 4 -5
1130 377 2 4.0999999999999998e-01 -4.1035852649205342e+00 -1.2705594622103167e+01 -1.3566622581566889e-01 6 3 -2
1315 439 1 -8.1999999999999995e-01 -6.3009808289787372e-01 -6.7027527610528814e+00 -5.4608762043484074e+00 6 4 -5
156 52 2 4.0999999999999998e-01 -3.2952420838677199e-01 -1.2638369635153451e+01 -5.2004366950930248e-01 5 -1 -4
171 57 2 4.0999999999999998e-01 -1.1953151045550818e+00 -1.2939147070780379e+01 -2.3744801800015285e+00 4 0 -9
239 80 2 4.0999999999999998e-01 -6.0093430216448773e+00 -6.8342854315525337e+00 -4.5573075334398947e+00 7 6 -4
1966 656 1 -8.1999999999999995e-01 -6.3845412997237094e+00 -1.3238422066860698e+01 -4.7329464935606271e+00 3 -2 -3
1626 542 2 4.0999999999999998e-01 -2.2634261370571664e+00 -6.3290681037993988e+00 -3.2636761527352007e+00 6 2 -4
1967 656 2 4.0999999999999998e-01 -6.6599954100261716e+00 -1.2961257212971603e+01 -3.8124513271212219e+00 3 -2 -3
109 37 1 -8.1999999999999995e-01 -7.2067995235397220e+00 -9.2125720901523316e+00 -2.6862750839575060e+00 9 5 -7
170 57 2 4.0999999999999998e-01 -3.2509242436153585e-01 -1.1833023920589842e+01 -3.2026398318740465e+00 4 0 -9
240 80 2 4.0999999999999998e-01 -4.7521383685603595e+00 -5.8017694948094221e+00 -4.6986995940765457e+00 7 6 -4
1500 500 2 4.0999999999999998e-01 -2.7875382268202564e+00 -6.1228137296122416e+00 -6.4656655039619331e+00 4 3 -2
2591 864 2 4.0999999999999998e-01 -4.4083431887735713e-01 -1.1236463179691555e+01 -4.9399272992564658e+00 6 -3 3
169 57 1 -8.1999999999999995e-01 -9.4521464013012491e-01 -1.1972553694629889e+01 -2.4306381463304501e+00 4 0 -9
1624 542 1 -8.1999999999999995e-01 -2.8258619891372661e+00 -6.5922210042321741e+00 -2.4798246194057825e+00 6 2 -4
238 80 1 -8.1999999999999995e-01 -5.6734024134526759e+00 -5.9206465278029956e+00 -4.3283652426307686e+00 7 6 -4
1225 409 1 -8.1999999999999995e-01 -5.4731415135933510e+00 -8.8722841861783301e+00 -5.5998766651707559e+00 6 1 -6
1226 409 2 4.0999999999999998e-01 -5.1118984844291209e+00 -8.6658723162668956e+00 -4.6905338697051970e+00 6 1 -6
93 31 2 4.0999999999999998e-01 -7.2110846602734728e+00 -1.0935459465686716e+01 -2.2097956318450365e+00 8 -1 -2
91 31 1 -8.1999999999999995e-01 -7.3763105441183257e+00 -1.1880166237322387e+01 -1.9265355421423358e+00 8 -1 -2
1131 377 2 4.0999999999999998e-01 -5.3464883194996027e+00 -1.3632964287500187e+01 -6.4735185029447884e-01 6 3 -2
1227 409 2 4.0999999999999998e-01 -5.5083342267867508e+00 -9.8634925430806284e+00 -5.7274470066404426e+00 6 1 -6
1129 377 1 -8.1999999999999995e-01 -4.8222022878813338e+00 -1.2800075269752391e+01 -8.2462896336966196e-01 6 3 -2
413 138 2 4.0999999999999998e-01 -5.8459066272599358e+00 -1.2124445124518992e+01 -5.9160680185973540e+00 1 -1 -3
111 37 2 4.0999999999999998e-01 -6.2526802465925986e+00 -8.9488734935912113e+00 -2.8281421011540662e+00 9 5 -7
92 31 2 4.0999999999999998e-01 -6.5768788006172123e+00 -1.2225386694555860e+01 -1.4348665244974050e+00 8 -1 -2
2441 814 2 4.0999999999999998e-01 -5.7298260491798043e+00 -5.9998699997067213e+00 -2.5189712196307532e+00 4 3 -5
2440 814 1 -8.1999999999999995e-01 -6.0798261416398418e+00 -6.3204857384913922e+00 -1.6387938683636456e+00 4 3 -5
1987 663 1 -8.1999999999999995e-01 -2.3178961146425117e+00 -1.0882862792355514e+01 -5.3240135523149323e+00 3 3 -2
1256 419 2 4.0999999999999998e-01 -2.2798807873416287e+00 -1.0995443713221576e+01 -2.3173488435092082e+00 8 0 -8
1257 419 2 4.0999999999999998e-01 -3.7663377517749712e+00 -1.1603382544037764e+01 -2.0215442437082416e+00 8 0 -8
1255 419 1 -8.1999999999999995e-01 -3.2619530089285202e+00 -1.0837378998418675e+01 -2.4200933285706743e+00 8 0 -8
1988 663 2 4.0999999999999998e-01 -2.1839374372921956e+00 -1.0030019495986787e+01 -5.8287115741571807e+00 3 3 -2
1989 663 2 4.0999999999999998e-01 -3.1748266912346317e+00 -1.0835361121107475e+01 -4.8107686595049657e+00 3 3 -2
2299 767 1 -8.1999999999999995e-01 -4.5411619561515479e+00 -8.5475499407969959e+00 -3.1046101675911526e+00 4 3 1
2301 767 2 4.0999999999999998e-01 -4.3143499390931375e+00 -9.3604586164797219e+00 -2.5681938319126036e+00 4 3 1
1882 628 1 -8.1999999999999995e-01 -1.1177306391135513e+00 -7.4060948041339678e+00 -2.4705521455906876e-01 7 -6 -4
2442 814 2 4.0999999999999998e-01 -5.3229056556213710e+00 -6.6693656372534829e+00 -1.0861991927048749e+00 4 3 -5
414 138 2 4.0999999999999998e-01 -6.2795954842036767e+00 -1.1367320165099544e+01 -7.2964013630604470e+00 1 -1 -3
412 138 1 -8.1999999999999995e-01 -5.5810001234135029e+00 -1.1428479560678383e+01 -6.5834983259990896e+00 1 -1 -3
972 324 2 4.0999999999999998e-01 -7.0521058284325200e-01 -5.3596160676078224e+00 -4.3823005584701189e+00 7 2 1
311 104 2 4.0999999999999998e-01 -2.0851983717491347e+00 -1.4821911393502765e+01 -3.1497048701034096e+00 3 3 -5
1512 504 2 4.0999999999999998e-01 -9.6524981788056330e-01 -8.6872257349838620e+00 -6.8727552442917013e+00 8 5 -3
1317 439 2 4.0999999999999998e-01 -4.4025611135175780e-02 -7.0938587548266572e+00 -6.1704971299990117e+00 6 4 -5
310 104 1 -8.1999999999999995e-01 -1.2505918143219219e+00 -1.4842989794863925e+01 -2.5992557183736178e+00 3 3 -5
1769 590 2 4.0999999999999998e-01 -1.6439561762358998e+00 -1.4742984833980499e+01 -7.3005736177567400e+00 3 -1 0
172 58 1 -8.1999999999999995e-01 -1.4177957610102879e+01 -1.0384029685761270e+01 6.3306852065266650e+00 3 0 -7
2058 686 2 4.0999999999999998e-01 -7.8316029391513222e+00 -5.7939910222010198e+00 2.5097235899355770e+00 5 -1 1
2485 829 1 -8.1999999999999995e-01 -9.0608664716404999e+00 -8.3312843665479086e+00 4.9760864348050049e-02 1 1 -6
1600 534 1 -8.1999999999999995e-01 -1.4451370231687442e+01 -1.3139816095608046e+01 1.4627964927967572e+00 12 1 -3
244 82 1 -8.1999999999999995e-01 -1.0963538193228345e+01 -1.0377707972960728e+01 1.3441016225220768e+00 0 -2 -7
897 299 2 4.0999999999999998e-01 -1.3863678850224396e+01 -1.1840228529750716e+01 3.6010332248681820e-01 4 2 0
1895 632 2 4.0999999999999998e-01 -9.7201473946210619e+00 -1.2880313527510753e+01 4.6094807849442834e+00 1 3 -4
1896 632 2 4.0999999999999998e-01 -9.5667541686906112e+00 -1.3509727177185695e+01 3.1104966653690571e+00 1 3 -4
1894 632 1 -8.1999999999999995e-01 -9.7901834183883878e+00 -1.3715080114511691e+01 4.0633430656752463e+00 1 3 -4
896 299 2 4.0999999999999998e-01 -1.2354768590569325e+01 -1.1216230608579782e+01 3.8156707520770006e-01 4 2 0
1628 543 2 4.0999999999999998e-01 -1.1029696897616361e+01 -1.2351276095107087e+01 6.1304106961202951e+00 5 1 -9
1627 543 1 -8.1999999999999995e-01 -1.0271773245883601e+01 -1.1735904624657561e+01 5.9139010987073544e+00 5 1 -9
716 239 2 4.0999999999999998e-01 -1.1965972135783669e+01 -7.1894076851463327e+00 5.6635740914738140e+00 2 0 -6
349 117 1 -8.1999999999999995e-01 -1.1807739772579730e+01 -7.4984685179380923e+00 1.5637187931027317e+00 6 4 -4
1629 543 2 4.0999999999999998e-01 -1.0634036285510199e+01 -1.0863923252797441e+01 5.5846281770284829e+00 5 1 -9
1732 578 1 -8.1999999999999995e-01 -1.1866979598687395e+01 -9.6213896632270934e+00 3.8805511624806091e+00 5 -5 -2
1734 578 2 4.0999999999999998e-01 -1.2654794426761804e+01 -1.0033867909998222e+01 4.3379527586325413e+00 5 -5 -2
266 89 2 4.0999999999999998e-01 -1.2352987863244911e+01 -5.5948278615686871e+00 7.1166103738516835e+00 3 2 -4
351 117 2 4.0999999999999998e-01 -1.1066342818382997e+01 -6.9972847928960773e+00 2.0099833986058595e+00 6 4 -4
1733 578 2 4.0999999999999998e-01 -1.1694640737923001e+01 -8.7149343054230428e+00 4.2660958202014339e+00 5 -5 -2
350 117 2 4.0999999999999998e-01 -1.1742549660142465e+01 -8.4684775591496066e+00 1.7978971360655063e+00 6 4 -4
1602 534 2 4.0999999999999998e-01 -1.3816466522244330e+01 -1.3731931880326066e+01 1.9590856389720255e+00 12 1 -3
1061 354 2 4.0999999999999998e-01 -8.0050376604604363e+00 -1.1601437049085927e+01 5.5419430530880813e+00 5 1 0
2056 686 1 -8.1999999999999995e-01 -8.0668097000368100e+00 -5.2061666141677119e+00 3.2837694326479170e+00 5 -1 1
715 239 1 -8.1999999999999995e-01 -1.1623722507204921e+01 -6.9943488111875460e+00 4.7444310025044540e+00 2 0 -6
1211 404 2 4.0999999999999998e-01 -7.9123514739680534e+00 -7.8019325209779042e+00 5.2348883181884158e+00 8 -2 -7
1062 354 2 4.0999999999999998e-01 -7.7640039778451460e+00 -9.9867520108519727e+00 5.5785397848502871e+00 5 1 0
1212 404 2 4.0999999999999998e-01 -9.4976241445651475e+00 -8.0657421493178951e+00 4.9451307102643245e+00 8 -2 -7
717 239 2 4.0999999999999998e-01 -1.2365873088304570e+01 -6.6279568045515731e+00 4.1832036877452357e+00 2 0 -6
245 82 2 4.0999999999999998e-01 -1.1174148173715004e+01 -1.0211625534436742e+01 2.3074638274545354e+00 0 -2 -7
246 82 2 4.0999999999999998e-01 -1.0052727109862015e+01 -1.0021289666087768e+01 1.1357849770538078e+00 0 -2 -7
873 291 2 4.0999999999999998e-01 -1.4488141871032475e+01 -7.0426407577037047e+00 4.6173173685501698e+00 3 5 -4
173 58 2 4.0999999999999998e-01 -1.4483266454521372e+01 -9.5887044439884299e+00 5.8069954122168372e+00 3 0 -7
1210 404 1 -8.1999999999999995e-01 -8.6305901523268247e+00 -8.4966101047755593e+00 5.1953537864620483e+00 8 -2 -7
677 226 2 4.0999999999999998e-01 -1.3975897599030972e+01 -5.3362419311105853e+00 2.5787300193123546e+00 6 5 -6
678 226 2 4.0999999999999998e-01 -1.3135890771274896e+01 -6.7234298058220787e+00 2.3870462531331125e+00 6 5 -6
1796 599 2 4.0999999999999998e-01 -7.6853541998125312e+00 -1.3248241808217918e+01 6.1891295465621887e-01 10 -1 -3