LAMMPS data file via write_data, version 15 May 2015, timestep = 1009000

2593 atoms
6 atom types
1728 bonds
4 bond types
864 angles
3 angle types
0 dihedrals
3 dihedral types
0 impropers
1 improper types

-1.4876986966479324e+01 1.4876986966479324e+01 xlo xhi
-1.4876986966479324e+01 1.4876986966479324e+01 ylo yhi
-1.4876986966479324e+01 1.4876986966479324e+01 zlo zhi

Masses

1 15.9994
2 1.00794
3 12.0107
4 1.00794
5 12.0107
6 12.0107

Bond Coeffs # harmonic

1 1000 1
2 469 1.4
3 367 1.08
4 469 0.7

Angle Coeffs # harmonic

1 100 109.47
2 35 120
3 63 120

Dihedral Coeffs # opls

1 0 7.25 0 0
2 0 7.25 0 0
3 0 7.25 0 0

Improper Coeffs # cvff

1 2.5 -1 2

Atoms # full

516 172 2 4.0999999999999998e-01 -8.2200531391748939e+00 -5.3469726421405639e+00 -1.4851698043479686e+01 0 2 -1
1382 461 2 4.0999999999999998e-01 -8.5071748494804336e+00 -1.3093333421811581e+01 -1.2654675607939168e+01 -2 1 -2
495 165 2 4.0999999999999998e-01 -9.7938119969732895e+00 -1.4489439157519188e+01 -1.0417558338602515e+01 -1 0 0
544 182 1 -8.1999999999999995e-01 -1.2596447263646954e+01 -8.9091142920853628e+00 -1.1207278296486837e+01 -1 2 -1
545 182 2 4.0999999999999998e-01 -1.2553597213675666e+01 -9.6517856023445123e+00 -1.1875557753802934e+01 -1 2 -1
1501 501 1 -8.1999999999999995e-01 -7.0670220031790487e+00 -3.9606729432012528e+00 -1.4098822103591816e+01 0 2 -2
2232 744 2 4.0999999999999998e-01 -5.5604029195360845e+00 -9.6143975038428309e-02 -1.0529608907894357e+01 -1 4 0
1259 420 2 4.0999999999999998e-01 -1.2088085409451326e+01 -1.2647345224458039e+01 -9.6829670171204345e+00 1 3 -2
391 131 1 -8.1999999999999995e-01 -8.9008783433928826e+00 -9.9754040291497663e+00 -1.1461927970413104e+01 0 3 -2
2015 672 2 4.0999999999999998e-01 -9.6933712650270003e+00 -1.1577657066518162e+01 -9.2076346676493550e+00 2 2 0
874 292 1 -8.1999999999999995e-01 -1.3401331955390564e+01 -8.1938334207076373e+00 -8.7424225060633347e+00 -1 4 -4
2153 718 2 4.0999999999999998e-01 -1.4273396478449850e+01 -1.3789502016197350e+01 -8.9994659362068017e+00 -1 5 -1
2014 672 1 -8.1999999999999995e-01 -1.0569850004308027e+01 -1.1648475078581017e+01 -9.6838321302449479e+00 2 2 0
927 309 2 4.0999999999999998e-01 -1.3368593522402524e+01 -1.4055805100200006e+01 -1.1344018055349594e+01 0 1 -1
876 292 2 4.0999999999999998e-01 -1.3850495806609551e+01 -9.0335805535977798e+00 -8.4373474730778959e+00 -1 4 -4
2494 832 1 -8.1999999999999995e-01 -7.9499635229794743e+00 -1.2630198165369572e+01 -8.1163912292030211e+00 -1 3 -2
1260 420 2 4.0999999999999998e-01 -1.2191777528033306e+01 -1.4241431229524824e+01 -9.3442212247612932e+00 1 3 -2
64 22 1 -8.1999999999999995e-01 -1.3632758602316905e+01 -8.4128427703262432e-01 -8.4674723478388749e+00 0 3 -1
1040 347 2 4.0999999999999998e-01 -6.0482568595748631e+00 -1.0108026728947173e+01 -7.9918023627732007e+00 0 3 -1
925 309 1 -8.1999999999999995e-01 -1.3687265424987650e+01 -1.4292712024938744e+01 -1.2261796676403172e+01 0 1 -1
1258 420 1 -8.1999999999999995e-01 -1.2673137719558067e+01 -1.3456686458734234e+01 -9.7346852986065642e+00 1 3 -2
371 124 2 4.0999999999999998e-01 -1.1399144656760066e+01 -1.0433989697372972e+01 -1.4120362050539175e+01 0 1 1
1039 347 1 -8.1999999999999995e-01 -6.8984718884705742e+00 -9.5833935135721564e+00 -8.0352603889407987e+00 0 3 -1
437 146 2 4.0999999999999998e-01 -5.5540562040873489e+00 -5.6137861112617902e+00 -1.3458338346877389e+01 2 5 -2
393 131 2 4.0999999999999998e-01 -8.5593872017538590e+00 -1.0479952590418959e+01 -1.2254902579772693e+01 0 3 -2
1465 489 1 -8.1999999999999995e-01 -1.4601044790602179e+01 -1.2679213015794854e+01 -1.4249201945688105e+01 3 4 -1
1939 647 1 -8.1999999999999995e-01 -5.5581090880713617e+00 -1.1588815066288852e+01 -1.3129060108271361e+01 1 2 -1
1383 461 2 4.0999999999999998e-01 -8.3718605847374477e+00 -1.3460741773676393e+01 -1.4240018515248241e+01 -2 1 -2
855 285 2 4.0999999999999998e-01 -9.2135916375632796e+00 -1.1070649082834443e+01 -1.4578007714941741e+01 -1 2 -2
926 309 2 4.0999999999999998e-01 -1.4504215302898118e+01 -1.4865356077648043e+01 -1.2193489284969562e+01 0 1 -1
392 131 2 4.0999999999999998e-01 -8.1793241114687483e+00 -9.9096447715203162e+00 -1.0772704208106962e+01 0 3 -2
875 292 2 4.0999999999999998e-01 -1.2988455551999563e+01 -8.3441018187819225e+00 -9.6407246716088100e+00 -1 4 -4
2016 672 2 4.0999999999999998e-01 -1.0758175909361556e+01 -1.0792043732676319e+01 -1.0164511755235932e+01 2 2 0
1940 647 2 4.0999999999999998e-01 -6.3697989168426865e+00 -1.2145493417452951e+01 -1.3305873733845221e+01 1 2 -1
1956 652 2 4.0999999999999998e-01 -6.7164996134582040e+00 -8.1896038291466517e+00 -9.6668803964186196e+00 1 3 0
209 70 2 4.0999999999999998e-01 -1.3499819528262778e+01 -3.8871872937898466e+00 -8.2244463975517625e+00 -2 1 -1
372 124 2 4.0999999999999998e-01 -1.2924049951917439e+01 -1.1001539353562546e+01 -1.4258789566989346e+01 0 1 1
370 124 1 -8.1999999999999995e-01 -1.2365364076905401e+01 -1.0223387819259797e+01 -1.3971832341449996e+01 0 1 1
466 156 1 -8.1999999999999995e-01 -9.1923391869266649e+00 -7.5995285358684246e+00 -1.2662460751421705e+01 2 2 -1
467 156 2 4.0999999999999998e-01 -9.1084644513648989e+00 -6.7834829529268781e+00 -1.2090596347609921e+01 2 2 -1
1768 590 1 -8.1999999999999995e-01 -1.3146439739168743e+01 -2.8898680506006684e+00 -1.1314522145303883e+01 0 2 1
1381 461 1 -8.1999999999999995e-01 -8.2082427459350988e+00 -1.2757683600551484e+01 -1.3547968934923968e+01 -2 1 -2
85 29 1 -8.1999999999999995e-01 -1.4130487436322310e+01 -5.3129852397087713e+00 -1.3103201225106488e+01 -2 1 -1
2495 832 2 4.0999999999999998e-01 -7.4681988222691364e+00 -1.3189914178174664e+01 -8.7906426634760102e+00 -1 3 -2
2229 743 2 4.0999999999999998e-01 -1.0582393947244681e+01 -2.8086251175021903e+00 -8.5692387147424043e+00 -2 0 -1
255 85 2 4.0999999999999998e-01 -6.2988206725977989e+00 -8.7533911141747662e+00 -1.3966515315768266e+01 -1 3 -1
1571 524 2 4.0999999999999998e-01 -1.0871628666694770e+01 -1.4239122567118249e+01 -1.2853301131587013e+01 1 4 -1
1570 524 1 -8.1999999999999995e-01 -1.1507745630487751e+01 -1.4547910227348353e+01 -1.3560407644144671e+01 1 4 -1
1572 524 2 4.0999999999999998e-01 -1.2440339292246378e+01 -1.4531806881237280e+01 -1.3199847010032485e+01 1 4 -1
86 29 2 4.0999999999999998e-01 -1.4637114303794384e+01 -5.0043724850788625e+00 -1.2298166070683340e+01 -2 1 -1
546 182 2 4.0999999999999998e-01 -1.2266177073548025e+01 -8.0636477763333136e+00 -1.1626923593534025e+01 -1 2 -1
2117 706 2 4.0999999999999998e-01 -1.4119807892995880e+01 -8.0406986647674294e-01 -1.3313841460454858e+01 0 2 0
212 71 2 4.0999999999999998e-01 -9.1986189934963072e+00 -3.4451277471445803e+00 -1.4274883847423409e+01 0 2 0
515 172 2 4.0999999999999998e-01 -8.9539630393906062e+00 -6.6313180569362924e+00 -1.4160001393615397e+01 0 2 -1
1668 556 2 4.0999999999999998e-01 -9.7203167026355164e+00 -1.4906838928608916e+00 -1.0848578847160040e+01 1 5 -3
1547 516 2 4.0999999999999998e-01 -6.1707691891025682e+00 -3.6504364165760510e+00 -8.1764924244593331e+00 1 2 -2
2 1 2 4.0999999999999998e-01 -9.0340124924621321e+00 -7.7263563476937236e-01 -1.3533422019981696e+01 -2 4 -1
204 68 2 4.0999999999999998e-01 -1.3994813058758741e+01 -8.6430457495221944e+00 -1.3490358748577236e+01 0 1 -1
66 22 2 4.0999999999999998e-01 -1.4209568885957724e+01 -9.3551305848213495e-01 -9.2788939428852437e+00 0 3 -1
1 1 1 -8.1999999999999995e-01 -8.3631668006350388e+00 -4.6244309806386497e-02 -1.3384036954855430e+01 -2 4 -1
2359 787 1 -8.1999999999999995e-01 -9.4361577994644144e+00 -5.1778416131733653e+00 -1.1019271696204136e+01 1 1 0
468 156 2 4.0999999999999998e-01 -9.1849476195960822e+00 -8.4146503230362590e+00 -1.2083223284414341e+01 2 2 -1
2022 674 2 4.0999999999999998e-01 -9.0206892923537758e+00 -4.3847312952407922e+00 -8.1351861195891129e+00 -1 3 0
2021 674 2 4.0999999999999998e-01 -9.6785938588680764e+00 -5.7933367859397471e+00 -7.6355831588107961e+00 -1 3 0
2020 674 1 -8.1999999999999995e-01 -8.8866689180877358e+00 -5.3741452614698701e+00 -8.0795736142227774e+00 -1 3 0
1566 522 2 4.0999999999999998e-01 -5.6233498511888662e+00 -9.4984164819616801e-01 -1.3038160296960637e+01 -1 2 2
3 1 2 4.0999999999999998e-01 -7.4687809741836819e+00 -4.5206188402546488e-01 -1.3195940439228165e+01 -2 4 -1
1409 470 2 4.0999999999999998e-01 -1.0753850509760159e+01 -7.0292735243066771e+00 -1.3119883504304193e+01 0 3 0
1410 470 2 4.0999999999999998e-01 -1.1991346702080818e+01 -6.8543240544385782e+00 -1.4170886290897611e+01 0 3 0
628 210 1 -8.1999999999999995e-01 -1.0471939919623084e+01 -2.8223465046877561e+00 -1.1849165720022887e+01 -1 3 -1
629 210 2 4.0999999999999998e-01 -1.1395994068184233e+01 -2.7392911252206602e+00 -1.1476043786764524e+01 -1 3 -1
2118 706 2 4.0999999999999998e-01 -1.3254343407110705e+01 -1.7379483662171769e+00 -1.4336315486087038e+01 0 2 0
2231 744 2 4.0999999999999998e-01 -6.2715434103951804e+00 -7.3337523853033382e-01 -9.2049102125440783e+00 -1 4 0
2230 744 1 -8.1999999999999995e-01 -5.6967286367545302e+00 -9.3246889300497671e-01 -9.9986002687478894e+00 -1 4 0
1869 623 2 4.0999999999999998e-01 -1.1153447636629695e+01 -5.0921100758788533e+00 -1.0153109102949015e+01 0 3 1
2192 731 2 4.0999999999999998e-01 -1.1804247710833044e+01 -5.7132441467265380e+00 -8.2219899763834796e+00 0 2 1
1954 652 1 -8.1999999999999995e-01 -7.4225728192071712e+00 -7.7117696540196201e+00 -1.0189498172609550e+01 1 3 0
1261 421 1 -8.1999999999999995e-01 -6.6646813704009240e+00 -1.4046068074720345e+01 -1.0001780614432899e+01 1 1 -1
1868 623 2 4.0999999999999998e-01 -1.2483431798490091e+01 -4.1469161415105020e+00 -1.0219150723392286e+01 0 3 1
2361 787 2 4.0999999999999998e-01 -9.1364185895470982e+00 -5.0667285987928405e+00 -1.0071746245055561e+01 1 1 0
1666 556 1 -8.1999999999999995e-01 -9.3159758254931404e+00 -5.8275444932795750e-01 -1.0738275816938085e+01 1 5 -3
1867 623 1 -8.1999999999999995e-01 -1.1875387458739986e+01 -4.6595984082669375e+00 -9.6129880684382663e+00 0 3 1
493 165 1 -8.1999999999999995e-01 -9.8152211646336127e+00 -1.3758175363950816e+01 -1.1099312757762956e+01 -1 0 0
1548 516 2 4.0999999999999998e-01 -7.0760942756110436e+00 -4.9984116759759392e+00 -8.3495827893742636e+00 1 2 -2
1918 640 1 -8.1999999999999995e-01 -5.7208371023298401e+00 -8.4599643420754891e+00 -1.2168724649293143e+01 2 1 1
1955 652 2 4.0999999999999998e-01 -7.9883932606590431e+00 -7.1702585208350751e+00 -9.5677207720626214e+00 1 3 0
1770 590 2 4.0999999999999998e-01 -1.3959700025441366e+01 -2.5042396467588315e+00 -1.0878755340933836e+01 0 2 1
1546 516 1 -8.1999999999999995e-01 -6.1574693682642891e+00 -4.6143425662507642e+00 -8.4423913880412726e+00 1 2 -2
87 29 2 4.0999999999999998e-01 -1.3181250722513015e+01 -5.4981073933467126e+00 -1.2848891109256018e+01 -2 1 -1
1408 470 1 -8.1999999999999995e-01 -1.1715107154348695e+01 -6.7700153674248256e+00 -1.3213505514023460e+01 0 3 0
494 165 2 4.0999999999999998e-01 -1.0133773946022981e+01 -1.2912498145117414e+01 -1.0671120772158012e+01 -1 0 0
1564 522 1 -8.1999999999999995e-01 -6.1246633534920978e+00 -1.7639500915914965e+00 -1.2745062356446006e+01 -1 2 2
1262 421 2 4.0999999999999998e-01 -6.0052367785862177e+00 -1.4150137531924244e+01 -1.0746291566014103e+01 1 1 -1
1565 522 2 4.0999999999999998e-01 -6.0367411742744004e+00 -1.8709571344162725e+00 -1.1754702138637755e+01 -1 2 2
1503 501 2 4.0999999999999998e-01 -6.7831301346939341e+00 -3.2374914523185296e+00 -1.3469212615655715e+01 0 2 -2
2116 706 1 -8.1999999999999995e-01 -1.3212585812707459e+01 -1.1761111938222086e+00 -1.3510125740185719e+01 0 2 0
630 210 2 4.0999999999999998e-01 -1.0515938026973581e+01 -2.8374058260136632e+00 -1.2848080939864591e+01 -1 3 -1
210 70 2 4.0999999999999998e-01 -1.3908237901592992e+01 -2.4027032014295084e+00 -7.6802842812367000e+00 -2 1 -1
1769 590 2 4.0999999999999998e-01 -1.2972025940713671e+01 -2.4129220312116644e+00 -1.2175972385682911e+01 0 2 1
203 68 2 4.0999999999999998e-01 -1.4641154763657768e+01 -7.1440989188512320e+00 -1.3445505326493334e+01 0 1 -1
2360 787 2 4.0999999999999998e-01 -9.5420758383531403e+00 -4.2782810125338759e+00 -1.1443024331587301e+01 1 1 0
1920 640 2 4.0999999999999998e-01 -6.4048630514408416e+00 -8.1785555706154636e+00 -1.1495737420472748e+01 2 1 1
2227 743 1 -8.1999999999999995e-01 -9.6068194946587866e+00 -2.6714520119180190e+00 -8.3976805854239274e+00 -2 0 -1
1466 489 2 4.0999999999999998e-01 -1.4370898014231518e+01 -1.3061418614659985e+01 -1.3354246347435469e+01 3 4 -1
65 22 2 4.0999999999999998e-01 -1.4198144239114061e+01 -5.7999631081104575e-01 -7.6851285009148267e+00 0 3 -1
1667 556 2 4.0999999999999998e-01 -9.0181635785410528e+00 -2.4002832504247529e-01 -1.1629253295540504e+01 1 5 -3
211 71 1 -8.1999999999999995e-01 -1.0072985781887088e+01 -3.0640979473935541e+00 -1.4575372096824189e+01 0 2 0
1919 640 2 4.0999999999999998e-01 -5.2949394408003787e+00 -9.3152091233297689e+00 -1.1873492990561521e+01 2 1 1
2228 743 2 4.0999999999999998e-01 -9.3830549471308906e+00 -1.7024205391698324e+00 -8.5020924889867704e+00 -2 0 -1
253 85 1 -8.1999999999999995e-01 -6.8928772688329305e+00 -8.7818354122775268e+00 -1.4770431907792554e+01 -1 3 -1
208 70 1 -8.1999999999999995e-01 -1.4063122627793703e+01 -3.3843272715773320e+00 -7.5688431377579413e+00 -2 1 -1
1953 651 2 4.0999999999999998e-01 -1.3134421950937030e+01 -1.1727127261429025e+01 -7.6481671858180924e+00 -1 4 -1
2496 832 2 4.0999999999999998e-01 -7.5302618895370781e+00 -1.1723490363848253e+01 -8.0748491304104384e+00 -1 3 -2
202 68 1 -8.1999999999999995e-01 -1.4848102494261630e+01 -8.1222687377390628e+00 -1.3464231153762677e+01 0 1 -1
254 85 2 4.0999999999999998e-01 -7.6264055110097253e+00 -8.1101333817999883e+00 -1.4666764528249820e+01 -1 3 -1
218 73 2 4.0999999999999998e-01 -1.3208910029179153e+01 -5.6302318387274912e+00 -2.1471741752429061e+00 -1 1 -3
2486 829 2 4.0999999999999998e-01 -1.4104295159717326e+01 -1.1033252683644539e+01 -3.7814963404335575e+00 0 3 -2
802 268 1 -8.1999999999999995e-01 -1.0572870457189484e+01 -1.1048878846027925e+01 -1.7240825538303906e+00 0 4 -3
804 268 2 4.0999999999999998e-01 -1.0795117101425697e+01 -1.1970224646519878e+01 -1.4051428834338342e+00 0 4 -3
1517 506 2 4.0999999999999998e-01 -1.3430067512892057e+01 -1.6929827487394302e+00 -4.2301376916440958e-01 -2 3 -1
328 110 1 -8.1999999999999995e-01 -1.4151151230133717e+01 -1.4075656510449086e+01 -5.0770704286977875e+00 0 2 -2
404 135 2 4.0999999999999998e-01 -9.0248514262523400e+00 -1.0318617696103990e+01 -5.9197281184568435e+00 3 3 -3
1090 364 1 -8.1999999999999995e-01 -9.7193164104792924e+00 -8.2675505148253858e+00 -3.6864804334652419e+00 -1 2 -4
1092 364 2 4.0999999999999998e-01 -1.0388504268282482e+01 -8.8968767194177492e+00 -3.2913471309161331e+00 -1 2 -4
1792 598 1 -8.1999999999999995e-01 -1.0926193375634254e+01 -1.4023642928831748e+01 -1.3637581777784415e+00 1 3 -1
1793 598 2 4.0999999999999998e-01 -1.1005137197608445e+01 -1.3973589544408178e+01 -2.3593769412384535e+00 1 3 -1
1091 364 2 4.0999999999999998e-01 -1.0060888052553448e+01 -7.9239700546540730e+00 -4.5612806918164122e+00 -1 2 -4
994 332 1 -8.1999999999999995e-01 -1.0911519460080417e+01 -1.0120110983769685e+01 -6.0050515244291756e+00 -1 1 -2
2423 808 2 4.0999999999999998e-01 -1.2189644638691330e+01 -2.3418510825537275e-01 -3.9814547043846815e+00 2 2 -1
123 41 2 4.0999999999999998e-01 -8.7718626802082795e+00 -1.1221927890587214e+01 -2.8248070141726913e+00 1 3 -2
122 41 2 4.0999999999999998e-01 -7.5988308209517950e+00 -1.0087830223845504e+01 -2.7582509427303687e+00 1 3 -2
1041 347 2 4.0999999999999998e-01 -7.3685897213220191e+00 -9.6369635338508406e+00 -7.1542872312083796e+00 0 3 -1
803 268 2 4.0999999999999998e-01 -1.1413264224009154e+01 -1.0513444874975686e+01 -1.8080048587017501e+00 0 4 -3
121 41 1 -8.1999999999999995e-01 -7.8397204757190408e+00 -1.0993911135472622e+01 -3.1060781501644250e+00 1 3 -2
1331 444 2 4.0999999999999998e-01 -6.5673827453084801e+00 -1.2448693665570692e+01 -3.4358159386170293e+00 1 3 0
995 332 2 4.0999999999999998e-01 -1.1475282197790563e+01 -9.4208244451296395e+00 -5.5655471329336521e+00 -1 1 -2
2487 829 2 4.0999999999999998e-01 -1.2842517422279592e+01 -1.2068724127097777e+01 -3.7332588159165354e+00 0 3 -2
2485 829 1 -8.1999999999999995e-01 -1.3132912798114690e+01 -1.1127037073623876e+01 -3.5632876643917797e+00 0 3 -2
1271 424 2 4.0999999999999998e-01 -1.2580310268752919e+01 -1.4229875080158598e+01 -7.6024931291272679e-01 -2 4 -1
2136 712 2 4.0999999999999998e-01 -1.2657116938380698e+01 -1.4010703106186638e+01 -4.4246976100373931e+00 0 4 -1
1330 444 1 -8.1999999999999995e-01 -5.8754613614673978e+00 -1.3167365269498571e+01 -3.5047369985440096e+00 1 3 0
1184 395 2 4.0999999999999998e-01 -1.3741694699760499e+01 -8.2590052559240164e+00 -4.5904066440228455e+00 -1 3 -2
2018 673 2 4.0999999999999998e-01 -6.2142362152677642e+00 -6.0576686933306298e+00 -3.2959394566194096e+00 -1 4 -3
2134 712 1 -8.1999999999999995e-01 -1.1718528532193048e+01 -1.3896536828132509e+01 -4.0991026994992072e+00 0 4 -1
1270 424 1 -8.1999999999999995e-01 -1.3547116245180945e+01 -1.4236776065893025e+01 -5.0484220108581468e-01 -2 4 -1
1983 661 2 4.0999999999999998e-01 -5.7414204134374049e+00 -9.4595292210077417e+00 -5.4667487659698342e+00 -1 3 0
962 321 2 4.0999999999999998e-01 -5.3364064561281737e+00 -1.2264038015767699e+01 -1.5317841812901527e+00 -1 3 -1
258 86 2 4.0999999999999998e-01 -1.3324439988379691e+01 -8.8065332189779770e+00 -1.8398972362665287e+00 2 3 -2
329 110 2 4.0999999999999998e-01 -1.4142627438659177e+01 -1.4827348609191056e+01 -4.4176156253639025e+00 0 2 -2
1017 339 2 4.0999999999999998e-01 -1.3848840451731766e+01 -1.0680424866051101e+01 -6.4939806174711201e-01 -2 2 0
614 205 2 4.0999999999999998e-01 -6.8441408235949570e+00 -9.6463321950521319e+00 -5.7622289549566297e-01 0 2 0
2135 712 2 4.0999999999999998e-01 -1.1120843402983351e+01 -1.3685154561109599e+01 -4.8724617452340215e+00 0 4 -1
732 244 2 4.0999999999999998e-01 -6.9461047239727449e+00 -1.4636378180156319e+01 -1.5439576614081609e+00 0 2 -2
2017 673 1 -8.1999999999999995e-01 -5.2314951686931010e+00 -5.8834406610421031e+00 -3.2338198288074356e+00 -1 4 -3
996 332 2 4.0999999999999998e-01 -1.1496937434216154e+01 -1.0741258425971075e+01 -6.5260658030925551e+00 -1 1 -2
403 135 1 -8.1999999999999995e-01 -8.0537290961623569e+00 -1.0131059333925830e+01 -5.7722916417366186e+00 3 3 -3
257 86 2 4.0999999999999998e-01 -1.1865174582112704e+01 -8.1412478885775137e+00 -2.1473884355930561e+00 2 3 -2
1952 651 2 4.0999999999999998e-01 -1.3009324011057453e+01 -1.2964974556076312e+01 -6.5904831398124823e+00 -1 4 -1
1183 395 1 -8.1999999999999995e-01 -1.2844816996209017e+01 -8.7011908002999014e+00 -4.5816572832341063e+00 -1 3 -2
256 86 1 -8.1999999999999995e-01 -1.2376202501663979e+01 -8.7389214509579194e+00 -1.5296255729777961e+00 2 3 -2
1332 444 2 4.0999999999999998e-01 -6.3204355705894368e+00 -1.4062412910620429e+01 -3.4750387753853822e+00 1 3 0
1896 632 2 4.0999999999999998e-01 -8.0422160300118257e+00 -5.8803654622122821e+00 -2.3152004421560850e+00 0 3 0
405 135 2 4.0999999999999998e-01 -7.7333383343123927e+00 -1.0640588895590550e+01 -4.9737155857279252e+00 3 3 -3
104 35 2 4.0999999999999998e-01 -1.1431357732581821e+01 -7.7390096696013382e+00 -3.1560870423748888e-01 2 3 -2
1174 392 1 -8.1999999999999995e-01 -1.4027926113128968e+01 -2.7791244109795912e+00 -4.4972941055765130e+00 0 2 0
1494 498 2 4.0999999999999998e-01 -8.2584469871234667e+00 -2.4931663282105205e+00 -4.9528545659808145e+00 1 1 1
615 205 2 4.0999999999999998e-01 -5.8301185726304201e+00 -9.0343203057273147e+00 -1.7004165513265210e+00 0 2 0
1951 651 1 -8.1999999999999995e-01 -1.2567187982295826e+01 -1.2136157230242404e+01 -6.9333705115783673e+00 -1 4 -1
1281 427 2 4.0999999999999998e-01 -6.5131373194065389e+00 -2.6190332328596249e+00 -5.4952735908227446e-01 1 1 0
99 33 2 4.0999999999999998e-01 -1.0735476752640054e+01 -5.2858872835687372e+00 -6.0675580391388078e+00 1 2 2
390 130 2 4.0999999999999998e-01 -7.0405830300385306e+00 -1.3173591935514555e+00 -7.0941590884413843e+00 -1 4 -1
98 33 2 4.0999999999999998e-01 -9.5323745078438264e+00 -4.4597661346677153e+00 -5.3349736642680679e+00 1 2 2
512 171 2 4.0999999999999998e-01 -7.7936385423283703e+00 -8.7380101329435433e-01 -1.8726652441182665e+00 0 0 -2
320 107 2 4.0999999999999998e-01 -1.0796213948756275e+01 -1.2612844532612165e+01 -6.7076818073807640e+00 -1 3 -1
613 205 1 -8.1999999999999995e-01 -6.7892514913626894e+00 -9.1912350328177084e+00 -1.4649680464490586e+00 0 2 0
1453 485 1 -8.1999999999999995e-01 -1.2262280620848879e+01 -6.0852898630096828e+00 -3.5238349088513914e+00 0 1 -2
1880 627 2 4.0999999999999998e-01 -8.0359544808009851e+00 -2.3185112989104280e+00 -2.4423597993322872e+00 1 2 -2
1879 627 1 -8.1999999999999995e-01 -8.0831890360578456e+00 -2.6078682847628034e+00 -1.4863077014502704e+00 1 2 -2
103 35 1 -8.1999999999999995e-01 -1.1041689212932161e+01 -6.8475321277839782e+00 -8.4479832934723831e-02 2 3 -2
1895 632 2 4.0999999999999998e-01 -8.6166077063104893e+00 -6.8156863132841572e+00 -3.5242745591571012e+00 0 3 0
1185 395 2 4.0999999999999998e-01 -1.2929237397933296e+01 -9.6185016669517509e+00 -4.1925452048667751e+00 -1 3 -2
985 329 1 -8.1999999999999995e-01 -7.4778762614790724e+00 -4.2255755169643123e+00 -5.0460113696453526e+00 2 3 0
1015 339 1 -8.1999999999999995e-01 -1.4057713703267755e+01 -1.1574374007374510e+01 -2.5288692009524816e-01 -2 2 0
1493 498 2 4.0999999999999998e-01 -8.5806408574676674e+00 -8.9330071902629982e-01 -4.8960021838037928e+00 1 1 1
2424 808 2 4.0999999999999998e-01 -1.1124793895759924e+01 -1.3925621123158916e+00 -4.4183374889175262e+00 2 2 -1
1894 632 1 -8.1999999999999995e-01 -7.9025810335316482e+00 -6.1660309420998978e+00 -3.2632994565681948e+00 0 3 0
1176 392 2 4.0999999999999998e-01 -1.3304820224122896e+01 -2.0894166527290761e+00 -4.4596741026024098e+00 0 2 0
1058 353 2 4.0999999999999998e-01 -1.0150575083748629e+01 -4.7268430490141107e+00 -2.4817168922423196e+00 0 4 -1
97 33 1 -8.1999999999999995e-01 -1.0406131272994365e+01 -4.9254964023798529e+00 -5.1948357698302416e+00 1 2 2
1272 424 2 4.0999999999999998e-01 -1.3862445325725291e+01 -1.3297703030084996e+01 -3.6808098433336056e-01 -2 4 -1
1881 627 2 4.0999999999999998e-01 -8.7314849146494016e+00 -3.3641855154033280e+00 -1.3986099248023169e+00 1 2 -2
1454 485 2 4.0999999999999998e-01 -1.2339102541875185e+01 -7.0177785854780632e+00 -3.8767617443644475e+00 0 1 -2
1428 476 2 4.0999999999999998e-01 -9.3186163470720551e+00 -1.1023626006326019e+01 -2.5863470525518650e-01 2 2 -2
217 73 1 -8.1999999999999995e-01 -1.3921393314024685e+01 -5.7114641664768975e+00 -1.4502071218298980e+00 -1 1 -3
1794 598 2 4.0999999999999998e-01 -1.0429110442683555e+01 -1.4853441742448528e+01 -1.1101114297959818e+00 1 3 -1
986 329 2 4.0999999999999998e-01 -7.5399333535053907e+00 -4.9803005866051198e+00 -4.3929162944867102e+00 2 3 0
1059 353 2 4.0999999999999998e-01 -1.0050564147888789e+01 -5.7611711730748461e+00 -1.2220445591393876e+00 0 4 -1
389 130 2 4.0999999999999998e-01 -5.8957700489280462e+00 -2.2826380843781173e+00 -6.4428134651515148e+00 -1 4 -1
2193 731 2 4.0999999999999998e-01 -1.1922665220017553e+01 -7.1340373709564417e+00 -7.4257897061000957e+00 0 2 1
1175 392 2 4.0999999999999998e-01 -1.3870641763688084e+01 -3.3847416719648891e+00 -5.2773476644575563e+00 0 2 0
1492 498 1 -8.1999999999999995e-01 -8.7482891667057263e+00 -1.7760462861079986e+00 -4.4570847475127380e+00 1 1 1
1057 353 1 -8.1999999999999995e-01 -9.7432956262826274e+00 -4.8799894097474077e+00 -1.5813481435845365e+00 0 4 -1
1455 485 2 4.0999999999999998e-01 -1.1686436053672967e+01 -5.5435453966574695e+00 -4.1361340094709682e+00 0 1 -2
987 329 2 4.0999999999999998e-01 -6.5343468743621056e+00 -3.8968153720733198e+00 -5.0867942259767620e+00 2 3 0
1252 418 1 -8.1999999999999995e-01 -5.1341643008678499e+00 -2.8344807628796822e+00 -5.0472649945962598e+00 -1 3 -1
2422 808 1 -8.1999999999999995e-01 -1.1869794293125643e+01 -8.0634865716832849e-01 -4.7366492614016504e+00 2 2 -1
319 107 1 -8.1999999999999995e-01 -1.0133286640452541e+01 -1.3334179493395496e+01 -6.5071885245341559e+00 -1 3 -1
1516 506 1 -8.1999999999999995e-01 -1.3447189189922216e+01 -7.7017433613143105e-01 -8.0788475762742173e-01 -2 3 -1
388 130 1 -8.1999999999999995e-01 -6.4325283421222927e+00 -2.0926764634562236e+00 -7.2648836331601698e+00 -1 4 -1
2191 731 1 -8.1999999999999995e-01 -1.1569462822148104e+01 -6.1995969418651899e+00 -7.3803658257503324e+00 0 2 1
511 171 1 -8.1999999999999995e-01 -7.3796095567421780e+00 -1.5065956110877465e-02 -2.1745730088739634e+00 0 0 -2
321 107 2 4.0999999999999998e-01 -9.2525730274137885e+00 -1.3101525670131281e+01 -6.9197538328499189e+00 -1 3 -1
1254 418 2 4.0999999999999998e-01 -5.0367952700584624e+00 -2.0410491334619412e+00 -4.4464490876634564e+00 -1 3 -1
681 227 2 4.0999999999999998e-01 -1.0739497323365523e+01 -9.8769571791688193e-01 -4.7815046012445883e-01 2 4 -2
1518 506 2 4.0999999999999998e-01 -1.4144411400628265e+01 -2.2687550501751907e-01 -3.4022909293322989e-01 -2 3 -1
219 73 2 4.0999999999999998e-01 -1.4764487488394835e+01 -5.2904484399691096e+00 -1.7847697755132632e+00 -1 1 -3
680 227 2 4.0999999999999998e-01 -9.4352675102262982e+00 -1.9301706141673236e+00 -2.0005529648948084e-01 2 4 -2
2299 767 1 -8.1999999999999995e-01 -1.1737619323178956e+01 -8.2238456942673039e+00 2.3681787039456932e+00 1 2 1
692 231 2 4.0999999999999998e-01 -8.3525513953874047e+00 -1.3580124477358574e+01 5.5154886517146604e+00 -3 2 -2
1589 530 2 4.0999999999999998e-01 -9.3317356473743889e+00 -8.8788105730613101e+00 1.5662753204084812e+00 1 2 -1
2301 767 2 4.0999999999999998e-01 -1.1166700473549636e+01 -8.7212742186917005e+00 3.0213331454876826e+00 1 2 1
2522 841 2 4.0999999999999998e-01 -9.9674730541810472e+00 -8.7838401558909176e+00 4.9336469571061006e+00 -1 4 0
1182 394 2 4.0999999999999998e-01 -1.1491495452350573e+01 -1.0571800348747395e+01 7.0625977710362395e+00 1 5 -2
1004 335 2 4.0999999999999998e-01 -1.3205755168583980e+01 -1.2215955656410230e+01 2.7700121118916687e+00 1 2 -1
1274 425 2 4.0999999999999998e-01 -5.5472909799139138e+00 -8.0501971110712809e+00 1.8857997140737321e+00 0 3 0
908 303 2 4.0999999999999998e-01 -9.2286852315918395e+00 -1.0080094170649305e+01 3.3669908619226110e+00 1 1 -1
909 303 2 4.0999999999999998e-01 -8.3160700057686903e+00 -1.1410967756375435e+01 3.1169506665267033e+00 1 1 -1
1427 476 2 4.0999999999999998e-01 -8.6433995546036932e+00 -1.1112719989823216e+01 1.2255335910584808e+00 2 2 -2
784 262 1 -8.1999999999999995e-01 -1.1883640332793179e+01 -1.3207121344409337e+01 3.0711403119885059e+00 2 3 -1
907 303 1 -8.1999999999999995e-01 -8.8189503562807445e+00 -1.0670277040010376e+01 2.6714365623177105e+00 1 1 -1
1003 335 1 -8.1999999999999995e-01 -1.3875385082427139e+01 -1.1609287468136415e+01 2.3415920999400814e+00 1 2 -1
2045 682 2 4.0999999999999998e-01 -7.7608030092757900e+00 -1.3619366156103553e+01 3.5884233674263886e+00 -1 1 -3
2044 682 1 -8.1999999999999995e-01 -7.6414632421871094e+00 -1.3980341965846581e+01 2.6635186575573240e+00 -1 1 -3
906 302 2 4.0999999999999998e-01 -1.3412965350910666e+01 -8.2322000559472386e+00 2.0299968176301935e+00 1 4 0
905 302 2 4.0999999999999998e-01 -1.3977007836282063e+01 -9.7517861243194481e+00 2.2283026404461470e+00 1 4 0
2521 841 1 -8.1999999999999995e-01 -1.0525261780331359e+01 -9.4811781349372932e+00 4.4835517985144815e+00 -1 4 0
1264 422 1 -8.1999999999999995e-01 -9.9963331582808976e+00 -1.3623186712875196e+01 1.0681656037138385e+00 -2 3 -4
693 231 2 4.0999999999999998e-01 -8.0357521982979598e+00 -1.1984206929811252e+01 5.6544002308632901e+00 -3 2 -2
2523 841 2 4.0999999999999998e-01 -1.1356092551871441e+01 -9.6390380897577881e+00 5.0172133496463207e+00 -1 4 0
691 231 1 -8.1999999999999995e-01 -8.2412296924546133e+00 -1.2722999019251510e+01 5.0125595648505215e+00 -3 2 -2
815 272 2 4.0999999999999998e-01 -8.3450348906144303e+00 -9.7411515056398414e+00 6.2349575019745753e+00 -1 2 -2
814 272 1 -8.1999999999999995e-01 -8.3369896097294092e+00 -1.0624959510450649e+01 6.7027318954632964e+00 -1 2 -2
2531 844 2 4.0999999999999998e-01 -1.1925719188050479e+01 -4.1311873563259578e+00 6.6795365323147404e+00 1 4 0
1265 422 2 4.0999999999999998e-01 -9.1507466861702209e+00 -1.3134203507867880e+01 8.5398525712159845e-01 -2 3 -4
1273 425 1 -8.1999999999999995e-01 -5.8539458439754277e+00 -8.6281743980980607e+00 1.1295595246181822e+00 0 3 0
2046 682 2 4.0999999999999998e-01 -8.5372581628260242e+00 -1.4170339301796190e+01 2.2617142778347219e+00 -1 1 -3
934 312 1 -8.1999999999999995e-01 -1.3557408576418140e+01 -1.0201612709355778e-01 3.3476276725499385e+00 -1 0 -1
1275 425 2 4.0999999999999998e-01 -6.8514873486759775e+00 -8.5949360969467872e+00 1.0679106839351107e+00 0 3 0
679 227 1 -8.1999999999999995e-01 -9.9670064556398970e+00 -1.1524199983630368e+00 1.3513418940778088e-01 2 4 -2
993 331 2 4.0999999999999998e-01 -1.3267593776097037e+01 -1.0864816238921080e+01 5.4611308756028354e+00 1 2 -2
991 331 1 -8.1999999999999995e-01 -1.2837651393929750e+01 -1.0014374924307948e+01 5.7642699280629319e+00 1 2 -2
816 272 2 4.0999999999999998e-01 -9.2078912879060333e+00 -1.0759904956227803e+01 7.1752931945076472e+00 -1 2 -2
1154 385 2 4.0999999999999998e-01 -5.2396299149979004e+00 -1.0702979572976346e+01 6.6838953024602841e+00 -2 2 -2
296 99 2 4.0999999999999998e-01 -5.8425131027895727e+00 -1.3597005951323872e+01 3.2194305261004512e+00 0 3 -3
1588 530 1 -8.1999999999999995e-01 -8.7131830456602621e+00 -8.1617459010258564e+00 1.2450198078116994e+00 1 2 -1
786 262 2 4.0999999999999998e-01 -1.1412542913884094e+01 -1.3187401088479389e+01 3.9529977502246876e+00 2 3 -1
1928 643 2 4.0999999999999998e-01 -6.7794953171694914e+00 -1.4042092311442167e+01 8.4733571022170118e-01 -2 1 -1
78 26 2 4.0999999999999998e-01 -5.0362649213112984e+00 -1.2824910704688186e+01 6.4169290715998226e+00 0 1 -3
992 331 2 4.0999999999999998e-01 -1.3545250403151275e+01 -9.3405511460269199e+00 5.9770123198194494e+00 1 2 -2
785 262 2 4.0999999999999998e-01 -1.1222589432085693e+01 -1.3393002069113942e+01 2.3441917177061402e+00 2 3 -1