2593
Atoms. Timestep: 18495000
O 6.5672 2.24435 -8.47408
H 5.84788 1.72769 -8.93849
H 6.27902 2.45007 -7.53886
O 6.03369 1.2128 -13.5915
H 6.50574 0.929806 -12.7565
H 6.02011 0.452366 -14.2408
O 2.25359 -6.88078 8.47782
H 2.68518 -6.59675 7.62162
H 2.1814 -7.87794 8.49994
O -4.68423 13.7227 13.2461
H -4.04281 14.4863 13.1719
H -4.80988 13.3043 12.3465
O 3.1028 3.06869 7.09026
H 2.81723 2.26597 6.5667
H 3.08263 2.85417 8.06679
O -2.19908 1.02966 5.36744
H -1.5196 1.42246 4.74774
H -2.8404 1.74165 5.65344
O 12.4778 10.5677 -8.25044
H 13.2595 10.7041 -7.64192
H 11.7347 10.129 -7.74516
O 3.74368 -3.48187 7.06822
H 3.23152 -2.75545 7.5265
H 4.54388 -3.723 7.61737
O 8.48717 -4.99834 -10.9314
H 8.01371 -4.22663 -10.5068
H 8.54786 -5.75271 -10.2777
O 12.3975 -14.6543 3.89552
H 11.896 -14.8663 4.73431
H 11.9665 -13.8772 3.43685
O 0.87955 -6.31702 -0.46559
H 0.429901 -5.49047 -0.126985
H 0.398198 -7.12315 -0.121391
O -4.8315 11.2805 -2.4983
H -5.47116 10.5244 -2.35982
H -4.80114 11.5178 -3.46926
O 1.88074 -13.8619 6.54349
H 2.29103 -13.6625 7.43339
H 2.10719 -13.1302 5.90056
O 8.04029 7.97406 -8.66068
H 7.60767 8.17727 -7.78229
H 7.37319 7.54442 -9.2693
O 14.772 -3.41518 0.667577
H -14.781 -2.53105 0.263631
H 14.5043 -4.05159 -0.0558456
O 12.7197 -1.46819 14.6723
H 13.0373 -0.621464 14.2455
H 13.408 -2.18283 14.5478
O 7.05935 -11.0964 4.73246
H 6.53606 -11.863 5.1046
H 6.84967 -10.2671 5.25038
O -13.1446 8.82175 5.71045
H -13.9628 8.24689 5.70071
H -12.4652 8.44521 5.08068
O -0.219545 3.94462 -7.06678
H -0.905221 3.53264 -6.46667
H 0.0499982 3.28419 -7.76763
O -6.74766 -14.7364 8.1079
H -7.23063 -14.7769 8.98261
H -6.16533 -13.9237 8.086
O 6.23667 6.24671 13.7498
H 6.14547 7.03185 14.3624
H 7.06104 6.3519 13.1936
O -6.91733 -12.4943 14.2033
H -7.39494 -12.4255 -14.7087
H -7.34116 -13.2098 13.6478
O 7.49243 -5.31854 -7.14661
H 7.2191 -5.77668 -6.30079
H 8.40947 -5.62006 -7.40767
O -1.63833 0.189052 -12.7173
H -2.61971 0.330605 -12.5874
H -1.13022 0.849174 -12.1641
O 7.55393 -8.69241 11.045
H 7.09213 -7.84201 10.7928
H 8.45821 -8.71965 10.6189
O -3.17751 -2.78571 -3.93815
H -2.28683 -3.18846 -3.72723
H -3.86161 -3.13588 -3.2983
O 4.90362 -7.1742 2.24766
H 4.66575 -7.47075 3.17259
H 4.23171 -7.53269 1.59955
O 9.11392 -5.17321 10.8929
H 8.47644 -5.22555 11.6617
H 8.64856 -5.45593 10.0542
O -6.32298 8.92988 -2.1603
H -6.00588 8.32443 -1.43031
H -6.96802 8.43774 -2.74489
O 2.90026 -11.9775 -14.3844
H 2.48073 -12.239 14.5342
H 2.4338 -12.4468 -13.6346
O -5.2595 -12.4139 -3.05981
H -5.10848 -12.5156 -2.07651
H -6.24128 -12.4276 -3.24942
O 4.22326 -3.58995 -6.80382
H 4.8557 -4.16718 -6.28724
H 3.32254 -3.61105 -6.36992
O 4.17969 -9.34594 11.9593
H 3.92789 -8.74597 12.7187
H 4.80718 -10.0524 12.2867
O -5.97269 9.23876 -13.95
H -5.30413 9.43502 -13.2327
H -6.09598 10.0499 -14.5217
O 1.39828 12.252 -8.1424
H 1.06378 11.8478 -8.99374
H 2.28719 11.856 -7.91214
O 9.32397 6.21226 5.1149
H 9.49159 5.69778 4.27392
H 8.37068 6.09469 5.39317
O -7.46531 -9.25587 -3.70661
H -8.38223 -8.88066 -3.57061
H -6.80688 -8.73056 -3.1676
O 0.0204071 1.19229 9.10947
H 0.760494 1.72614 9.51848
H -0.572512 0.83644 9.83186
O 4.68928 12.8181 -10.2714
H 4.0723 13.1667 -10.977
H 5.01802 13.5781 -9.71089
O 4.24026 -14.3732 -8.30802
H 3.25315 -14.4736 -8.18326
H 4.59829 -13.731 -7.63021
O -8.10158 -2.07104 -12.5332
H -7.97431 -2.88557 -13.0992
H -8.20575 -1.26921 -13.1216
O 8.2274 12.8566 -11.1865
H 7.91361 12.8932 -10.2377
H 7.70523 13.5091 -11.7356
O 14.6044 -13.4654 11.8145
H 14.7845 -12.5234 11.5315
H 13.7254 -13.7631 11.442
O -4.39577 -9.53141 -4.85953
H -3.92109 -10.4094 -4.79735
H -5.38131 -9.67865 -4.77562
O 8.6945 -4.44171 7.44718
H 9.23153 -4.77689 6.67306
H 9.06308 -3.564 7.75343
O -7.00759 -12.7592 -9.37828
H -7.75968 -13.3663 -9.63485
H -6.72528 -12.2236 -10.1742
O -12.7481 -11.618 -11.6438
H -13.3538 -12.0323 -12.3232
H -12.1513 -12.3209 -11.2567
O 11.4077 5.38103 -7.9386
H 11.4034 4.43994 -8.27674
H 12.1811 5.50856 -7.3176
O -7.82532 13.0193 -2.73377
H -7.22755 13.0787 -1.93429
H -8.77284 12.9082 -2.43396
O -1.9221 0.715637 14.2219
H -1.46278 0.320988 -14.7702
H -1.43512 1.53894 13.9302
O -7.95017 11.5116 2.24353
H -7.87829 12.5057 2.16149
H -7.3752 11.0775 1.55002
O 0.909962 -13.4638 -0.853791
H 0.170116 -13.3077 -0.199363
H 0.60725 -14.1146 -1.55009
O -11.8416 11.3781 12.6759
H -12.0171 12.296 13.0317
H -10.8554 11.2373 12.5889
O -0.489252 10.7685 -6.67814
H -4.31712e-05 11.4443 -7.2295
H -1.36686 10.5589 -7.10926
O 3.42243 7.84991 -12.6552
H 3.70672 8.38539 -11.8599
H 4.22933 7.57732 -13.1792
O 2.72909 8.69674 -2.79433
H 2.06203 9.21192 -3.3325
H 2.51059 7.72184 -2.83739
O 0.307321 14.7214 -2.91354
H -0.254166 14.8636 -3.72873
H 0.314872 13.7493 -2.6794
O -11.9653 -8.00674 4.8358
H -12.1482 -7.34954 4.1046
H -12.1778 -8.92981 4.51515
O 12.6686 -9.89133 -1.71166
H 12.389 -10.6084 -1.07312
H 13.053 -9.122 -1.20143
O 11.9225 -13.9831 -2.479
H 12.6456 -14.0258 -3.16839
H 12.3327 -13.9216 -1.56905
O -5.19705 -3.53485 -2.18562
H -6.07257 -3.41881 -2.65468
H -5.21476 -4.37975 -1.65097
O -12.9416 -9.07295 -2.52495
H -12.43 -9.78124 -2.03849
H -13.6957 -9.4935 -3.02938
O 9.35683 13.6781 -6.71286
H 10.2279 13.5508 -7.18723
H 9.29973 14.6144 -6.36629
O 4.17895 -5.42801 11.7899
H 3.32405 -5.76607 11.3963
H 4.22334 -5.67976 12.7567
O 1.47996 -3.44506 -5.64443
H 1.20389 -4.29023 -6.10213
H 1.04469 -2.66503 -6.09402
O -12.651 -3.56975 -9.4092
H -12.9189 -3.60363 -10.3721
H -12.671 -4.49278 -9.02497
O 2.5962 10.5936 -13.718
H 2.96555 11.0893 -14.504
H 3.22566 9.86046 -13.4605
O 5.51045 4.82996 -11.6341
H 4.90439 4.13886 -12.0279
H 6.38364 4.82425 -12.1215
O -0.402305 -14.8903 13.6702
H -1.13184 -14.3016 13.322
H 0.307527 14.7985 12.9728
O 7.76 -12.8965 -6.36441
H 8.44318 -12.873 -5.63452
H 7.12719 -13.6541 -6.20443
O -11.8863 -4.90798 -6.2528
H -11.839 -5.05701 -5.26509
H -10.9902 -5.08508 -6.65991
O 5.16519 14.1137 14.0407
H 5.99208 14.2144 13.4874
H 4.56934 -14.8841 13.8963
O -4.99845 -5.21358 0.202082
H -4.35162 -5.0747 0.951978
H -5.5027 -6.06437 0.350107
O -3.97755 3.7138 -1.42248
H -4.1249 3.56497 -0.444646
H -3.24412 4.38126 -1.55125
O -9.17644 -13.753 -3.12095
H -9.67461 -14.361 -2.50271
H -8.35991 -13.4053 -2.66014
O -1.38458 -3.97907 -8.46806
H -2.02785 -3.61452 -7.79476
H -1.71845 -3.78058 -9.38956
O -0.0262766 11.4422 -12.6884
H 0.694313 10.9361 -13.1623
H -0.879697 11.369 -13.2045
O -0.862045 -0.51488 7.22545
H -1.30213 0.012644 6.49877
H -0.418036 0.109275 7.86834
O -1.58414 -14.7964 -4.83615
H -1.17821 -13.9865 -5.25952
H -1.88279 14.3569 -5.54905
O -4.13821 -7.01 -5.93182
H -4.12 -7.98014 -5.68988
H -4.2948 -6.91452 -6.91486
O 9.51623 -5.17239 -2.26738
H 10.0249 -5.81873 -2.83615
H 9.40339 -4.31048 -2.76173
O -10.8548 -9.40678 1.86346
H -10.1515 -8.75583 1.57775
H -10.5515 -9.88476 2.6878
O 5.37663 -11.9351 13.2016
H 4.46033 -12.2992 13.3685
H 6.01426 -12.3178 13.8701
O -4.53631 -9.0193 8.04325
H -4.52776 -9.78721 7.40273
H -4.37504 -9.35696 8.97061
O 12.227 -6.68308 -9.53132
H 11.8111 -7.59063 -9.47279
H 11.735 -6.13392 -10.2069
O -9.17648 -2.45355 9.27976
H -8.35212 -2.06942 8.86395
H -9.30768 -2.05644 10.1881
O 12.3719 -10.1806 2.89204
H 11.5409 -10.7227 2.76678
H 13.1618 -10.7019 2.56906
O -13.9977 -6.79793 12.8099
H -13.231 -6.27058 12.4438
H -14.5264 -6.22594 13.4371
O -9.60108 -4.17932 7.13562
H -9.85168 -3.54973 6.40019
H -9.61688 -3.69391 8.00978
O -3.53164 -2.47661 10.9333
H -3.7346 -2.17617 10.0014
H -2.71454 -2.0051 11.2651
O -14.6639 -13.9681 1.19055
H -14.2976 -13.4145 0.442669
H -14.1348 -14.8129 1.26996
O 6.41626 1.91271 -0.502157
H 6.58234 2.24737 -1.42976
H 5.50365 1.50687 -0.452633
O -12.6634 -11.0164 13.3989
H -12.8332 -10.5455 12.5332
H -12.9763 -10.4439 14.1567
O -9.19489 0.255218 4.61288
H -8.92702 1.14389 4.98507
H -9.44143 0.358056 3.6492
O -11.2003 0.597341 6.77665
H -10.7433 1.19559 7.43485
H -10.5527 -0.0877909 6.44324
O 9.28281 5.35449 -1.7047
H 10.2632 5.44405 -1.52909
H 8.77083 5.8135 -0.978617
O -0.0662503 -12.0091 12.4075
H 0.209805 -11.373 11.687
H -0.911121 -11.6847 12.8329
O -11.6133 9.68455 0.26538
H -11.8995 8.72924 0.339468
H -12.3568 10.2798 0.570235
O 8.44158 -14.0466 5.17252
H 7.60839 -13.9399 5.71512
H 8.23955 -14.584 4.35372
O 12.2216 -11.2775 -5.13893
H 11.2796 -10.9417 -5.13973
H 12.6227 -11.1427 -4.23286
O -9.84246 -8.53987 7.03891
H -10.6073 -8.70337 6.41573
H -9.71375 -9.33942 7.62558
O 2.22912 -8.52899 -6.91827
H 3.10515 -8.931 -7.1847
H 2.37206 -7.58454 -6.62228
O 2.85443 11.5189 11.1878
H 2.16781 10.8492 10.9048
H 2.74872 12.3535 10.6471
O 0.572728 12.1313 -1.94466
H 0.653537 11.5197 -2.73169
H 1.46374 12.2214 -1.49969
O 1.26132 -2.94871 -8.63303
H 1.92233 -2.20783 -8.514
H 0.336333 -2.59612 -8.49124
O -7.81856 13.2575 9.95737
H -8.35058 14.0925 9.81688
H -8.43952 12.483 10.0779
O 7.30389 -11.9648 -13.4545
H 8.04884 -12.6095 -13.283
H 7.43792 -11.1448 -12.898
O -1.81157 -2.55204 -10.899
H -0.888284 -2.92906 -10.9726
H -1.79425 -1.57987 -11.1327
O -4.57595 -10.045 0.559708
H -4.15335 -10.52 -0.212142
H -4.75495 -10.6981 1.29553
O 9.87183 14.0817 -2.83492
H 10.6992 14.6347 -2.93315
H 9.14829 14.6349 -2.42202
O -1.65298 4.68226 -3.16973
H -1.43792 5.24491 -2.37148
H -2.06626 5.2537 -3.87873
O 9.88345 4.88544 -5.63682
H 10.104 5.07217 -6.59418
H 10.3693 4.06444 -5.33689
O 7.165 5.49695 -5.79034
H 7.00716 6.43958 -6.08455
H 8.13474 5.37102 -5.58112
O -9.25337 -1.14002 -4.91363
H -9.50144 -1.43653 -5.83589
H -10.0677 -0.802119 -4.44179
O -7.04576 1.75321 12.3314
H -7.66927 2.51487 12.5079
H -6.9213 1.22316 13.1702
O 7.17228 9.16861 11.9216
H 7.1257 9.49811 12.8646
H 7.5748 8.25329 11.9078
O -11.4512 -6.01076 -0.47797
H -12.3332 -6.46771 -0.362681
H -11.564 -5.02747 -0.335081
O 14.7444 -13.3912 -3.83984
H -14.5476 -13.8558 -3.10622
H 14.3182 -14.071 -4.43671
O 6.6249 8.61616 4.93589
H 5.83115 9.04698 5.36527
H 6.83554 7.7601 5.40792
O 7.13011 -2.56383 -10.0351
H 7.1721 -2.35559 -9.05791
H 6.17672 -2.55651 -10.3368
O 12.6551 9.64509 -2.47267
H 12.1685 9.05257 -1.83069
H 12.085 10.4364 -2.69372
O 5.67537 7.90212 2.3989
H 6.44406 7.80317 1.76696
H 6.01318 8.20626 3.28963
O -12.0109 14.4114 9.72065
H -11.4165 13.7521 9.26007
H -11.8827 14.3414 10.7099
O -3.27018 -2.06927 8.15611
H -3.70704 -2.08229 7.25666
H -2.34005 -1.71232 8.06976
O -13.9069 4.03656 -10.7993
H -14.2851 4.94703 -10.6319
H -12.9973 4.12305 -11.2056
O -1.47459 5.89797 7.13439
H -1.03101 5.17343 7.66193
H -0.89226 6.15232 6.36224
O -1.90569 -4.29758 8.80629
H -0.952964 -3.99461 8.7828
H -2.5063 -3.52504 8.60021
O -6.30764 0.0338975 2.08028
H -6.02824 -0.796446 1.59811
H -6.33175 -0.144041 3.06403
O 4.57921 1.47954 -10.1101
H 4.75689 1.81297 -11.036
H 3.96034 0.695127 -10.1514
O -1.4746 -1.22947 1.68649
H -2.13427 -1.32304 0.940773
H -1.27748 -0.260783 1.83754
O -11.0469 4.48405 -7.66148
H -11.5237 5.13202 -8.25548
H -10.3099 4.95573 -7.1774
O 6.40362 6.0373 5.82993
H 5.80976 5.4211 5.31259
H 6.65222 5.60918 6.6988
O -2.02443 11.2939 10.5084
H -2.43454 12.062 10.0165
H -1.45974 10.759 9.87997
O 11.5108 -1.67916 -1.9187
H 11.0614 -2.09358 -2.71007
H 11.0095 -1.91888 -1.08727
O -8.47318 3.73356 -11.284
H -8.47512 4.01764 -12.2428
H -9.38707 3.41859 -11.0279
O 1.0074 -1.35345 -12.107
H 1.6569 -0.593083 -12.1113
H 0.371747 -1.25316 -12.8724
O 9.70169 1.22131 -6.81593
H 9.84223 1.09041 -5.83453
H 9.32562 0.384262 -7.21335
O -6.11065 -11.8104 -6.86149
H -6.52519 -12.4523 -6.21641
H -6.23496 -12.1484 -7.7944
O 4.095 -11.2436 -4.08959
H 3.60631 -12.0946 -3.89726
H 4.83315 -11.4228 -4.74001
O -11.7752 -6.45773 -10.591
H -12.1636 -7.24472 -11.0705
H -10.7969 -6.60545 -10.4458
O -6.12779 5.82891 4.75747
H -5.97185 6.73019 5.16169
H -5.25044 5.36964 4.61843
O 1.57602 -5.53078 10.8905
H 1.32851 -4.56286 10.847
H 1.6061 -5.90904 9.96531
O 11.4598 13.3782 -8.1347
H 11.7615 12.4249 -8.14186
H 12.1779 13.9522 -7.74119
O 13.6092 -5.99764 6.96807
H 14.4528 -6.5101 7.12817
H 12.8677 -6.40022 7.50484
O -0.544241 -8.67558 -0.140725
H -1.34832 -8.34404 -0.634249
H 0.0603086 -9.15816 -0.774489
O -12.2088 -8.79882 -12.1181
H -12.5562 -8.70811 -13.0514
H -12.2239 -9.76181 -11.8489
O -7.07829 4.04831 -8.88168
H -7.79745 4.55671 -9.35533
H -6.46792 3.62962 -9.55411
O -8.95557 12.6883 14.873
H -9.72388 12.1759 -14.5311
H -8.66982 13.395 -14.2677
O -8.40328 5.09613 -14.4078
H -8.04754 6.03051 -14.4277
H -7.64739 4.45436 -14.2783
O -12.1777 11.3908 6.3146
H -12.9281 11.7051 5.73315
H -12.0747 10.4007 6.21984
O 1.61969 2.10153 -4.311
H 0.892829 1.94212 -3.64296
H 1.23762 2.55123 -5.11836
O -5.60281 -6.46492 8.13677
H -6.58449 -6.34241 7.99076
H -5.41207 -7.42743 8.32966
O -13.3462 13.4616 0.494908
H -14.138 12.8548 0.426252
H -12.7636 13.1651 1.25164
O 9.62611 -10.0423 -5.14282
H 8.62783 -9.98641 -5.12468
H 9.99686 -9.23484 -5.60172
O -14.2751 12.7082 4.95037
H -14.3517 13.6504 4.62391
H 14.6944 12.197 4.68794
O 14.056 3.79933 -13.2505
H 13.4972 3.02644 -13.551
H 14.559 3.54563 -12.4242
O 7.66046 6.64279 0.685615
H 7.41794 5.68133 0.815248
H 8.35248 6.90557 1.35798
O -4.31474 -0.190241 -3.94609
H -3.85395 0.57687 -3.49973
H -3.805 -1.03264 -3.77131
O -2.39096 -13.3259 -7.83683
H -1.58183 -13.1352 -7.28102
H -2.62963 -14.2937 -7.75691
O 0.633175 3.08392 -13.2217
H 0.571369 4.07857 -13.1387
H 0.638916 2.67309 -12.31
O -6.69119 3.25835 -1.88027
H -6.79201 2.78072 -1.0075
H -5.74252 3.55491 -1.9903
O 10.8891 -1.64379 -10.3427
H 10.1079 -1.47922 -9.74047
H 11.5749 -2.18692 -9.85827
O 2.53199 -12.3751 9.04325
H 1.80574 -12.5823 9.6987
H 2.29372 -11.5494 8.53179
O 0.0405937 -4.01637 0.830356
H -0.11985 -3.11811 1.23952
H -0.383697 -4.72183 1.39809
O 11.8744 4.29178 1.64682
H 12.874 4.30604 1.62484
H 11.5417 3.48553 1.15763
O 2.2941 -5.03425 2.97579
H 3.09375 -4.90302 3.56175
H 1.75814 -4.19041 2.94937
O -13.0893 -12.9749 -1.19833
H -13.0271 -12.8248 -2.18505
H -12.2449 -12.6662 -0.760398
O -12.0941 -2.40009 0.172715
H -12.7819 -1.74696 -0.144215
H -12.2216 -2.57049 1.14982
O -12.5946 -6.45645 6.81792
H -12.9201 -5.52875 6.63498
H -12.2607 -6.86602 5.96893
O 5.25847 -11.7722 -6.9295
H 6.17736 -12.103 -7.14449
H 5.05444 -10.9682 -7.48814
O -6.30877 9.75716 0.741623
H -5.98637 8.8752 1.08546
H -6.90289 9.60963 -0.0491202
O -7.23278 -6.16511 -12.779
H -7.0755 -6.20065 -11.792
H -7.50705 -5.23946 -13.0397
O -7.84209 -10.2564 11.3355
H -7.19698 -10.2792 12.0993
H -7.83047 -9.3485 10.9164
O -0.249969 6.5708 -0.975599
H -0.747937 7.20166 -1.57063
H 0.252929 7.09071 -0.285084
O -8.93794 -14.3166 -10.2549
H -9.8216 -13.8943 -10.0529
H -8.97525 -14.7543 -11.1533
O 9.30157 -6.47883 4.12233
H 9.01273 -6.92256 4.97068
H 8.6582 -6.70637 3.39136
O -10.9164 14.4525 -1.77498
H -11.7661 -14.8131 -1.70319
H -11.0657 13.5245 -1.43339
O 5.42116 5.63437 10.9731
H 5.81253 5.93059 11.8443
H 4.54112 6.08776 10.8317
O 14.4946 7.11537 5.77092
H 14.5223 6.67364 6.66764
H 13.5751 7.03221 5.38669
O -12.9373 9.52125 14.8204
H -12.727 10.3529 14.3065
H -12.1338 9.24224 -14.4416
O -11.2293 -13.1311 13.94
H -11.4064 -13.5679 14.822
H -11.8512 -12.3571 13.8206
O -1.00187 -14.3936 0.738405
H -0.404909 -14.8696 1.3842
H -1.8632 -14.1608 1.19002
O 7.35867 -2.74072 11.1721
H 8.03834 -3.46608 11.0629
H 6.76519 -2.71619 10.3676
O 7.47276 4.00389 1.09425
H 7.57843 3.31606 0.376091
H 7.16987 3.56091 1.93808
O 14.7077 1.24101 -12.0601
H 14.0496 0.573574 -11.7115
H -14.764 0.956001 -12.965
O -6.09305 6.75277 14.8025
H -6.39764 6.47931 13.8901
H -5.85559 7.72416 14.7974
O 3.02155 0.0700439 -5.35739
H 2.53547 0.743488 -4.80041
H 2.82558 -0.849068 -5.01556
O 7.60253 -2.13181 -3.81592
H 7.62869 -2.02989 -2.82146
H 7.14425 -1.34024 -4.22017
O 0.959755 -7.99544 3.49672
H 1.87842 -7.75186 3.18567
H 0.588372 -8.71404 2.90876
O 10.3529 -13.5061 -11.276
H 10.7622 -14.4163 -11.3389
H 9.78028 -13.454 -10.4578
O -11.6669 -1.53189 -13.4561
H -11.5308 -0.719778 -12.8887
H -12.0849 -2.25576 -12.9073
O -11.8092 4.66929 -12.3182
H -11.9145 5.53029 -11.8206
H -12.27 4.73721 -13.2032
O -12.0421 0.389307 2.74193
H -12.4053 0.946362 3.48877
H -11.9888 0.941335 1.9098
O 13.9021 3.44474 -6.5294
H 14.1898 4.39787 -6.62324
H 14.2265 2.91964 -7.31619
O 13.4237 -5.34293 4.30944
H 13.6551 -5.64412 5.23452
H 13.2794 -6.1416 3.72519
O 11.5395 9.7507 5.8629
H 10.8625 9.54312 6.56901
H 12.4122 9.97882 6.29463
O -11.846 -9.97099 -6.13597
H -11.0084 -9.5769 -6.51435
H -11.6257 -10.4949 -5.31318
O -14.1634 -0.235648 -14.4562
H -14.2387 -1.19968 -14.2013
H -13.233 -0.0453051 -14.7693
O 7.05186 10.0986 -10.511
H 7.20015 10.7362 -11.267
H 7.7404 9.37426 -10.5459
O -14.8493 -6.86944 -3.38898
H -14.421 -5.99542 -3.61848
H -14.2073 -7.42734 -2.86308
O -8.58421 9.76559 -0.862499
H -8.99272 10.6416 -0.606
H -7.98079 9.8968 -1.64906
O 8.51349 6.76316 12.4246
H 8.78012 6.81772 11.4624
H 9.30734 6.50772 12.9765
O -13.2627 -12.8585 8.79462
H -12.7859 -13.3149 8.04337
H -13.3992 -13.5056 9.54475
O -10.2152 -2.52207 5.04478
H -9.91121 -1.58245 4.88742
H -10.9316 -2.7552 4.38719
O 0.338416 2.09443 -1.8597
H -0.0327676 2.69687 -1.15308
H 1.22636 1.74181 -1.56435
O 13.3447 -3.10556 11.4126
H 13.7778 -3.44356 10.5771
H 13.8919 -2.36037 11.7938
O 7.34446 -9.24686 -1.97091
H 8.26826 -9.21785 -2.35273
H 7.08651 -8.33458 -1.65274
O -10.1329 -8.10431 -3.64903
H -10.6279 -7.26796 -3.88466
H -10.7871 -8.83622 -3.45818
O -3.72154 7.73719 -3.97763
H -4.17919 8.57448 -4.27681
H -2.95547 7.97166 -3.37916
O 12.7083 6.05103 10.468
H 13.2065 6.9129 10.5632
H 12.4924 5.68891 11.3748
O 0.833186 9.31376 13.8885
H 1.17452 9.69869 14.746
H 0.322142 10.0134 13.3892
O 3.44573 -11.9466 5.26837
H 3.55294 -12.3006 4.3393
H 3.17972 -10.9834 5.2294
O 3.94846 -6.30832 -5.69739
H 4.89154 -6.20259 -5.38204
H 3.41628 -6.79023 -5.00128
O 14.0398 -9.44178 -14.6504
H 13.2907 -9.15518 14.5403
H -14.8848 -9.07835 14.7871
O 14.6143 13.448 -9.94218
H -14.7913 13.2895 -10.8525
H 14.043 14.2686 -9.95884
O -6.53147 -3.03552 -10.0731
H -6.70967 -2.51759 -10.9098
H -5.79695 -3.69364 -10.2386
O -5.70656 8.44132 8.42192
H -5.86224 9.23713 9.00712
H -4.94257 7.90649 8.78289
O -5.66932 -2.22901 1.01054
H -6.3958 -2.22965 0.323346
H -5.03618 -2.98098 0.826965
O -3.37429 5.17528 4.55799
H -3.16553 4.47829 3.87196
H -2.53884 5.67176 4.79369
O -0.549047 12.046 -10.1201
H -1.15226 12.8038 -10.3688
H -0.12567 11.6723 -10.9454
O 13.3843 11.6258 3.8106
H 13.1495 11.2374 2.91952
H 12.6009 12.1328 4.17015
O -2.5575 5.25143 10.9033
H -2.24949 5.01002 11.8236
H -2.05519 4.70827 10.2305
O 11.4662 -11.2393 -11.8386
H 10.8676 -12.0195 -11.6571
H 11.8422 -11.3153 -12.7622
O 6.62778 -11.2003 10.8536
H 6.8777 -10.263 10.6109
H 6.0133 -11.1878 11.6424
O -3.75814 8.3931 3.81887
H -4.12336 7.80299 4.53888
H -4.51323 8.84046 3.33956
O -12.421 -6.16573 2.90105
H -12.8357 -5.28469 3.12863
H -12.8366 -6.52375 2.06495
O 12.3664 -8.23962 13.5598
H 12.4513 -8.07288 12.5775
H 11.6483 -7.65432 13.9364
O -8.44984 -0.418757 10.8851
H -8.2901 0.503795 10.5338
H -7.58683 -0.805873 11.2097
O 5.31134 13.7161 0.898141
H 5.69447 12.8304 0.635773
H 5.22931 14.2969 0.088222
O 1.61133 6.83183 -9.01152
H 1.14121 6.67258 -8.14339
H 1.43242 6.06858 -9.63237
O 3.49423 14.8426 2.65279
H 3.61006 -13.9525 2.62081
H 4.10806 14.4139 1.98989
O -6.00008 -1.17339 11.8846
H -5.5707 -1.7882 11.2231
H -5.39277 -1.05194 12.6698
O -0.878199 -0.0981534 -4.50266
H -1.08095 0.87942 -4.55981
H -1.3017 -0.478903 -3.68066
O -8.62623 9.00307 6.37664
H -9.09288 8.4866 5.65864
H -8.15716 9.78784 5.97151
O 8.59332 -7.46786 -9.71849
H 7.68353 -7.09725 -9.53153
H 8.57675 -8.46197 -9.6113
O 7.77382 -3.44288 4.29288
H 7.75583 -3.42552 3.29318
H 8.68491 -3.71193 4.60523
O 2.47367 14.8746 10.87
H 3.17212 14.4811 10.2722
H 1.56848 14.5792 10.5644
O -12.1043 -12.9868 -3.80115
H -12.967 -13.2894 -4.2063
H -11.394 -13.6669 -3.98289
O -9.29429 -3.48152 1.71948
H -10.2012 -3.16049 1.44661
H -8.6439 -3.31174 0.979085
O -5.19051 12.9534 10.6619
H -4.88169 12.2695 10.0009
H -6.16279 13.1391 10.5197
O -0.195125 7.45284 10.8838
H -1.16855 7.57602 10.6907
H 0.244772 7.00385 10.1061
O -7.97506 -2.27754 -0.257652
H -8.74621 -1.64173 -0.224484
H -7.75081 -2.48007 -1.21092
O 0.931749 6.08386 13.3293
H 1.149 6.44387 14.2366
H 0.77116 6.84343 12.699
O 3.53651 8.69312 13.4757
H 4.153 9.46908 13.3421
H 2.58998 9.01576 13.4768
O 14.838 -5.96828 -10.3102
H -14.4063 -5.77572 -9.49321
H 13.8883 -6.13693 -10.0465
O -4.17074 8.23641 -7.30883
H -4.60818 8.86836 -7.94861
H -3.93824 7.38816 -7.78467
O -5.14975 10.0507 -9.35738
H -5.0574 10.8355 -9.97022
H -5.15029 9.20695 -9.8941
O 7.21087 3.15511 13.9516
H 6.78724 2.30946 14.2763
H 6.72137 3.94021 14.3311
O -13.672 5.64453 -5.14615
H -13.4689 4.67892 -4.98381
H -14.6378 5.74645 -5.38465
O 11.5744 -8.49859 -6.46013
H 12.5318 -8.26898 -6.28522
H 11.4669 -8.77437 -7.41533
O 11.2497 14.8759 6.20563
H 10.2694 -14.731 6.28419
H 11.7013 -14.6817 7.06762
O 1.55327 -10.0418 11.0381
H 2.44996 -10.1196 11.4739
H 1.66127 -10.0779 10.0446
O 3.64239 -7.52745 14.0658
H 3.58283 -6.62151 14.485
H 3.13542 -8.18604 14.6219
O -9.37665 -14.4621 9.80898
H -9.39565 -13.8456 10.5961
H -10.1184 -14.2248 9.18173
O -11.9301 -13.3311 3.51893
H -11.6282 -13.3054 4.47194
H -11.4689 -14.0801 3.04328
O -10.8579 14.0666 2.53116
H -10.2373 14.0249 1.74814
H -11.1489 13.1416 2.77547
O 6.7537 -9.37675 -4.96289
H 6.34837 -9.62356 -4.08265
H 6.24888 -9.82605 -5.69999
O -6.96949 11.094 -4.50562
H -7.85294 11.1054 -4.97403
H -7.03137 11.631 -3.66425
O 0.747321 -5.5837 -7.05125
H 0.469157 -6.54375 -7.02063
H 0.134988 -5.07849 -7.65939
O -3.96978 11.6951 8.01114
H -4.10897 11.3024 7.10204
H -4.02712 12.6919 7.956
O -2.36826 8.64908 14.5473
H -1.41888 8.61015 14.8591
H -2.71473 7.72008 14.4173
O 0.273575 10.38 -4.12362
H 1.17792 10.7651 -4.30761
H -0.208324 10.2334 -4.98751
O -12.0507 -2.38843 2.8632
H -12.9713 -2.62363 3.17482
H -11.9036 -1.40511 2.97023
O -14.0948 -6.80956 0.349764
H -13.822 -7.7512 0.547075
H 14.8427 -6.81216 -0.176456
O -6.33643 11.5748 -7.42243
H -5.85661 10.9083 -7.99294
H -6.41686 11.2198 -6.49103
O 0.00281689 -8.20783 -13.003
H 0.653531 -8.76621 -12.4884
H 0.144525 -7.24273 -12.7827
O -13.773 3.54684 -0.141776
H -13.7605 2.95788 -0.949858
H -12.8657 3.55534 0.278546
O -11.6571 -14.111 -13.3251
H -12.2889 -14.7656 -13.7402
H -11.7905 -14.1014 -12.3341
O 13.6238 14.5473 -13.2637
H 13.3285 14.8416 -12.3547
H 14.6189 14.449 -13.2753
O 6.71959 -0.558723 13.0647
H 6.47847 -0.85441 13.9891
H 6.97121 -1.35526 12.5149
O -3.44721 3.74702 14.6698
H -4.16402 4.05557 14.0445
H -2.56842 4.12928 14.3841
O 13.4506 -3.69026 -1.80703
H 13.0577 -2.79282 -1.60634
H 12.9297 -4.39683 -1.32806
O 8.79944 1.72526 -9.96519
H 7.94427 1.86517 -9.46606
H 9.54275 2.19817 -9.49204
O -6.95832 0.710437 14.8423
H -7.47557 0.445212 -14.1319
H -6.89138 -0.0701295 14.2208
O -10.2524 -11.0292 -3.82205
H -9.38036 -11.2143 -3.36891
H -10.9202 -11.7246 -3.5564
O 11.4402 2.01195 -0.0176276
H 10.7351 1.68855 -0.6487
H 12.343 1.85885 -0.419653
O 11.0302 9.98114 -5.53045
H 11.2892 9.2729 -4.87371
H 10.5924 9.55668 -6.32304
O -7.08316 2.67247 1.39382
H -6.97016 1.75171 1.76726
H -7.97082 3.03875 1.67295
O -4.28634 -12.1458 14.8333
H -5.265 -12.2413 14.6513
H -4.15258 -11.7873 -14.0306
O -0.61603 -2.94091 5.17675
H -0.328924 -3.87814 5.37471
H -0.514475 -2.38054 5.99875
O 11.8162 4.93848 -2.26368
H 11.525 4.4415 -3.08116
H 12.7954 4.79688 -2.11861
O 4.32998 -8.15316 4.68416
H 5.21112 -8.45333 5.04955
H 3.9944 -7.37735 5.21852
O 10.4172 0.286991 -12.8563
H 10.9323 -0.154947 -12.1218
H 9.44758 0.0593025 -12.767
O -8.3213 -6.4212 7.75319
H -8.63398 -5.6047 7.26782
H -8.97523 -7.16431 7.61112
O 7.56616 14.7218 2.39357
H 6.78678 14.3764 1.87083
H 8.21826 13.9798 2.54928
O -1.87381 -9.87458 4.12602
H -1.35547 -9.44175 4.86358
H -2.44312 -9.18919 3.67198
O -12.7581 -3.81883 -12.5391
H -13.7205 -3.55647 -12.4685
H -12.6738 -4.80932 -12.4303
O 10.5956 2.79199 10.6283
H 9.71146 2.32494 10.6182
H 11.1141 2.54173 9.81061
O -6.55314 -1.75384 8.0561
H -6.8979 -2.25298 7.2611
H -5.94873 -2.3483 8.58649
O -13.915 12.4537 -12.3902
H -14.42 11.6597 -12.7288
H -13.6196 13.0152 -13.1632
O -12.1822 -3.18152 8.70839
H -12.0161 -3.6273 7.82879
H -11.3178 -2.84036 9.0777
O 14.4481 6.8663 -9.24953
H 13.7262 7.25483 -9.82218
H -14.5136 7.42378 -9.33078
O 0.834448 -9.89876 -4.49089
H 0.729442 -10.5692 -5.22537
H 0.0314871 -9.30323 -4.46591
O -14.6001 10.7236 12.2274
H -14.6795 9.84925 12.7062
H -13.6341 10.962 12.1268
O 5.91441 -6.70319 -8.79303
H 4.97086 -6.50744 -9.06025
H 6.1762 -6.10748 -8.03367
O -5.02193 13.9869 1.69332
H -4.57941 13.1411 1.99142
H -4.33596 14.7094 1.60666
O 10.9857 12.4969 5.03418
H 11.2124 11.8194 5.73394
H 11.2532 13.4066 5.35183
O -7.86069 -4.16882 -7.89583
H -7.2211 -4.38952 -7.15946
H -7.34951 -3.95251 -8.72765
O -13.523 -9.36322 1.45259
H -12.6047 -9.38671 1.84776
H -14.1288 -9.95765 1.98147
O 13.4307 -13.7551 -10.7322
H 12.685 -13.2239 -11.1343
H 14.1994 -13.1489 -10.5281
O -12.1044 9.2294 -3.19158
H -11.6443 8.34281 -3.14363
H -12.9884 9.17174 -2.72754
O -13.5688 4.94207 -14.5187
H -13.9122 5.60796 14.6068
H -14.3235 4.36747 -14.2019
O 4.74894 -9.31363 -7.79135
H 4.73093 -9.7634 -8.68433
H 5.3358 -8.50523 -7.83709
O 14.1362 7.26512 2.47258
H 14.1548 7.38359 3.46538
H 13.5558 6.48446 2.24089
O -3.32975 -1.1061 -0.638137
H -3.76324 -1.7781 -1.23857
H -3.09237 -0.291005 -1.16662
O -6.07717 -10.0065 13.3224
H -5.07823 -9.97144 13.2921
H -6.36682 -10.6405 14.0395
O 14.741 -10.0396 -9.77301
H -14.8683 -9.42793 -9.00225
H -14.1836 -10.2711 -10.2217
O -13.4129 2.90034 7.93219
H -13.5744 2.10626 8.51818
H -14.2602 3.4231 7.83828
O -8.16127 8.39996 -12.5661
H -7.43748 8.696 -13.1894
H -7.99258 7.45551 -12.284
O 0.150679 -8.10173 -8.96608
H 0.410459 -8.48811 -8.08107
H 0.639696 -8.58046 -9.69526
O 11.6076 0.403549 2.09552
H 11.4937 1.0228 1.31863
H 10.72 0.244306 2.52783
O -7.71381 14.7882 2.09842
H -6.73148 14.6207 2.0148
H -7.86478 -14.1015 2.51151
O -13.4505 -10.835 6.88642
H -13.2182 -11.5558 7.53947
H -13.7055 -10.0051 7.38272
O -14.1282 -8.50888 8.40605
H -13.4685 -7.97094 7.88125
H -14.5286 -7.93809 9.12289
O 4.85226 -2.46377 -12.2256
H 4.15324 -1.77309 -12.411
H 4.41243 -3.34496 -12.0522
O -8.63385 0.632352 -12.7268
H -8.1209 0.955477 -11.9315
H -9.09207 1.40588 -13.1646
O -5.71898 14.0785 5.69361
H -5.39179 13.162 5.46367
H -5.8277 14.1547 6.68477
O -5.97802 -10.9285 -11.1673
H -5.1934 -11.3189 -11.649
H -5.72026 -10.0483 -10.7687
O -7.97699 0.45173 7.75161
H -7.35512 1.01552 7.20807
H -7.57639 -0.455131 7.88254
O 0.678338 9.93754 10.65
H 0.619151 8.97962 10.9309
H 0.619368 9.99691 9.65348
O 10.2254 -13.0701 12.471
H 9.8394 -12.3611 13.0612
H 10.0927 -13.9658 12.8955
O 2.17741 -11.1165 -6.92283
H 2.04137 -10.1262 -6.89184
H 3.15588 -11.3171 -6.97121
O 6.28181 3.04938 3.53455
H 6.92296 3.03407 4.30182
H 5.55432 3.70964 3.72121
O -1.30239 -7.6298 -5.4526
H -0.77694 -7.06506 -4.81621
H -2.16477 -7.17259 -5.67006
O 8.38298 1.13799 11.602
H 8.86847 1.44863 12.4193
H 7.7176 0.436088 11.8563
O -13.6052 -1.24375 5.57974
H -13.1934 -0.333179 5.54426
H -14.5937 -1.1678 5.44886
O 1.67978 -13.3878 -12.5477
H 1.6676 -12.8477 -11.7061
H 0.845292 -13.936 -12.6041
O -1.43257 -6.69835 13.7824
H -0.803354 -7.12172 13.1306
H -1.92642 -7.41136 14.2801
O -10.1445 -8.87845 13.9736
H -9.26688 -8.67928 14.4097
H -9.98545 -9.3257 13.0935
O 11.6218 2.21141 -14.6339
H 11.1636 1.6509 -13.944
H 10.939 2.61331 14.5439
O 8.48822 -13.2775 -1.94147
H 7.51948 -13.1389 -1.73568
H 8.92251 -12.3931 -2.1126
O 3.24577 4.66924 14.8449
H 2.34971 4.99266 -14.6388
H 3.63248 5.32232 14.1938
O 0.734933 0.547405 -8.72169
H 0.0469853 0.0697678 -8.17523
H 1.62456 0.10852 -8.5953
O -9.13493 7.12155 0.159722
H -9.99761 6.84608 0.583893
H -9.18802 8.08315 -0.109597
O 9.29157 0.0664926 3.47005
H 9.92781 0.575153 4.05012
H 8.50131 -0.218796 4.01239
O 0.830846 -4.2091 8.20702
H 1.04501 -3.34041 8.65372
H 1.5844 -4.85117 8.34817
O -11.9871 0.647466 -11.8534
H -12.9755 0.691337 -11.7077
H -11.5692 1.50924 -11.5658
O -1.36422 3.64562 8.91194
H -0.949545 2.79799 9.243
H -1.67574 3.51864 7.97021
O 12.8143 6.51738 0.177876
H 12.1246 7.21426 -0.0187867
H 12.5824 5.67317 -0.305407
O -4.20732 -10.9951 5.90108
H -4.65267 -10.2552 5.39688
H -4.4678 -11.8743 5.50205
O -9.37441 8.15971 8.89974
H -9.01561 8.16424 7.96632
H -10.2091 7.61002 8.93331
O 3.14396 -7.93812 0.076264
H 3.20923 -8.64316 -0.629901
H 2.42413 -7.28807 -0.167275
O 11.5688 12.8433 -14.5388
H 11.754 13.3257 -13.6826
H 12.3857 12.8621 14.6725
O 10.6721 1.7534 5.3692
H 11.0902 1.54993 6.25452
H 11.2111 2.45204 4.89869
O -9.97489 8.34601 -5.27315
H -10.7742 8.30368 -4.67374
H -10.2017 8.86904 -6.09475
O 14.4098 1.08061 2.14893
H 13.4639 0.857866 2.38515
H 14.5904 2.03995 2.36584
O -9.89744 -12.4913 11.6841
H -9.88251 -11.5147 11.4693
H -10.1801 -12.6191 12.6348
O 7.40535 14.0221 12.328
H 7.37266 13.4561 11.5043
H 8.35218 14.1032 12.6394
O -12.0292 13.9425 -4.89291
H -12.5516 14.056 -4.04776
H -11.5058 13.0915 -4.8495
O -7.16189 5.63594 12.4539
H -7.59663 6.34965 11.9046
H -7.86419 5.03583 12.8368
O -2.50773 1.47923 -2.43515
H -1.59452 1.79946 -2.18312
H -3.18792 2.1556 -2.15252
O -9.44003 8.62963 -9.18708
H -8.62497 8.49721 -8.62303
H -9.69779 7.76067 -9.60956
O 0.758991 4.22038 2.91865
H 0.288993 5.04171 3.24196
H 0.549683 4.07546 1.95158
O -5.48346 -9.14903 3.90919
H -4.58722 -8.76132 3.69364
H -6.15343 -8.41172 3.99605
O 7.61777 -6.90957 2.06269
H 6.64294 -7.06748 2.22015
H 7.96275 -7.58173 1.40755
O -5.73041 -3.7783 13.7086
H -6.24274 -3.29672 12.9975
H -6.34354 -4.0056 14.4652
O 10.9435 9.82257 -12.2161
H 10.3117 10.5532 -12.475
H 11.3924 9.46441 -13.0348
O 12.014 -9.36857 -9.08466
H 11.3666 -9.71396 -9.76401
H 12.9217 -9.29306 -9.49748
O -0.523682 4.11284 0.243256
H -0.522389 5.05164 -0.101233
H -1.39088 3.92878 0.705969
O -3.87901 2.17591 -6.1372
H -4.4609 2.98813 -6.17877
H -4.43673 1.35857 -6.28185
O 2.55752 -0.955663 -1.36747
H 2.57532 -1.34088 -2.29013
H 2.89896 -0.0160668 -1.39191
O -9.21416 -10.7292 8.73869
H -8.54767 -10.7304 9.48422
H -10.1335 -10.8496 9.11329
O 4.87112 -10.9846 -10.0989
H 5.55133 -11.6475 -9.78589
H 4.28878 -11.4073 -10.7933
O 7.69122 12.8192 -8.55152
H 8.22239 13.0926 -7.74956
H 7.1772 11.9871 -8.34303