2593
Atoms. Timestep: 1000000
O -7.67075 1.76278 -13.9794
H -8.00299 0.918057 -13.5598
H -6.80009 1.58678 -14.4387
O 12.5861 0.232864 -8.43565
H 13.0929 0.607347 -7.65919
H 12.1395 0.977074 -8.93236
O 0.250159 7.49327 2.0651
H -0.425878 8.09406 1.63848
H 0.935892 7.22863 1.38707
O -12.3508 5.08825 3.0749
H -12.7207 4.23101 2.71671
H -12.8062 5.31372 3.93614
O -6.95059 8.77432 -5.96615
H -7.91252 8.52304 -5.85873
H -6.88099 9.58706 -6.54461
O 8.66518 10.3637 -4.4971
H 8.51156 10.1991 -5.47142
H 7.82584 10.1686 -3.98972
O -4.46689 5.67015 10.83
H -4.38871 5.30098 9.90398
H -5.43269 5.74897 11.077
O -10.2838 7.7795 8.15673
H -11.0141 7.36787 8.70192
H -10.0895 7.19812 7.36663
O 2.37632 0.6757 9.54017
H 2.70155 1.60668 9.70594
H 3.15908 0.0588054 9.45827
O 3.65389 8.30079 3.15149
H 4.24773 8.46979 3.93811
H 3.47976 7.31945 3.07005
O 13.5698 1.535 -6.30155
H 12.8224 1.86583 -5.72543
H 14.2886 2.22883 -6.34608
O 4.27358 -8.75431 12.6312
H 4.35597 -8.88505 11.6432
H 3.35066 -8.43729 12.8497
O 0.820657 6.58183 4.51861
H 0.531456 6.9878 3.6517
H 1.76219 6.25519 4.43604
O -8.39951 10.8306 -1.31861
H -7.94366 11.4532 -0.682582
H -7.95823 10.8871 -2.2142
O -14.0991 -7.81464 -11.6127
H -14.7254 -7.70951 -12.3851
H -14.5226 -7.44179 -10.7871
O -1.22155 6.84853 11.2078
H -1.56928 5.92449 11.3666
H -0.385601 6.80069 10.6611
O 8.80705 -10.7846 8.92563
H 9.75806 -10.9373 9.19443
H 8.71346 -10.9209 7.93939
O 1.57252 0.320707 -12.2102
H 2.54662 0.118142 -12.1098
H 1.4601 1.16899 -12.7277
O -5.57577 0.875422 14.5924
H -5.79031 0.887321 13.6157
H -4.58966 0.983642 14.7183
O 6.28451 -8.36391 -13.9573
H 7.01804 -8.17511 -13.3044
H 6.54475 -9.13615 -14.5369
O 7.43252 -10.3178 -8.62128
H 7.86727 -9.52772 -8.1891
H 6.77881 -10.7278 -7.98529
O 14.7559 -1.155 -5.5661
H 14.1603 -0.514376 -6.05076
H -14.0936 -0.943953 -5.77327
O -4.12793 -7.28189 -3.65176
H -4.71457 -7.72342 -4.33066
H -4.47093 -6.36176 -3.46283
O 14.4097 -3.74402 -7.87009
H 14.0785 -4.17296 -8.71051
H -14.5324 -3.27267 -8.05397
O 2.70095 -3.14591 12.9069
H 3.14364 -2.99996 13.7916
H 3.31068 -2.84192 12.1749
O -1.88242 -12.2711 4.56891
H -1.62255 -11.3202 4.40087
H -1.97146 -12.7515 3.69639
O -1.90008 2.21189 7.98222
H -1.07985 1.6988 8.2351
H -2.69971 1.79728 8.4166
O 4.91062 -5.15111 6.90863
H 5.7622 -4.62771 6.87951
H 4.94724 -5.88523 6.23061
O -11.4259 -8.40239 14.3757
H -11.3259 -8.7842 -14.5102
H -10.5676 -7.97031 14.099
O 13.4749 -9.5002 -4.76134
H 14.2935 -9.23277 -4.25311
H 12.8938 -10.0708 -4.18099
O 9.03389 -6.35711 8.60339
H 9.37717 -6.91998 9.35527
H 8.27698 -5.79083 8.92959
O -14.8343 10.6697 13.2444
H 14.5096 10.095 13.9207
H 14.2887 11.1849 12.725
O -11.7457 -5.10415 -7.79358
H -11.6585 -4.62799 -6.91857
H -12.0419 -4.45775 -8.49674
O 9.32846 12.4659 -12.8793
H 9.06085 12.5867 -11.9234
H 10.2468 12.0723 -12.9211
O -11.1412 -8.20903 -1.35717
H -10.754 -8.82802 -2.0405
H -11.0439 -7.26425 -1.67009
O -14.7593 -7.11725 -0.951436
H -14.7103 -6.9947 -1.94268
H -14.0116 -7.70962 -0.651434
O -11.4637 11.6716 -6.23712
H -11.0599 11.5917 -5.32579
H -12.2404 12.3007 -6.20353
O -8.99671 10.8506 -8.15079
H -9.16548 11.8321 -8.06033
H -9.13158 10.4062 -7.26518
O 2.94114 -4.2931 -9.06883
H 3.71024 -4.93061 -9.02352
H 3.03553 -3.71397 -9.87857
O 8.11126 -12.7816 -4.91031
H 7.17968 -13.0762 -5.12329
H 8.18173 -11.7906 -5.02438
O -6.61913 -12.7353 -1.8306
H -6.03777 -12.358 -2.55146
H -6.29783 -12.4127 -0.940263
O 10.2657 -1.13998 -8.31341
H 10.1805 -1.57878 -9.20795
H 11.1282 -0.6359 -8.27017
O -3.57264 -12.0363 -9.81174
H -3.4629 -13.0151 -9.63888
H -2.81475 -11.5367 -9.39219
O 7.18384 13.2047 11.5155
H 7.06558 14.0987 11.0834
H 6.28981 12.838 11.7729
O -10.5778 2.24776 2.5528
H -11.5689 2.37525 2.51288
H -10.3545 1.29906 2.32898
O 3.85745 12.2564 -3.46331
H 4.74437 11.8349 -3.27446
H 3.98242 13.2339 -3.63321
O 8.85851 6.11262 14.5774
H 9.24235 5.59047 -14.4657
H 8.44032 6.95155 -14.879
O 0.0791671 -3.82435 12.729
H 1.02703 -3.55456 12.8986
H -0.0958973 -4.71222 13.1545
O 4.44115 -7.97412 5.27113
H 5.27674 -8.44553 4.98907
H 3.89376 -8.58168 5.84664
O -0.512539 12.356 -14.0895
H -0.740388 11.863 14.8755
H -1.29777 12.9039 -13.8011
O 2.69131 9.15683 -9.53371
H 2.83198 9.18813 -8.54415
H 2.21688 8.31064 -9.77633
O 6.26677 -1.03335 -7.24703
H 5.48835 -0.818526 -7.83686
H 6.86149 -0.232648 -7.17518
O 14.7906 -6.35581 11.7407
H 13.8292 -6.48651 11.4984
H -14.4743 -7.11941 11.3865
O -5.37475 2.43563 -7.76905
H -5.71816 1.63227 -8.25555
H -6.13814 2.91406 -7.33509
O -2.02529 -14.6406 11.6653
H -2.1425 -14.0491 10.8676
H -2.31832 -14.153 12.4877
O -10.6528 4.26972 -0.655239
H -10.3578 3.3216 -0.536813
H -11.4635 4.29596 -1.24011
O -11.1233 10.6586 1.65426
H -10.3776 10.7996 2.30552
H -10.8471 9.98075 0.972973
O -3.18483 -9.05737 14.0448
H -2.81819 -9.51927 13.2372
H -3.27024 -8.07853 13.8589
O -11.7348 4.66706 8.32161
H -10.7878 4.55715 8.62334
H -12.2426 3.82513 8.50406
O -7.7064 1.74583 9.40482
H -7.99215 2.10261 8.51541
H -8.41036 1.9463 10.0862
O 12.3229 0.426841 -3.4239
H 13.0022 1.108 -3.15084
H 12.6772 -0.108542 -4.19057
O -4.88156 -9.23414 -7.45871
H -5.42679 -9.95949 -7.87893
H -5.27592 -8.3446 -7.68932
O 7.24535 9.64569 7.01084
H 7.07354 10.3932 7.65245
H 7.17332 9.98749 6.07384
O 1.48839 -11.2579 -11.5309
H 0.871821 -11.557 -12.2592
H 1.32313 -11.8034 -10.7093
O -0.739804 -9.95805 3.46075
H -0.0518243 -9.26371 3.24965
H -1.12413 -10.316 2.60978
O -9.88379 13.3445 -7.9418
H -10.3143 13.0814 -7.07845
H -10.4761 13.9876 -8.42723
O -9.54134 8.81213 -6.11035
H -9.93881 9.26545 -5.31253
H -10.1799 8.12432 -6.45546
O -13.488 -9.83113 12.7817
H -12.5906 -9.43597 12.9777
H -14.0767 -9.73578 13.5844
O 3.9024 -1.39294 -14.6879
H 4.52963 -2.1507 -14.5081
H 2.97415 -1.65996 -14.429
O -11.965 -3.06671 -9.55632
H -11.9043 -3.63595 -10.3762
H -12.4036 -2.19778 -9.78551
O -8.75851 -2.35703 14.166
H -8.36234 -1.83677 13.4094
H -9.23454 -3.15923 13.8056
O 8.37567 -6.18648 3.08257
H 7.98893 -5.31175 2.79058
H 9.16276 -6.02117 3.67683
O -10.4649 -4.33962 -0.771059
H -9.65089 -4.81545 -1.10411
H -11.1612 -4.32788 -1.48877
O 3.96119 1.93501 -7.32545
H 3.6729 1.48831 -8.17241
H 4.20725 2.88518 -7.51681
O -9.83141 6.44595 -3.03099
H -9.68733 6.41126 -2.04204
H -10.1458 7.35916 -3.29019
O 5.97289 -14.0666 -6.45896
H 6.41124 14.8935 -6.76651
H 5.34526 -13.7403 -7.16578
O 12.1306 14.5339 -5.98888
H 11.1315 14.563 -5.95975
H 12.457 13.7534 -5.4557
O -9.66837 14.7657 4.81575
H -9.02379 14.0135 4.67891
H -9.50526 -14.6185 5.70823
O 8.71181 2.36238 -13.567
H 9.24669 3.2034 -13.486
H 8.61654 1.93979 -12.6657
O 1.64696 -2.24457 7.817
H 2.62933 -2.26416 8.00289
H 1.14541 -2.47921 8.64969
O 0.651815 6.0921 -5.57476
H 0.426786 5.45807 -4.83493
H 0.0936288 5.87994 -6.37688
O -9.70433 4.02177 4.64417
H -10.0095 3.57777 3.80171
H -8.7057 4.07352 4.65078
O -3.62676 4.57993 -6.77003
H -4.15797 5.38018 -6.49181
H -4.24098 3.80224 -6.90391
O 9.52126 11.4525 12.2936
H 8.92931 12.2547 12.3712
H 9.98134 11.292 13.1669
O -5.3552 -9.8525 -14.2787
H -5.09725 -10.5602 -13.621
H -4.59128 -9.68132 -14.9009
O -11.493 -5.81521 -2.98957
H -11.1057 -6.33996 -3.74763
H -12.4908 -5.82134 -3.05538
O 12.2764 -4.54145 -6.60999
H 13.1384 -4.19761 -6.98236
H 11.5288 -4.31159 -7.23318
O -9.48235 4.31529 12.2376
H -9.43959 3.31625 12.2284
H -10.3148 4.60891 12.7075
O 6.27418 11.6806 -1.90046
H 6.50032 10.9684 -2.565
H 6.34554 11.308 -0.97524
O -8.44437 -5.73392 10.4157
H -8.97771 -4.97519 10.0418
H -7.87977 -5.40355 11.1721
O 2.23249 7.87378 0.157302
H 2.78279 8.36529 0.832266
H 2.462 8.19862 -0.76019
O -0.523245 1.52153 -7.39954
H -0.892427 2.07418 -6.65236
H -0.901752 0.597316 -7.34905
O 5.49021 -10.5668 -6.76961
H 5.50217 -10.4828 -5.77322
H 5.2791 -9.67805 -7.17648
O -1.74912 -0.284546 2.11989
H -1.3294 0.60076 2.32003
H -1.73672 -0.443756 1.13273
O -9.95767 10.7677 -13.6082
H -10.4961 10.7732 -12.7655
H -9.02651 11.0742 -13.4109
O 7.96369 1.45914 8.23724
H 7.93562 0.609476 7.71066
H 8.79688 1.48148 8.78976
O 3.15417 -4.0772 -4.10116
H 3.96791 -3.86176 -4.64098
H 2.43452 -4.4196 -4.70519
O -9.59428 2.4892 7.05904
H -9.77197 2.84553 6.14174
H -9.67386 3.2303 7.7257
O -2.62719 -11.1912 1.60977
H -2.13859 -12.0332 1.38123
H -3.06991 -10.8296 0.789272
O 5.06451 -12.0244 6.70241
H 4.61977 -12.849 7.05198
H 5.6551 -11.6383 7.41103
O -8.40189 4.41652 -13.197
H -8.44933 3.54327 -13.6819
H -8.07663 5.12704 -13.821
O 6.04949 7.69836 -0.126996
H 5.68096 7.00624 -0.747587
H 6.42218 7.25202 0.686559
O 2.42466 -2.79941 -1.70946
H 2.60968 -3.33785 -2.53155
H 3.16355 -2.93442 -1.0493
O -11.6761 -4.99223 -14.2859
H -11.0045 -4.49925 -14.839
H -12.3051 -5.48561 -14.8867
O -13.3739 7.19405 1.24189
H -13.4148 7.97798 1.86138
H -12.9588 6.41684 1.71474
O -4.90963 6.8051 6.6564
H -4.08362 7.05218 7.163
H -4.74124 5.97137 6.13054
O -8.45098 -10.0328 -8.68164
H -8.73187 -10.3691 -9.58051
H -7.60111 -10.4831 -8.40792
O 13.0083 12.0051 11.0642
H 13.2123 11.4444 10.2617
H 12.0305 11.953 11.2674
O 4.62405 12.6964 7.21085
H 5.21905 12.05 7.68842
H 3.92154 13.0299 7.83955
O -8.23192 -13.7797 -5.22876
H -8.44206 -13.643 -4.2607
H -8.65191 -13.0493 -5.76736
O 4.37328 -13.5058 12.1849
H 5.30416 -13.3965 12.5334
H 4.40457 -13.6872 11.202
O 7.27285 10.1025 10.9981
H 6.59973 9.81631 11.68
H 8.04574 10.5413 11.4564
O -1.33759 -3.61661 6.06554
H -1.51152 -2.71742 6.46703
H -0.730899 -3.51775 5.27678
O -14.1715 14.4137 8.85127
H -14.0629 14.7804 9.77525
H -13.3132 14.5173 8.34862
O -7.20484 -1.03886 12.47
H -7.40876 -0.0603528 12.4395
H -6.23265 -1.17086 12.6634
O -3.3085 -8.32078 9.34737
H -3.98299 -7.58353 9.30835
H -2.9285 -8.47351 8.43508
O 4.54175 -8.17581 -11.6087
H 4.45352 -8.35341 -12.5888
H 5.48104 -8.36069 -11.3197
O -4.40976 3.98171 8.55012
H -4.32156 4.50908 7.70508
H -4.40358 3.005 8.33567
O 0.703161 7.43785 -12.7194
H 1.15536 7.15086 -11.875
H 0.606258 8.43312 -12.724
O 8.91983 1.7517 -0.650008
H 8.62924 2.2581 -1.46186
H 8.23596 1.05661 -0.428243
O 8.93853 -12.1237 14.5933
H 9.76089 -11.9105 -14.6839
H 9.14119 -12.0523 13.6167
O 10.2325 9.54171 9.83869
H 9.98105 10.032 10.6732
H 11.1679 9.78249 9.57964
O -4.85847 7.44847 -8.95195
H -5.01301 8.43562 -8.99245
H -4.03464 7.21854 -9.47004
O 14.4713 -10.1722 -14.8983
H 14.4806 -10.7166 -14.0594
H 13.7955 -10.5484 14.2725
O 11.1005 4.24083 -3.10092
H 11.4316 3.38486 -3.49801
H 11.1673 4.97136 -3.78051
O 12.7878 -12.941 -4.02798
H 12.6382 -13.8465 -4.42496
H 11.9666 -12.6533 -3.53518
O 14.8032 13.8736 4.27793
H 14.1632 13.2122 3.88698
H -14.1012 13.4493 4.37453
O 9.77408 -13.1361 11.1356
H 10.2401 -12.5872 10.4416
H 10.2796 -13.9862 11.283
O 1.27955 -11.1656 -7.4731
H 1.95578 -11.8715 -7.68376
H 1.46671 -10.7843 -6.56781
O -6.43246 -0.265741 -8.77959
H -6.77552 0.10858 -9.6411
H -7.16695 -0.267509 -8.10099
O -5.71253 13.861 -12.6385
H -5.60563 13.3519 -11.7844
H -6.66662 13.8181 -12.9349
O -11.7753 5.67975 13.4851
H -12.2069 6.50775 13.1271
H -11.8327 5.67891 14.4834
O -10.2472 8.99543 -0.374021
H -9.63769 9.69201 -0.752567
H -9.86065 8.0883 -0.540434
O 12.0886 -14.1054 14.7257
H 11.2662 -14.3496 -14.5652
H 12.8641 -14.6376 -14.7395
O -11.1873 -7.24311 -5.20769
H -12.0337 -7.50714 -5.67028
H -10.489 -7.94106 -5.36643
O -3.62381 -0.139052 11.023
H -4.55041 0.1277 11.288
H -3.05035 -0.207663 11.8393
O -8.06709 0.905522 -6.096
H -7.54951 1.58022 -5.56981
H -7.92702 -0.00297791 -5.7023
O -9.80202 -3.50244 10.2201
H -10.7254 -3.17949 10.4278
H -9.15971 -2.73859 10.2831
O 14.7112 3.69396 3.18655
H 14.1249 3.62648 2.37928
H -14.4756 2.90833 3.2163
O -13.6459 2.10995 13.5054
H -14.4749 1.55139 13.4774
H -13.7379 2.87523 12.8683
O 4.11878 14.0311 0.0634715
H 4.03056 13.0957 -0.278755
H 5.05161 14.1793 0.391893
O -4.33223 3.93534 -14.4099
H -3.70362 3.1675 -14.5335
H -4.5995 3.99594 -13.4482
O -14.4364 -1.20492 14.4756
H -14.7736 -2.0103 -14.8416
H 14.6566 -0.502575 14.4601
O 2.17963 -14.0681 -12.9615
H 1.95765 -14.6333 -13.756
H 1.33696 -13.8168 -12.4853
O -0.375885 -4.64208 -8.0241
H -0.992299 -5.42719 -7.96381
H 0.532556 -4.90589 -7.69987
O -3.4314 -3.7336 -14.4481
H -2.61478 -3.86935 -13.8872
H -4.01446 -3.0397 -14.0256
O -2.49583 -13.3856 -2.47967
H -2.60837 -13.9465 -1.65949
H -3.38819 -13.0445 -2.77523
O 4.17466 -12.3876 -14.3629
H 3.88848 -11.4417 -14.2103
H 3.50503 -13.0084 -13.9551
O 5.12911 -4.79636 2.1064
H 4.80685 -4.82268 1.16012
H 4.62894 -5.47219 2.64776
O 1.31622 -8.63269 14.1464
H 0.78308 -9.47759 14.1029
H 0.74161 -7.86152 13.8723
O 11.9042 -8.84467 -7.09889
H 11.4721 -9.73111 -7.26463
H 12.3861 -8.86737 -6.22297
O -0.949793 8.43197 -0.169071
H -0.11734 8.78318 -0.597629
H -1.17318 7.5381 -0.557776
O -5.9836 1.19399 11.7041
H -5.63134 2.07325 12.0247
H -6.4026 1.3111 10.8037
O -3.08315 -5.5575 5.30073
H -2.4614 -4.81271 5.54304
H -3.84076 -5.19581 4.75742
O -14.6724 -1.3994 11.716
H -14.4898 -1.34246 12.6975
H 14.2181 -1.04147 11.5258
O -8.33161 -11.9761 -13.9548
H -8.33568 -11.396 -13.1402
H -7.39836 -12.2837 -14.1402
O -3.29727 -10.3347 -5.34698
H -2.51008 -9.83951 -4.9794
H -3.71268 -9.80074 -6.0834
O 12.8776 3.6516 -13.4673
H 13.6535 4.13832 -13.8688
H 12.655 2.85637 -14.0313
O -11.0229 -8.81446 10.9584
H -10.8538 -9.1335 10.0259
H -10.7578 -9.52725 11.6078
O -12.0998 -0.209969 -2.69166
H -12.8784 -0.77731 -2.95979
H -12.1064 -0.0820931 -1.6999
O -7.13274 6.21459 11.6735
H -7.42277 5.32098 12.016
H -6.78774 6.76661 12.4326
O -1.86887 -0.929923 6.8425
H -2.74237 -0.933518 6.3557
H -2.01132 -1.23217 7.78502
O 13.4274 -13.0196 -10.4068
H 13.197 -13.8609 -9.91791
H 12.6932 -12.7945 -11.0473
O 3.75296 4.60466 0.219296
H 4.10462 3.76952 -0.203613
H 3.82451 5.36237 -0.429361
O -12.442 13.2333 -12.5721
H -11.475 12.9895 -12.6461
H -12.9811 12.6443 -13.1741
O -12.1551 14.8764 6.89429
H -11.16 -14.8383 6.85384
H -12.5279 14.8779 5.96638
O -12.3386 -1.22367 -6.07283
H -11.9611 -2.13088 -5.88731
H -12.2531 -0.653584 -5.25571
O 0.568779 13.1605 -6.09666
H 0.67214 14.1128 -5.80974
H 0.661015 12.561 -5.30164
O -14.8511 5.25878 5.15906
H 14.6111 4.58974 4.49948
H -14.4002 4.78213 5.9137
O 12.6591 -5.81162 4.26156
H 12.0875 -5.23446 3.67832
H 13.1358 -5.24115 4.93037
O -6.64299 0.576795 -1.04261
H -6.73333 1.5695 -1.12236
H -7.32598 0.132319 -1.62223
O -6.09478 -6.66222 12.8182
H -6.14618 -7.58709 12.4414
H -6.32052 -6.68606 13.7921
O -13.1077 1.91865 3.44503
H -12.7151 1.25479 2.80849
H -13.0822 1.54625 4.37274
O -0.347791 -13.6264 -4.05186
H -1.00767 -13.3766 -3.34324
H -0.725788 -13.4075 -4.9514
O 9.68702 4.48632 5.74609
H 10.2414 5.21149 5.33771
H 9.30493 4.8069 6.61282
O 4.77417 0.0781324 -12.4008
H 4.7031 -0.350307 -13.3015
H 5.3099 0.919408 -12.4732
O 9.6989 -14.8299 -9.15482
H 9.91608 -13.8839 -9.39526
H 9.66853 14.8824 -8.15956
O 6.80636 2.21991 -9.4912
H 5.82368 2.19869 -9.67524
H 7.01559 1.60988 -8.72695
O 10.7481 -3.70935 9.79494
H 10.751 -3.19891 8.93504
H 11.2292 -3.18346 10.4963
O -1.31366 14.4885 -10.842
H -2.14953 14.8322 -10.414
H -1.04856 13.6262 -10.4105
O -9.65806 13.6458 14.2155
H -10.2862 13.8199 13.4571
H -9.93615 12.813 14.6941
O -11.445 -11.6854 -11.8161
H -12.1911 -11.9618 -11.2103
H -11.4682 -12.24 -12.6479
O 3.81573 3.0948 9.71393
H 4.00286 4.04936 9.48202
H 4.4694 2.78526 10.4045
O 11.513 -10.9705 10.4181
H 11.2784 -11.6564 11.1069
H 12.2676 -10.4063 10.7531
O -13.5716 7.72346 12.2738
H -14.2808 8.38918 12.5057
H -12.7377 8.20509 12.0042
O 12.8012 -1.54105 3.96704
H 12.9752 -2.49217 3.71191
H 11.8279 -1.42119 4.16282
O 5.0781 -10.9705 1.74139
H 4.16026 -10.6723 1.47939
H 5.75311 -10.5318 1.14817
O 12.2388 -6.68592 -4.91708
H 13.051 -6.88238 -4.36777
H 12.4036 -5.8739 -5.47698
O 11.6586 3.37985 -5.64813
H 12.449 3.9597 -5.84575
H 10.8913 3.65335 -6.22807
O 11.4114 -4.63343 1.12862
H 10.4936 -4.35017 1.40688
H 11.3434 -5.31254 0.397749
O 7.96267 -6.15895 -10.9384
H 7.81402 -6.97301 -10.377
H 8.64837 -5.57503 -10.5038
O 8.39836 0.831302 -7.1381
H 8.9561 0.203868 -7.68146
H 8.73276 0.843709 -6.19576
O -12.6017 9.78429 -7.8591
H -12.5414 8.8336 -7.55487
H -12.1863 10.381 -7.17248
O -11.8544 5.33616 -13.2323
H -11.9975 4.37454 -12.9983
H -10.8953 5.57646 -13.0824
O -11.3 8.78302 11.046
H -11.4723 9.6947 10.673
H -11.651 8.09238 10.4137
O -13.0068 4.68745 -2.05909
H -13.3563 3.809 -2.38495
H -12.7226 5.24352 -2.8401
O -5.58946 12.4509 13.2373
H -5.99761 11.7033 12.7134
H -6.15195 13.272 13.14
O 6.08814 -4.6335 -3.74132
H 6.03405 -4.01876 -2.95445
H 6.10276 -4.09556 -4.58417
O -12.2658 13.0979 4.35447
H -11.7101 12.5869 5.01025
H -11.8461 13.0438 3.44841
O 9.53511 -10.3246 2.63302
H 9.6836 -9.52816 3.21923
H 8.65503 -10.2357 2.16659
O 0.312172 14.2619 -2.09464
H 0.688662 14.5519 -1.21478
H 0.420026 -14.8063 -2.76236
O 1.50948 3.10267 3.08753
H 2.06356 3.90202 2.85508
H 1.51824 2.96776 4.07834
O 13.1562 4.67825 -10.9605
H 13.1505 4.09751 -11.7745
H 13.9314 4.43027 -10.3795
O -1.34998 -1.18255 -8.26748
H -0.836928 -1.90329 -7.80133
H -2.18965 -0.989492 -7.75987
O -7.94089 -8.26183 -0.637503
H -8.76669 -8.37722 -0.0854889
H -7.99623 -8.8471 -1.44644
O 7.54782 -10.6552 -2.34433
H 8.35782 -10.2253 -2.74311
H 6.81174 -9.98165 -2.27742
O -2.32928 6.78029 -4.72522
H -3.24911 6.90691 -5.09652
H -1.70482 6.52238 -5.46246
O 6.44015 9.31716 -3.10962
H 5.96346 8.71998 -3.75471
H 7.06708 8.77282 -2.55228
O -5.99304 6.23656 0.324626
H -6.45739 6.67393 1.09474
H -5.43942 6.91431 -0.159278
O -11.6253 0.600423 -12.9382
H -12.3943 -0.0360222 -12.8789
H -10.7793 0.0881688 -13.0866
O 11.7667 7.28376 14.8405
H 10.775 7.39126 -14.8933
H 12.0363 6.40759 -14.5647
O 0.51489 10.2152 -12.6706
H -7.32191e-05 10.8714 -13.2222
H 0.377634 10.415 -11.7005
O 6.50316 -10.7614 14.4142
H 5.81438 -11.4272 14.1274
H 7.41404 -11.1639 14.3232
O -2.79984 -10.0199 11.3991
H -3.28881 -9.4834 10.7113
H -3.2202 -10.9239 11.4775
O -10.9293 11.5069 6.178
H -11.6259 11.8427 6.81194
H -10.085 11.3187 6.67972
O 8.81282 4.14494 -9.97822
H 7.92495 3.68488 -9.97438
H 8.7089 5.06687 -10.3514
O -4.62687 -12.2112 11.4071
H -4.76095 -12.8365 10.6383
H -4.91232 -12.6589 12.2545
O 5.52155 2.28081 7.07314
H 6.44842 1.9802 7.29792
H 5.15234 2.81818 7.83137
O 6.39293 5.37408 6.90009
H 5.72995 4.96058 7.52416
H 7.24203 5.56316 7.3933
O -9.05166 -0.555333 -13.4877
H -9.02841 -1.37808 -12.9198
H -9.0754 -0.816914 -14.4526
O 13.7506 -3.88144 2.36452
H 14.0614 -4.80394 2.5934
H 12.9566 -3.93779 1.75929
O 6.02549 5.27539 3.82636
H 6.26871 6.12602 3.36024
H 6.18102 5.37748 4.8089
O -14.5599 -7.04509 -3.7327
H -14.4884 -6.36601 -4.46327
H -14.0849 -7.8812 -4.0072
O 2.85363 -9.54792 0.722277
H 2.32265 -9.55089 -0.125098
H 3.67503 -8.99107 0.598965
O 7.21136 -8.09987 4.70988
H 7.51013 -7.6501 3.8682
H 6.90845 -9.02981 4.50142
O 11.7678 11.4784 -13.1315
H 12.4558 10.7637 -13.0053
H 12.0119 12.2769 -12.5811
O -9.3094 -0.413905 2.46263
H -8.63752 -0.144165 3.15242
H -8.89308 -1.06578 1.82881
O -2.78862 -14.7781 -0.045163
H -2.37305 14.1425 -0.258629
H -3.63319 14.8822 0.470422
O 8.97366 -6.46206 -13.6059
H 9.81368 -7.00352 -13.5717
H 8.62632 -6.32682 -12.678
O -6.75661 8.14089 -12.6122
H -7.44729 8.17248 -11.8897
H -7.0181 7.45733 -13.2936
O -5.06384 -10.3919 3.12815
H -4.99807 -9.40699 2.96831
H -4.41485 -10.8697 2.53613
O 13.7275 13.6725 6.81214
H 14.0155 13.866 5.87424
H 14.4196 14.0107 7.44977
O 12.8048 -4.92178 -10.1947
H 13.0184 -4.77548 -11.1606
H 13.0318 -5.86225 -9.94184
O 10.0085 13.3249 9.83121
H 9.39272 12.6414 10.2232
H 10.3976 13.8825 10.5644
O 5.12284 -14.1447 9.61686
H 5.97438 -14.495 9.22673
H 4.35967 -14.7194 9.32134
O -2.58721 -13.5751 14.1389
H -2.37379 -13.8516 -14.7288
H -3.55787 -13.7332 13.9577
O -0.138308 -12.0299 -13.4833
H -0.860825 -11.4105 -13.1762
H -0.0808505 -12.0062 -14.4814
O -10.647 7.79884 -12.5252
H -9.87242 7.83694 -11.8938
H -10.3689 8.15838 -13.4159
O 1.80738 -12.861 12.1024
H 2.743 -13.2138 12.1137
H 1.19767 -13.546 11.7036
O 11.4945 -6.92821 7.29506
H 10.9747 -6.39467 7.96226
H 11.9407 -6.30956 6.64844
O 4.58892 3.79086 14.6065
H 4.01629 3.50347 13.8387
H 4.02601 4.26654 -14.5223
O -6.02295 -4.12734 8.74615
H -5.42496 -4.80913 8.32478
H -5.76073 -3.99964 9.70267
O 13.5083 -8.72113 6.63419
H 12.7211 -8.1965 6.95813
H 13.3184 -9.07621 5.71884
O -7.22425 14.1914 -1.91617
H -7.30796 13.6918 -1.05396
H -6.80758 -14.7205 -1.74499
O -4.97027 6.91809 -6.25327
H -5.68141 7.53202 -5.9107
H -4.86833 7.04388 -7.24007
O -1.40692 3.89744 14.4515
H -1.72607 4.36105 -14.5267
H -0.549612 4.31224 14.1466
O 4.70746 9.7911 0.808294
H 4.3132 9.37232 1.62632
H 4.975 9.07528 0.163315
O 14.8242 6.53415 -8.75939
H -14.5595 6.82366 -9.61899
H 14.6074 7.3389 -8.20676
O -4.19054 1.26652 -3.02502
H -4.86289 1.498 -2.32192
H -3.38465 0.859999 -2.5946
O -1.23218 -5.70665 -10.5555
H -0.944563 -5.20573 -9.73923
H -2.19182 -5.50375 -10.7502
O 2.09805 0.688335 4.83718
H 1.93444 -0.208968 4.42722
H 1.56027 0.774688 5.67583
O 13.3616 3.13688 0.518274
H 12.4296 3.40724 0.276786
H 14.0043 3.83204 0.196325
O 6.12161 -12.9615 -12.6535
H 5.88004 -12.3794 -11.8771
H 5.49417 -12.7834 -13.4115
O 12.3565 0.585889 -13.5712
H 12.6738 0.253796 -12.683
H 11.5626 0.0520788 -13.8624
O -5.20226 -13.6622 13.5699
H -5.90071 -14.249 13.1602
H -5.46379 -13.4385 14.5088
O 3.64708 13.5789 -11.8034
H 3.52749 12.8451 -12.4722
H 3.27523 14.4304 -12.173
O -11.2459 5.03734 -5.33369
H -11.0032 5.311 -4.40298
H -11.167 4.04424 -5.42039
O -3.30836 10.3916 -11.8206
H -3.5178 10.9253 -12.6399
H -3.4837 9.42351 -11.9996
O 8.4723 12.9198 -10.2513
H 8.95342 13.6073 -9.70742
H 7.49586 12.9492 -10.0375
O -4.3339 -1.45642 2.89769
H -4.66156 -1.21993 1.98298
H -3.39276 -1.1368 3.00759
O -3.27776 12.7563 11.2983
H -4.06863 12.734 11.9099
H -2.7742 13.6093 11.4356
O -12.0211 -13.5513 0.54439
H -13.0166 -13.5416 0.450075
H -11.7662 -14.1145 1.3304
O 0.607721 5.92757 14.4984
H 0.00128458 6.33713 -14.6248
H 1.43658 5.59385 -14.8573
O 7.73883 6.22564 -12.2965
H 7.08797 6.35947 -13.0438
H 8.11894 7.10931 -12.0233
O 4.73804 -2.27978 5.12605
H 4.9652 -2.7201 5.99467
H 5.27252 -1.4403 5.0281
O -6.35138 9.01256 9.47516
H -6.42945 8.73533 10.4328
H -7.19774 8.78682 8.99276
O 10.6459 10.2043 14.4717
H 10.954 10.6925 -14.5165
H 11.2013 9.38232 14.3454
O -13.2283 -9.24003 -4.43214
H -13.6349 -9.77659 -5.17156
H -12.2529 -9.45031 -4.36516
O 5.97553 2.44729 -12.9468
H 5.66865 2.59017 -13.8878
H 6.65788 3.13893 -12.7101
O -4.10988 2.19886 -10.6717
H -4.75763 2.48674 -11.3771
H -4.39916 2.5611 -9.78568
O 7.84877 4.69132 0.243907
H 8.29422 4.82532 1.12912
H 7.40762 3.79408 0.22519
O -6.58334 -9.74882 7.15815
H -6.6159 -8.97024 6.53146
H -6.52929 -9.4167 8.09983
O 4.45086 4.67542 -8.1806
H 4.98143 5.13988 -8.88966
H 4.32523 5.29009 -7.40189
O -4.36124 4.62184 5.1912
H -3.90319 5.04178 4.40772
H -4.21691 3.63253 5.17074
O 6.03311 13.7904 -9.67011
H 6.02012 14.7312 -9.33117
H 5.23584 13.6353 -10.2535
O 0.564584 -14.784 8.50216
H 0.0731985 14.1912 8.23659
H -0.0260533 -14.2157 9.07498
O 10.6505 -12.4646 3.74484
H 10.1219 -13.303 3.61218
H 10.1452 -11.6887 3.36721
O 0.713843 -11.4068 0.684087
H 1.37945 -10.7646 1.06433
H 1.18801 -12.2253 0.359943
O 10.81 12.7635 7.42792
H 11.7843 12.9134 7.25953
H 10.6306 12.8098 8.4106
O -0.799585 -5.2433 8.30827
H -0.424844 -6.10644 7.96981
H -1.10907 -4.68865 7.53589
O -10.2176 2.71415 -4.07207
H -9.45371 3.28084 -3.76331
H -9.89592 2.07096 -4.76693
O 8.9769 -3.55823 7.09172
H 8.76547 -3.71069 8.05714
H 8.68543 -4.35163 6.55734
O -13.138 0.955705 -9.73438
H -12.9504 0.94951 -8.75215
H -13.4221 1.87291 -10.0137
O -0.891207 8.50886 -8.18295
H -0.846104 9.21314 -8.89144
H -1.47046 7.75668 -8.49708
O -10.0096 -10.6365 12.7506
H -10.5845 -11.1676 13.373
H -9.20464 -10.3043 13.2423
O 10.0519 13.7678 -0.343757
H 10.9253 14.2385 -0.468338
H 10.1834 12.7838 -0.464285
O 12.5166 -14.3668 8.68923
H 12.1219 -13.7858 7.97745
H 12.8683 14.5976 8.27659
O -1.29512 -7.8359 -4.88434
H -2.12105 -7.40153 -4.52495
H -1.18543 -7.59649 -5.84904
O -14.508 13.4603 -2.72424
H -13.8931 14.1265 -3.14615
H -14.6039 13.6654 -1.7502
O 3.07452 9.31455 -6.88415
H 3.78805 10.0145 -6.85404
H 2.38071 9.51589 -6.19272
O -5.0839 10.3865 -9.47025
H -4.30989 10.3237 -10.1003
H -4.79253 10.8411 -8.62857
O -11.7301 -8.89004 -12.1388
H -12.6459 -8.52709 -11.9671
H -11.7692 -9.8885 -12.1779
O 4.56001 11.7687 3.05124
H 4.85365 11.315 2.20982
H 3.64299 11.4544 3.29678
O 11.9734 6.82112 10.036
H 11.3737 6.97232 10.8218
H 11.4609 6.97463 9.19116
O 12.1835 -2.50228 -4.51092
H 12.6194 -2.9367 -5.29911
H 11.1974 -2.44231 -4.66641
O 11.894 -8.71631 13.483
H 11.0818 -8.14695 13.3559
H 12.6247 -8.16847 13.8904
O -11.0567 6.11833 6.03044
H -11.4575 5.75228 6.87026
H -10.7049 5.36594 5.47354
O 4.82324 6.49611 12.1176
H 5.20635 7.387 12.3616
H 3.82743 6.52661 12.2037
O 7.89959 14.3432 -1.94967
H 7.79551 13.3555 -2.06631
H 8.78463 14.5374 -1.52663
O -1.14781 2.56815 2.87158
H -1.65431 2.33004 3.70028
H -0.189065 2.73343 3.10284
O 10.7507 2.59741 13.7696
H 11.1418 3.45031 13.4238
H 9.97682 2.80421 14.3682
O -13.1775 -8.78661 0.385186
H -13.1259 -9.72754 0.719829
H -12.3398 -8.56371 -0.113296
O -11.0219 -10.6664 2.51914
H -11.2883 -10.1268 3.3178
H -10.9572 -11.631 2.77505
O -2.65657 -7.29451 -1.19927
H -3.37369 -7.35864 -1.89325
H -2.24778 -8.19615 -1.05808
O -4.75356 -7.68829 2.3335
H -5.42995 -7.15796 2.84461
H -4.138 -7.06585 1.85014
O -10.4045 10.8623 -3.79537
H -10.5384 10.7032 -2.81724
H -9.50532 11.2731 -3.94619
O -14.6344 -13.5104 -1.26695
H -14.6255 -13.0724 -2.16588
H 14.2522 -13.4492 -0.875464
O 5.41346 -4.98884 11.4517
H 5.96613 -5.33357 12.2105
H 4.87969 -5.73858 11.0606
O -13.8763 -11.8101 -10.2505
H -13.7232 -12.0824 -9.30056
H -14.7983 -12.0784 -10.5297
O 10.6924 1.87232 -9.99972
H 10.3391 2.80525 -9.93034
H 9.98145 1.2732 -10.3679
O 1.0469 3.50625 11.0734
H 1.18765 3.45939 10.0844
H 0.0717242 3.61456 11.2665
O -12.1974 -0.220199 1.762
H -11.3369 -0.57111 2.13125
H -12.8524 -0.970523 1.67275
O 10.7037 13.4799 2.24761
H 10.3824 13.5564 1.30373
H 10.1885 14.1112 2.82727
O 7.04768 13.6794 0.782039
H 7.62794 14.2103 0.164366
H 7.4144 12.7533 0.870265
O 0.80066 -11.4552 5.49167
H 0.969284 -10.8512 4.71274
H -0.0686343 -11.9321 5.36161
O 9.73052 -6.58168 -5.63854
H 9.27117 -7.1501 -4.95599
H 10.7178 -6.60425 -5.48122
O -5.47177 -11.5679 -4.11384
H -6.0532 -10.8185 -3.79698
H -4.72202 -11.1987 -4.66301
O -7.47572 10.9403 -3.98892
H -6.55268 10.7117 -3.67952
H -7.4839 11.8713 -4.35389
O 14.0197 0.118505 2.42895
H 14.8569 0.265174 2.95578
H 13.5013 -0.636626 2.83028
O -4.3499 3.88184 1.19796
H -5.00085 4.49519 0.750703
H -3.43189 4.05127 0.839445
O -6.29721 -11.3134 0.566665
H -5.832 -11.2566 1.45004
H -7.2234 -10.9465 0.653538
O -8.29415 4.34751 -3.2915
H -8.70442 5.25782 -3.3463
H -8.21546 4.07455 -2.33271
O -14.622 5.33815 -14.511
H -14.7107 5.2177 14.3049
H -13.6972 5.08604 -14.2261
O 4.82057 -6.15826 -9.73777
H 4.38526 -6.85955 -10.3023
H 5.76622 -6.02959 -10.0364
O -14.6028 5.12474 12.3882
H -14.0047 5.92402 12.3298
H 14.8326 4.9179 11.4822
O 4.97217 0.759813 13.6897
H 4.51018 1.54053 13.269
H 4.2901 0.109148 14.0235
O -1.14743 -3.99364 -12.9324
H -0.615003 -4.02961 -12.0867
H -1.01377 -4.84076 -13.4467
O -5.93316 -11.3882 -8.53454
H -5.08126 -11.4828 -9.04962
H -6.47059 -12.2269 -8.62226
O -9.10918 -5.01457 -4.40789
H -8.9674 -5.51746 -3.55526
H -8.22989 -4.68214 -4.74896
O 4.15954 -5.95043 -13.7421
H 3.32768 -6.03414 -13.1935
H 4.83995 -6.60781 -13.4183
O 14.1977 -12.0226 5.93108
H 13.7264 -11.7635 6.7741
H 13.7649 -11.5665 5.15351
O -9.40798 -9.37461 -6.27182
H -10.3264 -9.73722 -6.42993
H -8.86522 -9.46608 -7.10671
O 10.0397 -8.4976 4.70437
H 10.5468 -7.90941 5.33434
H 9.07822 -8.52784 4.97752
O -12.2114 -4.21239 3.85433
H -12.7115 -3.48982 3.37711
H -11.7508 -3.82684 4.65381
O -13.742 -11.205 1.1957
H -12.8541 -11.3918 1.61593
H -14.4621 -11.6548 1.72417
O 8.73923 5.56242 8.45458
H 8.2728 5.88547 9.27803
H 9.46415 4.92318 8.7112
O 5.53907 6.1457 -13.9728
H 4.77648 6.7886 -14.0444
H 5.57653 5.57994 -14.7965
O -3.12358 0.77122 -5.52503
H -3.67202 0.796427 -4.68923
H -2.40973 1.46983 -5.47648
O -14.2589 -12.59 -4.19307
H -13.9592 -12.1947 -5.06133
H 14.5464 -12.6113 -4.16395
O 7.30587 7.72055 9.33193
H 7.48213 8.37934 10.0633
H 7.27362 8.19803 8.45389
O -10.3211 -10.2905 8.62171
H -9.55166 -10.896 8.82496
H -11.0721 -10.8247 8.23355
O 12.6524 -11.0526 8.03304
H 12.2235 -10.9458 8.93004
H 13.149 -10.2167 7.79933
O 6.02315 6.00203 -10.0874
H 5.93397 6.90643 -9.67014
H 6.37886 6.09747 -11.0171
O 6.84673 4.71851 -5.18212
H 7.32972 4.38187 -5.99045
H 6.2863 3.98432 -4.79889
O 0.252114 -0.254595 10.9581
H 0.959646 0.248357 10.4617
H -0.513011 -0.447323 10.3438
O -1.09712 -10.697 -9.21003
H -0.283367 -10.4967 -8.66441
H -1.16848 -10.036 -9.95704
O -7.25704 -7.62753 -8.83821
H -7.84485 -8.42954 -8.94437
H -7.80735 -6.79711 -8.9251
O -14.2476 -3.89651 -0.768573
H 14.6336 -3.58785 -0.99627
H -14.2992 -4.75794 -0.263337
O -7.81804 6.10359 7.0703
H -8.32651 6.76292 6.51648
H -6.87234 6.41244 7.17158
O 7.27073 -8.20327 -6.15511
H 6.3741 -8.00421 -6.55062
H 7.25956 -7.98786 -5.17866
O -11.3882 -13.3378 3.45912
H -10.8415 -14.0789 3.8489
H -12.2569 -13.2709 3.94978
O 13.0177 -2.77452 -1.82826
H 12.8559 -1.93051 -1.31694
H 12.5813 -2.70949 -2.72561
O -8.7954 -2.3318 0.435847
H -9.44833 -3.03813 0.162396
H -8.51267 -1.80974 -0.368832
O 5.99572 -11.3715 9.3231
H 5.75592 -12.342 9.34784
H 6.99043 -11.2731 9.35258
O 11.6096 -7.03324 -13.0744
H 12.417 -7.11277 -13.659
H 11.7837 -7.48923 -12.2016
O 9.54025 -7.40526 -1.42568
H 10.1556 -7.97656 -1.96879
H 9.95793 -6.50802 -1.28254
O -13.4842 11.4711 -14.348
H -13.8478 11.244 14.5532
H -13.2178 10.6312 -13.8752
O -10.5799 0.577348 10.1188
H -9.6891 0.358683 9.72055
H -10.6064 0.264782 11.0683
O 8.43739 -10.3706 -12.8116
H 9.35822 -10.377 -12.4217
H 8.36001 -11.096 -13.4956
O -11.4158 14.0171 11.9075
H -11.3711 13.7394 10.9479
H -12.3704 14.1591 12.1693
O 1.89659 -14.3583 -5.39931
H 2.68036 -14.4218 -4.78152
H 1.16239 -13.8453 -4.95464
O -1.27618 11.9455 13.1066
H -2.15287 12.0952 12.6494
H -0.542841 11.9376 12.4267
O -6.9289 11.6392 -10.9514
H -6.84812 11.4434 -11.9287
H -6.53665 10.8838 -10.4265
O -10.303 -9.80505 -3.68278
H -9.44518 -9.40881 -4.01017
H -10.1678 -10.7761 -3.48589
O 11.6451 -3.8646 12.6272