LAMMPS data file. CGCMM style. atom_style full generated by VMD/TopoTools v1.6 on Sat Aug 19 08:11:59 CEST 2017
 1632 atoms
 1344 bonds
 1632 angles
 2112 dihedrals
 0 impropers
 16 atom types
 20 bond types
 43 angle types
 79 dihedral types
 0 improper types
 -0.521499 27.478501  xlo xhi
 -0.505499 27.494501  ylo yhi
 -0.389500 27.610500  zlo zhi

# Pair Coeffs
#
# 1  CA
# 2  CD
# 3  CE
# 4  CF
# 5  CG
# 6  H
# 7  HA
# 8  HD
# 9  HE
# 10  HG
# 11  Hw
# 12  O
# 13  OA
# 14  OD
# 15  OE
# 16  Ow

# Bond Coeffs
#
# 1  CA-CE
# 2  CA-CF
# 3  CA-H
# 4  CA-OA
# 5  CD-CD
# 6  CD-CE
# 7  CD-CF
# 8  CD-CG
# 9  CD-H
# 10  CD-OD
# 11  CE-HE
# 12  CE-OE
# 13  CF-O
# 14  CF-OE
# 15  CG-HG
# 16  CG-O
# 17  CG-OE
# 18  HA-OA
# 19  HD-OD
# 20  Hw-Ow

# Angle Coeffs
#
# 1  CA-CE-CD
# 2  CA-CE-HE
# 3  CA-CE-OE
# 4  CA-CF-CD
# 5  CA-CF-O
# 6  CA-CF-OE
# 7  CA-OA-HA
# 8  CD-CD-CD
# 9  CD-CD-CE
# 10  CD-CD-CF
# 11  CD-CD-CG
# 12  CD-CD-H
# 13  CD-CD-OD
# 14  CD-CE-HE
# 15  CD-CE-OE
# 16  CD-CF-O
# 17  CD-CF-OE
# 18  CD-CG-HG
# 19  CD-CG-O
# 20  CD-CG-OE
# 21  CD-OD-HD
# 22  CE-CA-H
# 23  CE-CA-OA
# 24  CE-CD-H
# 25  CE-CD-OD
# 26  CE-OE-CF
# 27  CE-OE-CG
# 28  CF-CA-H
# 29  CF-CA-OA
# 30  CF-CD-H
# 31  CF-CD-OD
# 32  CF-O-CG
# 33  CG-CD-H
# 34  CG-CD-OD
# 35  H-CA-H
# 36  H-CA-OA
# 37  H-CD-OD
# 38  HE-CE-OE
# 39  HG-CG-O
# 40  HG-CG-OE
# 41  Hw-Ow-Hw
# 42  O-CF-OE
# 43  O-CG-OE

# Dihedral Coeffs
#
# 1  CA-CE-OE-CF
# 2  CA-CE-OE-CG
# 3  CA-CF-O-CG
# 4  CA-CF-OE-CE
# 5  CD-CD-CD-CE
# 6  CD-CD-CD-CG
# 7  CD-CD-CD-H
# 8  CD-CD-CD-OD
# 9  CD-CD-CE-CA
# 10  CD-CD-CE-HE
# 11  CD-CD-CE-OE
# 12  CD-CD-CF-CA
# 13  CD-CD-CF-O
# 14  CD-CD-CF-OE
# 15  CD-CD-CG-HG
# 16  CD-CD-CG-O
# 17  CD-CD-CG-OE
# 18  CD-CD-OD-HD
# 19  CD-CE-OE-CF
# 20  CD-CE-OE-CG
# 21  CD-CF-O-CG
# 22  CD-CF-OE-CE
# 23  CD-CG-O-CF
# 24  CD-CG-OE-CE
# 25  CE-CA-OA-HA
# 26  CE-CD-CD-CF
# 27  CE-CD-CD-H
# 28  CE-CD-CD-OD
# 29  CE-CD-OD-HD
# 30  CF-CA-OA-HA
# 31  CF-CD-CD-H
# 32  CF-CD-CD-OD
# 33  CF-CD-OD-HD
# 34  CG-CD-CD-H
# 35  CG-CD-CD-OD
# 36  CG-CD-OD-HD
# 37  H-CA-CE-CD
# 38  H-CA-CE-HE
# 39  H-CA-CE-OE
# 40  H-CA-CF-CD
# 41  H-CA-CF-O
# 42  H-CA-CF-OE
# 43  H-CA-OA-HA
# 44  H-CD-CD-H
# 45  H-CD-CD-OD
# 46  H-CD-CE-CA
# 47  H-CD-CE-HE
# 48  H-CD-CE-OE
# 49  H-CD-CF-CA
# 50  H-CD-CF-O
# 51  H-CD-CF-OE
# 52  H-CD-CG-HG
# 53  H-CD-CG-O
# 54  H-CD-CG-OE
# 55  H-CD-OD-HD
# 56  HE-CE-OE-CF
# 57  HE-CE-OE-CG
# 58  HG-CG-O-CF
# 59  HG-CG-OE-CE
# 60  O-CF-OE-CE
# 61  O-CG-OE-CE
# 62  OA-CA-CE-CD
# 63  OA-CA-CE-HE
# 64  OA-CA-CE-OE
# 65  OA-CA-CF-CD
# 66  OA-CA-CF-O
# 67  OA-CA-CF-OE
# 68  OD-CD-CD-OD
# 69  OD-CD-CE-CA
# 70  OD-CD-CE-HE
# 71  OD-CD-CE-OE
# 72  OD-CD-CF-CA
# 73  OD-CD-CF-O
# 74  OD-CD-CF-OE
# 75  OD-CD-CG-HG
# 76  OD-CD-CG-O
# 77  OD-CD-CG-OE
# 78  OE-CF-O-CG
# 79  OE-CG-O-CF

 Masses

 1 12.010700 # CA
 2 12.010700 # CD
 3 12.010700 # CE
 4 12.010700 # CF
 5 12.010700 # CG
 6 1.007940 # H
 7 1.007940 # HA
 8 1.007940 # HD
 9 1.007940 # HE
 10 1.007940 # HG
 11 1.008000 # Hw
 12 15.999400 # O
 13 15.999400 # OA
 14 15.999400 # OD
 15 15.999400 # OE
 16 15.999000 # Ow

 Atoms

1 1 16 0.000000 9.691000 19.417000 26.969999 # Ow LIG
2 2 11 0.000000 8.708000 19.233000 27.002001 # Hw LIG
3 3 11 0.000000 10.120000 18.816999 26.295000 # Hw LIG
4 1 16 0.000000 14.396000 20.205000 20.003000 # Ow LIG
5 2 11 0.000000 13.826000 20.084999 19.191000 # Hw LIG
6 3 11 0.000000 14.457000 21.177999 20.226999 # Hw LIG
7 1 16 0.000000 7.865000 16.381001 26.823000 # Ow LIG
8 2 11 0.000000 7.593000 15.436000 27.002001 # Hw LIG
9 3 11 0.000000 8.843000 16.487000 27.003000 # Hw LIG
10 1 16 0.000000 6.561000 17.106001 19.978001 # Ow LIG
11 2 11 0.000000 5.841000 17.645000 19.541000 # Hw LIG
12 3 11 0.000000 6.382000 17.042999 20.959000 # Hw LIG
13 1 16 0.000000 8.394000 3.322000 13.015000 # Ow LIG
14 2 11 0.000000 9.050000 3.627000 13.705000 # Hw LIG
15 3 11 0.000000 8.650000 2.412000 12.691000 # Hw LIG
16 1 16 0.000000 27.000000 15.478000 17.190001 # Ow LIG
17 2 11 0.000000 26.485001 14.774000 17.680000 # Hw LIG
18 3 11 0.000000 26.582001 16.372000 17.356001 # Hw LIG
19 1 16 0.000000 17.073999 20.070999 21.408001 # Ow LIG
20 2 11 0.000000 17.059000 19.707001 20.476000 # Hw LIG
21 3 11 0.000000 17.948999 20.527000 21.573000 # Hw LIG
22 1 16 0.000000 14.637000 9.523000 1.890000 # Ow LIG
23 2 11 0.000000 14.492000 10.347000 2.438000 # Hw LIG
24 3 11 0.000000 13.782000 9.269000 1.438000 # Hw LIG
25 1 16 0.000000 8.522000 21.462000 17.246000 # Ow LIG
26 2 11 0.000000 7.912000 22.164000 17.611000 # Hw LIG
27 3 11 0.000000 9.409000 21.520000 17.702999 # Hw LIG
28 1 16 0.000000 9.899000 25.860001 24.083000 # Ow LIG
29 2 11 0.000000 10.365000 26.388000 23.372000 # Hw LIG
30 3 11 0.000000 9.200000 25.281000 23.664000 # Hw LIG
31 1 16 0.000000 9.215000 11.434000 7.814000 # Ow LIG
32 2 11 0.000000 8.861000 12.350000 8.002000 # Hw LIG
33 3 11 0.000000 9.547000 11.392000 6.872000 # Hw LIG
34 1 16 0.000000 14.482000 5.657000 15.796000 # Ow LIG
35 2 11 0.000000 14.096000 6.397000 16.346001 # Hw LIG
36 3 11 0.000000 14.045000 4.792000 16.045000 # Hw LIG
37 1 16 0.000000 15.356000 16.611000 20.445000 # Ow LIG
38 2 11 0.000000 15.072000 17.568001 20.389000 # Hw LIG
39 3 11 0.000000 14.547000 16.024000 20.479000 # Hw LIG
40 1 16 0.000000 0.179000 18.961000 14.156000 # Ow LIG
41 2 11 0.000000 0.000000 18.014999 14.427000 # Hw LIG
42 3 11 0.000000 1.166000 19.113001 14.109000 # Hw LIG
43 1 16 0.000000 20.534000 16.108000 6.850000 # Ow LIG
44 2 11 0.000000 20.150000 16.908001 6.388000 # Hw LIG
45 3 11 0.000000 19.799000 15.466000 7.070000 # Hw LIG
46 1 16 0.000000 7.344000 26.829000 22.218000 # Ow LIG
47 2 11 0.000000 6.594000 26.941000 21.566000 # Hw LIG
48 3 11 0.000000 8.215000 27.002001 21.757999 # Hw LIG
49 1 16 0.000000 19.594000 15.439000 16.924999 # Ow LIG
50 2 11 0.000000 18.679001 15.078000 16.747999 # Hw LIG
51 3 11 0.000000 19.528000 16.402000 17.187000 # Hw LIG
52 1 16 0.000000 7.623000 20.680000 8.816000 # Ow LIG
53 2 11 0.000000 6.827000 20.433001 9.369000 # Hw LIG
54 3 11 0.000000 7.352000 21.344999 8.120000 # Hw LIG
55 1 16 0.000000 20.270000 21.302999 14.838000 # Ow LIG
56 2 11 0.000000 21.202000 21.660000 14.772000 # Hw LIG
57 3 11 0.000000 20.278000 20.440001 15.344000 # Hw LIG
58 1 16 0.000000 5.124000 18.850000 14.991000 # Ow LIG
59 2 11 0.000000 4.193000 18.750000 14.640000 # Hw LIG
60 3 11 0.000000 5.202000 19.712000 15.492000 # Hw LIG
61 1 16 0.000000 1.316000 12.625000 11.718000 # Ow LIG
62 2 11 0.000000 1.989000 12.373000 11.022000 # Hw LIG
63 3 11 0.000000 0.421000 12.747000 11.288000 # Hw LIG
64 1 16 0.000000 16.264000 27.002001 0.344000 # Ow LIG
65 2 11 0.000000 17.257999 27.000999 0.236000 # Hw LIG
66 3 11 0.000000 16.006001 26.356001 1.063000 # Hw LIG
67 1 16 0.000000 10.214000 6.638000 14.620000 # Ow LIG
68 2 11 0.000000 9.583000 6.796000 15.380000 # Hw LIG
69 3 11 0.000000 9.717000 6.703000 13.755000 # Hw LIG
70 1 16 0.000000 13.718000 19.169001 16.320999 # Ow LIG
71 2 11 0.000000 13.093000 19.927000 16.504000 # Hw LIG
72 3 11 0.000000 14.632000 19.403000 16.650999 # Hw LIG
73 1 16 0.000000 11.439000 11.347000 17.025000 # Ow LIG
74 2 11 0.000000 11.589000 12.106000 16.391001 # Hw LIG
75 3 11 0.000000 10.608000 10.855000 16.764999 # Hw LIG
76 1 16 0.000000 21.948000 23.825001 10.298000 # Ow LIG
77 2 11 0.000000 22.430000 23.040001 10.687000 # Hw LIG
78 3 11 0.000000 21.576000 23.577000 9.403000 # Hw LIG
79 1 16 0.000000 23.551001 22.172001 13.438000 # Ow LIG
80 2 11 0.000000 23.982000 21.282000 13.588000 # Hw LIG
81 3 11 0.000000 24.243999 22.891001 13.495000 # Hw LIG
82 1 16 0.000000 17.881001 23.490000 6.315000 # Ow LIG
83 2 11 0.000000 18.393999 22.646999 6.481000 # Hw LIG
84 3 11 0.000000 17.030001 23.273001 5.835000 # Hw LIG
85 1 16 0.000000 8.923000 14.210000 5.023000 # Ow LIG
86 2 11 0.000000 9.443000 13.938000 5.832000 # Hw LIG
87 3 11 0.000000 9.315000 15.047000 4.641000 # Hw LIG
88 1 16 0.000000 20.919001 8.763000 25.400999 # Ow LIG
89 2 11 0.000000 21.629999 8.307000 25.937000 # Hw LIG
90 3 11 0.000000 20.204000 8.104000 25.167999 # Hw LIG
91 1 16 0.000000 4.866000 20.948999 13.059000 # Ow LIG
92 2 11 0.000000 5.188000 20.177000 12.510000 # Hw LIG
93 3 11 0.000000 3.869000 21.002001 13.007000 # Hw LIG
94 1 16 0.000000 6.390000 11.547000 9.036000 # Ow LIG
95 2 11 0.000000 6.347000 11.240000 8.085000 # Hw LIG
96 3 11 0.000000 5.975000 12.454000 9.112000 # Hw LIG
97 1 16 0.000000 19.313999 4.093000 11.075000 # Ow LIG
98 2 11 0.000000 18.339001 4.118000 11.295000 # Hw LIG
99 3 11 0.000000 19.683001 5.022000 11.093000 # Hw LIG
100 1 16 0.000000 20.030001 26.108000 11.931000 # Ow LIG
101 2 11 0.000000 20.106001 25.768000 10.993000 # Hw LIG
102 3 11 0.000000 19.577000 27.000000 11.926000 # Hw LIG
103 1 16 0.000000 18.496000 18.860001 13.971000 # Ow LIG
104 2 11 0.000000 17.576000 19.033001 13.618000 # Hw LIG
105 3 11 0.000000 19.167999 19.041000 13.253000 # Hw LIG
106 1 16 0.000000 26.862000 21.257000 19.561001 # Ow LIG
107 2 11 0.000000 27.000000 22.134001 20.021000 # Hw LIG
108 3 11 0.000000 26.849001 21.399000 18.570999 # Hw LIG
109 1 16 0.000000 0.736000 14.156000 21.267000 # Ow LIG
110 2 11 0.000000 0.482000 14.822000 21.969000 # Hw LIG
111 3 11 0.000000 -0.000000 13.489000 21.159000 # Hw LIG
112 1 16 0.000000 21.094999 25.908001 19.680000 # Ow LIG
113 2 11 0.000000 20.150999 26.145000 19.908001 # Hw LIG
114 3 11 0.000000 21.106001 25.334999 18.860001 # Hw LIG
115 1 16 0.000000 26.388000 24.885000 26.020000 # Ow LIG
116 2 11 0.000000 25.712000 24.775000 25.291000 # Hw LIG
117 3 11 0.000000 26.903000 24.034000 26.128000 # Hw LIG
118 1 16 0.000000 19.711000 11.760000 26.124001 # Ow LIG
119 2 11 0.000000 20.242001 11.109000 26.666000 # Hw LIG
120 3 11 0.000000 20.249001 12.054000 25.334000 # Hw LIG
121 1 16 0.000000 17.093000 14.392000 12.589000 # Ow LIG
122 2 11 0.000000 16.712000 13.698000 11.978000 # Hw LIG
123 3 11 0.000000 16.410000 14.644000 13.275000 # Hw LIG
124 1 16 0.000000 23.548000 20.247999 16.577999 # Ow LIG
125 2 11 0.000000 24.091000 21.073999 16.729000 # Hw LIG
126 3 11 0.000000 22.594999 20.426001 16.825001 # Hw LIG
127 1 16 0.000000 19.754999 18.247999 0.285000 # Ow LIG
128 2 11 0.000000 20.336000 17.711000 0.896000 # Hw LIG
129 3 11 0.000000 20.245001 19.072001 -0.001000 # Hw LIG
130 1 16 0.000000 13.386000 26.499001 24.676001 # Ow LIG
131 2 11 0.000000 13.438000 25.610001 24.221001 # Hw LIG
132 3 11 0.000000 14.239000 27.000000 24.528000 # Hw LIG
133 1 16 0.000000 9.900000 5.664000 0.804000 # Ow LIG
134 2 11 0.000000 10.546000 6.420000 0.698000 # Hw LIG
135 3 11 0.000000 8.985000 5.967000 0.539000 # Hw LIG
136 1 16 0.000000 3.333000 17.441999 11.988000 # Ow LIG
137 2 11 0.000000 2.417000 17.117001 12.224000 # Hw LIG
138 3 11 0.000000 3.278000 18.388000 11.666000 # Hw LIG
139 1 16 0.000000 1.308000 14.756000 15.435000 # Ow LIG
140 2 11 0.000000 0.631000 14.280000 14.873000 # Hw LIG
141 3 11 0.000000 1.962000 15.227000 14.842000 # Hw LIG
142 1 16 0.000000 15.501000 0.295000 13.748000 # Ow LIG
143 2 11 0.000000 16.333000 -0.002000 13.280000 # Hw LIG
144 3 11 0.000000 14.702000 0.004000 13.223000 # Hw LIG
145 1 16 0.000000 24.410000 10.871000 17.612000 # Ow LIG
146 2 11 0.000000 25.374001 11.021000 17.393999 # Hw LIG
147 3 11 0.000000 23.891001 10.758000 16.764999 # Hw LIG
148 1 16 0.000000 12.751000 7.387000 12.973000 # Ow LIG
149 2 11 0.000000 13.314000 7.348000 12.147000 # Hw LIG
150 3 11 0.000000 13.155000 6.806000 13.679000 # Hw LIG
151 1 16 0.000000 17.355000 4.258000 15.649000 # Ow LIG
152 2 11 0.000000 17.127001 5.040000 16.229000 # Hw LIG
153 3 11 0.000000 16.520000 3.898000 15.232000 # Hw LIG
154 1 16 0.000000 2.388000 16.784000 19.771000 # Ow LIG
155 2 11 0.000000 1.643000 17.216000 20.280001 # Hw LIG
156 3 11 0.000000 2.169000 15.821000 19.612000 # Hw LIG
157 1 16 0.000000 14.734000 8.306000 8.224000 # Ow LIG
158 2 11 0.000000 14.862000 8.339000 9.215000 # Hw LIG
159 3 11 0.000000 14.203000 9.101000 7.929000 # Hw LIG
160 1 16 0.000000 7.785000 9.217000 18.868000 # Ow LIG
161 2 11 0.000000 8.217000 10.118000 18.908001 # Hw LIG
162 3 11 0.000000 8.080000 8.743000 18.039000 # Hw LIG
163 1 16 0.000000 0.757000 9.844000 7.993000 # Ow LIG
164 2 11 0.000000 0.252000 8.994000 8.147000 # Hw LIG
165 3 11 0.000000 1.508000 9.909000 8.650000 # Hw LIG
166 1 16 0.000000 8.431000 4.887000 7.425000 # Ow LIG
167 2 11 0.000000 8.477000 4.135000 8.082000 # Hw LIG
168 3 11 0.000000 7.478000 5.045000 7.165000 # Hw LIG
169 1 16 0.000000 10.623000 13.188000 22.025000 # Ow LIG
170 2 11 0.000000 11.602000 12.983000 22.013000 # Hw LIG
171 3 11 0.000000 10.105000 12.336000 22.101999 # Hw LIG
172 1 16 0.000000 19.124001 23.948999 13.756000 # Ow LIG
173 2 11 0.000000 19.601999 23.981001 14.634000 # Hw LIG
174 3 11 0.000000 18.410000 24.649000 13.740000 # Hw LIG
175 1 16 0.000000 20.400000 5.919000 15.073000 # Ow LIG
176 2 11 0.000000 19.823000 5.465000 15.753000 # Hw LIG
177 3 11 0.000000 20.281000 6.909000 15.143000 # Hw LIG
178 1 16 0.000000 26.426001 22.684999 11.835000 # Ow LIG
179 2 11 0.000000 27.002001 21.882000 11.684000 # Hw LIG
180 3 11 0.000000 27.003000 23.497000 11.925000 # Hw LIG
181 1 16 0.000000 -0.000000 17.952000 17.318001 # Ow LIG
182 2 11 0.000000 0.516000 18.783001 17.113001 # Hw LIG
183 3 11 0.000000 0.609000 17.275000 17.732000 # Hw LIG
184 1 16 0.000000 26.488001 26.103001 12.638000 # Ow LIG
185 2 11 0.000000 26.122999 27.003000 12.401000 # Hw LIG
186 3 11 0.000000 27.002001 26.166000 13.494000 # Hw LIG
187 1 16 0.000000 17.532000 23.853001 1.139000 # Ow LIG
188 2 11 0.000000 18.059999 23.594999 0.330000 # Hw LIG
189 3 11 0.000000 17.886000 23.364000 1.937000 # Hw LIG
190 1 16 0.000000 8.274000 9.563000 21.712999 # Ow LIG
191 2 11 0.000000 7.445000 9.018000 21.590000 # Hw LIG
192 3 11 0.000000 8.038000 10.534000 21.715000 # Hw LIG
193 1 16 0.000000 26.018000 18.893000 15.524000 # Ow LIG
194 2 11 0.000000 26.448000 19.193001 16.375000 # Hw LIG
195 3 11 0.000000 25.728001 19.691999 14.997000 # Hw LIG
196 1 16 0.000000 22.874001 1.466000 24.166000 # Ow LIG
197 2 11 0.000000 22.639999 1.032000 25.035999 # Hw LIG
198 3 11 0.000000 22.889999 2.459000 24.284000 # Hw LIG
199 1 16 0.000000 8.858000 20.125000 11.426000 # Ow LIG
200 2 11 0.000000 9.638000 20.724001 11.609000 # Hw LIG
201 3 11 0.000000 9.065000 19.201000 11.747000 # Hw LIG
202 1 16 0.000000 13.714000 9.666000 14.303000 # Ow LIG
203 2 11 0.000000 13.591000 10.074000 15.208000 # Hw LIG
204 3 11 0.000000 13.029000 10.036000 13.676000 # Hw LIG
205 1 16 0.000000 24.641001 8.778000 24.632999 # Ow LIG
206 2 11 0.000000 24.895000 9.302000 25.445999 # Hw LIG
207 3 11 0.000000 25.132000 7.906000 24.632000 # Hw LIG
208 1 16 0.000000 3.208000 26.618999 20.094999 # Ow LIG
209 2 11 0.000000 2.861000 27.000000 19.238001 # Hw LIG
210 3 11 0.000000 4.116000 26.996000 20.283001 # Hw LIG
211 1 16 0.000000 9.931000 8.511000 11.135000 # Ow LIG
212 2 11 0.000000 10.111000 7.528000 11.162000 # Hw LIG
213 3 11 0.000000 10.002000 8.837000 10.192000 # Hw LIG
214 1 16 0.000000 19.955000 18.784000 20.867001 # Ow LIG
215 2 11 0.000000 20.049999 18.143999 20.104000 # Hw LIG
216 3 11 0.000000 20.379000 19.656000 20.625999 # Hw LIG
217 1 16 0.000000 -0.003000 5.572000 8.512000 # Ow LIG
218 2 11 0.000000 0.020000 5.582000 7.512000 # Hw LIG
219 3 11 0.000000 0.721000 4.975000 8.856000 # Hw LIG
220 1 16 0.000000 8.976000 20.709999 24.393000 # Ow LIG
221 2 11 0.000000 8.645000 21.150999 23.558001 # Hw LIG
222 3 11 0.000000 8.770000 21.292000 25.180000 # Hw LIG
223 1 16 0.000000 10.995000 11.382000 3.833000 # Ow LIG
224 2 11 0.000000 11.974000 11.501000 3.667000 # Hw LIG
225 3 11 0.000000 10.565000 12.278000 3.950000 # Hw LIG
226 1 16 0.000000 15.624000 25.848000 18.871000 # Ow LIG
227 2 11 0.000000 14.819000 26.122000 18.344999 # Hw LIG
228 3 11 0.000000 16.433001 26.309999 18.506001 # Hw LIG
229 1 16 0.000000 16.450001 7.984000 5.855000 # Ow LIG
230 2 11 0.000000 15.916000 8.828000 5.796000 # Hw LIG
231 3 11 0.000000 17.419001 8.192000 5.716000 # Hw LIG
232 1 16 0.000000 23.688999 26.188000 11.216000 # Ow LIG
233 2 11 0.000000 24.052000 26.882999 10.596000 # Hw LIG
234 3 11 0.000000 24.271000 25.375000 11.182000 # Hw LIG
235 1 16 0.000000 10.360000 17.941000 17.408001 # Ow LIG
236 2 11 0.000000 9.964000 18.854000 17.308001 # Hw LIG
237 3 11 0.000000 11.272000 17.926001 16.997999 # Hw LIG
238 1 16 0.000000 16.143999 21.899000 11.728000 # Ow LIG
239 2 11 0.000000 16.627001 21.280001 12.347000 # Hw LIG
240 3 11 0.000000 16.665001 22.747000 11.630000 # Hw LIG
241 1 16 0.000000 17.487000 11.025000 19.547001 # Ow LIG
242 2 11 0.000000 17.700001 10.114000 19.900999 # Hw LIG
243 3 11 0.000000 17.205000 10.953000 18.591000 # Hw LIG
244 1 16 0.000000 8.360000 15.565000 7.775000 # Ow LIG
245 2 11 0.000000 7.601000 14.935000 7.614000 # Hw LIG
246 3 11 0.000000 8.429000 16.205999 7.010000 # Hw LIG
247 1 16 0.000000 3.434000 12.387000 21.122999 # Ow LIG
248 2 11 0.000000 4.017000 11.575000 21.072001 # Hw LIG
249 3 11 0.000000 2.600000 12.167000 21.629999 # Hw LIG
250 1 16 0.000000 11.693000 23.985001 26.409000 # Ow LIG
251 2 11 0.000000 11.437000 23.223000 27.004000 # Hw LIG
252 3 11 0.000000 11.478000 24.849001 26.864000 # Hw LIG
253 1 16 0.000000 11.035000 15.115000 26.068001 # Ow LIG
254 2 11 0.000000 11.277000 15.749000 25.333000 # Hw LIG
255 3 11 0.000000 11.627000 15.279000 26.857000 # Hw LIG
256 1 16 0.000000 22.516001 5.329000 24.849001 # Ow LIG
257 2 11 0.000000 22.354000 5.381000 25.834000 # Hw LIG
258 3 11 0.000000 23.379999 5.782000 24.629000 # Hw LIG
259 1 16 0.000000 26.497999 5.826000 15.664000 # Ow LIG
260 2 11 0.000000 25.535999 5.741000 15.924000 # Hw LIG
261 3 11 0.000000 26.614000 6.620000 15.068000 # Hw LIG
262 1 16 0.000000 11.737000 3.271000 15.929000 # Ow LIG
263 2 11 0.000000 11.147000 3.153000 16.728001 # Hw LIG
264 3 11 0.000000 11.294000 3.884000 15.275000 # Hw LIG
265 1 16 0.000000 3.753000 12.577000 15.529000 # Ow LIG
266 2 11 0.000000 2.948000 12.268000 16.035000 # Hw LIG
267 3 11 0.000000 4.287000 11.783000 15.237000 # Hw LIG
268 1 16 0.000000 19.372000 14.372000 4.528000 # Ow LIG
269 2 11 0.000000 18.795000 13.809000 5.120000 # Hw LIG
270 3 11 0.000000 19.400999 13.972000 3.612000 # Hw LIG
271 1 16 0.000000 18.379999 17.252001 4.313000 # Ow LIG
272 2 11 0.000000 18.629999 16.794001 3.460000 # Hw LIG
273 3 11 0.000000 17.417999 17.523001 4.277000 # Hw LIG
274 1 16 0.000000 2.920000 25.076000 14.629000 # Ow LIG
275 2 11 0.000000 2.282000 25.839001 14.729000 # Hw LIG
276 3 11 0.000000 2.408000 24.219999 14.566000 # Hw LIG
277 1 16 0.000000 11.516000 4.128000 12.233000 # Ow LIG
278 2 11 0.000000 11.340000 5.112000 12.208000 # Hw LIG
279 3 11 0.000000 10.864000 3.658000 11.638000 # Hw LIG
280 1 16 0.000000 19.485001 12.418000 22.495001 # Ow LIG
281 2 11 0.000000 19.704000 13.292000 22.931000 # Hw LIG
282 3 11 0.000000 18.653000 12.517000 21.951000 # Hw LIG
283 1 16 0.000000 17.277000 19.690001 5.965000 # Ow LIG
284 2 11 0.000000 17.594000 19.511999 6.896000 # Hw LIG
285 3 11 0.000000 16.726000 20.524000 5.955000 # Hw LIG
286 1 16 0.000000 16.471001 26.695000 14.164000 # Ow LIG
287 2 11 0.000000 17.028000 27.000999 13.392000 # Hw LIG
288 3 11 0.000000 15.527000 27.000000 14.035000 # Hw LIG
289 1 16 0.000000 12.512000 18.429001 20.959999 # Ow LIG
290 2 11 0.000000 12.238000 17.478001 20.815001 # Hw LIG
291 3 11 0.000000 11.767000 19.037001 20.683001 # Hw LIG
292 1 16 0.000000 18.983000 24.330999 8.881000 # Ow LIG
293 2 11 0.000000 18.035000 24.038000 9.005000 # Hw LIG
294 3 11 0.000000 19.014000 25.096001 8.237000 # Hw LIG
295 1 16 0.000000 19.839001 15.998000 12.447000 # Ow LIG
296 2 11 0.000000 18.936001 16.427000 12.432000 # Hw LIG
297 3 11 0.000000 20.542000 16.704000 12.532000 # Hw LIG
298 1 16 0.000000 1.867000 6.030000 20.792000 # Ow LIG
299 2 11 0.000000 2.490000 5.994000 21.573000 # Hw LIG
300 3 11 0.000000 1.176000 5.313000 20.882999 # Hw LIG
301 1 16 0.000000 15.063000 19.476999 10.819000 # Ow LIG
302 2 11 0.000000 14.345000 19.014000 11.338000 # Hw LIG
303 3 11 0.000000 14.672000 19.871000 9.988000 # Hw LIG
304 1 16 0.000000 0.364000 0.779000 18.356001 # Ow LIG
305 2 11 0.000000 0.330000 0.454000 17.410999 # Hw LIG
306 3 11 0.000000 0.481000 -0.000000 18.972000 # Hw LIG
307 1 16 0.000000 8.718000 0.885000 10.404000 # Ow LIG
308 2 11 0.000000 8.026000 0.210000 10.147000 # Hw LIG
309 3 11 0.000000 8.473000 1.776000 10.021000 # Hw LIG
310 1 16 0.000000 26.461000 1.472000 8.940000 # Ow LIG
311 2 11 0.000000 25.919001 0.696000 9.261000 # Hw LIG
312 3 11 0.000000 26.695000 2.059000 9.715000 # Hw LIG
313 1 16 0.000000 13.218000 17.447001 26.285000 # Ow LIG
314 2 11 0.000000 12.749000 18.101000 25.691000 # Hw LIG
315 3 11 0.000000 13.691000 17.940001 27.016001 # Hw LIG
316 1 16 0.000000 18.382999 23.596001 19.330000 # Ow LIG
317 2 11 0.000000 17.750000 24.243999 19.754999 # Hw LIG
318 3 11 0.000000 18.601999 22.868999 19.981001 # Hw LIG
319 1 16 0.000000 14.290000 13.594000 9.262000 # Ow LIG
320 2 11 0.000000 13.664000 13.736000 8.495000 # Hw LIG
321 3 11 0.000000 15.184000 13.982000 9.038000 # Hw LIG
322 1 16 0.000000 16.580999 8.714000 14.397000 # Ow LIG
323 2 11 0.000000 16.357000 9.454000 15.031000 # Hw LIG
324 3 11 0.000000 15.967000 7.941000 14.557000 # Hw LIG
325 1 16 0.000000 21.257000 15.135000 0.619000 # Ow LIG
326 2 11 0.000000 22.080000 14.755000 0.197000 # Hw LIG
327 3 11 0.000000 20.481001 15.022000 -0.001000 # Hw LIG
328 1 16 0.000000 7.818000 5.559000 10.492000 # Ow LIG
329 2 11 0.000000 8.747000 5.206000 10.603000 # Hw LIG
330 3 11 0.000000 7.178000 4.794000 10.414000 # Hw LIG
331 1 16 0.000000 12.342000 8.500000 4.209000 # Ow LIG
332 2 11 0.000000 11.807000 8.983000 4.902000 # Hw LIG
333 3 11 0.000000 13.310000 8.726000 4.317000 # Hw LIG
334 1 16 0.000000 12.807000 21.250999 11.784000 # Ow LIG
335 2 11 0.000000 12.384000 20.934999 12.633000 # Hw LIG
336 3 11 0.000000 12.317000 20.863001 11.003000 # Hw LIG
337 1 16 0.000000 27.007999 15.937000 6.045000 # Ow LIG
338 2 11 0.000000 26.143000 15.570000 5.705000 # Hw LIG
339 3 11 0.000000 26.851999 16.839001 6.448000 # Hw LIG
340 1 16 0.000000 15.361000 16.504000 10.860000 # Ow LIG
341 2 11 0.000000 16.354000 16.384001 10.845000 # Hw LIG
342 3 11 0.000000 14.929000 15.667000 11.196000 # Hw LIG
343 1 16 0.000000 8.769000 19.566999 14.457000 # Ow LIG
344 2 11 0.000000 7.825000 19.388000 14.733000 # Hw LIG
345 3 11 0.000000 8.968000 20.542000 14.559000 # Hw LIG
346 1 16 0.000000 17.379999 9.038000 22.723000 # Ow LIG
347 2 11 0.000000 17.601000 9.553000 23.551001 # Hw LIG
348 3 11 0.000000 18.224001 8.786000 22.250999 # Hw LIG
349 1 16 0.000000 10.842000 0.816000 15.042000 # Ow LIG
350 2 11 0.000000 11.805000 0.546000 15.018000 # Hw LIG
351 3 11 0.000000 10.266000 0.002000 14.980000 # Hw LIG
352 1 16 0.000000 6.882000 22.188000 21.451000 # Ow LIG
353 2 11 0.000000 7.528000 22.937000 21.599001 # Hw LIG
354 3 11 0.000000 6.019000 22.556999 21.106001 # Hw LIG
355 1 16 0.000000 6.616000 12.028000 17.746000 # Ow LIG
356 2 11 0.000000 7.329000 12.102000 17.048000 # Hw LIG
357 3 11 0.000000 5.789000 12.492000 17.429001 # Hw LIG
358 1 16 0.000000 12.138000 10.219000 19.926001 # Ow LIG
359 2 11 0.000000 11.333000 10.714000 20.252001 # Hw LIG
360 3 11 0.000000 12.612000 9.806000 20.704000 # Hw LIG
361 1 16 0.000000 9.728000 8.454000 7.482000 # Ow LIG
362 2 11 0.000000 9.398000 7.539000 7.716000 # Hw LIG
363 3 11 0.000000 9.487000 8.664000 6.535000 # Hw LIG
364 1 16 0.000000 10.159000 7.327000 20.250000 # Ow LIG
365 2 11 0.000000 9.353000 7.191000 20.827000 # Hw LIG
366 3 11 0.000000 10.153000 8.258000 19.884001 # Hw LIG
367 1 16 0.000000 14.927000 18.167999 23.334999 # Ow LIG
368 2 11 0.000000 14.234000 18.868000 23.507999 # Hw LIG
369 3 11 0.000000 14.683000 17.330000 23.823000 # Hw LIG
370 1 16 0.000000 20.655001 12.012000 0.311000 # Ow LIG
371 2 11 0.000000 19.771999 12.365000 -0.001000 # Hw LIG
372 3 11 0.000000 20.910000 12.463000 1.167000 # Hw LIG
373 1 16 0.000000 22.797001 4.587000 10.467000 # Ow LIG
374 2 11 0.000000 23.701000 4.165000 10.520000 # Hw LIG
375 3 11 0.000000 22.096001 3.874000 10.444000 # Hw LIG
376 1 16 0.000000 10.209000 6.778000 4.516000 # Ow LIG
377 2 11 0.000000 9.323000 6.481000 4.871000 # Hw LIG
378 3 11 0.000000 10.126000 6.982000 3.540000 # Hw LIG
379 1 16 0.000000 0.575000 9.887000 13.216000 # Ow LIG
380 2 11 0.000000 -0.003000 10.702000 13.175000 # Hw LIG
381 3 11 0.000000 -0.002000 9.070000 13.228000 # Hw LIG
382 1 16 0.000000 17.732000 21.263000 9.575000 # Ow LIG
383 2 11 0.000000 17.930000 20.424000 10.082000 # Hw LIG
384 3 11 0.000000 16.915001 21.129000 9.014000 # Hw LIG
385 1 16 0.000000 26.726999 9.964000 4.403000 # Ow LIG
386 2 11 0.000000 27.000000 9.941000 5.365000 # Hw LIG
387 3 11 0.000000 26.801001 10.899000 4.057000 # Hw LIG
388 1 16 0.000000 25.667000 7.834000 21.364000 # Ow LIG
389 2 11 0.000000 25.902000 7.862000 20.393000 # Hw LIG
390 3 11 0.000000 25.193001 8.678000 21.617001 # Hw LIG
391 1 16 0.000000 11.667000 15.930000 11.350000 # Ow LIG
392 2 11 0.000000 11.679000 15.833000 12.345000 # Hw LIG
393 3 11 0.000000 12.152000 16.764999 11.090000 # Hw LIG
394 1 16 0.000000 12.840000 24.544001 7.425000 # Ow LIG
395 2 11 0.000000 12.159000 23.812000 7.431000 # Hw LIG
396 3 11 0.000000 12.378000 25.431000 7.436000 # Hw LIG
397 1 16 0.000000 15.619000 23.089001 21.980000 # Ow LIG
398 2 11 0.000000 15.473000 24.077000 22.030001 # Hw LIG
399 3 11 0.000000 16.594000 22.902000 21.858000 # Hw LIG
400 1 16 0.000000 22.169001 17.466000 16.082001 # Ow LIG
401 2 11 0.000000 21.473000 17.205999 15.413000 # Hw LIG
402 3 11 0.000000 22.309000 16.715000 16.726999 # Hw LIG
403 1 16 0.000000 3.687000 20.386000 17.702000 # Ow LIG
404 2 11 0.000000 3.500000 20.040001 18.622000 # Hw LIG
405 3 11 0.000000 2.910000 20.184999 17.106001 # Hw LIG
406 1 16 0.000000 12.951000 5.033000 9.805000 # Ow LIG
407 2 11 0.000000 12.831000 5.954000 9.434000 # Hw LIG
408 3 11 0.000000 13.566000 5.069000 10.593000 # Hw LIG
409 1 16 0.000000 6.932000 17.691999 12.605000 # Ow LIG
410 2 11 0.000000 7.672000 17.025000 12.690000 # Hw LIG
411 3 11 0.000000 6.103000 17.232000 12.287000 # Hw LIG
412 1 16 0.000000 11.503000 2.889000 1.144000 # Ow LIG
413 2 11 0.000000 11.460000 3.452000 0.319000 # Hw LIG
414 3 11 0.000000 10.961000 2.059000 1.009000 # Hw LIG
415 1 16 0.000000 16.282000 14.897000 4.880000 # Ow LIG
416 2 11 0.000000 15.559000 15.522000 4.586000 # Hw LIG
417 3 11 0.000000 15.950000 13.955000 4.828000 # Hw LIG
418 1 16 0.000000 21.367001 13.338000 16.858000 # Ow LIG
419 2 11 0.000000 22.139000 13.974000 16.874001 # Hw LIG
420 3 11 0.000000 21.701000 12.405000 16.993000 # Hw LIG
421 1 16 0.000000 19.542000 17.801001 9.427000 # Ow LIG
422 2 11 0.000000 20.260000 17.965000 10.104000 # Hw LIG
423 3 11 0.000000 18.993000 17.013000 9.707000 # Hw LIG
424 1 16 0.000000 23.791000 16.993000 5.738000 # Ow LIG
425 2 11 0.000000 24.275999 17.757000 6.164000 # Hw LIG
426 3 11 0.000000 22.808001 17.181000 5.738000 # Hw LIG
427 1 16 0.000000 26.046000 4.865000 26.316000 # Ow LIG
428 2 11 0.000000 25.101999 4.544000 26.379000 # Hw LIG
429 3 11 0.000000 26.202000 5.578000 27.000000 # Hw LIG
430 1 16 0.000000 15.416000 7.847000 18.278000 # Ow LIG
431 2 11 0.000000 15.920000 8.190000 19.070999 # Hw LIG
432 3 11 0.000000 15.760000 8.288000 17.448999 # Hw LIG
433 1 16 0.000000 25.860001 26.791000 22.750000 # Ow LIG
434 2 11 0.000000 25.101999 26.379000 22.243999 # Hw LIG
435 3 11 0.000000 25.563000 27.000000 23.681999 # Hw LIG
436 1 16 0.000000 14.047000 3.022000 13.684000 # Ow LIG
437 2 11 0.000000 13.755000 2.564000 12.844000 # Hw LIG
438 3 11 0.000000 13.901000 2.414000 14.464000 # Hw LIG
439 1 16 0.000000 20.197001 6.133000 6.632000 # Ow LIG
440 2 11 0.000000 19.812000 7.051000 6.536000 # Hw LIG
441 3 11 0.000000 21.184000 6.199000 6.775000 # Hw LIG
442 1 16 0.000000 25.725000 22.558001 9.180000 # Ow LIG
443 2 11 0.000000 25.917000 21.577000 9.168000 # Hw LIG
444 3 11 0.000000 24.736000 22.702999 9.226000 # Hw LIG
445 1 16 0.000000 26.267000 1.261000 25.105000 # Ow LIG
446 2 11 0.000000 26.954000 1.894000 25.461000 # Hw LIG
447 3 11 0.000000 25.485001 1.233000 25.728001 # Hw LIG
448 1 16 0.000000 8.138000 19.474001 19.268999 # Ow LIG
449 2 11 0.000000 8.603000 18.948000 19.981001 # Hw LIG
450 3 11 0.000000 7.595000 20.200001 19.691000 # Hw LIG
451 1 16 0.000000 14.552000 21.620001 7.499000 # Ow LIG
452 2 11 0.000000 14.430000 22.374001 6.854000 # Hw LIG
453 3 11 0.000000 13.658000 21.323999 7.837000 # Hw LIG
454 1 16 0.000000 20.004999 0.163000 23.686001 # Ow LIG
455 2 11 0.000000 20.181999 1.147000 23.701000 # Hw LIG
456 3 11 0.000000 19.038000 -0.005000 23.877001 # Hw LIG
457 1 16 0.000000 5.701000 13.467000 20.002001 # Ow LIG
458 2 11 0.000000 6.361000 12.880000 20.471001 # Hw LIG
459 3 11 0.000000 6.050000 14.404000 19.971001 # Hw LIG
460 1 16 0.000000 10.132000 22.403999 20.895000 # Ow LIG
461 2 11 0.000000 10.592000 21.517000 20.849001 # Hw LIG
462 3 11 0.000000 10.811000 23.136000 20.834000 # Hw LIG
463 1 16 0.000000 26.358999 7.716000 7.255000 # Ow LIG
464 2 11 0.000000 25.535999 8.189000 6.942000 # Hw LIG
465 3 11 0.000000 27.003000 8.383000 7.631000 # Hw LIG
466 1 16 0.000000 13.602000 24.035000 2.107000 # Ow LIG
467 2 11 0.000000 12.621000 24.228001 2.147000 # Hw LIG
468 3 11 0.000000 14.113000 24.851999 2.374000 # Hw LIG
469 1 16 0.000000 20.164000 3.203000 8.606000 # Ow LIG
470 2 11 0.000000 20.483999 2.738000 7.781000 # Hw LIG
471 3 11 0.000000 19.693001 4.047000 8.351000 # Hw LIG
472 1 16 0.000000 16.768999 14.440000 19.521999 # Ow LIG
473 2 11 0.000000 17.066999 13.676000 18.948999 # Hw LIG
474 3 11 0.000000 16.759001 14.153000 20.480000 # Hw LIG
475 1 16 0.000000 16.106001 23.103001 17.868999 # Ow LIG
476 2 11 0.000000 16.176001 22.232000 18.356001 # Hw LIG
477 3 11 0.000000 15.388000 23.040001 17.176001 # Hw LIG
478 1 16 0.000000 11.629000 0.807000 12.249000 # Ow LIG
479 2 11 0.000000 10.669000 0.535000 12.312000 # Hw LIG
480 3 11 0.000000 12.194000 -0.000000 12.078000 # Hw LIG
481 1 16 0.000000 23.858000 11.287000 0.377000 # Ow LIG