LAMMPS data file via write_data, version 15 May 2015, timestep = 590000

4560 atoms
7 atom types
5040 bonds
3 bond types
7200 angles
2 angle types
10560 dihedrals
3 dihedral types
2400 impropers
1 improper types

-1.0763502675555259e-01 4.1387635026745990e+01 xlo xhi
-4.0433884491974936e-02 3.5938433884472119e+01 ylo yhi
-3.5711112484589691e-01 2.9555111124838550e+01 zlo zhi
-6.7234083837551181e-02 -1.7036217651000683e+01 -4.1707816797290791e-02 xy xz yz

Masses

1 12.0107
2 1.008
3 12.0107
4 12.0107
5 12.0107
6 12.0107
7 12.0107

Pair Coeffs # lj/cut/coul/long

1 0.0022 3.55
2 0.00094 2.42
3 0.0022 3.55
4 0.0022 3.55
5 0.0022 3.55
6 0 0
7 0.0022 3.55

Bond Coeffs # harmonic

1 469 1.4
2 367 1.08
3 469 0.7

Angle Coeffs # harmonic

1 35 120
2 63 120

Dihedral Coeffs # opls

1 0 7.25 0 0
2 0 7.25 0 0
3 0 7.25 0 0

Improper Coeffs # cvff

1 2.5 -1 2

Atoms # full

219 13 3 0.0000000000000000e+00 -2.7232881756182126e-01 3.1270785154584329e+00 3.1428171204997413e+00 1 0 0
220 13 4 -1.1500000000000000e-01 3.1305696920093018e-01 4.0994236891676632e+00 2.3695514653323131e+00 1 0 0
224 13 2 1.1500000000000000e-01 4.9480094587438073e-01 5.0173340647875397e+00 2.9251156454431180e+00 1 0 0
580 33 4 -1.1500000000000000e-01 2.6585579891509159e+00 6.7761845626553336e+00 3.9901978055873872e+00 1 0 0
228 13 3 0.0000000000000000e+00 -5.9013987119041555e-01 1.8399225656001368e+00 2.6147990621362323e+00 1 0 0
989 53 4 -1.1500000000000000e-01 -1.3627350526191855e+00 7.0594139407799732e+00 3.5067296681714062e+00 1 0 0
600 34 2 1.1500000000000000e-01 2.2621196523147979e-02 5.7512456496674247e+00 6.8556575543261040e+00 1 0 0
245 14 4 -1.1500000000000000e-01 -4.9240484866365080e+00 1.4169922094853906e+00 9.0548363548661630e+00 1 0 0
227 13 4 -1.1500000000000000e-01 -1.8592185440290354e-01 1.5621602852131635e+00 1.2640568010056450e+00 1 0 0
4390 233 1 -1.1500000000000000e-01 2.1738215684610336e+00 6.8103580736231439e-01 5.4149545716167937e+00 1 1 0
733 13 6 0.0000000000000000e+00 -4.2087674207057124e-01 2.4361013962351956e+00 2.9433239537917344e+00 1 0 0
2099 113 3 0.0000000000000000e+00 3.2603447662477572e+00 1.7883886963016920e+01 3.1674912310515189e+00 1 0 0
230 13 1 -1.1500000000000000e-01 6.6215649440646451e-01 3.8670098225717608e+00 1.0454904617054133e+00 1 0 0
217 13 7 -1.1500000000000000e-01 -1.2423242470285332e+00 2.3696962744184238e+00 5.2665911430630814e+00 1 0 0
218 13 5 -1.1500000000000000e-01 -6.0987346712167279e-01 3.3934090227119436e+00 4.4953489920333878e+00 1 0 0
221 13 1 -1.1500000000000000e-01 -1.5895010350858607e+00 1.1411510644844733e+00 4.6619545806157578e+00 1 0 0
222 13 2 1.1500000000000000e-01 -1.4317917955295303e+00 2.5526466973537185e+00 6.3332996467683849e+00 1 0 0
223 13 2 1.1500000000000000e-01 -3.5092235083837187e-01 4.3662607805888252e+00 5.0037133446200883e+00 1 0 0
248 14 1 -1.1500000000000000e-01 -3.5297147868981620e+00 3.4451748112770213e+00 8.6569497862254590e+00 1 0 0
4380 233 4 -1.1500000000000000e-01 2.5751690190868217e+00 1.1259824431642529e+00 4.1491104484929497e+00 1 1 0
244 14 1 -1.1500000000000000e-01 -4.2048105823563224e+00 2.2933645345220515e+00 8.2027024012246983e+00 1 0 0
603 34 2 1.1500000000000000e-01 9.3874052250216167e-01 3.4640856776148263e+00 7.5284455053985324e+00 1 0 0
4396 234 5 -1.1500000000000000e-01 -7.6680797414446555e-01 1.7351562071852894e-01 9.2455049539428771e+00 1 1 0
4394 233 2 1.1500000000000000e-01 1.3682794794970103e+00 1.1766824087141761e+00 5.9724100841164436e+00 1 1 0
579 33 3 0.0000000000000000e+00 3.3630223647757678e+00 5.8371762329761214e+00 3.1741352282083137e+00 1 0 0
252 14 2 1.1500000000000000e-01 -3.0608615668483576e+00 4.1482052276772245e+00 7.9821977069108598e+00 1 0 0
581 33 1 -1.1500000000000000e-01 4.6969101484959381e+00 3.9696350427710190e+00 1.4484915863140044e+00 1 0 0
596 34 5 -1.1500000000000000e-01 -5.1863407845436971e-01 6.3396443482668143e+00 8.9058408210982378e+00 1 0 0
577 33 7 -1.1500000000000000e-01 4.1390233143284441e+00 5.1967025509628337e+00 9.7618543260130197e-01 1 0 0
588 33 3 0.0000000000000000e+00 3.8859643161855697e+00 4.6614766571384552e+00 3.7300178906195569e+00 1 0 0
589 33 4 -1.1500000000000000e-01 4.5381339481269940e+00 3.7049237004004851e+00 2.8755126381583214e+00 1 0 0
593 33 2 1.1500000000000000e-01 5.0218048829597119e+00 2.8975587435622780e+00 3.3726439600920104e+00 1 0 0
753 33 6 0.0000000000000000e+00 3.6282873276254208e+00 5.1835551218513292e+00 3.2783435627827968e+00 1 0 0
4383 233 2 1.1500000000000000e-01 3.1233868566709111e+00 1.4859379704737665e+00 1.6111442029936793e+00 1 1 0
4379 233 3 0.0000000000000000e+00 3.3337319733389337e+00 2.7094405344374173e-01 3.3100801945304483e+00 1 1 0
578 33 5 -1.1500000000000000e-01 3.5035172482740125e+00 6.1223044070666113e+00 1.8051306480270748e+00 1 0 0
226 13 1 -1.1500000000000000e-01 4.1504385891005191e-01 2.6053098693079355e+00 5.0608879646842364e-01 1 0 0
4384 233 2 1.1500000000000000e-01 2.2100278803294691e+00 2.0577708686345986e+00 3.7610965681429605e+00 1 1 0
586 33 1 -1.1500000000000000e-01 3.1527104280378042e+00 5.4188289214448577e+00 5.9804959872867292e+00 1 0 0
587 33 4 -1.1500000000000000e-01 3.7768073345869246e+00 4.4328108793171674e+00 5.1704171711432352e+00 1 0 0
585 33 2 1.1500000000000000e-01 5.2809969891072619e+00 3.3644363238063431e+00 8.3915189661251777e-01 1 0 0
591 33 2 1.1500000000000000e-01 3.1015281523543603e+00 5.4390950180823392e+00 7.0583353530022954e+00 1 0 0
592 33 2 1.1500000000000000e-01 4.2600134208644480e+00 3.4923714895784479e+00 5.5439942654836951e+00 1 0 0
590 33 1 -1.1500000000000000e-01 2.5430991859102670e+00 6.5070054928829073e+00 5.3319582458115464e+00 1 0 0
1064 57 2 1.1500000000000000e-01 7.1351237288738023e+00 6.3832239020194956e+00 1.0074998772609363e+00 1 0 0
234 13 2 1.1500000000000000e-01 1.1236335990436324e+00 4.6921695107437511e+00 4.7535015113117152e-01 1 0 0
229 13 4 -1.1500000000000000e-01 -1.2285345336023898e+00 8.7506391933796535e-01 3.3396350971242059e+00 1 0 0
1011 54 2 1.1500000000000000e-01 -6.3447772223304151e+00 6.3046951770406618e+00 1.0736179965920241e+01 1 0 0
985 53 2 1.1500000000000000e-01 -1.6765634293156149e+00 6.3948668169043215e+00 5.5763975826882390e+00 1 0 0
599 34 1 -1.1500000000000000e-01 5.0309799547483802e-01 4.1750822118723585e+00 8.2718456095721518e+00 1 0 0
4401 234 2 1.1500000000000000e-01 -1.1381229253234570e+00 1.0973761593768330e+00 8.8344143732630833e+00 1 1 0
225 13 2 1.1500000000000000e-01 -2.1855991069209728e+00 3.8094538553804264e-01 5.1761678595723595e+00 1 0 0
595 34 7 -1.1500000000000000e-01 2.4828783415173916e-03 5.4631896693054633e+00 7.8804972379637768e+00 1 0 0
981 53 1 -1.1500000000000000e-01 -1.2934012681466751e+00 7.1394085081460110e+00 4.8964833410247328e+00 1 0 0
4378 233 5 -1.1500000000000000e-01 3.4329214859347963e+00 5.1125513289467428e-01 1.9182733594396417e+00 1 1 0
582 33 2 1.1500000000000000e-01 4.3772010227318532e+00 5.4672991030232581e+00 -2.8565828695578221e-02 1 0 0
583 33 2 1.1500000000000000e-01 3.1854943632486616e+00 7.0535287414698349e+00 1.3648126345188902e+00 1 0 0
1010 54 2 1.1500000000000000e-01 -4.9675114972328647e+00 6.3038411136167998e+00 8.5997252311383079e+00 1 0 0
232 13 2 1.1500000000000000e-01 -3.3027476926485982e-01 5.5581301734601241e-01 9.7466584854381644e-01 1 0 0
235 14 7 -1.1500000000000000e-01 -5.3032157831434219e+00 2.3450554054803630e+00 1.3152694045615439e+01 1 0 0
236 14 5 -1.1500000000000000e-01 -4.5439826460561292e+00 3.1663061134933477e+00 1.2341473430933922e+01 1 0 0
597 34 3 0.0000000000000000e+00 -5.9644612616272674e-01 5.8629707080196809e+00 1.0217978331350572e+01 1 0 0
734 14 6 0.0000000000000000e+00 -4.6103613220491688e+00 2.3253750943026943e+00 1.0497551788800454e+01 1 0 0
239 14 1 -1.1500000000000000e-01 -5.9494383049358701e+00 1.2228874147598714e+00 1.2596880661710344e+01 1 0 0
240 14 2 1.1500000000000000e-01 -5.5442530291566392e+00 2.5828926281748328e+00 1.4232734327158900e+01 1 0 0
243 14 2 1.1500000000000000e-01 -6.5330269335197713e+00 7.0431822159378954e-01 1.3317208502420664e+01 1 0 0
237 14 3 0.0000000000000000e+00 -4.4207764256742825e+00 2.9061914961708841e+00 1.0945408662817128e+01 1 0 0
4402 234 2 1.1500000000000000e-01 -1.8828213528051325e+00 1.7148375788484294e+00 1.0963889308419542e+01 1 1 0
1758 94 4 -1.1500000000000000e-01 -3.8186825744112434e+00 1.5944553442876186e+01 9.7698860179389531e+00 1 0 0
242 14 2 1.1500000000000000e-01 -3.1807198005778385e+00 4.6438150687877897e+00 1.0364418577907154e+01 1 0 0
4408 234 1 -1.1500000000000000e-01 -1.8773002326171699e+00 3.6485877765403185e-01 1.2684360534541289e+01 1 1 0
238 14 4 -1.1500000000000000e-01 -3.7046466827014579e+00 3.7403999670169936e+00 1.0025928998718399e+01 1 0 0
246 14 3 0.0000000000000000e+00 -4.9921744486222481e+00 1.7144388211320658e+00 1.0437394157083505e+01 1 0 0
604 34 1 -1.1500000000000000e-01 -9.3494050115871286e-01 4.9595076846806485e+00 1.2853107773897756e+01 1 0 0
605 34 4 -1.1500000000000000e-01 -3.7922362095802065e-01 4.1084772081053229e+00 1.1901985512799623e+01 1 0 0
606 34 3 0.0000000000000000e+00 -2.3631877958626468e-01 4.5645557433477748e+00 1.0555264863041277e+01 1 0 0
607 34 4 -1.1500000000000000e-01 4.0149540756128310e-01 3.7518617956122102e+00 9.6160942320473275e+00 1 0 0
611 34 2 1.1500000000000000e-01 7.6377830371720190e-01 2.7232874525837008e+00 9.8483030023393230e+00 1 0 0
610 34 2 1.1500000000000000e-01 3.7747032989553730e-02 3.1564769980714331e+00 1.2239775018759168e+01 1 0 0
241 14 2 1.1500000000000000e-01 -4.0882286817867444e+00 4.0290675632396855e+00 1.2747502885909975e+01 1 0 0
2138 115 2 1.1500000000000000e-01 -3.7168093821426060e+00 1.7243899124591191e+01 1.4347739504069784e+01 1 0 0
598 34 4 -1.1500000000000000e-01 -1.1521286690960650e+00 6.7466286442144430e+00 1.1207616355281409e+01 1 0 0
754 34 6 0.0000000000000000e+00 -4.3414338757724469e-01 5.2583286167327055e+00 1.0500706306785093e+01 1 0 0
609 34 2 1.1500000000000000e-01 -1.0308037659063336e+00 4.6966449106900825e+00 1.3895961147088800e+01 1 0 0
4398 234 4 -1.1500000000000000e-01 -1.6025548382762329e+00 7.5111616921746671e-01 1.1403005796748463e+01 1 1 0
4412 234 2 1.1500000000000000e-01 -2.2678993744984774e+00 1.1269181932244143e+00 1.3320749666764979e+01 1 1 0
247 14 4 -1.1500000000000000e-01 -5.7426284424155805e+00 8.8897782424994298e-01 1.1232682778988352e+01 1 0 0
608 34 1 -1.1500000000000000e-01 -1.3236838861540301e+00 6.2386543829068826e+00 1.2536142694677949e+01 1 0 0
612 34 2 1.1500000000000000e-01 -1.6560874516095616e+00 6.9578695747127703e+00 1.3335704357807982e+01 1 0 0
979 53 3 0.0000000000000000e+00 -8.8117838986653929e-02 9.0638061207789207e+00 3.3461497442907020e+00 1 0 0
980 53 4 -1.1500000000000000e-01 5.5044079122537504e-01 1.0022710482158322e+01 2.4950254107326315e+00 1 0 0
984 53 2 1.1500000000000000e-01 1.0470416961059157e+00 1.0982352234029491e+01 2.7591125100562999e+00 1 0 0
1361 74 2 1.1500000000000000e-01 -1.0360574642856450e+00 1.3301736460736382e+01 8.4639750598301156e+00 1 0 0
990 53 1 -1.1500000000000000e-01 4.4739279545163391e-01 9.9826759742634987e+00 1.0532093936272318e+00 1 0 0
2253 93 6 0.0000000000000000e+00 -3.6682989706111790e-01 1.4276622855215654e+01 3.0049484333587984e+00 1 0 0
1493 53 6 0.0000000000000000e+00 -5.5232746274780609e-01 8.6682710505250160e+00 2.9856225676787753e+00 1 0 0
986 53 1 -1.1500000000000000e-01 -1.8422863084970942e-01 8.8732757991772946e+00 4.6522529323332473e-01 1 0 0
1005 54 4 -1.1500000000000000e-01 -4.5108368169146651e+00 7.1902698419413529e+00 8.8944895047641257e+00 1 0 0
994 53 2 1.1500000000000000e-01 9.5087073094105379e-01 1.0784254739473527e+01 5.0447857776473093e-01 1 0 0
594 33 2 1.1500000000000000e-01 2.1274101856592358e+00 7.3302195863505748e+00 5.8662987785596590e+00 1 0 0
1741 93 1 -1.1500000000000000e-01 -1.4853647148679103e+00 1.3435538360320928e+01 4.9683764370593817e+00 1 0 0
977 53 7 -1.1500000000000000e-01 -7.2586639734205072e-01 8.2567391578007729e+00 5.4880591164584827e+00 1 0 0
978 53 5 -1.1500000000000000e-01 -1.8322307095247270e-01 9.2738638739663699e+00 4.7229551225201005e+00 1 0 0
982 53 2 1.1500000000000000e-01 -7.1234619776259667e-01 8.2601559285256183e+00 6.5177814100477480e+00 1 0 0
983 53 2 1.1500000000000000e-01 1.9506459628024730e-01 1.0190530059107420e+01 5.1855458884226699e+00 1 0 0
1012 54 2 1.1500000000000000e-01 -2.3332304314295134e+00 9.2942672444256420e+00 7.7235935722887312e+00 1 0 0
1004 54 1 -1.1500000000000000e-01 -3.6665104327703011e+00 7.8035085460264533e+00 7.9814088814037447e+00 1 0 0
1363 74 2 1.1500000000000000e-01 6.8393649367320908e-01 9.5121418972606389e+00 7.6234207354831813e+00 1 0 0
1745 93 2 1.1500000000000000e-01 -2.1032055326505481e+00 1.2990483824471918e+01 5.7150113196939349e+00 1 0 0
1008 54 1 -1.1500000000000000e-01 -3.0465717255823499e+00 9.0010091112757635e+00 8.3740562638390710e+00 1 0 0
1338 73 5 -1.1500000000000000e-01 3.6754649762540010e+00 1.2264425422113135e+01 1.6827631012911977e+00 1 0 0
1339 73 3 0.0000000000000000e+00 3.4848345645078966e+00 1.1922774532002665e+01 3.0584243310101193e+00 1 0 0
1340 73 4 -1.1500000000000000e-01 2.8262021947310050e+00 1.2795904547652485e+01 3.9270591545245859e+00 1 0 0
1341 73 1 -1.1500000000000000e-01 4.8743767192441210e+00 1.0208957588324425e+01 1.3270892842049054e+00 1 0 0
1337 73 7 -1.1500000000000000e-01 4.4099677113781590e+00 1.1419306684195330e+01 8.3996777188489657e-01 1 0 0
1343 73 2 1.1500000000000000e-01 3.3525213915036547e+00 1.3240674349128303e+01 1.2535251554042626e+00 1 0 0
988 53 3 0.0000000000000000e+00 -7.3023364937589785e-01 8.0472849672827778e+00 2.7296238859054762e+00 1 0 0
1348 73 3 0.0000000000000000e+00 3.9169309590343371e+00 1.0651081987253901e+01 3.4700592314680967e+00 1 0 0
1349 73 4 -1.1500000000000000e-01 4.6521711711121041e+00 9.8005713974282003e+00 2.6086064336159818e+00 1 0 0
1353 73 2 1.1500000000000000e-01 4.9714407190170178e+00 8.8208137002392242e+00 2.9628306207918720e+00 1 0 0
1513 73 6 0.0000000000000000e+00 3.6951157127622416e+00 1.1277587224220042e+01 3.2370875539189194e+00 1 0 0
1356 74 5 -1.1500000000000000e-01 -6.7219109509110631e-01 1.2338707904843970e+01 8.8582726616176064e+00 1 0 0
1354 73 2 1.1500000000000000e-01 1.9149874267587617e+00 1.3011877300851358e+01 5.8405737065491703e+00 1 0 0
1346 73 1 -1.1500000000000000e-01 2.8934728556622251e+00 1.1117099543188711e+01 5.6125481115141076e+00 1 0 0
1347 73 4 -1.1500000000000000e-01 3.6417832098404368e+00 1.0251014842805604e+01 4.7936072507124576e+00 1 0 0
1350 73 1 -1.1500000000000000e-01 2.5226246694736618e+00 1.2359728378636381e+01 5.2121069898597145e+00 1 0 0
1351 73 2 1.1500000000000000e-01 2.5481297550807924e+00 1.0787917453536869e+01 6.6609250445909405e+00 1 0 0
1352 73 2 1.1500000000000000e-01 3.9450159169439236e+00 9.2739578090995458e+00 5.1197647428318263e+00 1 0 0
1345 73 2 1.1500000000000000e-01 5.3708128644128132e+00 9.4906734985557470e+00 7.0184568653477220e-01 1 0 0
1355 74 7 -1.1500000000000000e-01 -2.4559789402275456e-01 1.1434343350974396e+01 7.8919284245250676e+00 1 0 0
1359 74 1 -1.1500000000000000e-01 3.6198001654374945e-01 1.0248787195283956e+01 8.3519424405236791e+00 1 0 0
1360 74 2 1.1500000000000000e-01 -3.7624572203099271e-01 1.1616508185538933e+01 6.8255677025631547e+00 1 0 0
1747 93 4 -1.1500000000000000e-01 -6.0469765875995951e-01 1.3222775901501144e+01 1.3202126434048902e+00 1 0 0
1748 93 3 0.0000000000000000e+00 -7.2299155253917879e-01 1.3728200089165650e+01 2.6409697061140589e+00 1 0 0
601 34 2 1.1500000000000000e-01 -9.8452079400595149e-01 7.3453554785945165e+00 8.8258920154800329e+00 1 0 0
249 14 2 1.1500000000000000e-01 -4.0806779936193109e+00 2.0735267195842502e+00 7.1476811308389161e+00 1 0 0
1746 93 1 -1.1500000000000000e-01 2.0683888315518123e-01 1.3857431380866521e+01 3.9341675158643219e-01 1 0 0
584 33 2 1.1500000000000000e-01 2.2885050502166182e+00 7.7066206455556063e+00 3.6313924718822803e+00 1 0 0
1765 94 4 -1.1500000000000000e-01 -5.2091043053654422e+00 1.3749920875632085e+01 8.6113248343114677e+00 1 0 0
1749 93 4 -1.1500000000000000e-01 -1.4792198499387275e+00 1.3025364593949272e+01 3.5980001960207693e+00 1 0 0
1342 73 2 1.1500000000000000e-01 4.6430081774597314e+00 1.1527568016237151e+01 -2.1533677811528074e-01 1 0 0
1344 73 2 1.1500000000000000e-01 2.4199684311460308e+00 1.3673435458331756e+01 3.5836669591667452e+00 1 0 0
1009 54 2 1.1500000000000000e-01 -3.3802607255601576e+00 7.2611028830978981e+00 7.0745667148861848e+00 1 0 0
987 53 4 -1.1500000000000000e-01 -8.1672904829619042e-01 7.9503012447583137e+00 1.3201761509386796e+00 1 0 0
995 54 7 -1.1500000000000000e-01 -5.4474827089668914e+00 8.8687190226706587e+00 1.2588436564633728e+01 1 0 0
996 54 5 -1.1500000000000000e-01 -4.5227247621471047e+00 9.5526903623583515e+00 1.1752209089173544e+01 1 0 0
997 54 3 0.0000000000000000e+00 -4.2282712822968209e+00 8.9890902710751863e+00 1.0484526274468871e+01 1 0 0
1001 54 2 1.1500000000000000e-01 -4.0042341392867300e+00 1.0440272163723465e+01 1.2090224504334149e+01 1 0 0
1371 74 2 1.1500000000000000e-01 1.0355312343049627e+00 9.1225004853488549e+00 1.0070816655207292e+01 1 0 0
1357 74 3 0.0000000000000000e+00 -6.5097636537027803e-01 1.2126819417305766e+01 1.0217482482900182e+01 1 0 0
1767 94 4 -1.1500000000000000e-01 -5.9970838568961282e+00 1.3056629412607926e+01 1.0861510925843195e+01 1 0 0
998 54 4 -1.1500000000000000e-01 -3.2625355454903042e+00 9.6005911972821316e+00 9.6230669090706407e+00 1 0 0
1494 54 6 0.0000000000000000e+00 -4.5531027238654387e+00 8.4097325112392678e+00 1.0290393786004195e+01 1 0 0
1362 74 2 1.1500000000000000e-01 -1.7987519600487438e+00 1.3941354422066022e+01 1.0797893420606412e+01 1 0 0
1003 54 2 1.1500000000000000e-01 -6.9363880481330416e+00 7.2459624278358650e+00 1.2681031060431454e+01 1 0 0
999 54 1 -1.1500000000000000e-01 -6.1209617219636474e+00 7.7672883081055177e+00 1.2159700348262733e+01 1 0 0
1372 74 2 1.1500000000000000e-01 -1.7465102431278750e+00 1.3314646500523523e+01 1.3244840871535848e+01 1 0 0
1514 74 6 0.0000000000000000e+00 -2.5920190410388066e-01 1.1651023042223819e+01 1.0537284446485639e+01 1 0 0
602 34 2 1.1500000000000000e-01 -1.4735070973024191e+00 7.7629490852562011e+00 1.0992689959163920e+01 1 0 0
1358 74 4 -1.1500000000000000e-01 -1.2805717389978968e+00 1.3053945070208787e+01 1.1119113649153544e+01 1 0 0
1364 74 1 -1.1500000000000000e-01 -6.5015224695982088e-01 1.1512666520852582e+01 1.2939600299716076e+01 1 0 0
1365 74 4 -1.1500000000000000e-01 -1.1132342085133295e-01 1.0603561441176506e+01 1.2009854813989936e+01 1 0 0
1366 74 3 0.0000000000000000e+00 -7.2671910624501734e-02 1.0944707323963826e+01 1.0658209023968285e+01 1 0 0
1759 94 1 -1.1500000000000000e-01 -5.9837076908016043e+00 1.3191630555372752e+01 1.2253631072682953e+01 1 0 0
1368 74 1 -1.1500000000000000e-01 -1.3033607510451075e+00 1.2676043398860880e+01 1.2477744963502721e+01 1 0 0
1369 74 2 1.1500000000000000e-01 -6.7472848047241918e-01 1.1105979884675973e+01 1.3947109131611578e+01 1 0 0
1370 74 2 1.1500000000000000e-01 3.1961408157701321e-01 9.6861630503392924e+00 1.2360496733534349e+01 1 0 0
1378 75 2 1.1500000000000000e-01 -4.0515976609104198e+00 1.1846191439023542e+01 1.3912739819325171e+01 1 0 0
1000 54 2 1.1500000000000000e-01 -5.5558921076370620e+00 9.2135575158686631e+00 1.3630816473659824e+01 1 0 0
1766 94 3 0.0000000000000000e+00 -5.2809213499967527e+00 1.3965637623676029e+01 1.0046992585788344e+01 1 0 0
1006 54 3 0.0000000000000000e+00 -4.7973088100377259e+00 7.7712214557798989e+00 1.0123693935676862e+01 1 0 0
1763 94 2 1.1500000000000000e-01 -6.5556939400602330e+00 1.2536819046509743e+01 1.2843721074435683e+01 1 0 0
1367 74 4 -1.1500000000000000e-01 5.5531132763853375e-01 1.0073572719671779e+01 9.7527236764107670e+00 1 0 0
1002 54 2 1.1500000000000000e-01 -2.5316190169593606e+00 1.0314828151153980e+01 9.9676184320680203e+00 1 0 0
1755 94 7 -1.1500000000000000e-01 -5.2656853401206920e+00 1.4296047955961045e+01 1.2870337650338657e+01 1 0 0
1007 54 4 -1.1500000000000000e-01 -5.7076103367153328e+00 7.1512130134224883e+00 1.1050891787444122e+01 1 0 0
1737 93 7 -1.1500000000000000e-01 -8.5970110188129922e-01 1.4639854263709056e+01 5.3163305025069727e+00 1 0 0
1740 93 4 -1.1500000000000000e-01 6.5106708795073187e-01 1.5612349295358765e+01 2.0327441658276690e+00 1 0 0
1744 93 2 1.1500000000000000e-01 1.1846387223905990e+00 1.6525979535017637e+01 2.3208415078593481e+00 1 0 0
1768 94 1 -1.1500000000000000e-01 -3.8783847700425791e+00 1.5666333163645364e+01 8.4166154928712533e+00 1 0 0
1750 93 1 -1.1500000000000000e-01 8.3001395654183407e-01 1.5086650646652947e+01 7.4843374117271555e-01 1 0 0
2112 113 2 1.1500000000000000e-01 3.9082712092447709e+00 1.5549304322015502e+01 5.6145107451776317e+00 1 0 0
2119 114 1 -1.1500000000000000e-01 5.7574083210600513e-01 1.5765432794569845e+01 8.2035100809225696e+00 1 0 0
1756 94 5 -1.1500000000000000e-01 -4.6231715692387816e+00 1.5176133904373540e+01 1.2000807981968189e+01 1 0 0
1743 93 2 1.1500000000000000e-01 4.1254232401948787e-01 1.6275410025420157e+01 4.6541243746062282e+00 1 0 0
2127 114 4 -1.1500000000000000e-01 6.2039522259419577e-01 1.5498548052280482e+01 9.5471954253149072e+00 1 0 0
1772 94 2 1.1500000000000000e-01 -3.5471911818107493e+00 1.6487198387143479e+01 7.8204166164506788e+00 1 0 0
1739 93 3 0.0000000000000000e+00 -8.9639134688234812e-02 1.4907532992382338e+01 2.9904297812367973e+00 1 0 0
1754 93 2 1.1500000000000000e-01 1.5062199131272218e+00 1.5565882754998173e+01 6.3285472623169914e-02 1 0 0
2097 113 7 -1.1500000000000000e-01 4.4154293654812626e+00 1.7351004834062952e+01 1.1598382312502804e+00 1 0 0
2131 114 2 1.1500000000000000e-01 9.1725099385565123e-01 1.4517152450515885e+01 9.9601385108688110e+00 1 0 0
2101 113 1 -1.1500000000000000e-01 4.9186408803427417e+00 1.6154028039752031e+01 1.7017490518046738e+00 1 0 0
2113 113 2 1.1500000000000000e-01 4.8264109273923079e+00 1.4971170451602765e+01 3.5819188400172544e+00 1 0 0
1738 93 5 -1.1500000000000000e-01 -1.2992541444186267e-01 1.5361424148113292e+01 4.3229826529786886e+00 1 0 0
2108 113 3 0.0000000000000000e+00 3.8126978562886671e+00 1.6763133275102987e+01 3.7605637346695797e+00 1 0 0
2109 113 4 -1.1500000000000000e-01 4.5446424440519264e+00 1.5840940139113304e+01 3.0519232018626221e+00 1 0 0
2273 113 6 0.0000000000000000e+00 3.6317390652858923e+00 1.7338139987375900e+01 3.4014187674406133e+00 1 0 0
2106 113 1 -1.1500000000000000e-01 2.7305625289969089e+00 1.7361440553942352e+01 5.9407972336605610e+00 1 0 0
2107 113 4 -1.1500000000000000e-01 3.5699089400779589e+00 1.6480173486790971e+01 5.1393610963766641e+00 1 0 0
2111 113 2 1.1500000000000000e-01 2.4414721906254169e+00 1.7290811691200460e+01 6.9799801356539053e+00 1 0 0
2115 114 7 -1.1500000000000000e-01 3.6374666338137018e-02 1.6962004798626349e+01 7.7525180429244820e+00 1 0 0
2102 113 2 1.1500000000000000e-01 4.7476903343201897e+00 1.7725550352042379e+01 2.1600496585397588e-01 1 0 0
2120 114 2 1.1500000000000000e-01 -2.3061646873972386e-02 1.7174693823319288e+01 6.6777079369149677e+00 1 0 0
2123 114 2 1.1500000000000000e-01 8.4640192749705978e-01 1.4992982350129477e+01 7.5156020295818404e+00 1 0 0
1760 94 2 1.1500000000000000e-01 -5.0828957040848355e+00 1.4424223925872401e+01 1.3968231329376101e+01 1 0 0
2105 113 2 1.1500000000000000e-01 5.5913192430958443e+00 1.5552117700493028e+01 1.0644361107362632e+00 1 0 0
1742 93 2 1.1500000000000000e-01 -7.5225191380263423e-01 1.4955101393631718e+01 6.3067635845330612e+00 1 0 0
1764 94 1 -1.1500000000000000e-01 -4.4517498568028140e+00 1.4556311348366172e+01 7.7998938685277750e+00 1 0 0
2117 114 3 0.0000000000000000e+00 -4.7186697343244255e-01 1.7674806698884876e+01 9.9704984568295156e+00 1 0 0
1761 94 2 1.1500000000000000e-01 -4.0647069575730725e+00 1.5957288530321295e+01 1.2418492685879686e+01 1 0 0
2274 114 6 0.0000000000000000e+00 -2.7687625811833882e-01 1.7045495238462784e+01 1.0291816129488968e+01 1 0 0
2254 94 6 0.0000000000000000e+00 -5.0604496714033562e+00 1.4617029339938467e+01 1.0282320228456342e+01 1 0 0
2130 114 2 1.1500000000000000e-01 6.4262031244124618e-01 1.5287312745460737e+01 1.2131580736892749e+01 1 0 0
2124 114 1 -1.1500000000000000e-01 -4.5366093249964656e-01 1.7072505155280723e+01 1.2749459866795060e+01 1 0 0
2125 114 4 -1.1500000000000000e-01 1.7832308890345239e-01 1.6237244351790444e+01 1.1794706905683977e+01 1 0 0
2126 114 3 0.0000000000000000e+00 5.4192122922719577e-02 1.6478244623351504e+01 1.0427301923541075e+01 1 0 0
2129 114 2 1.1500000000000000e-01 -3.9640245445981037e-01 1.6827210587192070e+01 1.3798805632340111e+01 1 0 0
1757 94 3 0.0000000000000000e+00 -4.5456135183072002e+00 1.5038884089384265e+01 1.0638592167212833e+01 1 0 0
2513 133 2 1.1500000000000000e-01 -1.7046866246174224e+00 1.7844910181296022e+01 3.1108001287386045e+00 1 0 0
1762 94 2 1.1500000000000000e-01 -3.2832718172766349e+00 1.6816850722074573e+01 1.0183772582110501e+01 1 0 0
1753 93 2 1.1500000000000000e-01 -2.0407956048236753e+00 1.2138261253323071e+01 3.3067936265508728e+00 1 0 0
993 53 2 1.1500000000000000e-01 -1.9229483610525131e+00 6.2714644325276208e+00 3.0341941196727182e+00 1 0 0
251 14 2 1.1500000000000000e-01 -6.2893019977920277e+00 3.5834773164607446e-02 1.0961571705686532e+01 1 0 0
1027 55 2 1.1500000000000000e-01 -8.1435677526849126e+00 7.9575076275763230e+00 1.4298864833091283e+01 1 0 0
2116 114 5 -1.1500000000000000e-01 -5.2457507145293381e-01 1.7911409395912102e+01 8.6078738391139566e+00 1 0 0
4416 235 4 -1.1500000000000000e-01 -5.8528744606781888e+00 9.1191099241293716e-01 1.9053985619726106e+01 1 1 0
4420 235 2 1.1500000000000000e-01 -6.1283371498951222e+00 1.9568987084138456e+00 1.8781102140286357e+01 1 1 0
255 15 3 0.0000000000000000e+00 -8.7938088880299521e+00 3.1274988603979650e+00 1.8157715991710038e+01 1 0 0
256 15 4 -1.1500000000000000e-01 -8.0573690508041746e+00 3.8668157696770074e+00 1.7201432811473637e+01 1 0 0
260 15 2 1.1500000000000000e-01 -7.6005468177768662e+00 4.7928959860074070e+00 1.7443917376634396e+01 1 0 0
2164 116 1 -1.1500000000000000e-01 -1.0349110068797442e+01 1.7876407262715819e+01 2.8015004547877812e+01 1 0 0
4414 235 5 -1.1500000000000000e-01 -4.9046046723891257e+00 3.4737742009262412e-01 1.6829366983812545e+01 1 1 0
264 15 3 0.0000000000000000e+00 -9.3653106825588797e+00 1.8700070681722503e+00 1.7828947220127620e+01 1 0 0
262 15 1 -1.1500000000000000e-01 -8.3116253028733151e+00 2.0497619125717224e+00 1.5628520471264553e+01 1 0 0
266 15 1 -1.1500000000000000e-01 -7.7971715500052952e+00 3.2670786764238477e+00 1.5981411843495859e+01 1 0 0
263 15 4 -1.1500000000000000e-01 -9.1647908483103162e+00 1.3819430841182121e+00 1.6530520421778171e+01 1 0 0
735 15 6 0.0000000000000000e+00 -8.9198421311460070e+00 2.4189203376960213e+00 1.8051224369436923e+01 1 0 0
265 15 4 -1.1500000000000000e-01 -1.0062118870374285e+01 1.1065960690883265e+00 1.8741697396835718e+01 1 0 0
2256 96 6 0.0000000000000000e+00 -1.3144759134704872e+01 1.4351017726922898e+01 2.5043479998407136e+01 1 0 0
613 35 7 -1.1500000000000000e-01 -4.3781981671858770e+00 5.7206332140075764e+00 1.6190687321776515e+01 1 0 0
618 35 2 1.1500000000000000e-01 -4.2581933599239399e+00 6.3734602297466223e+00 1.5317513264005843e+01 1 0 0
615 35 3 0.0000000000000000e+00 -5.2810764222285087e+00 5.7508158116666408e+00 1.8407971219270951e+01 1 0 0
617 35 1 -1.1500000000000000e-01 -3.9204234664789848e+00 4.4006430285781457e+00 1.6429487066635282e+01 1 0 0
621 35 2 1.1500000000000000e-01 -3.4176068149177592e+00 3.8765300033291612e+00 1.5665220170560531e+01 1 0 0
624 35 3 0.0000000000000000e+00 -4.7273824621658918e+00 4.5086865106774026e+00 1.8661183820466974e+01 1 0 0
625 35 4 -1.1500000000000000e-01 -4.0230738510866848e+00 3.7898665618995722e+00 1.7647626011068670e+01 1 0 0
629 35 2 1.1500000000000000e-01 -3.6608018559203410e+00 2.8130055688701514e+00 1.7953802278651498e+01 1 0 0
755 35 6 0.0000000000000000e+00 -4.9571257786681562e+00 5.1176826788779159e+00 1.8443248118019859e+01 1 0 0
270 15 2 1.1500000000000000e-01 -7.1441758953622818e+00 3.6394259183374538e+00 1.5253589007592304e+01 1 0 0
614 35 5 -1.1500000000000000e-01 -5.1780204469887083e+00 6.3196034399632346e+00 1.7121955511609972e+01 1 0 0
4419 235 2 1.1500000000000000e-01 -5.2602598680480126e+00 1.2498151472821499e+00 1.6380662050178938e+01 1 1 0
1025 55 4 -1.1500000000000000e-01 -9.7992487526535648e+00 6.7447647904443935e+00 1.8341223269424212e+01 1 0 0
616 35 4 -1.1500000000000000e-01 -5.9532362267628853e+00 6.5424502951330243e+00 1.9383467276315276e+01 1 0 0
2151 116 7 -1.1500000000000000e-01 -8.9020213088278624e+00 1.7672963910540130e+01 2.3420418372121599e+01 1 0 0
1029 55 2 1.1500000000000000e-01 -1.0372198462326097e+01 5.8986454108631641e+00 1.7945394179744483e+01 1 0 0
254 15 5 -1.1500000000000000e-01 -8.9371499952940319e+00 3.5694221729008722e+00 1.9513143469738740e+01 1 0 0
280 16 1 -1.1500000000000000e-01 -1.2729047729797200e+01 2.3696219339489830e+00 2.3078853577984653e+01 1 0 0
231 13 2 1.1500000000000000e-01 -1.6305476736306481e+01 2.3495954593245734e+00 2.9394804662677966e+01 1 0 -1
258 15 2 1.1500000000000000e-01 -1.0016258690149844e+01 3.2632067925021300e+00 2.1315296444255026e+01 1 0 0
634 36 4 -1.1500000000000000e-01 -1.0185200894149752e+01 6.3977148619098703e+00 2.6176691754260972e+01 1 0 0
4433 236 3 0.0000000000000000e+00 -9.5338881238824875e+00 4.3593426282996249e-02 2.5612336415468345e+01 1 1 0
257 15 1 -1.1500000000000000e-01 -1.0349673208353501e+01 1.6578782017439448e+00 2.0018519063181451e+01 1 0 0
284 16 1 -1.1500000000000000e-01 -1.2202661866557037e+01 3.5970256596145904e+00 2.3596659097370136e+01 1 0 0
279 16 2 1.1500000000000000e-01 -1.4601286312986304e+01 6.2099468274113734e-01 2.8469325355894558e+01 1 0 0
1805 96 2 1.1500000000000000e-01 -1.2344371246569816e+01 1.3751486877072105e+01 2.1768092593139979e+01 1 0 0
288 16 2 1.1500000000000000e-01 -1.1760183765720404e+01 4.2108499182975931e+00 2.2810445551458315e+01 1 0 0
271 16 7 -1.1500000000000000e-01 -1.3710794684454260e+01 2.5483800588776293e+00 2.8090146998910157e+01 1 0 0