LAMMPS (15 May 2015)
Reading data file ...
  triclinic box = (-0.107635 -0.0404339 -0.357111) to (41.3876 35.9384 29.5551) with tilt (-0.0672341 -17.0362 -0.0417078)
  5 by 2 by 2 MPI processor grid
  reading atoms ...
  4560 atoms
  reading velocities ...
  4560 velocities
  scanning bonds ...
  3 = max bonds/atom
  scanning angles ...
  3 = max angles/atom
  scanning dihedrals ...
  8 = max dihedrals/atom
  scanning impropers ...
  1 = max impropers/atom
  reading bonds ...
  5040 bonds
  reading angles ...
  7200 angles
  reading dihedrals ...
  10560 dihedrals
  reading impropers ...
  2400 impropers
Finding 1-2 1-3 1-4 neighbors ...
 Special bond factors lj:   0          0          0         
 Special bond factors coul: 0          0          0         
  4 = max # of 1-2 neighbors
  8 = max # of 1-3 neighbors
  20 = max # of 1-4 neighbors
  16 = max # of special neighbors
4560 atoms in group all
720 atoms in group C
480 atoms in group S
1920 atoms in group H
720 atoms in group Si
240 atoms in group Na
240 atoms in group Ba
240 atoms in group O
4560 atoms in group naphthalene
1200 atoms in group fixed
960 atoms in group CO
Setting atom values ...
  720 settings made for charge
Setting atom values ...
  720 settings made for charge
Setting atom values ...
  1920 settings made for charge
Setting atom values ...
  480 settings made for charge
Setting atom values ...
  240 settings made for charge
Setting atom values ...
  240 settings made for charge
Setting atom values ...
  240 settings made for charge
Finding 1-2 1-3 1-4 neighbors ...
 Special bond factors lj:   0          0          0.5       
 Special bond factors coul: 0          0          0.5       
  4 = max # of 1-2 neighbors
  8 = max # of 1-3 neighbors
  20 = max # of 1-4 neighbors
  16 = max # of special neighbors
PPPM initialization ...
  G vector (1/distance) = 0.253736
  grid = 20 18 24
  stencil order = 5
  estimated absolute RMS force accuracy = 0.00131269
  estimated relative force accuracy = 3.95312e-06
  using double precision FFTs
  3d grid and FFT values/proc = 3344 720
Neighbor list info ...
  6 neighbor list requests
  update every 1 steps, delay 0 steps, check yes
  master list distance cutoff = 12
Setting up run ...
Memory usage per processor = 14.3555 Mbytes
Step Temp Density PotEng E_vdwl E_tail E_coul E_long Press Volume Xy Xz Yz E_mol E_bond E_angle E_dihed 14[1] 14[2] 14[3] msd[4] msd2[4] msd3[4] msd4[4] naphthal Cella Cellb Cellc CellAlpha CellBeta CellGamma 27[1] 27[2] 27[3] 
       0          298    1.2509986    3224.1201   -36.846462   -6.6462769    2133.4636   -2371.3301   -15471.795    44657.537 -0.067234084   -17.036218 -0.041707817     3498.833    1521.0094     935.4334    889.67826    28.379601    18.846571    14.337846 2.3535127e-29 2.7422013e-29 2.2534249e-29 2.2900766e-29          298     41.49527    35.978931    34.423473    90.016431    119.66323    90.107069    28.379761    18.846182    14.337739 
   10000    299.78962    1.2509986    3408.1494   -28.942172   -6.6462769    2137.7195   -2371.2493   -9292.3022    44657.537 -0.067234084   -17.036218 -0.041707817    3670.6214    1519.9167    1001.7746    973.14547     28.38058    18.845668    14.337696 0.00030028953 0.00030024038 0.00030795845 0.00030785495    299.78962     41.49527    35.978931    34.423473    90.016431    119.66323    90.107069    28.379664    18.846178    14.337938 
   20000    298.55261    1.2509986    3371.6007   -29.337556   -6.6462769     2136.211   -2371.5723   -8567.4209    44657.537 -0.067234084   -17.036218 -0.041707817    3636.2996    1516.7807    978.57363     969.5163    28.376771    18.844301     14.33671 0.00031369934 0.00031353891 0.00032016715 0.00031990795    298.55261     41.49527    35.978931    34.423473    90.016431    119.66323    90.107069    28.379724    18.845793    14.337826 
   30000    297.82309    1.2509986    3313.2865    -28.88633   -6.6462769    2136.9031   -2371.9854   -8860.9462    44657.537 -0.067234084   -17.036218 -0.041707817    3577.2552     1487.699    987.55763    940.97765    28.379506    18.847557    14.338056 0.00033132773 0.00033097135 0.00033487453 0.00033449302    297.82309     41.49527    35.978931    34.423473    90.016431    119.66323    90.107069    28.380174    18.846487    14.337434 
   40000    291.93669    1.2509986    3298.1886   -29.577622   -6.6462769    2135.5099   -2371.8656   -9920.8492    44657.537 -0.067234084   -17.036218 -0.041707817    3564.1219     1487.358    980.45368    931.07652    28.378486    18.845143    14.337531 0.0003416778 0.00034158991 0.00034079228 0.00034075905    291.93669     41.49527    35.978931    34.423473    90.016431    119.66323    90.107069    28.379672    18.846287    14.338002 
   50000    303.20839    1.2509986    3319.4449   -29.187875   -6.6462769      2134.23   -2371.6511   -7545.1255    44657.537 -0.067234084   -17.036218 -0.041707817    3586.0539    1520.1257    994.73704    912.94672    28.381672    18.846704    14.337812 0.00032342474 0.00032305074 0.00032780876 0.00032723794    303.20839     41.49527    35.978931    34.423473    90.016431    119.66323    90.107069    28.380239    18.846402    14.338051 
   60000    299.89795    1.2509986    3288.4885   -29.605672   -6.6462769    2133.5747   -2371.8534   -9897.2719    44657.537 -0.067234084   -17.036218 -0.041707817    3556.3729    1478.9612    976.30178    938.41325    28.378754    18.844591    14.337037 0.0003268478 0.00032594235 0.00033107979 0.00033016731    299.89795     41.49527    35.978931    34.423473    90.016431    119.66323    90.107069     28.38002     18.84527    14.337821 
   70000    298.84678    1.2509986    3271.0106   -29.312235   -6.6462769    2136.6314   -2371.6285   -8232.0828    44657.537 -0.067234084   -17.036218 -0.041707817      3535.32    1530.5234    966.67838    884.70191    28.380751    18.846832    14.337318 0.00033517068 0.00033489355 0.00034121718 0.00034109413    298.84678     41.49527    35.978931    34.423473    90.016431    119.66323    90.107069     28.37987    18.846625    14.337477 
   80000    299.86841    1.2509986    3234.9813   -29.997318   -6.6462769    2136.8658   -2371.5782   -6437.6167    44657.537 -0.067234084   -17.036218 -0.041707817     3499.691    1480.8591    956.09478    910.12591    28.378233    18.846003    14.336276 0.00034579161 0.00034557501 0.00034862752 0.0003483506    299.86841     41.49527    35.978931    34.423473    90.016431    119.66323    90.107069    28.379864    18.846603     14.33791 
   90000    294.71811    1.2509986    3359.8106   -29.009976   -6.6462769    2135.6847   -2372.0475   -9666.8366    44657.537 -0.067234084   -17.036218 -0.041707817    3625.1833    1547.0718     981.0079    934.63783    28.380798      18.8454    14.337077 0.00035005879 0.00034929836 0.00034684464 0.0003462772    294.71811     41.49527    35.978931    34.423473    90.016431    119.66323    90.107069    28.379809    18.845779    14.336967 
  100000    296.94733    1.2509986    3244.1755   -29.629145   -6.6462769    2138.3258   -2371.2865   -8846.7156    44657.537 -0.067234084   -17.036218 -0.041707817    3506.7653    1446.5391    987.01968    915.40409    28.378069    18.847539    14.337641 0.00035073714 0.00035069664 0.00035739144 0.00035723471    296.94733     41.49527    35.978931    34.423473    90.016431    119.66323    90.107069    28.379739    18.846057    14.337895 
  110000    296.75637    1.2509986    3284.8843   -28.821317   -6.6462769    2136.5097   -2371.7799   -8916.5374    44657.537 -0.067234084   -17.036218 -0.041707817    3548.9758     1483.718    998.38605    910.23851    28.378554    18.846793    14.338184 0.00032954855 0.00032904395 0.00033769575 0.00033711111    296.75637     41.49527    35.978931    34.423473    90.016431    119.66323    90.107069     28.38026    18.846366     14.33821 
  120000    307.71559    1.2509986    3231.0079     -30.2845   -6.6462769    2135.4542   -2371.7504      -8646.8    44657.537 -0.067234084   -17.036218 -0.041707817    3497.5887    1466.0329    973.41044    899.81084    28.381287    18.845502    14.338258 0.00034985394 0.00034976377 0.00035101207 0.00035087699    307.71559     41.49527    35.978931    34.423473    90.016431    119.66323    90.107069    28.379894    18.846435    14.337831 
  130000    303.93072    1.2509986    3253.8324   -30.164633   -6.6462769    2135.9888   -2371.8632   -9270.8072    44657.537 -0.067234084   -17.036218 -0.041707817    3519.8714    1515.2212    946.92075    901.58126    28.381118    18.845104    14.336841 0.00034895873 0.00034893179 0.00035207208 0.00035206405    303.93072     41.49527    35.978931    34.423473    90.016431    119.66323    90.107069    28.379829    18.846108    14.337869 
  140000    300.68979    1.2509986    3256.0558   -29.712756   -6.6462769    2140.4392   -2371.3494    -7568.181    44657.537 -0.067234084   -17.036218 -0.041707817    3516.6788    1504.0227    967.07802    892.65572     28.37785    18.846749    14.337043 0.00034556141 0.00034496004 0.00035341043 0.00035245414    300.68979     41.49527    35.978931    34.423473    90.016431    119.66323    90.107069    28.379673    18.846925    14.337535 
  150000    295.35362    1.2509986    3204.8538   -30.341516   -6.6462769    2137.7195   -2372.0182   -8371.7352    44657.537 -0.067234084   -17.036218 -0.041707817     3469.494    1505.0489    948.83605    865.90754    28.378063    18.846341    14.337156 0.00035309497 0.00035283428 0.00035596956 0.00035543077    295.35362     41.49527    35.978931    34.423473    90.016431    119.66323    90.107069    28.379503    18.846147    14.338178 
  160000    297.78959    1.2509986    3192.0183   -30.118274   -6.6462769    2135.4336   -2371.7508   -9326.0213    44657.537 -0.067234084   -17.036218 -0.041707817    3458.4538    1470.8313    986.91836    854.01818    28.378366    18.843704    14.337397 0.00033742711 0.00033723735 0.00034275603 0.00034254231    297.78959     41.49527    35.978931    34.423473    90.016431    119.66323    90.107069    28.380112    18.845937    14.337822 
  170000    293.56523    1.2509986    3285.7868   -29.895963   -6.6462769    2137.2643   -2371.1551   -9294.2389    44657.537 -0.067234084   -17.036218 -0.041707817    3549.5736    1512.4341    982.10485    897.49571    28.378306    18.845499    14.336884 0.00035562904 0.00035462948 0.00035681827 0.00035605398    293.56523     41.49527    35.978931    34.423473    90.016431    119.66323    90.107069    28.379183    18.846963    14.337504 
  180000    299.41018    1.2509986    3288.7606   -29.782603   -6.6462769    2135.9905   -2371.6337   -9515.1586    44657.537 -0.067234084   -17.036218 -0.041707817    3554.1864    1499.6278    991.15643    912.43102    28.381707     18.84588    14.337936 0.00033257491 0.00033221974 0.00033275187 0.0003319759    299.41018     41.49527    35.978931    34.423473    90.016431    119.66323    90.107069    28.379602    18.846657    14.337415 
  190000    298.14375    1.2509986    3282.0184   -29.197002   -6.6462769     2137.294   -2371.8107   -10220.694    44657.537 -0.067234084   -17.036218 -0.041707817    3545.7321    1503.3344    974.42972    917.01139    28.381205    18.846528    14.337946 0.00034769546 0.00034765138 0.00034409566 0.00034394021    298.14375     41.49527    35.978931    34.423473    90.016431    119.66323    90.107069    28.379887    18.846323    14.337648 
  200000    299.63563    1.2509986     3236.465   -29.272704   -6.6462769    2132.3101   -2372.1341   -10403.214    44657.537 -0.067234084   -17.036218 -0.041707817    3505.5617    1505.9424    928.45465    912.84973    28.378592    18.846265    14.337333 0.00034904282 0.00034846957 0.00035680729 0.00035536126    299.63563     41.49527    35.978931    34.423473    90.016431    119.66323    90.107069    28.379121    18.846565    14.337873 
Loop time of 522.009 on 20 procs for 200000 steps with 4560 atoms

Pair  time (%) = 324.576 (62.1782)
Bond  time (%) = 34.5099 (6.61097)
Kspce time (%) = 117.523 (22.5136)
Neigh time (%) = 6.6472 (1.27339)
Comm  time (%) = 23.4965 (4.50117)
Outpt time (%) = 0.0645699 (0.0123695)
Other time (%) = 15.1923 (2.91034)

Nlocal:    228 ave 239 max 221 min
Histogram: 1 4 2 7 0 2 2 1 0 1
Nghost:    5779.65 ave 5836 max 5745 min
Histogram: 3 1 5 4 2 1 1 1 1 1
Neighs:    84314.6 ave 88792 max 80232 min
Histogram: 1 0 3 4 4 4 2 0 1 1

Total # of neighbors = 1686293
Ave neighs/atom = 369.801
Ave special neighs/atom = 10.6316
Neighbor list builds = 1396
Dangerous builds = 0
System init for write_data ...
PPPM initialization ...
  G vector (1/distance) = 0.253736
  grid = 20 18 24
  stencil order = 5
  estimated absolute RMS force accuracy = 0.00131269
  estimated relative force accuracy = 3.95312e-06
  using double precision FFTs
  3d grid and FFT values/proc = 3344 720
