 Data file for a-pineneO2, ver. b, + ethanol peroxy

          39  atoms
          38  bonds
          69  angles
          51  dihedrals
           2  impropers

          39  atom types
          38  bond types
          69  angle types
          51  dihedral types
           2  improper types

   -75.00000000       75.000000000000000      xlo xhi
   -75.00000000       75.000000000000000      ylo yhi
   -75.00000000       75.000000000000000      zlo zhi

 Masses

   1   12.011
   2   12.011
   3   12.011
   4   12.011
   5    1.008
   6    1.008
   7    1.008
   8    1.008
   9   12.011
  10    1.008
  11    1.008
  12    1.008
  13   12.011
  14    1.008
  15    1.008
  16    1.008
  17   12.011
  18    1.008
  19   12.011
  20   15.999
  21   12.011
  22    1.008
  23    1.008
  24    1.008
  25   12.011
  26    1.008
  27   15.999
  28   15.999
  29   15.999
       30     15.999  
       31     12.011  
       32     12.011  
       33     15.999  
       34     15.999  
       35      1.008  
       36      1.008  
       37      1.008  
       38      1.008  
       39      1.008  

 Pair Coeffs

   1    0.0830    3.4500
   2    0.0830    3.4500
   3    0.0830    3.4500
   4    0.0830    3.4500
   5    0.0300    2.5000
   6    0.0300    2.5000
   7    0.0300    2.5000
   8    0.0300    2.5000
   9    0.0660    3.5000
  10    0.0300    2.5000
  11    0.0300    2.5000
  12    0.0300    2.5000
  13    0.0660    3.5000
  14    0.0300    2.5000
  15    0.0300    2.5000
  16    0.0300    2.5000
  17    0.0660    3.5000
  18    0.0300    2.5000
  19    0.0700    3.5500
  20    0.2100    2.9600
  21    0.0660    3.5000
  22    0.0300    2.5000
  23    0.0300    2.5000
  24    0.0300    2.5000
  25    0.0700    3.5500
  26    0.0300    2.5000
  27    0.2100    2.9600
  28    0.1400    2.9000
  29    0.1400    2.9000
       30      0.170  3.1200000 
       31      0.066  3.5000000 
       32      0.066  3.5000000 
       33      0.140  2.9000000 
       34      0.140  2.9000000 
       35      0.000  0.0000000 
       36      0.030  2.5000000 
       37      0.030  2.5000000 
       38      0.030  2.5000000 
       39      0.030  2.5000000 

 Bond Coeffs

   1  260.0000    1.5200
   2  260.0000    1.5200
   3  260.0000    1.5200
   4  340.0000    1.0880
   5  340.0000    1.0880
   6  340.0000    1.0880
   7  340.0000    1.0880
   8  280.0000    1.5100
   9  340.0000    1.0900
  10  340.0000    1.0900
  11  340.0000    1.0900
  12  280.0000    1.5100
  13  340.0000    1.0900
  14  340.0000    1.0900
  15  340.0000    1.0900
  16  280.0000    1.5100
  17  340.0000    1.0900
  18  317.0000    1.5220
  19  570.0000    1.2290
  20  317.0000    1.5220
  21  340.0000    1.0900
  22  340.0000    1.0900
  23  340.0000    1.0900
  24  317.0000    1.5220
  25  340.0000    1.0900
  26  570.0000    1.2290
  27  320.0000    1.4100
  28  469.2840    1.3226
  29  260.0000    1.5200
       30   320.0000     1.4100 
       31   268.0000     1.5290 
       32   320.0000     1.4100 
       33   469.2840     1.3226 
       34   553.0000     0.9450 
       35   340.0000     1.0900 
       36   340.0000     1.0900 
       37   340.0000     1.0900 
       38   340.0000     1.0900 

 Angle Coeffs

   1   30.0000   83.0000
   2   30.0000   83.0000
   3   37.5000  117.2000
   4   37.5000  117.2000
   5   37.5000  117.2000
   6   37.5000  117.2000
   7   37.5000  117.2000
   8   37.5000  110.7000
   9   37.5000  110.7000
  10   37.5000  110.7000
  11   37.5000  117.2000
  12   37.5000  110.7000
  13   37.5000  110.7000
  14   37.5000  110.7000
  15   37.5000  117.2000
  16   37.5000  110.7000
  17   63.0000  111.1000
  18   80.0000  120.4000
  19   70.0000  116.0000
  20   35.0000  109.5000
  21   35.0000  109.5000
  22   37.5000  110.7000
  23   63.0000  111.1000
  24   35.0000  115.0000
  25   80.0000  120.4000
  26   50.0000  109.5000
  27   85.0220  110.0400
  28   35.0000  114.3000
  29   35.0000  114.3000
  30   80.0000  120.4000
  31   35.0000  109.5000
  32   37.5000  117.2000
  33   35.0000  109.5000
  34   35.0000  114.3000
  35   30.0000   83.0000
  36   33.0000  107.8000
  37   33.0000  107.8000
  38   37.5000  117.2000
  39   33.0000  107.8000
  40   33.0000  107.8000
  41   35.0000  109.5000
  42   30.0000   83.0000
  43   35.0000  123.0000
  44   33.0000  107.8000
  45   37.5000  117.2000
  46   37.5000  117.2000
  47   63.0000  111.1000
  48   33.0000  107.8000
  49   33.0000  107.8000
  50   37.5000  117.2000
  51   33.0000  107.8000
  52   35.0000  109.5000
  53   35.0000  109.5000
  54   37.5000  117.2000
  55   37.5000  117.2000
       56     50.000    109.500
       57     50.000    109.500
       58     85.022    110.040
       59     55.000    108.500
       60     35.000    109.500
       61     35.000    109.500
       62     37.500    110.700
       63     37.500    110.700
       64     35.000    109.500
       65     33.000    107.800
       66     33.000    107.800
       67     37.500    110.700
       68     37.500    110.700
       69     35.000    109.500

 Dihedral Coeffs

   1    0.0000    0.0000    0.3000    0.0000
   2    0.0000    0.0000    0.3000    0.0000
   3    0.0000    0.0000    0.3000    0.0000
   4    0.0000    0.0000    0.2750    0.0000
   5    0.6500   -0.2500    0.6700    0.0000
   6    0.0000    0.0000    0.3600    0.0000
   7    0.0000    0.0000    0.3000    0.0000
   8    0.0000    0.0000   -0.1000    0.0000
   9    0.0000    0.0000    0.3000    0.0000
  10    0.0000    0.0000    0.7600    0.0000
  11    0.0000    0.0000    0.3000    0.0000
  12    0.0000    0.0000    0.3000    0.0000
  13    0.0000    0.0000    0.3000    0.0000
  14    0.0000    0.0000    0.3000    0.0000
  15    0.0000    0.0000    0.3000    0.0000
  16    0.0000    0.0000    0.3000    0.0000
  17    0.0000    0.0000    0.3000    0.0000
  18    0.0000    0.0000    0.3000    0.0000
  19    0.0000    0.0000    0.3000    0.0000
  20    0.0000    1.5000    0.0000    0.0000
  21    0.0000    0.0000    0.3000    0.0000
  22    0.0000    0.0000    0.3000    0.0000
  23    0.0000    0.0000    0.3000    0.0000
  24    0.0000    0.0000    0.7600    0.0000
  25    0.0000    0.0000    0.2750    0.0000
  26    0.0000    0.0000    0.3000    0.0000
  27   -2.0600   -0.3130    0.3150    0.0000
  28   -2.0600   -0.3130    0.3150    0.0000
  29    0.0000    0.0000    0.3000    0.0000
  30    0.0000    0.0000    0.3000    0.0000
  31    0.0000    0.0000    0.3000    0.0000
  32    0.0000    0.0000    0.3000    0.0000
  33    0.0000    0.0000    0.2750    0.0000
  34    0.0000    0.0000    0.3600    0.0000
  35    0.0000    0.0000    0.3000    0.0000
  36    0.0000    0.0000    0.3000    0.0000
       37      4.319      0.000      0.000      0.000 
       38      0.650     -0.250      0.670      0.000 
       39     -0.356     -0.174      0.492      0.000 
       40      0.000      0.000      0.300      0.000 
       41      0.000      0.000      0.468      0.000 
       42      0.000      0.000      0.468      0.000 
       43      0.000      0.000      0.468      0.000 
       44      0.000      0.000      0.300      0.000 
       45      0.000      0.000      0.300      0.000 
       46      0.000      0.000      0.468      0.000 
       47      0.000      0.000      0.300      0.000 
       48      0.000      0.000      0.760      0.000 
       49      0.000      0.000      0.352      0.000 
       50      0.000      0.000      0.760      0.000 
       51      0.000      0.000      0.352      0.000 

 Improper Coeffs

   1   10.5000  -1   2
   2   10.5000  -1   2

 Atoms

   1  1  1    -0.0332    -0.4229     0.6571     0.0296
   2  1  2    -0.1965     0.0557    -0.4278     1.1295
   3  1  3    -0.1128    -1.7908    -0.1372    -0.0875
   4  1  4    -0.1758    -1.3556    -1.0866     1.0769
   5  1  5     0.1145    -1.3223    -2.1583     0.8005
   6  1  6     0.1145    -1.9311    -0.9551     2.0123
   7  1  7     0.1242    -2.6529     0.5149     0.1535
   8  1  8     0.1470     0.3316     0.0636     2.0794
   9  1  9    -0.2286    -0.6053     2.0346     0.6822
  10  1 10     0.0921     0.3788     2.4500     0.9847
  11  1 11     0.0921    -1.2456     1.9601     1.5869
  12  1 12     0.0921    -1.0955     2.7224    -0.0389
  13  1 13    -0.2368     0.4318     0.7838    -1.2426
  14  1 14     0.0959     1.4158     1.2309    -0.9962
  15  1 15     0.0959    -0.0867     1.4418    -1.9669
  16  1 16     0.0959     0.6096    -0.1983    -1.7265
  17  1 17    -0.2541    -2.0755    -0.8669    -1.4053
  18  1 18     0.1300    -1.1983    -1.4690    -1.7363
  19  1 19     0.3492     1.1938    -1.2932     0.6522
  20  1 20    -0.3940     1.0619    -2.3467     0.0339
  21  1 21     0.0143     2.6442    -0.8015     0.9413
  22  1 22     0.1301     2.9722    -1.1993     1.9250
  23  1 23     0.1301     3.3133    -1.1415     0.1277
  24  1 24     0.1300    -2.8906    -1.6169    -1.2653
  25  1 25     0.2716    -2.4965     0.0372    -2.5529
  26  1 26     0.0977    -2.7722    -0.5119    -3.5055
  27  1 27    -0.3894    -2.5556     1.2581    -2.4932
  28  1 28    -0.1540     2.7814     0.6604     0.9742
  29  1 29    -0.1450     2.4141     1.1827     2.1655
  30  2 30    -0.5837    59.4900     0.4213    -2.2855
  31  2 31     0.0072    60.3665     0.4585    -1.1664
  32  2 32     0.0702    59.6896    -0.1372     0.0596
  33  2 33    -0.1540    60.5925    -0.0835     1.1626
  34  2 34    -0.1450    59.8700    -0.6699     2.2816
  35  2 35     0.4189    59.9710     0.8128    -3.0348
  36  2 36     0.0804    60.6554     1.4977    -0.9761
  37  2 37     0.0804    61.2765    -0.1003    -1.4095
  38  2 38     0.1128    59.4038    -1.1775    -0.1356
  39  2 39     0.1128    58.7790     0.4250     0.2980

 Bonds

           1           1           2           1
           2           2           3           1
           3           3           4           2
           4           4           5           4
           5           5           6           4
           6           6           7           3
           7           7           8           2
           8           8           9           1
           9           9          10           9
          10          10          11           9
          11          11          12           9
          12          12          13           1
          13          13          14          13
          14          14          15          13
          15          15          16          13
          16          16          17           3
          17          17          18          17
          18          18          19           2
          19          19          20          19
          20          20          21          19
          21          21          22          21
          22          22          23          21
          23          23          24          17
          24          24          25          17
          25          25          26          25
          26          26          27          25
          27          27          28          21
          28          28          29          28
          29          29           4           3
30  30  31  30
31  31  32  31
32  32  33  32
33  33  34  33
34  34  35  30
35  35  36  31
36  36  37  31
37  37  38  32
38  38  39  32

 Angles

           1           1           2           1           3
           2           2           1           2           4
           3           3           2           4           5
           4           4           2           4           6
           5           5           1           3           7
           6           6           1           2           8
           7           7           2           1           9
           8           8           1           9          10
           9           9           1           9          11
          10          10           1           9          12
          11          11           2           1          13
          12          12           1          13          14
          13          13           1          13          15
          14          14           1          13          16
          15          15           1           3          17
          16          16           3          17          18
          17          17           1           2          19
          18          18           2          19          20
          19          19           2          19          21
          20          20          19          21          22
          21          21          19          21          23
          22          22           3          17          24
          23          23           3          17          25
          24          24          17          25          26
          25          25          17          25          27
          26          26          19          21          28
          27          27          21          28          29
          28          28           9           1          13
          29          29           5           4           6
          30          30          20          19          21
          31          31          24          17          25
          32          32           4           2           8
          33          33           8           2          19
          34          34           7           3          17
          35          35           2           4           3
          36          36          15          13          16
          37          37          22          21          23
          38          38           4           3           7
          39          39          10           9          12
          40          40          11           9          12
          41          41          23          21          28
          42          42           1           3           4
          43          43          26          25          27
          44          44          14          13          15
          45          45           3           1          13
          46          46           3           4           6
          47          47           4           2          19
          48          48          10           9          11
          49          49          14          13          16
          50          50           4           3          17
          51          51          18          17          24
          52          52          18          17          25
          53          55          22          21          28
          54          54           3           1           9
          55          55           3           4           5
56  56  30  31 32
57  57  31  32 33
58  58  32  33 34
59  59  31  30 35
60  60  30  31 36
61  61  30  31 37
62  62  31  32 38
63  63  31  32 39
64  64  33  32 38
65  65  38  32 39
66  66  36  31 37
67  67  32  31 36
68  68  32  31 37
69  69  33  32 39

 Dihedrals

           1           1          10           9           1           2
           2           2          14          13           1           2
           3           3          18          17           3           1
           4           4          22          21          19           2
           5           5          29          28          21          19
           6           6          26          25          17          18
           7           7          14          13           1           9
           8           8          25          17           3           7
           9           9          13           1           9          11
          10          10          29          28          21          23
          11          11          24          17           3           7
          12          12          24          17           3           4
          13          13          18          17           3           7
          14          14          24          17           3           1
          15          15          15          13           1           2
          16          16          15          13           1           9
          17          17          14          13           1           3
          18          18          13           1           9          10
          19          19          11           9           1           2
          20          20          28          21          19           2
          21          21          10           9           1           3
          22          22          16          13           1           2
          23          23          15          13           1           3
          24          24          29          28          21          22
          25          25          21          19           2           8
          26          26          16          13           1           9
          27          27          25          17           3           4
          28          28          25          17           3           1
          29          29          18          17           3           4
          30          30          12           9           1           3
          31          31          13           1           9          12
          32          32          16          13           1           3
          33          33          23          21          19           2
          34          34          26          25          17          24
          35          35          12           9           1           2
          36          36          11           9           1           3
37  37  33  32  31  30
38  38  34  33  32  31
39  39  35  30  31  32
40  40  39  32  31  37
41  41  38  32  31  30
42  42  39  32  31  30
43  43  37  31  32  33
44  44  38  32  31  36
45  45  39  32  31  36
46  46  36  31  32  33
47  47  38  32  31  37
48  48  39  32  33  34
49  49  37  31  30  35
50  50  38  32  33  34
51  51  36  31  30  35

 Impropers

           1           1          19           2          20          21
           2           2          25          17          27          26
