LAMMPS description

80 atoms
48 bonds
48 angles
0 dihedrals
16 impropers

3 atom types
1 bond types
1 angle types
0 dihedral types
1 improper types

0.0000 10.825 xlo xhi
0.0000 18.351 ylo yhi
0.0000 6.435 zlo zhi

Masses

1 39.09830
2 14.00670
3 15.99950

Bond Coeffs

1 525.0 1.2676

Angle Coeffs

1 105.0 120.00000

Improper Coeffs

1 60.00 0.000

Atoms

1 1 1 1.0000000 0.000000 1.527000 4.900000
2 2 1 1.0000000 0.000000 7.653000 1.676000
3 3 1 1.0000000 0.000000 10.698000 4.893000
4 4 1 1.0000000 0.000000 16.823999 1.682000
5 5 1 1.0000000 2.704000 3.059000 1.615000
6 6 1 1.0000000 2.704000 15.292000 4.833000
7 7 1 1.0000000 2.708000 6.116000 4.833000
8 8 1 1.0000000 2.708000 12.235000 1.615000
9 9 1 1.0000000 5.412000 1.523000 4.893000
10 10 1 1.0000000 5.413000 7.649000 1.682000
11 11 1 1.0000000 5.413000 10.702000 4.900000
12 12 1 1.0000000 5.413000 16.827999 1.676000
13 13 1 1.0000000 8.117000 6.116000 4.833000
14 14 1 1.0000000 8.117000 12.235000 1.615000
