LAMMPS description

80 atoms
48 bonds
48 angles
0 dihedrals
16 impropers

3 atom types
1 bond types
1 angle types
0 dihedral types
1 improper types

0.0000 10.825 xlo xhi
0.0000 18.351 ylo yhi
0.0000 6.435 zlo zhi

Masses

1 39.09830
2 14.00670
3 15.99950

Bond Coeffs

1 525.0 1.2676

Angle Coeffs

1 105.0 120.00000

Improper Coeffs

1 60.00 0.000

Atoms

1 1 1 1.0000000 0.000000 1.527000 4.900000
2 2 1 1.0000000 0.000000 7.653000 1.676000
3 3 1 1.0000000 0.000000 10.698000 4.893000
4 4 1 1.0000000 0.000000 16.823999 1.682000
5 5 1 1.0000000 2.704000 3.059000 1.615000
6 6 1 1.0000000 2.704000 15.292000 4.833000
7 7 1 1.0000000 2.708000 6.116000 4.833000
8 8 1 1.0000000 2.708000 12.235000 1.615000
9 9 1 1.0000000 5.412000 1.523000 4.893000
10 10 1 1.0000000 5.413000 7.649000 1.682000
11 11 1 1.0000000 5.413000 10.702000 4.900000
12 12 1 1.0000000 5.413000 16.827999 1.676000
13 13 1 1.0000000 8.117000 6.116000 4.833000
14 14 1 1.0000000 8.117000 12.235000 1.615000
15 15 1  1.0000000  8.121000  3.059000 1.615000
16 16 1  1.0000000  8.121000 15.292000 4.833000
17 17 2  0.9500000  0.000000  4.557000 2.712000
18 17 3 -0.6500000  1.081000  5.193000 2.707000
19 17 3 -0.6500000 -1.081000  5.193000 2.707000
20 17 3 -0.6500000  0.000000  3.316000 2.664000
21 18 2  0.9500000  0.000000  4.645000 5.925000
22 18 3 -0.6500000  0.000000  5.894000 5.880000
23 18 3 -0.6500000 -1.097000  4.021000 5.951000
24 18 3 -0.6500000  1.097000  4.021000 5.951000
25 19 2  0.9500000  0.000000 13.706000 2.708000
26 19 3 -0.6500000  0.000000 12.457000 2.663000
27 19 3 -0.6500000  1.097000 14.330000 2.734000
28 19 3 -0.6500000 -1.097000 14.330000 2.734000
29 20 2  0.9500000  0.000000 13.794000 5.930000
30 20 3 -0.6500000  0.000000 15.035000 5.882000
31 20 3 -0.6500000  1.081000 13.158000 5.924000
32 20 3 -0.6500000 -1.081000 13.158000 5.924000
33 21 2  0.9500000  2.703000  9.137000 0.586000
34 21 3 -0.6500000  1.630000  9.750000 0.633000
35 21 3 -0.6500000  2.682000  7.884000 0.603000
36 21 3 -0.6500000  3.766000  9.765000 0.577000
37 22 2  0.9500000  2.703000  9.214000 3.804000
38 22 3 -0.6500000  1.630000  8.601000 3.851000
39 22 3 -0.6500000  2.682000 10.467000 3.820000
40 22 3 -0.6500000  3.766000  8.586000 3.794000
41 23 2  0.9500000  2.709000  0.039000 3.804000
42 23 3 -0.6500000  1.646000 -0.589000 3.794000
43 23 3 -0.6500000  2.730000  1.292000 3.820000
44 23 3 -0.6500000  3.782000 -0.574000 3.851000
45 24 2  0.9500000  2.709000 18.312000 0.586000
46 24 3 -0.6500000  2.730000 17.059000 0.603000
47 24 3 -0.6500000  1.646000 18.940001 0.577000
48 24 3 -0.6500000  3.782000 18.924999 0.633000
49 25 2  0.9500000  5.412000  4.531000 2.708000
50 25 3 -0.6500000  4.316000  5.155000 2.73400
51 25 3 -0.6500000  5.412000  3.281000 2.663000
52 25 3 -0.6500000  6.509000  5.155000 2.734000
53 26 2  0.9500000  5.412000  4.619000 5.930000
54 26 3 -0.6500000  6.494000  3.982000 5.924000
55 26 3 -0.6500000  4.331000  3.982000 5.924000
56 26 3 -0.6500000  5.412000  5.859000 5.882000
57 27 2  0.9500000  5.413000 13.732000 2.712000
58 27 3 -0.6500000  4.331000 14.369000 2.707000
59 27 3 -0.6500000  5.413000 12.492000 2.664000
60 27 3 -0.6500000  6.494000 14.369000 2.707000
61 28 2  0.9500000  5.413000 13.820000 5.925000
62 28 3 -0.6500000  5.413000 15.070000 5.880000
63 28 3 -0.6500000  4.316000 13.196000 5.951000
64 28 3 -0.6500000  6.509000 13.196000 5.95100
65 29 2  0.9500000  8.116000  0.039000 3.804000
66 29 3 -0.6500000  9.179000 -0.589000 3.794000
67 29 3 -0.6500000  7.043000 -0.574000 3.851000
68 29 3 -0.6500000  8.095000  1.292000 3.820000
69 30 2  0.9500000  8.116000 18.312000 0.586000
70 30 3 -0.6500000  7.043000 18.924999 0.633000
71 30 3 -0.6500000  8.095000 17.059000 0.603000
72 30 3 -0.6500000 9.179000 18.940001 0.577000
73 31 2 0.9500000 8.122000 9.137000 0.586000
74 31 3 -0.6500000 7.059000 9.765000 0.577000
75 31 3 -0.6500000 8.143000 7.884000 0.603000
76 31 3 -0.6500000 9.195000 9.750000 0.633000
77 32 2 0.9500000 8.122000 9.214000 3.804000
78 32 3 -0.6500000 7.059000 8.586000 3.794000
79 32 3 -0.6500000 8.143000 10.467000 3.820000
80 32 3 -0.6500000 9.195000 8.601000 3.851000

Bonds

1 1 17 18
2 1 17 19
3 1 17 20
4 1 21 22
5 1 21 23
6 1 21 24
7 1 25 26
8 1 25 27
9 1 25 28
10 1 29 30
11 1 29 31
12 1 29 32
13 1 33 34
14 1 33 35
15 1 33 36
16 1 37 38
17 1 37 39
18 1 37 40
19 1 41 42
20 1 41 43
21 1 41 44
22 1 45 46
23 1 45 47
24 1 45 48
25 1 49 50
26 1 49 51
27 1 49 52
28 1 53 54
29 1 53 55
30 1 53 56
31 1 57 58
32 1 57 59
33 1 57 60
34 1 61 62
35 1 61 63
36 1 61 64
37 1 65 66
38 1 65 67
39 1 65 68
40 1 69 70
41 1 69 71
42 1 69 72
43 1 73 74
44 1 73 75
45 1 73 76
46 1 77 78
47 1 77 79
48 1 77 80

Angles

1 1 18 17 19 
2 1 18 17 20 
3 1 19 17 20 
4 1 22 21 23 
5 1 22 21 24 
6 1 23 21 24 
7 1 26 25 27 
8 1 26 25 28 
9 1 27 25 28 
10 1 30 29 31 
11 1 30 29 32 
12 1 31 29 32 
13 1 34 33 35 
14 1 34 33 36 
15 1 35 33 36 
16 1 38 37 39 
17 1 38 37 40 
18 1 39 37 40 
19 1 42 41 43 
20 1 42 41 44 
21 1 43 41 44 
22 1 46 45 47 
23 1 46 45 48 
24 1 47 45 48 
25 1 50 49 51 
26 1 50 49 52 
27 1 51 49 52 
28 1 54 53 55 
29 1 54 53 56 
30 1 55 53 56 
31 1 58 57 59 
32 1 58 56 60
33 1 59 57 60
34 1 62 61 63
35 1 62 61 64
36 1 63 61 64
37 1 66 65 67
38 1 66 65 68
39 1 67 65 68
40 1 70 69 71
41 1 70 69 72
42 1 71 69 72
43 1 74 73 75
44 1 74 73 76
45 1 75 73 76
46 1 78 77 79
47 1 78 77 80
48 1 79 77 80 

Impropers

1 1 17 18 19 20
2 1 21 22 23 24
3 1 25 26 27 28
4 1 29 30 31 32
5 1 33 34 35 36
6 1 37 38 39 40
7 1 41 42 43 44
8 1 45 46 47 48
9 1 49 50 51 52
10 1 53 54 55 56
11 1 57 58 59 60
12 1 61 62 63 64
13 1 65 66 67 68
14 1 69 70 71 72
15 1 73 74 75 76
16 1 77 78 79 80