LAMMPS data file via write_data, version 15 May 2015, timestep = 590000

4560 atoms
7 atom types
5040 bonds
3 bond types
7200 angles
2 angle types
10560 dihedrals
3 dihedral types
2400 impropers
1 improper types

-1.0763502675555259e-01 4.1387635026745990e+01 xlo xhi
-4.0433884491974936e-02 3.5938433884472119e+01 ylo yhi
-3.5711112484589691e-01 2.9555111124838550e+01 zlo zhi
-6.7234083837551181e-02 -1.7036217651000683e+01 -4.1707816797290791e-02 xy xz yz

Masses

1 12.0107
2 1.008
3 12.0107
4 12.0107
5 12.0107
6 12.0107
7 12.0107

Pair Coeffs # lj/cut/coul/long

1 0.0212 3.55
2 0.00909 2.42
3 0.0212 3.55
4 0.0212 3.55
5 0.0212 3.55
6 0 0
7 0.0212 3.55

Bond Coeffs # harmonic

1 469 1.4
2 367 1.08
3 469 0.7

Angle Coeffs # harmonic

1 35 120
2 63 120

Dihedral Coeffs # opls

1 0 7.25 0 0
2 0 7.25 0 0
3 0 7.25 0 0

Improper Coeffs # cvff

1 2.5 -1 2

Atoms # full

219 13 3 0.0000000000000000e+00 -2.8857666667407300e-01 3.1220369338649276e+00 3.1722638715184215e+00 1 0 0
220 13 4 -1.1500000000000000e-01 3.0675673372802059e-01 4.1182532591320573e+00 2.3786040463308500e+00 1 0 0
224 13 2 1.1500000000000000e-01 5.2172602299465609e-01 5.0857740652147285e+00 2.9295377447208688e+00 1 0 0
580 33 4 -1.1500000000000000e-01 2.6610220233424942e+00 6.7561002696197017e+00 3.9759817154468173e+00 1 0 0
228 13 3 0.0000000000000000e+00 -5.4448950681578023e-01 1.8187321615443743e+00 2.6171537000790415e+00 1 0 0
989 53 4 -1.1500000000000000e-01 -1.3506957721400381e+00 7.0264551114372651e+00 3.5031534645620708e+00 1 0 0
600 34 2 1.1500000000000000e-01 8.6436655398071771e-02 5.8479460545064610e+00 7.0325624457393809e+00 1 0 0
245 14 4 -1.1500000000000000e-01 -4.9236052453883739e+00 1.4293175343953428e+00 9.0658055453577244e+00 1 0 0
227 13 4 -1.1500000000000000e-01 -1.8798625590139051e-01 1.5359475171849142e+00 1.2668946732876798e+00 1 0 0
4390 233 1 -1.1500000000000000e-01 2.2482500329839206e+00 6.5673834073289095e-01 5.4156118957119235e+00 1 1 0
733 13 6 0.0000000000000000e+00 -4.3042493260563819e-01 2.4374151158140336e+00 2.9449924816535220e+00 1 0 0
1756 94 5 -1.1500000000000000e-01 -4.6411624541474836e+00 1.5160931528945641e+01 1.2018180548497078e+01 1 0 0
230 13 1 -1.1500000000000000e-01 7.6447001846447027e-01 3.8090894210846167e+00 1.0690748560563175e+00 1 0 0
217 13 7 -1.1500000000000000e-01 -1.3783214135071917e+00 2.4117759608879603e+00 5.1998415957715034e+00 1 0 0
218 13 5 -1.1500000000000000e-01 -5.9056838707369863e-01 3.3779775443469795e+00 4.4957179587697338e+00 1 0 0
221 13 1 -1.1500000000000000e-01 -1.7225353009811799e+00 1.0969632877421114e+00 4.6279268974894467e+00 1 0 0
222 13 2 1.1500000000000000e-01 -1.6667280746293858e+00 2.6792567999364389e+00 6.2726983716637577e+00 1 0 0
223 13 2 1.1500000000000000e-01 -1.9849918241811793e-01 4.2808771682477813e+00 4.9736366587228273e+00 1 0 0
248 14 1 -1.1500000000000000e-01 -3.4869218313510322e+00 3.4558659425720637e+00 8.6365607422321293e+00 1 0 0
4380 233 4 -1.1500000000000000e-01 2.5851887305833832e+00 1.1271318067483853e+00 4.1388162678404941e+00 1 1 0
244 14 1 -1.1500000000000000e-01 -4.1352350013731503e+00 2.2828847514681381e+00 8.2417114393886681e+00 1 0 0
603 34 2 1.1500000000000000e-01 8.4171028410062032e-01 3.5824412205891112e+00 7.4887099098941201e+00 1 0 0
4396 234 5 -1.1500000000000000e-01 -7.6216864976102716e-01 1.9491234902370030e-01 9.2310949507867619e+00 1 1 0
4394 233 2 1.1500000000000000e-01 1.5449746073315707e+00 1.2416257684543857e+00 5.9486385533427386e+00 1 1 0
579 33 3 0.0000000000000000e+00 3.3480803369952956e+00 5.8488387824375785e+00 3.1969372813552344e+00 1 0 0
252 14 2 1.1500000000000000e-01 -3.0133442388809986e+00 4.0302164172813635e+00 7.8860679193422989e+00 1 0 0
581 33 1 -1.1500000000000000e-01 4.7131857435496514e+00 4.0592463574053674e+00 1.4890993109999053e+00 1 0 0
596 34 5 -1.1500000000000000e-01 -5.4763534504354183e-01 6.3131026265922010e+00 8.8753816929300164e+00 1 0 0
577 33 7 -1.1500000000000000e-01 4.0923824564811877e+00 5.2374070960036176e+00 9.1880000358723812e-01 1 0 0
588 33 3 0.0000000000000000e+00 3.8713498265519046e+00 4.7005502676733526e+00 3.7506429197749807e+00 1 0 0
589 33 4 -1.1500000000000000e-01 4.5165449398917428e+00 3.7271786364519217e+00 2.8586037687557244e+00 1 0 0
593 33 2 1.1500000000000000e-01 4.8365742999342567e+00 2.8430374289397879e+00 3.2646782429539840e+00 1 0 0
753 33 6 0.0000000000000000e+00 3.6204611460335023e+00 5.1909002450116697e+00 3.2868474700067649e+00 1 0 0
4383 233 2 1.1500000000000000e-01 2.8533977576141041e+00 1.3298019878402825e+00 1.4674777615090040e+00 1 1 0
4379 233 3 0.0000000000000000e+00 3.2635378449363506e+00 2.4822247482676715e-01 3.3100814589071454e+00 1 1 0
578 33 5 -1.1500000000000000e-01 3.4906840050821888e+00 6.1386447704304370e+00 1.8114864177191556e+00 1 0 0
226 13 1 -1.1500000000000000e-01 4.7802143977783185e-01 2.5367805755835611e+00 5.0422772414704886e-01 1 0 0
4384 233 2 1.1500000000000000e-01 2.2535803696731307e+00 2.0808957744021388e+00 3.6625020845348715e+00 1 1 0
586 33 1 -1.1500000000000000e-01 3.1675202394240345e+00 5.3956418308404590e+00 5.9920947045476245e+00 1 0 0
587 33 4 -1.1500000000000000e-01 3.7824953786644775e+00 4.4253505281592727e+00 5.1800817775536787e+00 1 0 0
585 33 2 1.1500000000000000e-01 5.2124840795698519e+00 3.3435783386283022e+00 8.8724122490372981e-01 1 0 0
591 33 2 1.1500000000000000e-01 3.0807065305315202e+00 5.2570829713936380e+00 7.0667989717463913e+00 1 0 0
592 33 2 1.1500000000000000e-01 4.1512041426222375e+00 3.4882604087910400e+00 5.5630647376103282e+00 1 0 0
590 33 1 -1.1500000000000000e-01 2.5363511431017205e+00 6.5083846685868449e+00 5.3487907456446724e+00 1 0 0
1011 54 2 1.1500000000000000e-01 -6.1671776395984965e+00 6.2348833599155062e+00 1.0620779459303320e+01 1 0 0
234 13 2 1.1500000000000000e-01 1.3264857810061361e+00 4.5234727958665051e+00 4.6200071736923598e-01 1 0 0
229 13 4 -1.1500000000000000e-01 -1.2223037023279339e+00 8.4306895568612272e-01 3.3408398651086038e+00 1 0 0
1010 54 2 1.1500000000000000e-01 -5.1118604230210343e+00 6.3783612312139626e+00 8.5722853870549240e+00 1 0 0
985 53 2 1.1500000000000000e-01 -1.8399674968834601e+00 6.4300746924721306e+00 5.5152994750124877e+00 1 0 0
599 34 1 -1.1500000000000000e-01 3.8719932725109274e-01 4.1871470517094203e+00 8.2507626885810375e+00 1 0 0
4401 234 2 1.1500000000000000e-01 -1.0531293434450415e+00 1.1891035877166702e+00 8.9407121168894186e+00 1 1 0
225 13 2 1.1500000000000000e-01 -2.1665015096749194e+00 2.8027713020374984e-01 5.1476425404753048e+00 1 0 0
595 34 7 -1.1500000000000000e-01 -2.7657942310393757e-02 5.4386709344382345e+00 7.9549294613141974e+00 1 0 0
981 53 1 -1.1500000000000000e-01 -1.3965484685525018e+00 7.2144255518771319e+00 4.8931605468069934e+00 1 0 0
4378 233 5 -1.1500000000000000e-01 3.4351668092504068e+00 5.2661720700758652e-01 1.9127616439354389e+00 1 1 0
582 33 2 1.1500000000000000e-01 4.2734363823772092e+00 5.4863762226978405e+00 -1.2789981456016894e-01 1 0 0
583 33 2 1.1500000000000000e-01 3.0297690600560498e+00 7.0169415672174562e+00 1.4122669536723294e+00 1 0 0
1753 93 2 1.1500000000000000e-01 -1.9475053353569272e+00 1.2112377141300113e+01 3.2787214755190242e+00 1 0 0
232 13 2 1.1500000000000000e-01 -3.8975787644157528e-01 5.4176838150635154e-01 9.1609049678484933e-01 1 0 0
235 14 7 -1.1500000000000000e-01 -5.2698686148023013e+00 2.2979655083100115e+00 1.3188507758110374e+01 1 0 0
236 14 5 -1.1500000000000000e-01 -4.5422481029597161e+00 3.1494882629394971e+00 1.2333501664737444e+01 1 0 0
597 34 3 0.0000000000000000e+00 -6.0253788275794840e-01 5.9241032451610769e+00 1.0256980545067702e+01 1 0 0
734 14 6 0.0000000000000000e+00 -4.6351752411042320e+00 2.3559623032977020e+00 1.0504523811050833e+01 1 0 0
239 14 1 -1.1500000000000000e-01 -5.8556303564260794e+00 1.1019856380484756e+00 1.2602388110556241e+01 1 0 0
240 14 2 1.1500000000000000e-01 -5.3559105537434251e+00 2.5044807673907461e+00 1.4322902183076316e+01 1 0 0
243 14 2 1.1500000000000000e-01 -6.2844924135863689e+00 4.1149309815729435e-01 1.3303902630278154e+01 1 0 0
237 14 3 0.0000000000000000e+00 -4.3579244240857538e+00 2.8659747891601124e+00 1.0935712596290378e+01 1 0 0
4402 234 2 1.1500000000000000e-01 -1.9787934915420324e+00 1.7921171233976505e+00 1.1020933055317011e+01 1 1 0
1758 94 4 -1.1500000000000000e-01 -3.8239930355855232e+00 1.5955280836374783e+01 9.7588360249747019e+00 1 0 0
242 14 2 1.1500000000000000e-01 -3.4028546054430069e+00 4.6527202911553269e+00 1.0501621360531013e+01 1 0 0
4408 234 1 -1.1500000000000000e-01 -1.8730868459324794e+00 2.9948890629405323e-01 1.2689254516247324e+01 1 1 0
238 14 4 -1.1500000000000000e-01 -3.6953983084965381e+00 3.7390016116920979e+00 1.0021607227883873e+01 1 0 0
246 14 3 0.0000000000000000e+00 -5.0047615882301422e+00 1.7598630984916694e+00 1.0408450129879414e+01 1 0 0
604 34 1 -1.1500000000000000e-01 -1.0428360382081712e+00 4.9322383374312171e+00 1.2875122305425686e+01 1 0 0
605 34 4 -1.1500000000000000e-01 -3.9127954247598051e-01 4.0921276705601564e+00 1.1886084152958086e+01 1 0 0
606 34 3 0.0000000000000000e+00 -1.4182660645030332e-01 4.6127893718755768e+00 1.0588471391712664e+01 1 0 0
607 34 4 -1.1500000000000000e-01 4.0110516623412806e-01 3.7460627174644290e+00 9.6201741402035967e+00 1 0 0
611 34 2 1.1500000000000000e-01 6.1832927137397764e-01 2.7633433950634165e+00 9.8372779151204313e+00 1 0 0
610 34 2 1.1500000000000000e-01 -1.6947688238118008e-01 3.0462988346094129e+00 1.1992943482254780e+01 1 0 0
241 14 2 1.1500000000000000e-01 -4.0611375829801410e+00 4.0404233118769692e+00 1.2727730292651934e+01 1 0 0
2099 113 3 0.0000000000000000e+00 3.2763542350018215e+00 1.7917089034597126e+01 3.1602834440207492e+00 1 0 0
598 34 4 -1.1500000000000000e-01 -1.1638561519801875e+00 6.7877374142716187e+00 1.1210835745988172e+01 1 0 0
754 34 6 0.0000000000000000e+00 -4.2178934524166056e-01 5.2797183109793799e+00 1.0515068601830185e+01 1 0 0
609 34 2 1.1500000000000000e-01 -1.1558681793268244e+00 4.6116531402359486e+00 1.3932108202719752e+01 1 0 0
4398 234 4 -1.1500000000000000e-01 -1.6382949591922529e+00 7.6529297493949899e-01 1.1389566238038256e+01 1 1 0
4412 234 2 1.1500000000000000e-01 -2.3389644650332437e+00 8.7387351120466306e-01 1.3426505203623917e+01 1 1 0
247 14 4 -1.1500000000000000e-01 -5.7460932867568122e+00 8.9661437189288395e-01 1.1231756581109828e+01 1 0 0
608 34 1 -1.1500000000000000e-01 -1.3817452262162355e+00 6.2765457642242053e+00 1.2558240168847627e+01 1 0 0
612 34 2 1.1500000000000000e-01 -1.8282818010608404e+00 6.9116848916755620e+00 1.3350188429952786e+01 1 0 0
979 53 3 0.0000000000000000e+00 -1.0358718056601468e-01 9.0601055813378508e+00 3.3168717089734097e+00 1 0 0
980 53 4 -1.1500000000000000e-01 5.7684798911867774e-01 1.0016733518515384e+01 2.5098377140470216e+00 1 0 0
984 53 2 1.1500000000000000e-01 1.1050510296064016e+00 1.0822077386710856e+01 3.0970360343767096e+00 1 0 0
1361 74 2 1.1500000000000000e-01 -1.1635207049930782e+00 1.3196075662850996e+01 8.3928932896101944e+00 1 0 0
990 53 1 -1.1500000000000000e-01 5.7614687968269751e-01 9.9766196846925901e+00 1.1326429015241308e+00 1 0 0
2253 93 6 0.0000000000000000e+00 -3.9118833419365062e-01 1.4282550929178454e+01 3.0059945435354614e+00 1 0 0
1493 53 6 0.0000000000000000e+00 -5.7266317075072481e-01 8.6761914754269718e+00 2.9587328496474887e+00 1 0 0
986 53 1 -1.1500000000000000e-01 -1.0462116746616357e-01 8.8845961333258074e+00 4.8042450984564367e-01 1 0 0
1005 54 4 -1.1500000000000000e-01 -4.5194774578449328e+00 7.2030644935444004e+00 8.8721863289840073e+00 1 0 0
994 53 2 1.1500000000000000e-01 1.0855077969778140e+00 1.0783919183348788e+01 6.2005495398618082e-01 1 0 0
594 33 2 1.1500000000000000e-01 1.9899935517909531e+00 7.2223945459789363e+00 5.9613221379123518e+00 1 0 0
1741 93 1 -1.1500000000000000e-01 -1.5641024613887176e+00 1.3553087875827936e+01 4.8536124476512192e+00 1 0 0
977 53 7 -1.1500000000000000e-01 -8.7521156941669087e-01 8.3724393175538978e+00 5.5452033362283553e+00 1 0 0
978 53 5 -1.1500000000000000e-01 -1.6210558118987883e-01 9.2956195940364559e+00 4.7097692712716910e+00 1 0 0
982 53 2 1.1500000000000000e-01 -9.6368734966472669e-01 8.7107953480083022e+00 6.5914010462587296e+00 1 0 0
983 53 2 1.1500000000000000e-01 3.6318501727692709e-01 1.0195926402144970e+01 5.1453645960780401e+00 1 0 0
1012 54 2 1.1500000000000000e-01 -2.2371012302884226e+00 9.3986223001667391e+00 7.8036935153846247e+00 1 0 0
1004 54 1 -1.1500000000000000e-01 -3.6053819886898166e+00 7.7668260434266934e+00 8.0638848490071489e+00 1 0 0
1363 74 2 1.1500000000000000e-01 1.2350857595311462e+00 9.7600511950619939e+00 7.7580431574486557e+00 1 0 0
1745 93 2 1.1500000000000000e-01 -2.3006547545924518e+00 1.3039630619014147e+01 5.5301121817212513e+00 1 0 0
1008 54 1 -1.1500000000000000e-01 -2.9463633074651789e+00 8.9641426977659631e+00 8.4646097525574309e+00 1 0 0
1338 73 5 -1.1500000000000000e-01 3.6650501089833010e+00 1.2271451677778737e+01 1.6591715306775257e+00 1 0 0
1339 73 3 0.0000000000000000e+00 3.3688185935542894e+00 1.1877501478379594e+01 2.9768719615934627e+00 1 0 0
1340 73 4 -1.1500000000000000e-01 2.8085275987893938e+00 1.2786493940983325e+01 3.9343286429306499e+00 1 0 0
1341 73 1 -1.1500000000000000e-01 5.0720438065505968e+00 1.0353052482422992e+01 1.4029963974143798e+00 1 0 0
1337 73 7 -1.1500000000000000e-01 4.4556221947789396e+00 1.1478318118257210e+01 8.7114820282578109e-01 1 0 0
1343 73 2 1.1500000000000000e-01 3.3379948826831103e+00 1.3239124293468352e+01 1.3224180763268041e+00 1 0 0
988 53 3 0.0000000000000000e+00 -7.8111837984128141e-01 8.0460364639150619e+00 2.6742499699700106e+00 1 0 0
1348 73 3 0.0000000000000000e+00 3.9135500490029944e+00 1.0630937059418955e+01 3.4631831724283790e+00 1 0 0
1349 73 4 -1.1500000000000000e-01 4.6460356470060562e+00 9.8340168460942525e+00 2.6068573935310990e+00 1 0 0
1353 73 2 1.1500000000000000e-01 4.9289170545347885e+00 8.8785169027428132e+00 2.9303939578958387e+00 1 0 0
1513 73 6 0.0000000000000000e+00 3.6992958016392379e+00 1.1269156850281664e+01 3.2370374692826398e+00 1 0 0
1356 74 5 -1.1500000000000000e-01 -6.6623902944768609e-01 1.2335437375583808e+01 8.8488843028642439e+00 1 0 0
1354 73 2 1.1500000000000000e-01 2.4077631242637882e+00 1.3117807768829818e+01 6.0220925572651360e+00 1 0 0
1346 73 1 -1.1500000000000000e-01 3.0726305843808785e+00 1.1082364879621702e+01 5.6375144145628742e+00 1 0 0
1347 73 4 -1.1500000000000000e-01 3.6342960954353689e+00 1.0244115457348554e+01 4.7789146383402707e+00 1 0 0
1350 73 1 -1.1500000000000000e-01 2.7408185187118796e+00 1.2404840139612062e+01 5.2661782004791586e+00 1 0 0
1351 73 2 1.1500000000000000e-01 2.9239634713421001e+00 1.0744986040698313e+01 6.6676245955596141e+00 1 0 0
1352 73 2 1.1500000000000000e-01 3.9628237224982312e+00 9.3264210935873031e+00 5.0958543899754423e+00 1 0 0
1345 73 2 1.1500000000000000e-01 5.6445983406203037e+00 9.7212129977584603e+00 7.6482056697502943e-01 1 0 0
1355 74 7 -1.1500000000000000e-01 -1.0931076430996978e-01 1.1462266831869485e+01 7.9062728816776087e+00 1 0 0
1359 74 1 -1.1500000000000000e-01 6.1392002917500754e-01 1.0365843681755671e+01 8.4185386512954121e+00 1 0 0
1360 74 2 1.1500000000000000e-01 -4.5185581784370932e-02 1.1761161999942319e+01 6.8182468440456896e+00 1 0 0
1747 93 4 -1.1500000000000000e-01 -6.2022863960989560e-01 1.3224482349853631e+01 1.3069401346375693e+00 1 0 0
1748 93 3 0.0000000000000000e+00 -6.8134792106550202e-01 1.3734378208421896e+01 2.6430205781483256e+00 1 0 0
601 34 2 1.1500000000000000e-01 -8.9061792908003756e-01 7.2750405359686408e+00 8.5530458781211003e+00 1 0 0
993 53 2 1.1500000000000000e-01 -1.7108714782679377e+00 6.1373897056203779e+00 3.0779032637310477e+00 1 0 0
1746 93 1 -1.1500000000000000e-01 2.5256751514277526e-01 1.3838391657451588e+01 4.1929502276541164e-01 1 0 0
584 33 2 1.1500000000000000e-01 2.3165416105107761e+00 7.6338808921572312e+00 3.5543373431860630e+00 1 0 0
1342 73 2 1.1500000000000000e-01 4.6748775661547013e+00 1.1704831393557683e+01 -1.7006203137004311e-01 1 0 0
1749 93 4 -1.1500000000000000e-01 -1.4650291509130471e+00 1.3042440627712782e+01 3.5686486049530264e+00 1 0 0
2138 115 2 1.1500000000000000e-01 -3.5720031503794987e+00 1.7365195174555474e+01 1.4318215914686784e+01 1 0 0
1344 73 2 1.1500000000000000e-01 2.3790393779695158e+00 1.3780412359794200e+01 3.7284254415425906e+00 1 0 0
1009 54 2 1.1500000000000000e-01 -3.4668847336434050e+00 7.3255386299139715e+00 7.0799502375647307e+00 1 0 0
987 53 4 -1.1500000000000000e-01 -7.9491608112538770e-01 7.9708530881618662e+00 1.3132575526282153e+00 1 0 0
995 54 7 -1.1500000000000000e-01 -5.3432357058553537e+00 8.9003580361318768e+00 1.2679469196169242e+01 1 0 0
996 54 5 -1.1500000000000000e-01 -4.5273896065709760e+00 9.5305689087309329e+00 1.1757888285484293e+01 1 0 0
997 54 3 0.0000000000000000e+00 -4.2145767439754511e+00 8.9933660564973490e+00 1.0528866430281218e+01 1 0 0
1001 54 2 1.1500000000000000e-01 -3.9417664015663583e+00 1.0399587739065343e+01 1.2067481353163872e+01 1 0 0
1371 74 2 1.1500000000000000e-01 9.7230800865784595e-01 9.1475610592490391e+00 1.0056217698926194e+01 1 0 0
1357 74 3 0.0000000000000000e+00 -6.9233489930125902e-01 1.2125628710321241e+01 1.0228753753126497e+01 1 0 0
1767 94 4 -1.1500000000000000e-01 -6.0166603732882225e+00 1.3066083823316490e+01 1.0854795483743763e+01 1 0 0
998 54 4 -1.1500000000000000e-01 -3.2809500873730140e+00 9.5909055356885826e+00 9.6256489914606007e+00 1 0 0
1494 54 6 0.0000000000000000e+00 -4.5505285534335878e+00 8.4235495257360906e+00 1.0300022457773858e+01 1 0 0
1362 74 2 1.1500000000000000e-01 -1.6329840822797683e+00 1.4033944297877015e+01 1.0722385545020142e+01 1 0 0
1003 54 2 1.1500000000000000e-01 -6.7235661192937277e+00 7.1453658035176293e+00 1.2839284287016470e+01 1 0 0
999 54 1 -1.1500000000000000e-01 -5.9292334069692307e+00 7.6784322398186813e+00 1.2320199154387868e+01 1 0 0
1372 74 2 1.1500000000000000e-01 -1.6699596337377542e+00 1.3369516045191686e+01 1.3167662151632522e+01 1 0 0
1514 74 6 0.0000000000000000e+00 -2.6440183099480752e-01 1.1667535806411815e+01 1.0526354269585482e+01 1 0 0
602 34 2 1.1500000000000000e-01 -1.4618192018823022e+00 7.7818814308663109e+00 1.0956617269318185e+01 1 0 0
1358 74 4 -1.1500000000000000e-01 -1.2768461941651399e+00 1.3063323475007341e+01 1.1124137481282101e+01 1 0 0
1364 74 1 -1.1500000000000000e-01 -7.4702382797865052e-01 1.1441654095965017e+01 1.2915538647314291e+01 1 0 0
1365 74 4 -1.1500000000000000e-01 -1.3810336413756019e-01 1.0580907513038605e+01 1.2020550953398972e+01 1 0 0
1366 74 3 0.0000000000000000e+00 -7.1623339488954940e-02 1.0926402152204862e+01 1.0650715034409536e+01 1 0 0
1759 94 1 -1.1500000000000000e-01 -6.1558634504602754e+00 1.3281394001026156e+01 1.2215014648413598e+01 1 0 0
1368 74 1 -1.1500000000000000e-01 -1.2643888303555064e+00 1.2658265069877093e+01 1.2489148254139025e+01 1 0 0
1369 74 2 1.1500000000000000e-01 -7.5149003528470892e-01 1.1253390499576952e+01 1.3965447329988871e+01 1 0 0
1370 74 2 1.1500000000000000e-01 4.5423160247635241e-01 9.6869880553053083e+00 1.2246882066204700e+01 1 0 0
1378 75 2 1.1500000000000000e-01 -4.1282736769425092e+00 1.1805791216167655e+01 1.4044627447794007e+01 1 0 0
1000 54 2 1.1500000000000000e-01 -5.6152128447416567e+00 9.3765063074714075e+00 1.3635644164481468e+01 1 0 0
1766 94 3 0.0000000000000000e+00 -5.2892094807527146e+00 1.3937881232190316e+01 1.0039578019094826e+01 1 0 0
1006 54 3 0.0000000000000000e+00 -4.7780238557475352e+00 7.7402524850404966e+00 1.0196630208037146e+01 1 0 0
1763 94 2 1.1500000000000000e-01 -6.7460744198261455e+00 1.2508759509042317e+01 1.2762090271849583e+01 1 0 0
1367 74 4 -1.1500000000000000e-01 5.6661700476056343e-01 1.0066550612593270e+01 9.7503525334738477e+00 1 0 0
1002 54 2 1.1500000000000000e-01 -2.8489376983390633e+00 1.0509685617529961e+01 9.8186260051444805e+00 1 0 0
1755 94 7 -1.1500000000000000e-01 -5.4015429882746080e+00 1.4266272565028242e+01 1.2841275236374857e+01 1 0 0
1007 54 4 -1.1500000000000000e-01 -5.6960049492984028e+00 7.1350479723362321e+00 1.1033554378792621e+01 1 0 0
1737 93 7 -1.1500000000000000e-01 -8.0364967058742298e-01 1.4631144482337508e+01 5.3146069682058297e+00 1 0 0
1740 93 4 -1.1500000000000000e-01 6.7701979089520492e-01 1.5613119769597285e+01 2.0462627661311532e+00 1 0 0
1744 93 2 1.1500000000000000e-01 1.1666643557266763e+00 1.6512508744673195e+01 2.3846664320137174e+00 1 0 0
1768 94 1 -1.1500000000000000e-01 -3.6055979337774327e+00 1.5628123098814054e+01 8.4049227752088118e+00 1 0 0
1750 93 1 -1.1500000000000000e-01 7.9614629038159290e-01 1.5079722834511196e+01 7.6788688043595199e-01 1 0 0
2112 113 2 1.1500000000000000e-01 3.9349896026398614e+00 1.5611898293045888e+01 5.6315214017231021e+00 1 0 0
2119 114 1 -1.1500000000000000e-01 5.6594832961029162e-01 1.5738726509750206e+01 8.2340185929629985e+00 1 0 0
1765 94 4 -1.1500000000000000e-01 -5.2053912887462799e+00 1.3755654592832045e+01 8.6212946142624904e+00 1 0 0
1743 93 2 1.1500000000000000e-01 4.5686332613004543e-01 1.6277107746139862e+01 4.6051048638993226e+00 1 0 0
2127 114 4 -1.1500000000000000e-01 6.1064293718290497e-01 1.5496502595858917e+01 9.5643647326017014e+00 1 0 0
1772 94 2 1.1500000000000000e-01 -3.0641342235841855e+00 1.6261198493216636e+01 7.7160395211591002e+00 1 0 0
1739 93 3 0.0000000000000000e+00 -3.2633514589796686e-02 1.4893219275345235e+01 3.0210964108898790e+00 1 0 0
1754 93 2 1.1500000000000000e-01 1.4626178791639808e+00 1.5555836234560696e+01 5.9100848726383159e-02 1 0 0
2097 113 7 -1.1500000000000000e-01 4.3955891022208844e+00 1.7365705909373190e+01 1.1079575342290133e+00 1 0 0
2131 114 2 1.1500000000000000e-01 1.1007229517705559e+00 1.4622539120554521e+01 9.9820018091979232e+00 1 0 0
2101 113 1 -1.1500000000000000e-01 4.8642999457598979e+00 1.6140483900412161e+01 1.6768158294273086e+00 1 0 0
2113 113 2 1.1500000000000000e-01 5.0159363752411217e+00 1.4979420347641916e+01 3.4776111865867008e+00 1 0 0
1738 93 5 -1.1500000000000000e-01 -1.0749936153393103e-01 1.5344470727093126e+01 4.3367096925670321e+00 1 0 0
2108 113 3 0.0000000000000000e+00 3.7827367023531768e+00 1.6758903631354304e+01 3.7636282068290345e+00 1 0 0
2109 113 4 -1.1500000000000000e-01 4.5556274067170532e+00 1.5849109019333172e+01 3.0225851645741146e+00 1 0 0
2273 113 6 0.0000000000000000e+00 3.6259142501952262e+00 1.7335523242658798e+01 3.3830214590107004e+00 1 0 0
2106 113 1 -1.1500000000000000e-01 2.8145082614479127e+00 1.7421288017102061e+01 5.9416152479921607e+00 1 0 0
2107 113 4 -1.1500000000000000e-01 3.5894086407105545e+00 1.6520817948594889e+01 5.1494664456723971e+00 1 0 0
2111 113 2 1.1500000000000000e-01 2.5777467571444515e+00 1.7206657995116863e+01 6.9466882601644784e+00 1 0 0
2115 114 7 -1.1500000000000000e-01 7.1982868442529657e-02 1.6988415207691332e+01 7.7709011835654529e+00 1 0 0
2102 113 2 1.1500000000000000e-01 4.3898288725456034e+00 1.7615061966687005e+01 5.2223078099781162e-02 1 0 0
2120 114 2 1.1500000000000000e-01 1.3370242261402421e-01 1.7189432828004616e+01 6.6956051023003349e+00 1 0 0
2123 114 2 1.1500000000000000e-01 9.4952211996207136e-01 1.5031440563463464e+01 7.5836719667138723e+00 1 0 0
1760 94 2 1.1500000000000000e-01 -5.3517368454729848e+00 1.4399920603390353e+01 1.3877021261788702e+01 1 0 0
2105 113 2 1.1500000000000000e-01 5.5363954923453127e+00 1.5509439628553297e+01 1.1178172193459437e+00 1 0 0
1742 93 2 1.1500000000000000e-01 -9.6563120457571783e-01 1.5013077652300671e+01 6.2977187063315583e+00 1 0 0
1764 94 1 -1.1500000000000000e-01 -4.4114816747018422e+00 1.4635456704395958e+01 7.8179103592609174e+00 1 0 0
2117 114 3 0.0000000000000000e+00 -5.7067612691875080e-01 1.7630227708747174e+01 9.9731195574561653e+00 1 0 0
1761 94 2 1.1500000000000000e-01 -4.2265565131904506e+00 1.5951664868917081e+01 1.2560804961886422e+01 1 0 0
2274 114 6 0.0000000000000000e+00 -2.6667950583212896e-01 1.7050717190754536e+01 1.0298323473888898e+01 1 0 0
2254 94 6 0.0000000000000000e+00 -5.0551768459047812e+00 1.4600455243836944e+01 1.0286851107250881e+01 1 0 0
2130 114 2 1.1500000000000000e-01 8.2978820645482454e-01 1.5375321332970822e+01 1.2108514355688431e+01 1 0 0
2124 114 1 -1.1500000000000000e-01 -3.1900180659703192e-01 1.7205827410084183e+01 1.2711130144746869e+01 1 0 0
2125 114 4 -1.1500000000000000e-01 1.8165687514685924e-01 1.6252965122830833e+01 1.1811500263684911e+01 1 0 0
2126 114 3 0.0000000000000000e+00 9.3344631575261516e-02 1.6449479527143104e+01 1.0440068138021475e+01 1 0 0
2129 114 2 1.1500000000000000e-01 -2.5933232070271739e-01 1.7088961600348249e+01 1.3810185480662756e+01 1 0 0
1757 94 3 0.0000000000000000e+00 -4.5910087291776929e+00 1.5079343273818802e+01 1.0592191481127637e+01 1 0 0
249 14 2 1.1500000000000000e-01 -3.8037960288787400e+00 2.0410697362361518e+00 7.2244737947608302e+00 1 0 0
1762 94 2 1.1500000000000000e-01 -3.2706595956511642e+00 1.6795730084963893e+01 1.0197875907627386e+01 1 0 0
1787 95 2 1.1500000000000000e-01 -8.3490868980104107e+00 1.3818558111915490e+01 1.4350237680680857e+01 1 0 0
1064 57 2 1.1500000000000000e-01 7.1624902992265334e+00 6.3466744668102528e+00 1.1231840920769856e+00 1 0 0
267 15 2 1.1500000000000000e-01 -8.1897972172052018e+00 1.6093212650266022e+00 1.4587704194592449e+01 1 0 0
2513 133 2 1.1500000000000000e-01 -1.6821705305629275e+00 1.7906636792166800e+01 3.0826346990717708e+00 1 0 0
251 14 2 1.1500000000000000e-01 -6.2514153980397618e+00 1.0945716264158602e-02 1.0862804740225734e+01 1 0 0
2116 114 5 -1.1500000000000000e-01 -5.5123619772792498e-01 1.7935408180276429e+01 8.6063668569627971e+00 1 0 0
4416 235 4 -1.1500000000000000e-01 -5.8683878922004995e+00 8.7969375319226673e-01 1.9059424469122980e+01 1 1 0
4420 235 2 1.1500000000000000e-01 -6.1684330259810407e+00 1.8562385429939261e+00 1.8750399489657699e+01 1 1 0
255 15 3 0.0000000000000000e+00 -8.7411321125466870e+00 3.1115136784152346e+00 1.8186965869292944e+01 1 0 0
256 15 4 -1.1500000000000000e-01 -8.0460394291054236e+00 3.8679638321243712e+00 1.7201714217392670e+01 1 0 0
260 15 2 1.1500000000000000e-01 -7.5454501928502582e+00 4.7493762866637494e+00 1.7501868740626858e+01 1 0 0
4415 235 3 0.0000000000000000e+00 -5.2196765657762256e+00 -4.4227977155545523e-02 1.8173714792031063e+01 1 1 0
4414 235 5 -1.1500000000000000e-01 -4.8923923389327477e+00 3.4709816368451823e-01 1.6855483257555871e+01 1 1 0
264 15 3 0.0000000000000000e+00 -9.3241921688779570e+00 1.8787272945614435e+00 1.7851880188088987e+01 1 0 0
262 15 1 -1.1500000000000000e-01 -8.4601312945356248e+00 2.0746671431530537e+00 1.5543928650363512e+01 1 0 0
266 15 1 -1.1500000000000000e-01 -7.8959654617040735e+00 3.2886225375846951e+00 1.5895306995308097e+01 1 0 0
263 15 4 -1.1500000000000000e-01 -9.1605203475797623e+00 1.3807596586306290e+00 1.6546325052686772e+01 1 0 0
735 15 6 0.0000000000000000e+00 -8.9427048208643516e+00 2.4146310682399785e+00 1.8067508370868477e+01 1 0 0
265 15 4 -1.1500000000000000e-01 -1.0044832971812403e+01 1.1008802058258467e+00 1.8730629122500879e+01 1 0 0
2256 96 6 0.0000000000000000e+00 -1.3124989113280362e+01 1.4346588596912449e+01 2.5065795923344819e+01 1 0 0
613 35 7 -1.1500000000000000e-01 -4.6170036463733437e+00 5.5890740768619045e+00 1.6108477347275784e+01 1 0 0
618 35 2 1.1500000000000000e-01 -4.6067693207635445e+00 6.1357671861908587e+00 1.5191018887571886e+01 1 0 0
615 35 3 0.0000000000000000e+00 -5.2336578896880237e+00 5.7740844172655281e+00 1.8424473977457282e+01 1 0 0
617 35 1 -1.1500000000000000e-01 -3.9275456910260509e+00 4.3903222170184169e+00 1.6388559340943694e+01 1 0 0
621 35 2 1.1500000000000000e-01 -3.3638830720042616e+00 4.0209342247106772e+00 1.5553478003910930e+01 1 0 0
624 35 3 0.0000000000000000e+00 -4.6870666383508324e+00 4.4740004303558463e+00 1.8700403695134373e+01 1 0 0
625 35 4 -1.1500000000000000e-01 -4.0126138380591776e+00 3.8050579150717656e+00 1.7651987032039596e+01 1 0 0
629 35 2 1.1500000000000000e-01 -3.5812760445538725e+00 2.8645115413860203e+00 1.7940497005644271e+01 1 0 0
755 35 6 0.0000000000000000e+00 -4.9262485742023534e+00 5.1062135452625581e+00 1.8442359195251687e+01 1 0 0
270 15 2 1.1500000000000000e-01 -7.2482475958942514e+00 3.7367202048318431e+00 1.5196107108164728e+01 1 0 0
614 35 5 -1.1500000000000000e-01 -5.2124555320883301e+00 6.3248979712512492e+00 1.7134520248028991e+01 1 0 0
4419 235 2 1.1500000000000000e-01 -5.2291984187551712e+00 1.3028089425025844e+00 1.6426282405268562e+01 1 1 0
1025 55 4 -1.1500000000000000e-01 -9.8141410223311212e+00 6.7501580528303551e+00 1.8348055070292251e+01 1 0 0
616 35 4 -1.1500000000000000e-01 -5.9596863824369297e+00 6.5320571813941770e+00 1.9372062276090745e+01 1 0 0
269 15 2 1.1500000000000000e-01 -1.0532224793756759e+01 2.1237704293359003e-01 1.8443255188550506e+01 1 0 0
1806 96 2 1.1500000000000000e-01 -1.3269258934013436e+01 1.2194675995546962e+01 2.3397056788000445e+01 1 0 0
254 15 5 -1.1500000000000000e-01 -8.9508024980982412e+00 3.5826149415823614e+00 1.9505139829300308e+01 1 0 0
280 16 1 -1.1500000000000000e-01 -1.2705189630409714e+01 2.3599440031522492e+00 2.3135792534189051e+01 1 0 0
1045 56 2 1.1500000000000000e-01 -1.2625575640012840e+01 7.6656513774824218e+00 2.1998542262710739e+01 1 0 0
258 15 2 1.1500000000000000e-01 -9.9130216309825165e+00 3.3459811568257134e+00 2.1374748711457730e+01 1 0 0
634 36 4 -1.1500000000000000e-01 -1.0191535637547652e+01 6.4129327957983095e+00 2.6148891873541849e+01 1 0 0
4433 236 3 0.0000000000000000e+00 -9.4759770879466227e+00 8.1099398493058944e-02 2.5621080313356330e+01 1 1 0
257 15 1 -1.1500000000000000e-01 -1.0235364870815205e+01 1.6143334016368338e+00 2.0029970098179408e+01 1 0 0
284 16 1 -1.1500000000000000e-01 -1.2122231489599685e+01 3.5400873154528769e+00 2.3595419768695994e+01 1 0 0
279 16 2 1.1500000000000000e-01 -1.4675502359254891e+01 5.1910503110924988e-01 2.8210773670040123e+01 1 0 0
231 13 2 1.1500000000000000e-01 -1.6254377616677424e+01 2.3268696973738368e+00 2.9457114402781823e+01 1 0 -1
288 16 2 1.1500000000000000e-01 -1.1675002520443405e+01 4.2511025360812722e+00 2.2907542384773230e+01 1 0 0