LAMMPS (15 May 2015)
Reading data file ...
  triclinic box = (-0.107635 -0.0404339 -0.357111) to (41.3876 35.9384 29.5551) with tilt (-0.0672341 -17.0362 -0.0417078)
  5 by 2 by 2 MPI processor grid
  reading atoms ...
  4560 atoms
  reading velocities ...
  4560 velocities
  scanning bonds ...
  3 = max bonds/atom
  scanning angles ...
  3 = max angles/atom
  scanning dihedrals ...
  8 = max dihedrals/atom
  scanning impropers ...
  1 = max impropers/atom
  reading bonds ...
  5040 bonds
  reading angles ...
  7200 angles
  reading dihedrals ...
  10560 dihedrals
  reading impropers ...
  2400 impropers
Finding 1-2 1-3 1-4 neighbors ...
 Special bond factors lj:   0          0          0         
 Special bond factors coul: 0          0          0         
  4 = max # of 1-2 neighbors
  8 = max # of 1-3 neighbors
  20 = max # of 1-4 neighbors
  16 = max # of special neighbors
4560 atoms in group all
720 atoms in group C
480 atoms in group S
1920 atoms in group H
720 atoms in group Si
240 atoms in group Na
240 atoms in group Ba
240 atoms in group O
4560 atoms in group naphthalene
1200 atoms in group fixed
960 atoms in group CO
Setting atom values ...
  720 settings made for charge
Setting atom values ...
  720 settings made for charge
Setting atom values ...
  1920 settings made for charge
Setting atom values ...
  480 settings made for charge
Setting atom values ...
  240 settings made for charge
Setting atom values ...
  240 settings made for charge
Setting atom values ...
  240 settings made for charge
Finding 1-2 1-3 1-4 neighbors ...
 Special bond factors lj:   0          0          0.5       
 Special bond factors coul: 0          0          0.5       
  4 = max # of 1-2 neighbors
  8 = max # of 1-3 neighbors
  20 = max # of 1-4 neighbors
  16 = max # of special neighbors
PPPM initialization ...
  G vector (1/distance) = 0.253736
  grid = 20 18 24
  stencil order = 5
  estimated absolute RMS force accuracy = 0.00131269
  estimated relative force accuracy = 3.95312e-06
  using double precision FFTs
  3d grid and FFT values/proc = 3344 720
Neighbor list info ...
  6 neighbor list requests
  update every 1 steps, delay 0 steps, check yes
  master list distance cutoff = 12
Setting up run ...
Memory usage per processor = 14.3555 Mbytes
Step Temp Density PotEng E_vdwl E_tail E_coul E_long Press Volume Xy Xz Yz E_mol E_bond E_angle E_dihed 14[1] 14[2] 14[3] msd[4] msd2[4] msd3[4] msd4[4] naphthal Cella Cellb Cellc CellAlpha CellBeta CellGamma 27[1] 27[2] 27[3] 
       0          298    1.2509986    2905.6518    -355.3148   -64.054807    2133.4636   -2371.3301   -10913.628    44657.537 -0.067234084   -17.036218 -0.041707817     3498.833    1521.0094     935.4334    889.67826    28.379601    18.846571    14.337846 2.3535127e-29 2.7422013e-29 2.2534249e-29 2.2900766e-29          298     41.49527    35.978931    34.423473    90.016431    119.66323    90.107069    28.379761    18.846182    14.337739 
   10000    293.41988    1.2509986    3020.8073   -310.79511   -64.054807    2138.3694   -2371.4874   -4536.1269    44657.537 -0.067234084   -17.036218 -0.041707817    3564.7204    1474.2481    979.82849    947.44681    28.380556    18.843604     14.33616 0.00031366807 0.00031295455 0.00032064545 0.00031986977    293.41988     41.49527    35.978931    34.423473    90.016431    119.66323    90.107069    28.379725    18.845401    14.337419 
   20000    300.74634    1.2509986    3015.9907   -310.70461   -64.054807     2134.985   -2371.7721   -6293.4459    44657.537 -0.067234084   -17.036218 -0.041707817    3563.4823    1514.9512    961.21481    919.66183    28.380498    18.843904     14.33824 0.00033482733 0.00033391928 0.00034204572 0.00034059749    300.74634     41.49527    35.978931    34.423473    90.016431    119.66323    90.107069    28.379242    18.845384    14.337772 
   30000    295.44832    1.2509986    3035.8664   -315.01114   -64.054807    2139.1866   -2371.3643   -6351.8902    44657.537 -0.067234084   -17.036218 -0.041707817    3583.0552    1520.3244    1008.7663    898.19549    28.380435    18.845632    14.337579 0.0003339337 0.00033342766 0.00033239062 0.00033217213    295.44832     41.49527    35.978931    34.423473    90.016431    119.66323    90.107069    28.380275    18.845753    14.337978 
   40000    296.32628    1.2509986     3021.657   -307.67116   -64.054807    2136.2426   -2371.5289   -5645.2155    44657.537 -0.067234084   -17.036218 -0.041707817    3564.6145    1498.2428     968.4223    929.38831    28.378646    18.845989    14.337075 0.00033593651 0.00033549761 0.00034246597 0.00034186539    296.32628     41.49527    35.978931    34.423473    90.016431    119.66323    90.107069    28.379935    18.845561     14.33759 
   50000    301.31657    1.2509986    3054.4401   -313.67144   -64.054807    2134.8878   -2371.4824   -7149.8777    44657.537 -0.067234084   -17.036218 -0.041707817    3604.7061    1545.4942    970.14561    925.86604    28.378746    18.847423    14.336993 0.00031872664 0.00031860098 0.00031667806 0.00031655697    301.31657     41.49527    35.978931    34.423473    90.016431    119.66323    90.107069    28.379813    18.846532    14.337759 
   60000    297.89289    1.2509986    3000.2875   -316.99398   -64.054807     2133.287    -2371.922   -6401.8978    44657.537 -0.067234084   -17.036218 -0.041707817    3555.9166     1517.022    973.41097    902.64972    28.377715    18.845844    14.336406 0.00032778783 0.00032747887 0.00033423803 0.00033380213    297.89289     41.49527    35.978931    34.423473    90.016431    119.66323    90.107069    28.379229     18.84628    14.337612 
   70000    294.85653    1.2509986    2971.0756   -315.19812   -64.054807    2132.7616   -2371.6646   -6739.0065    44657.537 -0.067234084   -17.036218 -0.041707817    3525.1768    1513.5215    971.30699    884.84777    28.378817    18.845783    14.336901 0.00033764105 0.00033747968 0.00033389999 0.00033376059    294.85653     41.49527    35.978931    34.423473    90.016431    119.66323    90.107069    28.379748    18.845847     14.33796 
   80000    298.94259    1.2509986    2969.9274   -311.27085   -64.054807    2132.9391   -2371.6124   -7037.4786    44657.537 -0.067234084   -17.036218 -0.041707817    3519.8716    1516.3155    961.40483    888.16072    28.380111    18.847031    14.337604 0.00033062786 0.0003300416 0.00032843121 0.00032803957    298.94259     41.49527    35.978931    34.423473    90.016431    119.66323    90.107069    28.379422    18.846862    14.337831 
   90000    301.91905    1.2509986    3073.5685   -312.90471   -64.054807    2134.1573   -2371.7333   -6928.3899    44657.537 -0.067234084   -17.036218 -0.041707817    3624.0492      1560.75    986.58491     917.0327    28.378411    18.845934    14.336314 0.00032615956 0.00032573545 0.00032506063 0.00032412728    301.91905     41.49527    35.978931    34.423473    90.016431    119.66323    90.107069    28.379848    18.846277    14.337101 
  100000    292.86111    1.2509986    2932.1232   -305.77556   -64.054807    2134.4238   -2371.5862   -5264.8912    44657.537 -0.067234084   -17.036218 -0.041707817    3475.0612    1485.5432    962.83748    876.22451    28.377738     18.84619    14.336598 0.00034478141 0.00034464656 0.00034385278 0.00034379801    292.86111     41.49527    35.978931    34.423473    90.016431    119.66323    90.107069     28.37993    18.845857     14.33772 
  110000    294.25859    1.2509986     2885.678   -308.70911   -64.054807    2138.8883   -2371.3828    -4825.517    44657.537 -0.067234084   -17.036218 -0.041707817    3426.8815    1449.8083    920.10448    902.76677    28.380079    18.844755    14.338031 0.00034078779 0.00034076479  0.000342826 0.00034279251    294.25859     41.49527    35.978931    34.423473    90.016431    119.66323    90.107069    28.379873    18.846104    14.337805 
  120000    297.63938    1.2509986    2939.5544   -317.95724   -64.054807    2139.2389    -2371.202   -5958.2511    44657.537 -0.067234084   -17.036218 -0.041707817    3489.4748    1463.2044    977.05882    896.68062    28.381583    18.844681    14.337403 0.00035297598 0.00035293598 0.00034776429 0.00034758694    297.63938     41.49527    35.978931    34.423473    90.016431    119.66323    90.107069    28.379946    18.846137    14.337801 
  130000    301.17126    1.2509986    2966.1727   -311.39009   -64.054807    2136.0496   -2371.8377   -5493.4498    44657.537 -0.067234084   -17.036218 -0.041707817    3513.3508    1521.7073    951.88194    885.10667     28.38007    18.845485    14.336628 0.00033190041 0.00033049461 0.00032591977 0.00032437907    301.17126     41.49527    35.978931    34.423473    90.016431    119.66323    90.107069     28.37951    18.846671    14.336688 
  140000     294.0548    1.2509986    2989.9756   -317.17952   -64.054807    2131.2261   -2371.8787   -6944.1906    44657.537 -0.067234084   -17.036218 -0.041707817    3547.8077    1579.6887    944.66599    871.17449    28.380514    18.845133    14.338206 0.00035084518 0.00035081478 0.0003453826 0.00034533181     294.0548     41.49527    35.978931    34.423473    90.016431    119.66323    90.107069    28.379662    18.846101    14.337857 
  150000    302.55497    1.2509986     2999.245   -306.29322   -64.054807    2132.3469   -2372.0466    -6827.968    44657.537 -0.067234084   -17.036218 -0.041707817    3545.2379    1565.2312    945.55934    884.05362    28.376633     18.84595    14.337427 0.00034520941 0.00034510466 0.00034640914 0.00034624943    302.55497     41.49527    35.978931    34.423473    90.016431    119.66323    90.107069    28.379742    18.845879    14.337852 
  160000    294.78557    1.2509986    2898.0044   -312.48791   -64.054807    2134.1135   -2372.1646   -5280.6079    44657.537 -0.067234084   -17.036218 -0.041707817    3448.5434     1498.648    941.14496    859.98984      28.3815    18.843268    14.337079 0.00034352436 0.00034323408 0.00034634998 0.00034588644    294.78557     41.49527    35.978931    34.423473    90.016431    119.66323    90.107069    28.379917    18.845698    14.337562 
  170000    297.80049    1.2509986    2923.4261   -312.48617   -64.054807    2135.5511   -2372.0777   -5589.1781    44657.537 -0.067234084   -17.036218 -0.041707817    3472.4389    1526.4923     936.5951    858.67629    28.381057    18.845323    14.337464 0.00035856584 0.00035819796 0.00035959247 0.00035943463    297.80049     41.49527    35.978931    34.423473    90.016431    119.66323    90.107069    28.380144    18.845789    14.337996 
  180000    297.97749    1.2509986    2939.1375    -310.5201   -64.054807    2137.5678   -2371.3354   -5216.6456    44657.537 -0.067234084   -17.036218 -0.041707817    3483.4252    1480.6288    955.19341    893.86133    28.382492    18.845765    14.338262 0.00035130813 0.00035097115 0.00034601463 0.00034532574    297.97749     41.49527    35.978931    34.423473    90.016431    119.66323    90.107069    28.380291    18.846078    14.337952 
  190000    294.47524    1.2509986    2962.6954   -309.92379   -64.054807    2135.6154   -2371.4193   -6591.8369    44657.537 -0.067234084   -17.036218 -0.041707817    3508.4231     1530.871    949.64402    879.60549    28.379842    18.846168     14.33746 0.00035854941 0.00035823359 0.00035989657 0.00035939671    294.47524     41.49527    35.978931    34.423473    90.016431    119.66323    90.107069    28.379491    18.846534    14.337394 
  200000    299.27387    1.2509986    2936.8215   -309.18674   -64.054807    2138.8649   -2371.4501   -5898.9186    44657.537 -0.067234084   -17.036218 -0.041707817    3478.5934     1485.261    967.94743    868.21912    28.378193    18.846944    14.337543 0.00034863464 0.00034860332 0.0003516326 0.00035160055    299.27387     41.49527    35.978931    34.423473    90.016431    119.66323    90.107069    28.379901     18.84624    14.337831 
Loop time of 517.54 on 20 procs for 200000 steps with 4560 atoms

Pair  time (%) = 325.247 (62.8448)
Bond  time (%) = 34.695 (6.70382)
Kspce time (%) = 112.651 (21.7666)
Neigh time (%) = 6.18914 (1.19588)
Comm  time (%) = 23.6146 (4.56284)
Outpt time (%) = 0.0619483 (0.0119698)
Other time (%) = 15.0814 (2.91404)

Nlocal:    228 ave 237 max 219 min
Histogram: 1 0 1 3 4 8 0 0 2 1
Nghost:    5780.45 ave 5830 max 5728 min
Histogram: 2 0 2 1 4 6 1 1 1 2
Neighs:    84322.2 ave 88054 max 80583 min
Histogram: 1 1 1 1 8 2 3 1 1 1

Total # of neighbors = 1686444
Ave neighs/atom = 369.834
Ave special neighs/atom = 10.6316
Neighbor list builds = 1284
Dangerous builds = 0
System init for write_data ...
PPPM initialization ...
  G vector (1/distance) = 0.253736
  grid = 20 18 24
  stencil order = 5
  estimated absolute RMS force accuracy = 0.00131269
  estimated relative force accuracy = 3.95312e-06
  using double precision FFTs
  3d grid and FFT values/proc = 3344 720
