LAMMPS data file via write_data, version 15 May 2015, timestep = 23005000

2611 atoms
6 atom types
1749 bonds
4 bond types
894 angles
3 angle types
44 dihedrals
3 dihedral types
10 impropers
1 improper types

-1.4915275763274893e+01 1.4915275763274893e+01 xlo xhi
-1.4915275763274893e+01 1.4915275763274893e+01 ylo yhi
-1.4915275763274893e+01 1.4915275763274893e+01 zlo zhi

Masses

1 15.9994
2 1.00794
3 12.0107
4 1.00794
5 12.0107
6 12.0107

Bond Coeffs # harmonic

1 1000 1
2 469 1.4
3 367 1.08
4 469 0.7

Angle Coeffs # harmonic

1 100 109.47
2 35 120
3 63 120

Dihedral Coeffs # opls

1 0 7.25 0 0
2 0 7.25 0 0
3 0 7.25 0 0

Improper Coeffs # cvff

1 2.5 -1 2

Atoms # full

782 261 2 4.0999999999999998e-01 -1.2379893872603736e+01 -1.1154170975431045e+01 -1.1452974690717523e+01 -1 -6 7
2209 737 1 -8.1999999999999995e-01 -1.2763977327247151e+01 -9.5564265813720297e+00 -1.2115069539893632e+01 2 2 -1
327 109 2 4.0999999999999998e-01 -1.2829398977050207e+01 -1.3754279579864612e+01 -9.7286985857185915e+00 5 -6 4
2210 737 2 4.0999999999999998e-01 -1.3184306560931287e+01 -9.7830927787178972e+00 -1.2993676797021120e+01 2 2 -1
232 78 1 -8.1999999999999995e-01 -9.7644016663404631e+00 -1.0639127671758292e+01 -1.4023006059299588e+01 3 -4 5
325 109 1 -8.1999999999999995e-01 -1.3459719249101937e+01 -1.4224425200555389e+01 -9.1109086635943761e+00 5 -6 4
2532 844 2 4.0999999999999998e-01 -1.1985070821475160e+01 -1.3558770529253248e+01 -5.5321395626686147e+00 -3 -1 -2
1204 402 1 -8.1999999999999995e-01 -1.4913193466186433e+01 -1.1921956004274344e+01 -1.0268426422699367e+01 6 1 0
1434 478 2 4.0999999999999998e-01 -1.3213202790650241e+01 -1.3103444652384210e+01 -1.4279160385671872e+01 1 -5 2
2211 737 2 4.0999999999999998e-01 -1.3363280314248243e+01 -8.9361438442887575e+00 -1.1609015987546810e+01 2 2 -1
1881 627 2 4.0999999999999998e-01 -1.1081563368745666e+01 -8.5084305465121162e+00 -1.2384623860902012e+01 5 -7 0
444 148 2 4.0999999999999998e-01 -1.3601727790171051e+01 -8.0060861968883401e+00 -9.7461656889411223e+00 1 2 7
2025 675 2 4.0999999999999998e-01 -1.0026085243848362e+01 -1.2561399306178314e+01 -5.5464373180470492e+00 -2 -7 1
2284 762 1 -8.1999999999999995e-01 -1.3719737033149414e+01 -1.0967825225028777e+01 -6.5753127663455953e+00 4 -6 -1
2528 843 2 4.0999999999999998e-01 -7.7439723064505150e+00 -1.3015164524572949e+01 -1.1370166918844244e+01 2 2 1
781 261 1 -8.1999999999999995e-01 -1.2339648116165174e+01 -1.2056032067191925e+01 -1.1022821426601201e+01 -1 -6 7
2024 675 2 4.0999999999999998e-01 -9.2718713963376356e+00 -1.2876694433181481e+01 -6.9600815894194676e+00 -2 -7 1
442 148 1 -8.1999999999999995e-01 -1.3824741457545024e+01 -8.7085369382043094e+00 -9.0702716190238775e+00 1 2 7
1648 550 1 -8.1999999999999995e-01 -9.5022971782231789e+00 -1.0124489935420831e+01 -7.6224079509125611e+00 3 -1 -2
1649 550 2 4.0999999999999998e-01 -8.8328538306439306e+00 -1.0839290097222619e+01 -7.8246733147351160e+00 3 -1 -2
618 206 2 4.0999999999999998e-01 -9.4835315800798092e+00 -9.7679956835995458e+00 -5.6103132832879865e+00 4 -4 5
112 38 1 -8.1999999999999995e-01 -1.1957108564846898e+01 -1.0913118669785380e+01 -8.5826296523656289e+00 -4 0 7
114 38 2 4.0999999999999998e-01 -1.1906033378287763e+01 -1.1661077654264808e+01 -9.2444103388934167e+00 -4 0 7
443 148 2 4.0999999999999998e-01 -1.3104143390085243e+01 -9.4018156531033732e+00 -9.0598795137188883e+00 1 2 7
113 38 2 4.0999999999999998e-01 -1.1038715472789637e+01 -1.0699394699348144e+01 -8.2496414107819458e+00 -4 0 7
2023 675 1 -8.1999999999999995e-01 -9.1376906896445611e+00 -1.2629539951742149e+01 -6.0004383410213737e+00 -2 -7 1
2550 850 2 4.0999999999999998e-01 -9.3324057242430509e+00 -1.3896557310742283e+01 -9.2210201710533362e+00 8 -4 0
2285 762 2 4.0999999999999998e-01 -1.3040774728629824e+01 -1.0997331314588699e+01 -7.3088961197996252e+00 4 -6 -1
783 261 2 4.0999999999999998e-01 -1.2387351382568598e+01 -1.2763885396190021e+01 -1.1727571745762795e+01 -1 -6 7
234 78 2 4.0999999999999998e-01 -1.0506372615854801e+01 -1.1070916070138217e+01 -1.3510129056706194e+01 3 -4 5
1017 339 2 4.0999999999999998e-01 -1.0450943227285457e+01 -1.4262271141953288e+01 -1.1443598162485975e+01 2 -10 -3
1205 402 2 4.0999999999999998e-01 -1.3954529676470585e+01 -1.2205663066451628e+01 -1.0246540842608685e+01 6 1 0
2548 850 1 -8.1999999999999995e-01 -8.9178213785374965e+00 -1.3352198144203985e+01 -8.4917754481685037e+00 8 -4 0
2527 843 1 -8.1999999999999995e-01 -8.4665334040892155e+00 -1.3668410733555028e+01 -1.1143937414292107e+01 2 2 1
1650 550 2 4.0999999999999998e-01 -9.0439520582608175e+00 -9.2360719305567116e+00 -7.5971459209038752e+00 3 -1 -2
1432 478 1 -8.1999999999999995e-01 -1.2736846898439680e+01 -1.2227136911315185e+01 -1.4207224586990378e+01 1 -5 2
1880 627 2 4.0999999999999998e-01 -9.7813143422573958e+00 -9.0651017313790163e+00 -1.3200779088574947e+01 5 -7 0
1879 627 1 -8.1999999999999995e-01 -1.0129991690137784e+01 -8.3222581033373828e+00 -1.2629278941856292e+01 5 -7 0
132 44 2 4.0999999999999998e-01 -7.4811686916665963e+00 -1.0068771433309639e+01 -1.2025679580333248e+01 3 -7 0
2583 861 2 4.0999999999999998e-01 -1.3147341938306759e+01 -1.4389327219242453e+01 -7.5213595815031598e+00 -1 0 3
1759 587 1 -8.1999999999999995e-01 -1.4026236520684812e+01 -1.4729549508993077e+01 -1.4525330584552487e+01 5 -2 1
2549 850 2 4.0999999999999998e-01 -8.3083273811538376e+00 -1.2667868006141894e+01 -8.8920432655760262e+00 8 -4 0
33 11 2 4.0999999999999998e-01 -7.9261842957536794e+00 -1.1329058707503270e+01 -1.3328258751693706e+01 -4 -9 -3
2581 861 1 -8.1999999999999995e-01 -1.3029654067680319e+01 -1.4562821208698070e+01 -6.5435792706182241e+00 -1 0 3
131 44 2 4.0999999999999998e-01 -8.6495568141395403e+00 -9.0730841383246812e+00 -1.1468799261518082e+01 3 -7 0
2286 762 2 4.0999999999999998e-01 -1.3391891821678103e+01 -1.0372882447038133e+01 -5.8414425193770168e+00 4 -6 -1
2530 844 1 -8.1999999999999995e-01 -1.1649557585800535e+01 -1.2737994598065470e+01 -5.0697947830812513e+00 -3 -1 -2
125 42 2 4.0999999999999998e-01 -1.3640294672490155e+01 -7.9791593573722723e+00 -7.3684800478120014e+00 6 -8 2
591 197 2 4.0999999999999998e-01 -1.4326122444403564e+01 -9.0639761527157816e+00 -1.4810294365433558e+01 1 -7 3
124 42 1 -8.1999999999999995e-01 -1.3677298592813512e+01 -7.6388906750138164e+00 -6.4288775299790775e+00 6 -8 2
1526 509 2 4.0999999999999998e-01 -1.0927115797230922e+01 -1.3619418323647430e+01 -1.4847580734023708e+01 4 -6 -3
130 44 1 -8.1999999999999995e-01 -7.6628902744066067e+00 -9.2298213657569921e+00 -1.1512702946691594e+01 3 -7 0
1433 478 2 4.0999999999999998e-01 -1.3393231870338623e+01 -1.1480877410450047e+01 -1.4317951620548724e+01 1 -5 2
2582 861 2 4.0999999999999998e-01 -1.3926344785283487e+01 -1.4614687294863652e+01 -6.1039651266036437e+00 -1 0 3
2529 843 2 4.0999999999999998e-01 -8.4387835029681018e+00 -1.4432539373919624e+01 -1.1788407972452740e+01 2 2 1
1015 339 1 -8.1999999999999995e-01 -1.1249609296463717e+01 -1.4844222941299565e+01 -1.1596795902487557e+01 2 -10 -3
1498 500 1 -8.1999999999999995e-01 -8.0287406061362674e+00 -7.9551039201571010e+00 -7.3040359293004524e+00 -8 -4 7
589 197 1 -8.1999999999999995e-01 -1.4440782396732645e+01 -1.0052150624586961e+01 -1.4708464741151973e+01 1 -7 3
774 258 2 4.0999999999999998e-01 -7.5764680127945585e+00 -1.4599497001572340e+01 -7.4931324010991238e+00 -3 -5 1
2531 844 2 4.0999999999999998e-01 -1.2311041959353000e+01 -1.1996862407877300e+01 -5.1845399354757440e+00 -3 -1 -2
617 206 2 4.0999999999999998e-01 -9.9883285499247414e+00 -8.2990762296527087e+00 -5.1062346122221367e+00 4 -4 5
1828 610 1 -8.1999999999999995e-01 -1.4652421393613253e+01 -4.2527419683207626e+00 -5.2285285083530262e+00 -2 0 2
1795 599 1 -8.1999999999999995e-01 -1.4014588334769794e+01 -6.6765113898034762e+00 -1.1298086270419450e+01 9 -5 3
1499 500 2 4.0999999999999998e-01 -8.3849586084042951e+00 -7.0993461153910751e+00 -6.9288129859514020e+00 -8 -4 7
100 34 1 -8.1999999999999995e-01 -1.1126904884250528e+01 -6.9881023307678989e+00 -5.5082523900347340e+00 -2 -3 -1
1864 622 1 -8.1999999999999995e-01 -9.7306225086297609e+00 -1.5367716871411119e-01 -7.7270411494304323e+00 1 -3 5
180 60 2 4.0999999999999998e-01 -9.3080305671586778e+00 -7.0687450038619204e-02 -1.1947008993127678e+01 -1 1 1
1530 510 2 4.0999999999999998e-01 -1.1340943359831362e+01 -5.0548037615239672e-01 -6.9204385038862410e+00 9 -2 -5
1528 510 1 -8.1999999999999995e-01 -1.2014181894421322e+01 -3.6122615054483909e-01 -6.1952174550542942e+00 9 -2 -5
595 199 1 -8.1999999999999995e-01 -1.3099843099878251e+01 -1.8337189340025315e+00 -1.4687814072890150e+01 -5 -4 2
1276 426 1 -8.1999999999999995e-01 -7.7991289744721755e+00 -2.6572113171546459e+00 -7.0065199796853586e+00 0 -8 6
785 262 2 4.0999999999999998e-01 -1.0320112964665750e+01 -2.5157654025511089e+00 -1.0296111135694943e+01 7 5 7
261 87 2 4.0999999999999998e-01 -1.4308551247144930e+01 -6.3456207873436448e+00 -1.4301694111141911e+01 -2 0 3
375 125 2 4.0999999999999998e-01 -1.3595221502995569e+01 -3.3254632342742276e+00 -1.3996603836798442e+01 -1 -4 3
786 262 2 4.0999999999999998e-01 -1.0655655728644623e+01 -9.2943635821571036e-01 -1.0490046334108051e+01 7 5 7
1385 462 2 4.0999999999999998e-01 -9.2409697869949099e+00 -2.0016085405044972e+00 -1.3457029360693580e+01 -6 -7 1
754 252 1 -8.1999999999999995e-01 -9.5489057353592521e+00 -4.8495073742079455e+00 -6.7968916571831208e+00 1 0 6
2377 793 1 -8.1999999999999995e-01 -9.3855890725717757e+00 -3.7001215084091914e+00 -1.4053924907952270e+01 -2 5 2
682 228 1 -8.1999999999999995e-01 -1.1426242135285914e+01 -3.3045124296785797e+00 -5.0904998765475984e+00 -1 -3 1
2431 811 1 -8.1999999999999995e-01 -8.8627604493890537e+00 -3.5778747705274601e+00 -1.0979540832553392e+01 2 -5 -2
126 42 2 4.0999999999999998e-01 -1.4615125914404238e+01 -7.3710789432463315e+00 -6.2080568858108371e+00 6 -8 2
810 270 2 4.0999999999999998e-01 -9.8167389217296659e+00 -6.4418994235379721e+00 -9.5626395561681949e+00 -3 3 -5
1277 426 2 4.0999999999999998e-01 -7.7427820299752073e+00 -2.6492991157694359e+00 -8.0049023549093086e+00 0 -8 6
1447 483 1 -8.1999999999999995e-01 -1.3756254342017654e+01 -2.6569282770798726e+00 -1.0114754647939215e+01 0 -8 6
684 228 2 4.0999999999999998e-01 -1.1721212475587432e+01 -2.4971908172753832e+00 -5.6016057959020049e+00 -1 -3 1
2432 811 2 4.0999999999999998e-01 -8.4120480240672730e+00 -4.1804735899434302e+00 -1.1638128652500029e+01 2 -5 -2
102 34 2 4.0999999999999998e-01 -1.0580662005215299e+01 -6.3961264184593212e+00 -6.1008637217173849e+00 -2 -3 -1
1384 462 1 -8.1999999999999995e-01 -9.0997721918532335e+00 -1.0354897543160444e+00 -1.3240967563310418e+01 -6 -7 1
2130 710 2 4.0999999999999998e-01 -1.3896791149437327e+01 -6.9144342209163767e-01 -6.2857841534680450e+00 0 -6 1
1449 483 2 4.0999999999999998e-01 -1.4053496381680262e+01 -2.5498957699519593e+00 -1.1063541323224820e+01 0 -8 6
808 270 1 -8.1999999999999995e-01 -1.0233112838099689e+01 -5.5755135191067318e+00 -9.2869347103671043e+00 -3 3 -5
755 252 2 4.0999999999999998e-01 -8.8069476358863810e+00 -4.1796631746145163e+00 -6.8253851806950507e+00 1 0 6
809 270 2 4.0999999999999998e-01 -9.9244815833258748e+00 -4.8476192858621694e+00 -9.8992431907852882e+00 -3 3 -5
756 252 2 4.0999999999999998e-01 -9.8676805757274479e+00 -5.0335655446234444e+00 -7.7266820481314609e+00 1 0 6
1830 610 2 4.0999999999999998e-01 -1.3748344076823754e+01 -4.1999232863611251e+00 -5.6526267528050731e+00 -2 0 2
2264 755 2 4.0999999999999998e-01 -1.0491228035015894e+01 -4.7833019691236043e+00 -1.3496790287453742e+01 -1 -2 2
1928 643 2 4.0999999999999998e-01 -9.6474738141126082e+00 -1.1978529820033934e-01 -5.7141603495069866e+00 2 -3 3
2378 793 2 4.0999999999999998e-01 -8.5293541640282076e+00 -3.9989681507884143e+00 -1.4475300512570952e+01 -2 5 2
683 228 2 4.0999999999999998e-01 -1.0776430209558086e+01 -3.8285310520491862e+00 -5.6410939896573282e+00 -1 -3 1
373 125 1 -8.1999999999999995e-01 -1.3692813099451735e+01 -4.2814319410485080e+00 -1.3719828387393635e+01 -1 -4 3
784 262 1 -8.1999999999999995e-01 -1.1029819739401782e+01 -1.8157133902495595e+00 -1.0217064195505348e+01 7 5 7
374 125 2 4.0999999999999998e-01 -1.2797536528012559e+01 -4.6483206421223606e+00 -1.3467088388973837e+01 -1 -4 3
1416 472 2 4.0999999999999998e-01 -1.1821692572237442e+01 -6.2170866269967906e+00 -1.4756841864484437e+01 2 -9 -1
2265 755 2 4.0999999999999998e-01 -1.0772521969119515e+01 -6.3521150117078662e+00 -1.3141348259013462e+01 -1 -2 2
2263 755 1 -8.1999999999999995e-01 -1.1199478436861140e+01 -5.4628783183042504e+00 -1.3305577484331891e+01 -1 -2 2
2433 811 2 4.0999999999999998e-01 -8.2127649672510223e+00 -2.8887966577158437e+00 -1.0659100250590349e+01 2 -5 -2
1448 483 2 4.0999999999999998e-01 -1.2762898343876252e+01 -2.5540902769955096e+00 -1.0063052053165050e+01 0 -8 6
597 199 2 4.0999999999999998e-01 -1.3679711602150171e+01 -1.0314667732628209e+00 -1.4829761005750157e+01 -5 -4 2
1797 599 2 4.0999999999999998e-01 -1.3802576155731169e+01 -5.7096536095209167e+00 -1.1440360051065657e+01 9 -5 3
101 34 2 4.0999999999999998e-01 -1.2040660610848731e+01 -7.0991982695545612e+00 -5.8990376732916605e+00 -2 -3 -1
1386 462 2 4.0999999999999998e-01 -9.1654748147892864e+00 -4.9351315808895535e-01 -1.4078791822737937e+01 -6 -7 1
2128 710 1 -8.1999999999999995e-01 -1.4878569897837741e+01 -5.0223462451502421e-01 -6.2680229611336244e+00 0 -6 1
1866 622 2 4.0999999999999998e-01 -9.5098833028842602e+00 -4.5871228433836642e-01 -8.6534496679648250e+00 1 -3 5
2379 793 2 4.0999999999999998e-01 -9.9265768362744566e+00 -3.1909463596795060e+00 -1.4723311090538761e+01 -2 5 2
259 87 1 -8.1999999999999995e-01 -1.4780421895392079e+01 -7.2113772970820245e+00 -1.4468453511472232e+01 -2 0 3
1796 599 2 4.0999999999999998e-01 -1.4830694333582256e+01 -6.9194563298180087e+00 -1.1822446539464202e+01 9 -5 3
1698 566 2 4.0999999999999998e-01 -9.2095021000511501e+00 -9.8294819726560085e+00 -8.9395156226192540e-01 1 4 6
1696 566 1 -8.1999999999999995e-01 -8.7569066563486100e+00 -9.4569671583778447e+00 -8.3769473446624332e-02 1 4 6
557 186 2 4.0999999999999998e-01 -1.1938539879330465e+01 -1.2264264014692177e+01 1.7276054190804029e+00 -1 -1 4
558 186 2 4.0999999999999998e-01 -1.2129582384087007e+01 -1.1846062407645244e+01 3.2945291101765104e+00 -1 -1 4
1071 357 2 4.0999999999999998e-01 -1.3702281305935223e+01 -1.1451727416300105e+01 -9.9152199457103762e-01 -1 -2 2
1531 511 1 -8.1999999999999995e-01 -1.0246539121057269e+01 -1.0646363695070409e+01 -2.6376464000634190e+00 4 -8 4
1532 511 2 4.0999999999999998e-01 -9.6917690100001614e+00 -1.1478062815934054e+01 -2.6602658467427780e+00 4 -8 4
250 84 1 -8.1999999999999995e-01 -8.4175603401877233e+00 -1.3769463365713527e+01 3.9211469744941141e-01 0 -5 1
556 186 1 -8.1999999999999995e-01 -1.1552738783385552e+01 -1.1737372533352392e+01 2.4849348197472825e+00 -1 -1 4
1533 511 2 4.0999999999999998e-01 -1.0108420355261693e+01 -1.0130476777716147e+01 -3.4830982625787801e+00 4 -8 4
1515 505 2 4.0999999999999998e-01 -1.2199341490958673e+01 -1.3731962468105827e+01 -2.6543025265417590e+00 -2 0 3
830 277 2 4.0999999999999998e-01 -1.1844023438372624e+01 -1.2874489042949550e+01 -2.3287275215050940e-01 1 -1 -2
1784 595 2 4.0999999999999998e-01 -1.1531487977814962e+01 -9.9586717232725697e+00 -1.8349923097749468e+00 2 -1 0
2044 682 1 -8.1999999999999995e-01 -1.0063550313353542e+01 -9.2685481715187272e+00 2.2892809798140288e+00 5 -6 2
1785 595 2 4.0999999999999998e-01 -1.2482448702967005e+01 -1.0337005686849695e+01 -5.6252353657053256e-01 2 -1 0
1783 595 1 -8.1999999999999995e-01 -1.2317544537225730e+01 -9.6694994349483174e+00 -1.2886412798813716e+00 2 -1 0
76 26 1 -8.1999999999999995e-01 -1.3769114874652869e+01 -9.7826176141701477e+00 -4.1262512384781882e+00 -6 -11 2
2046 682 2 4.0999999999999998e-01 -1.0515775517078396e+01 -1.0149438514355889e+01 2.4290290809387418e+00 5 -6 2
1697 566 2 4.0999999999999998e-01 -9.4044550980822024e+00 -9.4318781992010834e+00 6.7784493907349308e-01 1 4 6
831 277 2 4.0999999999999998e-01 -1.1538385847169303e+01 -1.4184812806577797e+01 6.9247958298072909e-01 1 -1 -2
254 85 2 4.0999999999999998e-01 -1.4784237821502126e+01 -8.1821366744796151e+00 8.6255485341236948e-02 -4 -3 2
408 136 2 4.0999999999999998e-01 -9.9394144262641166e+00 -1.2135380562149406e+01 2.9504129590518691e+00 0 -4 7
2045 682 2 4.0999999999999998e-01 -1.0423555343188490e+01 -8.6018178797829528e+00 2.9418697196791843e+00 5 -6 2
407 136 2 4.0999999999999998e-01 -8.3926862029130493e+00 -1.2451273128043979e+01 3.3681250408415355e+00 0 -4 7
717 239 2 4.0999999999999998e-01 -1.4558479158722182e+01 -8.8746909635489306e+00 4.0835736902489064e+00 2 -5 6
1902 634 2 4.0999999999999998e-01 -9.6556325748684699e+00 -1.4778649802943146e+01 -4.8054549611733730e+00 0 -5 -2
1553 518 2 4.0999999999999998e-01 -8.5052327502502294e+00 -8.9157294665739961e+00 3.3226764788106582e+00 -6 -8 2
2465 822 2 4.0999999999999998e-01 -1.3905181383649600e+01 -1.1133568801870258e+01 4.4705943701289375e+00 0 -4 6
406 136 1 -8.1999999999999995e-01 -9.1359915387219868e+00 -1.2694174658845279e+01 2.7448265629796520e+00 0 -4 7
1037 346 2 4.0999999999999998e-01 -7.8856468741051957e+00 -7.6196104902601132e+00 -1.0973490876618008e-01 -1 -5 1
78 26 2 4.0999999999999998e-01 -1.3621549731180423e+01 -8.9400040484894010e+00 -4.6441622759221435e+00 -6 -11 2
1069 357 1 -8.1999999999999995e-01 -1.3308741987593724e+01 -1.1933924592162823e+01 -2.0882304360696047e-01 -1 -2 2
1770 590 2 4.0999999999999998e-01 -7.6092837372165478e+00 -1.2398705291544189e+01 -2.9199111284931369e+00 0 -3 1
1769 590 2 4.0999999999999998e-01 -7.8334375767690210e+00 -1.2812902133363284e+01 -1.3563140941047198e+00 0 -3 1
1070 357 2 4.0999999999999998e-01 -1.4006470886430783e+01 -1.2515358830089514e+01 2.0964267966629535e-01 -1 -2 2
77 26 2 4.0999999999999998e-01 -1.3354158705029075e+01 -9.6942692296769408e+00 -3.2207067198803827e+00 -6 -11 2
1552 518 1 -8.1999999999999995e-01 -7.9039159835191120e+00 -8.6263880042272802e+00 4.0674614159958917e+00 -6 -8 2
1554 518 2 4.0999999999999998e-01 -8.3941724897860226e+00 -7.9908592359991824e+00 4.6639148331597671e+00 -6 -8 2
252 84 2 4.0999999999999998e-01 -8.4504472032363029e+00 -1.3241284041718759e+01 1.2406133640370367e+00 0 -5 1
1768 590 1 -8.1999999999999995e-01 -8.0548605396277289e+00 -1.2140579617243750e+01 -2.0626845604257813e+00 0 -3 1
251 84 2 4.0999999999999998e-01 -9.3370828454419126e+00 -1.3835290689504237e+01 4.6226646185303366e-03 0 -5 1
2118 706 2 4.0999999999999998e-01 -1.3331253124017939e+01 -7.6428438250217168e+00 -1.3854683750712145e+00 -4 -4 5
1513 505 1 -8.1999999999999995e-01 -1.2322975307646049e+01 -1.4712302738640206e+01 -2.8080965279122641e+00 -2 0 3
715 239 1 -8.1999999999999995e-01 -1.4653339885738593e+01 -7.9010207283267109e+00 3.8762752159543883e+00 2 -5 6
2250 750 2 4.0999999999999998e-01 -1.2222282377971419e+01 -7.4829728086164948e+00 4.5100948398286906e+00 6 -3 1
2337 779 2 4.0999999999999998e-01 -1.0539853893523331e+01 -7.7349502924330524e+00 -5.5428931473787735e-01 0 -4 6
2351 784 2 4.0999999999999998e-01 -1.4907007454862867e+01 -1.1275724768283879e+01 -3.5369249205172899e+00 -1 -6 4
255 85 2 4.0999999999999998e-01 -1.4910805551162062e+01 -8.3818979756270267e+00 1.7020264123804214e+00 -4 -3 2
829 277 1 -8.1999999999999995e-01 -1.1125627671471868e+01 -1.3466474991765777e+01 1.3245600417903347e-01 1 -1 -2
616 206 1 -8.1999999999999995e-01 -9.6238535134391974e+00 -9.1825343961334802e+00 -4.8118461425614960e+00 4 -4 5
942 314 2 4.0999999999999998e-01 -1.4384975861743557e+01 -1.4796174016492822e+01 -1.8818271760625844e+00 4 -1 4
2195 732 2 4.0999999999999998e-01 -1.0018238191012754e+01 -1.4504254996337664e+01 2.4161157836243472e+00 -1 -2 5
2464 822 1 -8.1999999999999995e-01 -1.4674291305293830e+01 -1.0665648178817765e+01 4.0352494709985418e+00 0 -4 6
846 282 2 4.0999999999999998e-01 -7.9935413212804196e+00 -9.0585923793380161e+00 -4.0746598428244667e+00 -2 0 -3
1473 491 2 4.0999999999999998e-01 -7.6164586929349278e+00 -1.0532147461855075e+01 4.9187922331811347e+00 2 -3 2
1890 630 2 4.0999999999999998e-01 -1.0629847275041769e+01 -1.4370779545488322e+01 4.9045326298966589e+00 3 -4 0
1230 410 2 4.0999999999999998e-01 -7.8807350225459407e+00 -1.2639398911089266e+01 -4.9604487863064843e+00 -1 0 4
2295 765 2 4.0999999999999998e-01 -1.4405427366869835e+01 -3.3095915166324907e-01 1.9394316513910059e+00 -4 1 -2
158 53 2 4.0999999999999998e-01 -8.5191636011762242e+00 -5.5522700351999461e+00 2.0996217608239398e-01 0 -1 1
1268 423 2 4.0999999999999998e-01 -1.4672251502268619e+01 -5.5905110040373280e+00 -4.0227322051821730e+00 3 -3 1
466 156 1 -8.1999999999999995e-01 -1.3399553031204883e+01 -6.1901490144192586e+00 2.2244347589353755e+00 3 -2 0
1541 514 2 4.0999999999999998e-01 -9.3166796554463982e+00 -5.0132651281103158e-01 5.5511818674201052e-01 -2 -5 12
2185 729 1 -8.1999999999999995e-01 -7.9669258630456401e+00 -9.9463029502929956e-01 -2.3122481831725494e+00 1 -1 0
2375 792 2 4.0999999999999998e-01 -1.4199114268598645e+01 -3.1544127860242401e+00 -1.6343772194444046e+00 0 -3 8
2376 792 2 4.0999999999999998e-01 -1.4404449789660081e+01 -4.6193623045150396e+00 -2.3260418019190503e+00 0 -3 8
1267 423 1 -8.1999999999999995e-01 -1.4877957889579795e+01 -6.2057733881569437e+00 -3.2617183719057561e+00 3 -3 1
2557 853 1 -8.1999999999999995e-01 -7.5531639083865230e+00 -1.9235912774177013e+00 4.4259262765995739e+00 5 -7 0
2300 767 2 4.0999999999999998e-01 -1.1474588251086098e+01 -3.8862925285704595e+00 4.3742519868370007e+00 4 0 1
2137 713 1 -8.1999999999999995e-01 -9.9026913154122340e+00 -1.9783920038575520e+00 -1.1092670635278523e-01 1 -3 -1
2573 858 2 4.0999999999999998e-01 -1.4236159370799372e+01 -1.8355039402188584e+00 3.0109383154188762e-01 1 -2 -2
2187 729 2 4.0999999999999998e-01 -8.3498064539602161e+00 -7.8438219701385314e-01 -1.4126909954967637e+00 1 -1 0
2139 713 2 4.0999999999999998e-01 -1.0393248808725904e+01 -2.1026463115434399e+00 -9.7343419266105613e-01 1 -3 -1
2181 727 2 4.0999999999999998e-01 -1.4899919668686115e+01 -8.9367137746899417e-02 -3.9621566314703802e+00 8 -4 3
160 54 1 -8.1999999999999995e-01 -1.1568526475853210e+01 -2.3384898647861618e+00 -2.3558651827144299e+00 -1 -6 3
1765 589 1 -8.1999999999999995e-01 -1.4587102820115382e+01 -3.6000816915106135e+00 4.7298759607740397e+00 -1 -1 2
2574 858 2 4.0999999999999998e-01 -1.3016044976558401e+01 -1.1324460158928833e+00 1.1279372920629402e+00 1 -2 -2
2572 858 1 -8.1999999999999995e-01 -1.3758308464718050e+01 -1.8006213622985534e+00 1.1788447452552209e+00 1 -2 -2
2248 750 1 -8.1999999999999995e-01 -1.1519044856465612e+01 -7.3115639624133877e+00 3.8201086543235956e+00 6 -3 1
2138 713 2 4.0999999999999998e-01 -9.4394738890355576e+00 -2.8299111784369337e+00 1.3473495766574217e-01 1 -3 -1
990 330 2 4.0999999999999998e-01 -7.9271307560000359e+00 -6.1241178058546790e+00 -3.7874920527004168e+00 0 -2 -1
2525 842 2 4.0999999999999998e-01 -1.0745759657077414e+01 -1.1980616943774169e+00 1.3146505403306836e+00 0 1 -2
207 69 2 4.0999999999999998e-01 -8.6177622940464467e+00 -3.0544337469347393e+00 -4.9420348595021384e+00 -1 -5 4
72 24 2 4.0999999999999998e-01 -8.6332714819139476e+00 -5.7602202578548365e+00 4.6975987799387706e+00 1 -9 2
468 156 2 4.0999999999999998e-01 -1.3881627676384799e+01 -6.8105008345190452e+00 2.8431209711954057e+00 3 -2 0
2374 792 1 -8.1999999999999995e-01 -1.3737711482944141e+01 -3.9087207397675297e+00 -2.1014231683875408e+00 0 -3 8
2524 842 1 -8.1999999999999995e-01 -1.1332492183984623e+01 -7.4017768053836086e-01 1.9825518111292642e+00 0 1 -2
2559 853 2 4.0999999999999998e-01 -7.7681071803248445e+00 -2.8470363197591801e+00 4.1080370060085176e+00 5 -7 0
607 203 1 -8.1999999999999995e-01 -1.1474564271397012e+01 -3.8664537118974831e+00 2.6742183320819226e+00 -6 -4 -3
2341 781 1 -8.1999999999999995e-01 -9.5821622989488340e+00 -5.8980286229503811e+00 -3.1889731930775760e+00 0 -4 4
206 69 2 4.0999999999999998e-01 -9.0560143391498187e+00 -4.0311751180808191e+00 -3.7089285791895659e+00 -1 -5 4
609 203 2 4.0999999999999998e-01 -1.1689024578467393e+01 -4.6483649199406010e+00 2.0888752076577877e+00 -6 -4 -3
205 69 1 -8.1999999999999995e-01 -8.5757598391305336e+00 -3.1883768016734493e+00 -3.9519338482116488e+00 -1 -5 4
852 284 2 4.0999999999999998e-01 -1.0645537383481765e+01 -2.6208855518730445e-01 -2.6095819189512817e+00 -1 -6 1
477 159 2 4.0999999999999998e-01 -7.8026905426539193e+00 -4.4739788260059878e+00 2.6965420177696497e+00 -3 -6 -1
157 53 1 -8.1999999999999995e-01 -9.3388665214634088e+00 -4.9802514554385944e+00 1.8018261614419906e-01 0 -1 1
159 53 2 4.0999999999999998e-01 -1.0098036644684946e+01 -5.5054592897937624e+00 -2.0429419554984563e-01 0 -1 1
2335 779 1 -8.1999999999999995e-01 -1.0845489505784290e+01 -6.8175544285159813e+00 -8.0919448235947300e-01 0 -4 6
2336 779 2 4.0999999999999998e-01 -1.1722051779862614e+01 -6.6238383405553574e+00 -3.6860670409178198e-01 0 -4 6
2343 781 2 4.0999999999999998e-01 -1.0094349424029033e+01 -6.0456113570951580e+00 -2.3428711668642848e+00 0 -4 4
2117 706 2 4.0999999999999998e-01 -1.4629357370703554e+01 -6.7412074927834471e+00 -1.7960983426524635e+00 -4 -4 5
475 159 1 -8.1999999999999995e-01 -8.5624644133236600e+00 -4.4024647000164663e+00 3.3427883776581826e+00 -3 -6 -1
2116 706 1 -8.1999999999999995e-01 -1.4065509107852851e+01 -7.0615122843278453e+00 -1.0348592783569845e+00 -4 -4 5
2249 750 2 4.0999999999999998e-01 -1.1954524408854196e+01 -7.0620945887783133e+00 2.9551649900465780e+00 6 -3 1
608 203 2 4.0999999999999998e-01 -1.1996300786103733e+01 -3.0693966016790224e+00 2.3700869297856908e+00 -6 -4 -3
2186 729 2 4.0999999999999998e-01 -8.3228264779192447e+00 -1.8739290701018128e+00 -2.6287499370943443e+00 1 -1 0
2342 781 2 4.0999999999999998e-01 -1.0187549529868093e+01 -6.0343008503296698e+00 -3.9731550381730134e+00 0 -4 4
162 54 2 4.0999999999999998e-01 -1.1257956283676165e+01 -2.7129844141985622e+00 -3.2295384158357319e+00 -1 -6 3
161 54 2 4.0999999999999998e-01 -1.2417884715642325e+01 -2.7901227315262567e+00 -2.0826925831737064e+00 -1 -6 3
476 159 2 4.0999999999999998e-01 -9.4166287454575723e+00 -4.2706751537577823e+00 2.8397578167994535e+00 -3 -6 -1
467 156 2 4.0999999999999998e-01 -1.4038722406509331e+01 -5.8380517788455393e+00 1.5406986970192857e+00 3 -2 0
1767 589 2 4.0999999999999998e-01 -1.4607317439210160e+01 -4.2263118547896266e+00 3.9504966641094530e+00 -1 -1 2
1107 369 2 4.0999999999999998e-01 -8.9385846854860347e+00 -1.0319254601898827e+01 1.0773828174903299e+01 -3 -6 1
1669 557 1 -8.1999999999999995e-01 -1.1491385597780644e+01 -1.3253840230526411e+01 1.0236751179005187e+01 -1 -2 7
1670 557 2 4.0999999999999998e-01 -1.0885262004556175e+01 -1.4038840640371600e+01 1.0364788210609268e+01 -1 -2 7
1764 588 2 4.0999999999999998e-01 -9.3461469210972368e+00 -1.2136871479303739e+01 8.0079214189920105e+00 1 -4 8
2097 699 2 4.0999999999999998e-01 -1.1931218482058515e+01 -1.1416214308062973e+01 5.2427053853693000e+00 -1 2 3
1671 557 2 4.0999999999999998e-01 -1.1260405188012450e+01 -1.2790425961573010e+01 9.3812395106642459e+00 -1 -2 7
1762 588 1 -8.1999999999999995e-01 -9.5667268123604678e+00 -1.1175732652605788e+01 8.1739383268239347e+00 1 -4 8
1763 588 2 4.0999999999999998e-01 -8.7220420210625758e+00 -1.0659566937948949e+01 8.3156616219358046e+00 1 -4 8
249 83 2 4.0999999999999998e-01 -1.1427094532127921e+01 -1.0078641114619252e+01 9.7265860380620719e+00 1 -1 3
1581 527 2 4.0999999999999998e-01 -1.3411966185827923e+01 -9.3353133330279672e+00 8.6029626096879017e+00 -6 1 -4
1167 389 2 4.0999999999999998e-01 -1.4143511835042311e+01 -9.2864689518087005e+00 1.1322604530590743e+01 -1 -7 3
2501 834 2 4.0999999999999998e-01 -1.1861127155674131e+01 -7.9267145179998462e+00 1.2857894203460093e+01 3 -1 -2
2500 834 1 -8.1999999999999995e-01 -1.1740527604401558e+01 -8.8005474950505018e+00 1.2386856393945612e+01 3 -1 -2
2556 852 2 4.0999999999999998e-01 -1.4165114122714856e+01 -1.2212844054139328e+01 1.0729313631302746e+01 3 1 -7
2502 834 2 4.0999999999999998e-01 -1.0885479185531933e+01 -9.2247489636383548e+00 1.2685101679474121e+01 3 -1 -2
1105 369 1 -8.1999999999999995e-01 -8.8345564549395021e+00 -9.3368980753759345e+00 1.0929259012103758e+01 -3 -6 1
247 83 1 -8.1999999999999995e-01 -1.2329857741162165e+01 -9.7824211887386845e+00 1.0038479098353255e+01 1 -1 3
99 33 2 4.0999999999999998e-01 -7.7035204184045059e+00 -1.3020422037757569e+01 1.1183438491632193e+01 -4 -5 3
980 327 2 4.0999999999999998e-01 -9.0782274581648341e+00 -1.1938184550774084e+01 1.2219109262777271e+01 2 -5 1
714 238 2 4.0999999999999998e-01 -8.3514163130862791e+00 -1.3966405701327535e+01 7.2078055031945194e+00 2 1 0
248 83 2 4.0999999999999998e-01 -1.2243370865682461e+01 -9.3260510589097976e+00 1.0924058731779519e+01 1 -1 3
1235 412 2 4.0999999999999998e-01 -1.0235222282657617e+01 -1.0714822234824437e+01 6.4451667971965687e+00 1 -5 0
2470 824 1 -8.1999999999999995e-01 -1.4623934663525157e+01 -1.2826532578494927e+01 9.2339379156389523e+00 -4 -3 1
712 238 1 -8.1999999999999995e-01 -9.1028945087960054e+00 -1.3689820639335833e+01 7.8067931199428582e+00 2 1 0
1579 527 1 -8.1999999999999995e-01 -1.4126180779577744e+01 -8.9995701861079009e+00 7.9888135813819847e+00 -6 1 -4
979 327 1 -8.1999999999999995e-01 -9.9049751270224071e+00 -1.1863734921181042e+01 1.2776738618795742e+01 2 -5 1
2271 757 2 4.0999999999999998e-01 -9.0829271740261532e+00 -9.1220214344929467e+00 1.2689739924137337e+01 -1 -2 2
2554 852 1 -8.1999999999999995e-01 -1.3877943024346154e+01 -1.1909807470028534e+01 1.1637997604665090e+01 3 1 -7
1888 630 1 -8.1999999999999995e-01 -1.1191780262609631e+01 -1.4143583035887444e+01 5.6999054993692813e+00 3 -4 0
713 238 2 4.0999999999999998e-01 -9.2898898545100046e+00 -1.4418819850870428e+01 8.4652745969826366e+00 2 1 0
2269 757 1 -8.1999999999999995e-01 -9.2302439212911960e+00 -8.6207575454087575e+00 1.3542404718243285e+01 -1 -2 2
2555 852 2 4.0999999999999998e-01 -1.2885264176409407e+01 -1.1789709488706809e+01 1.1651040765138680e+01 3 1 -7