2611
Atoms. Timestep: 23000000
O -4.39875 5.20933 -5.4701
H -5.20721 5.32739 -4.89349
H -3.71433 5.89756 -5.22945
O 12.9565 -6.96231 6.20211
H 12.6426 -6.02033 6.08304
H 12.918 -7.43992 5.32437
O 1.73327 -0.961115 5.31707
H 1.27182 -1.8395 5.19257
H 1.06379 -0.220981 5.25382
O 7.51729 3.65292 10.6916
H 7.39999 4.05676 9.78431
H 6.7234 3.08497 10.9088
O 1.33526 12.5611 -6.1842
H 0.858976 12.5956 -7.06283
H 1.25948 13.4483 -5.72903
O 4.62594 -7.91199 -11.2839
H 5.40209 -7.784 -11.9014
H 4.94022 -8.344 -10.4386
O -7.53455 -12.621 9.06799
H -6.74628 -13.2364 9.07221
H -8.00765 -12.6914 8.18979
O 7.68383 -2.54047 -8.57834
H 7.23321 -3.18434 -9.1967
H 7.95408 -1.72317 -9.08726
O 8.12683 -12.6279 2.39798
H 7.95178 -11.651 2.27528
H 7.2802 -13.087 2.66716
O 3.31469 1.61713 -6.67271
H 4.24223 1.2473 -6.72648
H 2.70331 1.06787 -7.2424
O -5.94809 -11.0763 -12.3817
H -5.09154 -10.7601 -12.7896
H -6.15598 -11.9962 -12.7142
O 11.392 6.41708 -4.03873
H 11.9406 5.58254 -3.98806
H 10.428 6.17596 -4.15097
O -13.5798 -11.4038 -10.6829
H -14.3231 -11.2659 -10.0283
H -12.9468 -10.631 -10.636
O 1.75096 -11.5534 10.2769
H 2.16933 -11.4724 11.1815
H 1.19827 -12.3859 10.2385
O 8.42265 1.14392 0.130601
H 7.57245 1.2002 0.65404
H 8.22425 1.26738 -0.841716
O 5.35868 -8.94422 6.27507
H 5.95083 -8.72892 5.49853
H 5.87236 -9.47564 6.94867
O -6.59809 -13.3353 2.64734
H -5.98027 -12.9674 1.95242
H -6.07616 -13.5674 3.46816
O 11.8495 -11.2724 6.75245
H 12.5328 -11.8617 6.32138
H 12.3078 -10.5125 7.21334
O -10.764 13.9816 10.5795
H -11.7548 13.9546 10.4467
H -10.3063 13.7504 9.72105
O 12.1212 -4.45957 -2.00418
H 11.4803 -4.44025 -1.2368
H 12.0131 -3.62851 -2.54976
O -0.647384 14.7466 14.2287
H -0.753923 13.763 14.3743
H -1.48536 -14.7965 13.8279
O -9.91745 7.77839 -10.4207
H -9.22071 8.05956 -11.0807
H -10.8248 7.89121 -10.8256
O 14.0168 2.33098 4.82654
H 14.4886 3.20445 4.70647
H 14.4657 1.63059 4.27164
O -8.89332 -4.67606 4.6632
H -8.74614 -4.60899 3.67637
H -8.02917 -4.89822 5.11475
O -3.36176 -14.0968 -0.459475
H -4.09756 -14.2299 0.204508
H -2.78403 -14.9126 -0.484892
O 13.7834 -7.52286 -3.90653
H 13.3889 -8.21512 -3.30227
H 13.6319 -6.61459 -3.51654
O 2.41192 -6.8107 -10.3438
H 2.50034 -6.46072 -9.41124
H 3.23714 -7.3198 -10.5884
O 1.61393 -6.50734 11.8596
H 2.21343 -5.74886 11.6041
H 1.12872 -6.83627 11.0495
O -11.8144 3.9922 3.67515
H -10.991 3.4263 3.71766
H -11.5542 4.95705 3.63827
O -1.72243 13.0963 -12.8848
H -1.47061 13.6489 -12.0903
H -1.23413 12.2242 -12.8526
O 2.16523 -6.63323 -6.66072
H 1.64408 -6.27309 -7.43448
H 1.76561 -6.30125 -5.80626
O 8.69849 4.737 3.38749
H 8.80093 4.37978 2.4591
H 9.45368 4.41006 3.95564
O -9.36499 -13.4923 11.3008
H -8.74733 -13.0842 10.6285
H -9.76711 -14.3255 10.9212
O -10.3417 -5.46187 -7.37833
H -10.2717 -5.37216 -6.38483
H -9.92985 -4.6621 -7.81507
O -0.198986 -9.81145 10.0518
H 0.62473 -10.377 10.0926
H 0.0610379 -8.8481 9.98586
O -9.05094 -0.662998 1.71857
H -9.44983 -1.27214 1.03313
H -8.14611 -0.365544 1.41394
O 4.91727 2.02974 10.8282
H 4.59934 2.92575 11.1382
H 4.2454 1.63651 10.2006
O -11.6305 -11.0077 -5.95452
H -10.9692 -11.1089 -5.21123
H -11.1871 -11.2175 -6.82597
O -6.78509 -6.84652 5.84565
H -6.41533 -6.84868 4.91652
H -7.06434 -7.77369 6.09542
O 12.6077 9.2791 13.7924
H 11.6452 9.48143 13.9731
H 12.677 8.43097 13.2672
O 10.3646 -0.771117 0.468434
H 9.73111 0.000201912 0.406883
H 11.2003 -0.479763 0.933977
O -13.6987 -6.17883 -5.62664
H -13.4279 -5.46965 -6.2776
H -14.5959 -6.53975 -5.88101
O 0.445107 -8.99484 -9.08696
H 0.045748 -8.11205 -9.33435
H 0.809349 -8.947 -8.15688
O -7.45191 -8.8187 -13.3291
H -7.04881 -8.44979 -14.1666
H -6.86133 -9.53828 -12.9639
O 13.4879 -6.70879 -14.3177
H 12.594 -7.12873 -14.4743
H 13.416 -6.0371 -13.5803
O 1.10073 -4.24646 -8.27475
H 2.02076 -3.95688 -8.01077
H 0.480095 -3.46345 -8.23329
O 1.38531 -14.4433 4.10682
H 1.92581 14.6322 4.03081
H 1.99128 -13.6724 4.30324
O 1.72802 8.53886 -13.2271
H 2.14956 8.01737 -12.4852
H 2.33727 8.54243 -14.0201
O 3.88108 -14.0735 13.1935
H 3.1262 -13.5446 13.5814
H 3.97484 -13.8573 12.2217
O 9.14629 10.5872 -2.0221
H 9.62573 10.3355 -2.8628
H 9.59106 11.3824 -1.61009
O -0.997465 4.12762 6.78973
H -0.639402 4.22073 5.86068
H -1.16873 5.03506 7.17343
O -1.80184 0.92741 2.84959
H -2.7974 1.02096 2.86039
H -1.55027 0.0995286 2.34826
O -7.88895 -5.51934 -1.91988
H -7.2444 -5.79556 -1.20696
H -8.82438 -5.62342 -1.58202
O -11.7533 -3.52879 -1.60195
H -12.0653 -4.21469 -0.944538
H -12.0659 -3.7789 -2.5183
O -9.16594 2.09371 0.820124
H -9.71624 1.91905 1.63663
H -9.7436 2.49249 0.10788
O 13.8499 11.3204 12.3581
H 13.2686 12.117 12.1922
H 13.3237 10.6177 12.837
O 10.5099 -11.7159 -12.9403
H 10.1435 -12.0704 -12.0801
H 11.2644 -11.0884 -12.7478
O -6.97525 -12.498 6.15704
H -7.37592 -13.1819 5.54739
H -5.98895 -12.6485 6.22447
O -8.1263 5.40437 2.46467
H -8.44769 4.73387 3.13336
H -8.91144 5.81902 2.00463
O -11.6648 0.498325 -8.45163
H -11.8774 1.03228 -7.63327
H -11.8009 1.06517 -9.26414
O 5.36372 -3.96911 0.069065
H 4.73537 -3.72588 -0.669874
H 5.17839 -3.3951 0.86667
O 12.0739 14.8824 3.13636
H 12.7432 14.1651 3.32975
H 11.6286 -14.7523 3.98731
O 2.21167 -12.1303 6.50407
H 2.44565 -11.2738 6.96414
H 2.19136 -11.9827 5.51522
O 7.6521 -1.78223 -14.2561
H 6.70925 -1.97024 -14.5312
H 7.75465 -0.806467 -14.0628
O -5.05123 -14.6895 7.68673
H -4.38613 -14.4675 6.97373
H -5.4073 14.3018 7.53499
O 3.67589 2.32326 -3.47434
H 3.78956 3.12418 -4.06222
H 4.04693 1.51667 -3.93451
O 7.55821 -10.7067 -5.90122
H 7.77039 -10.1159 -6.67965
H 8.33057 -10.7114 -5.26605
O -3.20496 -13.6297 5.81947
H -3.37218 -12.7099 6.17433
H -2.28781 -13.9275 6.08434
O -8.06911 -3.46718 -4.29843
H -8.68135 -4.25761 -4.31827
H -7.21728 -3.69343 -4.77087
O 9.96791 4.8234 -7.70568
H 10.7075 4.17247 -7.87667
H 10.3384 5.75209 -7.68916
O 5.49461 -13.4392 3.36419
H 5.30945 -14.3894 3.61505
H 5.73595 -12.9192 4.1835
O 10.7282 -6.31962 -3.47273
H 10.6595 -7.27645 -3.19031
H 11.5254 -5.90031 -3.03836
O 11.2755 3.1552 4.23698
H 12.2053 3.00854 4.57465
H 10.7329 2.32826 4.38463
O -14.7787 0.150193 3.40749
H -14.9176 -0.83617 3.49582
H -14.2236 0.337379 2.59699
O 4.55298 -6.91086 7.89461
H 5.20363 -7.27607 8.5604
H 4.64023 -7.41215 7.03374
O -6.98066 2.63891 6.85956
H -6.64262 3.5718 6.98387
H -7.24697 2.26002 7.74586
O -3.89464 -4.58707 5.38511
H -3.65258 -5.27417 6.07016
H -3.44497 -3.72196 5.60736
O -9.47448 -13.2458 14.1329
H -9.15244 -13.3665 13.1939
H -10.4362 -12.972 14.1229
O -11.825 -4.87198 7.80941
H -11.8526 -3.87694 7.71372
H -12.5414 -5.16599 8.44206
O -12.8784 3.04927 1.26468
H -13.5564 3.78405 1.24338
H -12.2652 3.18404 2.043
O -2.91791 -3.32186 8.52277
H -1.94827 -3.34922 8.76577
H -3.443 -3.85464 9.18642
O -13.5321 -0.740074 11.4223
H -14.3138 -1.30543 11.1589
H -12.861 -1.30312 11.9045
O -13.4729 -9.15888 7.97254
H -13.1662 -9.45036 8.87862
H -12.6911 -9.12915 7.34964
O -7.04083 -14.9508 -0.875283
H -7.9332 -14.5007 -0.842197
H -6.4795 -14.5262 -1.58566
O 13.8025 -8.23842 -0.547234
H 14.5739 -8.26258 -1.18312
H 14.0333 -8.75625 0.276545
O 8.47194 -8.73632 -8.29336
H 8.32428 -7.77283 -8.07002
H 9.1896 -9.1087 -7.70488
O -14.2256 -8.20689 -14.704
H 14.8955 -7.6005 -14.6352
H -13.4387 -7.77896 -14.2594
O -12.3288 10.4077 -6.23772
H -12.2944 11.3664 -5.95538
H -11.751 10.2765 -7.04334
O -1.8184 -8.96794 -1.30128
H -1.47302 -8.94561 -2.23948
H -1.88182 -9.91678 -0.991948
O -3.68198 7.13917 -13.7133
H -2.68248 7.15665 -13.6871
H -4.04407 7.4678 -12.841
O 2.31001 -1.26135 -9.81586
H 1.56608 -1.32412 -10.4812
H 3.01812 -1.92972 -10.0436
O -10.2592 5.63907 0.616667
H -9.82387 4.83738 0.207053
H -11.1474 5.79357 0.184013
O 12.1153 -14.1622 -13.7876
H 12.9525 -13.6952 -14.0722
H 11.3775 -13.4941 -13.6908
O 5.62791 11.0899 -12.3659
H 4.75668 11.5055 -12.1046
H 6.37807 11.5848 -11.9273
O 3.53005 -4.49529 11.3339
H 3.59035 -3.51987 11.5458
H 4.44832 -4.89108 11.3215
O -7.43722 12.9958 -10.1242
H -7.05015 13.8948 -10.3295
H -6.91175 12.5665 -9.38973
O 5.17281 -1.64407 14.6292
H 5.61597 -1.23412 13.832
H 4.19607 -1.43013 14.6144
O 4.38534 12.3035 9.9102
H 3.88582 12.4269 10.7677
H 4.57372 11.3313 9.77114
O 5.67588 14.5744 -0.409347
H 6.59321 14.177 -0.433408
H 5.18352 14.3272 -1.24389
O 2.51137 14.641 -12.6202
H 2.10869 -14.7014 -11.9047
H 2.53454 -14.7623 -13.48
O -2.91988 -5.68556 1.09478
H -2.66641 -5.37816 0.17757
H -2.43394 -6.53304 1.30843
O 8.0308 13.715 -5.76801
H 8.78221 13.7425 -6.42728
H 7.15824 13.7404 -6.25587
O 2.72403 -4.7603 14.1312
H 2.95698 -5.0303 13.1969
H 2.78 -5.5575 14.7323
O 2.41609 -6.82158 -13.8919
H 1.8295 -6.41869 -13.1893
H 3.20528 -7.25632 -13.4581
O 8.82147 -13.9306 7.68968
H 8.79745 -12.9317 7.72918
H 8.86636 -14.2999 8.61791
O 6.84763 0.67545 -9.26633
H 7.2055 1.5879 -9.46477
H 6.94683 0.0954055 -10.0749
O 12.1153 -1.07662 13.9026
H 11.2095 -1.4412 14.1184
H 12.0995 -0.661178 12.9931
O -0.614911 -3.2923 -12.1771
H 0.328838 -3.60533 -12.2837
H -1.11475 -3.44416 -13.0298
O -10.0926 -11.9674 -8.23576
H -9.32625 -12.5754 -8.44319
H -10.4722 -11.6069 -9.08781
O 6.67446 -0.42286 -2.6537
H 7.26726 -1.1946 -2.88396
H 7.20971 0.421822 -2.65918
O 13.0641 11.905 0.941141
H 13.4783 12.7948 0.749764
H 12.8215 11.8517 1.9098
O -5.86286 3.57052 -9.34148
H -6.59559 3.71753 -8.67703
H -5.28938 4.38821 -9.39163
O -13.2187 9.11603 -1.15162
H -13.9691 9.74112 -0.936612
H -12.8545 9.33163 -2.05764
O 4.88046 4.24262 -7.26977
H 3.92844 3.98694 -7.10156
H 4.92509 5.20588 -7.5346
O -13.0096 5.42301 -9.57304
H -12.773 5.38889 -10.5441
H -13.253 4.50607 -9.25686
O 10.7856 -3.82389 -13.7477
H 10.6952 -4.77583 -14.0404
H 10.4315 -3.22046 -14.4622
O -7.92288 9.62892 13.9033
H -8.70661 9.85677 14.4811
H -8.11785 8.79189 13.3921
O 8.99581 -11.2986 7.38975
H 9.84413 -10.8586 7.09522
H 8.67127 -10.8671 8.23143
O -11.3888 9.64294 -8.66906
H -10.7017 9.3798 -9.3463
H -12.2551 9.83469 -9.13032
O 8.33207 8.88828 5.87575
H 8.99935 9.1272 5.1703
H 8.43289 7.92299 6.11668
O -8.51443 -11.985 1.06076
H -8.23354 -11.2717 0.418624
H -7.75379 -12.2005 1.67309
O 4.95455 0.420996 7.45564
H 4.74761 0.595801 6.49302
H 4.3272 0.944815 8.03188
O -0.437566 -11.1744 14.7261
H -1.23857 -11.0912 14.1333
H -0.63944 -11.8092 -14.4413
O 6.39234 14.9215 -13.9147
H 7.23345 -14.4614 -13.809
H 5.63801 -14.5138 -13.4648
O -11.9315 -5.56861 -10.7883
H -11.629 -6.18901 -10.0647
H -11.9673 -4.63451 -10.4331
O 7.00648 9.79111 -7.38048
H 6.3585 10.5017 -7.10633
H 6.79561 9.48835 -8.30994
O 3.64405 4.11254 9.00962
H 3.2532 4.8997 9.48672
H 4.6092 4.28672 8.8143
O -4.93094 -4.5387 2.18803
H -4.78181 -3.57863 2.42473
H -4.07983 -4.93249 1.84084
O 6.1363 -5.94758 -2.12194
H 6.27406 -5.20498 -1.46653
H 6.70026 -5.78625 -2.93184
O -4.378 10.3095 -1.43566
H -4.83708 11.1966 -1.38751
H -3.96762 10.1953 -2.3404
O -14.0904 7.54017 13.9621
H 14.9433 7.97443 13.768
H -14.2444 6.61167 14.3
O 4.74371 0.429058 -11.2188
H 5.19111 0.954073 -10.4948
H 4.28819 -0.367044 -10.8204
O 6.72391 -7.60757 -13.0035
H 7.26572 -7.73088 -13.8349
H 6.97572 -6.74402 -12.5665
O -13.9855 6.41814 11.0733
H -13.5733 5.84511 11.7817
H -13.6275 7.34892 11.1474
O -7.13049 3.35271 -12.1055
H -6.60842 3.51718 -11.2686
H -7.41699 2.39514 -12.1368
O -11.145 -10.8582 1.11178
H -11.5385 -11.2733 1.93204
H -10.204 -11.1762 0.995974
O 11.6779 2.79364 12.8038
H 12.2595 2.46468 13.5479
H 12.0825 2.53681 11.9261
O 12.2979 8.27939 -5.77146
H 12.0584 7.67192 -5.01408
H 13.2928 8.35993 -5.83233
O 14.1563 -4.44444 8.77749
H 14.293 -4.35924 7.79054
H 14.7967 -5.11848 9.14572
O -4.78323 3.22012 -2.14213
H -5.52419 3.88917 -2.08424
H -3.95806 3.59957 -1.72364
O -7.67501 14.2096 1.82469
H -7.5241 14.1085 0.841325
H -7.0669 14.9173 2.1842
O -8.76319 0.599598 -11.9748
H -9.11104 -0.336716 -12.023
H -8.96547 1.07482 -12.8311
O 13.853 -8.08592 11.7373
H 13.6836 -9.04596 11.9601
H 13.8581 -7.97011 10.744
O 4.27391 -10.381 -12.2556
H 3.36103 -10.7549 -12.0916
H 4.39074 -9.54179 -11.7245
O 8.52366 -6.15205 -7.46679
H 9.20897 -5.91419 -6.77846
H 8.83331 -5.84313 -8.36606
O -13.3737 10.3913 12.9691
H -14.2015 10.7292 12.5213
H -13.6254 9.86134 13.7789
O 0.614879 1.93835 -13.7451
H 0.754508 1.56325 -12.8287
H 0.0653304 1.30143 -14.2858
O -12.7569 -8.79216 -7.70447
H -12.4392 -9.43807 -7.01028
H -11.9937 -8.21678 -7.99851
O -2.94207 -1.1756 -7.3899
H -2.17173 -0.538041 -7.38007
H -3.05261 -1.55065 -8.31029
O 9.99208 -8.46947 13.8174
H 9.40801 -9.23294 13.5418
H 10.8515 -8.82352 14.1862
O 1.13721 14.6161 -4.08892
H 1.41252 14.6913 -3.13051
H 1.01242 -14.3823 -4.47263
O 1.17519 9.12921 9.35397
H 1.81584 9.54672 9.99838
H 0.255742 9.48575 9.51982
O 12.5479 -12.307 9.64503
H 13.5023 -12.0525 9.48881
H 12.0477 -12.2722 8.77979
O 9.72974 4.06389 7.32733
H 10.0447 4.34887 8.23264
H 9.65428 3.06713 7.29917
O 2.11046 -11.5663 3.87854
H 2.87739 -11.0447 3.5046
H 1.27209 -11.0263 3.80345
O 14.1421 -5.80264 3.28217
H 13.7643 -4.92452 3.57569
H 13.4092 -6.48124 3.23336
O -2.32383 13.3881 -0.255766
H -2.40624 12.4534 -0.601413
H -1.7105 13.3986 0.534001
O 1.60005 -7.98787 1.42867
H 1.54389 -8.986 1.45281
H 1.2345 -7.65438 0.559667
O -8.52654 -5.34896 1.89931
H -9.36089 -4.90276 1.57561
H -7.72945 -4.8324 1.58654
O -2.38469 4.80805 10.9308
H -2.65103 4.8793 11.8921
H -1.41042 4.59095 10.8701
O 4.70304 9.86601 1.14222
H 4.93521 9.69681 2.10006
H 5.37898 10.4831 0.739405
O 4.59394 4.74274 11.9989
H 5.10688 5.53082 12.3393
H 3.64658 4.8004 12.3139
O 2.66722 13.5276 12.402
H 2.24522 12.8813 13.0377
H 3.10016 14.2673 12.9171
O -12.293 13.4717 -8.28235
H -12.9532 12.8823 -8.74786
H -11.4333 13.4775 -8.79303
O 3.40155 -3.55671 -6.86466
H 4.11683 -2.85889 -6.82698
H 3.71044 -4.37697 -6.38324
O -2.60524 12.7188 9.70954
H -3.26336 13.1118 9.0673
H -1.68868 13.0571 9.49632
O -4.44453 1.93764 2.62486
H -4.20534 2.74651 2.08772
H -4.52818 2.1904 3.58877
O -6.37823 -8.82558 1.54615
H -7.31639 -8.61921 1.26818
H -5.91139 -9.31267 0.808037
O -11.0054 12.531 -12.9633
H -10.1187 12.1419 -13.213
H -11.1161 13.4202 -13.4072
O -0.0582411 4.78007 -12.9669
H 0.00246947 4.54554 -11.9967
H 0.0394145 3.95073 -13.517
O -5.18578 -1.2104 9.77555
H -5.47873 -1.34236 8.82857
H -4.29692 -0.752387 9.78873
O 0.59024 -0.644445 -12.1486
H 1.40818 -0.773194 -12.7093
H -0.0391202 -1.40725 -12.2971
O -11.3296 -5.71935 5.05337
H -10.3619 -5.47471 4.99362
H -11.6933 -5.42738 5.93799
O -8.90227 8.95046 -4.0584
H -7.97295 8.82616 -4.40615
H -8.9827 9.85417 -3.63788
O -2.02666 -9.6395 -11.3702
H -1.37259 -9.00025 -11.7746
H -2.05223 -9.50781 -10.3792
O 4.54982 11.3699 -9.56658
H 5.04434 10.5107 -9.69777
H 4.02102 11.5791 -10.3891
O -4.55706 6.52177 6.88567
H -4.53123 6.99124 6.0031
H -5.33411 5.89264 6.90594
O 11.9148 -13.4725 1.00959
H 11.0468 -12.9855 0.913059
H 11.9808 -13.8569 1.9304
O 3.82204 -11.7122 -9.13773
H 4.61839 -11.1187 -9.25432
H 3.00988 -11.152 -8.97463
O 5.14122 -5.11502 -9.66242
H 5.96923 -5.31015 -10.1881
H 5.32587 -5.24695 -8.68851
O 11.4816 -7.05409 0.810365
H 12.4748 -7.03797 0.695289
H 11.2039 -6.30763 1.41511
O 7.81957 -4.41771 0.763049
H 6.97834 -4.05915 0.358367
H 7.99162 -5.33856 0.41313
O 10.7183 -7.39713 -11.8545
H 10.209 -8.18423 -11.5065
H 11.6946 -7.52977 -11.6833
O 8.67897 9.58275 2.82972
H 9.42878 8.94723 3.01385
H 7.80641 9.1007 2.90896
O -0.681613 -6.29793 -9.09144
H -0.362546 -5.38303 -8.84414
H -1.28437 -6.6461 -8.37349
O -12.2383 -10.8681 -1.36531
H -12.1922 -11.7738 -1.78675
H -11.98 -10.9354 -0.401607
O 3.85079 1.0277 2.96885
H 3.75762 1.82448 3.5659
H 4.29054 0.283757 3.47202
O 5.38995 -3.85517 -13.3207
H 5.0849 -4.79967 -13.4426
H 5.81539 -3.53062 -14.1655
O 9.17228 -5.65259 6.26773
H 8.27508 -5.63406 5.82648
H 9.64724 -6.49756 6.0219
O -10.2276 11.3459 -2.61505
H -9.96662 11.2348 -1.65612
H -11.2243 11.3821 -2.68719
O -8.90771 14.2352 12.8073
H -9.46283 14.83 12.2259
H -9.44757 13.4395 13.082
O 9.94809 -14.1889 4.63313
H 9.48378 -14.0766 5.51166
H 9.27805 -14.427 3.93003
O 9.05287 2.8847 14.4771
H 8.61478 3.75447 14.25
H 9.8677 2.76384 13.9102
O 4.06712 3.84494 -13.8815
H 4.14807 4.1343 -14.8353
H 4.04668 2.84615 -13.8367
O -6.43896 -2.66977 -9.98084
H -6.82994 -2.44817 -9.08751
H -5.76337 -1.976 -10.2304
O 6.93002 -3.67841 10.058
H 7.47672 -2.84451 10.1337
H 5.98683 -3.43884 9.82772
O -13.7652 -9.68043 12.8935
H -14.6233 -10.1021 12.6007
H -13.909 -9.19715 13.7571
O 12.8705 3.53554 10.4055
H 13.2706 4.39843 10.0967
H 13.4975 2.78448 10.1985
O -10.0658 -1.71772 -12.9735
H -10.2564 -1.73837 -13.9549
H -10.9099 -1.52278 -12.474
O -0.656286 -13.264 2.82024
H 0.0510931 -13.6598 3.40587
H -1.55234 -13.6079 3.10101
O -1.17138 4.4587 -7.9646
H -0.409098 4.22348 -7.36161
H -1.91294 3.80008 -7.83683
O 9.91563 7.11798 11.6944
H 10.2664 8.05408 11.7204
H 9.68553 6.82239 12.6216
O -10.7786 -4.26637 1.20951
H -11.1055 -3.35079 1.44369
H -11.5415 -4.81557 0.868396
O -1.74298 4.9539 13.7035
H -2.20239 4.11577 13.9976
H -1.66879 5.58256 14.4776
O 1.64177 -10.8898 -11.2426
H 0.982542 -10.452 -10.6312
H 1.47397 -10.5916 -12.1822
O -8.78663 -8.09639 -5.19664
H -7.99584 -7.74973 -4.69219
H -8.50893 -8.8774 -5.75602
O -1.04822 0.140353 14.9377
H -1.20805 -0.78087 14.583
H -1.82039 0.415638 -14.403
O -1.168 -14.7901 -11.0593
H -0.276204 -14.4114 -10.8118
H -1.63158 14.7965 -10.2357
O 5.98359 -7.45594 3.09778
H 5.3212 -7.0849 2.44695
H 6.79517 -7.76979 2.60499
O -6.06441 -5.71616 0.00323789
H -5.63631 -5.30501 0.80803
H -5.41078 -6.32351 -0.448331
O -5.11608 -2.44501 -12.9971
H -5.08675 -1.75485 -12.274
H -6.06533 -2.70976 -13.1669
O 11.0094 -9.11159 -5.57116
H 11.3293 -8.23657 -5.93448
H 11.7883 -9.63196 -5.22113
O -4.03857 -13.1639 -11.2121
H -3.6236 -12.3878 -10.7372
H -3.39286 -13.9273 -11.2307
O -4.94767 12.7762 6.58566
H -4.9951 11.8089 6.33684
H -4.00419 13.0156 6.81494
O -4.81984 -3.82277 -2.74737
H -5.77186 -4.04982 -2.54212
H -4.37451 -4.60911 -3.17557
O -0.526986 13.6218 1.82199
H -1.34127 13.9412 2.30672
H 0.15761 14.3505 1.80428
O 1.71908 7.2899 0.666911
H 0.916755 7.66948 1.12757
H 2.23917 6.72919 1.31121
O 11.3331 4.36249 1.31101
H 11.2013 4.00036 2.23379
H 11.7173 5.28406 1.36631
O -10.9972 -4.63801 12.568
H -11.8836 -5.02924 12.3204
H -10.3362 -4.82336 11.8408
O 9.94175 11.0582 -6.78052
H 10.1946 11.9798 -7.07481
H 8.9453 10.9765 -6.75984
O 6.86041 11.3002 0.360354
H 7.0708 12.0951 -0.208695
H 7.23598 10.4768 -0.0651931
O -3.76757 -13.2254 -5.49784
H -3.47626 -12.6209 -4.7564
H -3.83381 -12.7025 -6.34767
O -2.76935 3.275 8.85563
H -2.13727 3.64607 8.17535
H -2.64435 3.75534 9.72376
O 12.5099 6.93072 2.20933
H 12.6936 7.11667 1.2441
H 13.2203 7.35425 2.77147
O -14.2824 12.1125 -9.89358
H -14.5016 11.5431 -9.10133
H -14.4943 11.6118 -10.7329
O 1.19253 -0.701205 12.6506
H 1.63961 0.152702 12.917
H 0.325766 -0.495935 12.1961
O -2.03842 -11.5467 -1.28304
H -2.4845 -12.2478 -0.726741
H -1.12892 -11.8635 -1.55219
O -11.648 -1.79678 -6.6025
H -10.8607 -2.41271 -6.57434
H -11.5279 -1.13607 -7.34349
O -14.5498 4.52645 4.39957
H -14.6841 5.44743 4.76531
H -13.5914 4.4073 4.14018
O -1.7935 -4.35387 11.5385
H -2.7571 -4.09559 11.4694
H -1.71744 -5.23643 12.0025
O -10.0801 6.27513 6.70887
H -9.85483 7.23249 6.88981
H -9.76447 5.70882 7.47025
O -4.53126 -4.43872 -10.5995
H -5.07778 -4.78648 -11.3613
H -5.0798 -3.79985 -10.0601
O 6.52864 8.80043 -13.294
H 6.04719 9.59929 -12.9334
H 7.45321 9.06442 -13.5688
O 12.376 5.57438 -10.6762
H 12.6976 5.69744 -9.73738
H 13.1087 5.17939 -11.2304
O -7.18982 1.90746 9.49626
H -6.72839 1.02071 9.46867
H -7.94835 1.8684 10.1467
O 1.84871 4.19383 12.7991
H 1.12881 4.26284 12.1084
H 1.59364 4.73339 13.6015
O -4.12064 -0.541178 5.17976
H -3.44742 -1.16329 5.57945
H -4.09768 0.332118 5.66641
O -11.684 -12.4148 3.76355
H -11.2329 -12.0356 4.57149
H -11.2909 -13.3095 3.55143
O 12.9222 -8.58955 3.33344
H 12.1977 -9.19264 3.66714
H 13.4266 -9.04778 2.60159
O -2.66306 0.588087 9.18367
H -2.68512 1.5808 9.06519
H -1.83425 0.220408 8.7619
O 10.2402 10.9862 7.20599
H 10.0962 11.5298 8.0329
H 9.67427 11.3492 6.46574
O 13.8454 -7.27026 -6.98828
H 13.5465 -7.78662 -6.18579
H 14.2829 -7.89028 -7.63959
O 2.80957 0.820323 9.26132
H 2.29468 1.66133 9.09518
H 2.20389 0.0319209 9.15368
O -0.221174 11.3662 -1.4679
H 0.37577 11.6691 -2.21081
H 0.288216 10.7601 -0.85706
O -12.1872 2.35998 -10.5519
H -11.7683 2.12287 -11.4285
H -11.8293 3.23959 -10.2386
O 10.551 9.70162 11.6525
H 9.69563 10.1925 11.8181
H 11.1968 10.3056 11.1855
O -0.272583 -13.4906 10.229
H -0.677213 -13.0793 9.4123
H -0.902829 -13.3919 10.9991
O 12.6949 10.916 -9.26276
H 12.8305 10.4026 -10.1101
H 13.2057 10.4786 -8.52265
O 12.7549 0.817295 -8.8845
H 13.6235 0.547458 -9.30007
H 12.821 0.734102 -7.89016
O 2.24884 2.67295 1.43939
H 2.87673 2.03269 1.88191
H 2.469 2.73671 0.466012
O 14.6995 6.59691 -6.0794
H 14.4742 5.63686 -6.24533
H -14.6829 6.95247 -6.84866
O -9.81465 -2.64515 -8.3714
H -9.10428 -1.94137 -8.3623
H -9.59753 -3.32891 -9.06807
O -5.44885 8.57399 -11.8447
H -5.16118 9.32149 -12.4435
H -6.40406 8.34528 -12.0325
O -6.11464 2.31829 14.674
H -5.25684 2.19886 -14.7394
H -6.74225 2.87585 -14.696
O -1.95564 -5.15258 -1.42443
H -2.70302 -5.67192 -1.83882
H -1.56328 -4.53297 -2.10424
O -0.76364 7.90449 2.14152
H -1.37287 8.68609 2.2755
H -0.136307 7.83408 2.91708
O 11.2057 -8.79972 -1.851
H 11.8179 -8.70423 -1.06607
H 10.3155 -9.13323 -1.54076
O -7.54313 -14.5864 -5.49555
H -7.9857 14.6131 -6.03828
H -6.58797 -14.497 -5.77783
O -2.93083 -2.88553 -5.27407
H -3.33994 -2.28323 -4.5886
H -2.98061 -2.44989 -6.17282
O 11.8517 13.9546 13.998
H 12.0637 14.8122 14.4667
H 12.344 13.2037 14.4381
O -9.93507 -13.6197 -12.0984
H -9.53858 -14.2677 -12.7487
H -10.11 -14.0838 -11.2301
O -12.1607 -2.69201 -10.1473
H -11.2605 -2.51364 -9.74982
H -12.3319 -2.04367 -10.8891
O 13.0397 4.12058 -3.70427
H 13.4297 3.90031 -4.59835
H 13.3276 3.4339 -3.03673
O 12.1282 6.72501 7.77826
H 12.4024 5.83802 7.40672
H 11.6427 6.58895 8.64185
O 13.5209 7.27536 12.1361
H 12.7895 6.60776 12.2752
H 14.3103 6.82329 11.7208
O 7.25667 7.12042 2.16427
H 7.51991 6.42284 2.83067
H 7.90828 7.11947 1.40571
O 0.191872 -13.2246 -1.88513
H -0.580623 -13.8356 -2.05806
H 0.904017 -13.7201 -1.38786
O -11.7997 9.40061 1.73699
H -11.776 9.43317 0.7378
H -11.0817 8.78808 2.06764
O 2.79891 13.3105 3.98348
H 2.51125 12.4601 3.54307
H 3.79559 13.3837 3.94794
O -6.35191 -7.26448 -8.67025
H -7.23804 -7.58975 -8.34013
H -6.30588 -7.37299 -9.66329
O -4.65598 2.14204 5.43072
H -4.12603 2.89521 5.82047
H -5.56449 2.12274 5.84813
O 2.6408 6.40021 10.565
H 2.95802 6.78952 11.4297
H 2.25244 7.1249 9.99575
O 14.7183 10.1728 -14.3804
H 14.015 9.60097 -14.8027
H 14.3135 11.0406 -14.092
O -1.01028 14.131 -2.59099
H -0.941088 13.4807 -1.83445
H -0.244224 13.9943 -3.21907
O -8.9067 7.55894 -7.96484
H -9.56693 8.16737 -7.52449
H -9.04106 7.58231 -8.9555
O 13.7102 14.3785 -0.134805
H 13.7763 14.5331 -1.12057
H 13.1204 -14.8379 0.273129
O -10.9524 -13.7178 0.0184305
H -11.4421 -13.9892 -0.81015
H -10.3936 -12.9112 -0.173803
O 12.426 -9.41435 14.6484
H 12.483 -9.29344 -14.2739
H 13.246 -9.03621 14.2187
O 6.38774 -12.5599 13.951
H 5.5986 -13.1726 13.9081
H 6.14868 -11.745 14.479
O -5.31716 -0.331731 -11.0494
H -6.21233 0.0701754 -11.2422
H -4.73756 0.346512 -10.5977
O -8.12818 1.77016 12.6077
H -7.57891 0.944574 12.4784
H -7.61664 2.42756 13.161
O -5.2123 -8.92765 -4.8518
H -5.75949 -8.11565 -4.64868
H -5.66907 -9.46945 -5.55736
O -0.458074 7.60091 13.1454
H -0.993528 8.3779 12.8143
H -0.798968 6.75889 12.7273
O -12.474 -0.912114 -1.7553
H -11.8056 -0.475703 -2.35758
H -12.1217 -1.79766 -1.45252
O 13.8573 -2.96998 -7.19011
H 13.7499 -2.10697 -7.68377
H 14.794 -3.30242 -7.29988
O -7.35995 10.5266 9.11342
H -6.56008 10.8279 9.63253
H -7.21686 10.7147 8.14173
O 4.85965 13.1669 -7.25139
H 4.64674 14.1407 -7.17078
H 4.86281 12.9052 -8.21653
O -6.61008 -7.46748 9.9906
H -7.15812 -6.88683 9.38852
H -6.6941 -8.42098 9.70114
O 6.5136 -12.3456 5.68754
H 5.79955 -12.218 6.37591
H 7.36737 -12.6075 6.13751
O -9.6995 3.59659 11.545
H -9.20934 2.82709 11.9544
H -10.4805 3.83857 12.1207
O 1.676 -13.4462 14.7737
H 1.43345 -12.5391 14.4296
H 0.8821 -14.0507 14.7083
O 14.8374 -8.8882 -9.10924
H 14.525 -9.82742 -8.96672
H -14.1302 -8.80035 -8.79638
O 9.09795 -7.30314 8.91893
H 9.18328 -6.65288 8.16402
H 9.30733 -6.84209 9.78125
O 0.304019 1.34881 4.65955
H -0.512482 1.34243 4.08223
H 0.910915 2.08912 4.37039
O 5.61232 11.2251 12.7914
H 5.56052 11.5193 13.7457
H 5.78929 12.0175 12.2075
O -1.10567 5.24506 4.11162
H -2.09038 5.13494 3.97661
H -0.618982 4.52346 3.61925
O -1.74171 6.8543 6.90939
H -1.54079 7.63971 6.32394
H -2.72 6.65081 6.86998
O -4.78706 8.2726 12.2849
H -4.31612 8.30075 11.4032
H -5.04992 7.33035 12.4925
O -0.724974 -9.63776 -3.86498
H -0.261606 -8.76226 -4.00205
H -0.0648907 -10.3828 -3.96077
O -3.58412 11.3029 -9.89949
H -4.23941 11.0925 -10.625
H -3.42253 10.4841 -9.34858
O -2.07986 -13.2459 12.2078
H -2.1524 -12.2781 12.4488
H -2.85748 -13.506 11.6354
O -14.5907 6.88309 -12.1447
H 14.6903 7.05816 -12.8994
H -13.9151 6.20207 -12.4271
O -4.59012 -3.5472 11.2813
H -4.89333 -2.70765 10.8305
H -5.34589 -3.93306 11.8104
O 12.4494 13.4921 11.4421
H 12.2375 14.084 12.2197
H 12.694 14.0544 10.6522
O -4.40646 9.56996 8.67341
H -3.96352 8.78346 9.1038
H -4.54625 10.2881 9.35515
O -1.75273 -2.49317 13.9332
H -1.77754 -3.29615 14.5287
H -1.49607 -2.77225 13.0078
O -6.47532 9.21859 -7.31185
H -5.70009 8.91404 -7.86528
H -7.27815 8.66314 -7.52849
O -4.97822 -13.647 -2.56651
H -4.46782 -13.6781 -3.42589
H -4.34301 -13.7283 -1.79845
O 10.4487 12.7194 -0.496989
H 11.4203 12.5685 -0.314642
H 10.0821 13.3708 0.167272
O -8.64847 -7.47088 12.8054
H -8.41385 -7.0502 11.929
H -9.07816 -8.35936 12.6442
O -5.6875 9.93593 -4.67796
H -5.23559 10.8276 -4.704
H -5.81227 9.59812 -5.61087
O -13.3329 7.81955 8.23394
H -12.8399 6.96748 8.40992
H -13.3715 8.36176 9.0733
O 4.79437 -13.1687 -11.0296
H 4.33726 -12.7614 -10.239
H 5.06538 -12.4468 -11.6664
O 14.2807 14.748 -2.74911
H 14.9234 -14.6283 -3.29549
H 14.0391 13.9132 -3.2438
O -3.15193 -14.4631 2.47353
H -3.41671 -13.501 2.40719
H -3.89128 14.9298 2.90065
O -10.0407 13.458 -9.82669
H -9.09216 13.1446 -9.87179
H -10.5609 13.0553 -10.5798
O -13.8323 -4.29169 -12.3293
H -13.3115 -4.89394 -11.7243
H -13.5075 -4.40116 -13.2688
O 6.66895 11.0749 5.54189
H 6.96429 11.3977 4.64268
H 7.19227 10.2603 5.79201
O 9.1819 -14.0001 -1.36156
H 9.86411 -13.3112 -1.60648
H 8.55243 -14.1327 -2.12718
O -14.7992 10.0517 -7.97495
H -14.428 9.89594 -7.05953
H -14.7851 9.19501 -8.49058
O 4.62934 0.501788 12.9021
H 3.88016 1.03197 13.2992
H 4.99925 0.988461 12.1107
O -3.01848 -9.5641 8.51071
H -3.74928 -9.99694 9.03851
H -2.13985 -9.73274 8.95747
O 7.49557 1.04651 -14.4247
H 7.86044 1.6527 14.782
H 6.5305 1.25794 -14.2699
O -3.62462 2.67303 -4.59298
H -3.83584 3.59996 -4.90314
H -4.25714 2.41349 -3.86322
O 11.2093 -9.21479 8.88561
H 11.9143 -8.63772 9.2979
H 10.6007 -8.65041 8.32781
O 2.1687 -0.818444 -14.6761
H 1.38479 -0.530427 14.6872
H 2.1957 -1.81709 -14.6315
O -9.54727 -10.0947 12.8046
H -9.6665 -10.3865 11.8555
H -9.35549 -10.8921 13.3768
O 5.10421 -4.82329 -4.66667
H 5.4471 -3.90165 -4.84838
H 4.69943 -4.85416 -3.75277
O 2.10445 10.1151 -0.626796
H 2.52463 9.44785 -0.0117815
H 2.71797 10.2915 -1.39652
O -6.6728 -6.74998 -4.27534
H -6.00448 -6.18317 -4.75708
H -7.18154 -6.18562 -3.6252
O 6.72734 11.3581 -4.32316
H 7.34972 11.1057 -3.58225
H 7.1043 12.137 -4.82435
O -8.2113 5.45191 -13.4158
H -7.81543 4.68285 -12.914
H -8.13984 5.28085 -14.3985
O -6.59043 -4.07666 13.0841
H -5.98016 -3.50141 13.6287
H -7.28754 -4.47865 13.6777
O -14.3285 10.374 2.35827
H -13.4957 9.8362 2.22735
H -14.6726 10.6773 1.46965
O -5.98109 -7.28984 14.4721
H -6.70615 -7.39264 13.7912
H -5.34855 -8.06142 14.4046
O 4.58596 -2.17267 2.07693
H 4.34082 -1.94608 3.01957
H 4.56301 -1.3437 1.51811
O 7.80595 7.20022 -6.31128
H 8.63038 7.05493 -6.85829
H 7.8209 8.12219 -5.92428
O 0.810458 7.01321 4.21599
H 1.57443 6.5802 3.73761
H 0.0484475 6.36873 4.27919
O -7.62515 -13.1384 -8.95453
H -7.50251 -13.4801 -9.88631
H -6.84611 -13.4162 -8.39243
O 12.39 14.6341 -5.60272
H 12.982 13.8496 -5.78731
H 11.9095 14.4928 -4.73719
O 11.4795 -2.51305 -4.2089
H 10.8288 -2.0463 -3.6099
H 11.2883 -2.27237 -5.1605
O -5.23683 -11.3985 0.444607
H -4.25272 -11.3483 0.614894
H -5.43002 -11.0908 -0.487055
O -5.16976 13.3463 -0.279099
H -5.93522 13.852 -0.676928
H -4.34024 13.527 -0.807525
O 3.11762 13.7723 1.00205
H 3.99905 13.8566 0.537318
H 3.23971 13.9372 1.98076
O 9.72153 -4.13898 8.61025
H 9.29716 -4.53961 7.79821
H 9.3532 -3.22151 8.76056
O -4.37467 -7.54519 -1.1835
H -4.98761 -8.14526 -1.69753
H -3.43597 -7.8807 -1.26273
O -7.55912 11.4815 11.9532
H -7.93603 10.8583 12.6385
H -7.999 11.3124 11.0712
O 1.88812 10.8791 13.9339
H 1.95442 10.0303 13.4094
H 2.43083 10.7976 14.7698
O 7.38851 -3.08501 -11.5627
H 6.86004 -3.12315 -12.4108
H 7.84204 -2.19656 -11.4922
O 9.93476 -8.15156 5.64494
H 9.06238 -8.63577 5.57785
H 10.6852 -8.81217 5.62326
O -5.22487 9.87548 14.5635
H -6.20274 10.0659 14.4768
H -4.93154 9.28784 13.8095
O -14.7495 -14.1095 12.293
H -14.5859 -14.1571 11.3077
H -14.406 -14.9416 12.7285
O 9.70104 -6.52476 11.9205
H 10.6056 -6.27706 11.5735
H 9.80131 -7.12509 12.714
O 8.82387 3.62044 0.444945
H 9.75188 3.91064 0.678585
H 8.82998 2.65155 0.197497
O 13.6651 12.7858 -13.8771
H 12.9136 12.4715 -13.297
H 14.1422 13.5396 -13.4252
O -13.5433 0.619679 0.867228
H -13.1068 1.5138 0.967131
H -13.3305 0.243756 -0.0346572
O 13.9014 -12.862 -1.27133
H 14.7773 -12.4212 -1.07521
H 14.051 -13.6494 -1.86938
O 3.7391 9.85005 11.142
H 3.36917 9.11476 11.7099
H 4.39711 10.3831 11.6739
O 8.553 4.45763 -10.5024
H 8.95957 4.70779 -9.62365
H 7.66428 4.90597 -10.5981
O -2.68355 -1.71874 -10.159
H -2.59638 -2.62904 -10.5637
H -2.6071 -1.02633 -10.8765
O -11.4323 1.95866 -13.0434
H -10.6451 1.71802 -13.6112
H -12.2624 1.94334 -13.6009
O -1.70665 9.71669 8.45876
H -2.68282 9.77902 8.25089
H -1.22573 10.4836 8.03374
O 2.12124 -3.39778 -13.4712
H 2.0682 -3.76421 -14.4002
H 2.93897 -3.75359 -13.0188
O 9.76046 11.6696 4.08609
H 10.7487 11.5426 4.00124
H 9.28825 10.8766 3.7012
O 8.94211 13.695 13.6172
H 8.56969 14.5223 13.1967
H 9.92882 13.7995 13.7416
O -13.1333 13.3804 -5.62897