2611
Atoms. Timestep: 8000000
O -8.31748 2.73792 -12.361
H -7.87429 3.53957 -11.9598
H -8.46876 2.0504 -11.6507
O 9.75786 14.5367 3.45196
H 9.97805 14.9141 4.35141
H 8.78106 14.327 3.40851
O 10.1184 12.489 -10.6444
H 9.64859 11.8394 -11.2421
H 11.0865 12.2459 -10.5835
O -9.2193 11.2081 0.981237
H -8.42685 10.6138 1.11836
H -9.1759 11.6165 0.069453
O -10.2953 -8.92008 12.636
H -10.9519 -8.43076 12.062
H -9.44666 -9.0607 12.126
O -4.83479 -11.3842 -4.74309
H -5.19928 -11.7914 -5.58052
H -4.93206 -12.0322 -3.98765
O -0.871302 -9.1614 -13.4422
H -1.24166 -9.06157 -12.5187
H 0.127249 -9.12098 -13.407
O 9.12412 -10.7169 -3.25447
H 8.13726 -10.8284 -3.3714
H 9.5477 -11.6134 -3.12444
O 10.0448 -0.726462 6.33434
H 10.9022 -0.869554 5.84005
H 9.40594 -0.221264 5.75417
O 13.7442 -9.44605 10.8473
H 14.2579 -10.2989 10.7535
H 13.1856 -9.48283 11.6759
O 2.7112 14.7866 14.5079
H 3.09921 13.9648 14.0907
H 3.04962 14.8765 -14.4111
O -14.3074 6.05627 0.611673
H 14.6266 6.44401 0.620441
H -14.0273 5.88366 -0.332662
O -2.499 -14.6826 -3.00236
H -1.64905 14.666 -3.14532
H -3.14801 14.6011 -2.50076
O -1.14602 8.7318 -6.63347
H -1.18813 9.67081 -6.29222
H -0.267055 8.58064 -7.08574
O -9.55451 -12.6349 11.9828
H -9.67544 -12.0678 11.1681
H -9.43871 -13.5899 11.71
O 6.01938 8.86764 10.443
H 6.06479 9.22668 9.51076
H 6.11252 7.87223 10.4217
O 1.31169 -7.32423 3.22663
H 1.1383 -7.50557 2.25862
H 2.23183 -7.6353 3.4644
O 8.74838 -1.41794 -12.8438
H 8.56575 -0.788415 -13.599
H 9.04975 -2.29856 -13.2094
O 11.5863 -10.0516 12.5029
H 10.6941 -9.62676 12.3497
H 11.7693 -10.0976 13.485
O 11.4328 11.5351 10.9485
H 11.2704 11.2461 10.005
H 11.6052 10.7315 11.5182
O 6.51195 9.08708 -6.26721
H 6.69466 9.7918 -5.58168
H 6.32799 9.52015 -7.14958
O 12.3428 11.0078 -12.2928
H 12.8087 11.719 -12.8192
H 11.8598 10.3936 -12.9169
O 8.49751 0.769472 1.62861
H 7.73074 0.484555 1.0534
H 9.22969 0.0910773 1.56806
O 9.10053 0.16321 8.81151
H 9.52211 -0.0192122 7.92327
H 9.52153 -0.41987 9.50631
O -7.34408 -2.69774 -12.3341
H -7.57045 -2.01117 -11.6432
H -6.36421 -2.89437 -12.3001
O -5.35558 3.8238 -11.5655
H -5.59083 2.93956 -11.162
H -4.80581 4.35033 -10.917
O -7.81503 12.6323 -6.47648
H -8.59761 12.4572 -5.87907
H -7.10673 11.9469 -6.30738
O 4.38154 0.833612 9.86821
H 4.34165 1.32151 8.99624
H 5.0085 0.0587005 9.78819
O 7.29231 4.05939 7.54072
H 6.97878 3.67417 6.67281
H 7.25004 5.05753 7.497
O -14.6419 0.340513 -14.4632
H 14.4084 0.573561 14.8476
H -14.8056 0.581387 -13.5065
O -8.27539 11.1416 7.8236
H -8.14925 10.6847 6.94304
H -8.73812 10.5217 8.45737
O 0.875952 3.46788 2.58737
H 0.770038 4.12867 1.84433
H 1.81372 3.1207 2.59352
O -9.30207 -7.45312 0.17207
H -9.8463 -7.46296 1.01093
H -8.80197 -8.31509 0.089077
O -1.03088 -4.15982 2.77732
H -0.398242 -3.3964 2.64723
H -0.84518 -4.60067 3.65546
O -9.43141 -0.904984 3.00482
H -8.66379 -0.506771 3.50697
H -9.91051 -1.55803 3.59131
O 1.2668 0.922929 -6.21141
H 1.60885 0.0461938 -6.5495
H 1.67458 1.66652 -6.74127
O -8.24298 5.59175 -5.69932
H -8.72573 4.7435 -5.48162
H -7.72675 5.47321 -6.54751
O -4.9636 9.29052 -9.55024
H -4.79752 8.33342 -9.78764
H -5.70356 9.65119 -10.118
O 5.133 12.16 -14.0679
H 5.34488 12.674 -13.2368
H 5.94136 11.6479 -14.3583
O -4.57189 11.2326 14.8385
H -4.51809 10.9313 -14.0652
H -3.92051 10.7118 14.2868
O -0.923128 3.95153 4.31362
H -1.74328 3.61991 3.8474
H -0.128378 3.82578 3.71987
O 10.1336 -6.52856 5.63196
H 10.0143 -7.47229 5.32356
H 10.0251 -6.48623 6.62514
O -10.587 4.05524 -9.00629
H -10.8936 4.37406 -9.90312
H -11.3322 3.5654 -8.55396
O -8.85788 -2.49893 10.0615
H -9.24728 -2.65359 10.9695
H -7.91214 -2.18723 10.1531
O 4.52068 -12.8383 -3.02473
H 4.26849 -13.7852 -2.82568
H 4.99652 -12.7977 -3.90332
O -0.670935 -8.21806 0.269583
H -1.24166 -8.38563 -0.534264
H -1.13447 -8.56382 1.0854
O 0.186495 -4.77797 9.38633
H 0.911265 -5.33558 9.79099
H -0.122017 -4.0983 10.0518
O -6.82314 5.65964 5.61084
H -6.35501 5.27141 4.81704
H -6.42782 5.28243 6.44834
O 3.60241 -5.84413 14.1065
H 2.96303 -5.07669 14.0597
H 3.77829 -6.18821 13.1842
O 4.54082 13.9637 -10.1381
H 5.30848 13.686 -10.7156
H 4.14222 14.8078 -10.4967
O -14.8811 -6.16025 3.8794
H 14.6848 -6.5248 2.99446
H 14.3563 -5.42432 4.15531
O 6.52071 3.47558 -4.50008
H 7.52023 3.48812 -4.52782
H 6.15892 3.91929 -5.31995
O -7.32571 -4.5489 -7.86516
H -8.00541 -5.11997 -8.32545
H -7.17957 -4.88818 -6.93591
O 6.74519 -8.09479 14.9067
H 6.90905 -8.71936 14.1432
H 6.07562 -8.49876 -14.3257
O -7.78271 -0.537816 -10.6515
H -7.96283 -0.864379 -9.72369
H -8.46413 0.150287 -10.9009
O 12.1487 -10.6468 5.32057
H 11.2056 -10.5392 5.00572
H 12.1776 -11.3147 6.06424
O 2.62709 11.9357 -13.1784
H 1.89684 12.5843 -13.3929
H 3.43866 12.1567 -13.7192
O 7.26115 10.4282 -14.9068
H 7.74079 9.58097 -14.6786
H 7.27655 10.5635 13.9582
O -12.4685 -10.3179 -12.4544
H -13.1488 -11.0484 -12.3957
H -11.708 -10.6164 -13.0311
O 2.98051 10.6867 -0.605927
H 2.76487 10.4178 0.332789
H 3.73849 11.3389 -0.600064
O 9.78274 6.6557 13.8357
H 9.74952 6.92987 12.8746
H 9.66522 5.66499 13.9039
O -11.814 -0.100147 12.8031
H -10.9214 0.243499 13.0949
H -12.2099 -0.659824 13.5311
O -3.59197 -13.5557 4.146
H -4.3047 -13.6468 3.45052
H -3.82166 -14.1252 4.93521
O -4.45933 -11.695 8.90974
H -4.78171 -10.7562 9.03065
H -5.13502 -12.3302 9.28381
O -2.93566 5.70426 12.7581
H -1.98802 6.01987 12.8066
H -3.06742 4.94576 13.3963
O -4.30625 2.33272 8.31783
H -4.96744 1.59575 8.17754
H -3.38195 1.98612 8.15811
O 6.99174 13.7014 2.6467
H 6.72383 12.8821 3.15361
H 6.41746 14.4702 2.92815
O 6.01695 5.90799 10.4456
H 6.78968 5.46867 9.98751
H 5.19111 5.78877 9.89447
O -5.5839 10.2876 11.1421
H -5.47049 10.5004 10.1717
H -5.06261 9.46412 11.366
O -0.312481 -12.8358 5.43858
H -0.367088 -13.6142 6.06395
H -0.621031 -13.1162 4.52965
O -8.11503 11.2369 11.4102
H -7.98271 12.1357 10.9923
H -7.30796 10.6702 11.2445
O -4.61235 10.6294 2.02928
H -4.09159 10.5898 1.17652
H -4.76287 11.5847 2.28386
O 8.52107 9.00668 -9.42466
H 8.90656 9.54963 -8.67863
H 9.2043 8.35199 -9.748
O -0.892114 4.71023 8.61701
H -0.575695 3.94 8.06329
H -0.336446 4.77539 9.44584
O 5.24868 0.48768 2.45751
H 5.11271 -0.349031 2.98798
H 5.56567 0.252076 1.53882
O -13.6859 6.5678 -1.99762
H -14.1494 7.45258 -2.04624
H -14.2223 5.88304 -2.49097
O -8.81039 12.1531 -1.71527
H -9.03896 11.4356 -2.37326
H -9.27919 12.9993 -1.96856
O 2.73781 -12.2979 5.61779
H 1.80693 -11.9976 5.82575
H 3.39189 -11.6463 6.00188
O -11.1 -5.65789 14.4236
H -11.4954 -6.50104 14.788
H -10.1426 -5.81599 14.182
O -14.4918 -3.98212 -13.0348
H -14.2531 -4.21532 -13.9775
H 14.6412 -4.59375 -12.7129
O -7.45087 9.13437 -0.213183
H -8.09996 8.92254 -0.943786
H -6.67321 8.50796 -0.266264
O 14.8437 -7.27676 -7.25294
H -14.8356 -6.29308 -7.21772
H 14.0448 -7.45172 -7.82846
O 1.96485 1.29987 -11.784
H 1.9911 2.29787 -11.8413
H 2.47348 0.908473 -12.5509
O 1.91986 13.3451 10.7845
H 2.13523 12.9409 9.8956
H 1.2771 14.101 10.6601
O -12.1146 -8.61424 6.28328
H -11.9131 -9.56909 6.06506
H -11.3516 -8.03743 5.99152
O -2.18099 6.14298 -13.2841
H -2.05705 6.80591 -14.0224
H -2.81956 5.4319 -13.5783
O -4.7392 -12.0187 -7.6989
H -3.91289 -12.0067 -7.13583
H -5.23081 -12.8768 -7.55109
O -6.34752 -12.9622 -12.7023
H -6.93714 -13.0366 -11.8981
H -6.61986 -13.6457 -13.3796
O 3.46522 -13.6615 1.25033
H 2.72291 -13.1034 0.879502
H 4.28578 -13.5381 0.692265
O -0.550387 3.82493 -9.43574
H -1.43527 3.36256 -9.49196
H -0.472173 4.48674 -10.1813
O -5.98687 -5.16011 9.54729
H -6.38478 -5.50832 8.69854
H -5.53759 -5.90788 10.0361
O -8.72337 6.90891 -1.66454
H -8.9733 6.06954 -1.18187
H -9.52449 7.27016 -2.14169
O -6.70764 1.54779 -14.2722
H -6.51164 1.93297 14.6817
H -7.34585 2.14489 -13.7862
O 7.54425 2.38137 9.79203
H 7.32624 2.88628 8.95686
H 8.14223 1.61138 9.56952
O 14.4393 -9.40726 -5.33563
H 14.5894 -8.58334 -5.88206
H 13.8895 -10.0585 -5.85865
O 0.720234 -0.363009 5.74601
H -0.277125 -0.410203 5.69104
H 1.11985 -1.07878 5.17333
O 9.27593 -12.7182 11.0804
H 8.51908 -13.3714 11.1002
H 9.88427 -12.9359 10.3172
O 9.89263 7.27417 11.0833
H 10.8737 7.11832 11.1983
H 9.72594 7.7113 10.1995
O 0.202538 8.20605 -3.82998
H -0.666614 8.37656 -4.29417
H 0.54908 9.06205 -3.44638
O 0.557154 6.60094 1.75027
H -0.322734 6.5667 1.27635
H 0.58896 7.4108 2.336
O -6.52025 -14.7542 -14.7853
H -5.73491 -14.4889 14.5111
H -6.28152 14.3027 -14.2331
O 9.73566 12.3617 -14.8791
H 9.15519 13.0002 -14.3737
H 9.65908 12.5457 13.9967
O -9.48638 -10.4042 -7.04836
H -9.08321 -10.9706 -6.32959
H -9.21628 -9.45103 -6.91246
O 12.1814 7.16281 -14.8319
H 11.2728 7.19247 14.6073
H 12.3469 8.01304 -14.3322
O -6.01306 10.4554 -6.62984
H -6.55337 9.71764 -6.22512
H -5.69499 10.177 -7.53611
O -9.61878 -9.41081 8.09523
H -9.1593 -10.2769 7.8982
H -9.48077 -8.77917 7.33237
O 9.41873 8.31502 -5.80138
H 8.57651 8.09807 -6.29493
H 9.89559 9.06028 -6.26739
O -13.0406 -1.84485 -3.37149
H -12.615 -2.72003 -3.60154
H -14.0134 -1.87677 -3.60083
O 11.671 -9.11875 -1.25001
H 11.57 -8.47683 -2.0101
H 10.7746 -9.48731 -1.00373
O 8.1829 -2.62131 10.4925
H 8.19641 -3.53892 10.8897
H 9.07929 -2.19397 10.6101
O 0.807736 14.7736 -4.51717
H 1.73726 14.7987 -4.88505
H 0.161193 -14.7987 -5.22543
O -4.0313 -10.8594 3.95935
H -4.61367 -10.4824 4.67958
H -3.84672 -11.8234 4.1504
O -14.1048 5.43355 10.1499
H -14.6118 5.23294 10.9881
H -14.4876 6.24902 9.71583
O 12.8277 -8.22427 6.21616
H 12.4393 -9.08624 5.89035
H 12.5857 -8.09188 7.17735
O -14.2606 -12.5175 -9.60478
H -14.0195 -11.9006 -8.85556
H -13.6096 -13.2759 -9.63466
O 10.3927 4.75341 6.56177
H 10.5642 4.36025 5.65846
H 9.44628 5.07238 6.61223
O 12.8245 -12.2815 -9.41243
H 12.4462 -12.7121 -8.59295
H 13.8223 -12.3436 -9.39123
O 3.24429 2.93858 11.573
H 2.48301 2.38678 11.9135
H 3.83297 2.37366 10.9948
O 5.58775 -4.83144 0.499386
H 4.64435 -4.69178 0.800158
H 6.13754 -5.15898 1.26778
O 2.80169 10.6618 -3.3713
H 3.50105 11.3192 -3.65181
H 2.8394 10.5378 -2.37975
O -9.37876 13.5322 6.938
H -10.2104 13.5519 6.38306
H -9.23267 12.6064 7.28674
O -1.14573 6.13787 6.14554
H -1.08786 5.66498 7.02475
H -1.03738 5.47634 5.4035
O 10.6697 -6.80574 -12.7174
H 9.71376 -6.52512 -12.8033
H 11.205 -6.05269 -12.3349
O 4.00914 -1.97832 12.3808
H 4.7047 -1.26587 12.4734
H 3.22008 -1.61168 11.8879
O -13.4091 -1.79599 14.2501
H -13.9366 -1.08298 14.7119
H -13.9716 -2.61711 14.1536
O 14.1948 8.92828 -1.82504
H 14.807 9.30705 -1.131
H 13.5294 8.32318 -1.38802
O -12.4164 0.239313 -11.9729
H -12.0848 -0.251425 -11.1672
H -11.6503 0.699221 -12.4218
O 13.3946 0.889375 -4.72658
H 13.6561 0.171897 -4.08097
H 12.4086 1.04597 -4.66945
O -11.7832 13.2409 5.5134
H -12.5747 12.9476 6.04954
H -12.0383 14.0209 4.94196
O -1.4439 9.79179 -11.4636
H -0.943084 10.6508 -11.3574
H -1.78049 9.48977 -10.5717
O -11.3193 4.6934 -3.837
H -10.9894 4.95216 -2.92913
H -10.693 4.02715 -4.24177
O -7.66267 -1.29476 5.29491
H -7.7817 -2.21867 5.65849
H -7.92339 -0.626303 5.99145
O 12.638 -11.7558 -2.89951
H 13.046 -10.8786 -2.64666
H 12.966 -12.4674 -2.27822
O 8.37259 -4.00022 -11.5354
H 8.15103 -3.08156 -11.8625
H 8.15408 -4.66878 -12.2462
O 12.6038 -0.659919 5.5194
H 13.3586 -0.115016 5.15413
H 12.9659 -1.49362 5.93632
O -1.59208 -11.5294 10.6915
H -2.43101 -11.981 10.3879
H -1.74892 -10.5439 10.7568
O 12.1933 9.9268 -9.80993
H 12.1511 10.3838 -10.6984
H 13.1485 9.75737 -9.5673
O -14.2468 -0.50827 11.0288
H -13.518 -0.50512 11.7135
H -14.3879 -1.44081 10.6965
O 5.03678 -11.3311 6.80255
H 5.83167 -11.9323 6.88437
H 5.09013 -10.6119 7.49524
O -13.7092 -10.0229 -8.00925
H -12.8655 -10.5573 -7.95904
H -13.5515 -9.1141 -7.62296
O -10.6884 11.6104 12.3053
H -11.3957 11.5908 11.5986
H -9.79839 11.4189 11.8914
O 12.0274 -8.58896 8.77194
H 11.2874 -8.01565 9.12372
H 12.6059 -8.889 9.53039
O -1.63621 11.564 4.22933
H -1.74597 10.7922 3.60307
H -2.32523 11.5076 4.95184
O -9.257 14.8963 -4.51444
H -8.30244 14.7865 -4.23744
H -9.58056 14.0503 -4.93807
O 1.21147 -0.503983 11.5652
H 1.09813 -0.698839 12.5394
H 0.43524 -0.878283 11.0579
O 3.718 9.80053 12.648
H 3.37585 8.88424 12.8561
H 4.55642 9.72851 12.1078
O 6.27414 -10.3024 -0.791707
H 5.27588 -10.3583 -0.774197
H 6.61422 -10.124 0.131607
O -10.7584 -14.2611 -13.4532
H -10.9918 14.7173 -13.8725
H -10.9904 -13.5189 -14.0819
O 9.27462 -11.1334 -8.35044
H 9.00527 -12.0853 -8.49606
H 9.72854 -10.7862 -9.17103
O -5.69552 4.67355 8.02101
H -5.06741 5.36189 8.38382
H -5.18852 3.8378 7.8102
O -4.8206 -1.31319 -4.14608
H -5.74087 -1.64341 -4.35591
H -4.33648 -1.9986 -3.60219
O 8.34429 1.01138 4.41141
H 7.57158 1.64604 4.42154
H 8.7671 1.01545 3.50522
O -8.14971 4.00524 0.740669
H -8.22243 3.25362 1.39623
H -8.89918 4.65046 0.888858
O -9.30561 14.2484 11.4593
H -9.81171 13.73 12.1485
H -9.92068 14.497 10.7111
O -4.73708 8.06234 -13.6186
H -5.58522 7.81184 -14.0854
H -4.73433 9.04575 -13.4373
O 8.84667 -6.48525 0.189537
H 8.0532 -5.95192 0.482693
H 8.53833 -7.34387 -0.219937
O -3.5108 -12.6005 -12.661
H -4.49291 -12.4427 -12.7634
H -3.03473 -12.2823 -13.4808
O -5.76818 0.975795 2.29457
H -5.41729 0.165186 2.76336
H -5.23454 1.13796 1.46456
O -2.47295 -13.071 -0.248894
H -3.45215 -13.1246 -0.0532664
H -2.27385 -13.5693 -1.09271
O -13.1967 -8.8143 1.43751
H -14.0166 -8.24405 1.38718
H -13.1868 -9.30781 2.30718
O -8.98323 -5.89565 -9.88424
H -8.64924 -6.83643 -9.94226
H -8.95205 -5.4744 -10.7906
O 1.45574 -3.85253 14.143
H 1.5461 -2.90891 13.8246
H 0.534159 -3.99577 14.5037
O -5.31088 -1.61888 3.60934
H -6.21867 -1.70188 4.02044
H -5.23861 -2.24377 2.832
O 5.92527 9.51704 8.01116
H 5.88772 8.67568 7.47201
H 5.20681 10.1415 7.70487
O 5.84114 -3.64863 -4.86426
H 6.75839 -3.70308 -4.4697
H 5.21924 -3.22612 -4.20495
O -4.95068 -0.498099 -8.66692
H -5.68457 -0.321137 -8.01112
H -4.654 -1.44966 -8.58638
O -0.252888 2.82945 6.82479
H -0.376154 2.90808 5.83555
H -0.706987 2.00095 7.15245
O 12.56 0.243303 -12.836
H 13.4028 0.723834 -12.5934
H 11.8191 0.54652 -12.2367
O -10.9121 -3.26418 8.38827
H -10.5141 -3.93901 7.76683
H -10.2158 -2.9567 9.0367
O 3.66481 5.73941 8.77588
H 3.25865 4.98781 8.25617
H 3.0559 5.99199 9.52781
O -9.26719 7.43842 9.64553
H -9.93209 6.69998 9.75773
H -8.56266 7.36262 10.3511
O 0.132959 -14.1959 -10.5425
H -0.843241 -14.0376 -10.3944
H 0.620057 -14.1111 -9.67335
O -7.24804 -6.73864 7.44474
H -6.77477 -7.61946 7.45646
H -7.28354 -6.39178 6.50751
O 10.1308 3.47995 13.6473
H 10.1366 3.6393 12.6601
H 9.19646 3.56579 13.9932
O 6.84889 -11.6491 14.2653
H 7.73474 -12.1066 14.1884
H 6.15192 -12.3148 14.5318
O 4.90593 7.50004 -9.92419
H 5.35202 7.44057 -10.8172
H 3.91436 7.53564 -10.0486
O -10.2776 10.6249 4.967
H -10.9635 10.2306 5.57859
H -9.36295 10.4155 5.31277
O -3.09284 2.12136 -12.4557
H -3.90846 2.68865 -12.342
H -3.28785 1.19116 -12.1448
O 2.50377 -2.05169 -5.05948
H 2.80857 -1.59656 -5.89609
H 3.16172 -1.87781 -4.32678
O -7.04604 -3.84679 14.4602
H -7.4021 -3.00872 14.8735
H -6.04635 -3.82398 14.4688
O -1.21381 -10.4283 6.36626
H -0.940743 -11.3469 6.08074
H -0.510438 -9.77174 6.09391
O 6.34792 -1.06276 9.12862
H 6.71056 -1.75008 9.75794
H 7.10095 -0.516899 8.76124
O 0.927188 -9.16305 14.064
H 0.868621 -10.038 13.5835
H 0.0112061 -8.7735 14.1599
O -14.0978 -4.39241 -8.18832
H -13.1813 -4.53729 -8.56119
H -14.4922 -3.56393 -8.58583
O 1.37799 -13.3402 -8.40013
H 1.71929 -12.4796 -8.02216
H 2.03276 -14.0713 -8.20853
O -5.25006 -6.02246 -2.7313
H -4.66173 -5.9492 -3.53658
H -5.68673 -5.14007 -2.55616
O 0.722752 -12.5855 -14.2893
H 1.12849 -13.357 -14.7793
H -0.107692 -12.2902 -14.7617
O -14.4453 -13.703 -6.40817
H 14.6094 -13.438 -5.87143
H -13.6492 -13.1836 -6.09748
O -6.95272 4.8427 14.4317
H -7.73723 4.70768 13.8265
H -6.85764 5.81567 14.6421
O -11.2706 7.87811 -3.12876
H -11.2126 8.41872 -2.28951
H -11.9899 7.19007 -3.03297
O 2.50849 13.8499 -8.20799
H 2.03973 12.9838 -8.38195
H 3.35614 13.8823 -8.73753
O -1.58097 -4.43239 7.34468
H -2.3651 -4.81708 7.83164
H -0.855509 -4.21717 7.99841
O -7.36439 -10.1604 -2.3326
H -7.94585 -10.0538 -1.52606
H -7.36298 -11.1188 -2.61809
O 1.26908 -10.0544 -5.78605
H 1.65111 -9.54234 -5.01677
H 1.02659 -9.4208 -6.52068
O 2.30325 -6.07698 10.4954
H 3.16298 -6.58699 10.5223
H 2.49611 -5.10569 10.3562
O 13.3279 -4.85422 11.3428
H 13.3574 -4.08619 11.9826
H 14.24 -5.00629 10.9623
O -3.03155 -14.359 -7.85315
H -2.18273 -14.4285 -7.3291
H -2.81845 -14.1394 -8.80518
O -3.10865 -5.44504 11.211
H -3.28057 -4.48067 11.01
H -2.14309 -5.57109 11.4386
O 5.85097 2.62541 -1.99033
H 5.88041 2.99889 -2.91748
H 6.28682 3.26657 -1.35872
O 6.30511 13 12.262
H 6.53586 12.0328 12.368
H 5.43795 13.1883 12.723
O 6.20366 5.69874 14.6246
H 6.19971 6.69391 14.7225
H 5.63288 5.43813 13.846
O -12.6467 -6.82291 -3.19513
H -11.9131 -7.48914 -3.32892
H -12.6381 -6.50341 -2.2476
O 0.770099 11.5368 -6.15463
H 1.54356 11.1057 -6.61925
H 0.952393 11.5783 -5.17227
O -4.29923 13.6366 -9.29783
H -4.08439 14.2871 -8.56941
H -5.29097 13.5812 -9.41343
O 5.33874 13.0618 9.50343
H 5.95376 12.9893 10.2886
H 4.73091 13.8461 9.62744
O -6.08808 0.430247 10.4593
H -6.12987 -0.543353 10.6837
H -6.07621 0.543148 9.46579
O 14.5006 -0.849559 1.26682
H 14.3439 -1.5136 1.9979
H -14.5681 -1.13528 0.720044
O 0.485855 9.27966 10.5228
H 0.98171 9.39105 9.66154
H 0.733774 10.0195 11.1482
O 10.1628 -6.05225 14.3118
H 10.9559 -6.34394 13.7772
H 10.0533 -6.65527 -14.7537
O -0.0679566 -1.98166 -4.38033
H 0.128876 -2.41631 -3.50152
H 0.760279 -1.97258 -4.94061
O 4.66804 5.09717 12.6571
H 5.2602 5.51888 11.9705
H 4.06406 4.43435 12.2146
O -1.6351 3.08914 0.865583
H -1.48875 2.11445 1.03448
H -0.95635 3.41936 0.209664
O 3.33004 -10.8197 -14.3026
H 2.50624 -10.4242 -13.8965
H 3.65042 -11.578 -13.7348
O 14.1394 4.5903 12.1492
H 14.0798 3.66768 11.7681
H 13.9153 4.56371 13.1233
O -9.39507 9.94936 -8.02397
H -10.0103 10.6984 -7.77835
H -8.82805 9.71156 -7.23536
O -3.73493 1.43729 -2.42916
H -3.95775 2.36932 -2.71488
H -3.02746 1.06472 -3.02972
O -11.5057 6.01466 10.1902
H -12.4405 5.77306 9.93026
H -11.5285 6.67555 10.9403
O 13.2351 14.37 8.24301
H 13.0341 13.9426 7.36159
H 13.6631 13.6993 8.84878
O -8.04443 -3.78423 6.58487
H -7.25707 -4.09798 6.0542
H -7.81642 -3.79638 7.55844
O -0.566144 2.97096 -12.8255
H -1.52882 2.7743 -12.6396
H -0.358281 3.90931 -12.5494
O -11.9433 -6.32691 -0.551788
H -11.2316 -6.93252 -0.195786
H -12.5805 -6.09358 0.182713
O 1.12704 -0.809565 14.2072
H 1.97837 -0.632034 14.7008
H 0.471496 -0.0794406 14.3999
O -2.22098 -5.15735 -1.25595
H -1.36926 -5.08321 -0.737255
H -2.23945 -6.03028 -1.74343
O -11.956 -10.5805 -0.429335
H -12.5351 -10.5619 -1.24435
H -12.3262 -9.95427 0.256858
O -2.33659 -0.11242 -4.19144
H -3.00639 -0.815181 -3.95172
H -1.41486 -0.495002 -4.12801
O -8.69213 4.97069 8.15777
H -8.04911 4.5868 7.4951
H -8.18461 5.38403 8.91377
O 1.1519 -7.41847 -10.9509
H 2.11367 -7.69067 -10.9803
H 0.82936 -7.23318 -11.8791
O -0.311093 -10.7865 -3.6769
H -0.707876 -9.96614 -3.2651
H 0.288226 -10.5234 -4.43292
O -7.80309 -4.50531 -1.60986
H -8.79054 -4.34761 -1.60358
H -7.62276 -5.48842 -1.64074
O -12.3683 9.13846 6.11869
H -12.1831 8.20393 5.81485
H -13.3279 9.21712 6.38879
O -12.8054 -14.8057 -1.27997
H -13.1299 -14.0876 -1.89553
H -11.8124 -14.8909 -1.36142
O 14.4164 -5.64836 8.49408
H -14.7599 -5.87276 7.79552
H 13.7474 -5.00897 8.11513
O 7.63299 0.623499 -14.8603
H 7.69439 1.62158 -14.867
H 7.21694 0.309442 14.142
O -11.1626 5.36023 -1.04071
H -12.1597 5.38268 -0.968391
H -10.7589 5.58705 -0.154382
O 14.3135 2.94033 -8.29965
H 13.7017 2.33598 -8.8099
H 14.2003 3.8797 -8.6233
O -14.2055 -1.79093 -11.1964
H -14.2479 -2.57502 -11.8156
H -13.6368 -1.07575 -11.6026
O -6.07049 11.7348 -3.91685
H -5.94927 11.2852 -3.03193
H -5.89697 11.0783 -4.65088
O 4.77759 12.9099 -0.796427
H 4.66161 13.4961 0.00535595
H 4.3892 13.3624 -1.59916
O -6.64149 4.23411 10.7274
H -7.30542 3.48752 10.6853
H -6.08587 4.2333 9.89598
O -8.62865 -12.5021 -5.55313
H -8.87133 -13.3957 -5.17549
H -8.53858 -11.8394 -4.80971
O 9.69018 -14.3712 -10.8016
H 10.3492 -13.7098 -11.1597
H 10.1159 14.5807 -10.7568
O 14.2877 1.91789 3.50924
H -14.8467 2.41328 3.0252
H 14.7002 1.27815 4.15775
O -14.7688 9.67906 6.82256
H 14.6598 9.1516 6.08817
H 14.4841 9.68823 7.6204
O 0.0873656 -5.41566 0.665615
H -0.166579 -6.36398 0.475419
H -0.276498 -5.14553 1.55702
O -8.14009 -12.5783 6.38346
H -8.15763 -11.9637 5.59484
H -7.72399 -13.4482 6.11885
O 12.3253 -9.17664 -11.8978
H 12.2851 -8.21401 -12.1656
H 13.2807 -9.45749 -11.8063
O 10.3687 1.61727 -11.5457
H 9.71638 0.888979 -11.3359
H 9.88719 2.38399 -11.9702
O 3.01159 -13.8199 -11.297
H 3.45819 -13.6725 -12.1795
H 2.02057 -13.8532 -11.4264
O -8.99356 -5.00255 -12.4716
H -9.95277 -4.72706 -12.5349
H -8.40792 -4.22869 -12.7127
O -0.374764 -0.98004 8.94804
H 0.592732 -1.19053 8.80797
H -0.890042 -1.21695 8.12443
O -4.7591 -8.99886 0.539092
H -4.81604 -9.02513 -0.458926
H -5.33925 -8.2623 0.886778
O 6.91131 -11.109 4.6409
H 6.1236 -11.1531 5.25534
H 6.69263 -11.5766 3.78448
O -4.43995 -14.1002 13.2695
H -5.01064 -13.3864 12.8636
H -3.92518 -14.5651 12.5492
O 4.47669 -12.1008 -9.82569
H 3.77056 -12.7677 -10.0636
H 4.07717 -11.1843 -9.80802
O 2.36378 14.731 5.58203
H 1.64268 14.7768 4.89074
H 2.75035 -14.213 5.72129
O -10.752 -1.17836 -10.2986
H -9.86588 -1.53088 -9.99768
H -11.3998 -1.21159 -9.53759
O -6.75299 13.1585 -0.10318
H -7.47425 12.6469 -0.570012
H -6.93011 13.1617 0.880992
O 13.3499 -9.71142 -8.29303
H 14.346 -9.76903 -8.22668
H 12.9922 -10.56 -8.6827
O -4.34787 5.55122 2.72625
H -4.1669 6.26447 3.40338
H -3.75387 5.68609 1.93319
O 0.843654 -8.44855 -8.11558
H -0.109053 -8.43208 -7.81218
H 0.933092 -7.92332 -8.96181
O -13.6129 -4.27116 0.8072
H -14.5659 -4.53461 0.956853
H -13.5804 -3.43235 0.263772
O -14.7544 11.5212 -2.21475
H -14.6724 12.2272 -2.91812
H 14.3955 10.8651 -2.48174
O 5.97785 -12.7495 -5.12136
H 6.30483 -11.9326 -4.6463
H 5.73455 -12.5131 -6.06205
O 5.98235 -14.6591 13.9022
H 6.69063 14.533 13.6612
H 5.54072 -14.3257 13.0693
O -8.25322 -5.05843 2.45085
H -8.19503 -4.07702 2.26802
H -9.16174 -5.27795 2.80636
O -4.80765 2.56178 11.8322
H -5.45341 1.98285 11.3344
H -5.1022 3.51566 11.7745
O 7.62366 -9.7351 1.6061
H 8.49367 -10.206 1.7522
H 7.66187 -8.82718 2.02346
O 8.46288 10.7459 -12.0803
H 8.81156 9.821 -11.9286
H 8.01594 10.7913 -12.9737
O 9.3505 -3.30545 -0.661725
H 10.1782 -3.85009 -0.797141
H 9.30576 -2.99778 0.2887
O 3.60056 14.3923 -2.82254
H 2.72554 14.4728 -2.34522
H 3.43686 14.1658 -3.78269
O 5.9786 -9.33058 8.57994
H 6.7314 -9.71541 9.11394
H 5.56698 -8.57097 9.08347
O 11.2232 5.85817 3.35282
H 12.1015 5.48923 3.65686
H 10.6796 5.12736 2.94001
O 11.0394 11.7663 5.01722
H 10.1593 12.1965 5.21815
H 11.2769 11.1333 5.75403
O 0.0887619 7.75387 -9.94056
H 0.522453 7.66972 -9.04345
H -0.776437 8.24658 -9.84761
O -7.0962 12.9007 -9.79441
H -7.40112 12.8486 -8.84348
H -7.78349 13.3815 -10.3389
O 3.80747 -11.2139 12.565
H 4.24853 -10.8244 13.3735
H 2.98935 -11.7179 12.8419
O 11.52 -14.0495 9.9151
H 12.0573 -13.5994 10.6284
H 12.1334 -14.535 9.29212
O -14.8952 -11.7036 8.01168
H -14.4607 -11.5942 8.90567
H -14.8919 -10.8273 7.53002
O -13.3063 4.48699 -14.2374
H -13.7413 4.8094 14.7776
H -13.6694 3.58643 -13.9984
O -13.699 -6.18235 6.46897
H -13.429 -7.14421 6.42556
H -13.9358 -5.86093 5.55214
O -5.06099 13.4301 4.76112
H -4.58388 12.985 5.51888
H -4.46115 13.4608 3.96161
O -14.3539 7.07207 -10.1587
H -13.4254 7.44016 -10.11
H -14.6498 7.03934 -11.1133
O -14.8247 -0.465011 -7.20224
H 14.2701 -0.89789 -7.6855
H 14.674 0.198142 -6.5444
O 8.37273 14.5097 -13.7702
H 8.1132 -14.3807 -13.7997
H 9.10088 14.3808 -13.097
O 1.76268 -2.23463 3.7968
H 2.40328 -2.46127 4.53045
H 2.27306 -1.97028 2.97851
O -0.364428 14.563 10.3412
H -0.569753 13.9648 9.56664
H -1.06572 14.4496 11.045
O 2.77151 -10.1215 10.4001
H 2.82482 -10.8468 9.71371
H 3.17975 -10.4412 11.2551
O 11.2816 -4.75429 9.69292
H 11.961 -4.97131 10.3938
H 11.4905 -3.86285 9.29084
O -11.236 -6.64797 2.54571
H -12.1267 -7.00873 2.26922
H -11.3675 -5.87406 3.16516
O 4.63247 14.4303 3.85086
H 3.96707 14.2412 4.57297
H 4.35123 -14.6108 3.34349
O -0.0992377 12.1387 -10.8497
H -0.0180659 13.0063 -11.3402
H 0.771846 11.9223 -10.4088
O 14.446 -2.76894 3.5014
H 14.126 -2.63651 4.43952
H -14.4566 -3.07116 3.51386
O 9.40292 -7.90893 2.61834
H 10.396 -7.88965 2.73422
H 9.11661 -7.12647 2.0654
O -0.677557 -11.9145 1.58625
H -1.12192 -11.0725 1.89213
H -1.26222 -12.3767 0.919528
O -1.15902 -14.0176 3.13188
H -0.881427 -13.2552 2.54738
H -2.07801 -13.8475 3.48754
O 6.8937 2.58361 -8.42616
H 7.33439 2.73421 -9.31108
H 6.46134 3.43189 -8.12045
O -3.98927 -0.306549 6.01326
H -4.65565 -0.467705 5.28529
H -3.53634 0.572055 5.86201
O 9.83202 -14.6643 6.87616
H 9.73668 14.5045 7.59663
H 10.6675 -14.1361 7.02768
O 10.8986 -0.0390377 -1.93459
H 10.8421 0.660633 -2.6468
H 10.4958 -0.8903 -2.27092
O 2.38876 -4.94271 -5.20057
H 2.37122 -5.26355 -4.25361
H 2.85008 -4.05655 -5.24376
O -7.37603 -8.96848 -5.43542
H -7.20191 -7.98396 -5.41604
H -7.4995 -9.30357 -4.50137
O 14.0071 -1.40446 -3.3156
H 13.0931 -1.64271 -3.64385
H 14.0382 -1.49588 -2.32028
O 9.688 10.3004 -3.54922
H 9.75749 9.46367 -4.09244
H 9.71504 10.0695 -2.57662
O -1.50944 8.97496 3.06071
H -2.35112 8.49163 3.30143
H -1.61214 9.39411 2.15863
O 12.9207 6.97964 0.0600624
H 12.2311 7.29056 0.714072
H 12.6883 6.06037 -0.257597
O -5.27774 3.89127 -8.54455
H -6.14307 3.51856 -8.2095
H -4.69196 3.14383 -8.85788
O 10.2351 -13.2832 -2.90042
H 11.1093 -12.7992 -2.93859
H 10.0238 -13.6613 -3.80175
O -12.2405 11.0203 10.2433
H -12.6495 11.9195 10.0879
H -11.8437 10.6825 9.38984
O 14.7286 9.62439 -8.88668
H -14.6458 8.75164 -8.96836
H 14.6784 9.88848 -7.9235
O 3.1972 -6.87914 -6.97333
H 3.08657 -6.16094 -6.28637
H 2.29992 -7.1428 -7.32738
O -11.4439 13.063 14.4874
H -11.5605 13.8789 13.9212
H -11.1971 12.287 13.907
O -1.73668 -2.06484 -13.4963
H -1.57179 -2.59669 -12.6657
H -1.29951 -1.16952 -13.4111
O -1.40455 8.77909 -14.1016
H -1.54328 8.77524 -13.1113
H -0.463978 9.05074 -14.3054
O -11.5869 2.34333 11.3819
H -11.3214 2.96321 12.1203
H -11.7177 1.42291 11.7502
O 2.05635 5.43893 4.45354
H 2.8175 5.55036 3.81463
H 1.26837 5.05782 3.97
O -4.30478 7.4448 11.3364
H -3.63052 8.16547 11.1752
H -3.91482 6.75356 11.9448
O 14.3784 -12.1795 4.63661
H 13.7626 -11.4157 4.8299
H 14.8197 -12.4745 5.48404
O -11.0141 -0.0100663 -3.66027
H -10.9119 0.329098 -2.72511
H -11.8936 -0.477087 -3.75122
O -2.31686 -13.0319 7.54003
H -3.01129 -12.3758 7.8355
H -1.44308 -12.5607 7.41949
O 6.49301 0.494393 -5.88403
H 5.93846 -0.0945544 -6.47189
H 6.99033 1.15425 -6.44727
O -2.57964 13.2643 0.227396
H -3.3849 13.5187 -0.30814
H -1.83574 13.9043 0.0353068
O -14.695 -7.20788 10.5732
H 14.7853 -6.62917 9.84925
H 14.5793 -8.01282 10.6917
O -12.5919 8.74399 11.5811
H -12.2902 9.47764 10.9722
H -11.9533 8.66214 12.3463
O -10.0123 6.35946 1.34515
H -9.96416 6.42507 2.34182
H -9.73306 7.22997 0.939937
O -8.97485 -13.8368 3.25836
H -9.09084 -14.6637 3.8085
H -9.5503 -13.8957 2.44266
O -10.4849 1.85723 -13.546
H -10.3327 1.40132 -14.4229
H -9.60557 2.12711 -13.1536
O 4.82033 12.1943 -4.6644
H 5.62848 11.6342 -4.4824
H 5.03286 12.8652 -5.37486
O 12.4155 14.9236 -13.6346
H 12.1532 14.7153 -14.5768
H 12.0066 -14.062 -13.3594
O -2.75104 4.42415 -7.10661
H -3.60109 4.66975 -7.57252
H -2.3349 3.63861 -7.56456
O 2.43611 -8.4081 -4.26926
H 2.16843 -7.91168 -3.44349
H 3.27813 -8.01357 -4.63712
O 1.96106 -13.5472 12.331
H 2.23832 -13.9692 13.1942
H 1.98601 -14.2316 11.6023
O -4.02592 8.00961 3.94751
H -4.55082 8.63429 3.36938
H -4.18424 8.2331 4.90926
O -1.50496 -2.53533 -10.8675
H -1.97853 -2.52304 -9.98683
H -0.67946 -1.97391 -10.8099
O 3.11349 -4.65802 1.31559
H 3.03351 -3.73277 1.68639
H 2.22359 -5.11217 1.35801
O -2.46448 9.08508 -1.66922
H -2.24166 9.4229 -2.58367
H -2.44625 8.08526 -1.66964
O -3.30131 8.00192 6.65941
H -2.38267 7.61447 6.58228
H -3.77164 7.59151 7.44065
O 7.44667 12.9154 -0.437204
H 6.51038 12.8616 -0.784254
H 7.61504 13.8314 -0.0730873
O -12.3447 7.04554 -13.4948
H -12.5436 6.06566 -13.4796
H -11.6095 7.22625 -14.1481
O -3.56382 -4.30325 4.78414
H -3.18877 -4.0792 3.88463
H -2.82698 -4.61406 5.3845
O -12.1399 -4.52786 11.5327
H -11.8361 -5.46685 11.3716
H -11.4078 -4.0124 11.978
O -3.70631 -5.73281 8.14808
H -3.18347 -6.56633 7.9696
H -4.17845 -5.81698 9.02556
O 6.54533 -1.29987 4.92773
H 7.20191 -0.547154 4.87983
H 6.85052 -1.96554 5.6087
O 12.6031 -12.6123 7.42489
H 12.0885 -13.0621 8.15482
H 13.4637 -12.2596 7.79235
O -0.659927 0.951286 -14.9059
H -1.51733 1.34123 14.6139
H -0.433255 1.35736 -14.0207
O -2.38336 8.82205 -9.12884
H -3.34208 9.09408 -9.21151
H -2.11837 8.82371 -8.1646
O 10.6032 -10.7893 1.43111
H 10.4085 -10.1221 0.712175
H 11.3796 -10.4742 1.97691
O 12.007 -13.3938 -7.02291
H 12.3089 -13.842 -6.18154
H 11.5222 -12.5494 -6.7952
O -11.735 -4.07055 -3.71858
H -12.1192 -4.99362 -3.73543
H -11.253 -3.92587 -2.85444
O -9.90998 -3.22367 12.6383
H -10.1227 -2.87243 13.55
H -9.091 -3.79564 12.6841
O -11.5375 -11.6568 -8.32811
H -10.7956 -11.0494 -8.044
H -11.2964 -12.0949 -9.19412
O 7.96166 6.85807 7.36634
H 8.43862 6.8953 6.48822
H 8.4231 7.45583 8.02189
O -7.90795 -0.932381 -14.5405
H -7.44763 -0.0455734 -14.4998
H -7.64229 -1.48245 -13.7487
O -13.2874 -12.4441 -2.92234
H -13.0387 -12.5683 -3.8829
H -13.7075 -11.5449 -2.80041
O -5.0364 -9.0648 8.6828
H -5.2144 -8.4817 9.47544
H -4.13796 -8.84526 8.30255
O 1.31218 -10.5887 -12.2689
H 1.04876 -11.4541 -12.6951
H 0.746716 -10.43 -11.4596
O -13.6627 11.8697 -9.63403
H -13.2739 11.7216 -10.5434
H -14.2108 11.0753 -9.37242
O -7.03264 6.58526 2.11634
H -7.5884 6.01739 1.5092
H -6.3068 6.0291 2.52108
O 8.33578 11.4535 8.93928
H 7.47594 11.2466 8.47257
H 8.42597 12.4435 9.04829
O 12.008 9.59547 12.8235
H 11.4073 9.54743 13.6216
H 12.945 9.77661 13.122
O -14.3615 -14.5016 10.5819
H 14.7701 -14.522 11.2713
H -14.3044 -13.5853 10.1856
O 9.11031 3.97429 -12.1599
H 9.84703 4.64976 -12.1288
H 8.32466 4.31398 -11.6428
O -2.25376 -13.2513 14.7063
H -3.09157 -13.6297 14.3128
H -2.29999 -12.2525 14.6913
O 7.4484 -12.7077 7.40425
H 8.09989 -12.014 7.71141
H 7.93094 -13.4091 6.87969
O -11.2468 4.48646 7.11217
H -10.4076 4.66939 7.62426
H -12.0064 4.36197 7.75055
O -6.16882 -14.0642 3.14516
H -7.10238 -13.7292 3.27255