LAMMPS data file via write_data, version 15 May 2015, timestep = 23005000

2611 atoms
6 atom types
1749 bonds
4 bond types
894 angles
3 angle types
44 dihedrals
3 dihedral types
10 impropers
1 improper types

-1.4989709217885347e+01 1.4989709217885347e+01 xlo xhi
-1.4989709217885347e+01 1.4989709217885347e+01 ylo yhi
-1.4989709217885347e+01 1.4989709217885347e+01 zlo zhi

Masses

1 15.9994
2 1.00794
3 12.0107
4 1.00794
5 12.0107
6 12.0107

Bond Coeffs # harmonic

1 1000 1
2 469 1.4
3 367 1.08
4 469 0.7

Angle Coeffs # harmonic

1 100 109.47
2 35 120
3 63 120

Dihedral Coeffs # opls

1 0 7.25 0 0
2 0 7.25 0 0
3 0 7.25 0 0

Improper Coeffs # cvff

1 2.5 -1 2

Atoms # full

1518 506 2 4.0999999999999998e-01 -1.1111060349899962e+01 -5.4244484076260289e+00 -1.2020467630569341e+01 3 3 -4
1030 344 1 -8.1999999999999995e-01 -8.9457672716561856e+00 -1.2147768556815194e+01 -1.1283745975834741e+01 -2 -4 -3
1032 344 2 4.0999999999999998e-01 -9.2351067200468417e+00 -1.1190963949032236e+01 -1.1311274602312727e+01 -2 -4 -3
1031 344 2 4.0999999999999998e-01 -9.5784555278211521e+00 -1.2671013937210208e+01 -1.0712895720589556e+01 -2 -4 -3
1664 555 2 4.0999999999999998e-01 -1.0176545338850627e+01 -1.3824068957496298e+01 -8.8119391582174824e+00 1 6 -1
1126 376 1 -8.1999999999999995e-01 -1.1889575251784796e+01 -1.0585164085611144e+01 -1.1716201471525480e+01 -3 -2 -9
1127 376 2 4.0999999999999998e-01 -1.2269553309477763e+01 -1.1499454256953811e+01 -1.1576057608849364e+01 -3 -2 -9
1128 376 2 4.0999999999999998e-01 -1.1984886667471073e+01 -1.0328429120563193e+01 -1.2677946265863332e+01 -3 -2 -9
1782 594 2 4.0999999999999998e-01 -1.0412063544140292e+01 -5.6468753849370721e+00 -1.4929349668011975e+01 -6 1 1
1663 555 1 -8.1999999999999995e-01 -1.0609099565568808e+01 -1.3740763800892241e+01 -9.7096622902718188e+00 1 6 -1
2517 839 2 4.0999999999999998e-01 -1.3398832336386294e+01 -9.1588679416842709e+00 -8.4513645161906332e+00 -1 1 1
1181 394 2 4.0999999999999998e-01 -8.8980607323767096e+00 -8.7550927355292476e+00 -1.0922120115735478e+01 -2 -1 -1
1180 394 1 -8.1999999999999995e-01 -8.5258429947076166e+00 -9.3023231304023231e+00 -1.1671748614605189e+01 -2 -1 -1
1182 394 2 4.0999999999999998e-01 -7.6371971199976150e+00 -8.9335787756010117e+00 -1.1944303707920641e+01 -2 -1 -1
428 143 2 4.0999999999999998e-01 -1.4248278802531980e+01 -8.3337696018599097e+00 -1.1965122558040957e+01 -1 -2 0
1886 629 2 4.0999999999999998e-01 -1.4799023404698964e+01 -1.2485087118085046e+01 -1.1683790187026160e+01 -2 5 -4
39 13 2 4.0999999999999998e-01 -1.3946328337238263e+01 -1.3019400953141275e+01 -1.3643617863099349e+01 -3 7 3
70 24 1 -8.1999999999999995e-01 -9.1482067853610456e+00 -1.1106284054290052e+01 -8.2639392913516918e+00 -5 5 0
1611 537 2 4.0999999999999998e-01 -9.8569712551550541e+00 -7.6066540671078728e+00 -8.9384701985088046e+00 -4 0 -6
1516 506 1 -8.1999999999999995e-01 -1.1067606360061577e+01 -6.3922808198510097e+00 -1.1772753427833232e+01 3 3 -4
429 143 2 4.0999999999999998e-01 -1.2731313974774899e+01 -7.7857284223943752e+00 -1.2219997885078270e+01 -1 -2 0
1610 537 2 4.0999999999999998e-01 -8.3418140989998761e+00 -6.9992721271608112e+00 -8.8951156542681815e+00 -4 0 -6
1609 537 1 -8.1999999999999995e-01 -8.9201037699862198e+00 -7.7707019390793564e+00 -8.6297344382113739e+00 -4 0 -6
1805 602 2 4.0999999999999998e-01 -1.1821418809884753e+01 -9.7959633981618364e+00 -1.0001323002590960e+01 -4 -1 0
1806 602 2 4.0999999999999998e-01 -1.0932877322178951e+01 -1.0069169895377847e+01 -8.6588083136289988e+00 -4 -1 0
2228 743 2 4.0999999999999998e-01 -9.6836711545688061e+00 -1.3393298083592773e+01 -1.2460889557636460e+01 -2 -5 4
1887 629 2 4.0999999999999998e-01 -1.4743553974056079e+01 -1.2401081856933079e+01 -1.0053955992011097e+01 -2 5 -4
1804 602 1 -8.1999999999999995e-01 -1.1716022233452456e+01 -9.5721409250201894e+00 -9.0324343761603938e+00 -4 -1 0
1517 506 2 4.0999999999999998e-01 -1.0112144694073379e+01 -6.6648682083220159e+00 -1.1659885230524441e+01 3 3 -4
938 313 2 4.0999999999999998e-01 -1.1578322523786543e+01 -7.6945984034687420e+00 -8.8600841708456493e+00 3 -2 -3
2227 743 1 -8.1999999999999995e-01 -1.0168216376835558e+01 -1.3942991907038241e+01 -1.3141332475778503e+01 -2 -5 4
493 165 1 -8.1999999999999995e-01 -1.4206657022610813e+01 -6.4196981961649318e+00 -9.8740353465451243e+00 0 -4 -6
673 225 1 -8.1999999999999995e-01 -8.2179985415802630e+00 -6.4545048883272695e+00 -1.1410538441277795e+01 -4 0 -1
2229 743 2 4.0999999999999998e-01 -1.1152886041927768e+01 -1.3884650502551111e+01 -1.2977100663166704e+01 -2 -5 4
37 13 1 -8.1999999999999995e-01 -1.3791893329248561e+01 -1.3270848749811929e+01 -1.2688173588846226e+01 -3 7 3
674 225 2 4.0999999999999998e-01 -7.6692024786023447e+00 -6.1057069335331295e+00 -1.0650858912897549e+01 -4 0 -1
1572 524 2 4.0999999999999998e-01 -9.0509938334004332e+00 -9.3570813255237528e+00 -1.4642434952230063e+01 -3 1 -2
939 313 2 4.0999999999999998e-01 -1.1740968797094371e+01 -6.5362449476522730e+00 -9.9994950041683062e+00 3 -2 -3
937 313 1 -8.1999999999999995e-01 -1.1471242235865859e+01 -6.7195038523028039e+00 -9.0541834398971766e+00 3 -2 -3
427 143 1 -8.1999999999999995e-01 -1.3635158692209195e+01 -7.9073968337316352e+00 -1.2630133763840966e+01 -1 -2 0
2515 839 1 -8.1999999999999995e-01 -1.4278808364785821e+01 -8.7204726813196629e+00 -8.2686025911677987e+00 -1 1 1
38 13 2 4.0999999999999998e-01 -1.3693811015813708e+01 -1.4263410562002605e+01 -1.2616404107992629e+01 -3 7 3
1501 501 1 -8.1999999999999995e-01 -1.2557900060334681e+01 -9.6382215096064652e+00 -1.4723213399617602e+01 5 5 1
495 165 2 4.0999999999999998e-01 -1.4369520373085001e+01 -7.0947161327204613e+00 -9.1544684780383072e+00 0 -4 -6
72 24 2 4.0999999999999998e-01 -8.6326962337266870e+00 -1.1815889741970002e+01 -8.7442086398717098e+00 -5 5 0
675 225 2 4.0999999999999998e-01 -7.6552473105449010e+00 -6.4976212936354116e+00 -1.2236009283066172e+01 -4 0 -1
1755 585 2 4.0999999999999998e-01 -8.0445373469839740e+00 -7.0728534550024085e+00 -1.4722431088152453e+01 -4 3 -3
622 208 1 -8.1999999999999995e-01 -1.3154365096718358e+01 -1.2742397072524650e+01 -8.0104427132833056e+00 3 -5 -3
1502 501 2 4.0999999999999998e-01 -1.3038574865069032e+01 -8.8933199955712858e+00 -1.4260586560613767e+01 5 5 1
1753 585 1 -8.1999999999999995e-01 -7.6069759437093518e+00 -6.1853489622788267e+00 -1.4578119026314209e+01 -4 3 -3
2158 720 1 -8.1999999999999995e-01 -1.4141744997554325e+01 -1.4814752936872456e+01 -9.4631269561209432e+00 6 2 -4
494 165 2 4.0999999999999998e-01 -1.4943683898221883e+01 -6.4667917593319011e+00 -1.0548219131815181e+01 0 -4 -6
1665 555 2 4.0999999999999998e-01 -1.0880593398151603e+01 -1.4646810362248214e+01 -1.0034193748563993e+01 1 6 -1
71 24 2 4.0999999999999998e-01 -8.5179598752511012e+00 -1.0407022691379659e+01 -7.9266374878823358e+00 -5 5 0
2159 720 2 4.0999999999999998e-01 -1.3798287445148219e+01 -1.4944134685283645e+01 -1.0393313675027663e+01 6 2 -4
2160 720 2 4.0999999999999998e-01 -1.3849122636300830e+01 -1.3921866805426598e+01 -9.1209624374650993e+00 6 2 -4
624 208 2 4.0999999999999998e-01 -1.2174523506922275e+01 -1.2646180913521011e+01 -7.8355053844047236e+00 3 -5 -3
2516 839 2 4.0999999999999998e-01 -1.4855995060223437e+01 -9.3403680508437308e+00 -7.7370619636203468e+00 -1 1 1
1998 666 2 4.0999999999999998e-01 -7.5792122684652243e+00 -8.5954563752079096e+00 -7.7236030359069678e+00 2 5 0
146 49 2 4.0999999999999998e-01 -9.7044259078862964e+00 -1.3521911500199666e+01 -1.4968956433248911e+01 1 0 -2
1643 548 2 4.0999999999999998e-01 -8.1928150130967303e-01 -1.4510956740267739e+01 -1.4975636943820920e+01 4 -1 2
1308 436 2 4.0999999999999998e-01 -1.0801047355096003e+00 -1.4753091576558999e+01 -1.0658747454278469e+01 2 6 -6
1307 436 2 4.0999999999999998e-01 -2.1936780019220947e+00 -1.3564062352565090e+01 -1.0546242259737756e+01 2 6 -6
1671 557 2 4.0999999999999998e-01 -4.2803271704564061e-01 -1.4907951483399154e+01 -1.2693114463610687e+01 -5 3 -2
2046 682 2 4.0999999999999998e-01 -4.0297792533994929e+00 -1.4097823939137816e+01 -8.5860696213398615e+00 6 4 -2
1306 436 1 -8.1999999999999995e-01 -1.9527583328509550e+00 -1.4487868350699966e+01 -1.0248768977228259e+01 2 6 -6
1597 533 1 -8.1999999999999995e-01 -1.7567747859900429e-01 -1.0836465200382204e+01 -1.2718268057558014e+01 2 -4 3
644 215 2 4.0999999999999998e-01 -7.3926866571274630e-01 -7.9440466623839354e+00 -1.3618002072589370e+01 -1 2 -6
2424 808 2 4.0999999999999998e-01 -5.4838289211664915e-01 -5.0639234423343868e+00 -1.3947765963947251e+01 0 -6 -3
1709 570 2 4.0999999999999998e-01 -4.6201794436235009e+00 -1.1624281152410985e+01 -8.0390957728009198e+00 -4 0 1
2430 810 2 4.0999999999999998e-01 -8.2620502421365316e-02 -6.1959481096689473e+00 -1.1160371952676932e+01 2 0 -3
523 175 1 -8.1999999999999995e-01 -7.2047565832750156e+00 -5.4420244777258269e+00 -9.1582503218821429e+00 1 -6 1
333 111 2 4.0999999999999998e-01 -2.3022465349825456e+00 -5.9700750503690774e+00 -1.2335142030836407e+01 0 -4 -1
525 175 2 4.0999999999999998e-01 -6.7750198440294742e+00 -5.7721636410609083e+00 -8.3178429608853772e+00 1 -6 1
686 229 2 4.0999999999999998e-01 -6.2260351581816256e+00 -9.1583051844296008e+00 -1.4359738368695012e+01 -1 -1 1
2083 695 1 -8.1999999999999995e-01 -3.0315398260099897e+00 -1.1471701904150756e+01 -1.4485357540531712e+01 -1 0 -6
1286 429 2 4.0999999999999998e-01 -4.3292116275008148e+00 -1.2256152109039236e+01 -1.2982015795478400e+01 0 2 -5
82 28 1 -8.1999999999999995e-01 -5.4784874660558884e+00 -8.3247922218357449e+00 -1.1440123396248921e+01 -7 -4 -6
84 28 2 4.0999999999999998e-01 -5.4888006384240686e+00 -7.3669432046124799e+00 -1.1153123347536958e+01 -7 -4 -6
1521 507 2 4.0999999999999998e-01 -2.2451577654570158e+00 -8.8162120900022103e+00 -1.2123769995762736e+01 -3 2 0
2543 848 2 4.0999999999999998e-01 -2.9308722323325753e+00 -7.4715762081672699e+00 -8.9242288448522942e+00 3 -2 -2
2084 695 2 4.0999999999999998e-01 -3.1192492980929263e+00 -1.0876900486570349e+01 -1.3686315343444898e+01 -1 0 -6
331 111 1 -8.1999999999999995e-01 -1.4762935315526313e+00 -5.4066457144872704e+00 -1.2352437614290952e+01 0 -4 -1
1262 421 2 4.0999999999999998e-01 -4.3326431007290385e+00 -5.1835266239717761e+00 -1.0112373261125146e+01 -3 1 -2
643 215 1 -8.1999999999999995e-01 -1.4403687136608170e+00 -8.6128634689434804e+00 -1.3865172041063140e+01 -1 2 -6
645 215 2 4.0999999999999998e-01 -1.8432498508134003e+00 -8.3634424516860122e+00 -1.4745754840113129e+01 -1 2 -6
2044 682 1 -8.1999999999999995e-01 -4.9651436318105695e+00 -1.4444714834376397e+01 -8.6547013627622214e+00 6 4 -2
83 28 2 4.0999999999999998e-01 -5.3111081023288165e+00 -8.3759565832233207e+00 -1.2424662144850753e+01 -7 -4 -6
366 122 2 4.0999999999999998e-01 -6.1045788966672081e+00 -1.0042727685613421e+01 -8.6805242079211595e+00 -1 4 -4
365 122 2 4.0999999999999998e-01 -5.2607679054558130e+00 -9.8985961081223355e+00 -1.0071100449730670e+01 -1 4 -4
1509 503 2 4.0999999999999998e-01 -7.1982698389861381e+00 -1.2459080574946864e+01 -1.1073689742497194e+01 -1 -5 1
1519 507 1 -8.1999999999999995e-01 -2.6544093471650783e+00 -8.5405365592628435e+00 -1.1254019359797004e+01 -3 2 0
364 122 1 -8.1999999999999995e-01 -5.4388518751398980e+00 -1.0485373500400030e+01 -9.2812090504277815e+00 -1 4 -4
2045 682 2 4.0999999999999998e-01 -5.4625986151481367e+00 -1.3926536929234713e+01 -9.3503883274219408e+00 6 4 -2
1287 429 2 4.0999999999999998e-01 -5.3293542011970079e+00 -1.3043275682068229e+01 -1.1958959156628005e+01 0 2 -5
911 304 2 4.0999999999999998e-01 -6.3401016647058892e+00 -1.1904707965354413e+01 -1.4456218775408638e+01 0 0 3
1520 507 2 4.0999999999999998e-01 -3.5180453279703574e+00 -8.0671626559233722e+00 -1.1427224665264344e+01 -3 2 0
1598 533 2 4.0999999999999998e-01 -4.6400234168754473e-01 -1.0324856338408217e+01 -1.3527635235856046e+01 2 -4 3
2542 848 1 -8.1999999999999995e-01 -2.7733104463377032e+00 -7.3085193491116183e+00 -7.9503004654855332e+00 3 -2 -2
1508 503 2 4.0999999999999998e-01 -5.9148683300007932e+00 -1.1942327356363123e+01 -1.0206314416675518e+01 -1 -5 1
1285 429 1 -8.1999999999999995e-01 -4.8210239094475238e+00 -1.3111124205794303e+01 -1.2817415226319273e+01 0 2 -5
1261 421 1 -8.1999999999999995e-01 -4.2533337365528485e+00 -5.8554540488474398e+00 -1.0848697681833789e+01 -3 1 -2
1507 503 1 -8.1999999999999995e-01 -6.3032879481050372e+00 -1.2715001350370523e+01 -1.0708365277563271e+01 -1 -5 1
1263 421 2 4.0999999999999998e-01 -4.6574809004222253e+00 -5.4834859926461110e+00 -1.1684314145367638e+01 -3 1 -2
685 229 1 -8.1999999999999995e-01 -5.3372560303381196e+00 -8.7587155700332939e+00 -1.4135350974826675e+01 -1 -1 1
2452 818 1 -8.1999999999999995e-01 -1.0994384936112738e+00 -1.0870781083347818e+01 -8.4258066852696984e+00 0 3 -3
2453 818 2 4.0999999999999998e-01 -1.9678671518672068e+00 -1.1353695679794418e+01 -8.5379463316089890e+00 0 3 -3
687 229 2 4.0999999999999998e-01 -4.9049027638428360e+00 -8.4175762746160121e+00 -1.4970003435402917e+01 -1 -1 1
1071 357 2 4.0999999999999998e-01 -3.1948150370543793e+00 -5.6438124592275365e+00 -7.5477714373207085e+00 -3 -3 -2
2544 848 2 4.0999999999999998e-01 -1.7968312732077010e+00 -7.3927599076043586e+00 -7.7519522876497540e+00 3 -2 -2
881 294 2 4.0999999999999998e-01 -1.4093236807457465e+00 -1.2268562954619687e+01 -1.4906606971389552e+01 -4 4 -4
1957 653 1 -8.1999999999999995e-01 -1.0445538000366192e+01 -1.2373357629325326e+01 -5.2620760139148750e+00 7 7 -5
273 91 2 4.0999999999999998e-01 -9.8203189740525225e+00 -1.3547211457350681e+01 -6.3630437529091264e+00 3 1 -1
1958 653 2 4.0999999999999998e-01 -1.1251964529778238e+01 -1.1921484693738609e+01 -4.8807138106278121e+00 7 7 -5
1959 653 2 4.0999999999999998e-01 -9.7476567461654682e+00 -1.1688551764480637e+01 -5.4717247889230691e+00 7 7 -5
271 91 1 -8.1999999999999995e-01 -9.3561417326045948e+00 -1.4018808387816449e+01 -7.1127677118694246e+00 3 1 -1
272 91 2 4.0999999999999998e-01 -8.3840920903965852e+00 -1.4111513510830843e+01 -6.8971867429594358e+00 3 1 -1
1356 452 2 4.0999999999999998e-01 -1.1376972537473172e+01 -6.4793456630246649e+00 -5.5953551834898523e+00 0 2 -4
565 189 1 -8.1999999999999995e-01 -1.4024173689335775e+01 -1.2436529175515165e+01 -1.8048330720449464e+00 3 3 4
567 189 2 4.0999999999999998e-01 -1.4580218921901354e+01 -1.3225898778936303e+01 -1.5447192129769203e+00 3 3 4
789 263 2 4.0999999999999998e-01 -1.1948756971079554e+01 -8.5952770405996510e+00 -1.4679499992224834e+00 5 0 -4
623 208 2 4.0999999999999998e-01 -1.3668553731723238e+01 -1.2262717260913806e+01 -7.2994804143620655e+00 3 -5 -3
220 74 1 -8.1999999999999995e-01 -1.2738856248470963e+01 -1.1122160738006384e+01 -3.8938966733525611e+00 -2 -1 -5
787 263 1 -8.1999999999999995e-01 -1.2098027231735124e+01 -8.2246019289892605e+00 -2.3846114563322516e+00 5 0 -4
788 263 2 4.0999999999999998e-01 -1.2694453034855867e+01 -7.4240100846806811e+00 -2.3273477676836603e+00 5 0 -4
625 209 1 -8.1999999999999995e-01 -1.4092539156451306e+01 -6.5892291849235214e+00 -2.3811686289935352e+00 -1 -2 1
627 209 2 4.0999999999999998e-01 -1.4144320855561801e+01 -6.3542945379026552e+00 -3.3517737795125324e+00 -1 -2 1
2012 671 2 4.0999999999999998e-01 -1.4507964086711787e+01 -8.4352821874795509e+00 -2.2771260792979309e+00 -4 5 -3
566 189 2 4.0999999999999998e-01 -1.3070747866085851e+01 -1.2603071513358685e+01 -1.5534511577401382e+00 3 3 4
612 204 2 4.0999999999999998e-01 -7.5082664933204031e+00 -7.0682161875283898e+00 -3.2758811548706337e+00 -2 -1 -4
626 209 2 4.0999999999999998e-01 -1.4564527379263339e+01 -5.8905993372494923e+00 -1.8434944043508228e+00 -1 -2 1
2154 718 2 4.0999999999999998e-01 -1.1569385722182258e+01 -9.1509879606493527e+00 -5.5393961996563288e+00 1 3 1
1331 444 2 4.0999999999999998e-01 -1.1124473054326614e+01 -1.3828147764767476e+01 -2.5423248886274656e+00 1 1 -5
1330 444 1 -8.1999999999999995e-01 -1.1074686345646491e+01 -1.2960080301626746e+01 -2.0484321283843325e+00 1 1 -5
683 228 2 4.0999999999999998e-01 -9.0995174374549652e+00 -7.9877611876845647e+00 -1.4247680690672482e-01 -4 -2 -2
1883 628 2 4.0999999999999998e-01 -1.0872711435802881e+01 -7.0659474253384458e+00 -3.7820304832998808e-01 2 7 -4
1332 444 2 4.0999999999999998e-01 -1.1329436802882483e+01 -1.2212534048668727e+01 -2.6618055750270049e+00 1 1 -5
261 87 2 4.0999999999999998e-01 -9.5634634352136665e+00 -5.6839593389946206e+00 -4.5613474872159809e+00 -5 -3 -1
2226 742 2 4.0999999999999998e-01 -1.3761115603055035e+01 -7.0966706639046393e+00 -5.1605791003836856e+00 1 -5 -1
1034 345 2 4.0999999999999998e-01 -9.7553190922298807e+00 -1.1378852229062069e+01 -1.5239248558864400e+00 -3 -1 -1
1354 452 1 -8.1999999999999995e-01 -1.1239718110637341e+01 -5.6183207723796631e+00 -5.1057149911691049e+00 0 2 -4
684 228 2 4.0999999999999998e-01 -8.3494831804298126e+00 -9.3376245629532839e+00 -6.7333552793555107e-01 -4 -2 -2
63 21 2 4.0999999999999998e-01 -1.0411942515282263e+01 -1.4740007265184815e+01 -4.5058629121278369e+00 -3 4 -4
2152 718 1 -8.1999999999999995e-01 -1.2043282486263085e+01 -8.3515830199320931e+00 -5.1701757040368204e+00 1 3 1
222 74 2 4.0999999999999998e-01 -1.3075372192811198e+01 -1.0214988985943622e+01 -4.1463770534309035e+00 -2 -1 -5
2224 742 1 -8.1999999999999995e-01 -1.4410629842081404e+01 -6.3438167911112426e+00 -5.0543133253102841e+00 1 -5 -1
682 228 1 -8.1999999999999995e-01 -8.2760764208512914e+00 -8.3443797820343981e+00 -5.8374564119703187e-01 -4 -2 -2
1952 651 2 4.0999999999999998e-01 -7.5042312200508503e+00 -1.0277050484627640e+01 -3.6027949261573706e+00 2 0 0
221 74 2 4.0999999999999998e-01 -1.3190878857564819e+01 -1.1423593845746927e+01 -3.0543946939117053e+00 -2 -1 -5
2153 718 2 4.0999999999999998e-01 -1.2064968303787113e+01 -8.4085076482579169e+00 -4.1720577275862460e+00 1 3 1
259 87 1 -8.1999999999999995e-01 -8.7123314440669333e+00 -5.5972593054734254e+00 -4.0436532036260697e+00 -5 -3 -1
1355 452 2 4.0999999999999998e-01 -1.2029721785669226e+01 -5.0227087727568716e+00 -5.2509411251869729e+00 0 2 -4
363 121 2 4.0999999999999998e-01 -7.8338068741936437e+00 -1.4258086589934798e+01 -1.1338482415828466e-02 1 2 0
611 204 2 4.0999999999999998e-01 -7.6718652257080366e+00 -8.2675235107246152e+00 -2.1798013905991152e+00 -2 -1 -4
453 151 2 4.0999999999999998e-01 -9.7114873946110158e+00 -5.6284331694334231e+00 -9.7766458794836808e-01 -1 0 -2
1033 345 1 -8.1999999999999995e-01 -9.1085362244687573e+00 -1.0955750896972477e+01 -8.8941148878897813e-01 -3 -1 -1
1846 616 1 -8.1999999999999995e-01 -1.1523387810038415e+01 -9.7021731475852526e+00 -1.7915167062841597e-01 3 2 -3
1035 345 2 4.0999999999999998e-01 -8.2239392167882457e+00 -1.1416935075697108e+01 -9.5831156225219871e-01 -3 -1 -1
2225 742 2 4.0999999999999998e-01 -1.4337256761016366e+01 -5.7271727053109220e+00 -5.8380968737204189e+00 1 -5 -1
260 87 2 4.0999999999999998e-01 -8.9134142193787209e+00 -5.2515227095567205e+00 -3.1271479982707433e+00 -5 -3 -1
587 196 2 4.0999999999999998e-01 -1.0846374209465623e+01 -1.2468818652118983e+01 -4.1968521467730113e-03 0 3 -2
930 310 2 4.0999999999999998e-01 -1.3921692878577664e+01 -1.4610679855386959e+01 -1.6902446596767540e-01 -4 -1 -4
2448 816 2 4.0999999999999998e-01 -7.4266709657315131e+00 -1.3628558976986458e+01 -2.0624892501845284e+00 4 5 0
2446 816 1 -8.1999999999999995e-01 -7.2548857100200879e+00 -1.3744136214151940e+01 -3.0407948693437099e+00 4 5 0
2447 816 2 4.0999999999999998e-01 -7.2469384512077886e+00 -1.2848707743352255e+01 -3.4858730238673861e+00 4 5 0
362 121 2 4.0999999999999998e-01 -6.2361316521149348e+00 -1.4290239003296493e+01 -3.4733501949960832e-01 1 2 0
1708 570 1 -8.1999999999999995e-01 -3.9129473904500642e+00 -1.2070846945968331e+01 -7.4910520687607569e+00 -4 0 1
2585 862 2 4.0999999999999998e-01 -8.7297254933696422e-01 -1.4117886083869431e+01 -4.3325918980423666e+00 1 0 -2
1223 408 2 4.0999999999999998e-01 -2.6949133136436760e+00 -9.8287349500145531e+00 -4.8845397965734811e+00 -5 -3 -3
2533 845 1 -8.1999999999999995e-01 -1.2096883759651611e+00 -1.4105066700584578e+01 -1.5259899579982825e+00 -6 1 1
2534 845 2 4.0999999999999998e-01 -2.0613551776040335e+00 -1.3582028748934810e+01 -1.5583145632683539e+00 -6 1 1
2420 807 2 4.0999999999999998e-01 -3.2394033870962105e+00 -6.2502896975244973e+00 -1.7307041635337583e+00 2 -4 -2
1853 618 2 4.0999999999999998e-01 -3.3662726502204343e-01 -1.3300561205352839e+01 -4.5116264061927325e-01 -3 3 1
1953 651 2 4.0999999999999998e-01 -6.7865950589729689e+00 -1.1347918540395582e+01 -4.6051585943639708e+00 2 0 0
610 204 1 -8.1999999999999995e-01 -7.2233485891379097e+00 -7.9949232102802119e+00 -3.0309605836488700e+00 -2 -1 -4
1996 666 1 -8.1999999999999995e-01 -6.8908450003783130e+00 -9.2370750277785838e+00 -7.3853338175904124e+00 2 5 0
1921 641 1 -8.1999999999999995e-01 -2.0867781134876697e+00 -1.0811606753355438e+01 -3.3092757576362626e+00 -6 -2 0
1951 651 1 -8.1999999999999995e-01 -7.3499996525304203e+00 -1.1248102537313619e+01 -3.7850597581029781e+00 2 0 0
2120 707 2 4.0999999999999998e-01 -2.6227307934426669e-01 -6.5584329484866668e+00 -6.6276956403791214e+00 3 8 -7
361 121 1 -8.1999999999999995e-01 -7.0282916082488063e+00 -1.3697333168557519e+01 -2.0278243785679351e-01 1 2 0
1759 587 1 -8.1999999999999995e-01 -3.6377496022698121e+00 -1.2519348903192441e+01 -1.4092000605661354e+00 2 2 -6
1222 408 1 -8.1999999999999995e-01 -2.7886335598144125e+00 -9.7525942520873468e+00 -5.8771973591833628e+00 -5 -3 -3
1722 574 2 4.0999999999999998e-01 -5.6690835015911567e-01 -8.5217048576516277e+00 -1.3237560126799774e+00 -4 -2 2
976 326 1 -8.1999999999999995e-01 -5.6795954006026292e+00 -8.7193930967486999e+00 -4.9952207283600423e+00 1 6 -2
1720 574 1 -8.1999999999999995e-01 -8.1160825533125625e-01 -9.4841420446738418e+00 -1.4411732341020667e+00 -4 -2 2
715 239 1 -8.1999999999999995e-01 -5.7382589316922310e+00 -6.5395936768595089e+00 -7.1548842374707187e+00 1 -6 0
1556 519 2 4.0999999999999998e-01 -5.9595782913434512e+00 -1.3988458813194732e+01 -7.0494051613980515e+00 0 -2 -6
1224 408 2 4.0999999999999998e-01 -2.4949233413387102e+00 -8.8429719926047543e+00 -6.1709177864630949e+00 -5 -3 -3
2535 845 2 4.0999999999999998e-01 -1.0295227667466165e+00 -1.4504484810422214e+01 -2.4248534538483213e+00 -6 1 1
1235 412 2 4.0999999999999998e-01 -4.8910365658833346e+00 -7.5756741305582569e+00 -3.7631290675644458e-01 0 -2 -2
1922 641 2 4.0999999999999998e-01 -1.4646873889927772e+00 -1.0454611777329163e+01 -2.6124918013102132e+00 -6 -2 0
1761 587 2 4.0999999999999998e-01 -4.4682019603714949e+00 -1.3074097014188540e+01 -1.3586688273141032e+00 2 2 -6
1557 519 2 4.0999999999999998e-01 -6.4827829691463883e+00 -1.4006235682597376e+01 -5.5026558027022539e+00 0 -2 -6
812 271 2 4.0999999999999998e-01 -3.0106125644007680e+00 -8.5352161370860493e+00 -3.0285252513146332e-01 1 0 -4
1710 570 2 4.0999999999999998e-01 -3.6578060056465880e+00 -1.1476858034865844e+01 -6.7281431753607670e+00 -4 0 1
1555 519 1 -8.1999999999999995e-01 -6.7075594160611036e+00 -1.3731469871857932e+01 -6.4374976767748020e+00 0 -2 -6
977 326 2 4.0999999999999998e-01 -6.3173054347222308e+00 -8.4510634243963878e+00 -4.2732268476108359e+00 1 6 -2
1236 412 2 4.0999999999999998e-01 -5.4762982424658322e+00 -7.7678177888964877e+00 -1.8886101526915162e+00 0 -2 -2
1823 608 2 4.0999999999999998e-01 -7.4473848035156758e+00 -5.3858040936564606e+00 -1.3047836920448823e+00 -3 2 -1
2257 753 1 -8.1999999999999995e-01 -3.8590446957024103e+00 -1.4371433707919335e+01 -5.1160392202855096e+00 -2 6 3
1760 587 2 4.0999999999999998e-01 -3.4221948593817064e+00 -1.2158573722416673e+01 -5.0182611148796852e-01 2 2 -6
1944 648 2 4.0999999999999998e-01 -5.3260600507639779e+00 -5.5930830390870661e+00 -3.0849924997113458e+00 0 1 -5
1997 666 2 4.0999999999999998e-01 -6.5184511053585013e+00 -8.9009511521235325e+00 -6.5202941395788265e+00 2 5 0
574 192 1 -8.1999999999999995e-01 -3.1922287567698682e-01 -1.2173891840063142e+01 -4.8616646504269312e+00 -1 -1 -3
792 264 2 4.0999999999999998e-01 -3.6898576391290945e+00 -7.9876503266796064e+00 -2.9959684388478021e+00 -6 -2 -3
2119 707 1 -8.1999999999999995e-01 -4.2971472840108049e-01 -7.5438545961208323e+00 -6.6569802969609650e+00 3 8 -7
576 192 2 4.0999999999999998e-01 -9.9492769752735555e-01 -1.1615907404292832e+01 -4.3799734702050408e+00 -1 -1 -3
1923 641 2 4.0999999999999998e-01 -3.0113512100180788e+00 -1.0869090020832783e+01 -2.9326985160524046e+00 -6 -2 0
717 239 2 4.0999999999999998e-01 -6.0351869341870330e+00 -7.2566266611827732e+00 -6.5242912633104524e+00 1 -6 0
1822 608 1 -8.1999999999999995e-01 -6.4902714231432057e+00 -5.3825663356991296e+00 -1.5943925762191338e+00 -3 2 -1
2419 807 1 -8.1999999999999995e-01 -2.6785145452778778e+00 -5.5650572982920838e+00 -1.2661504642297619e+00 2 -4 -2
2258 753 2 4.0999999999999998e-01 -3.0148031139971039e+00 -1.4547570313487261e+01 -4.6098947563091563e+00 -2 6 3
1234 412 1 -8.1999999999999995e-01 -4.6679078594497394e+00 -7.8630312689780570e+00 -1.3077576961299950e+00 0 -2 -2
791 264 2 4.0999999999999998e-01 -3.6431709337705609e+00 -6.8552229217685561e+00 -4.1715200056883326e+00 -6 -2 -3
790 264 1 -8.1999999999999995e-01 -3.2682818863916960e+00 -7.7302797151734639e+00 -3.8654420259551596e+00 -6 -2 -3
2259 753 2 4.0999999999999998e-01 -3.6643371443684742e+00 -1.3768076335339179e+01 -5.8893431927349784e+00 -2 6 3
978 326 2 4.0999999999999998e-01 -4.7410619545461028e+00 -8.6213053479979234e+00 -4.6643373210190671e+00 1 6 -2
1942 648 1 -8.1999999999999995e-01 -4.9466448083894772e+00 -5.5311728025797642e+00 -4.0081183122245978e+00 0 1 -5
2454 818 2 4.0999999999999998e-01 -9.6198172447785524e-01 -1.0652123063249224e+01 -7.4597610601869420e+00 0 3 -3
716 239 2 4.0999999999999998e-01 -4.7557599926195184e+00 -6.6264199737217826e+00 -7.3195268845204353e+00 1 -6 0
143 48 2 4.0999999999999998e-01 -1.4033199623516506e+01 -5.1856620824542325e+00 7.3525328912601751e-01 -1 5 -4
2389 797 1 -8.1999999999999995e-01 -1.3821730260844276e+01 -1.0378454820908182e+01 1.0834232701681739e+00 -4 4 -3
621 207 2 4.0999999999999998e-01 -8.1623119638475750e+00 -5.0658478634926905e+00 4.8668168905329221e+00 2 -4 -1
586 196 1 -8.1999999999999995e-01 -1.0577837307908906e+01 -1.2613530864096223e+01 9.4811399906358673e-01 0 3 -2
588 196 2 4.0999999999999998e-01 -9.7900669771417910e+00 -1.3228498193295465e+01 9.8251248012102366e-01 0 3 -2
1694 565 2 4.0999999999999998e-01 -8.9062215679933452e+00 -1.2414658595855178e+01 6.8286435989616461e+00 1 8 -7
971 324 2 4.0999999999999998e-01 -1.1048827974736483e+01 -1.1185008526784840e+01 5.8983296991046235e+00 0 -1 4
970 324 1 -8.1999999999999995e-01 -1.1900713931651115e+01 -1.1238001648982967e+01 6.4193212596577478e+00 0 -1 4
1565 522 2 4.0999999999999998e-01 -1.4337823784924717e+01 -6.8348750775309419e+00 1.9675072696034785e+00 3 0 -3
1848 616 2 4.0999999999999998e-01 -1.2278250240903150e+01 -1.0022819676717335e+01 3.9296598646592429e-01 3 2 -3
972 324 2 4.0999999999999998e-01 -1.2673289192498073e+01 -1.1309738395764798e+01 5.7885031221525924e+00 0 -1 4
1529 510 2 4.0999999999999998e-01 -8.5228890718647961e+00 -1.3786722682837643e+01 4.8659084020272569e+00 0 4 -6
1566 522 2 4.0999999999999998e-01 -1.4353778341249043e+01 -5.5844644169565960e+00 3.0176078243137265e+00 3 0 -3
2378 793 2 4.0999999999999998e-01 -1.3123199534127632e+01 -9.4432207068433875e+00 4.7328011135977537e+00 1 10 -5
2379 793 2 4.0999999999999998e-01 -1.2829379668498845e+01 -7.9951363959142165e+00 4.0376647019683372e+00 1 10 -5
1393 465 1 -8.1999999999999995e-01 -1.4018988274600446e+01 -1.1089334611898053e+01 4.7764890897599255e+00 1 3 0
1884 628 2 4.0999999999999998e-01 -1.0590184741702846e+01 -6.0329634852214671e+00 8.5452419589727135e-01 2 7 -4
444 148 2 4.0999999999999998e-01 -9.3186075748827797e+00 -1.1921937563038480e+01 4.2544845536074032e+00 -1 -2 -1
1395 465 2 4.0999999999999998e-01 -1.3784420049336248e+01 -1.1554067431135957e+01 3.9227027207890348e+00 1 3 0
443 148 2 4.0999999999999998e-01 -1.0526777189162587e+01 -1.0875036566992602e+01 3.9215909423616910e+00 -1 -2 -1
2471 824 2 4.0999999999999998e-01 -1.3652302389127367e+01 -8.9898727295922960e+00 6.6075742295133058e+00 -2 5 -3
2391 797 2 4.0999999999999998e-01 -1.4234998276925333e+01 -9.5695740691072295e+00 1.5015998259656751e+00 -4 4 -3
2390 797 2 4.0999999999999998e-01 -1.4501210308844110e+01 -1.1110188203321151e+01 1.0302903590196575e+00 -4 4 -3
2377 793 1 -8.1999999999999995e-01 -1.2977571291084047e+01 -8.4691166221124394e+00 4.9056117475675070e+00 1 10 -5
2021 674 2 4.0999999999999998e-01 -1.3156008785241443e+01 -1.3502180453724192e+01 2.6512880949468727e+00 -3 3 -4
620 207 2 4.0999999999999998e-01 -9.7386051694759637e+00 -5.2866830729569116e+00 5.2315429533774225e+00 2 -4 -1
2020 674 1 -8.1999999999999995e-01 -1.2556466865816263e+01 -1.2923418815121538e+01 3.2040398318038879e+00 -3 3 -4
1373 458 2 4.0999999999999998e-01 -1.0057578314194760e+01 -7.0243173561045671e+00 6.0132963272719788e+00 0 -2 0
1374 458 2 4.0999999999999998e-01 -1.1577420879696476e+01 -6.9895183907316092e+00 5.4171745527535773e+00 0 -2 0
1372 458 1 -8.1999999999999995e-01 -1.0668153704712937e+01 -6.5773749595532554e+00 5.3595453177117900e+00 0 -2 0
2022 674 2 4.0999999999999998e-01 -1.1823841865376652e+01 -1.2558059714687010e+01 2.6298242862362731e+00 -3 3 -4
442 148 1 -8.1999999999999995e-01 -9.7172100692109495e+00 -1.1034662942031071e+01 4.4864542062021275e+00 -1 -2 -1
1800 600 2 4.0999999999999998e-01 -1.2521242610395763e+01 -1.4694220735326054e+01 5.3957751936783236e+00 -1 1 -1
1528 510 1 -8.1999999999999995e-01 -8.7463366360728401e+00 -1.3470680088786551e+01 3.9438789763110425e+00 0 4 -6
1530 510 2 4.0999999999999998e-01 -9.1067520186974917e+00 -1.4234176191691400e+01 3.4080390370347278e+00 0 4 -6
928 310 1 -8.1999999999999995e-01 -1.4609513640615493e+01 -1.4273641082363557e+01 4.7382667372413856e-01 -4 -1 -4
779 260 2 4.0999999999999998e-01 -8.4789515589058126e+00 -1.0810945946058213e+01 6.0045105869849440e+00 -1 1 -1
2470 824 1 -8.1999999999999995e-01 -1.4493413031844691e+01 -8.8516416148555965e+00 7.1304271658203309e+00 -2 5 -3