2611
Atoms. Timestep: 23000000
O 13.3928 5.83014 -10.3911
H 13.0457 6.32433 -11.1881
H 12.8953 4.96862 -10.2904
O 8.36716 -2.66196 -4.40964
H 9.16281 -2.96777 -3.88684
H 7.58926 -3.25842 -4.21215
O -4.77556 -0.977137 -1.182
H -4.00164 -1.04887 -1.81114
H -4.74951 -0.0899793 -0.721365
O 2.4041 3.06011 -4.96408
H 1.861 2.22052 -4.95782
H 1.94242 3.75157 -5.51963
O 11.5033 -1.21478 5.49947
H 11.8724 -1.44832 4.59992
H 12.1114 -0.561019 5.9497
O 5.23187 0.714818 14.693
H 5.32873 0.627895 13.7015
H 5.97032 0.214659 -14.8538
O -8.76569 -5.34505 3.7118
H -8.53898 -4.39397 3.92144
H -8.01658 -5.76029 3.19573
O -4.53136 13.8462 -11.1811
H -3.92915 13.4169 -11.8541
H -4.87514 14.7116 -11.5454
O 12.1719 2.36502 -12.1247
H 12.15 2.86752 -11.2605
H 13.1 2.38182 -12.4966
O 9.76656 5.1162 -14.882
H 9.91819 4.26724 14.6107
H 8.92119 5.04242 -14.353
O 0.731031 -14.2391 13.9107
H 1.3376 14.9741 14.0318
H 0.46406 -14.169 12.9496
O 3.47058 -14.1519 11.1332
H 2.69875 -14.7795 11.2342
H 4.26431 -14.5189 11.6182
O -12.2394 -14.8342 -11.7299
H -13.1375 -14.5506 -12.0659
H -12.1866 14.1662 -11.7221
O 10.8066 12.6135 -7.03338
H 10.4174 11.6934 -6.99091
H 10.321 13.2106 -6.3949
O 9.37107 11.3663 3.1963
H 10.1045 11.0138 2.61515
H 9.05426 10.6424 3.80909
O -11.1462 -2.09465 2.68729
H -11.2687 -2.92383 3.23259
H -10.3153 -1.62219 2.98124
O -1.11621 6.83903 5.94171
H -0.9914 6.19641 5.18582
H -0.645949 7.69613 5.7316
O -6.30204 2.37411 6.9638
H -6.47823 1.39626 7.07634
H -5.38817 2.50611 6.57997
O 4.06808 -7.35676 -9.88481
H 3.3535 -7.44557 -10.5786
H 3.96377 -8.08189 -9.20421
O -1.05687 0.617137 -6.57692
H -1.40868 1.4382 -7.02637
H -1.82072 0.0783603 -6.22172
O -10.9165 -14.6574 -3.19136
H -10.2063 -14.6839 -3.89482
H -10.4921 -14.5395 -2.29362
O 2.84065 -4.50061 -10.6301
H 3.27928 -5.39677 -10.5637
H 2.3664 -4.29736 -9.77351
O -1.54805 2.50789 -8.98613
H -1.90228 2.97669 -9.79524
H -0.712386 2.014 -9.22623
O -10.233 -10.6768 -8.14917
H -9.40099 -10.1332 -8.03856
H -9.99557 -11.581 -8.50425
O -4.16049 -12.3378 9.85521
H -4.87669 -12.1952 10.5383
H -4.54126 -12.2045 8.94025
O -10.6583 9.24801 2.35799
H -10.508 10.0811 2.89017
H -9.831 9.02927 1.84058
O 5.66095 5.842 -5.9574
H 6.10765 6.4256 -5.27933
H 5.0072 6.38434 -6.48502
O -5.68131 -7.58567 -11.7674
H -5.91063 -6.99439 -12.5405
H -5.46587 -7.02263 -10.9696
O -7.8578 -1.74453 -8.97086
H -7.90235 -0.874918 -9.46248
H -8.71353 -2.24522 -9.10104
O -14.7912 -14.8224 -9.09011
H 14.2732 14.8372 -9.19809
H -14.175 14.4076 -8.91978
O 9.34902 0.482147 4.65583
H 8.72568 -0.29964 4.64299
H 10.267 0.172453 4.90341
O 3.84871 -13.7831 14.5116
H 3.10991 -13.5573 13.8767
H 4.48238 -14.4201 14.0727
O -5.55207 4.45015 -3.14871
H -5.02944 5.28885 -2.99592
H -5.48484 4.18615 -4.11083
O 3.74638 13.2536 -1.00282
H 4.70792 13.5253 -0.963519
H 3.26493 13.8267 -1.6659
O -5.40146 8.36104 -10.6927
H -5.20539 7.45674 -10.3136
H -5.47297 9.02581 -9.94916
O 10.0818 13.1766 7.45204
H 10.5608 13.9959 7.13695
H 10.0906 13.1491 8.45158
O -12.0351 -2.04743 11.8746
H -12.8668 -1.81837 11.3689
H -12.2594 -2.18769 12.839
O -14.827 -14.526 -4.73112
H 14.3368 -14.2799 -5.22317
H -14.6703 14.4886 -4.81207
O 4.88974 -0.732361 -4.6139
H 5.69303 -0.995594 -5.14808
H 5.17957 -0.212871 -3.81014
O 5.87207 0.880866 -7.57171
H 5.76457 1.55254 -6.83876
H 6.20744 0.0202576 -7.18857
O 8.96686 4.9427 3.69737
H 9.96193 5.04118 3.70409
H 8.54224 5.84792 3.7112
O -14.7034 -7.33754 6.02461
H -14.2132 -6.57326 6.44355
H 14.3805 -7.03843 5.75394
O 1.6733 -11.7952 11.1947
H 2.33401 -12.5119 10.9717
H 1.33142 -11.3827 10.3504
O 0.078171 8.45335 -8.71315
H 0.00924417 7.8673 -7.90586
H 0.964058 8.31017 -9.15429
O 14.8575 10.8652 12.4834
H 14.4837 11.0641 13.3893
H 14.1093 10.6666 11.8504
O 10.2896 -7.52933 0.814967
H 10.3528 -6.53146 0.828042
H 9.74034 -7.8387 1.59119
O 10.9319 5.94979 -2.38791
H 11.285 5.23451 -2.99091
H 10.2922 5.54776 -1.73296
O -13.4541 -4.86558 -0.339312
H -13.7677 -5.27906 0.515453
H -14.2212 -4.40864 -0.78957
O -11.9445 -13.8311 -14.9945
H -11.9951 -14.1873 -14.0615
H -11.0134 -13.5183 14.8171
O -8.29163 5.02237 -5.49959
H -7.58725 5.72456 -5.39615
H -9.01508 5.17426 -4.82619
O -12.0851 9.23473 8.66811
H -12.276 8.46608 9.27854
H -12.8891 9.827 8.61645
O -3.35699 13.206 4.5031
H -3.59442 13.9343 3.86036
H -3.65646 12.3258 4.13494
O -12.6242 3.89716 -11.8772
H -12.1181 3.31584 -11.2401
H -12.5697 4.84886 -11.5752
O -3.32241 3.54565 7.79245
H -2.87872 4.16862 7.14828
H -4.30039 3.74999 7.83383
O 3.03354 11.2667 -5.78061
H 2.1098 10.9009 -5.8939
H 3.66644 10.761 -6.36686
O 6.86696 7.20963 -3.69624
H 7.55531 7.34807 -2.98426
H 5.972 7.07126 -3.2722
O -10.5223 11.1754 10.004
H -10.9201 10.4308 9.46804
H -11.241 11.821 10.2622
O 8.66517 -7.60171 -1.83283
H 8.10368 -6.86731 -1.45166
H 9.56606 -7.59191 -1.399
O 13.7317 1.84257 -1.44616
H 14.1079 0.942966 -1.22475
H 12.7527 1.85375 -1.24239
O 10.6325 7.60186 -4.7824
H 10.922 7.70324 -3.83066
H 10.01 6.82314 -4.86028
O 12.8477 -1.81086 12.9574
H 13.1566 -1.63255 13.8916
H 12.5321 -2.75699 12.8856
O -1.87924 6.09796 8.61313
H -1.45737 5.29619 9.03634
H -1.50807 6.22331 7.69311
O -6.01508 -8.4033 10.543
H -5.99085 -7.69114 9.84148
H -6.55915 -9.17562 10.2153
O -13.0759 -10.1695 13.9564
H -12.9392 -9.42196 13.3065
H -13.2382 -9.79275 14.8684
O 6.25443 -10.0324 9.75096
H 6.58958 -9.09229 9.8119
H 6.87826 -10.5727 9.18632
O -5.13069 6.38816 -12.9669
H -4.20266 6.25277 -13.3138
H -5.14036 7.16244 -12.3342
O 7.55739 -10.4675 -11.8955
H 7.33466 -9.52502 -12.1445
H 7.78082 -10.9864 -12.7206
O -1.87117 -0.573234 6.36524
H -2.53225 -0.682376 7.10751
H -1.16438 0.0779567 6.64148
O -3.2095 11.4085 9.24703
H -3.58545 10.6169 8.76552
H -2.23636 11.2604 9.42297
O 7.44735 -12.2941 -9.85121
H 7.75772 -11.7142 -10.6044
H 6.61637 -12.7787 -10.1243
O -8.60201 9.40368 -1.73006
H -8.69386 8.45646 -1.42307
H -9.3576 9.62954 -2.34487
O 10.9745 -6.71527 13.4984
H 11.586 -7.49189 13.6496
H 10.1449 -7.02919 13.0367
O -11.5096 1.37365 8.50284
H -12.0956 1.95354 7.93692
H -11.2542 0.555062 7.98847
O -11.2382 -9.47587 -5.25712
H -11.5919 -8.76002 -5.85912
H -10.9256 -10.2499 -5.80759
O 7.34843 9.212 -5.58571
H 7.96491 9.79147 -5.05272
H 7.1813 8.35937 -5.09074
O 7.78551 -11.955 8.09211
H 7.75578 -12.9538 8.1304
H 7.57036 -11.6505 7.16428
O -13.5839 5.66162 12.9915
H -12.926 6.41467 12.9966
H -13.1136 4.80673 13.2104
O 4.96687 10.2358 -0.652533
H 4.33445 10.8646 -0.20031
H 4.86756 9.32227 -0.258124
O 13.4101 -6.63258 -13.6009
H 13.1182 -7.24714 -14.3337
H 13.5715 -5.71977 -13.9759
O 5.34249 6.50232 13.6347
H 5.36212 6.10707 12.7163
H 5.38611 5.76971 14.3138
O 9.23448 -11.3421 -2.43322
H 9.52266 -12.2997 -2.42733
H 8.61922 -11.1745 -1.66299
O 7.91154 8.02008 -12.7485
H 8.56657 8.53 -13.306
H 7.78157 7.10811 -13.1375
O 2.83796 -7.81017 4.71674
H 3.43468 -7.07368 4.39829
H 3.39273 -8.60256 4.97025
O -3.9056 -14.2964 2.85208
H -4.35664 -13.4225 3.03304
H -2.92808 -14.2133 3.04562
O 8.72678 10.5277 14.122
H 8.3414 9.60502 14.1184
H 9.7232 10.4725 14.1852
O -6.27098 -6.21456 2.29565
H -5.85755 -5.54714 1.67635
H -6.43912 -7.06778 1.80204
O -7.43177 -3.67332 -3.42552
H -8.20595 -4.09384 -3.8985
H -6.98734 -3.01533 -4.03334
O 0.676331 5.75697 -13.2108
H 0.0536824 6.36335 -12.7163
H 1.56601 6.20239 -13.3107
O 11.7595 -10.4996 -8.01871
H 12.5293 -11.0106 -8.40085
H 10.9909 -11.1204 -7.86465
O -12.9452 -12.2849 9.14611
H -12.9264 -12.6105 8.20082
H -13.4517 -11.424 9.19211
O -8.68973 -13.4426 -5.60328
H -7.71251 -13.2339 -5.6407
H -9.20681 -12.5959 -5.47801
O 4.42632 3.27371 6.18834
H 4.38506 2.47158 6.78398
H 5.20415 3.84446 6.45128
O -13.184 -1.42622 7.27669
H -13.2262 -1.17606 6.30945
H -14.1117 -1.53584 7.63336
O 14.4677 -9.80172 -13.2646
H 14.9873 -8.96134 -13.4187
H 14.788 -10.2426 -12.4262
O -7.67776 -0.941025 -14.1657
H -8.05087 -1.25266 -13.2919
H -7.17088 -0.0902468 -14.0273
O -4.90757 1.68696 -1.86849
H -5.05449 1.06385 -2.63664
H -4.61517 2.57866 -2.21387
O -0.0225797 0.133126 -3.04335
H 0.809791 0.0342164 -3.58858
H 0.217152 0.17323 -2.07338
O -14.6595 4.36075 2.83602
H -14.6091 4.86194 1.97221
H 14.4239 3.97312 2.94347
O -10.3617 2.49918 -10.666
H -9.60876 2.576 -11.3195
H -10.5818 1.53429 -10.5231
O 13.3877 -12.9333 3.7898
H 12.6194 -13.3165 3.27721
H 13.7192 -13.609 4.44819
O 7.10037 3.38535 -3.57672
H 7.75886 2.68402 -3.84957
H 6.38188 3.45517 -4.26868
O -5.60812 14.3261 11.1127
H -6.50679 14.5701 11.477
H -4.89588 14.7621 11.6627
O 14.7926 6.30392 -3.12446
H -14.8717 5.44444 -3.51087
H 13.9122 6.53515 -3.53838
O 2.34186 13.8755 -4.84812
H 2.35497 14.3295 -3.95724
H 2.62217 12.9218 -4.74036
O -3.66755 3.65233 -7.37252
H -4.48128 3.08061 -7.47686
H -2.93059 3.29055 -7.94341
O 5.87071 -3.73278 9.07884
H 5.63299 -2.97878 9.69111
H 5.47516 -4.58249 9.42733
O 12.4148 -14.5911 -9.85721
H 12.575 14.9461 -10.7296
H 11.4516 -14.331 -9.78973
O -7.289 2.12666 -0.67631
H -7.30332 1.81344 0.273217
H -6.42336 1.86238 -1.10143
O -5.74072 -1.54463 -11.7113
H -6.1565 -0.661376 -11.4947
H -5.04002 -1.41989 -12.4137
O -10.3222 11.3859 3.90567
H -10.9412 11.2161 4.67239
H -10.7033 12.1028 3.32202
O -2.12543 -2.75474 -11.1843
H -2.30363 -1.81313 -10.8987
H -1.19479 -3.01157 -10.9238
O 10.0541 3.20953 -3.73043
H 9.62222 2.36701 -4.05221
H 11.0426 3.15171 -3.87004
O 7.22648 -4.54751 -11.8179
H 7.12905 -5.35388 -11.2347
H 6.51409 -4.55566 -12.5196
O -14.9929 -14.4314 1.95096
H 14.8799 -14.3411 0.963109
H 14.2545 -13.9738 2.42609
O 3.15323 -8.70922 -12.5121
H 3.74481 -9.28713 -11.95
H 2.3463 -9.2298 -12.791
O 12.0098 5.85682 7.84285
H 12.6514 5.60698 7.11773
H 12.1268 5.23772 8.61933
O 5.01912 -9.12068 -1.99339
H 4.31543 -9.21797 -1.28963
H 4.96772 -8.20495 -2.39176
O 11.5772 -8.99437 10.8678
H 10.7595 -9.56138 10.769
H 12.137 -9.34479 11.6186
O -2.38391 1.19264 11.1524
H -3.09285 1.19012 11.8576
H -2.03814 2.12298 11.0307
O 7.39266 -0.403794 -14.3333
H 7.02305 -0.866282 -13.5275
H 8.38938 -0.484112 -14.3358
O -7.0121 -13.4824 1.68204
H -6.40032 -14.2249 1.40923
H -7.93632 -13.8421 1.80994
O -5.68542 -10.0371 -9.78151
H -5.46996 -9.30969 -10.4329
H -6.26894 -9.67265 -9.05586
O 11.1951 -13.9321 2.56339
H 11.1893 -14.8829 2.25392
H 10.5155 -13.813 3.28715
O -1.41871 -6.04462 14.0258
H -0.447474 -6.26253 13.9302
H -1.78444 -5.75716 13.1406
O 7.21739 -1.33424 -6.50691
H 7.00494 -1.93766 -7.27545
H 7.64988 -1.86366 -5.77713
O 7.45092 11.6131 -0.583883
H 6.69379 10.9642 -0.658871
H 7.08819 12.543 -0.523398
O -3.09245 -3.58979 3.4342
H -3.36502 -3.33019 2.50779
H -3.89918 -3.87594 3.95113
O 9.32777 -1.02647 12.3194
H 10.2649 -0.685942 12.3958
H 8.68799 -0.261824 12.3962
O -0.0607897 -13.7969 11.1243
H 0.0396946 -12.8864 11.5253
H -0.928372 -13.8495 10.6298
O 0.617297 0.289111 4.34273
H -0.0356138 0.665691 3.68562
H 0.259143 -0.567002 4.71516
O 9.78201 1.99078 -13.8729
H 10.4312 2.21539 -13.1463
H 9.0503 1.41947 -13.5013
O -7.08116 3.40849 -7.58199
H -6.78994 2.51681 -7.23558
H -7.74306 3.81158 -6.95009
O -6.57294 -0.434812 6.66147
H -6.47349 -1.3063 7.1416
H -7.4813 -0.384721 6.24638
O -8.89665 -14.1048 6.86824
H -9.78914 -13.9268 6.45392
H -8.87465 -13.7197 7.79078
O -3.24931 10.9041 12.3214
H -2.928 10.0651 12.7603
H -3.81272 10.6709 11.5288
O -11.1138 -0.954946 -12.0918
H -11.3399 -1.86576 -12.437
H -11.2432 -0.932616 -11.1005
O 14.6786 -2.2406 -6.99293
H 14.286 -3.00826 -7.49932
H -14.8617 -1.62087 -7.6298
O 0.967552 13.3638 2.05169
H 0.844982 12.9125 2.93555
H 0.222584 13.1026 1.43793
O -14.5336 3.86344 -8.75584
H 14.7564 4.53036 -8.52636
H -14.7432 3.44504 -9.63955
O -14.0258 1.17553 13.1923
H -13.404 0.547869 13.6607
H -13.6164 2.08726 13.1592
O 6.07733 -9.57242 2.61775
H 5.79211 -8.66681 2.30404
H 5.27388 -10.1597 2.71536
O 13.8532 -0.0688808 6.32327
H 13.9579 -0.589312 7.17067
H 13.9341 0.908178 6.52003
O -13.256 -8.35707 -13.854
H -12.8159 -7.55939 -14.2662
H -12.9237 -8.47463 -12.9182
O -0.502647 -8.90048 -0.0862632
H 0.326336 -8.83666 0.469275
H -1.27174 -8.50543 0.41607
O -13.3982 -5.24745 6.68596
H -12.4957 -4.96642 7.01212
H -14.027 -4.47154 6.7356
O 5.24047 -5.74832 11.0653
H 5.518 -5.42007 11.9681
H 5.76633 -6.56617 10.8318
O -1.27555 4.52246 11.002
H -2.25492 4.72431 11.0017
H -0.7741 5.30501 11.3709
O -11.0074 13.1409 6.26721
H -10.2528 13.1447 6.92329
H -11.8738 13.2472 6.75509
O 10.3577 3.90734 -7.72029
H 9.66403 4.60649 -7.89315
H 10.5725 3.8851 -6.74392
O 8.8128 8.55028 9.30506
H 8.98459 7.69503 8.81624
H 9.6015 8.77034 9.87902
O -9.26095 -3.38412 0.710372
H -10.1784 -3.21212 0.351646
H -9.22661 -4.29876 1.11307
O -1.47051 10.2527 -7.73351
H -1.05399 10.6442 -6.91305
H -0.829723 9.61493 -8.1607
O 1.6761 -9.68908 12.642
H 1.55291 -10.5433 12.1369
H 2.64139 -9.57767 12.878
O -12.4966 4.2021 -6.85689
H -13.0503 4.28722 -7.68523
H -11.5498 4.4497 -7.06194
O -5.06131 -4.72874 4.97497
H -5.45363 -5.29109 4.24713
H -4.65754 -5.3206 5.67253
O 0.765439 13.6491 -7.31137
H 1.53728 13.791 -7.93105
H 1.1029 13.3261 -6.4272
O 11.4552 -0.122636 -3.29097
H 11.5597 0.512125 -2.52542
H 12.334 -0.55875 -3.48461
O 10.1487 -6.32918 -6.3022
H 10.1688 -7.16766 -6.84667
H 9.75214 -5.5888 -6.84486
O 14.0711 -9.87094 -4.44449
H 14.4365 -10.3504 -3.64666
H 13.0731 -9.84314 -4.38847
O 6.12346 -4.65669 3.12618
H 5.82514 -4.63608 2.17198
H 5.38193 -5.00457 3.69977
O 1.18057 -3.66816 14.6044
H 2.15757 -3.80753 14.7655
H 0.666883 -3.9355 -14.5793
O 3.04753 -2.47148 10.8064
H 2.354 -1.76339 10.9388
H 2.68666 -3.35269 11.1116
O 6.62314 -5.51151 -7.99776
H 6.51087 -6.05179 -7.16385
H 6.74876 -6.12456 -8.7777
O 11.822 5.30396 4.76479
H 11.8155 4.3969 5.18562
H 12.1215 5.22802 3.81376
O -14.9014 -6.51093 -11.339
H 14.6648 -7.02129 -12.0822
H 14.5352 -6.58092 -10.5151
O -11.7007 9.42224 -14.3696
H -11.8598 8.67822 -13.7207
H -12.4773 9.48984 -14.996
O -9.60813 -7.99256 5.54108
H -8.86491 -8.46307 5.06552
H -10.0999 -7.40839 4.89544
O 13.78 -0.898706 -4.78634
H 12.9506 -1.39482 -5.04299
H 14.5338 -1.1799 -5.38017
O 3.6315 5.02119 -14.266
H 2.89448 4.37185 -14.4532
H 3.26003 5.81932 -13.7918
O 0.0561431 -1.5496 -12.4615
H -0.42537 -2.12996 -13.1182
H 0.994943 -1.87652 -12.3535
O 0.917701 -7.66699 -4.25451
H 0.0912388 -8.16895 -3.99976
H 0.95541 -6.80694 -3.74579
O 8.71396 9.34491 5.03386
H 8.03646 8.75649 5.47507
H 9.55426 8.8261 4.87689
O 3.13873 -0.793343 7.01976
H 3.53417 -0.807101 6.10143
H 3.52786 -0.0324014 7.53885
O 12.4439 12.1982 -10.2263
H 12.718 12.8501 -10.9333
H 12.789 12.5041 -9.33901
O -7.81467 -5.3849 -7.50234
H -7.96496 -4.44597 -7.81174
H -7.14661 -5.38775 -6.7583
O 2.1738 -13.9694 1.89463
H 1.67076 -14.8327 1.93269
H 2.86183 -13.9522 2.62005
O -8.80188 10.9053 13.6543
H -7.95989 11.017 13.1266
H -9.20289 10.0109 13.4568
O -0.410436 4.06582 -6.74236
H 0.51796 4.29192 -7.03709
H -1.00145 3.97394 -7.54371
O 4.9514 12.4943 3.94108
H 4.42753 12.3318 3.10498
H 5.85186 12.8592 3.70459
O -2.35078 -14.3934 9.99921
H -2.24735 14.9803 9.22572
H -3.10663 -13.7637 9.82003
O -1.09113 -3.03259 -8.11315
H -0.768123 -2.44604 -7.3705
H -0.331453 -3.58512 -8.45595
O 7.94623 -12.2154 1.97825
H 8.87868 -12.1721 1.61969
H 7.352 -11.6234 1.4339
O 5.6669 9.28497 2.07839
H 5.6291 10.2793 1.97928
H 4.79944 8.88705 1.77992
O -6.96001 -4.01204 6.77668
H -7.6204 -4.75684 6.6815
H -6.14394 -4.2192 6.23722
O 12.901 14.4118 10.4853
H 12.3117 13.6215 10.3176
H 12.3701 -14.7466 10.3772
O 8.94344 0.695314 -4.34883
H 9.88159 0.354788 -4.287
H 8.3204 -0.0709202 -4.50572
O 2.95747 7.35842 -13.336
H 3.78467 7.82022 -13.016
H 2.63168 7.79962 -14.1721
O 2.44608 4.85333 -2.74011
H 1.86074 5.64553 -2.91249
H 2.57423 4.34236 -3.59005
O -12.7472 -12.7483 -3.47163
H -11.9852 -13.3882 -3.57052
H -13.5528 -13.1147 -3.93724
O -6.92183 -13.5909 -2.89577
H -7.18226 -12.808 -2.33076
H -6.54552 -13.2654 -3.76316
O 1.08922 -5.31984 -3.09802
H 2.02844 -5.15738 -3.40033
H 0.60488 -4.44755 -3.03154
O -0.624719 -11.9955 -3.76132
H 0.291571 -11.7001 -4.0316
H -1.06371 -11.2732 -3.22699
O 10.1261 2.0781 13.2987
H 11.0057 2.40963 12.9575
H 10.1469 2.04582 14.2979
O -0.0635145 10.52 -4.64916
H -0.688373 9.74045 -4.69146
H -0.540729 11.3091 -4.26248
O -6.62598 10.4776 7.02641
H -6.87278 11.4418 6.92977
H -7.0978 10.0906 7.81856
O -10.4024 -10.4688 1.90781
H -10.9293 -10.9714 1.22245
H -10.7934 -10.6312 2.81373
O 6.91236 -1.69718 -11.874
H 7.13094 -2.65634 -11.6947
H 6.15719 -1.41152 -11.2841
O 0.835696 -10.2481 8.99684
H 0.918511 -10.5141 8.03648
H -0.0580442 -10.5307 9.34508
O 2.38351 14.5787 -13.1477
H 2.34644 -14.4905 -12.7815
H 2.15758 14.5949 -14.1217
O -0.778305 1.96264 7.39547
H -1.70786 2.11556 7.06014
H -0.122257 2.201 6.67944
O -4.83376 -9.23248 2.23209
H -4.7003 -10.1465 2.61517
H -4.28281 -8.57304 2.74345
O -12.4681 7.12628 -5.43205
H -11.7117 6.47405 -5.38245
H -12.7451 7.3864 -4.5071
O 14.2127 14.4094 7.98441
H 14.0621 14.6279 8.94851
H 13.7899 13.5285 7.7722
O -7.91255 -6.94968 -3.90948
H -7.31396 -6.86585 -3.11287
H -8.8229 -7.23865 -3.6134
O -6.51108 -4.28432 0.465286
H -6.41508 -4.42583 -0.519939
H -7.3215 -3.72664 0.644499
O 10.6766 -10.6233 3.39886
H 10.8043 -11.344 2.71755
H 10.6667 -11.0273 4.31352
O -8.11294 -2.83768 4.27151
H -8.52361 -2.21208 4.93475
H -7.12164 -2.85729 4.4013
O -13.7099 -11.2491 -5.86226
H -13.2153 -11.2669 -4.99339
H -14.6171 -10.8528 -5.72129
O -12.837 -7.09822 -1.92321
H -12.9399 -6.38 -1.2351
H -13.3443 -6.84558 -2.74707
O -6.40375 -7.44511 13.1727
H -6.3992 -6.58946 12.6553
H -6.17955 -8.20486 12.5625
O 11.6811 -6.56545 8.34747
H 12.1114 -6.15918 7.54143
H 12.3596 -6.65877 9.07611
O 0.0481424 -1.50033 13.2642
H 0.387124 -2.18069 13.9139
H -0.611851 -1.92864 12.647
O -1.43359 7.5468 -10.9371
H -2.29095 8.05893 -10.8866
H -0.741131 7.99982 -10.3757
O 7.71817 8.08792 13.9745
H 6.79192 7.71349 13.9326
H 8.35133 7.46292 13.518
O -2.24396 -8.59583 -12.6024
H -1.27492 -8.35513 -12.6566
H -2.78669 -7.90197 -13.0756
O -13.5856 -0.61057 1.82019
H -12.8549 -1.14232 2.24818
H -14.3531 -0.52685 2.45577
O -11.1026 1.73084 5.0846
H -11.9682 2.11192 5.40921
H -10.6512 2.392 4.48541
O 2.79549 2.10217 -11.5355
H 3.57696 2.02169 -10.9169
H 2.92446 1.49131 -12.3166
O 5.78679 -7.47892 14.6461
H 5.16041 -8.0113 14.0768
H 5.93492 -6.58192 14.2298
O -6.42833 8.92163 -3.385
H -6.09688 9.65487 -3.97865
H -7.11481 9.28657 -2.75613
O -4.0803 1.19525 13.3445
H -4.27121 0.428779 13.9576
H -4.69791 1.15557 12.559
O -10.3357 5.21258 -3.61601
H -10.9283 4.41145 -3.53301
H -9.77998 5.30311 -2.78965
O 6.21416 5.09046 6.97908
H 5.56699 5.50191 6.33737
H 6.06611 5.47112 7.89182
O -14.7757 12.2744 -12.981
H -13.9358 11.8538 -12.638
H -14.5449 13.0622 -13.5519
O -9.95066 -3.35712 -8.92726
H -10.878 -3.19993 -8.58768
H -9.91633 -4.23219 -9.40994
O 14.117 -7.28106 -6.25518
H 13.7557 -7.26085 -7.18738
H 14.1653 -8.22778 -5.93692
O 13.4669 8.53743 4.67743
H 14.2249 8.56836 5.32891
H 13.7419 8.01433 3.87078
O -9.10828 -6.24309 -1.14788
H -9.53979 -6.10979 -0.255727
H -9.80939 -6.45338 -1.82914
O -5.60386 -9.83315 14.1276
H -6.04909 -8.9563 13.9465
H -5.45633 -9.93513 -14.8875
O 2.9787 13.8982 -8.78712
H 3.63322 14.5728 -8.44588
H 3.19975 13.6692 -9.73507
O -6.68359 6.60879 14.8777
H -6.21016 6.13168 -14.3808
H -6.67379 7.59279 -14.9435
O -7.01826 -4.05777 -13.2182
H -6.66529 -3.26448 -12.7222
H -6.2576 -4.55697 -13.6331
O -0.681073 10.2955 14.6796
H -0.104043 10.9326 -14.8083
H -0.631467 10.5098 13.7041
O -0.725257 6.92363 -6.66659
H -0.761927 6.04937 -6.18261
H -1.65194 7.20736 -6.91291
O -12.918 -5.43383 11.4422
H -12.0791 -4.88958 11.4379
H -13.5556 -5.06895 10.7638
O 10.0782 -1.32688 -14.4845
H 10.0925 -2.28899 -14.7566
H 11.0085 -0.960782 -14.5053
O 9.08658 6.2572 7.89337
H 8.59769 5.38542 7.92338
H 10.0604 6.08818 7.74153
O 4.78779 10.7459 10.7241
H 5.45202 11.236 10.1596
H 5.03319 10.844 11.6885
O -5.75525 -5.90239 -5.46615
H -5.57982 -4.94009 -5.25852
H -6.54114 -6.21993 -4.93563
O 3.28849 -0.309898 3.99615
H 3.3563 0.62361 3.64419
H 2.35513 -0.48001 4.31209
O 8.73862 5.64775 -5.1698
H 7.93482 6.13649 -4.83078
H 8.88263 4.82319 -4.62273
O -5.8161 -3.26951 -9.84269
H -5.5319 -2.74551 -10.6455
H -6.51789 -2.76087 -9.34401
O 8.16398 -2.93913 2.60781
H 8.31864 -2.14831 3.19992
H 7.38129 -3.46116 2.94661
O -2.52154 -2.8721 14.9267
H -2.43456 -2.38909 14.0554
H -2.55501 -3.85743 14.7596
O -7.88165 10.3048 -10.9528
H -8.208 10.656 -11.8303
H -7.07186 9.73728 -11.1013
O -10.6453 -1.16522 7.70047
H -11.6259 -1.35839 7.72989
H -10.1887 -1.64357 8.45055
O 7.91451 10.7955 -3.44679
H 7.00457 11.126 -3.69716
H 7.89819 10.454 -2.5071
O -3.87825 -6.23426 6.7644
H -3.18782 -6.12308 7.47914
H -3.93981 -7.19871 6.5076
O -13.0761 13.957 7.81888
H -12.6018 13.7175 8.66597
H -14.0234 14.202 8.02516
O 10.7387 -12.0543 0.798832
H 10.9636 -12.8268 1.39264
H 11.3052 -12.0907 -0.0243288
O 6.27007 -14.4006 8.64141
H 5.34947 -14.7806 8.731
H 6.71348 -14.3865 9.53757
O -1.90323 9.43151 7.49708
H -2.04118 8.46998 7.25973
H -1.06233 9.52597 8.02988
O 11.8074 14.1097 14.7916
H 10.8322 14.2744 14.9389
H 12.1832 14.8312 14.2101
O 5.60803 -7.44441 -6.18135
H 6.31241 -7.2202 -5.50794
H 5.79681 -8.34443 -6.57408
O -14.533 11.0891 3.29778
H -14.4338 10.1267 3.04476
H -14.5783 11.1689 4.29351
O -14.4141 14.4962 -14.5008
H -14.6543 14.4473 14.5286
H -14.8008 -14.6707 -14.1032
O -6.18887 -13.1387 14.6692
H -5.45028 -12.6886 -14.8279
H -5.98773 -14.1145 14.5842
O -2.97918 -7.44232 3.38223
H -2.45441 -6.75096 3.87876
H -2.45333 -7.75564 2.59152
O 1.90204 -2.87375 -4.26566
H 0.913109 -2.72691 -4.28474
H 2.36662 -1.99778 -4.13623
O -7.47815 -9.32885 4.36211
H -6.94584 -9.08099 3.55272
H -7.50503 -10.3245 4.45132
O 4.97654 10.913 -3.48809
H 4.05729 10.8224 -3.87108
H 5.05118 10.3513 -2.66414
O -3.55044 -10.1932 12.2001
H -3.83862 -10.1617 13.1571
H -4.24391 -10.6684 11.6587
O -10.4582 -7.75562 -3.21496
H -11.2586 -7.50815 -2.66913
H -10.7018 -8.48786 -3.85087
O -4.22339 -8.05457 -2.00522
H -3.67345 -7.22924 -2.13289
H -5.17642 -7.79841 -1.84389
O 10.4784 -8.60578 -11.7887
H 11.0345 -7.79932 -11.5879
H 9.79617 -8.72805 -11.0679
O 3.75402 11.0599 -12.8439
H 3.09965 11.0657 -12.0878
H 4.29891 10.2223 -12.8066
O -7.72459 2.48319 -4.00596
H -8.09373 2.12023 -3.15044
H -8.14601 3.36862 -4.20172
O 0.4099 2.51584 9.9054
H -0.135377 3.08682 10.519
H -0.071952 2.40626 9.03608
O 3.89766 3.58864 -8.41117
H 4.8492 3.89553 -8.42837
H 3.83381 2.67775 -8.81873
O -2.65687 8.41717 13.1421
H -2.56194 8.58696 14.123
H -3.53478 7.9727 12.9643
O -2.90128 -7.73683 0.604324
H -2.67322 -6.76677 0.521311
H -3.59023 -7.97694 -0.0794886
O -1.92023 -10.6406 9.33385
H -2.04072 -9.73726 9.74534
H -2.73774 -11.1929 9.49692
O 14.9878 -13.2635 -12.9288
H -14.4928 -12.6448 -12.3384
H 14.0813 -12.8782 -13.1013
O 10.774 8.77402 11.5255
H 10.4509 7.90628 11.9031
H 11.0243 9.38994 12.2725
O 7.91743 3.37832 -0.842531
H 7.70877 3.26769 -1.81419
H 7.9926 2.47836 -0.413202
O -9.02532 -13.181 -14.7502
H -8.13979 -12.75 -14.9234
H -8.93203 -13.8495 -14.0125
O 10.9596 1.67575 -1.12642
H 10.162 1.9339 -1.67153
H 10.6995 1.61614 -0.162717
O 6.19437 1.24378 2.30583
H 5.79806 0.372077 2.59388
H 6.56982 1.71846 3.10184
O 1.43921 -6.97227 13.2694
H 1.57462 -6.29002 12.551
H 1.59103 -7.88646 12.8938
O 2.18104 5.67961 5.41686
H 1.90777 5.25217 4.55516
H 1.61892 6.49042 5.57969
O 1.26838 11.8683 4.42292
H 1.81226 11.0634 4.66
H 0.570039 12.0167 5.12307
O 9.12459 5.40741 0.493418
H 8.62313 4.88473 -0.195965
H 8.78608 5.16924 1.40369
O 13.2598 -11.9782 -9.77644
H 13.4151 -12.9616 -9.86961
H 14.0457 -11.4804 -10.1431
O 2.87709 0.292943 -13.4488
H 3.57657 0.399026 -14.1554
H 2.67268 -0.67807 -13.3252
O -9.90041 -2.37033 -4.79168
H -10.0999 -3.35017 -4.79506
H -10.0552 -2.00182 -3.87509
O -13.7827 0.693113 10.1621
H -12.9792 0.850975 9.58828
H -13.5734 0.948235 11.1061
O -5.07395 13.3087 8.81136
H -5.39563 13.7136 9.66725
H -4.38864 12.6084 9.01078
O 10.2105 -2.40213 -1.78396
H 10.536 -1.63456 -2.33604
H 10.6253 -3.24988 -2.11431
O 9.54352 11.733 -12.3824
H 9.89673 10.8266 -12.6139
H 9.45142 11.8113 -11.3898
O -3.68233 -8.96257 6.31634
H -3.20323 -9.80009 6.57891
H -3.4073 -8.69698 5.39237
O 1.43904 -3.74431 3.57261
H 1.34429 -3.26469 2.70032
H 0.606752 -3.62088 4.11296
O 4.49568 -13.4396 3.50953
H 4.96908 -13.2159 4.36146
H 5.16748 -13.6685 2.80512
O 9.72771 10.3214 -0.408013
H 8.97429 10.9785 -0.386668
H 10.2945 10.4376 0.407568
O -3.3611 -12.8125 -13.8951
H -3.59509 -12.8283 -12.9231
H -2.59654 -12.1854 -14.0437
O 2.52058 -7.92526 9.40851
H 1.71783 -8.46212 9.6679
H 3.12843 -8.4853 8.84567
O 7.63505 14.222 6.30954
H 8.1232 13.6609 6.97791
H 7.01205 14.842 6.78643
O -6.18311 -9.98179 7.43928
H -5.34707 -9.46363 7.25915
H -6.2667 -10.722 6.7722
O 2.39302 10.9828 9.2594
H 2.71734 10.7296 8.34803
H 3.11992 10.8248 9.92766
O 6.35132 12.095 8.64171
H 6.22131 11.3927 7.94191
H 5.72675 12.8567 8.46953
O 1.93353 11.0252 -0.436711
H 2.1543 10.504 -1.26103
H 2.48716 11.8575 -0.410375
O 12.7283 12.9178 -4.17172
H 13.4134 12.3343 -3.73571
H 11.8441 12.4507 -4.17197
O -11.7836 2.92587 -3.06302
H -12.3928 2.96882 -2.27121
H -11.0166 2.31695 -2.86083
O -0.808176 5.10533 14.1478
H -1.76596 4.874 13.9774
H -0.543459 5.87647 13.5688
O -6.02545 -11.8663 12.0112
H -6.23347 -11.116 12.6388
H -6.53335 -12.6822 12.2872
O 11.8392 -13.1094 9.45638
H 12.6177 -12.6043 9.08399
H 11.2663 -12.4903 9.99334
O 4.37007 3.21056 0.776169
H 4.74492 2.29586 0.926865
H 4.97639 3.89114 1.1874
O -14.7714 -2.33088 -10.308
H 14.4143 -2.91045 -10.2555
H -14.0431 -2.72703 -9.7489
O 1.90222 5.0141 8.00855
H 2.17072 5.17651 7.05911
H 2.54629 4.37768 8.43286
O -13.4127 -12.8999 13.0501
H -13.0109 -13.436 13.7924
H -13.2426 -11.9277 13.2113
O -13.4082 13.5753 2.78946
H -13.8204 12.6937 2.55962
H -13.9555 14.3125 2.39333
O 3.15044 9.81844 6.86151
H 3.38916 9.02713 7.42432
H 3.98423 10.3027 6.59654
O 1.05635 7.33044 -3.07136
H 0.124148 7.03259 -3.27676
H 1.13663 7.52387 -2.09359
O -12.7054 -3.26361 -8.3943
H -13.141 -4.10452 -8.07332
H -12.8179 -2.54649 -7.70654
O 13.5916 9.04757 -2.00493
H 14.1778 8.37038 -2.44961
H 12.6425 8.9009 -2.28325
O -4.34323 7.65753 8.57748
H -4.40619 7.68993 7.58004
H -3.44279 7.31358 8.8436
O 10.6258 10.3607 6.91802
H 10.5127 9.97069 6.00422
H 9.96401 11.0987 7.04959
O 2.97399 3.43117 9.7823
H 1.99398 3.2389 9.73204
H 3.15351 4.04958 10.5473
O 9.10135 -3.75649 12.9677
H 9.18984 -2.76836 12.8425
H 9.52135 -4.02142 13.8356
O 11.4855 -14.6748 -4.44079
H 11.7853 14.4183 -4.14152
H 11.8725 -14.4763 -5.34121
O -0.537349 6.94798 12.1442
H -0.00143419 7.24396 11.3535
H -1.1152 7.70201 12.4563
O -8.09605 2.20452 11.9612
H -8.51735 3.08193 12.1905
H -8.6467 1.4611 12.3407
O 2.13966 -11.1302 -10.0346
H 2.86715 -11.1078 -9.34894
H 1.3676 -11.6603 -9.68425
O -11.1922 5.07361 -14.9882
H -11.6795 5.32157 -14.1509
H -10.4254 4.47293 -14.762
O -10.6315 -10.8567 4.62119
H -11.4488 -10.3003 4.77107
H -9.81634 -10.3092 4.81005
O -4.70771 6.6741 12.6132
H -4.3825 5.7898 12.2783
H -5.08029 6.56496 13.5347
O -7.37293 -9.24231 -5.50435
H -7.57494 -8.42527 -4.96439
H -6.45723 -9.57381 -5.27739
O 13.0508 10.1961 10.5012
H 12.3791 9.78311 11.1161
H 13.2639 9.55658 9.76258
O 0.465786 -13.1044 -8.952
H -0.00952248 -13.8632 -9.39715
H 0.897952 -13.4293 -8.11084
O -1.71155 5.24758 0.945683
H -2.68683 5.07794 0.804374
H -1.1839 4.75536 0.253427
O -4.77627 1.95336 -10.5239
H -4.11088 1.207 -10.5345
H -4.39559 2.74601 -11.0001
O -13.2324 2.17319 1.2103
H -13.1419 1.20814 1.45604
H -13.8263 2.63125 1.87161
O -1.07534 -5.59501 4.11177
H -0.442545 -5.54307 4.88428
H -1.74094 -4.8515 4.17557
O -3.36644 -6.54338 -13.9815
H -3.41387 -5.78191 -13.3352
H -2.65085 -6.36356 -14.6565
O 1.88676 13.452 13.8639
H 1.25265 12.7772 14.2412
H 1.74746 13.5246 12.8763
O 11.5003 -4.30352 11.9498
H 11.6612 -5.25682 11.6943
H 10.5334 -4.17621 12.1705
O 8.66455 8.52515 -10.1952
H 9.64947 8.69785 -10.1905
H 8.32615 8.55094 -11.1358
O -0.92406 -2.91171 -4.15723
H -1.51966 -2.41262 -3.52788
H -1.40549 -3.71657 -4.50414
O 5.98479 5.09084 2.7325
H 6.58366 4.42795 3.18176
H 6.50847 5.60788 2.05549
O 6.04912 5.40617 -0.164037
H 5.63585 5.78872 -0.990334
H 6.89736 4.93392 -0.403577
O 14.893 2.82732 5.47713
H -14.4412 2.98059 6.20833
H -14.6232 2.62745 4.62449
O 14.32 1.74977 -6.97247
H 14.4754 1.72897 -5.98487
H 14.9688 2.38016 -7.3987
O 1.18006 11.9405 -13.7538
H 1.45121 12.783 -13.2884
H 1.48508 11.1519 -13.2199
O -14.4644 10.6031 6.06912
H -14.4011 9.60797 6.14359
H -14.444 11.0078 6.98332
O -9.25111 -11.531 -11.2278
H -10.0778 -11.7288 -10.7011
H -9.25499 -10.5705 -11.506
O -8.07595 -11.2705 0.581193
H -8.7636 -10.964 1.23933
H -7.65762 -12.1184 0.90667
O 8.68819 -6.62214 4.35752
H 7.93308 -6.06271 4.01582
H 8.85001 -7.38315 3.72936
O -13.851 8.70198 13.91
H -14.0765 9.54406 13.4201
H -13.139 8.20714 13.4118
O 9.58757 -12.9383 -12.425
H 9.73695 -13.7114 -11.8087
H 10.033 -12.1242 -12.0525
O -10.4204 3.70429 3.06638
H -10.5604 3.55031 2.08832
H -9.4943 4.04846 3.22042
O -5.0932 -1.13939 3.11518
H -5.01197 -0.285581 3.6293
H -4.29828 -1.717 3.30056
O 12.9854 -14.0793 -6.6668
H 13.1206 -14.9725 -7.09558
H 12.8666 -13.3839 -7.3755
O 3.11432 -6.73452 -14.4469
H 3.55772 -7.45252 -13.9104
H 2.38797 -7.13577 14.994
O 7.59337 -9.76039 -3.89361
H 7.05342 -9.21468 -3.25285
H 8.04112 -10.5065 -3.40098
O -14.0113 -3.77079 9.61
H -14.9186 -3.50471 9.28447
H -13.3179 -3.20535 9.16346
O -13.5769 10.6311 -7.01618
H -13.9041 11.5758 -6.99671
H -14.0335 10.1053 -6.29852
O 6.53768 -10.1941 -6.37654
H 6.85918 -10.2303 -5.43038
H 7.0724 -10.8284 -6.93479
O -3.76569 -2.44985 -7.96788
H -4.32207 -2.85024 -8.69591
H -2.81789 -2.75246 -8.068
O 5.95561 11.6538 13.268
H 6.90866 11.461 13.5014
H 5.46531 11.9506 14.0874
O 0.242238 -5.62642 1.62689
H -0.416021 -5.48273 0.887997
H -0.220466 -5.53271 2.50838
O 6.74716 14.058 -14.6989
H 5.92141 13.613 14.9536
H 6.72061 14.0783 -13.6995
O 1.00185 8.0582 0.200858
H 0.691852 8.983 0.421245
H 0.464727 7.39391 0.720593
O 7.38976 -13.4 11.5441
H 6.92014 -12.5341 11.7159
H 8.20386 -13.4581 12.1218
O -12.889 8.21115 -8.03168
H -12.7652 7.7935 -7.1316
H -13.1514 9.1697 -7.92108
O 9.01918 6.47057 -8.40639
H 8.61125 7.15048 -9.01566
H 8.70861 6.63323 -7.4699
O 1.63848 8.92634 2.91122
H 2.23862 8.73144 2.13549
H 0.743226 9.21838 2.57488
O 7.51862 -13.0547 -14.4133