2611
Atoms. Timestep: 8000000
O -3.97056 -14.5759 2.4436
H -4.14034 14.2957 2.64623
H -3.71783 -14.098 3.28489
O 2.49953 -7.57117 7.7344
H 2.36696 -8.11718 6.90717
H 2.67235 -8.17803 8.51019
O 5.58335 -7.36378 4.72948
H 5.26965 -8.15426 5.25554
H 5.55496 -7.58029 3.75361
O -2.08754 -1.97137 -8.12916
H -1.72343 -1.161 -8.58819
H -1.65079 -2.0726 -7.23529
O 5.41118 -3.14336 7.91923
H 6.12443 -3.70866 8.33361
H 4.85908 -3.70323 7.30139
O -10.0695 1.06629 5.24841
H -9.64028 1.35878 6.10293
H -10.3089 0.0973504 5.31027
O 12.7231 -10.2312 14.1565
H 12.996 -9.83392 -14.8033
H 11.887 -9.78674 13.8349
O -8.8363 12.4508 -4.26219
H -9.33216 11.699 -4.6968
H -9.48103 13.1706 -4.00481
O 6.89737 -8.65826 10.7633
H 7.80499 -8.69768 10.3453
H 6.3579 -9.44507 10.4634
O -2.91334 14.8401 -0.278866
H -3.71035 -14.9091 -0.876562
H -3.21604 14.7609 0.670923
O -4.29804 5.24504 -5.43001
H -3.84835 4.6422 -4.77094
H -4.6141 6.07151 -4.96412
O -14.3535 1.2034 12.4925
H 14.7145 1.67024 12.9311
H -13.5381 1.77966 12.5469
O -5.86642 -9.43065 11.8682
H -5.0889 -9.66228 12.4528
H -5.87618 -8.44465 11.7017
O 2.45641 11.7604 12.7179
H 2.97589 11.923 11.879
H 2.12894 10.8156 12.7293
O -1.66243 9.32975 -12.3671
H -1.56502 9.56766 -11.4007
H -0.757335 9.19153 -12.7692
O 0.53343 -14.5315 -5.19911
H 0.532747 14.5477 -5.85273
H -0.331243 -14.5241 -4.69682
O 3.4633 14.2652 -2.71479
H 3.38612 -14.6138 -2.43478
H 2.64612 14.0009 -3.22696
O 13.4072 -1.13791 4.43578
H 12.9679 -1.98714 4.72867
H 14.2004 -1.35235 3.86582
O 13.7375 14.5433 12.3949
H 14.0981 -14.659 11.7105
H 13.2993 -14.7754 13.13
O 5.26045 13.2816 -6.80148
H 5.92244 12.8743 -7.43068
H 5.74171 13.6627 -6.01205
O 6.96298 -7.17374 13.2489
H 6.44118 -6.39412 12.9026
H 7.13247 -7.8188 12.5038
O -8.00388 7.88769 6.8517
H -8.87712 7.41002 6.75536
H -7.58281 7.63977 7.72419
O -2.24245 -8.27555 -12.1174
H -1.92799 -9.20584 -12.3062
H -1.89255 -7.9794 -11.2286
O 2.35592 6.35925 -6.8735
H 1.99858 5.46706 -7.14971
H 1.71763 6.79122 -6.23633
O 5.77509 2.58 -0.934679
H 5.77033 3.2839 -1.64496
H 5.42669 2.96602 -0.0805109
O -10.8612 -2.76547 -2.03588
H -11.3406 -2.46642 -1.21081
H -9.98143 -3.16783 -1.78281
O -12.5174 -5.04662 12.7441
H -11.875 -4.84323 13.483
H -12.3342 -4.44361 11.9677
O -14.1189 5.98701 4.29142
H -13.6959 6.29309 3.43852
H -14.3925 6.78255 4.83203
O 6.89534 -12.0876 -7.06914
H 5.90795 -12.0992 -7.22699
H 7.12925 -11.3158 -6.47778
O 10.3138 -6.28938 10.7432
H 10.0546 -5.34902 10.9636
H 9.86365 -6.56914 9.8952
O 2.04743 -8.72659 -10.194
H 2.13132 -9.63767 -9.79045
H 2.3018 -8.03697 -9.51601
O 6.18399 7.67984 -3.19758
H 7.12667 7.36254 -3.30096
H 6.18274 8.59586 -2.79645
O -12.1136 2.68593 0.0875161
H -11.3927 2.98352 -0.538388
H -11.9077 3.00948 1.01105
O 14.9119 -12.7659 1.81737
H -14.5663 -13.609 1.41596
H 14.5581 -12.9567 2.73303
O 9.15622 14.2982 -10.3387
H 9.23141 13.3589 -10.6735
H 8.19128 14.5522 -10.2723
O -3.59998 -10.9114 13.2975
H -2.90673 -11.6098 13.4751
H -3.99403 -10.605 14.164
O -10.4081 1.84903 -7.54748
H -9.54483 1.50238 -7.18054
H -11.1657 1.3041 -7.18827
O -3.42735 13.2231 9.11658
H -3.96565 13.8932 9.62772
H -3.75403 12.3019 9.32799
O 13.0472 -9.8925 -10.1241
H 13.8902 -9.37131 -10.2575
H 12.6428 -9.65203 -9.24169
O -1.55813 12.2798 -9.88909
H -0.931888 11.5489 -9.61799
H -2.28827 12.3619 -9.21074
O 14.4199 -2.68601 -9.17196
H -14.6046 -3.10455 -8.7642
H 13.9191 -3.37326 -9.69819
O -1.90799 0.89764 -8.47247
H -1.36671 1.06167 -7.64778
H -2.81049 1.31531 -8.36735
O 5.70652 -11.7327 -13.3715
H 6.28201 -12.077 -12.6297
H 5.00799 -11.1234 -12.9961
O 11.9939 9.40432 -13.2157
H 11.2491 9.03903 -13.7742
H 11.7409 9.35524 -12.2495
O 1.31249 5.89779 3.35828
H 1.13754 5.74683 4.33122
H 0.793691 6.69357 3.04588
O -12.8731 12.5953 -3.5751
H -13.7769 12.2452 -3.82123
H -12.3254 12.7157 -4.4031
O -12.1345 8.40572 11.7248
H -12.9568 8.59252 12.2622
H -11.3414 8.36412 12.3325
O -7.78029 -0.982332 4.85006
H -8.73414 -0.976764 5.15029
H -7.31141 -1.7728 5.24418
O 5.27141 10.5771 13.1469
H 5.40343 11.2401 13.8838
H 4.7316 10.9945 12.4158
O -4.87582 14.0749 13.1856
H -5.81722 14.4121 13.1788
H -4.44714 14.2652 12.3025
O -12.5665 -9.89789 10.4106
H -11.8389 -9.21212 10.396
H -13.4451 -9.44828 10.5721
O 13.3724 12.7882 0.198311
H 12.8151 13.59 0.41432
H 14.0833 13.0432 -0.45705
O 5.09284 2.35187 13.5669
H 4.31007 1.74098 13.4483
H 5.90848 1.92905 13.172
O 6.11469 -0.805514 -6.20448
H 5.27516 -0.585933 -6.70143
H 6.73289 -0.0199395 -6.23101
O -10.2843 5.55267 10.8166
H -10.8103 5.63765 11.6628
H -10.2091 6.44891 10.3794
O -7.48102 7.80683 14.3786
H -6.69075 7.99658 13.7959
H -7.40525 8.33385 -14.611
O 3.1924 10.9512 6.2683
H 2.80582 11.2929 5.41165
H 3.32552 11.7138 6.9014
O 14.8844 -7.57106 -10.3815
H -14.4036 -7.43131 -9.55668
H -14.3897 -7.39206 -11.1891
O -7.27597 -13.5659 -7.83925
H -7.17097 -12.6158 -8.13293
H -7.68343 -14.1005 -8.57962
O 14.5731 2.14534 -8.4024
H 13.8532 1.47288 -8.57439
H -14.4749 1.94653 -8.98513
O -10.6946 -2.7484 -5.83261
H -10.0473 -2.84725 -5.07682
H -11.5344 -2.32043 -5.49845
O -6.12702 12.2081 -4.88537
H -6.83445 12.4477 -4.22043
H -5.25208 12.596 -4.59555
O 12.1662 -6.90575 -9.89656
H 11.4026 -7.17282 -10.4844
H 13.0274 -7.18451 -10.3216
O -2.33123 0.686663 7.69555
H -2.42411 -0.284135 7.91674
H -3.19004 1.15794 7.89643
O -9.7677 -7.49662 -10.9215
H -9.82084 -7.61771 -9.93033
H -9.02694 -8.06031 -11.287
O -14.5242 -4.82828 14.7364
H -14.5732 -5.45722 -14.3237
H -13.9289 -5.2141 14.0316
O 10.2071 -12.67 5.38089
H 9.58335 -11.9583 5.05758
H 10.0726 -12.8106 6.3618
O 3.7026 -13.4449 -11.7885
H 3.62643 -12.5106 -11.4402
H 3.61251 -14.0914 -11.031
O -0.994591 -5.14848 -12.3138
H -0.859589 -4.78151 -11.3935
H -0.515718 -6.02234 -12.3978
O 4.42416 4.04313 -5.24049
H 4.41174 3.96112 -6.23704
H 4.09333 3.19248 -4.8319
O 1.15629 -8.129 13.1372
H 1.04261 -9.05845 12.7862
H 2.12926 -7.89966 13.1644
O -11.1422 -13.1298 -4.34015
H -10.4699 -13.3341 -5.05162
H -10.784 -12.4162 -3.7381
O 9.00201 0.841235 -2.12714
H 9.89632 0.544415 -1.79231
H 8.89619 1.82306 -1.96959
O 8.22278 10.9759 14.6478
H 7.58611 11.7118 14.4173
H 8.81364 10.7884 13.8631
O -4.17134 11.7592 -8.8427
H -4.21214 11.1679 -8.03728
H -5.06163 12.1922 -8.98376
O 1.63298 -9.8497 -14.2262
H 1.40291 -9.428 14.7328
H 1.47107 -10.8352 -14.2775
O -14.2486 -14.2038 -14.4408
H -14.3517 -13.2606 -14.7564
H 14.7718 -14.4754 -13.9298
O 4.99639 -11.4124 7.92852
H 4.72469 -12.3746 7.9079
H 5.40674 -11.2009 8.81557
O 1.20318 7.33501 6.95177
H 2.19672 7.42026 6.87681
H 0.974306 6.45108 7.35955
O 11.1987 0.665247 3.10097
H 11.1711 0.123913 2.26062
H 12.0519 0.480274 3.58868
O 5.37598 -6.38427 9.76422
H 6.17989 -6.94987 9.94814
H 4.61493 -6.69076 10.3359
O -10.8416 -7.88055 -0.789862
H -11.455 -7.13414 -1.04813
H -10.4571 -7.69802 0.115016
O 4.67227 -3.76519 -14.0159
H 5.56046 -3.61099 -14.4487
H 4.64342 -4.689 -13.6341
O -9.98536 8.52519 13.5571
H -9.07962 8.15299 13.3544
H -10.4366 7.95076 14.24
O -4.82036 4.34152 11.8264
H -3.94159 4.25821 12.2963
H -5.22078 3.43328 11.7048
O -3.29493 7.83259 -14.1332
H -2.65724 7.06352 -14.0897
H -2.84858 8.65592 -13.7826
O -11.5636 -11.4662 7.9087
H -12.0294 -11.7971 8.72938
H -11.163 -12.2399 7.4179
O 13.0118 -9.70547 -7.36242
H 12.9758 -8.74937 -7.07159
H 12.9211 -10.3004 -6.5638
O -12.3104 2.64059 -14.839
H -11.6697 2.49886 14.2424
H -12.6058 1.75454 -14.4817
O -3.36366 5.45174 -1.67976
H -2.83378 5.47472 -0.831994
H -2.7698 5.68298 -2.45038
O -11.8835 7.60813 -11.243
H -10.9126 7.75176 -11.0513
H -12.1544 8.16585 -12.0275
O 0.891034 4.52763 0.758145
H 1.61068 4.29392 0.104318
H 1.28491 4.60413 1.67412
O -10.2708 -0.438006 1.26096
H -10.2677 -1.09304 2.01656
H -9.7585 0.378909 1.52595
O -5.56209 -6.79809 11.4471
H -6.04122 -6.04327 10.9992
H -5.7362 -6.76609 12.4314
O -7.33214 6.93808 -10.9903
H -7.19576 6.02392 -11.3721
H -6.55084 7.51683 -11.224
O 0.897361 -5.79777 10.9549
H 0.749743 -4.98284 11.5154
H 0.790056 -6.61532 11.5207
O -5.01581 8.32947 -11.7442
H -4.36651 7.75964 -12.2479
H -4.64157 9.25125 -11.6429
O 5.28399 -2.12658 3.21855
H 4.87055 -1.42927 3.80406
H 6.11989 -2.46911 3.64745
O 7.66423 1.21241 -8.11924
H 8.54093 0.782082 -7.90428
H 7.33189 0.870754 -8.99835
O -14.8866 -3.36126 7.28248
H 14.0554 -2.92082 7.36439
H 14.8262 -4.32147 7.03185
O 14.5322 10.705 1.58609
H -14.863 11.3147 2.24482
H 14.1472 11.2451 0.837766
O 7.19234 3.52299 3.28951
H 8.12679 3.86598 3.19376
H 7.02312 2.81953 2.59922
O -12.1825 -1.35369 -7.82851
H -11.2587 -1.21177 -8.18417
H -12.4607 -0.554815 -7.29524
O -11.1193 -7.37503 9.45527
H -11.9923 -6.90104 9.34018
H -10.6826 -7.49053 8.56313
O -7.45646 6.22194 -5.53515
H -6.93067 5.47144 -5.13475
H -7.31993 6.23323 -6.52572
O -3.1421 11.6215 -14.8114
H -4.123 11.7996 -14.8895
H -2.75757 11.4688 14.1142
O -10.0136 14.8385 0.0383437
H -10.328 14.1787 -0.644103
H -10.6723 14.8805 0.789592
O -8.96613 -9.18486 2.21808
H -8.00206 -9.41045 2.07776
H -9.53291 -9.76667 1.63476
O -2.51405 11.6793 12.0075
H -3.37568 11.8101 11.5172
H -2.1381 12.5697 12.2642
O 2.15613 -9.07409 5.20304
H 2.88768 -9.66064 5.55059
H 1.27594 -9.39814 5.54982
O 10.7614 14.6685 -4.8424
H 10.6888 14.2651 -5.75453
H 9.84641 14.7886 -4.45721
O 7.93385 -9.34765 -5.79431
H 7.44814 -8.53165 -6.1077
H 8.60844 -9.61835 -6.48108
O 4.98345 -13.7005 10.9708
H 5.03398 -13.4792 11.9447
H 4.35834 -14.4693 10.8357
O -11.3251 -14.3035 -12.7952
H -10.3765 -14.2214 -12.4895
H -11.8205 -13.4635 -12.5738
O -11.2726 6.82914 -14.7316
H -11.7243 7.57465 -14.2415
H -11.9342 6.37198 14.51
O -4.2136 -7.22432 8.48348
H -3.46322 -6.94994 9.08485
H -5.03887 -7.375 9.02774
O -13.8511 3.16609 -2.52554
H -14.2134 2.86437 -1.64366
H -12.9409 2.77557 -2.66318
O 11.4098 -7.21351 -6.42213
H 10.8879 -7.10726 -7.26848
H 12.3234 -6.8252 -6.54293
O -6.22632 1.99358 12.2356
H -6.06803 2.12202 13.2146
H -6.46345 1.03833 12.0588
O 14.5175 7.66655 -3.20778
H -14.7053 6.91291 -2.97123
H 14.7157 7.97846 -4.13699
O 9.70053 -3.43328 10.4862
H 9.84964 -2.85058 9.68736
H 8.80112 -3.23859 10.8776
O 3.86458 6.47158 3.34707
H 2.88797 6.26404 3.2908
H 3.99573 7.4629 3.33814
O -5.56254 -5.91457 -3.69308
H -6.17472 -5.21189 -3.33047
H -5.21932 -6.47779 -2.94142
O 3.84197 -9.99721 -12.4555
H 3.19314 -10.1546 -13.2
H 3.45485 -9.33931 -11.8095
O -9.58031 -8.41341 -7.90338
H -10.1913 -9.10821 -8.28285
H -10.0381 -7.9432 -7.14885
O 14.5185 8.71605 6.6953
H 14.5249 8.98607 7.65814
H -14.3808 8.54169 6.39172
O 5.63453 -9.81693 -9.7476
H 5.23847 -9.02039 -9.2908
H 4.91092 -10.474 -9.95893
O 7.29442 7.77174 -10.729
H 8.07129 7.14742 -10.6472
H 7.48871 8.45513 -11.4327
O -6.4927 2.62641 14.7032
H -7.47379 2.54671 14.8796
H -6.27951 3.56209 14.422
O -14.451 -7.67153 -4.63982
H -14.0307 -8.55762 -4.44457
H 14.7029 -7.77837 -5.36329
O -0.310531 12.2971 3.42089
H -0.790467 11.8246 4.16007
H -0.647081 13.2362 3.35178
O 8.79005 10.5235 4.55013
H 8.03376 10.3111 3.93137
H 9.08659 11.4671 4.40234
O 11.232 4.1828 -3.45475
H 11.534 3.74677 -4.30249
H 11.5727 5.12244 -3.42348
O 8.05844 -14.1147 11.1585
H 7.10311 -13.9257 10.9313
H 8.55796 -14.3541 10.326
O -5.25747 8.66522 9.64744
H -6.17201 8.26224 9.68247
H -4.58583 7.95098 9.45059
O -4.13548 -3.2522 3.38083
H -3.61681 -2.86975 4.14549
H -4.9774 -3.66846 3.72421
O -9.17927 -4.02653 -8.07403
H -9.59463 -3.43604 -7.38208
H -8.54804 -4.66425 -7.63261
O -9.5902 10.4028 -14.3247
H -8.96122 10.3131 -13.5525
H -9.39411 9.69052 14.8373
O -11.0746 -12.1467 4.70624
H -10.3835 -11.5263 5.07703
H -11.6822 -11.6411 4.09374
O -13.5533 -11.9936 11.8906
H -13.0877 -12.8424 11.64
H -13.0344 -11.2133 11.5416
O 11.7428 -9.07349 -2.34695
H 10.9978 -8.64365 -2.85716
H 12.1476 -9.80247 -2.89892
O -1.60872 6.44278 -3.41122
H -1.10512 5.63074 -3.70617
H -1.16313 6.83778 -2.60784
O 12.0438 -3.52804 -12.6545
H 11.1398 -3.15311 -12.8598
H 12.0941 -3.76462 -11.6842
O -3.11033 -1.57947 5.37468
H -2.27654 -1.75425 5.89836
H -3.26521 -0.593406 5.3139
O -1.05228 -3.80047 14.9082
H -0.935696 -4.0015 -13.9551
H -1.08228 -2.80999 14.7739
O 12.9444 11.5307 -9.83776
H 13.8856 11.7941 -9.62602
H 12.6502 11.99 -10.6759
O 5.2152 -14.6085 -13.7582
H 6.12672 -14.2074 -13.8491
H 4.64657 -14.0174 -13.186
O -3.68482 -1.16881 -5.11051
H -2.72293 -1.35417 -5.31153
H -4.03761 -1.87145 -4.49258
O -6.46682 -0.285442 -10.5117
H -7.11404 -0.698388 -9.87098
H -6.94318 0.384214 -11.0815
O 14.8018 -0.988639 -3.99695
H 14.8967 -0.0577972 -4.34986
H -14.1281 -1.36777 -3.80907
O -1.73739 13.3274 -2.13587
H -2.19093 12.5495 -1.70096
H -1.90656 14.1544 -1.59959
O 4.00386 -0.365432 -7.97118
H 3.18681 -0.884289 -8.2226
H 4.73436 -0.555524 -8.62711
O -0.522162 -7.54829 -0.279072
H -0.150662 -7.64182 0.644638
H -0.316708 -8.37296 -0.806046
O -1.91742 5.41293 0.643453
H -1.69641 6.37264 0.816978
H -1.14884 4.83792 0.92388
O 8.195 6.91797 -0.874699
H 8.55268 6.74642 0.0432521
H 8.47046 6.17448 -1.48408
O 9.73007 -7.36514 -11.1588
H 9.93368 -7.41431 -12.1366
H 9.17274 -8.15221 -10.8944
O -0.039922 4.50127 -4.15084
H -0.565671 3.65096 -4.12724
H 0.937118 4.2899 -4.12413
O 8.39264 -12.5801 7.72265
H 8.9365 -12.8463 8.51847
H 8.25163 -11.5901 7.73138
O -14.4328 13.9351 -1.58328
H -14.6555 14.8707 -1.85712
H -13.9552 13.4737 -2.33096
O 3.68546 4.70074 14.203
H 4.37614 4.08799 13.819
H 2.91781 4.16194 14.55
O -12.3029 -1.83755 0.0570556
H -11.6505 -1.46634 0.717841
H -13.027 -2.32733 0.542642
O -6.58526 -6.89513 -9.41462
H -6.57594 -7.0108 -8.42138
H -7.01176 -7.69377 -9.83921
O 1.05961 -12.528 -14.375
H 0.0670904 -12.407 -14.3587
H 1.32949 -13.1664 -13.6541
O 7.66793 1.92848 0.963687
H 7.0326 1.85131 0.195311
H 8.32423 2.6606 0.781293
O 6.06724 5.01132 11.6268
H 5.21339 5.52484 11.7119
H 5.88704 4.0385 11.7721
O 7.70014 10.4469 7.44919
H 7.94607 9.54074 7.79331
H 7.2675 10.3566 6.55215
O 10.853 -10.9974 -11.3233
H 10.0122 -10.4715 -11.1952
H 11.5468 -10.6793 -10.6772
O -1.41396 -6.86374 13.9484
H -1.1612 -6.35278 14.77
H -0.591803 -7.24927 13.5295
O -5.9655 -12.5998 -0.141099
H -5.75132 -13.4648 -0.594898
H -6.94309 -12.5655 0.06661
O -3.57856 -6.64625 -14.0517
H -3.10455 -6.87944 -14.9008
H -3.12239 -7.09267 -13.2819
O 13.6114 10.2323 4.60463
H 14.3466 10.0531 3.95101
H 13.7609 9.69024 5.43153
O 8.44772 12.7886 -2.55947
H 9.44571 12.8108 -2.61881
H 8.17272 12.6941 -1.60268
O 8.745 -0.918845 13.3554
H 8.31408 -1.69721 12.8988
H 9.47196 -0.552436 12.7746
O -11.5598 4.22988 -8.35432
H -10.8707 4.93416 -8.18357
H -11.1691 3.32878 -8.16608
O 13.1659 5.9407 -12.2541
H 13.6109 6.72431 -11.8206
H 12.862 5.29852 -11.5503
O 4.66863 -10.0615 5.6772
H 4.78427 -10.3913 6.61416
H 4.72732 -10.8324 5.04292
O -9.87565 9.77489 -4.98427
H -10.6403 10.1507 -5.50774
H -9.90664 8.77599 -5.0194
O 4.4779 3.73013 1.42847
H 4.79255 3.61054 2.37012
H 4.04819 4.62794 1.33211
O -2.95268 8.44932 -6.08936
H -3.59345 8.0464 -5.43585
H -2.82978 7.8271 -6.8625
O 6.8879 1.74729 -10.9913
H 6.04666 1.20932 -10.9373
H 7.19502 1.79119 -11.9419
O -2.67189 13.1623 -12.3892
H -2.79158 12.6643 -13.2481
H -2.13619 12.6066 -11.7535
O 12.0913 -4.24292 -10.0519
H 12.2115 -5.20887 -9.82278
H 11.8789 -3.72735 -9.22183
O -11.3876 2.46984 12.4284
H -11.0181 1.54542 12.334
H -10.7906 3.11742 11.9549
O -1.74994 2.48902 -3.66248
H -2.61707 1.99877 -3.57459
H -1.40956 2.7298 -2.75354
O 9.64648 12.2314 10.5744
H 10.5402 11.8029 10.4418
H 8.96746 11.528 10.7844
O 11.0887 -6.70492 1.86718
H 10.7805 -5.93446 1.30917
H 12.0711 -6.62279 2.03528
O 3.27526 -3.13429 12.5127
H 2.60139 -3.17808 13.2503
H 2.81012 -3.21397 11.6311
O -3.88528 7.00911 -8.73265
H -3.37126 7.80675 -9.04817
H -4.83205 7.27382 -8.54945
O 3.20592 8.87592 9.52454
H 3.68434 8.63053 8.6814
H 2.37528 8.32551 9.60873
O 13.5214 7.16809 0.198738
H 13.7925 7.93005 -0.389375
H 14.2942 6.54394 0.313224
O -7.29951 -6.90962 8.58182
H -7.78117 -7.7292 8.89214
H -7.47031 -6.77197 7.60617
O -12.2678 13.2912 11.1332
H -11.7924 12.4454 10.8911
H -12.8305 13.1365 11.9453
O -0.561508 -7.66926 -9.59336
H 0.38786 -7.64023 -9.90618
H -0.604806 -7.39202 -8.63353
O -3.40933 -12.0871 10.3759
H -3.59157 -12.3434 11.3251
H -3.08386 -11.1422 10.3424
O 6.57539 -7.57154 7.38296
H 5.99751 -7.22336 8.12109
H 6.16626 -7.33793 6.50089
O -4.74483 12.7102 3.29948
H -4.409 11.8906 3.76366
H -5.11009 13.3501 3.97557
O -0.601556 1.73893 -6.30845
H -0.0210365 0.935738 -6.17474
H -1.12328 1.91577 -5.47387
O -7.63447 3.79791 0.271842
H -6.97681 4.50665 0.0165647
H -7.15694 3.0514 0.735198
O -6.26694 -10.5373 -7.04379
H -6.7733 -11.2652 -6.58141
H -6.90529 -9.83392 -7.3565
O -8.82503 -13.2659 14.4524
H -9.74056 -13.2542 14.0503
H -8.77243 -12.5834 -14.6546
O 11.4582 7.88554 -10.0953
H 12.1698 7.29494 -9.71481
H 11.2633 8.62805 -9.45448
O 8.70277 0.477322 -4.97431
H 8.65834 1.34968 -4.48747
H 8.12526 -0.193683 -4.50929
O 8.62095 7.87944 12.3744
H 8.20595 8.73923 12.0768
H 8.58255 7.21494 11.6281
O 8.65783 12.3716 -12.661
H 9.13368 13.1296 -13.1072
H 8.51602 11.6329 -13.3199
O -8.88277 9.11521 -11.792
H -8.17898 9.5978 -12.3133
H -8.49757 8.27493 -11.4105
O 3.05118 10.65 -14.4766
H 2.71733 11.4528 14.8654
H 3.57344 10.0683 14.7359
O -13.743 11.9345 -7.42545
H -13.8796 12.3752 -6.53828
H -13.12 11.1593 -7.32015
O -6.4202 12.7226 -14.6189
H -7.19104 13.2144 14.8121
H -6.02992 12.0989 14.5398
O -6.99211 12.1721 -9.55104
H -7.36857 12.3801 -8.64825
H -7.63719 12.4651 -10.2567
O 0.739989 9.62741 -6.90739
H 0.41791 8.93068 -6.26643
H 1.32711 10.2778 -6.42542
O 12.4532 2.58641 -5.64692
H 11.9383 2.95171 -6.42242
H 12.2231 1.62173 -5.51874
O -6.67984 0.977747 6.23724
H -7.18454 1.34154 7.02014
H -7.23784 0.291478 5.77068
O -2.80353 7.00059 9.04409
H -2.47716 7.48931 8.23499
H -2.20554 6.21994 9.22573
O -8.04909 -9.51277 9.18077
H -8.89808 -9.47672 8.65358
H -8.12995 -10.2072 9.89577
O 7.68117 1.95235 -13.6378
H 7.61982 2.79723 -14.1692
H 8.62225 1.61468 -13.656
O -10.8671 7.17435 3.9953
H -11.3829 6.94769 3.16911
H -10.5131 6.33508 4.40793
O -0.334897 -10.5366 5.53864
H -1.16281 -10.2039 5.0871
H -0.587343 -11.1393 6.29559
O -3.9492 -1.665 12.026
H -3.76653 -2.42953 12.6441
H -3.20504 -1.00001 12.0893
O 2.0333 -10.8942 1.11581
H 1.98281 -11.8765 0.935389
H 1.89104 -10.7268 2.09137
O -11.4285 -0.194122 12.2429
H -10.779 -0.945336 12.3603
H -12.3601 -0.537102 12.3632
O 14.5691 -9.25607 11.2794
H 14.9173 -8.58728 11.9363
H 14.3132 -8.78961 10.4327
O -12.853 0.00725111 -13.6845
H -13.2927 -0.545433 -14.3924
H -13.1847 -0.277839 -12.7852
O 7.28707 -12.95 -1.58675
H 8.02905 -12.3877 -1.95186
H 6.4189 -12.6574 -1.98763
O 7.4649 -0.21227 2.55359
H 6.49719 -0.366121 2.75328
H 7.55358 0.519903 1.87826
O -10.0241 -8.05395 13.8862
H -9.69249 -7.85167 12.9647
H -9.49318 -7.53178 14.5536
O -10.6733 9.50723 2.22554
H -11.5789 9.73307 1.86649
H -10.7712 8.95273 3.05195
O -1.64789 0.077235 12.3535
H -1.36699 0.619545 13.1454
H -0.838775 -0.306024 11.9081
O 8.50227 -6.80467 -2.39713
H 8.10087 -7.70179 -2.58171
H 8.11553 -6.43381 -1.5528
O 0.958384 13.3316 14.515
H 1.27433 12.9528 13.6452
H 1.74004 13.4637 -14.7114
O -6.89815 -10.2354 -3.47436
H -7.30804 -11.1475 -3.46347
H -5.94937 -10.2926 -3.16365
O -1.33837 -11.2522 -12.5405
H -0.466092 -11.3204 -12.0563
H -1.90049 -12.0517 -12.3288
O -13.5444 -9.99784 -13.2075
H -14.5043 -9.73439 -13.1114
H -13.4203 -10.4986 -14.0641
O 13.7116 14.034 3.92524
H 13.9531 13.4654 4.71162
H 14.3936 13.9124 3.20405
O -2.85925 9.3929 1.26628
H -1.91459 9.71792 1.22165
H -3.4578 10.1449 1.54228
O 11.7168 -12.2956 -13.6159
H 11.8076 -11.5392 -14.2636
H 11.4278 -11.9404 -12.7269
O -11.5997 -13.6759 13.7292
H -12.3871 -13.4596 14.3065
H -11.8088 -14.4756 13.1663
O -10.8553 -0.0859982 -10.0818
H -11.8038 0.14601 -10.2971
H -10.2613 0.212609 -10.8288
O 10.0213 -0.0588202 -7.32394
H 9.56746 -0.0243986 -6.43354
H 10.4516 -0.953439 -7.44436
O 7.57472 -1.52546 -2.31721
H 7.97729 -0.624065 -2.15773
H 8.14519 -2.22589 -1.88832
O 4.66331 10.4934 -3.26408
H 5.63792 10.5026 -3.4878
H 4.12745 10.4994 -4.10836
O 5.65694 10.2764 5.32681
H 4.81766 10.7216 5.63901
H 5.44516 9.66051 4.568
O 10.5117 2.60669 0.00731314
H 10.012 3.05859 -0.731644
H 11.325 3.14188 0.235683
O -7.6533 1.65379 -12.1462
H -8.36442 1.99658 -11.5324
H -7.04093 2.40311 -12.3983
O -9.823 4.56665 7.87022
H -9.40071 4.59272 8.77631
H -10.589 5.20884 7.84088
O 9.85225 8.69552 2.63181
H 10.5734 9.17654 2.13322
H 9.17926 9.3562 2.96435
O -6.09083 4.07947 7.26449
H -6.64801 3.88 6.45841
H -5.17043 4.34376 6.97638
O 8.81543 -2.1202 -10.1748
H 8.36021 -2.5754 -10.94
H 8.26572 -2.23027 -9.34676
O 2.66497 -12.9343 13.1346
H 2.23553 -13.623 12.5503
H 2.09959 -12.7861 13.946
O -9.91265 -14.1295 -6.62825
H -8.99838 -13.7248 -6.64664
H -10.3389 -14.0309 -7.52747
O 13.5876 5.08334 10.3555
H 13.4636 4.12268 10.107
H 13.3789 5.66131 9.56659
O 13.5465 6.98722 -8.7137
H 14.0219 6.16775 -8.39357
H 14.1362 7.48875 -9.34674
O 5.85431 -9.89093 1.8207
H 5.71656 -8.90609 1.92613
H 5.20574 -10.2481 1.14857
O -0.143262 8.20507 2.96357
H -1.13106 8.09223 3.07094
H 0.0410203 9.01269 2.40339
O -4.02848 0.166586 -11.9398
H -3.40149 0.179812 -11.1609
H -4.9578 -0.012111 -11.6167
O -11.2398 13.4726 -5.85973
H -11.2725 13.0547 -6.76761
H -10.6298 14.2648 -5.87925
O -9.10634 2.58645 -10.1005
H -8.66767 3.43319 -9.79948
H -9.60871 2.1815 -9.3365
O -7.13908 -2.07375 9.85371
H -7.2037 -1.59643 10.7301
H -6.55044 -1.55463 9.23402
O -9.90103 -13.7228 7.08132
H -9.27102 -14.338 6.6074
H -9.73183 -13.7662 8.06594
O 8.82753 -7.49682 8.62202
H 9.43746 -8.12831 8.14326
H 7.92638 -7.51089 8.18874
O -13.6001 -6.04809 -12.4049
H -12.8843 -5.40668 -12.1287
H -13.2562 -6.63658 -13.1366
O 12.3627 -3.09019 8.06207
H 12.4475 -3.90329 8.638
H 11.486 -3.112 7.58164
O -9.48735 -11.8247 -2.5272
H -9.45745 -11.7468 -1.53068
H -9.80478 -10.9614 -2.91957
O -3.41068 -13.2766 4.83692
H -3.90281 -12.4344 5.05694
H -2.95913 -13.6233 5.65906
O -6.49151 -6.08343 -12.1502
H -6.46442 -6.08135 -11.1505
H -5.88644 -5.36896 -12.5015
O -2.28986 -4.69939 -3.20778
H -2.98117 -4.68436 -3.93019
H -2.68325 -4.33802 -2.36241
O -4.42157 -7.81008 -2.17651
H -4.48933 -8.80755 -2.15511
H -4.05623 -7.48205 -1.30535
O -13.9757 -4.71019 3.15286
H -14.2704 -3.86167 2.71333
H -13.7424 -4.52726 4.10789
O -7.16735 12.9281 -2.14246
H -7.32023 12.481 -1.26115
H -7.91688 12.7029 -2.76494
O -7.24455 4.61956 -12.3947
H -8.2342 4.76286 -12.3863
H -6.89194 4.78272 -13.3162
O -0.86625 10.8904 9.67578
H -1.1425 9.9303 9.71966
H -1.24603 11.3826 10.459
O 9.24378 -0.591319 5.04435
H 8.49344 0.0360853 4.83614
H 10.0532 -0.328879 4.51904
O 13.3723 2.77229 -12.6266
H 13.0042 3.0699 -11.7458
H 14.3056 3.11589 -12.7311
O -8.34448 -4.37882 2.70103
H -8.9239 -5.01371 3.21209
H -7.64189 -4.89191 2.20798
O -14.2854 -10.5344 -4.98907
H -14.0231 -11.4914 -5.11306
H 14.5599 -10.4734 -4.86699
O -9.75818 -1.66507 9.34175
H -8.77942 -1.8438 9.44218
H -9.97301 -0.764398 9.71942
O 11.0804 10.78 6.04307
H 10.3047 10.7989 5.41229
H 11.9311 10.8872 5.52849
O 7.97868 -5.5517 4.79741
H 7.21894 -6.18041 4.9633
H 7.64629 -4.6094 4.83709
O -5.37321 -6.04803 3.92717
H -4.41805 -6.33699 3.99185
H -5.64999 -6.02449 2.96652
O -10.4002 -3.51079 7.56019
H -10.111 -2.76464 8.1599
H -10.6258 -4.31363 8.11205
O 3.52375 11.3283 -9.75533
H 3.81892 10.8993 -10.609
H 3.95522 10.8636 -8.98213
O -8.74322 6.50572 -2.09254
H -9.40344 7.01821 -1.54348
H -7.89103 6.40343 -1.5794
O 2.75161 -3.45758 9.54678
H 3.377 -3.60822 8.78114
H 2.13121 -4.23756 9.62883
O 4.9042 -7.32089 -8.49722
H 5.5847 -7.44203 -7.77455
H 5.3292 -6.87233 -9.28345
O 3.46273 -14.1858 6.67067
H 2.68998 -14.5885 6.17999
H 4.26384 -14.1665 6.07247
O 11.0921 3.04639 -14.1346
H 11.9664 3.00128 -13.6514
H 10.5549 2.2284 -13.9288
O -6.48141 -13.1145 4.70764
H -6.96446 -13.3067 3.8534
H -6.29822 -13.9727 5.1873
O -4.2676 -2.85843 7.76175
H -3.92734 -3.71251 8.15516
H -3.75626 -2.64829 6.92846
O 11.8973 14.6469 -10.262
H 12.1206 14.3141 -9.34574
H 10.9048 14.6474 -10.3837
O 0.59758 5.19798 -13.1643
H 1.1619 4.60847 -13.7422
H -0.34677 5.18147 -13.4928
O -7.53982 12.852 -7.02826
H -8.47609 12.9942 -6.70704
H -6.93954 12.6907 -6.24489
O 1.62362 -8.18913 -3.19635
H 0.838127 -8.80555 -3.14143
H 1.35006 -7.27355 -2.90162
O 8.68512 -9.97528 2.0328
H 7.74766 -9.78332 1.74243
H 9.32519 -9.50574 1.42465
O 2.98917 6.87835 -1.12341
H 2.88385 5.89452 -0.978497
H 3.92049 7.15272 -0.883879
O -3.52694 11.1264 -1.5127
H -3.24007 10.1761 -1.6336
H -4.15489 11.1889 -0.736957
O -12.8373 5.3555 13.5372
H -12.4868 4.566 14.041
H -13.7869 5.52462 13.8012
O -6.2158 14.7381 -11.7322
H -6.75474 13.9032 -11.6201
H -5.56508 14.8186 -10.9772
O 0.840356 -4.24213 5.64708
H 1.33178 -4.47285 6.48688
H 1.38502 -4.51892 4.85542
O 9.49902 6.28513 -11.1509
H 9.5172 5.74686 -11.9935
H 10.304 6.87742 -11.1163
O -4.75105 -10.7111 -1.8747
H -5.13202 -11.2131 -1.09828
H -4.25833 -11.3443 -2.47163
O -13.2399 -3.97664 -7.45631
H -12.524 -4.52447 -7.8892
H -12.9651 -3.01514 -7.44881
O -1.83197 8.92621 -9.27156
H -1.08585 8.31717 -9.00254
H -1.80708 9.75251 -8.70888
O -3.71569 -3.9833 -0.736754
H -3.27404 -3.45473 -0.0117984
H -3.65079 -4.95848 -0.52505
O -4.99804 4.65092 -7.9551
H -4.59159 5.14084 -8.72631
H -4.62551 5.00914 -7.09901
O 1.00561 -14.5699 -12.298
H 1.90573 14.8603 -12.4564
H 0.99005 -14.1342 -11.398
O 5.66886 3.58971 -9.16863
H 5.00407 3.97824 -9.80668
H 6.27825 2.9675 -9.66006
O 0.303322 -5.78571 -2.28417
H -0.559228 -5.50657 -2.70617
H 0.118692 -6.21028 -1.3978
O -3.65887 -7.8426 5.9234
H -3.69288 -7.56071 6.88224
H -4.58953 -7.96765 5.57954
O 7.22997 9.91321 2.37077
H 6.44901 10.4706 2.08899
H 7.7876 9.69207 1.57068
O -12.4954 0.669452 -5.80642
H -12.3758 -0.026604 -5.09845
H -13.3089 1.21455 -5.60388
O 13.9147 -0.262079 -1.67631
H 14.0012 -0.578302 -2.62104
H 14.7637 0.185469 -1.39555
O 13.3608 -12.0309 11.5797
H 14.1379 -11.4054 11.5095
H 12.8552 -11.8411 12.4213
O -1.64483 4.71086 10.7266
H -2.03766 3.79246 10.7737
H -1.53433 5.07394 11.6518
O 10.5474 5.98449 11.6602
H 9.98522 6.2386 12.4473
H 9.96198 5.85832 10.8594
O 7.70822 3.10804 -4.08294
H 6.72459 3.10356 -4.26309
H 8.19124 3.47252 -4.87909
O 10.7767 -9.32862 7.59199
H 9.97797 -9.73725 7.15037
H 11.1389 -9.96102 8.27673
O -6.48987 -0.610814 -2.49656
H -6.68951 -1.15487 -1.6816
H -7.27124 -0.64487 -3.1197
O -0.817684 -2.32738 6.96281
H -0.809658 -2.67918 7.89885
H -0.164966 -2.84268 6.40746
O 2.07997 8.78937 -3.43252
H 2.43773 9.7225 -3.39668
H 2.81265 8.14306 -3.2193
O 7.33355 10.4081 -3.69693
H 7.57218 11.3051 -3.32486
H 7.87225 10.2352 -4.5215
O -7.87719 0.853001 -6.32461
H -8.14233 0.352114 -5.50071
H -7.14647 0.358123 -6.79487
O -7.54418 11.6974 4.26191
H -7.07291 12.3273 3.64452
H -6.87557 11.0942 4.69677
O 10.3643 8.16072 -14.8596
H 10.4397 7.21745 -14.5362
H 9.49268 8.28155 14.5013
O 5.39073 -12.5996 13.7628
H 4.41704 -12.6714 13.5465
H 5.50118 -12.2123 14.6781
O -6.9896 3.35879 -5.73977
H -7.17805 2.39132 -5.90857
H -6.04935 3.56715 -6.00903
O 1.09411 3.21563 -8.85567
H 0.562254 3.83772 -8.2811
H 1.78867 2.75966 -8.29918
O -9.60645 11.9615 2.24922
H -9.37797 12.5143 3.05058
H -9.52599 10.9917 2.47938
O -0.216504 -3.33996 -9.92699
H -0.676603 -3.00365 -10.7487
H -0.719121 -3.03876 -9.11665
O -10.1133 -9.21074 7.5164
H -10.066 -9.0747 6.52682
H -10.5694 -10.0789 7.71206
O 13.5195 -9.7576 4.82383
H 13.7209 -10.4231 4.10514
H 12.5848 -9.41987 4.7129
O 7.23733 -2.59799 11.9019
H 6.689 -3.42791 12.0048
H 6.72631 -1.92501 11.3672
O 8.33713 14.8055 2.30848
H 7.79491 -14.2963 1.89977
H 8.0236 14.6405 3.24362
O 6.66984 0.93175 5.22465
H 6.71743 1.22049 4.26842
H 5.71738 0.754117 5.47218
O 13.5469 12.4337 10.5988
H 13.4557 13.0702 11.3647
H 13.2439 11.5242 10.8835
O 7.5811 9.0623 -13.436
H 8.03309 9.67759 -14.0818
H 7.49821 8.15312 -13.8441
O -0.466828 4.60243 -6.81652
H -0.339798 4.80425 -5.84537
H -0.638666 3.62433 -6.93399
O -9.83797 0.96009 9.95129
H -10.6358 0.638778 10.4614
H -9.38046 1.68315 10.4689
O 11.9013 -11.1929 9.53256
H 12.4068 -11.0556 10.3844
H 12.5457 -11.2799 8.77285
O 8.94298 -3.49055 -1.25649
H 9.79716 -3.52143 -0.737439
H 9.07367 -3.93953 -2.14043
O -4.46541 9.9368 4.31201
H -4.81138 10.0724 5.24041
H -4.43826 8.95863 4.10598
O -13.6584 -9.55474 7.04503
H -12.8978 -10.178 7.22657
H -13.6509 -9.29185 6.08023
O 3.02574 13.7422 -13.3285
H 2.94832 13.3798 -12.3997
H 3.9617 14.0568 -13.4866
O 12.3863 12.76 8.05363
H 12.7491 12.8554 8.98057
H 11.7185 12.0159 8.03207
O -12.6971 8.0612 5.90922
H -12.2074 8.41354 6.70672
H -12.0661 7.98584 5.13709
O 13.6345 -9.39983 -13.0184
H 13.3115 -9.8136 -12.1673
H 13.4758 -8.41289 -12.9905
O 0.274609 7.46036 -5.2108
H 0.819442 7.95085 -4.53066
H -0.570116 7.13252 -4.78776
O -5.16831 -13.9147 -13.9462
H -5.37372 -14.3827 -13.0867
H -5.06314 -14.5897 -14.6764
O 5.74197 -0.0815621 -13.3738
H 5.49495 -0.606615 -14.1882
H 6.41212 0.618873 -13.6193
O 4.65946 12.4137 -1.31835
H 4.66778 11.6305 -1.94009
H 4.13999 13.1617 -1.73143
O -8.99712 5.19986 13.9644
H -9.90615 5.59409 14.0995
H -8.98644 4.26105 14.3087
O -2.95243 6.2562 4.12576
H -2.81804 5.46254 3.53243
H -3.69926 6.81696 3.76829
O -12.6014 -7.50971 -14.4687
H -13.0875 -7.70484 14.5154
H -11.6374 -7.33341 -14.6678
O 6.52485 -4.38256 -6.49821
H 6.26864 -3.8812 -7.32464
H 6.42252 -3.78669 -5.70167
O 10.4982 -6.15654 13.4565
H 10.556 -5.15909 13.4984
H 10.233 -6.43656 12.5339
O -8.64053 -6.18785 -14.1341
H -8.83702 -6.39161 -13.175
H -7.65264 -6.21953 -14.286
O -7.55527 5.94682 11.6612
H -8.06494 5.74304 12.4971
H -6.57656 5.83166 11.8311
O 12.0393 9.734 10.3075
H 12.6181 8.92721 10.4261
H 11.7403 9.79261 9.35501
O 13.6984 -2.49436 -0.176361
H 13.8075 -1.65768 -0.713071
H 14.1269 -3.25819 -0.658983
O 13.1029 2.51747 9.95322
H 13.5199 1.65889 10.2514
H 12.9869 2.50446 8.96005
O -10.7589 -1.54499 5.67474
H -11.705 -1.29244 5.87777
H -10.4937 -2.32602 6.24013
O 12.7028 -0.108175 -8.43986
H 12.2201 0.022278 -7.57386
H 12.9662 -1.06834 -8.53331
O -13.2138 7.02964 9.7181
H -12.8297 7.57052 10.4664
H -13.4719 6.12556 10.0587
O 0.292259 -0.147482 5.83209
H -0.126674 -1.03724 5.65093
H -0.238115 0.334907 6.52923
O 7.50813 10.571 11.6707
H 6.79935 10.6094 12.375
H 7.2042 11.0777 10.8639
O 10.9075 2.89658 -8.01475
H 10.2472 2.14923 -8.0893
H 10.4287 3.77208 -8.08002
O -12.2561 4.97874 -11.0642
H -12.125 4.7221 -10.1066