LAMMPS data file via write_data, version 15 May 2015, timestep = 18500000

2593 atoms
6 atom types
1728 bonds
4 bond types
864 angles
3 angle types
0 dihedrals
3 dihedral types
0 impropers
1 improper types

-1.4893965967938026e+01 1.4893965967938026e+01 xlo xhi
-1.4893965967938026e+01 1.4893965967938026e+01 ylo yhi
-1.4893965967938026e+01 1.4893965967938026e+01 zlo zhi

Masses

1 15.9994
2 1.00794
3 12.0107
4 1.00794
5 12.0107
6 12.0107

Bond Coeffs # harmonic

1 1000 1
2 469 1.4
3 367 1.08
4 469 0.7

Angle Coeffs # harmonic

1 100 109.47
2 35 120
3 63 120

Dihedral Coeffs # opls

1 0 7.25 0 0
2 0 7.25 0 0
3 0 7.25 0 0

Improper Coeffs # cvff

1 2.5 -1 2

Atoms # full

1910 637 2 4.0999999999999998e-01 -8.7997229477603156e+00 -1.1939914427899783e+01 -1.1838010581650240e+01 3 0 3
699 233 2 4.0999999999999998e-01 -8.6095735198075563e+00 -9.8897467280030646e+00 -8.8448254970944458e+00 3 -1 -2
1856 619 2 4.0999999999999998e-01 -1.0536007142830574e+01 -1.1313245703371395e+01 -1.2174744186584975e+01 0 -2 2
1855 619 1 -8.1999999999999995e-01 -1.1247109034517887e+01 -1.0991841430922056e+01 -1.2800152485422116e+01 0 -2 2
2297 766 2 4.0999999999999998e-01 -1.2585575763127052e+01 -8.8009324429898470e+00 -8.3994144091787106e+00 -1 -2 2
1857 619 2 4.0999999999999998e-01 -1.1294878177051979e+01 -1.1600942904368782e+01 -1.3591869395320259e+01 0 -2 2
109 37 1 -8.1999999999999995e-01 -1.1594051172096284e+01 -5.3401698952353804e+00 -8.2656635150160511e+00 0 0 3
911 304 2 4.0999999999999998e-01 -1.2606390312817741e+01 -9.9464516472529318e+00 -1.2035235317862846e+01 4 1 0
910 304 1 -8.1999999999999995e-01 -1.3253366425891556e+01 -9.4409740680374128e+00 -1.1464256827424265e+01 4 1 0
731 244 2 4.0999999999999998e-01 -1.4633484890933662e+01 -1.0292851157883604e+01 -8.2838468953579714e+00 1 -5 3
1909 637 1 -8.1999999999999995e-01 -9.2804356565336157e+00 -1.2572191104928621e+01 -1.1230356366423182e+01 3 0 3
912 304 2 4.0999999999999998e-01 -1.2752605041730741e+01 -8.9291627869883108e+00 -1.0766124053736291e+01 4 1 0
1170 390 2 4.0999999999999998e-01 -9.3991856722798062e+00 -8.3341863553453148e+00 -1.3683378123616404e+01 -1 -8 0
2298 766 2 4.0999999999999998e-01 -1.1024857966103639e+01 -8.7683007713962482e+00 -8.8789912049501254e+00 -1 -2 2
1168 390 1 -8.1999999999999995e-01 -8.5670041384945765e+00 -8.4780217993964939e+00 -1.3147759389489551e+01 -1 -8 0
1103 368 2 4.0999999999999998e-01 -1.2740355437212465e+01 -1.3255676526248303e+01 -1.0315625882305193e+01 -1 4 -2
1911 637 2 4.0999999999999998e-01 -8.7970790917009651e+00 -1.2627171357113301e+01 -1.0356602534903395e+01 3 0 3
1169 390 2 4.0999999999999998e-01 -8.6372320863804521e+00 -9.3414885829559964e+00 -1.2648164270235640e+01 -1 -8 0
2296 766 1 -8.1999999999999995e-01 -1.1974847033236342e+01 -8.7117982381612613e+00 -9.1862864589490520e+00 -1 -2 2
1132 378 1 -8.1999999999999995e-01 -1.3476333190944780e+01 -1.1610770668196778e+01 -9.5777238034304943e+00 -4 1 -6
1104 368 2 4.0999999999999998e-01 -1.1191917021727619e+01 -1.3168905088808060e+01 -1.0827199926701056e+01 -1 4 -2
2164 722 1 -8.1999999999999995e-01 -1.0975107451034940e+01 -8.4024050100308330e+00 -1.4034379696448738e+01 0 0 0
2238 746 2 4.0999999999999998e-01 -1.4405837302784485e+01 -6.5526968640423533e+00 -1.3631783864622594e+01 -3 2 1
110 37 2 4.0999999999999998e-01 -1.1361557123531274e+01 -5.9501988835254771e+00 -9.0232341413922832e+00 0 0 3
697 233 1 -8.1999999999999995e-01 -9.5466301065023593e+00 -9.5877397531152404e+00 -8.6692723900566122e+00 3 -1 -2
1102 368 1 -8.1999999999999995e-01 -1.1917306702523046e+01 -1.3785382028925268e+01 -1.0520820911138440e+01 -1 4 -2
2076 692 2 4.0999999999999998e-01 -9.3466660954922247e+00 -6.6946324832018629e+00 -1.1921130007044058e+01 0 0 1
2196 732 2 4.0999999999999998e-01 -7.7528088516488056e+00 -1.4351193992977132e+01 -1.4095150544417773e+01 2 -3 3
915 305 2 4.0999999999999998e-01 -1.2488849076482861e+01 -6.0279737227151831e+00 -1.2721737711719122e+01 -7 -6 2
2165 722 2 4.0999999999999998e-01 -1.1891802743982458e+01 -8.0042733890092066e+00 -1.4069919366286754e+01 0 0 0
2264 755 2 4.0999999999999998e-01 -7.9961835097396623e+00 -1.3823754098145585e+01 -8.1651685006877592e+00 -2 5 2
2166 722 2 4.0999999999999998e-01 -1.1046039788981933e+01 -9.3913389221785639e+00 -1.3903687547394563e+01 0 0 0
2075 692 2 4.0999999999999998e-01 -9.0550425591178261e+00 -5.6943270273665938e+00 -1.0663654965082948e+01 0 0 1
1134 378 2 4.0999999999999998e-01 -1.3039867154078278e+01 -1.1804105939829855e+01 -8.6989626569606457e+00 -4 1 -6
2263 755 1 -8.1999999999999995e-01 -7.5520096132911139e+00 -1.3153378248753189e+01 -8.7596497180851713e+00 -2 5 2
698 233 2 4.0999999999999998e-01 -1.0028053668548313e+01 -1.0285841324321742e+01 -8.1391896788345193e+00 3 -1 -2
913 305 1 -8.1999999999999995e-01 -1.2077998923672576e+01 -5.3675825233064689e+00 -1.2093098129416733e+01 -7 -6 2
2074 692 1 -8.1999999999999995e-01 -9.6984834439031715e+00 -5.9202708011146150e+00 -1.1395116086630185e+01 0 0 1
914 305 2 4.0999999999999998e-01 -1.1143003930765612e+01 -5.6495309985365250e+00 -1.1877711224572435e+01 -7 -6 2
1133 378 2 4.0999999999999998e-01 -1.2981418135381045e+01 -1.0875649832796764e+01 -1.0041144409199296e+01 -4 1 -6
2005 669 1 -8.1999999999999995e-01 -1.0405892115609431e+01 -1.2046119228428301e+01 -7.6932579546367243e+00 1 3 -4
2236 746 1 -8.1999999999999995e-01 -1.3491971059880600e+01 -6.6756417389036429e+00 -1.4018869344402948e+01 -3 2 1
548 183 2 4.0999999999999998e-01 -1.4852997825082696e+01 -1.0014109155307953e+01 -1.1905585321389694e+01 -1 4 4
1643 548 2 4.0999999999999998e-01 -1.4845599182336349e+01 -5.8845974489057085e+00 -8.3664061636088949e+00 4 -4 6
2006 669 2 4.0999999999999998e-01 -9.7412263605870919e+00 -1.2789221414108010e+01 -7.6150231217076474e+00 1 3 -4
2056 686 1 -8.1999999999999995e-01 -7.5016619252517263e+00 -6.7768243312285232e+00 -7.5284688294376068e+00 -3 -2 1
2007 669 2 4.0999999999999998e-01 -1.1318931620180406e+01 -1.2391295591894309e+01 -7.4757395409081724e+00 1 3 -4
1019 340 2 4.0999999999999998e-01 -5.8616224711700262e+00 -5.5917676017460280e+00 -1.4801470083167153e+01 4 1 0
150 50 2 4.0999999999999998e-01 -2.3025315570411617e+00 -7.0066163643904940e+00 -1.2663247269773741e+01 1 1 5
1618 540 1 -8.1999999999999995e-01 -5.8366626386173674e+00 -1.1197931495782578e+01 -7.7382787794202192e+00 -3 -2 -1
657 219 2 4.0999999999999998e-01 -2.4677518192165504e+00 -9.4153948699154775e+00 -9.7463749210198998e+00 -1 1 1
2455 819 1 -8.1999999999999995e-01 -1.1021653250187544e+00 -1.4662149747762022e+01 -1.4499713318086011e+01 4 -3 4
765 255 2 4.0999999999999998e-01 -5.2502565575850220e+00 -1.3827139473746536e+01 -1.0573111003886357e+01 -2 -5 4
672 224 2 4.0999999999999998e-01 -5.0234431086057825e+00 -5.8522875221555175e+00 -1.3127553730467453e+01 -1 4 -1
1589 530 2 4.0999999999999998e-01 -6.2909716381951633e+00 -7.6228956580266978e+00 -1.0955822272391481e+01 2 -5 -3
2265 755 2 4.0999999999999998e-01 -7.0426596344016099e+00 -1.3629412699366156e+01 -9.4766266691251460e+00 -2 5 2
578 193 2 4.0999999999999998e-01 -4.2868174236947585e+00 -6.1257798057948492e+00 -8.3608525304331618e+00 1 2 -1
705 235 2 4.0999999999999998e-01 -3.3613192100004241e-02 -1.1967993865529953e+01 -9.0361360826701116e+00 0 -1 1
2181 727 2 4.0999999999999998e-01 -1.3858939892413851e+00 -1.4840431086172979e+01 -7.5557137491842550e+00 3 -5 4
149 50 2 4.0999999999999998e-01 -1.3728799179842550e+00 -8.2193240943828076e+00 -1.3239430006898825e+01 1 1 5
464 155 2 4.0999999999999998e-01 -1.9541417445791058e+00 -1.2867556208475968e+01 -1.1703241606564692e+01 -3 -2 6
794 265 2 4.0999999999999998e-01 -2.9042141568899140e+00 -1.1295737805535136e+01 -8.8090622268416503e+00 -6 0 2
86 29 2 4.0999999999999998e-01 -5.9376331243065934e+00 -7.7090499523548317e+00 -1.4422944827235522e+01 -3 4 -3
2174 725 2 4.0999999999999998e-01 -4.6159482948127000e+00 -1.2308717384870437e+01 -1.1345336395177386e+01 4 -2 -5
2457 819 2 4.0999999999999998e-01 -1.1159369766939697e-01 -1.4593274048041762e+01 -1.4380860007162740e+01 4 -3 4
1590 530 2 4.0999999999999998e-01 -5.7838629475412926e+00 -7.4546269221250352e+00 -9.4126355788126954e+00 2 -5 -3
2467 823 1 -8.1999999999999995e-01 -4.7067843156286440e+00 -1.4251011621801839e+01 -1.4302051249621373e+01 3 0 -3
85 29 1 -8.1999999999999995e-01 -6.3880413398198552e+00 -7.0005281355536289e+00 -1.3879592844244231e+01 -3 4 -3
260 87 2 4.0999999999999998e-01 -3.2358548764826285e+00 -1.4566959133809428e+01 -1.1454726182346388e+01 0 -4 -1
656 219 2 4.0999999999999998e-01 -2.0483626797208956e+00 -1.0794864674541977e+01 -1.0513235141183833e+01 -1 1 1
1588 530 1 -8.1999999999999995e-01 -6.5811421136763446e+00 -7.4412857789594336e+00 -1.0016183485145568e+01 2 -5 -3
87 29 2 4.0999999999999998e-01 -7.1852550423142274e+00 -7.3903960240226221e+00 -1.3418555467917447e+01 -3 4 -3
463 155 1 -8.1999999999999995e-01 -1.2841748968598790e+00 -1.2167788859218295e+01 -1.1455104161437083e+01 -3 -2 6
1619 540 2 4.0999999999999998e-01 -6.4464709426571201e+00 -1.1967763012467049e+01 -7.9269463181376816e+00 -3 -2 -1
1329 443 2 4.0999999999999998e-01 -9.5828611329487501e-01 -7.5121327156602735e+00 -9.3486116417251495e+00 1 -1 -5
55 19 1 -8.1999999999999995e-01 -7.4361944851407147e+00 -1.0996571314987133e+01 -1.2300620345582532e+01 -5 -2 6
57 19 2 4.0999999999999998e-01 -6.9736612339873734e+00 -1.1207886634630876e+01 -1.3161730651434350e+01 -5 -2 6
579 193 2 4.0999999999999998e-01 -3.5421917000197176e+00 -7.4424900316673153e+00 -8.9762430370841990e+00 1 2 -1
671 224 2 4.0999999999999998e-01 -3.7034328623988912e+00 -5.9444565692443483e+00 -1.4084620410238847e+01 -1 4 -1
670 224 1 -8.1999999999999995e-01 -4.0247731374234661e+00 -5.8039266465770911e+00 -1.3148087496607250e+01 -1 4 -1
763 255 1 -8.1999999999999995e-01 -5.9054219394658283e+00 -1.4534858036462200e+01 -1.0308545518579018e+01 -2 -5 4
56 19 2 4.0999999999999998e-01 -6.8768086658473422e+00 -1.1314469841000683e+01 -1.1535028961590406e+01 -5 -2 6
465 155 2 4.0999999999999998e-01 -8.6363971338956169e-01 -1.1799934468987875e+01 -1.2284522884025538e+01 -3 -2 6
1620 540 2 4.0999999999999998e-01 -4.8885595140554194e+00 -1.1479791197382719e+01 -7.8857837259302501e+00 -3 -2 -1
2179 727 1 -8.1999999999999995e-01 -2.1394085842615986e+00 -1.4491608671136987e+01 -8.1130653373801884e+00 3 -5 4
795 265 2 4.0999999999999998e-01 -2.7671991885205909e+00 -1.2764758237738295e+01 -8.1089874836376374e+00 -6 0 2
261 87 2 4.0999999999999998e-01 -4.1451216502906405e+00 -1.4064995374085607e+01 -1.2714950421254592e+01 0 -4 -1
2469 823 2 4.0999999999999998e-01 -4.0039828476721055e+00 -1.3790943110144877e+01 -1.4844738257855436e+01 3 0 -3
655 219 1 -8.1999999999999995e-01 -2.8078979164185327e+00 -1.0280697736218087e+01 -1.0114686881608034e+01 -1 1 1
577 193 1 -8.1999999999999995e-01 -4.3594879409133789e+00 -7.1129397550495694e+00 -8.5034580851170780e+00 1 2 -1
1327 443 1 -8.1999999999999995e-01 -1.8852488755973766e+00 -7.6504957444602404e+00 -9.6974637812710078e+00 1 -1 -5
259 87 1 -8.1999999999999995e-01 -3.8129265221552959e+00 -1.3827716619388552e+01 -1.1802017049243968e+01 0 -4 -1
2096 699 2 4.0999999999999998e-01 -7.1323416944091660e+00 -5.5531999826282750e+00 -1.0035504686943588e+01 5 0 4
1328 443 2 4.0999999999999998e-01 -1.9257859514728271e+00 -7.3700572642060349e+00 -1.0656532660299646e+01 1 -1 -5
2057 686 2 4.0999999999999998e-01 -7.3638194456935580e+00 -7.2350788487443163e+00 -8.4065943169914981e+00 -3 -2 1
793 265 1 -8.1999999999999995e-01 -3.2495234267126847e+00 -1.1889125822831167e+01 -8.0819072284875055e+00 -6 0 2
2175 725 2 4.0999999999999998e-01 -4.5093073877795202e+00 -1.0830529596703874e+01 -1.0659415530221182e+01 4 -2 -5
148 50 1 -8.1999999999999995e-01 -1.4786221506179462e+00 -7.5504610754687373e+00 -1.2503533969411819e+01 1 1 5
2173 725 1 -8.1999999999999995e-01 -5.1345431389170191e+00 -1.1565106926767898e+01 -1.0923193032265985e+01 4 -2 -5
415 139 1 -8.1999999999999995e-01 -1.3827861283035237e+00 -9.6973680381041536e+00 -1.4577413590249337e+01 -5 0 1
2058 686 2 4.0999999999999998e-01 -7.1372110877086063e+00 -5.8468111954032622e+00 -7.5769796844112749e+00 -3 -2 1
440 147 2 4.0999999999999998e-01 -9.2381603975512050e-01 -5.2909373003530220e+00 -1.4816266782390977e+01 2 -1 -2
2468 823 2 4.0999999999999998e-01 -5.5794706581709033e+00 -1.4217158293264239e+01 -1.4789262307426434e+01 3 0 -3
401 134 2 4.0999999999999998e-01 -5.5108760925504523e+00 -9.9999312196863634e+00 -1.4764462932277711e+01 -2 3 -1
1987 663 1 -8.1999999999999995e-01 -5.9518496096216520e+00 -1.1606924226885271e+01 -1.4858032420124946e+01 -2 -1 0
64 22 1 -8.1999999999999995e-01 -1.1360999685895317e+01 -8.4620560328404189e+00 -4.7197623527179999e+00 1 -3 9
658 220 1 -8.1999999999999995e-01 -1.2978343266808469e+01 -1.0230675778502622e+01 -6.6949338551998068e+00 -2 0 -6
66 22 2 4.0999999999999998e-01 -1.0905973605574072e+01 -7.7570860786653109e+00 -5.2638861901932046e+00 1 -3 9
833 278 2 4.0999999999999998e-01 -1.3727187377211084e+01 -1.1748161265917668e+01 -1.5527974439931107e+00 -6 1 -1
1716 572 2 4.0999999999999998e-01 -8.5867935255720127e+00 -8.3248677146913277e+00 -2.2049556530157304e+00 0 2 0
1482 494 2 4.0999999999999998e-01 -1.3623980506899038e+01 -1.4801539400713224e+01 -4.3446719158555034e+00 2 -3 0
2224 742 1 -8.1999999999999995e-01 -1.0607339353420228e+01 -9.0184122086140022e+00 -1.9748388401885233e+00 -5 1 2
1714 572 1 -8.1999999999999995e-01 -7.6075611790585569e+00 -8.2928060345524219e+00 -2.4054006415612275e+00 0 2 0
65 22 2 4.0999999999999998e-01 -1.0894025108147959e+01 -8.5577698787448533e+00 -3.8406288462017937e+00 1 -3 9
1481 494 2 4.0999999999999998e-01 -1.4443801353144659e+01 -1.3513328737775302e+01 -3.7656158891801095e+00 2 -3 0
2226 742 2 4.0999999999999998e-01 -1.0265665099175930e+01 -9.9570179108153702e+00 -2.0236256751927097e+00 -5 1 2
832 278 1 -8.1999999999999995e-01 -1.3976506026469911e+01 -1.1859545791042020e+01 -2.5148451572850288e+00 -6 1 -1
160 54 1 -8.1999999999999995e-01 -8.0032901044941518e+00 -1.4753247380959513e+01 -4.1759990634702309e+00 -1 -1 0
1655 552 2 4.0999999999999998e-01 -1.0009604263289809e+01 -1.0890576808210289e+01 -4.6429989591123935e+00 -4 1 -1
1656 552 2 4.0999999999999998e-01 -8.5916597365625265e+00 -1.0127808357956880e+01 -4.9159760126674801e+00 -4 1 -1
1654 552 1 -8.1999999999999995e-01 -9.1651124609999393e+00 -1.0561115734086837e+01 -4.2206351997238283e+00 -4 1 -1
2240 747 2 4.0999999999999998e-01 -1.3028576918040336e+01 -7.6282273694423646e+00 -4.7821960563952377e+00 0 -2 -1
1374 458 2 4.0999999999999998e-01 -1.2604860641510637e+01 -1.1703843208843182e+01 -3.6252625659344471e+00 -3 0 4
184 62 1 -8.1999999999999995e-01 -1.0101654068639725e+01 -1.1943380798070960e+01 -1.7547515984843649e+00 2 -2 -2
2225 742 2 4.0999999999999998e-01 -1.0931152189050717e+01 -8.8293242414487718e+00 -1.0477503360297753e+00 -5 1 2
922 308 1 -8.1999999999999995e-01 -1.0195280904556192e+01 -6.4852351106726971e+00 -6.1176300889938577e+00 4 3 -2
1372 458 1 -8.1999999999999995e-01 -1.1703919415151329e+01 -1.1898451099287437e+01 -4.0132507342146404e+00 -3 0 4
513 171 2 4.0999999999999998e-01 -1.3518900500520125e+01 -1.4693881389277706e+01 -1.4099533504416861e+00 0 -6 -1
186 62 2 4.0999999999999998e-01 -1.0640679085119483e+01 -1.1829853699911418e+01 -2.5894166549569881e+00 2 -2 -2
30 10 2 4.0999999999999998e-01 -1.0707794813636831e+01 -5.7660664380223601e+00 -5.3719467818908484e-01 -1 1 0
2239 747 1 -8.1999999999999995e-01 -1.4003117636000519e+01 -7.4442374651311205e+00 -4.9107271878280621e+00 0 -2 -1
2391 797 2 4.0999999999999998e-01 -1.2200871167668693e+01 -1.3551866932103183e+01 -5.9340782107045094e+00 -5 -1 2
660 220 2 4.0999999999999998e-01 -1.2352841256636836e+01 -9.6611090903818990e+00 -6.1616017459389258e+00 -2 0 -6
185 62 2 4.0999999999999998e-01 -1.0194548266829072e+01 -1.2882246157916967e+01 -1.4230821499826529e+00 2 -2 -2
1373 458 2 4.0999999999999998e-01 -1.1667149836156536e+01 -1.2853347245937730e+01 -4.3080785742333507e+00 -3 0 4
979 327 1 -8.1999999999999995e-01 -1.3860009652592936e+01 -5.4967908637513503e+00 -6.8609835969858199e+00 -4 1 5
1431 477 2 4.0999999999999998e-01 -1.4074556538508219e+01 -6.4180556118604102e+00 -6.2743081619101737e-01 -2 5 3
924 308 2 4.0999999999999998e-01 -9.5517226082000839e+00 -6.9832372248636423e+00 -6.6989464558480680e+00 4 3 -2
1163 388 2 4.0999999999999998e-01 -9.0278494264110574e+00 -5.0251226293225990e+00 -5.6393567999858281e+00 -1 0 0
1596 532 2 4.0999999999999998e-01 -8.3361332789963853e+00 -1.4534098117380644e+01 -5.6379688391773239e+00 -4 -4 -1
917 306 2 4.0999999999999998e-01 -8.7209913487007391e+00 -5.0108928639133197e+00 -1.2963160511068423e+00 0 -2 2
981 327 2 4.0999999999999998e-01 -1.3018896102167790e+01 -5.3988157828145997e+00 -7.3929901865620895e+00 -4 1 5
643 215 1 -8.1999999999999995e-01 -1.4153339834878365e+01 -8.2505332177976314e+00 -6.1159919324920864e-01 -2 0 -4
659 220 2 4.0999999999999998e-01 -1.2938853562421485e+01 -1.1172361306612848e+01 -6.3606120867796783e+00 -2 0 -6
923 308 2 4.0999999999999998e-01 -1.0875295208288078e+01 -6.0266958503198360e+00 -6.6898401929053328e+00 4 3 -2
2241 747 2 4.0999999999999998e-01 -1.4119323242082274e+01 -6.7306378662082711e+00 -5.6016497681980510e+00 0 -2 -1
2390 797 2 4.0999999999999998e-01 -1.3396451691889970e+01 -1.3920359577428213e+01 -6.9836968106456716e+00 -5 -1 2
2389 797 1 -8.1999999999999995e-01 -1.2687778400397198e+01 -1.3252897044735414e+01 -6.7548342478608348e+00 -5 -1 2
918 306 2 4.0999999999999998e-01 -7.8819481524080963e+00 -6.3348862831754769e+00 -8.3811662371078022e-01 0 -2 2
1429 477 1 -8.1999999999999995e-01 -1.4177859889992645e+01 -5.4751979908156301e+00 -9.4436944402577438e-01 -2 5 3
916 306 1 -8.1999999999999995e-01 -8.7803691424806551e+00 -5.8956544725996505e+00 -8.3395982897098442e-01 0 -2 2
1594 532 1 -8.1999999999999995e-01 -8.6787068913675434e+00 -1.4425779115349137e+01 -6.5712493065468056e+00 -4 -4 -1
2085 695 2 4.0999999999999998e-01 -9.4748585978529611e+00 -1.1630838521881673e+01 -6.8517167464785089e-02 -1 -2 2
1480 494 1 -8.1999999999999995e-01 -1.4532660108137238e+01 -1.4409985824691162e+01 -4.1994503272953345e+00 2 -3 0
1430 477 2 4.0999999999999998e-01 -1.4761666514764006e+01 -5.4584908457308998e+00 -1.7561531695749331e+00 -2 5 3
994 332 1 -8.1999999999999995e-01 -1.1591812636726301e+01 -1.4759583797710468e+01 -4.5610890460819089e+00 -3 -1 2
2119 707 1 -8.1999999999999995e-01 -7.7020423491654357e+00 -9.6228699413804346e+00 -6.3810172248431858e+00 -1 2 -2
2121 707 2 4.0999999999999998e-01 -7.6661355003354501e+00 -8.6367677172433073e+00 -6.5435448499313171e+00 -1 2 -2
1192 398 1 -8.1999999999999995e-01 -1.0675607399717748e+01 -1.4817397444441712e+01 -1.0606977118371042e+00 2 -2 5
1278 426 2 4.0999999999999998e-01 -7.9015866070813825e+00 -1.1035645965168207e+01 -2.8750879410734083e+00 -2 -3 4
511 171 1 -8.1999999999999995e-01 -1.4244611210495458e+01 -1.4729409516853678e+01 -7.2279701302829302e-01 0 -6 -1
644 215 2 4.0999999999999998e-01 -1.3722406338118015e+01 -8.9957358444873634e+00 -1.1205898290328946e+00 -2 0 -4
1194 398 2 4.0999999999999998e-01 -1.0255332270258968e+01 -1.4882891444647917e+01 -1.5561127329535474e-01 2 -2 5
1715 572 2 4.0999999999999998e-01 -7.1631103610753719e+00 -9.1048522463075567e+00 -2.0270535474449165e+00 0 2 0
1612 538 1 -8.1999999999999995e-01 -3.0011607177895954e+00 -5.8354905190730761e+00 -3.5279831014047858e-02 6 4 -5
429 143 2 4.0999999999999998e-01 -3.3804874766516217e+00 -1.3983758313423674e+01 -6.5546155721559192e+00 2 3 5
1141 381 1 -8.1999999999999995e-01 -5.8863199110540414e+00 -1.4373009893418660e+01 -2.2953238357879897e+00 -4 -5 -3
1614 538 2 4.0999999999999998e-01 -3.5251788582269814e+00 -5.5167401972150554e+00 -8.2515662516624211e-01 6 4 -5
370 124 1 -8.1999999999999995e-01 -6.3734876140315624e+00 -6.9551468858411551e+00 -1.2400355548739306e-01 4 -4 -1
1142 381 2 4.0999999999999998e-01 -6.5213440640023830e+00 -1.4826312284190834e+01 -1.6697334014415208e+00 -4 -5 -3
2419 807 1 -8.1999999999999995e-01 -8.6555391088692701e-01 -9.4352281089518222e+00 -6.2081488003133440e+00 -1 -1 3
2120 707 2 4.0999999999999998e-01 -7.1339580902571988e+00 -1.0092948797919117e+01 -7.0565971834264332e+00 -1 2 -2
2421 807 2 4.0999999999999998e-01 -5.6262249500256800e-01 -9.8194905829375028e+00 -5.3359807705826121e+00 -1 -1 3
1494 498 2 4.0999999999999998e-01 -1.2632538651019996e+00 -1.0863958369645086e+01 -8.9924808135927847e-02 4 1 4
1143 381 2 4.0999999999999998e-01 -6.0438163302926782e+00 -1.3385699123943143e+01 -2.2726428244890045e+00 -4 -5 -3
428 143 2 4.0999999999999998e-01 -2.8109898218148537e+00 -1.3490726159565231e+01 -5.1056537120192065e+00 2 3 5
1493 498 2 4.0999999999999998e-01 -1.0710660500921492e+00 -9.3858004263824899e+00 -7.5701680263441062e-01 4 1 4
2342 781 2 4.0999999999999998e-01 -6.9198447650925266e+00 -1.1834408550955688e+01 -8.2315372207576942e-01 0 1 -1
1016 339 2 4.0999999999999998e-01 -7.0479368173523049e-01 -1.0615782036317437e+01 -2.7523262305460907e+00 -2 -1 -1
357 119 2 4.0999999999999998e-01 -2.8664795616735361e+00 -1.3816878021144303e+01 -1.9713403226557276e+00 2 -1 -2
364 122 1 -8.1999999999999995e-01 -1.4882401161549694e+00 -7.9140142213648126e+00 -1.2398702235736714e+00 4 2 0
2566 856 1 -8.1999999999999995e-01 -1.3400469483309649e+00 -1.2953227065083388e+01 -4.6015289055811088e+00 -2 3 3
2420 807 2 4.0999999999999998e-01 -1.8333992477730146e+00 -9.1911097303493463e+00 -6.1466365083355914e+00 -1 -1 3
365 122 2 4.0999999999999998e-01 -1.8584069105282417e+00 -8.0144146536323841e+00 -2.1634493614838775e+00 4 2 0
2480 827 2 4.0999999999999998e-01 -9.2473363545704501e-01 -5.6717507510372140e+00 -5.4245417821253206e+00 0 -2 0
1492 498 1 -8.1999999999999995e-01 -7.8543031860743895e-01 -1.0343334341792399e+01 -7.9755283258452536e-01 4 1 4
427 143 1 -8.1999999999999995e-01 -3.6192942843241536e+00 -1.3812708053943794e+01 -5.5986787406250542e+00 2 3 5
225 75 2 4.0999999999999998e-01 -4.0423413213567407e+00 -8.9893803002755064e+00 -1.0653232321447526e-01 2 8 4
2567 856 2 4.0999999999999998e-01 -1.3040680597727352e+00 -1.2013856987439272e+01 -4.9426908910970866e+00 -2 3 3
1437 479 2 4.0999999999999998e-01 -5.3062545424721357e+00 -5.4172173494845097e+00 -2.5984228522530408e+00 -5 -3 1
2568 856 2 4.0999999999999998e-01 -1.6081739276836782e+00 -1.2947922853953932e+01 -3.6381069131692261e+00 -2 3 3
1808 603 2 4.0999999999999998e-01 -6.0518122217299677e+00 -7.4396043275868111e+00 -6.4393957095793812e+00 1 -2 3
356 119 2 4.0999999999999998e-01 -1.3742700432775372e+00 -1.3184704493530941e+01 -1.7699298648258406e+00 2 -1 -2
2368 790 1 -8.1999999999999995e-01 -2.9729544451466268e+00 -8.3001873005560967e+00 -3.8183527948553646e+00 1 4 1
1187 396 2 4.0999999999999998e-01 -3.7994879740997973e+00 -1.0020016236373808e+01 -7.0684785287703500e+00 -1 1 -1
223 75 1 -8.1999999999999995e-01 -4.6740388067700351e+00 -9.4404957245194545e+00 -7.3705216727361211e-01 2 8 4
317 106 2 4.0999999999999998e-01 -7.1458619825608833e+00 -6.7694275924541003e+00 -2.9880370673859407e+00 1 -2 3
1882 628 1 -8.1999999999999995e-01 -3.5974888463836496e+00 -1.0848360183628149e+01 -2.8342626557841015e+00 -1 -6 1
2370 790 2 4.0999999999999998e-01 -2.9596081206607856e+00 -9.2091585873862254e+00 -3.4015852105473208e+00 1 4 1
316 106 1 -8.1999999999999995e-01 -6.7088388884929806e+00 -6.0002694530785252e+00 -3.4544153478998112e+00 1 -2 3
2584 862 1 -8.1999999999999995e-01 -5.2953987558230686e+00 -1.1767779926344343e+01 -5.0186316776755682e+00 -3 -1 1
1884 628 2 4.0999999999999998e-01 -4.2016618548401219e+00 -1.1140564929722347e+01 -3.5756758186099358e+00 -1 -6 1
1809 603 2 4.0999999999999998e-01 -5.9463847273269188e+00 -7.1078610140531540e+00 -4.8438612357272728e+00 1 -2 3
1807 603 1 -8.1999999999999995e-01 -5.4304558504529759e+00 -7.3723827927305727e+00 -5.6586911305024437e+00 1 -2 3
2586 862 2 4.0999999999999998e-01 -5.8942526778176578e+00 -1.1407714135118166e+01 -5.7340537341307556e+00 -3 -1 1
1188 396 2 4.0999999999999998e-01 -4.1323546357615353e+00 -8.5544825377499922e+00 -6.4294874973171154e+00 -1 1 -1
1277 426 2 4.0999999999999998e-01 -6.3443505383885075e+00 -1.1133946094228842e+01 -3.3570129246187719e+00 -2 -3 4
2585 862 2 4.0999999999999998e-01 -4.8464345343119302e+00 -1.2598941221346697e+01 -5.3468148162539837e+00 -3 -1 1
2369 790 2 4.0999999999999998e-01 -3.0988522964235763e+00 -8.3883845772229684e+00 -4.8065193254417000e+00 1 4 1
224 75 2 4.0999999999999998e-01 -4.1539164702965383e+00 -9.9163673464972195e+00 -1.4463624700178190e+00 2 8 4
248 83 2 4.0999999999999998e-01 -2.8292010684705282e+00 -6.4473315011876853e+00 -4.0932761036007026e+00 1 0 0
355 119 1 -8.1999999999999995e-01 -2.2978059118041294e+00 -1.3005915084498660e+01 -2.1093675991888912e+00 2 -1 -2
366 122 2 4.0999999999999998e-01 -1.8942131359892418e+00 -7.1109626072294096e+00 -8.0352617228369105e-01 4 2 0
372 124 2 4.0999999999999998e-01 -5.7887015602552943e+00 -7.6979774250459165e+00 -4.5008662517996356e-01 4 -4 -1
318 106 2 4.0999999999999998e-01 -7.3171725880111600e+00 -5.6544342073016551e+00 -4.1688593245804135e+00 1 -2 3
247 83 1 -8.1999999999999995e-01 -2.8074790749153813e+00 -5.7844395941086120e+00 -4.8417442720314998e+00 1 0 0
1883 628 2 4.0999999999999998e-01 -3.1377375506568317e+00 -1.1646486770267682e+01 -2.4447439251206937e+00 -1 -6 1
1276 426 1 -8.1999999999999995e-01 -6.9873847883802327e+00 -1.1353262014653899e+01 -2.6231807889467991e+00 -2 -3 4
249 83 2 4.0999999999999998e-01 -3.4628120069115926e+00 -6.0560040825636836e+00 -5.5466510684622889e+00 1 0 0
1186 396 1 -8.1999999999999995e-01 -3.4775619811926717e+00 -9.3102581556713293e+00 -6.4418133645214617e+00 -1 1 -1
162 54 2 4.0999999999999998e-01 -7.3194096792827246e+00 -1.4559068741407215e+01 -3.4726467941689254e+00 -1 -1 0
1015 339 1 -8.1999999999999995e-01 -3.6870355781224262e-01 -1.0381119288096933e+01 -3.6645098537532448e+00 -2 -1 -1
1485 495 2 4.0999999999999998e-01 -6.1917565389636664e-02 -5.6073633016126223e+00 -7.4144480105328840e+00 -2 6 -3
2376 792 2 4.0999999999999998e-01 -1.3312634579355391e+01 -7.6492134891256951e+00 4.1391368999026596e+00 2 3 1
12 4 2 4.0999999999999998e-01 -1.4200994358132855e+01 -1.2407980759753478e+01 1.4406665452821166e+00 4 3 -4
2374 792 1 -8.1999999999999995e-01 -1.3444225194068260e+01 -6.6665732362084924e+00 4.2703016101347551e+00 2 3 1
263 88 2 4.0999999999999998e-01 -9.4451827506131352e+00 -1.4626461976591576e+01 5.4957065686196955e+00 -1 2 1
277 93 1 -8.1999999999999995e-01 -1.3464136386854765e+01 -9.4192577536455016e+00 4.9321873315754239e+00 0 1 -4
630 210 2 4.0999999999999998e-01 -1.2852101062388261e+01 -1.2596083158477779e+01 2.7574718524852884e+00 1 -3 -3
1202 401 2 4.0999999999999998e-01 -1.0051709416457200e+01 -8.2128251482591281e+00 1.3039756324245388e+00 2 1 1
840 280 2 4.0999999999999998e-01 -9.3789807012253945e+00 -7.5643399652614534e+00 6.4803130328415897e+00 -3 2 1
629 210 2 4.0999999999999998e-01 -1.1717072299815015e+01 -1.1474151396782446e+01 3.1037053176067637e+00 1 -3 -3
2214 738 2 4.0999999999999998e-01 -1.0886619806967818e+01 -1.0404536897267361e+01 6.0482451903779477e+00 -1 -1 5
666 222 2 4.0999999999999998e-01 -1.0739229671105683e+01 -9.6067261144156735e+00 2.1836457569975174e+00 3 -3 0
839 280 2 4.0999999999999998e-01 -9.8215547963217738e+00 -8.9250359615474402e+00 7.2674174819542827e+00 -3 2 1
2375 792 2 4.0999999999999998e-01 -1.4101701575880613e+01 -6.3256797965688367e+00 3.5982758484732997e+00 2 3 1
2533 845 1 -8.1999999999999995e-01 -1.3562173859087256e+01 -1.4161316013631904e+01 2.1530225585485141e+00 -2 -8 0
2212 738 1 -8.1999999999999995e-01 -9.9601462226655428e+00 -1.0370934673399848e+01 5.6732522548499418e+00 -1 -1 5
2213 738 2 4.0999999999999998e-01 -1.0005646088203960e+01 -1.0339170860608665e+01 4.6747418715466438e+00 -1 -1 5
665 222 2 4.0999999999999998e-01 -9.5854404466535570e+00 -1.0750829140162374e+01 2.3470393404112819e+00 3 -3 0
2083 695 1 -8.1999999999999995e-01 -9.1896932845854096e+00 -1.1736583994688347e+01 8.8416365722938473e-01 -1 -2 2
664 222 1 -8.1999999999999995e-01 -1.0305772181849180e+01 -1.0244101779847266e+01 2.8208027147228414e+00 3 -3 0
278 93 2 4.0999999999999998e-01 -1.3050110951021013e+01 -1.0271168969448539e+01 5.2530180323754081e+00 0 1 -4
2026 676 1 -8.1999999999999995e-01 -8.4655485787545679e+00 -7.7280581286412140e+00 1.6345565438954779e+00 2 -1 1
645 215 2 4.0999999999999998e-01 -1.4005554140231125e+01 -8.3868584646420441e+00 3.6803181930672935e-01 -2 0 -4
514 172 1 -8.1999999999999995e-01 -8.6682125561403467e+00 -1.2435522047957894e+01 6.6850371094622716e+00 -4 3 1
2028 676 2 4.0999999999999998e-01 -7.8404647044853482e+00 -8.3875587876687536e+00 2.0522061336377853e+00 2 -1 1
2569 857 1 -8.1999999999999995e-01 -1.2515593649345643e+01 -1.1431898378704222e+01 6.4405859156650678e+00 0 3 -3
2027 676 2 4.0999999999999998e-01 -8.0066659795937163e+00 -7.2697442675726096e+00 8.7332247839387200e-01 2 -1 1
815 272 2 4.0999999999999998e-01 -1.1881874105918087e+01 -5.7560012046864113e+00 3.3647049806570486e+00 -2 1 -5
628 210 1 -8.1999999999999995e-01 -1.2439115477335134e+01 -1.2050404487537811e+01 3.4867041921567825e+00 1 -3 -3
2084 695 2 4.0999999999999998e-01 -8.1914636667848200e+00 -1.1774543584371024e+01 9.3105528085382616e-01 -1 -2 2
758 253 2 4.0999999999999998e-01 -1.3027104768040118e+01 -1.3894400771095611e+01 4.4192871851589715e+00 1 -9 0
757 253 1 -8.1999999999999995e-01 -1.3649173068214152e+01 -1.4126272088251467e+01 5.1671968366408265e+00 1 -9 0
11 4 2 4.0999999999999998e-01 -1.4071025484330900e+01 -1.0781799928300467e+01 1.3662166105975295e+00 4 3 -4
10 4 1 -8.1999999999999995e-01 -1.4190459777668659e+01 -1.1616835623190902e+01 8.2904533941046310e-01 4 3 -4
613 205 1 -8.1999999999999995e-01 -1.4405781298296125e+01 -9.4238429890436635e+00 2.2879368010187449e+00 6 0 5
1526 509 2 4.0999999999999998e-01 -7.9409616026757144e+00 -9.8225124128160566e+00 5.8380615219423930e+00 -3 -1 3
896 299 2 4.0999999999999998e-01 -8.1137211200643673e+00 -6.7653215582543211e+00 4.9622566129857617e+00 -3 0 -2