LAMMPS data file via write_data, version 15 May 2015, timestep = 1009000

2593 atoms
6 atom types
1728 bonds
4 bond types
864 angles
3 angle types
0 dihedrals
3 dihedral types
0 impropers
1 improper types

-1.4964400526110799e+01 1.4964400526110799e+01 xlo xhi
-1.4964400526110799e+01 1.4964400526110799e+01 ylo yhi
-1.4964400526110799e+01 1.4964400526110799e+01 zlo zhi

Masses

1 15.9994
2 1.00794
3 12.0107
4 1.00794
5 12.0107
6 12.0107

Bond Coeffs # harmonic

1 1000 1
2 469 1.4
3 367 1.08
4 469 0.7

Angle Coeffs # harmonic

1 100 109.47
2 35 120
3 63 120

Dihedral Coeffs # opls

1 0 7.25 0 0
2 0 7.25 0 0
3 0 7.25 0 0

Improper Coeffs # cvff

1 2.5 -1 2

Atoms # full

18 6 2 4.0999999999999998e-01 -8.5214508225456527e+00 -1.2878510638542846e+01 -1.0005378580630229e+01 -1 1 2
2044 682 1 -8.1999999999999995e-01 -1.2344782984569651e+01 -9.6414616727309408e+00 -1.0380889103150228e+01 0 0 -2
2045 682 2 4.0999999999999998e-01 -1.3198321280188985e+01 -9.4752047397854362e+00 -1.0874685617668614e+01 0 0 -2
2046 682 2 4.0999999999999998e-01 -1.1878303911907155e+01 -8.7717944572813487e+00 -1.0219395421202218e+01 0 0 -2
2210 737 2 4.0999999999999998e-01 -1.0764668084834266e+01 -1.3591067030419302e+01 -1.1663290594442437e+01 1 2 -1
496 166 1 -8.1999999999999995e-01 -6.1252797785338995e+00 -1.4133734361662086e+01 -1.3441700295778119e+01 1 1 0
2585 862 2 4.0999999999999998e-01 -6.6646483804673746e+00 -1.0652188694471516e+01 -1.2937740536483982e+01 0 1 1
671 224 2 4.0999999999999998e-01 -5.6763534564757236e+00 -2.8202349403609794e-01 -1.3970303714544777e+01 0 3 0
2584 862 1 -8.1999999999999995e-01 -6.7000921760453451e+00 -1.1518056830327769e+01 -1.2438721395385002e+01 0 1 1
2586 862 2 4.0999999999999998e-01 -5.7840323708989292e+00 -1.1753318054874324e+01 -1.2113928237925332e+01 0 1 1
1615 539 1 -8.1999999999999995e-01 -9.3519855283911841e+00 -3.7094733661548691e+00 -1.4770524354708007e+01 1 2 2
1533 511 2 4.0999999999999998e-01 -9.5899435348853181e+00 -1.1278398724169355e+01 -1.4414978235203732e+01 1 2 -1
2209 737 1 -8.1999999999999995e-01 -1.0146904026246204e+01 -1.3790865266593366e+01 -1.0902730094705504e+01 1 2 -1
1531 511 1 -8.1999999999999995e-01 -8.7832291715805972e+00 -1.0690047864499750e+01 -1.4470288786224490e+01 1 2 -1
1532 511 2 4.0999999999999998e-01 -8.8526545804096592e+00 -9.9640154713707663e+00 -1.3786138835005032e+01 1 2 -1
2033 678 2 4.0999999999999998e-01 -5.5124028041302182e+00 -5.0143646015280030e+00 -1.4521286996196780e+01 1 0 1
16 6 1 -8.1999999999999995e-01 -7.6095271127807820e+00 -1.2503056582083058e+01 -9.8397481968628906e+00 -1 1 2
17 6 2 4.0999999999999998e-01 -7.2012911926451428e+00 -1.2223476843028362e+01 -1.0708760707493765e+01 -1 1 2
1192 398 1 -8.1999999999999995e-01 -1.4045651456798293e+01 -1.2516083856967626e+01 -8.4617265787401443e+00 1 1 1
2207 736 2 4.0999999999999998e-01 -7.5187333384545187e+00 -1.2213295345604845e+01 -8.1957071894100544e+00 0 2 0
1203 401 2 4.0999999999999998e-01 -1.2877636408234448e+01 -1.1480934857846174e+01 -1.4692375964213547e+01 3 1 0
840 280 2 4.0999999999999998e-01 -7.9542673501891770e+00 -4.5494165481398241e+00 -1.4751027970120150e+01 -2 4 0
1061 354 2 4.0999999999999998e-01 -1.1208338519877577e+01 -1.3027182174975053e+01 -1.3594057129923529e+01 0 2 0
1278 426 2 4.0999999999999998e-01 -1.1518464145252647e+01 -1.0759928921952024e+01 -7.9686323319566448e+00 -1 0 0
423 141 2 4.0999999999999998e-01 -1.1327214687450104e+01 -1.1170117369416786e+01 -9.7858109029327061e+00 0 1 2
391 131 1 -8.1999999999999995e-01 -1.3222111258377312e+01 -3.9021056394861393e+00 -1.4918855165193426e+01 1 1 1
150 50 2 4.0999999999999998e-01 -6.1489029495453398e+00 -9.1480535659963422e+00 -8.9157546537978014e+00 0 2 0
1575 525 2 4.0999999999999998e-01 -7.8800882630164262e+00 -4.6864281088491602e+00 -7.9937445160380394e+00 -1 -1 1
2452 818 1 -8.1999999999999995e-01 -9.7362426881208890e+00 -8.6106975746380972e+00 -1.2712118258730690e+01 -2 0 0
148 50 1 -8.1999999999999995e-01 -5.4491639933840048e+00 -8.9850646691392448e+00 -9.6113148517493325e+00 0 2 0
149 50 2 4.0999999999999998e-01 -5.7837285939995695e+00 -9.2976457453377073e+00 -1.0500338847914678e+01 0 2 0
1206 402 2 4.0999999999999998e-01 -1.4766129444952160e+01 -7.4138119934330033e+00 -8.4634868141043214e+00 0 0 1
2147 716 2 4.0999999999999998e-01 -1.0923001511306300e+01 -7.1831208171101082e+00 -8.9324027729393869e+00 3 2 -1
2081 694 2 4.0999999999999998e-01 -8.1332166348091270e+00 -8.5610429380834425e+00 -1.2629066813006670e+01 -1 2 2
2080 694 1 -8.1999999999999995e-01 -7.1761631918025763e+00 -8.3177879628582794e+00 -1.2786799918640195e+01 -1 2 2
497 166 2 4.0999999999999998e-01 -6.5011406547120103e+00 -1.4654904132292474e+01 -1.4207934392741153e+01 1 1 0
1894 632 1 -8.1999999999999995e-01 -1.1474469743494689e+01 -1.4471362576167472e+01 -7.7891628789771241e+00 0 2 1
1555 519 1 -8.1999999999999995e-01 -1.0506030297053437e+01 -5.0524986085378032e-02 -1.4302208062699037e+01 1 1 1
498 166 2 4.0999999999999998e-01 -6.5842869094176315e+00 -1.3247137845548243e+01 -1.3384576647176447e+01 1 1 0
421 141 1 -8.1999999999999995e-01 -1.1378808935257917e+01 -1.2009628555502074e+01 -9.2449199753631408e+00 0 1 2
914 305 2 4.0999999999999998e-01 -1.2685774207392344e+01 -1.4771542193212797e+01 -1.3170867759866741e+01 -2 0 1
2538 846 2 4.0999999999999998e-01 -1.3255829830514035e+01 -7.2513289072512235e+00 -1.4012054452720522e+01 2 1 0
347 116 2 4.0999999999999998e-01 -7.9276419104097746e+00 -7.8560196385669530e+00 -1.4443791049404094e+01 0 0 1
1060 354 1 -8.1999999999999995e-01 -1.1024126080633907e+01 -1.2262280934545890e+01 -1.4211305796604377e+01 0 2 0
1193 398 2 4.0999999999999998e-01 -1.4447456980733561e+01 -1.1819618053568565e+01 -7.8671748550125749e+00 1 1 1
913 305 1 -8.1999999999999995e-01 -1.2363569985578005e+01 -1.4200003678556987e+01 -1.2416194190764120e+01 -2 0 1
1194 398 2 4.0999999999999998e-01 -1.3215140334796137e+01 -1.2154115028985668e+01 -8.8850867511494442e+00 1 1 1
1048 350 1 -8.1999999999999995e-01 -1.4470750568438172e+01 -9.1041245610567323e-01 -1.3041820364491223e+01 0 2 1
422 141 2 4.0999999999999998e-01 -1.1040879172866244e+01 -1.2777799113527330e+01 -9.7887227660106753e+00 0 1 2
915 305 2 4.0999999999999998e-01 -1.3140213918731558e+01 -1.3724370984702546e+01 -1.2003154561216750e+01 -2 0 1
838 280 1 -8.1999999999999995e-01 -7.0913137556928154e+00 -5.0170950534332146e+00 -1.4942318115826199e+01 -2 4 0
864 288 2 4.0999999999999998e-01 -1.3446944476615741e+01 -2.0271994843460703e+00 -9.4497573330347642e+00 1 1 1
1485 495 2 4.0999999999999998e-01 -1.2893032410796007e+01 -6.2398413643841213e+00 -7.7039313050462326e+00 0 1 1
1519 507 1 -8.1999999999999995e-01 -1.0559167967811778e+01 -6.3565098274689138e+00 -1.4240856818691528e+01 1 1 1
1753 585 1 -8.1999999999999995e-01 -1.3497694931219600e+01 -3.2762112431633774e+00 -1.1918990653147087e+01 2 -2 3
2454 818 2 4.0999999999999998e-01 -1.0428593516734175e+01 -8.8016799915382844e+00 -1.2016287683469500e+01 -2 0 0
679 227 1 -8.1999999999999995e-01 -1.1763472318495840e+01 -2.2211067572320964e+00 -1.0161296262800853e+01 1 1 0
2082 694 2 4.0999999999999998e-01 -6.9784271948285177e+00 -7.4411265581878245e+00 -1.2348200721865584e+01 -1 2 2
2146 716 1 -8.1999999999999995e-01 -1.0938738025213429e+01 -7.3714611594714166e+00 -9.9143825548775943e+00 3 2 -1
2453 818 2 4.0999999999999998e-01 -9.9805998006015333e+00 -7.7756638827809299e+00 -1.3205081094964855e+01 -2 0 0
1741 581 1 -8.1999999999999995e-01 -9.2759244021654279e+00 -3.2319485403704196e+00 -1.0100598425109228e+01 1 0 0
2339 780 2 4.0999999999999998e-01 -8.7285107692666060e+00 -5.3849412045599294e+00 -1.1701332188757407e+01 1 3 0
899 300 2 4.0999999999999998e-01 -6.2177706343976844e+00 -4.8644856248523851e+00 -1.1615359905718188e+01 0 0 1
2419 807 1 -8.1999999999999995e-01 -1.4758253772788237e+01 -1.3449915564227215e+01 -1.0914922560027042e+01 3 1 2
1395 465 2 4.0999999999999998e-01 -5.4102509484993764e+00 -3.2587836051997598e-01 -9.8409523881541681e+00 2 1 1
2420 807 2 4.0999999999999998e-01 -1.4676139615189788e+01 -1.3336826635609441e+01 -9.9247346017019495e+00 3 1 2
1557 519 2 4.0999999999999998e-01 -1.0040327840217376e+01 -7.6595218634306583e-01 -1.3781353799056051e+01 1 1 1
2536 846 1 -8.1999999999999995e-01 -1.3934369565882061e+01 -6.6299380747057253e+00 -1.3620313161358609e+01 2 1 0
1398 466 2 4.0999999999999998e-01 -1.4174133832779862e+01 -4.9357050075858560e+00 -1.1210932194602455e+01 2 2 1
2537 846 2 4.0999999999999998e-01 -1.3882508744062187e+01 -6.6660740110767129e+00 -1.2622310758373301e+01 2 1 0
1484 495 2 4.0999999999999998e-01 -1.4085853538269681e+01 -5.1429869348980848e+00 -7.9057363041120388e+00 0 1 1
1483 495 1 -8.1999999999999995e-01 -1.3740806516687734e+01 -6.0363131483028631e+00 -8.1936856701792173e+00 0 1 1
393 131 2 4.0999999999999998e-01 -1.3659511755105086e+01 -4.6369742559758969e+00 -1.4400537759898391e+01 1 1 1
276 92 2 4.0999999999999998e-01 -1.4662846690382322e+01 -3.0206052209833931e+00 -7.9502507935181068e+00 0 1 0
1896 632 2 4.0999999999999998e-01 -1.1605966262540207e+01 -1.3630037677069796e+01 -8.3134577896433584e+00 0 2 1
308 103 2 4.0999999999999998e-01 -5.7281819436880639e+00 -2.3792196279360045e+00 -1.2186551803573074e+01 0 -2 1
2148 716 2 4.0999999999999998e-01 -1.0497800867585724e+01 -6.6198984458008994e+00 -1.0405026982214697e+01 3 2 -1
863 288 2 4.0999999999999998e-01 -1.4440690555384005e+01 -8.5620492750218347e-01 -8.8948899036905242e+00 1 1 1
1356 452 2 4.0999999999999998e-01 -7.2118125209466903e+00 -1.3549193265495241e-01 -8.1463851827384630e+00 0 3 1
309 103 2 4.0999999999999998e-01 -5.5023180903471616e+00 -2.1354393525633562e+00 -1.3785362000893187e+01 0 -2 1
307 103 1 -8.1999999999999995e-01 -5.9745346834644710e+00 -1.8057416055733153e+00 -1.2967856697594740e+01 0 -2 1
2573 858 2 4.0999999999999998e-01 -7.7234231845015628e+00 -1.8652260983587112e+00 -1.2614847702062480e+01 0 2 0
1573 525 1 -8.1999999999999995e-01 -7.2843045598146530e+00 -3.9570832880047586e+00 -8.3300508585977084e+00 -1 -1 1
680 227 2 4.0999999999999998e-01 -1.0831743487211865e+01 -2.4918557498365601e+00 -9.9192624308485087e+00 1 1 0
681 227 2 4.0999999999999998e-01 -1.1757245845202915e+01 -1.2864909142167082e+00 -1.0516906277738865e+01 1 1 0
2437 813 1 -8.1999999999999995e-01 -4.9909513131946159e+00 -3.6924719543066971e+00 -1.1127106748176949e+01 2 1 0
1742 581 2 4.0999999999999998e-01 -8.6309258757177183e+00 -3.5045509881963604e+00 -9.3866874278273862e+00 1 0 0
862 288 1 -8.1999999999999995e-01 -1.4340502739036195e+01 -1.8403064165036955e+00 -9.0415556222071558e+00 1 1 1
1754 585 2 4.0999999999999998e-01 -1.2874497330725426e+01 -2.9828426749995103e+00 -1.1194032974967257e+01 2 -2 3
1521 507 2 4.0999999999999998e-01 -1.0383690525389223e+01 -5.4289782558143624e+00 -1.4570852018374762e+01 1 1 1
1755 585 2 4.0999999999999998e-01 -1.4045497679521016e+01 -2.4968795320025627e+00 -1.2223224461050219e+01 2 -2 3
1477 493 1 -8.1999999999999995e-01 -5.7116852391618469e+00 -1.2530559509792063e+00 -8.3921933446346912e+00 1 -2 2
1574 525 2 4.0999999999999998e-01 -6.3971690348936985e+00 -4.3420979440226333e+00 -8.5845273830325812e+00 -1 -1 1
2211 737 2 4.0999999999999998e-01 -9.6626072593464869e+00 -1.4647046902984004e+01 -1.1082768457054774e+01 1 2 -1
900 300 2 4.0999999999999998e-01 -7.0432507525050658e+00 -5.0481074343554813e+00 -1.3012321858326082e+01 0 0 1
1397 466 2 4.0999999999999998e-01 -1.3967426738414391e+01 -5.8905943963974572e+00 -9.9024615111224747e+00 2 2 1
2572 858 1 -8.1999999999999995e-01 -8.7032554158007436e+00 -2.0597733004314467e+00 -1.2569194988368810e+01 0 2 0
1396 466 1 -8.1999999999999995e-01 -1.4172595491274681e+01 -5.8797559749402879e+00 -1.0881130145078975e+01 2 2 1
1478 493 2 4.0999999999999998e-01 -6.3767666939489303e+00 -1.9863644150030293e+00 -8.5333647227742127e+00 1 -2 2
1743 581 2 4.0999999999999998e-01 -9.6091014242940602e+00 -4.0455306123535202e+00 -1.0577128977887632e+01 1 0 0
898 300 1 -8.1999999999999995e-01 -6.8279139079430067e+00 -5.4667988596152295e+00 -1.2130090864023344e+01 0 0 1
2340 780 2 4.0999999999999998e-01 -1.0164611273543521e+01 -5.6003593325173142e+00 -1.2448224062834718e+01 1 3 0
2574 858 2 4.0999999999999998e-01 -8.9483274526711334e+00 -2.3195725189618663e+00 -1.1635145677260603e+01 0 2 0
2338 780 1 -8.1999999999999995e-01 -9.7207905503419454e+00 -5.3890927537541646e+00 -1.1577366106478751e+01 1 3 0
1616 539 2 4.0999999999999998e-01 -9.2282020204441721e+00 -3.0283028245515133e+00 -1.4048936980555530e+01 1 2 2
392 131 2 4.0999999999999998e-01 -1.2599589605927488e+01 -3.3972762455889214e+00 -1.4320843337087963e+01 1 1 1
1587 529 2 4.0999999999999998e-01 -1.4413259643887129e+01 -1.4412603811449401e+01 -1.4761953071841303e+01 1 2 0
1049 350 2 4.0999999999999998e-01 -1.4888585759528290e+01 -7.6301887525460188e-01 -1.3938309572301851e+01 0 2 1
1050 350 2 4.0999999999999998e-01 -1.4002563027344282e+01 -7.5994134053162909e-02 -1.2751044708698732e+01 0 2 1
1585 529 1 -8.1999999999999995e-01 -1.3440534848300407e+01 -1.4533226178169878e+01 -1.4960096202501754e+01 1 2 0
2252 751 2 4.0999999999999998e-01 -7.0604058108619405e+00 -1.0494082425609200e+01 -1.4887685132967965e+01 1 1 3
2343 781 2 4.0999999999999998e-01 -1.2791831454490808e+01 -8.2220637600159421e+00 -4.6802343400283650e+00 1 1 -1
2341 781 1 -8.1999999999999995e-01 -1.2204250227507139e+01 -8.9910395889329244e+00 -4.9320844689486378e+00 1 1 -1
1105 369 1 -8.1999999999999995e-01 -7.1993185346600939e+00 -1.1394519758930509e+01 -3.4220028649813692e+00 -1 1 -1
1718 573 2 4.0999999999999998e-01 -1.1206937062767899e+01 -9.6786529533497401e+00 -1.6367983535131376e+00 0 2 3
1107 369 2 4.0999999999999998e-01 -7.8380766727228943e+00 -1.1879351167525394e+01 -2.8245661943275078e+00 -1 1 -1
1106 369 2 4.0999999999999998e-01 -7.6166266840108445e+00 -1.0540690004420242e+01 -3.7331823972070772e+00 -1 1 -1
1719 573 2 4.0999999999999998e-01 -1.1594459833677556e+01 -1.1264989204670218e+01 -1.6360896687216453e+00 0 2 3
1717 573 1 -8.1999999999999995e-01 -1.0860864174868349e+01 -1.0603766011301822e+01 -1.7930144551814280e+00 0 2 3
1696 566 1 -8.1999999999999995e-01 -1.1140021604211906e+01 -1.2833408581375448e+01 -5.2558810145764170e+00 0 2 1
799 267 1 -8.1999999999999995e-01 -6.1343635645967058e+00 -1.2114170512859474e+01 -2.8905909392967288e-01 -1 1 -1
262 88 1 -8.1999999999999995e-01 -1.4497259369438236e+01 -1.0243493670232802e+00 -5.0673163945614164e-02 1 3 -1
1334 445 2 4.0999999999999998e-01 -8.3439806528157732e+00 -1.1267490081952324e+01 -6.1556322618055361e+00 0 0 -1
245 82 2 4.0999999999999998e-01 -9.4649170825015965e+00 -1.1729192928821325e+01 -1.6012436024260701e+00 0 1 0
2443 815 1 -8.1999999999999995e-01 -5.4724623138058774e+00 -1.3089862252334465e+01 -4.7388662271883124e+00 0 2 2
2444 815 2 4.0999999999999998e-01 -6.3270429526830316e+00 -1.2759695453356951e+01 -4.3380098628254053e+00 0 2 2
1844 615 2 4.0999999999999998e-01 -1.0046580817488099e+01 -1.9394769344565432e-01 -1.3044126596382597e+00 1 0 1
1333 445 1 -8.1999999999999995e-01 -9.1618155461394188e+00 -1.0952722185641694e+01 -5.6738945414969510e+00 0 0 -1
244 82 1 -8.1999999999999995e-01 -8.7378433746883495e+00 -1.2413301580552446e+01 -1.5432500090325814e+00 0 1 0
1554 518 2 4.0999999999999998e-01 -1.2668041315298229e+01 -1.2001999546294702e+01 -4.6087852011067856e+00 1 1 0
273 91 2 4.0999999999999998e-01 -6.0087320436164813e+00 -1.0382217567709912e+01 -2.3841991618949514e+00 -1 0 2
271 91 1 -8.1999999999999995e-01 -5.4489863731821000e+00 -9.9216501628786240e+00 -1.6953113308182015e+00 -1 0 2
2342 781 2 4.0999999999999998e-01 -1.1721198759020901e+01 -8.7772948067689747e+00 -5.7811890888711428e+00 1 1 -1
1982 661 2 4.0999999999999998e-01 -9.7512771808824787e+00 -9.1741991688211080e+00 -2.9456515018730158e+00 1 2 0
1981 661 1 -8.1999999999999995e-01 -9.1146678476651282e+00 -9.1173390341074221e+00 -3.7147415344712229e+00 1 2 0
1983 661 2 4.0999999999999998e-01 -9.2289245615039963e+00 -9.9186733971373400e+00 -4.3019490397883207e+00 1 2 0
1335 445 2 4.0999999999999998e-01 -9.7578587485194284e+00 -1.1732923425103913e+01 -5.4840984555911128e+00 0 0 -1
1698 566 2 4.0999999999999998e-01 -1.0842886972331586e+01 -1.3094439785102708e+01 -4.3374161153344684e+00 0 2 1
1552 518 1 -8.1999999999999995e-01 -1.3224150484481152e+01 -1.1231260424267173e+01 -4.2978064588699496e+00 1 1 0
1697 566 2 4.0999999999999998e-01 -1.1171722193198555e+01 -1.3645037224421033e+01 -5.8391974315967090e+00 0 2 1
66 22 2 4.0999999999999998e-01 -8.8478003462221615e+00 -7.3500876533119763e+00 -4.0023622004761936e+00 1 2 0
2532 844 2 4.0999999999999998e-01 -1.3139203237182564e+01 -6.9511810991718548e-02 -5.0717388090447741e+00 2 2 2
1553 518 2 4.0999999999999998e-01 -1.2726531276062634e+01 -1.0377634990326024e+01 -4.4517633778955279e+00 1 1 0
1420 474 1 -8.1999999999999995e-01 -1.2488068102428599e+01 -1.2542959782404495e+01 -9.8113144332824120e-01 0 1 -1
364 122 1 -8.1999999999999995e-01 -1.1040823464325868e+01 -1.4781512132609194e+01 -2.2574544440538791e+00 2 3 2
2215 739 1 -8.1999999999999995e-01 -1.2532784939292991e+01 -8.4372098545539291e+00 -1.5662028621345794e+00 1 1 0
2217 739 2 4.0999999999999998e-01 -1.2328041841035247e+01 -7.4846413325075405e+00 -1.3410418445118619e+00 1 1 0
57 19 2 4.0999999999999998e-01 -1.4744227834162427e+01 -1.1227050208856717e+01 -2.9703753029601199e+00 0 -1 0
1715 572 2 4.0999999999999998e-01 -8.5887145275616827e+00 -6.0063088627932739e+00 -5.6744193001881627e+00 0 1 1
2216 739 2 4.0999999999999998e-01 -1.3065840838648230e+01 -8.4727330407545374e+00 -2.4115391958063981e+00 1 1 0
2206 736 1 -8.1999999999999995e-01 -7.3480101536201259e+00 -1.2073694532275585e+01 -7.2203256101853999e+00 0 2 0
1277 426 2 4.0999999999999998e-01 -1.0727721708088692e+01 -1.0627895345957095e+01 -6.5459831370652619e+00 -1 0 0
56 19 2 4.0999999999999998e-01 -1.3780175937522122e+01 -1.1551275972972757e+01 -1.6928312512785730e+00 0 -1 0
814 272 1 -8.1999999999999995e-01 -1.3845043519088787e+01 -7.0950705137897812e+00 -3.9399180089875205e+00 0 1 -1
816 272 2 4.0999999999999998e-01 -1.3354879553786869e+01 -6.3537293020227317e+00 -3.4814895715156080e+00 0 1 -1
1365 455 2 4.0999999999999998e-01 -6.6597342415382723e+00 -9.2393405660539365e+00 -6.5774391619120927e+00 0 1 1
2208 736 2 4.0999999999999998e-01 -6.3998558060103417e+00 -1.2312315595225687e+01 -7.0104032980541469e+00 0 2 0
155 52 2 4.0999999999999998e-01 -5.8116161847217445e+00 -1.1461233512923101e+00 -2.0297962237730651e+00 -1 3 0
759 253 2 4.0999999999999998e-01 -1.4603206956067204e+01 -9.7814445421880425e+00 -7.0998120753223573e+00 0 1 2
758 253 2 4.0999999999999998e-01 -1.4405423115524492e+01 -1.0717338159867452e+01 -5.7763235758187310e+00 0 1 2
174 58 2 4.0999999999999998e-01 -1.4951348248521459e+01 -2.5864663285860416e+00 -4.8217636984456629e+00 1 2 -1
1422 474 2 4.0999999999999998e-01 -1.2071002794406665e+01 -1.3312630958960636e+01 -1.4645223754950649e+00 0 1 -1
55 19 1 -8.1999999999999995e-01 -1.4652386829872261e+01 -1.1153389064918807e+01 -1.9773278369321758e+00 0 -1 0
800 267 2 4.0999999999999998e-01 -6.9796796397795733e+00 -1.2466175203110929e+01 -6.9097625558709552e-01 -1 1 -1
1421 474 2 4.0999999999999998e-01 -1.2698381023528526e+01 -1.2813827758850096e+01 -4.1768337308027981e-02 0 1 -1
1254 418 2 4.0999999999999998e-01 -1.0477171378902373e+01 -6.7153900768235921e+00 -6.6991661327903600e+00 0 1 0
1714 572 1 -8.1999999999999995e-01 -8.5881533114246871e+00 -6.0314592117885724e+00 -6.6741048503413882e+00 0 1 1
2239 747 1 -8.1999999999999995e-01 -1.2202727671561560e+01 -5.4028640376035160e+00 -1.8250090241637125e+00 1 -2 -2
2322 774 2 4.0999999999999998e-01 -5.4045950282135546e+00 -1.1203787907137460e+01 -5.2681802377864937e+00 1 3 0
65 22 2 4.0999999999999998e-01 -8.0063642799729084e+00 -6.1208310423544230e+00 -3.3333698800968925e+00 1 2 0
64 22 1 -8.1999999999999995e-01 -8.4784955007926861e+00 -6.4338126013305779e+00 -4.1574685910033331e+00 1 2 0
540 180 2 4.0999999999999998e-01 -7.3715039469435233e+00 -1.4008007962597890e+00 -5.3733911785188049e+00 0 0 0
1935 645 2 4.0999999999999998e-01 -5.7997096797289824e+00 -7.0024790207035377e+00 -6.1480468086123654e+00 0 -1 1
2320 774 1 -8.1999999999999995e-01 -5.4762544154219288e+00 -1.0270752895295391e+01 -5.6207631075671518e+00 1 3 0
365 122 2 4.0999999999999998e-01 -1.0137715433853037e+01 -1.4787683306314104e+01 -1.8280806533276923e+00 2 3 2
274 92 1 -8.1999999999999995e-01 -1.4881157587043509e+01 -3.6831224975632058e+00 -7.2337207796340834e+00 0 1 0
589 197 1 -8.1999999999999995e-01 -1.0512822330446131e+01 -3.1310606787922897e+00 -1.5578795838878374e+00 0 0 1
1933 645 1 -8.1999999999999995e-01 -5.1703909759773339e+00 -6.3902577015889470e+00 -5.6693536656384236e+00 0 -1 1
370 124 1 -8.1999999999999995e-01 -1.0831093210374412e+01 -4.6294070664319786e+00 -4.0414896255676371e+00 0 1 1
2472 824 2 4.0999999999999998e-01 -1.1375563335549561e+01 -1.4268646964364340e+00 -1.5821941172957246e+00 -1 3 0
2471 824 2 4.0999999999999998e-01 -1.2804694371882210e+01 -7.2723211093996021e-01 -1.2151301640512653e+00 -1 3 0
1716 572 2 4.0999999999999998e-01 -8.2491839067759969e+00 -6.9194069938111813e+00 -6.9849946924618322e+00 0 1 1
1281 427 2 4.0999999999999998e-01 -7.2600224431936784e+00 -3.5176209770705693e+00 -6.2469596998313452e+00 2 0 2
2241 747 2 4.0999999999999998e-01 -1.2906789244364376e+01 -4.7460194412748500e+00 -1.5550896688252429e+00 1 -2 -2
372 124 2 4.0999999999999998e-01 -1.0005610393152793e+01 -5.1397989080213708e+00 -4.2824922696206862e+00 0 1 1
2527 843 1 -8.1999999999999995e-01 -1.0031005748404256e+01 -1.9981094375629738e+00 -4.5615811849494836e+00 2 2 1
1164 388 2 4.0999999999999998e-01 -1.4393407787647083e+01 -2.5614828363137896e+00 -7.6522552381523568e-01 -1 2 0
1850 617 2 4.0999999999999998e-01 -1.2627152505581567e+01 -3.6752653978869230e+00 -4.2524142186423362e+00 0 2 1
1849 617 1 -8.1999999999999995e-01 -1.3353712441413450e+01 -3.0126983452257292e+00 -4.0704264680326734e+00 0 2 1
1851 617 2 4.0999999999999998e-01 -1.3642627603467359e+01 -3.0885829366884749e+00 -3.1160818954891720e+00 0 2 1
858 286 2 4.0999999999999998e-01 -6.8416328511737063e+00 -3.9555420117890794e+00 -3.8903581239330549e+00 0 3 0
743 248 2 4.0999999999999998e-01 -6.6446034375063689e+00 -5.6907276243019727e+00 -1.7263386335294886e+00 -1 2 0
539 180 2 4.0999999999999998e-01 -6.1889724444089165e+00 -2.9881552952039847e-01 -5.1412597891227740e+00 0 0 0
538 180 1 -8.1999999999999995e-01 -7.1573289608893180e+00 -4.2413940709158382e-01 -5.3570923186685988e+00 0 0 0
2530 844 1 -8.1999999999999995e-01 -1.2486873998496975e+01 -7.5728327895114589e-01 -5.3902369107454504e+00 2 2 2
2528 843 2 4.0999999999999998e-01 -1.0871987032772124e+01 -1.5102906056509617e+00 -4.7956480299189721e+00 2 2 1
2531 844 2 4.0999999999999998e-01 -1.2763098102110584e+01 -1.6585194838210544e+00 -5.0563543858947213e+00 2 2 2
2043 681 2 4.0999999999999998e-01 -6.9050857043268099e+00 -3.1948931488236489e+00 -2.0374723310504717e+00 3 3 1
590 197 2 4.0999999999999998e-01 -9.5225697036047414e+00 -3.0047246196894708e+00 -1.4992030101747726e+00 0 0 1
2529 843 2 4.0999999999999998e-01 -9.3538222353771800e+00 -1.3483016673152974e+00 -4.2163618587070673e+00 2 2 1
2240 747 2 4.0999999999999998e-01 -1.1705733271247265e+01 -5.0515349590724501e+00 -2.6184627193233325e+00 1 -2 -2
1162 388 1 -8.1999999999999995e-01 -1.4232457863839297e+01 -3.3277416217948144e+00 -1.3872758466240427e+00 -1 2 0
591 197 2 4.0999999999999998e-01 -1.0738819369246720e+01 -4.0863981233603752e+00 -1.3674598076739404e+00 0 0 1
371 124 2 4.0999999999999998e-01 -1.0592295230539865e+01 -3.6751900499144750e+00 -3.8613522405231464e+00 0 1 1
744 248 2 4.0999999999999998e-01 -7.9418740095266456e+00 -6.0543910211181640e+00 -8.0358452285688386e-01 -1 2 0
2041 681 1 -8.1999999999999995e-01 -7.4373806923120451e+00 -2.4755000296663514e+00 -1.5912217291226334e+00 3 3 1
742 248 1 -8.1999999999999995e-01 -7.3559655259831276e+00 -6.3709640040996920e+00 -1.5495716855813200e+00 -1 2 0
856 286 1 -8.1999999999999995e-01 -6.2890457774125803e+00 -4.2566786300464070e+00 -3.1132040689754792e+00 0 3 0
1363 455 1 -8.1999999999999995e-01 -7.3549474304527758e+00 -8.7040588889954957e+00 -7.0571851304415167e+00 0 1 1
2470 824 1 -8.1999999999999995e-01 -1.1830551971628148e+01 -5.6216112721133271e-01 -1.3694096810073066e+00 -1 3 0
2042 681 2 4.0999999999999998e-01 -7.2135805436755636e+00 -2.4509687206753625e+00 -6.1689338945934580e-01 3 3 1
1279 427 1 -8.1999999999999995e-01 -7.6843811641293103e+00 -3.1272870184973982e+00 -5.4299143254473830e+00 2 0 2
1280 427 2 4.0999999999999998e-01 -8.6480280826449309e+00 -2.9342766140064143e+00 -5.6146726535682419e+00 2 0 2
1817 606 2 4.0999999999999998e-01 -7.5490933827125284e+00 -7.7258836027827273e+00 -4.7536985463566062e-01 0 1 0
246 82 2 4.0999999999999998e-01 -8.8312134935652420e+00 -1.2927484439636988e+01 -6.9066449716431144e-01 0 1 0
1845 615 2 4.0999999999999998e-01 -8.5697700672756376e+00 -8.6352232988989641e-01 -1.4976402721448441e+00 1 0 1
815 272 2 4.0999999999999998e-01 -1.4828852954940141e+01 -6.9212696716074138e+00 -3.8961431192123346e+00 0 1 -1
272 91 2 4.0999999999999998e-01 -5.3399456267744743e+00 -1.0518945598286455e+01 -9.0073453905379353e-01 -1 0 2
1252 418 1 -8.1999999999999995e-01 -1.1263183326501364e+01 -7.0314225477422587e+00 -7.2304971764915136e+00 0 1 0
1843 615 1 -8.1999999999999995e-01 -9.0696330003492847e+00 -2.9586987911240925e-03 -1.3998073676748870e+00 1 0 1
2445 815 2 4.0999999999999998e-01 -5.2786146558418796e+00 -1.4010177132266289e+01 -4.3990904002751510e+00 0 2 2
857 286 2 4.0999999999999998e-01 -5.3586423311448907e+00 -4.4537818676019487e+00 -3.4222409492955688e+00 0 3 0
1253 418 2 4.0999999999999998e-01 -1.1157179961047643e+01 -8.0043341026250125e+00 -7.4359488281245953e+00 0 1 0
1276 426 1 -8.1999999999999995e-01 -1.1108063096156384e+01 -1.0120045775444629e+01 -7.3189212035103157e+00 -1 0 0
1364 455 2 4.0999999999999998e-01 -8.2562709355062793e+00 -9.1049274811496481e+00 -6.8930987412115279e+00 0 1 1
154 52 1 -8.1999999999999995e-01 -5.0339464105270668e+00 -5.1747488712394585e-01 -2.0357010641333719e+00 -1 3 0
2558 853 2 4.0999999999999998e-01 -1.4746347941728558e+01 -1.4338103539844651e+01 -6.9083570166120651e+00 2 2 1
1828 610 1 -8.1999999999999995e-01 -1.0299034451041809e+01 -1.1417360101227287e+01 2.6853129082024747e+00 1 1 1
2413 805 1 -8.1999999999999995e-01 -5.5720830242243515e+00 -1.3313530158374299e+01 2.0686213436733869e+00 1 0 0
2415 805 2 4.0999999999999998e-01 -6.2892065355150528e+00 -1.3799367837223659e+01 2.5683208612635422e+00 1 0 0
2025 675 2 4.0999999999999998e-01 -1.0182453694436731e+01 -9.5284254142533591e+00 6.1646903434892462e+00 2 0 0
2023 675 1 -8.1999999999999995e-01 -9.9767782816348980e+00 -1.0506736215633145e+01 6.1399995763745085e+00 2 0 0
2474 825 2 4.0999999999999998e-01 -8.9579025167208837e+00 -1.3217430337835447e+01 1.3702249745797719e+00 3 1 1
2473 825 1 -8.1999999999999995e-01 -9.4280707027777879e+00 -1.3815174655276270e+01 7.2088091314843084e-01 3 1 1
897 299 2 4.0999999999999998e-01 -1.2351063036494473e+01 -1.2842370814858617e+01 5.9544615379768029e+00 0 2 1
1123 375 1 -8.1999999999999995e-01 -1.2862801368517545e+01 -1.0449126261270049e+01 4.8485703308921568e+00 0 3 1
400 134 1 -8.1999999999999995e-01 -7.8268953286498713e+00 -1.3994153535751318e+01 3.7845047720656648e+00 0 3 -1
1829 610 2 4.0999999999999998e-01 -9.4643717153510210e+00 -1.1061911413866341e+01 3.1060246584376952e+00 1 1 1
1124 375 2 4.0999999999999998e-01 -1.2792121482120617e+01 -1.0911897918810858e+01 3.9649127492675778e+00 0 3 1
1830 610 2 4.0999999999999998e-01 -1.0860501948683771e+01 -1.1862390236933798e+01 3.3829563802292864e+00 1 1 1
1136 379 2 4.0999999999999998e-01 -7.7449259124894390e+00 -1.1898277787513166e+01 4.2080169707012463e+00 0 1 1
1135 379 1 -8.1999999999999995e-01 -7.8248630072888314e+00 -1.0903655307267158e+01 4.1421367948929895e+00 0 1 1
401 134 2 4.0999999999999998e-01 -7.2071748018543671e+00 -1.4296665800291169e+01 4.5086848535112534e+00 0 3 -1
1244 415 2 4.0999999999999998e-01 -1.2074043932544523e+01 -9.0347629486427845e+00 1.4230827078453903e+00 0 3 1
2265 755 2 4.0999999999999998e-01 -1.4903728044230238e+01 -7.9009798568666483e+00 1.9634303888515365e+00 -1 1 0
1125 375 2 4.0999999999999998e-01 -1.3417748086578991e+01 -1.1001458040740021e+01 5.4706376432150119e+00 0 3 1
801 267 2 4.0999999999999998e-01 -5.9404777435505700e+00 -1.2603627520668775e+01 5.6114330118785460e-01 -1 1 -1
1816 606 1 -8.1999999999999995e-01 -7.6083459912467006e+00 -8.4844665163270321e+00 1.7351001123394738e-01 0 1 0
1137 379 2 4.0999999999999998e-01 -8.0114577648364751e+00 -1.0523530274882095e+01 5.0480569515167861e+00 0 1 1
1243 415 1 -8.1999999999999995e-01 -1.3054022800944781e+01 -9.0329300139946280e+00 1.2239794524611423e+00 0 3 1
192 64 2 4.0999999999999998e-01 -5.2443725757995985e+00 -1.4189567760386788e+01 5.6459343009475784e+00 1 1 -1
220 74 1 -8.1999999999999995e-01 -1.4382313614638168e+01 -1.2284395486317017e+01 6.7359653785058970e+00 1 1 -1
21 7 2 4.0999999999999998e-01 -7.3230982978778316e+00 -9.4527777987969657e+00 2.9992854452584847e+00 -1 2 1
2552 851 2 4.0999999999999998e-01 -1.3881199611207281e+01 -1.0588097872030382e+01 1.7559763126327983e+00 3 2 -1
737 246 2 4.0999999999999998e-01 -1.2797227657721015e+01 -8.5692310391758539e+00 4.4494389702686004e+00 0 1 -1
485 162 2 4.0999999999999998e-01 -1.0968252807699756e+01 -7.6322420546290495e+00 5.0659037813094709e+00 -1 0 2
2551 851 1 -8.1999999999999995e-01 -1.4603954862991955e+01 -1.1057864226696605e+01 2.2628771367017304e+00 3 2 -1
895 299 1 -8.1999999999999995e-01 -1.1558816489353832e+01 -1.3062744836127068e+01 5.3854405767283655e+00 0 2 1
1682 561 2 4.0999999999999998e-01 -1.4508992062606593e+01 -1.2823082856814485e+01 1.7728680495090945e+00 1 0 0
2475 825 2 4.0999999999999998e-01 -1.0399945987046912e+01 -1.3859589901408745e+01 9.5215937086623192e-01 3 1 1
157 53 1 -8.1999999999999995e-01 -6.0468090854225665e+00 -4.6469571599648329e+00 2.7503654839006746e+00 -2 0 -1