2593
Atoms. Timestep: 18495000
O -9.94259 3.94146 9.52928
H -10.5598 4.69215 9.29362
H -9.0627 4.31365 9.82475
O -0.623965 -2.79513 8.74412
H -0.379545 -3.40258 7.98829
H -1.60594 -2.60799 8.71717
O -4.56732 -3.17388 -0.413928
H -5.55721 -3.07083 -0.511492
H -4.10361 -2.5166 -1.00805
O 14.37 -13.8863 3.89491
H 14.8408 -13.2817 4.53748
H -15.0207 -14.3173 3.29062
O -9.15792 11.3782 9.42553
H -9.48285 12.2762 9.72207
H -8.9517 10.817 10.2271
O 5.65602 -4.3058 0.934135
H 5.04059 -5.02435 0.610177
H 6.55068 -4.4126 0.500309
O -0.725777 12.6127 5.71996
H -1.40705 12.5664 6.45054
H -0.382829 11.6938 5.5252
O 1.6207 1.29264 14.1801
H 1.17416 0.402066 14.2668
H 2.61308 1.16937 14.1804
O 5.29604 4.42586 9.98342
H 5.41227 5.02636 9.19228
H 5.9822 3.699 9.95384
O -10.5458 -6.93902 -2.90723
H -10.256 -6.27927 -2.21385
H -9.84256 -7.64208 -3.0129
O -9.11383 10.3402 1.0986
H -9.56656 9.517 0.755882
H -8.14784 10.1438 1.26684
O 12.6791 11.1209 9.633
H 13.3129 10.8321 10.3506
H 12.2756 10.3147 9.20036
O 11.1247 -1.467 -8.49654
H 10.5332 -0.78946 -8.93376
H 12.0276 -1.44787 -8.92595
O -13.9301 -5.20931 0.0860311
H -14.426 -5.09977 -0.775428
H -14.3451 -4.62783 0.785798
O 7.62021 -5.93689 -5.8031
H 7.79539 -5.15625 -6.40305
H 8.44098 -6.50548 -5.74769
O 3.65611 -6.16714 10.9111
H 4.59207 -6.42448 10.6707
H 3.39097 -5.35322 10.3942
O 8.58921 -14.3063 10.2196
H 9.34444 -14.9226 9.99631
H 8.84436 -13.3681 9.98595
O -6.19042 7.94677 7.97086
H -5.61768 7.9747 7.15158
H -6.00689 8.75286 8.53349
O -8.46855 -9.9003 -9.53279
H -8.49466 -10.8961 -9.44524
H -7.65333 -9.54664 -9.07413
O 11.5849 -5.06418 7.05698
H 11.5472 -4.48837 7.87371
H 10.9407 -5.8229 7.1541
O 4.6331 8.00074 -2.84467
H 5.24153 7.26262 -3.13624
H 4.5806 8.01461 -1.84613
O -12.9282 -10.4631 -4.64379
H -13.1844 -10.4223 -3.67803
H -11.934 -10.5367 -4.72201
O 11.0705 3.3725 -12.1586
H 11.8648 3.47196 -11.5594
H 10.2421 3.29495 -11.6038
O 6.08895 3.32144 -1.41311
H 7.062 3.16897 -1.58621
H 5.54898 2.67924 -1.9572
O 2.38361 7.91705 -4.54084
H 3.34237 7.87415 -4.25984
H 1.83627 7.32423 -3.95007
O -3.29461 -2.37427 8.31394
H -3.47713 -1.51606 8.79373
H -3.37635 -2.22881 7.32794
O 9.43536 12.7942 3.76954
H 10.3024 12.3714 4.0332
H 9.46669 13.0431 2.80151
O 1.84354 7.68048 -10.2331
H 2.35202 8.50191 -9.97479
H 1.11355 7.51781 -9.56927
O -10.5275 -7.44138 14.8842
H -11.0367 -7.7416 -14.37
H -11.1691 -7.16635 14.1682
O -13.939 9.53377 -9.25883
H -13.0986 9.76384 -8.76816
H -13.8853 8.59104 -9.58809
O -12.7666 0.491568 -10.3697
H -13.7543 0.469443 -10.5244
H -12.5183 -0.208359 -9.69999
O 9.18848 11.8934 9.59687
H 9.51944 11.2255 10.2635
H 8.19524 11.9789 9.67559
O 7.62786 1.17045 11.5815
H 7.13639 1.80412 12.179
H 7.53501 1.46824 10.6314
O -14.0417 9.40165 7.46226
H -13.0733 9.37329 7.70986
H -14.2852 10.3279 7.17447
O -12.4227 -2.18376 4.97996
H -11.8007 -1.40114 4.95577
H -12.4156 -2.58705 5.89502
O 10.6681 7.09543 -9.38372
H 10.1164 7.34276 -8.58715
H 10.0689 6.77712 -10.1183
O -12.5442 -7.46736 -7.88299
H -12.584 -8.44294 -8.09905
H -11.9 -7.01532 -8.50006
O -2.04861 -0.105915 11.8165
H -2.68389 -0.874743 11.8895
H -1.29366 -0.35387 11.2094
O 10.4647 -9.94623 4.03661
H 9.92001 -9.37842 3.41942
H 10.2608 -10.9108 3.86917
O 14.2723 13.1485 -0.718259
H 14.6509 12.7892 0.134746
H 13.2785 13.2236 -0.63632
O -8.56391 -2.68207 -6.91965
H -7.63519 -2.86104 -6.59488
H -8.58001 -2.7165 -7.91894
O 11.7947 13.1511 0.158953
H 12.0421 12.3278 0.669804
H 11.1963 12.9033 -0.602983
O -1.94333 0.83739 -10.4352
H -2.93235 0.840955 -10.2874
H -1.51087 1.48927 -9.8123
O -2.15852 2.85712 3.65299
H -1.19477 2.64473 3.81453
H -2.57293 3.19024 4.49994
O 13.8647 -12.1465 -2.6835
H 13.5559 -12.5519 -1.82306
H 14.8228 -12.3862 -2.83999
O -4.95701 1.71646 -3.76078
H -5.05441 2.09796 -2.84155
H -5.8628 1.54271 -4.14726
O -0.178337 12.5412 -14.5354
H -0.359411 11.7952 -13.8945
H 0.808448 12.6347 -14.6678
O -14.8944 14.6224 -3.21223
H 15.001 14.4381 -2.24339
H -14.4601 -14.5432 -3.31178
O -0.687789 1.50679 -14.0306
H -0.348899 1.18661 -14.9153
H -0.36032 0.897944 -13.308
O -3.52801 -7.83587 -12.4058
H -4.47084 -8.16916 -12.4024
H -3.02405 -8.26896 -13.1531
O -7.53042 -4.16577 5.53789
H -8.34308 -4.748 5.56249
H -7.8086 -3.20524 5.5322
O 2.87155 13.223 -9.59662
H 3.46218 13.0018 -8.82057
H 1.94472 13.4058 -9.26864
O 10.9163 -6.88434 10.0467
H 11.7584 -7.40193 10.1986
H 10.5548 -7.09493 9.13843
O -5.66133 14.0505 -3.83978
H -6.57791 13.7037 -4.0388
H -5.4647 13.9333 -2.86632
O -6.48593 -10.2472 1.75702
H -6.00965 -9.36906 1.71199
H -6.55442 -10.5407 2.71052
O -14.2369 -1.81979 -3.04234
H -14.284 -1.5238 -2.0883
H -14.7431 -1.17615 -3.61638
O 13.8016 13.4659 10.3835
H 12.844 13.7086 10.2287
H 14.003 12.5977 9.92986
O 0.423108 2.37487 4.55917
H 1.28517 1.98549 4.23474
H 0.0918732 1.84632 5.34079
O 10.2951 11.6457 -12.0755
H 10.8505 12.2055 -11.4605
H 9.34315 11.6584 -11.7693
O 8.39641 14.1731 0.240845
H 8.17431 14.3884 -0.710133
H 8.40876 13.1808 0.36385
O 14.2272 -7.63218 1.76014
H 14.2429 -8.00573 0.832653
H 14.203 -6.63339 1.71684
O -9.11441 -13.6234 -2.692
H -8.90988 -13.9108 -3.62771
H -8.25976 -13.4593 -2.19936
O -3.79558 12.6404 -10.848
H -3.52437 11.7251 -10.5502
H -3.01454 13.2604 -10.773
O 8.25744 1.91783 -13.2085
H 8.19498 1.66746 -14.1746
H 9.08648 1.52119 -12.8143
O -0.886618 -11.0566 -9.72458
H -0.395247 -11.7705 -10.2235
H -0.229695 -10.4571 -9.26726
O -8.77499 -13.6366 3.74908
H -9.00758 -14.037 2.86274
H -9.20501 -14.1687 4.4784
O 0.439148 4.72893 -9.32834
H 1.33913 4.77637 -8.89497
H 0.00204915 5.62746 -9.28811
O 3.45388 -10.9772 14.5812
H 4.08369 -10.4111 14.0493
H 3.84477 -11.1516 -14.5759
O 12.9839 -7.54194 -9.32997
H 13.192 -8.12365 -8.54363
H 12.9651 -6.58483 -9.04082
O 6.86461 -6.2929 7.72927
H 7.17529 -5.35589 7.88899
H 6.25742 -6.31191 6.93492
O -0.945279 10.1061 13.5233
H -0.195227 10.139 14.1839
H -0.662555 9.57559 12.7241
O -3.95436 -14.4552 -9.77378
H -3.51425 -13.5616 -9.686
H -3.92686 -14.9282 -8.89315
O -6.3688 4.12717 -8.40376
H -6.90485 4.11773 -7.55961
H -6.85841 3.62301 -9.11518
O -2.58029 13.556 -7.56518
H -1.79545 13.5655 -6.94553
H -3.12795 12.7364 -7.39694
O -2.99555 -10.7769 -1.78983
H -3.51786 -11.5583 -2.13115
H -3.36866 -10.4857 -0.908888
O -7.82884 -1.50366 8.07866
H -7.78562 -1.22155 7.12023
H -8.76641 -1.4067 8.41269
O -1.16051 -8.89882 3.93392
H -1.25249 -7.98698 3.53378
H -0.219009 -9.0339 4.2427
O 14.9877 -1.5313 -0.385147
H 14.3312 -0.777003 -0.394203
H -14.184 -1.19561 -0.0740992
O -6.56785 1.44148 7.68558
H -6.23641 0.896086 6.9157
H -6.3748 0.961727 8.5415
O 1.09794 8.48088 -0.771514
H 0.799605 7.98792 -1.58883
H 0.308826 8.66088 -0.184214
O 9.29448 10.431 -9.44473
H 8.71394 10.2259 -10.2327
H 10.1453 10.8527 -9.75831
O 5.85056 12.8393 12.2071
H 6.49358 12.2269 12.6669
H 6.19228 13.0556 11.2925
O -2.05456 -6.43403 -5.70423
H -2.87537 -6.16431 -5.20071
H -2.20926 -7.31841 -6.14465
O 0.98321 14.11 10.4106
H 1.40677 14.9841 10.6482
H 0.555635 13.7148 11.2237
O 12.1077 5.1136 7.84805
H 12.5571 4.95619 6.96869
H 11.1167 5.13702 7.71642
O 6.18413 -10.039 13.5933
H 6.41876 -10.9854 13.8153
H 6.4636 -9.83768 12.6545
O -3.63923 -12.8709 -14.0183
H -3.24547 -13.4827 -13.3322
H -3.39406 -13.1935 -14.9325
O -9.17896 12.3637 3.72894
H -9.43723 13.1444 3.15983
H -9.34615 11.5153 3.22671
O 1.98011 -7.9632 8.56181
H 1.15309 -8.26754 9.0345
H 2.59075 -7.51418 9.21414
O -5.17033 -0.366039 6.38169
H -4.44591 -0.996335 6.10245
H -5.30022 -0.425 7.37148
O 11.6762 -6.34614 -14.0202
H 11.4533 -5.65587 -13.3318
H 11.5284 -7.25821 -13.6377
O -11.1245 7.76134 -6.11236
H -11.2233 6.85798 -6.5297
H -11.8541 7.90087 -5.44289
O -14.5542 -8.91782 5.93346
H -13.8713 -8.99843 6.65957
H 14.7638 -8.3223 6.23919
O 6.46037 -12.9186 -2.8861
H 7.10114 -12.2419 -3.2488
H 5.52381 -12.5906 -3.00981
O -12.1301 -13.981 12.7443
H -12.8358 -14.3669 12.15
H -12.4928 -13.8808 13.6708
O -3.58759 7.6532 -9.21897
H -3.0799 6.8152 -9.01887
H -3.93312 8.04521 -8.36635
O -3.19749 1.11788 -13.587
H -2.25245 1.44487 -13.5862
H -3.49418 0.958163 -14.5285
O 4.42774 13.6282 -0.392924
H 5.25939 13.2703 -0.817553
H 4.50471 13.5583 0.601671
O 13.2268 -9.45461 -3.03325
H 13.9269 -9.25318 -3.71828
H 13.2717 -10.4224 -2.78537
O 3.48355 6.80158 4.94419
H 4.28581 6.32712 4.58184
H 2.67808 6.55302 4.40618
O -13.1203 6.33989 4.16201
H -12.4426 5.81314 3.64897
H -13.069 6.09554 5.13035
O 1.56897 -1.85203 -9.4266
H 2.34886 -1.22628 -9.41149
H 0.718972 -1.32603 -9.39742
O 6.88605 -14.5754 5.16729
H 6.65976 -13.6622 5.50637
H 7.43248 -14.4954 4.3336
O -3.46825 -1.15736 -12.1008
H -3.14363 -1.31406 -11.1681
H -3.17124 -0.253823 -12.4098
O 11.9178 12.8335 -9.95976
H 12.6902 12.2007 -10.0161
H 11.6241 12.9169 -9.00749
O -5.26666 -7.65359 -5.9078
H -6.11048 -8.08045 -5.58257
H -5.34002 -6.66021 -5.81924
O -1.66741 1.91592 -5.97766
H -0.702907 2.16067 -5.87834
H -1.82614 1.01532 -5.573
O 5.13444 -1.05272 12.4577
H 5.91755 -0.89631 11.8558
H 4.28714 -0.906844 11.947
O -11.6508 1.91787 11.0006
H -12.1386 2.17444 11.8351
H -11.1832 2.71945 10.628
O -12.7873 12.0864 -6.54951
H -13.157 12.5673 -7.34451
H -11.8256 11.865 -6.71144
O -8.88682 9.09413 -6.68838
H -9.58909 8.49515 -6.30359
H -8.69653 8.82163 -7.63154
O -2.30344 7.93883 -4.37751
H -1.86574 7.08488 -4.65894
H -2.23584 8.03657 -3.38458
O 14.9307 4.83253 -9.1119
H -14.8304 5.45573 -9.83427
H -14.4584 4.83328 -8.3711
O 1.8608 10.7091 -4.96009
H 1.63956 9.74433 -4.81788
H 1.53771 11.2438 -4.17921
O -4.03672 10.4076 7.32918
H -4.40736 9.63388 6.81536
H -4.51106 11.2453 7.05858
O -3.97168 11.5664 -5.54353
H -4.35316 11.1018 -4.74441
H -4.70647 11.7795 -6.18751
O 11.2985 10.8438 5.39246
H 12.1161 10.4524 4.97013
H 10.6093 10.1288 5.51
O 7.47608 2.02982 -5.06461
H 7.751 2.16683 -4.11294
H 7.40855 1.05029 -5.25433
O -2.40595 14.9174 -2.44394
H -2.63905 -14.8458 -1.51815
H -2.81921 14.0241 -2.62081
O 7.11388 -12.7876 13.9306
H 6.7994 -13.7104 14.1534
H 7.66223 -12.4307 14.6869
O -13.251 1.42331 3.6901
H -13.1216 1.59859 4.66608
H -12.8149 2.15056 3.1601
O -0.209198 -7.54136 -1.9347
H -0.279322 -8.32442 -2.55269
H -1.10688 -7.11135 -1.83835
O 4.93201 -6.54879 5.54029
H 5.51902 -6.51613 4.73135
H 4.81153 -7.49935 5.82654
O -4.96501 -7.6083 2.06467
H -4.78016 -6.92879 2.77469
H -4.1135 -8.0692 1.81462
O 13.0707 -8.33559 10.7481
H 13.231 -9.01765 11.4617
H 13.9337 -8.12388 10.2895
O 9.10774 1.13786 4.20372
H 9.56376 0.259525 4.34724
H 8.90777 1.25456 3.23088
O -3.69878 -5.17559 -11.9889
H -3.48256 -4.86634 -12.9149
H -3.64995 -6.17369 -11.9508
O 11.1189 13.3834 -7.5626
H 10.2885 13.9216 -7.70694
H 11.1452 13.0583 -6.6173
O 12.8767 5.5506 13.6366
H 12.1983 5.26103 14.3118
H 12.4476 6.16685 12.9762
O 14.8048 -13.816 14.736
H 14.3726 -14.2498 -14.5342
H -14.7453 -14.5017 14.2175
O 5.76346 5.54175 3.00187
H 5.60238 6.42493 2.56135
H 5.53239 4.80514 2.36623
O 3.54334 3.6002 -12.899
H 3.06005 2.72473 -12.9013
H 2.88182 4.3459 -12.8193
O 10.7901 7.24062 2.62017
H 10.3856 7.89268 3.26143
H 10.6879 6.31291 2.97926
O -4.77431 -8.98609 14.4392
H -5.17511 -9.82788 14.8009
H -3.82607 -9.15669 14.1714
O 12.4531 -7.84022 3.92695
H 13.0779 -8.06563 3.17937
H 11.8715 -8.62933 4.12475
O -10.2311 6.8851 -9.56728
H -9.84743 7.80576 -9.49472
H -9.69489 6.35117 -10.2211
O -14.9791 5.75549 -5.11199
H -14.0701 5.39463 -5.32052
H 14.5896 5.93199 -5.96442
O 14.5849 8.25131 11.4056
H 14.3047 7.87097 10.5242
H -14.8981 7.59089 11.8851
O -1.2687 -8.55249 -13.9765
H -1.50539 -9.31719 -13.3771
H -0.435052 -8.77192 -14.4834
O 12.2162 4.08538 -0.691638
H 12.6608 4.47477 -1.49837
H 12.7935 4.23399 0.111325
O 2.66387 -7.25388 1.89599
H 2.64551 -7.72853 2.77599
H 3.61111 -7.15156 1.59218
O -7.02703 -8.7968 11.9332
H -6.46311 -8.59124 11.1333
H -6.46278 -8.75735 12.7578
O -4.63121 -14.9007 -6.11171
H -3.69295 14.8573 -6.27892
H -4.97792 14.7272 -5.27961
O -12.5126 10.8673 11.6947
H -13.4407 10.8593 11.3224
H -12.2494 9.93796 11.9538
O 13.8105 10.9423 -2.49119
H 14.0164 11.3671 -3.37277
H 13.9693 11.6031 -1.7576
O -1.00122 12.3606 -0.573565
H -1.88559 12.1879 -1.00728
H -0.364993 11.6262 -0.810065
O 0.839638 -6.51904 14.3695
H 0.522891 -6.17246 -14.8085
H 0.0535179 -6.67665 13.7718
O 0.69609 -10.8334 -14.8573
H 0.209979 -10.5466 14.3781
H 1.64887 -11.0349 14.9763
O -7.80181 2.94011 12.0127
H -7.74887 1.9428 11.9618
H -6.90703 3.33269 11.8
O -14.1415 -8.5778 13.6377
H -14.0013 -7.59216 13.5434
H -13.8276 -9.03993 12.8083
O 5.10596 -6.35026 -11.7962
H 5.9299 -5.8707 -12.0982
H 4.59773 -6.67449 -12.5941
O 7.02358 -3.83897 -10.5561
H 7.24504 -4.2546 -9.67395
H 7.37944 -4.41289 -11.2937
O 0.0474621 13.0827 12.7436
H -0.280621 12.3158 12.192
H -0.411808 13.0749 13.6318
O -11.7918 6.62347 9.4884
H -12.2924 6.02925 10.1179
H -10.9344 6.91295 9.91398
O 0.275712 -12.338 -12.5119
H -0.0786415 -13.2338 -12.7802
H 0.309231 -11.7395 -13.3123
O 5.67162 8.37403 -12.7071
H 5.47483 8.04905 -13.6321
H 4.97918 8.02368 -12.0764
O -8.96045 5.23044 -11.255
H -8.75417 4.35206 -10.8238
H -9.33284 5.07345 -12.1697
O 7.79242 -14.3599 2.62199
H 7.1401 -13.6869 2.27342
H 7.81691 14.9117 2.00841
O -4.09926 2.16472 10.7477
H -4.85554 2.80296 10.6038
H -4.01119 1.96697 11.724
O 11.9379 9.20825 -12.022
H 12.0448 9.25655 -11.0289
H 11.1796 9.79577 -12.3045
O 4.34989 0.0146027 2.46592
H 3.55048 0.0147874 3.06672
H 4.56941 0.954106 2.20292
O 0.870944 -13.2628 -0.79035
H 1.27924 -12.4861 -0.310756
H 1.58776 -13.9127 -1.04316
O 2.14572 -11.0719 0.246342
H 1.92113 -10.1527 -0.077176
H 3.12295 -11.2409 0.118024
O 5.77904 -10.4093 -5.85323
H 6.09331 -9.46605 -5.9608
H 4.8115 -10.4683 -6.09901
O 8.95285 -5.64337 -9.21062
H 9.00658 -6.62818 -9.04543
H 9.86794 -5.24474 -9.14957
O 7.18679 14.6613 -2.12665
H 6.4311 14.0536 -2.37068
H 6.97592 -14.4688 -2.42565
O 3.95925 -0.646679 -8.83557
H 4.4714 -0.169632 -9.54982
H 3.69514 0.00404887 -8.12365
O 9.61075 -14.502 -12.456
H 10.2863 -14.5895 -11.7238
H 9.80241 -13.6783 -12.9896
O -2.29115 -14.089 10.2755
H -3.22622 -13.7697 10.4294
H -1.68147 -13.6726 10.9499
O -4.96934 -3.80203 4.78561
H -5.19661 -3.55009 3.84492
H -5.80782 -4.02541 5.28269
O -12.3887 -14.8722 -0.713755
H -11.8529 14.5254 -1.23616
H -11.9359 -14.6915 0.159358
O -6.2073 14.6522 5.06092
H -7.14233 14.9983 5.1378
H -5.95885 14.5748 4.09535
O -11.4326 9.81889 8.35725
H -11.2477 8.8875 8.6709
H -10.8199 10.4559 8.82505
O 10.6988 6.08311 -3.44707
H 11.1724 6.79571 -3.96475
H 10.9629 5.18479 -3.79823
O -9.55077 1.89 -7.39051
H -9.63868 1.01116 -6.92153
H -9.55781 2.62931 -6.71716
O 6.05333 5.86819 7.69038
H 5.79134 5.38404 6.85552
H 5.83543 6.83947 7.59475
O -11.1349 -1.39342 11.4042
H -10.7972 -0.553522 11.829
H -11.1807 -1.27041 10.4128
O -7.06086 8.97645 3.04043
H -6.72673 9.89454 2.82713
H -7.68829 9.02233 3.81776
O 9.84847 -12.2962 -9.04286
H 9.59593 -11.3892 -8.70584
H 9.29665 -12.5186 -9.84662
O 8.59786 -5.82503 14.7598
H 7.91071 -6.49992 14.4907
H 9.51186 -6.19904 14.6025
O -12.8552 7.2248 0.0269968
H -13.7331 7.70378 0.0283798
H -13.0091 6.24728 -0.117199
O 10.2386 3.81348 -9.33308
H 10.1853 4.79544 -9.51457
H 10.1821 3.65309 -8.34763
O 14.4025 -10.4687 -12.2554
H -14.7664 -10.7116 -11.874
H 13.7938 -11.2608 -12.2106
O 8.56823 8.96484 -14.4071
H 9.2951 9.6246 -14.5979
H 8.16788 8.65165 14.7925
O 1.11763 5.41205 4.43871
H 0.657688 5.87186 3.67907
H 0.839119 4.45196 4.46498
O -5.94399 -1.1269 -6.73946
H -5.76113 -1.97877 -7.23029
H -5.40481 -0.387526 -7.14273
O 14.3798 13.6022 5.63843
H 14.1072 14.2575 4.93403
H 13.5639 13.226 6.07744
O 11.8485 -2.08758 13.3725
H 12.5422 -2.12625 14.0917
H 11.4869 -1.1575 13.3079
O 8.56752 5.64992 -6.69739
H 7.65832 5.58354 -6.28634
H 8.59653 6.43391 -7.31751
O -3.26089 3.71245 -4.13352
H -3.90614 2.95788 -4.01394
H -2.46539 3.39239 -4.64807
O -12.0301 8.23287 13.6775
H -12.6215 7.5975 13.1809
H -11.0827 7.91752 13.6238
O 3.14451 -7.17182 -14.0674
H 2.87223 -7.91562 -13.4569
H 2.35856 -6.88596 -14.6156
O -3.65766 -5.32978 -8.79545
H -3.38918 -5.10647 -9.7325
H -2.85226 -5.30552 -8.2032
O -8.4779 2.53487 -9.78083
H -8.86708 2.0797 -8.97996
H -8.73887 2.03607 -10.6073
O -11.9808 2.15961 6.17482
H -12.5887 2.03854 6.95958
H -11.0296 2.10289 6.47815
O -6.70032 11.7125 3.1298
H -6.09501 12.4716 3.36933
H -7.62943 11.917 3.43789
O -11.6636 1.36648 0.330299
H -12.1919 1.08598 -0.471106
H -11.8315 0.727166 1.0807
O 6.88895 2.10428 9.11202
H 6.04828 1.84253 8.63791
H 7.65491 2.08139 8.46952
O 8.36637 2.4351 6.35734
H 8.84138 3.31348 6.41071
H 8.37369 2.10911 5.41198
O 2.09675 11.1415 -1.05187
H 2.9458 11.5879 -0.769309
H 2.08008 10.2049 -0.701766
O 2.83604 -14.7671 -1.94857
H 3.53571 14.7269 -1.51371
H 3.26609 -14.1631 -2.61957
O 12.6201 -1.4939 -5.92127
H 12.3099 -1.22359 -5.00983
H 11.9933 -1.12753 -6.60896
O 9.03374 -0.221932 -2.84275
H 8.55108 -1.08887 -2.7183
H 9.86628 -0.377297 -3.37451
O 13.0669 6.44437 -12.5535
H 12.4551 6.5712 -11.7727
H 12.6444 6.82946 -13.374
O -14.468 -11.4499 4.70483
H -14.1425 -11.3467 3.76493
H -14.385 -10.5762 5.18415
O 12.3065 -14.5015 1.85186
H 12.6797 -14.6473 2.76812
H 12.1551 14.6756 1.40909
O 10.7228 14.1011 9.40577
H 10.136 13.2916 9.42635
H 11.0898 14.2233 8.48361
O 14.3515 -7.74446 -1.10766
H 14.1174 -8.39717 -1.8282
H -14.7148 -7.68527 -1.02185
O 2.97941 -14.6723 6.81469
H 2.68447 -13.9681 6.16882
H 2.17719 14.9667 7.23717
O -11.1689 14.7675 2.66441
H -11.1357 -14.3544 2.32206
H -12.0409 14.3501 2.40867
O -14.253 -5.75546 13.834
H -15.0008 -5.49552 13.223
H -14.5609 -5.69245 14.7833
O 9.62006 -5.57934 2.69391
H 9.31584 -5.15422 1.84141
H 10.269 -4.97417 3.15511
O -2.41739 -9.04822 12.7036
H -2.36201 -8.05507 12.8067
H -1.5123 -9.41134 12.4823
O -12.2782 10.2874 1.57487
H -12.2008 9.34067 1.26227
H -11.374 10.7146 1.57131
O -13.0269 -7.33855 -1.55471
H -13.0073 -6.55935 -0.928223
H -12.3155 -7.22637 -2.24852
O 6.26034 4.56253 -5.42141
H 6.41611 3.60133 -5.19368
H 5.8706 4.6285 -6.33999
O 0.486469 1.2652 9.03871
H 0.571392 1.5941 9.97927
H 0.737972 0.298116 8.99979
O 9.15185 -8.44875 -8.88672
H 8.71636 -8.93 -8.12595
H 10.0141 -8.90005 -9.11677
O -2.49558 -8.53361 -9.98055
H -1.85122 -9.28427 -10.1266
H -2.81544 -8.19221 -10.8644
O -14.6814 -11.1384 -7.04793
H 14.9708 -12.0247 -6.82968
H -13.9502 -10.9388 -6.39562
O 14.9124 -0.194804 -4.95687
H 14.794 0.608395 -4.37302
H 14.0402 -0.424399 -5.38876
O -11.5793 -12.8171 1.35594
H -10.9393 -12.4101 0.704215
H -12.2321 -12.1233 1.65971
O 9.86753 3.16306 -6.73519
H 9.24544 3.94035 -6.64116
H 9.39276 2.32265 -6.47382
O -4.97411 -6.31964 14.6351
H -5.03371 -7.29319 14.4145
H -5.84347 -6.01162 15.0216
O 2.57372 -8.8735 4.52247
H 3.29892 -8.67394 5.18147
H 2.29919 -9.83121 4.6088
O -4.90629 -0.330668 9.3414
H -5.55242 -0.701664 10.0084
H -4.24028 0.249922 9.80976
O -13.145 13.885 -12.4037
H -13.7944 14.6454 -12.3913
H -12.2473 14.2084 -12.1046
O 11.2113 -4.31145 -9.45687
H 12.1058 -4.34387 -9.01093
H 10.7771 -3.43041 -9.26923
O 8.40539 -14.8409 -7.81639
H 8.78839 -13.996 -8.18986
H 8.19571 -14.7119 -6.84715
O 9.77748 -3.34398 5.90982
H 8.99924 -3.47251 6.52451
H 10.5404 -3.91442 6.21415
O -12.6261 2.90176 13.4133
H -13.2479 3.57951 13.8057
H -13.0563 1.99943 13.4406
O -14.6495 -11.9184 11.276
H -14.6402 -12.8418 11.6598
H 14.8933 -11.9182 10.4206
O -8.27894 -11.4821 -5.90655
H -7.35481 -11.5885 -6.27354
H -8.94483 -11.7916 -6.58536
O 6.22685 -8.09121 -6.97509
H 6.34878 -7.19622 -6.54596
H 6.00684 -7.96958 -7.94299
O 0.840812 -13.602 -8.32378
H 1.38731 -13.34 -9.11922
H 0.586387 -14.5663 -8.39716
O -4.07449 4.56486 -9.90182
H -3.35852 4.68458 -9.21401
H -4.8627 4.11038 -9.48685
O -13.6737 6.26415 12.6815
H -13.5484 5.65219 11.9006
H -13.983 5.73619 13.4725
O -5.99655 -1.51857 -12.6997
H -6.4188 -0.707437 -13.1044
H -5.00404 -1.39932 -12.6726
O -13.058 12.7346 13.5699
H -13.4765 13.3548 12.9064
H -12.6081 11.9836 13.0867
O -5.1122 10.1032 -3.54378
H -6.07602 10.0052 -3.79172
H -4.91611 9.5417 -2.73983
O 4.46799 1.63998 -3.18475
H 3.78726 2.34551 -3.3819
H 4.82852 1.27547 -4.04334
O 14.0281 -4.95859 -14.0734
H 13.1536 -5.42606 -14.2026
H 14.4124 -5.21 -13.1851
O -10.6479 -10.1624 9.70614
H -9.94349 -9.87779 9.05584
H -11.1485 -10.9441 9.33432
O 13.4686 -9.13495 -7.12831
H 14.2122 -9.80311 -7.15348
H 12.717 -9.49336 -6.57447
O -10.8328 -0.842493 8.58762
H -10.5944 0.0889812 8.31273
H -11.817 -0.980958 8.47752
O -0.900063 -4.0037 4.68553
H -0.854225 -4.65499 5.44299
H -0.289889 -4.30241 3.95172
O -8.66755 11.167 -14.4163
H -7.82013 11.5935 -14.7325
H -9.45044 11.6799 -14.7685
O 0.00740939 -10.1315 12.5296
H -0.174955 -10.8022 11.8106
H 0.908884 -9.72379 12.3842
O 11.3365 -7.00129 -0.510473
H 12.1183 -7.28799 -1.06424
H 10.6497 -6.57464 -1.09898
O 1.76913 -9.13515 -8.93998
H 1.44489 -9.91869 -8.40993
H 2.09727 -8.42451 -8.31761
O -2.17345 6.37035 6.00044
H -1.8001 6.44128 6.92543
H -2.63914 5.49164 5.89543
O 3.88374 11.3559 4.30825
H 3.17514 11.051 4.94459
H 4.09559 12.3178 4.48127
O -12.3171 14.7946 5.36706
H -11.8383 14.9863 4.5103
H -13.1416 14.2618 5.17616
O 11.5709 -9.68098 -10.0931
H 12.0282 -8.7962 -10.0029
H 12.2355 -10.4153 -9.95432
O -6.56575 -14.2205 -11.4518
H -5.9265 -14.4509 -10.7181
H -6.42463 -14.8403 -12.2237
O -10.4949 -3.93819 -4.77972
H -10.0608 -3.70352 -5.64946
H -10.7653 -4.9009 -4.79118
O 11.5446 10.7433 1.62498
H 12.0511 10.5983 2.47496
H 11.7265 9.98784 0.995545
O -9.34015 5.73074 -0.134382
H -9.49689 4.79734 -0.457215
H -8.51903 5.7527 0.435964
O -6.70563 4.13431 6.70704
H -6.66176 3.26337 7.1965
H -6.28607 4.0313 5.80516
O 7.69373 8.65802 -5.12148
H 6.91663 9.24119 -4.88474
H 7.68337 7.83948 -4.54711
O 1.47208 0.883092 -5.49293
H 1.10306 0.0253302 -5.85083
H 2.26578 1.15689 -6.03616
O -10.6641 2.02014 -14.6097
H -11.2477 1.45448 -14.027
H -11.2171 2.43724 14.73
O 6.54519 -8.80794 8.75877
H 6.92796 -8.95003 9.67163
H 6.69451 -7.85966 8.47862
O -1.7086 5.8379 13.0112
H -1.57441 5.24561 12.2168
H -0.946638 6.48195 13.0793
O -3.78163 -11.4453 -9.21359
H -2.85056 -11.0833 -9.16772
H -4.3158 -10.9093 -9.86736
O -6.00196 -2.81027 1.95417
H -6.79439 -3.41111 2.05936
H -5.31327 -3.26297 1.38779
O 1.96598 6.96382 7.26973
H 1.20101 6.41183 7.60164
H 2.1544 6.73261 6.31523
O -6.27243 12.8319 -11.436
H -5.27606 12.9147 -11.4561
H -6.65138 13.156 -12.3028
O -2.26753 10.1283 -10.145
H -1.78552 10.3309 -9.29253
H -2.83132 9.31144 -10.0231
O -10.4162 -4.68865 8.85956
H -10.4184 -5.62706 9.2051
H -9.88752 -4.64687 8.01174
O -10.3164 4.39977 4.75599
H -9.60638 3.74794 4.48937
H -11.1316 3.90205 5.05212
O -11.1979 -5.26926 1.54052
H -11.0936 -5.8454 2.35121
H -12.1081 -5.40571 1.14945
O -0.876431 -13.5318 1.43953
H -1.34612 -12.7354 1.82052
H -0.300658 -13.2445 0.674021
O -6.94703 6.59268 -12.9757
H -7.53493 6.10325 -12.3316
H -6.68815 5.98 -13.7224
O 3.31956 13.3066 8.79857
H 3.50659 13.6975 7.89731
H 2.48467 13.712 9.17095
O -14.4005 10.374 -5.40324
H 14.8449 10.9329 -5.2526
H -13.7085 10.9159 -5.88036
O -7.1104 1.39737 -13.1193
H -6.31802 1.85077 -12.7112
H -7.23411 1.72244 -14.0569
O -13.5089 -13.052 -2.70049
H -13.2186 -13.6728 -1.97222
H -13.4989 -12.1116 -2.36062
O -10.3634 -2.10466 2.03532
H -10.364 -2.39471 1.0783
H -10.5034 -2.9002 2.62482
O -10.5497 -10.1987 5.74006
H -11.4176 -9.96264 6.17714
H -10.4933 -9.75086 4.84772
O 4.09138 10.9252 11.3755
H 4.48486 11.6875 11.8894
H 4.63476 10.7627 10.5519
O 13.3031 1.29859 14.4914
H 13.7519 1.26607 -14.6764
H 12.3718 1.64663 14.5988
O 7.20745 -7.42096 -0.629366
H 7.62998 -8.30068 -0.411254
H 7.12659 -7.32692 -1.62166
O 12.9355 -10.9846 12.0915
H 13.803 -11.0404 12.5859
H 12.5958 -11.9073 11.9093
O -3.08108 9.04577 12.1063
H -3.80674 8.46737 12.479
H -2.64336 9.55178 12.8495
O 12.3574 -10.5444 8.67181
H 12.5503 -9.63419 9.03842
H 13.2016 -11.0798 8.64786
O -13.3228 7.94229 -4.42956
H -14.1918 7.48374 -4.24375
H -13.4967 8.81079 -4.89374
O 7.38656 11.0475 3.69782
H 7.15506 10.6679 2.80211
H 7.9194 11.8851 3.57721
O -14.082 14.6208 11.5526
H -13.3976 14.313 10.8917
H -14.9975 14.4394 11.1934
O 1.55491 14.7345 -12.844
H 2.26717 15.0141 -12.2002
H 1.95911 14.5938 -13.7478
O 1.63212 3.38531 7.67565
H 0.992263 2.61985 7.74396
H 1.36366 3.97736 6.91575
O -2.33705 13.0832 10.6852
H -2.87425 13.0185 11.5262
H -2.32667 14.0316 10.3684
O 9.57693 -12.2869 -5.63051
H 10.5621 -12.2695 -5.45992
H 9.22115 -13.2011 -5.43628
O 5.77817 3.74599 -10.986
H 5.12794 3.61677 -11.7347
H 5.79706 4.7108 -10.7238
O -8.13656 -6.7921 9.22975
H -8.9753 -7.05466 9.70682
H -8.11448 -7.22795 8.32999
O -2.9585 -3.13548 -6.49565
H -3.72192 -3.5418 -6.99776
H -2.099 -3.36668 -6.95154
O -2.86322 -5.24518 8.64343
H -3.24999 -4.33389 8.78477
H -3.5804 -5.86633 8.32745
O -2.72314 -14.7833 -12.1266
H -1.89868 14.8337 -11.7755
H -3.35739 -14.6137 -11.3723
O -7.44336 -7.83121 3.47605
H -7.01051 -8.06512 4.34666
H -6.73783 -7.66298 2.78761
O -4.9413 8.1693 14.3357
H -4.58011 7.38839 14.8454
H -5.94037 8.16193 14.3784
O -7.15061 -11.8293 12.8827
H -7.97591 -11.4709 12.4463
H -6.46269 -12.026 12.184
O -0.232935 -0.773785 -12.4026
H -0.756674 -0.44865 -11.6152
H 0.304751 -1.57426 -12.1377
O 2.81172 -4.90073 5.47286
H 2.24755 -5.17431 4.69383
H 3.62734 -5.47796 5.51276
O -13.1766 -11.1009 -11.3288
H -12.3756 -11.3402 -11.8776
H -12.8967 -10.5144 -10.5686
O -10.8428 -4.06799 -13.6985
H -9.87156 -3.97703 -13.4784
H -11.0047 -4.95448 -14.132
O -6.68327 -8.24976 -1.58485
H -6.65794 -7.28372 -1.32766
H -5.96046 -8.43662 -2.25018
O -0.616435 -6.44891 -10.4506
H 0.322354 -6.72928 -10.2504
H -1.25386 -7.05105 -9.96983
O -10.2157 -6.98958 -6.52601
H -11.0337 -6.99365 -7.10124
H -9.49304 -6.46663 -6.97796
O -12.7066 9.49761 -13.5837
H -12.4765 9.2368 -14.5213
H -13.3947 10.223 -13.5989
O -12.188 5.37648 -4.01696
H -11.6774 5.2545 -4.86808
H -12.4764 6.3305 -3.93509
O 7.08084 9.41499 10.2351
H 6.27207 8.83712 10.3445
H 7.3611 9.41775 9.27515
O 3.55923 5.19967 -1.74106
H 4.07636 4.44792 -1.33184
H 3.50924 5.96074 -1.0943
O 3.69462 4.10174 -4.22342
H 4.27017 4.52362 -4.92398
H 3.65461 4.69786 -3.42151
O -12.6628 2.86106 -12.193
H -13.5839 2.61782 -12.4972
H -12.4747 2.42097 -11.3149
O 9.4561 -6.99803 7.61093
H 8.50672 -6.68559 7.57788
H 9.544 -7.852 7.09806
O 12.3264 -12.3252 -4.99813
H 12.6603 -12.4805 -4.06842
H 13.0164 -12.6287 -5.65522
O -14.7296 -3.84393 -10.769
H -13.7483 -3.66712 -10.6917
H -14.885 -4.82773 -10.8585
O -13.8021 6.77089 7.66882
H -14.0192 7.73424 7.51131
H -12.9528 6.70192 8.19234
O 5.98612 -13.2343 11.2667
H 6.2883 -13.9521 10.6394
H 6.68111 -13.0936 11.9719
O 10.7567 -1.45037 3.78164
H 10.4288 -2.24916 4.28603
H 11.7242 -1.30113 3.98617
O -4.42668 6.02117 12.5394
H -3.4267 6.01809 12.5319
H -4.75278 6.64433 13.2503
O 3.40426 9.91432 1.91463
H 3.57294 10.3569 2.79535
H 2.43288 9.98359 1.6874
O -1.50256 -3.49645 12.7547
H -2.39033 -3.63442 12.3155
H -1.63974 -3.25835 13.7162
O 9.00415 5.38453 8.06268
H 8.15736 5.64345 7.598
H 8.78656 4.84335 8.87496
O 14.1728 1.38787 3.19336
H 13.8455 2.00012 3.91312
H -14.8935 1.30336 3.25441
O -9.19656 6.36217 3.25972
H -9.56032 5.74398 3.95654
H -9.1999 7.29866 3.61044
O -14.3465 -5.8624 -6.64578
H -13.7331 -5.27419 -6.11866
H -13.8343 -6.64392 -7.00201
O -8.8084 -10.8422 7.72685
H -8.27562 -11.6766 7.58523
H -9.52656 -10.7836 7.03344
O -13.6946 -5.8909 8.37457
H -13.8056 -5.6073 7.42205
H -13.6015 -5.08164 8.9546
O -5.64639 4.43298 10.7614
H -6.448 4.93075 10.4302
H -5.12375 5.01776 11.3818
O -12.6014 3.23958 -2.24768
H -12.9838 3.64902 -1.41931
H -12.5031 3.94251 -2.95214
O -8.32634 12.8363 -4.1576
H -9.0083 12.6165 -3.45998
H -8.65949 12.5426 -5.05358
O -2.93697 5.58896 -7.01602
H -3.79333 5.29382 -6.59228
H -2.19785 5.53808 -6.34435
O 10.2835 -9.49244 11.6027
H 11.1056 -10.0589 11.6608
H 10.5463 -8.53396 11.4918
O -0.705294 7.06535 -9.57211
H -0.996662 7.05976 -10.5287
H -1.13511 7.83333 -9.09724
O 10.339 2.35063 -0.379521
H 10.5605 1.39543 -0.575886
H 11.1315 2.9253 -0.583607
O -9.80361 -5.48903 6.22981
H -9.62874 -6.41512 6.56419
H -10.4998 -5.51953 5.51258
O -12.9316 1.85343 8.61769
H -13.0312 2.41591 9.43849
H -13.2281 0.919182 8.81582
O 3.87878 -13.0115 -3.64444
H 3.58692 -12.0615 -3.53298
H 3.81243 -13.2697 -4.60827
O -7.67759 -6.68982 -13.779
H -8.48496 -7.27666 -13.8406
H -7.93433 -5.81077 -13.3772
O -4.98849 8.58348 5.29459
H -5.61882 8.33678 4.55849
H -4.04644 8.47661 4.97655
O -6.03701 11.5271 -7.16761
H -6.65978 11.9992 -6.5437
H -6.5558 11.152 -7.93587
O 13.5351 -12.9155 -0.24903
H 12.9159 -12.1386 -0.134873
H 13.4622 -13.5193 0.544779
O 12.5913 -7.56381 13.6366
H 12.4212 -6.88293 14.349
H 12.6116 -7.11402 12.7437
O -1.73008 -6.15651 2.56291
H -2.00668 -5.2356 2.83758
H -1.97589 -6.30667 1.60529
O -7.15004 5.56992 1.45308
H -7.86713 5.82031 2.10354
H -7.23167 4.59992 1.22404
O 2.84944 7.21361 9.79049
H 2.61866 7.3812 8.83201
H 2.50842 6.31393 10.0631
O 6.08386 -7.33634 14.6604
H 5.17 -6.93715 14.7348
H 6.02014 -8.23708 14.2307
O -7.56387 5.56644 8.89314
H -7.20077 4.83445 8.31662
H -7.09032 6.42189 8.6834
O 4.91346 4.00966 -7.72025
H 5.27199 3.74185 -8.61454
H 4.31129 4.80101 -7.82592
O 9.66284 -7.87034 -5.41458
H 10.3495 -8.57237 -5.60365
H 8.77193 -8.3036 -5.27827
O -8.93362 12.7517 6.72449
H -9.0609 12.0009 7.37265
H -9.25345 12.4691 5.82012
O -5.07639 -14.7014 8.41194
H -4.91758 -14.4052 9.35381
H -5.74531 14.6162 8.40455
O -8.95439 11.7599 -6.7377
H -8.89356 10.7723 -6.88199
H -9.42355 12.1819 -7.51352
O -9.76656 -9.18847 12.8961
H -8.8697 -9.08948 12.465
H -9.87756 -8.48641 13.5995
O 0.880108 -1.52645 14.4574
H 0.0402566 -1.75808 14.9484
H 1.52321 -2.28981 14.5185
O 6.00469 -12.1352 6.24555
H 5.2894 -12.4635 6.8625
H 6.72784 -11.6951 6.77788
O -6.35765 -1.27697 -9.67663
H -6.84198 -0.456879 -9.37183
H -6.43625 -1.36063 -10.67
O 4.98273 12.9826 -7.0786
H 4.44509 13.1212 -6.24688
H 5.05601 13.8471 -7.57603
O -9.11623 7.48909 13.3245
H -8.71969 7.83772 14.1738
H -9.26122 6.50289 13.4046
O 4.06713 -4.42482 -3.39626
H 3.59495 -4.10548 -4.21789
H 3.55516 -5.18207 -2.99068
O 11.4892 8.7273 8.8164
H 11.0032 8.38191 8.01353
H 12.1969 8.0736 9.08444
O 8.1801 -11.1794 7.45152
H 8.72621 -10.3457 7.53282
H 8.78681 -11.9739 7.42348
O 9.26712 -0.170444 7.49987
H 9.09195 0.592377 6.87742
H 8.96236 -1.02333 7.07591
O -5.83492 7.69403 0.965098
H -6.00065 8.3211 1.72625
H -6.3091 6.83025 1.13555