2593
Atoms. Timestep: 1000000
O 3.3459 -11.6692 11.5563
H 3.18799 -11.6131 10.5704
H 4.32554 -11.7668 11.7319
O -2.13394 9.61487 11.5474
H -1.62882 9.06655 10.8809
H -2.72566 9.01841 12.0898
O 7.14065 5.23676 11.7668
H 7.07829 5.28761 10.77
H 7.80952 4.53917 12.0238
O 5.40415 12.5137 5.71503
H 5.05333 12.1823 4.83916
H 5.9199 11.7846 6.1649
O 6.95597 -1.50944 3.79934
H 5.9946 -1.23958 3.74466
H 7.11921 -2.28634 3.19121
O -10.6859 -11.9584 -8.17318
H -10.5968 -10.963 -8.13907
H -10.5421 -12.274 -9.11114
O -8.83284 -5.80727 1.017
H -8.33406 -6.65221 1.21026
H -9.64372 -6.01646 0.470407
O -5.67188 3.47934 -5.67434
H -5.89964 4.17089 -4.98882
H -6.46197 3.32531 -6.2677
O -5.64915 -12.2842 1.98584
H -5.00437 -12.2542 1.22203
H -5.68493 -11.3876 2.42726
O -1.09056 13.2625 -5.84314
H -0.76486 13.9384 -5.182
H -0.811139 12.3481 -5.55014
O -11.1889 -4.21816 12.1051
H -10.7211 -3.76715 11.345
H -11.3478 -5.17853 11.876
O -3.92651 -9.28723 -5.70541
H -4.00561 -8.80706 -6.57904
H -4.54282 -10.0748 -5.70091
O 11.1424 -13.5937 -8.46224
H 10.7137 -13.6366 -7.55978
H 12.1325 -13.6963 -8.36614
O -0.706599 4.11547 6.90852
H -0.132249 3.4716 6.40295
H -0.577673 3.97712 7.8905
O -1.92245 14.4331 11.7249
H -2.52943 -14.6948 11.3459
H -1.13525 14.874 12.1562
O -4.81081 -12.2416 14.7107
H -5.60419 -12.5399 14.18
H -3.97247 -12.5207 14.2424
O 9.63818 -13.7444 14.7878
H 9.45751 -12.8142 14.4682
H 10.5442 -13.7819 -14.617
O 0.24741 7.03041 -9.74678
H 0.701479 7.62731 -10.4083
H 0.564069 6.09038 -9.87375
O 13.2951 -10.2682 -4.33188
H 13.769 -9.3904 -4.40181
H 12.7973 -10.4469 -5.18063
O -10.2371 11.7003 -5.6552
H -10.3734 11.3971 -6.59836
H -10.9434 12.3658 -5.41362
O 4.62278 5.22965 -2.10489
H 4.58289 4.3664 -1.60164
H 3.79147 5.75687 -1.92877
O -7.84921 -3.06401 -5.77148
H -8.08674 -4.02806 -5.6521
H -6.92288 -2.90423 -5.43028
O -5.46549 -14.9127 -5.00968
H -6.40709 14.5868 -5.09032
H -5.42745 -14.1669 -4.34451
O 6.86706 8.52404 -12.2743
H 6.14608 8.80908 -11.6427
H 7.32894 9.33232 -12.6396
O 8.82733 -12.2958 7.11429
H 8.72469 -11.5941 6.40924
H 7.97381 -12.8099 7.19971
O 9.16639 1.08451 14.4754
H 9.50323 0.953221 13.543
H 9.91794 0.956127 -14.704
O 13.582 5.61272 3.07686
H 13.6306 6.32137 3.78079
H 13.2128 4.77269 3.47446
O -2.41409 7.97501 -4.03615
H -2.75736 7.26754 -3.41834
H -3.17509 8.54537 -4.34539
O -0.541491 -2.57517 -13.6427
H 0.213056 -2.75459 -13.0114
H -0.512046 -1.61901 -13.9341
O 9.22627 -0.366298 0.543779
H 9.34054 -1.3593 0.513175
H 9.92198 0.0309918 1.14228
O -14.3376 0.426311 1.19245
H -13.4178 0.0417504 1.11384
H -14.278 1.36802 1.52364
O -12.1108 10.1841 -0.939061
H -11.9815 11.057 -0.468549
H -11.8394 10.2783 -1.89693
O 11.5661 12.3526 11.7728
H 11.682 12.7431 12.6862
H 11.5993 11.3548 11.8302
O 6.02819 -0.916156 14.1285
H 5.95655 -0.465349 13.2387
H 6.10804 -0.225039 14.8468
O 3.84968 -13.5737 -9.17517
H 4.12864 -13.1922 -10.0565
H 4.35918 -13.1245 -8.4412
O -3.56455 -2.42041 2.98735
H -3.66195 -2.5688 3.9715
H -2.83413 -3.00429 2.63291
O -12.9438 14.626 10.9713
H -13.072 13.6583 11.1887
H -13.8175 -14.8035 10.69
O 11.1823 12.1485 -5.21216
H 11.6406 12.8319 -5.78055
H 11.1471 12.4711 -4.26624
O 1.53894 4.53853 -9.46076
H 1.59026 4.27508 -10.4241
H 1.62114 3.72332 -8.88742
O 14.5063 8.61425 7.38404
H -14.6783 9.03957 6.74598
H -14.849 8.40465 8.24081
O 2.71242 6.66939 -4.60913
H 2.22691 6.27951 -5.39164
H 3.04407 7.58307 -4.84416
O 2.53887 12.8382 -3.58217
H 3.49998 13.1008 -3.4964
H 2.06862 13.4858 -4.18182
O -9.44097 4.86549 -6.39873
H -10.1909 5.38765 -5.99247
H -8.9823 4.33257 -5.68763
O -11.4627 -0.684781 1.35948
H -10.8255 -0.644133 2.12921
H -10.9499 -0.79168 0.507628
O -6.03043 -12.1882 9.66228
H -5.76762 -11.5929 10.4216
H -6.15246 -11.6394 8.83527
O -14.709 9.14237 -13.7142
H -13.7748 9.38364 -13.4511
H -14.9106 9.52457 -14.616
O 14.0055 -2.0102 0.538853
H 13.3932 -2.16712 1.31381
H 14.5031 -1.15359 0.675343
O 5.39561 -10.2552 6.77233
H 5.46084 -9.25846 6.82054
H 5.0007 -10.6049 7.62193
O -5.37621 10.4463 6.07852
H -4.54777 10.1709 6.56625
H -5.40339 11.4432 6.00418
O -5.75099 -6.8956 -8.53965
H -5.98882 -7.21762 -9.45605
H -5.26514 -7.61831 -8.04804
O 1.62064 10.194 8.72197
H 2.51433 10.6298 8.82901
H 0.9126 10.8972 8.65655
O -5.10579 2.28778 0.672406
H -4.96481 1.53006 1.3096
H -5.96265 2.15036 0.175457
O -5.40816 -1.36481 0.632281
H -5.15418 -0.791652 -0.146845
H -4.65358 -1.38928 1.28808
O 7.38939 -6.1622 4.16393
H 8.30564 -6.0748 4.55495
H 7.223 -5.40511 3.53212
O 12.4359 -12.0964 12.7455
H 12.7772 -11.3692 13.341
H 12.2653 -11.7267 11.8321
O 9.67866 -1.01801 -9.20733
H 9.23828 -1.58882 -9.90037
H 9.43194 -1.34941 -8.29664
O -1.60828 3.57383 -10.6715
H -2.09411 4.42116 -10.8861
H -0.717831 3.57575 -11.1266
O 12.1543 -0.44505 -5.53004
H 12.1872 -0.711923 -4.56684
H 12.7029 -1.08232 -6.07137
O -0.564713 4.23011 9.47268
H -0.667893 4.97085 10.1365
H -1.04914 3.41895 9.80038
O -11.9483 13.6179 14.6074
H -11.8922 13.7122 13.6134
H -11.9257 14.524 -14.7965
O 3.32763 6.86418 10.6529
H 3.34709 6.50362 11.5855
H 3.08323 6.13176 10.0174
O 12.1031 -8.29374 8.95774
H 11.3249 -8.91072 8.84031
H 12.4452 -8.01425 8.06059
O 13.5234 -0.879354 6.22049
H 13.5819 -0.105003 6.85058
H 14.2366 -1.54431 6.44242
O -5.43811 13.1363 5.40141
H -4.6958 13.7495 5.67159
H -5.4879 13.0927 4.40358
O 8.85052 -9.38439 4.53638
H 9.22347 -9.26194 3.61662
H 7.99869 -9.90565 4.48398
O -9.20559 13.2074 3.90125
H -8.82426 13.817 3.20621
H -8.82447 12.2901 3.78545
O -12.4658 2.7981 -12.8108
H -11.562 2.88826 -12.3925
H -12.898 3.69812 -12.868
O -8.13054 10.2315 -4.72182
H -7.67192 10.8672 -4.10084
H -8.89449 10.6959 -5.16984
O 3.90727 13.5215 7.76527
H 4.39116 13.2823 6.92345
H 3.46917 14.4138 7.65582
O 3.58014 10.2474 14.1719
H 4.05154 9.40959 14.4473
H 3.60604 10.3324 13.1758
O -0.808767 -2.91535 6.41494
H -1.72952 -3.26255 6.59306
H -0.140061 -3.48118 6.89736
O 3.12995 9.42231 0.257782
H 3.93007 9.25615 -0.318628
H 2.70689 10.2906 -0.00147327
O 11.2481 -6.64989 -12.3371
H 10.9371 -6.47365 -13.2711
H 12.1168 -6.1798 -12.1808
O 13.2295 -10.9095 7.30365
H 12.6109 -11.686 7.42422
H 12.9442 -10.3767 6.5069
O -3.56945 8.72678 -13.1489
H -3.19887 9.62718 -13.3769
H -3.70115 8.66128 -12.1597
O -13.9226 13.5009 4.55077
H -13.4861 13.7412 5.41783
H -13.8471 14.2693 3.91531
O -8.29024 -13.8842 10.4294
H -7.65964 -13.2493 9.983
H -8.21349 -14.7854 10.0027
O 11.2065 6.44663 -5.52473
H 11.1261 7.4035 -5.24548
H 11.5422 5.90216 -4.75603
O 3.88498 -7.57129 -6.20001
H 3.32733 -8.39816 -6.27327
H 3.4491 -6.93019 -5.5683
O 10.1086 -5.98854 2.50825
H 9.26569 -5.66692 2.07683
H 10.2096 -5.5574 3.40489
O -12.875 3.65594 -6.46802
H -13.4151 2.99367 -5.94871
H -12.0104 3.23671 -6.74531
O -11.9913 -12.3603 0.245926
H -11.4609 -11.7067 -0.294038
H -12.1139 -12.0051 1.17269
O 5.0973 12.2721 -10.8447
H 4.45631 12.0639 -11.5835
H 4.71407 11.9635 -9.97412
O 10.5327 0.88425 2.68314
H 11.4533 0.774965 3.05793
H 9.86419 0.85081 3.42615
O -2.35804 -6.02534 6.82862
H -2.87611 -6.31272 6.02298
H -2.6561 -6.5548 7.6229
O -8.37713 5.41795 -12.3694
H -9.18375 5.96516 -12.1459
H -8.06331 4.93695 -11.5508
O 12.6081 14.875 -4.89511
H 11.9734 -14.454 -5.48654
H 12.9764 -14.3297 -4.20389
O -13.5068 0.429022 -1.46485
H -14.3024 0.557381 -0.872812
H -13.1578 1.32102 -1.75229
O 8.61392 10.4916 -13.2351
H 9.21805 10.1101 -13.9348
H 8.39013 11.438 -13.468
O 13.5473 -5.36251 -11.8896
H 14.009 -4.66791 -11.3378
H 13.8124 -5.25714 -12.8481
O -8.89615 -6.85528 -2.38313
H -8.22885 -7.48447 -1.98454
H -9.61753 -6.66814 -1.71632
O 13.6861 -2.56207 -6.40115
H 13.8618 -2.95662 -5.4992
H 14.5546 -2.3222 -6.83499
O 0.489747 6.86979 13.3554
H -0.0435905 7.64586 13.692
H 0.333742 6.7588 12.3739
O 9.70939 4.09704 -5.58942
H 10.3049 4.88819 -5.72903
H 8.75361 4.38939 -5.62203
O 5.65547 -12.1179 -7.31758
H 5.8788 -12.0281 -6.34697
H 6.49813 -12.1065 -7.85595
O -13.4313 11.099 3.22562
H -13.3069 11.1546 2.23492
H -13.7184 11.9905 3.57608
O -2.92329 2.50883 10.1894
H -3.89094 2.75634 10.14
H -2.64906 2.42575 11.1475
O 12.2945 11.9818 3.06941
H 12.7139 12.4705 3.83446
H 11.3537 11.738 3.30518
O 13.7512 1.70336 -2.0641
H 13.1758 1.03224 -2.53153
H 13.4483 1.79943 -1.11593
O 4.26646 -3.07349 14.4226
H 4.94185 -3.80789 14.3551
H 4.73607 -2.19156 14.4642
O -14.0371 11.9789 -14.1655
H -13.3238 12.4454 -14.6886
H -14.5395 11.3579 -14.7671
O 6.61717 -2.09111 11.088
H 6.16637 -2.98343 11.064
H 7.35223 -2.10716 11.7658
O -6.98059 -0.220861 14.1656
H -7.22356 -0.838764 13.4177
H -6.19743 -0.592643 14.664
O -7.23694 4.36224 8.05212
H -7.12823 5.34317 8.21337
H -7.97149 4.21264 7.39023
O 4.34738 3.96194 3.3257
H 3.87255 3.89066 2.44849
H 4.47356 4.92614 3.55903
O 8.60712 -7.82077 6.88348
H 8.42042 -8.39348 6.08523
H 8.73939 -8.40152 7.68678
O 12.0578 13.3956 -1.93684
H 12.8387 13.705 -2.47942
H 12.3685 12.7389 -1.24967
O 13.4627 0.160652 11.7373
H 13.8455 0.858229 12.343
H 14.1895 -0.219067 11.1649
O -5.06461 -1.78499 -7.0118
H -4.82041 -2.72869 -7.23504
H -4.23742 -1.22356 -6.9871
O 9.95013 2.80057 5.52008
H 10.1642 1.8253 5.4647
H 8.95968 2.92799 5.46701
O -14.5762 -0.147257 -9.93513
H -14.4108 0.0133385 -10.9082
H -13.9497 0.413327 -9.39356
O -1.16049 6.14577 -12.5734
H -1.98621 6.28791 -12.0275
H -0.985412 6.95756 -13.1306
O 7.01469 1.25152 0.123208
H 7.73883 0.566301 0.201649
H 7.4031 2.16355 0.25506
O 9.84058 -8.88764 2.10038
H 10.2688 -8.05815 2.45899
H 10.4345 -9.29656 1.4075
O -0.498787 8.4359 9.57832
H -0.641053 7.95697 8.71204
H 0.336055 8.98367 9.52317
O -6.02778 -9.84409 11.6575
H -6.40737 -8.91913 11.6776
H -5.41408 -9.96948 12.4371
O 9.49598 -6.50393 -10.2983
H 10.1726 -6.48722 -9.56207
H 9.93402 -6.80059 -11.1469
O -2.21739 7.82766 1.89765
H -1.89296 6.89811 1.72235
H -2.92768 8.06344 1.23436
O -0.538738 -7.74105 -2.46343
H -0.994032 -8.53655 -2.86337
H -0.495282 -7.00646 -3.14058
O -4.477 -5.64395 -11.3326
H -3.63768 -6.10705 -11.0478
H -5.21731 -6.31205 -11.4077
O -6.14919 -1.93211 10.1843
H -6.7662 -1.3516 10.7156
H -5.83908 -1.43494 9.37391
O -12.0232 -13.6177 -6.70448
H -11.4982 -12.8552 -7.08273
H -12.4682 -14.1171 -7.44779
O 4.72396 -12.0299 -11.1428
H 4.31371 -12.3185 -12.0079
H 5.70753 -11.8992 -11.2675
O -8.7009 -5.60013 -4.82349
H -9.50595 -5.78801 -5.38621
H -8.81514 -6.0255 -3.92568
O -9.97709 11.5697 -13.6371
H -10.2703 12.2567 -14.302
H -9.19961 11.0599 -14.0053
O -1.70979 -4.33523 -8.88385
H -1.31987 -5.08114 -9.42387
H -1.08829 -4.1058 -8.13475
O 10.8898 8.94369 -4.67568
H 10.9828 9.59656 -5.42744
H 9.95045 8.96154 -4.33302
O 6.25013 -4.80736 14.8474
H 6.98678 -4.20839 -14.665
H 6.28184 -5.66873 -14.472
O 8.90799 -2.3846 12.8088
H 9.88377 -2.56257 12.9362
H 8.47854 -2.22911 13.6984
O -3.46238 0.937711 6.35754
H -2.8251 0.965576 5.58737
H -4.09891 1.70616 6.29144
O -12.4629 -4.24392 -14.4701
H -11.9677 -4.46645 14.5165
H -12.1322 -4.82284 -13.7248
O 13.2533 11.8302 0.409564
H 13.5187 10.8661 0.421524
H 12.6619 12.0229 1.19264
O -3.54033 12.5617 7.99941
H -3.05301 12.7041 8.86098
H -2.99467 11.9753 7.40078
O -8.08719 -11.8813 5.96828
H -7.29974 -12.4664 6.1623
H -8.91637 -12.3076 6.32986
O -3.54958 5.54291 -11.7097
H -4.21227 5.71835 -10.9816
H -3.93607 4.89109 -12.3622
O -7.64162 8.71118 -7.06916
H -7.11378 9.21528 -7.75277
H -7.84568 9.31189 -6.29615
O -0.34076 10.4854 -5.41144
H -0.586192 9.94161 -4.60886
H 0.654523 10.5634 -5.46954
O -0.314361 0.0927257 -13.1396
H 0.412441 0.331729 -12.4957
H -0.0527905 0.382932 -14.0602
O -0.851321 -3.61493 -6.18549
H -0.517413 -2.71569 -6.46822
H -0.0753941 -4.23092 -6.04933
O 6.57146 -10.787 4.42919
H 6.09276 -10.6373 5.29434
H 6.50974 -11.7527 4.17688
O -13.2242 -11.4692 -12.7476
H -13.0452 -10.9002 -13.5503
H -12.6985 -11.1237 -11.9702
O -7.597 8.19176 5.71445
H -6.70557 7.79961 5.48724
H -7.48453 9.1542 5.96166
O 2.62315 6.73011 -12.2974
H 3.37144 6.54699 -11.6598
H 2.86071 6.37406 -13.2012
O 4.21613 12.2631 -13.9396
H 4.02398 11.4053 -14.4164
H 4.77357 12.8521 -14.5247
O 8.134 -6.10737 -6.44561
H 7.6853 -6.90173 -6.03607
H 8.8096 -6.41485 -7.11573
O -4.66275 9.22839 -5.46016
H -4.27805 9.36594 -6.37292
H -5.4929 8.67498 -5.52825
O 7.67643 -14.883 1.7535
H 8.11218 14.0454 1.81396
H 7.72132 -14.4301 2.64396
O -7.02068 14.2754 2.04183
H -6.58707 14.1907 1.14469
H -7.57891 -14.7217 2.06531
O 6.8821 5.1427 8.86378
H 7.73936 5.12331 8.34921
H 6.13265 4.8411 8.27436
O 6.10204 -2.56531 6.4462
H 6.66403 -2.40614 5.63449
H 5.41051 -1.8466 6.519
O 11.4701 10.2518 -7.31607
H 10.748 10.1386 -7.99858
H 11.2778 11.0592 -6.75814
O -4.93622 7.95902 0.863791
H -5.75069 7.70884 0.340236
H -4.9278 7.45568 1.72787
O -7.60169 0.0226339 11.276
H -7.86367 0.228385 10.3331
H -7.92058 0.75482 11.8779
O 5.28293 5.51575 -12.4829
H 4.68032 5.52449 -13.2809
H 6.11147 6.03793 -12.6851
O 10.3276 13.4322 -11.7258
H 9.36642 13.1585 -11.7607
H 10.39 14.4303 -11.721
O 9.85331 11.2576 -0.787691
H 9.59964 10.4354 -0.278182
H 10.6482 11.0619 -1.36205
O -13.6778 -4.60931 0.775178
H -12.8901 -4.35044 0.216126
H -13.8497 -3.89923 1.45803
O 3.57761 6.59837 -9.31481
H 2.99416 7.25693 -8.83948
H 3.07411 5.74535 -9.45224
O -13.3228 -4.31451 8.48153
H -12.9662 -3.45891 8.85689
H -13.9637 -4.72231 9.13185
O 10.4645 13.6694 7.4761
H 10.4511 13.5929 6.4791
H 9.53685 13.8368 7.81007
O 4.23551 -0.956496 3.40248
H 3.27741 -0.697474 3.52498
H 4.38839 -1.22857 2.4524
O -10.9592 -5.22232 7.3979
H -11.8736 -5.00568 7.74001
H -10.3272 -4.48892 7.64835
O -6.95441 -14.0054 -1.11526
H -7.75004 -14.2862 -1.65208
H -6.40711 -14.81 -0.884634
O -7.59509 -2.38338 1.95553
H -7.42597 -2.79909 2.84919
H -6.91544 -1.6697 1.78591
O 6.53487 -1.81889 -9.15884
H 6.29094 -1.95695 -10.1188
H 7.22027 -2.49506 -8.88851
O -10.2349 -13.0301 -10.634
H -9.65329 -13.1185 -11.4427
H -11.0142 -13.6517 -10.7143
O -3.91004 0.236496 2.56754
H -4.33267 0.705699 3.34297
H -3.54791 -0.645631 2.86881
O -10.3943 -7.44735 13.2284
H -11.1334 -7.26686 12.5794
H -9.86354 -8.23611 12.9182
O 6.89042 3.95158 -3.02029
H 6.03396 4.35594 -2.6993
H 7.19602 4.42865 -3.84434
O -5.3863 11.4433 13.281
H -4.80882 12.2559 13.3605
H -5.83674 11.4406 12.3881
O -3.57817 -11.5364 -2.49285
H -4.48627 -11.8956 -2.70824
H -3.66996 -10.7047 -1.94512
O -7.0515 10.4029 -12.2298
H -6.86062 9.7709 -12.981
H -7.50849 9.9112 -11.4886
O -3.76759 11.506 -4.13077
H -3.88972 12.19 -4.84996
H -4.12077 10.6249 -4.44535
O -6.10842 -12.6932 -10.5951
H -7.02701 -13.0269 -10.8071
H -5.5286 -13.462 -10.3253
O 10.6512 -7.7132 -1.91179
H 10.8632 -8.62277 -1.55436
H 10.6283 -7.74474 -2.91106
O 8.98425 13.1461 14.7882
H 9.11967 14.1368 14.8061
H 9.77452 12.7094 14.3583
O 6.67163 10.9596 11.9013
H 6.20421 10.2973 12.4869
H 6.08462 11.7579 11.7664
O -0.635929 11.8359 -11.5886
H 0.333008 12.0697 -11.6695
H -0.762777 11.1993 -10.8278
O 14.3911 2.87262 -7.29417
H 14.6428 3.20425 -8.20342
H 14.8323 3.43973 -6.59863
O -7.83465 2.81507 -7.58987
H -8.68353 2.951 -7.07901
H -7.34596 2.02484 -7.22006
O -11.2504 5.05297 9.14773
H -10.4053 4.72379 8.72631
H -11.9418 4.33118 9.116
O -7.24596 -13.0467 13.4234
H -7.23744 -13.3348 12.4658
H -8.19156 -12.9449 13.7325
O -14.5219 10.0145 -4.32151
H -13.9248 10.3282 -5.05982
H -14.6198 10.7405 -3.64073
O 4.75061 11.9157 3.0522
H 4.95575 12.0026 2.07731
H 3.85382 12.3158 3.24109
O -5.2688 14.6176 8.39623
H -4.83162 13.7777 8.07453
H -6.19393 14.4109 8.71477
O 7.36467 3.68717 3.74099
H 6.70023 3.56754 3.00325
H 7.86683 4.54076 3.60214
O -14.6454 -4.94518 10.7008
H 14.3116 -4.96985 10.2074
H -14.8062 -4.65877 11.6453
O 2.7451 13.2298 0.819695
H 2.89068 14.1571 0.474794
H 2.38956 12.6527 0.0844502
O 0.0872649 -6.43171 -9.51254
H 0.896212 -5.98908 -9.89949
H 0.307462 -6.79618 -8.6077
O 13.862 9.02992 -7.95745
H 13.587 8.11525 -8.25377
H 13.0498 9.60297 -7.84772
O 6.55883 -13.7538 7.42946
H 6.50987 -14.356 6.63263
H 6.7959 -14.2908 8.23908
O 3.47114 5.47774 -14.6704
H 4.00118 5.64895 14.3256
H 2.58604 5.08204 14.911
O -0.756056 -8.52461 7.37344
H 0.195956 -8.28379 7.18442
H -1.36053 -7.84347 6.96026
O 14.4555 10.509 10.7941
H 13.5107 10.7217 11.0432
H 14.5002 9.58499 10.4144
O 11.5864 -3.67922 -7.45021
H 11.4263 -2.99252 -8.15932
H 12.4744 -3.51412 -7.02081
O 7.28012 6.31331 0.923522
H 7.5753 6.32359 1.87893
H 6.61855 7.04758 0.771129
O -8.2156 -0.277643 -4.39322
H -9.16043 -0.293804 -4.72048
H -7.97148 -1.17881 -4.03497
O 13.4095 0.614854 3.22493
H 13.6294 -0.0361151 3.95152
H 14.0934 0.547065 2.49845
O 5.14799 8.40011 6.98629
H 5.24476 8.10803 7.9378
H 4.18004 8.40222 6.73506
O 7.73118 4.623 -7.7814
H 8.44844 5.31585 -7.85595
H 8.12149 3.71903 -7.95618
O -9.26742 6.1753 14.8515
H -9.05716 5.92109 -14.031
H -8.45932 6.58576 14.4289
O -1.43933 -4.85982 -2.98687
H -2.13057 -4.14311 -3.07943
H -1.52588 -5.29248 -2.08945
O 13.6316 4.42686 11.9925
H 14.5978 4.39242 12.2478
H 13.1045 4.83677 12.7369
O 11.8818 2.12299 -0.284794
H 11.407 1.72986 -1.07223
H 11.2703 2.75441 0.192037
O 11.7644 5.57932 13.9885
H 12.6157 5.97499 14.3332
H 11.1712 5.34264 14.758
O 3.07979 -13.3689 4.59375
H 2.55775 -13.1024 3.78351
H 3.06969 -12.6211 5.25763
O 13.9073 9.19288 3.22744
H 13.8922 10.1742 3.41938
H 13.9629 9.04726 2.23964
O -11.5502 -3.70713 -1.14909
H -10.751 -3.15676 -0.907418
H -12.198 -3.14587 -1.66423
O 5.0594 8.85853 -10.2508
H 4.22696 9.41066 -10.2983
H 4.88895 8.04576 -9.69369
O -4.08112 -6.38904 4.57229
H -3.45361 -5.85263 4.00788
H -4.9989 -5.99588 4.51614
O -4.50342 3.15019 -13.2229
H -5.26472 2.65737 -12.8015
H -3.79967 2.49814 -13.5051
O 0.544224 -13.733 -1.316
H 1.34877 -13.9227 -0.753165
H 0.388419 -12.7459 -1.35287
O -13.3132 12.1018 11.3847
H -12.6088 11.569 11.8536
H -14.0469 11.4925 11.0837
O -12.8452 -9.43361 9.72426
H -13.7076 -9.33879 10.2215
H -12.1547 -8.84042 10.1383
O -10.2237 3.68382 2.35477
H -10.7661 3.22387 3.05784
H -10.6436 4.56376 2.13239
O -5.73596 2.89888 10.2345
H -6.38911 3.38079 9.65041
H -6.12133 2.79652 11.1516
O 5.91662 -12.6831 11.8544
H 6.33037 -12.0665 11.1846
H 5.61733 -13.5202 11.3964
O -6.76031 -4.09215 8.39717
H -6.56875 -4.99329 8.00819
H -5.9031 -3.6628 8.68161
O -12.7527 -1.71153 9.60814
H -12.7763 -1.66102 10.6066
H -13.5236 -1.19882 9.23018
O -5.91307 1.25746 4.18927
H -6.07595 1.98273 4.85823
H -6.59812 1.31396 3.46293
O -6.00893 6.89823 11.214
H -5.99395 7.86789 10.9699
H -5.63518 6.35876 10.4595
O 14.5082 -0.688116 9.21477
H 13.7993 -1.3926 9.17933
H 14.2851 0.041963 8.56879
O -13.5946 -6.82966 14.0107
H -14.5858 -6.79646 13.8821
H -13.2627 -5.92514 14.2786
O -6.40156 4.80951 -14.1735
H -5.6253 4.31668 -13.7803
H -7.1857 4.74306 -13.5565
O 1.29972 -5.02613 -3.34274
H 0.368969 -4.81472 -3.04432
H 1.29784 -5.22881 -4.32201
O 0.0936733 12.8592 1.86658
H 1.08106 12.9198 1.72011
H -0.135426 11.9536 2.22339
O -10.4536 -2.8239 -10.9156
H -9.58157 -2.34787 -11.0295
H -11.139 -2.41235 -11.5163
O -2.45021 -11.1696 -11.0551
H -1.5774 -11.4095 -11.4801
H -3.20109 -11.4674 -11.6446
O -14.9132 11.4947 -2.18402
H -13.9809 11.8468 -2.26798
H 14.8489 10.9117 -1.37412
O 7.29907 -6.32962 9.5561
H 7.30193 -6.03688 8.59989
H 6.38465 -6.6497 9.80397
O 14.1371 2.82714 5.66783
H 13.4777 2.43715 5.02505
H 13.7765 3.68393 6.03651
O 5.92302 9.07054 3.71251
H 5.82452 9.04855 4.70743
H 6.42591 9.89262 3.44543
O 12.5369 1.13415 -8.09883
H 12.5119 0.412442 -7.40705
H 13.2727 1.77642 -7.88406
O 10.6856 -11.013 -3.36036
H 11.4558 -10.7153 -3.9245
H 11.0296 -11.4913 -2.55227
O 8.33564 9.29038 -3.84986
H 7.56729 8.92514 -4.37549
H 8.05246 10.129 -3.3845
O -13.5311 -14.8213 -0.417287
H -13.214 -13.8741 -0.367209
H -13.0477 14.5303 -1.15271
O -14.4565 13.0721 8.39581
H -14.2773 12.0916 8.31464
H 14.3829 13.2293 8.4246
O 10.8107 5.47197 -1.72016
H 11.1286 5.0538 -2.57112
H 10.5628 4.75491 -1.06868
O 12.9956 -13.4828 2.63716
H 12.6443 -13.7433 3.53645
H 13.7778 -14.0608 2.40461
O -7.33264 5.91304 1.6291
H -7.97915 6.55174 2.0464
H -7.44139 5.93047 0.635156
O -5.16392 12.6076 2.54806
H -4.77832 12.1428 1.75099
H -6.02356 13.05 2.2924
O 5.07413 13.067 11.8442
H 4.19301 12.6594 12.0841
H 4.95388 13.6898 11.0711
O -8.6914 -10.5796 10.5849
H -7.7294 -10.6817 10.8383
H -9.2686 -10.808 11.369
O 0.820104 -1.62536 12.6635
H 1.57136 -1.70206 12.0079
H 0.0795566 -1.08762 12.2604
O -3.69606 2.09551 -10.0636
H -2.86038 2.52359 -10.4077
H -4.09859 2.6734 -9.35361
O -11.7539 -1.78253 5.23661
H -10.9568 -1.91307 4.64702
H -11.4549 -1.69516 6.18688
O 11.8985 13.7167 14.159
H 12.0692 12.9769 14.8098
H 12.0772 14.5964 14.5998
O -5.04972 -1.96865 -1.94374
H -4.14676 -2.34301 -2.15487
H -5.53418 -2.5926 -1.33052
O 5.36704 1.796 -6.58623
H 5.20894 2.58838 -5.997
H 4.68442 1.09235 -6.38886
O 13.9391 5.23159 -5.61699
H 14.0703 6.15211 -5.24891
H 13.8989 5.27439 -6.61528
O 2.7567 -2.94511 7.90626
H 3.30497 -2.11732 8.02544
H 2.04007 -2.97346 8.60317
O -2.27795 -13.0453 -13.6763
H -2.84825 -12.4304 -13.1317
H -2.43656 -13.9897 -13.3881
O 11.8115 -8.43013 -9.45958
H 12.4339 -9.21166 -9.41678
H 12.0901 -7.82246 -10.2033
O 2.67807 -13.6372 7.8898
H 2.11181 -13.9158 8.66553
H 2.14371 -13.7014 7.04696
O 8.95564 13.9422 11.6589
H 9.66937 14.4991 11.2341
H 9.27434 12.9979 11.741
O 5.29645 -9.0968 9.97111
H 4.88456 -8.6999 10.7914
H 5.01939 -8.56718 9.16937
O 1.01562 4.53358 14.7703
H 0.787987 5.194 14.0547
H 1.00173 3.60968 14.3879
O -12.9907 2.07057 11.5266
H -12.5023 1.40023 12.0854
H -13.0958 2.92098 12.0422
O -6.89151 4.0285 12.9092
H -6.90108 4.0152 13.9091
H -6.27933 4.75254 12.5913
O 2.45018 10.1835 -9.82658
H 1.7317 10.7441 -9.41476
H 2.0923 9.72977 -10.6427
O 5.70647 7.57281 9.80685
H 4.84385 7.40169 10.2829
H 6.21327 6.71543 9.7168
O 13.2563 6.88215 -9.88251
H 13.3882 7.67008 -10.484
H 12.3838 6.44247 -10.0956
O -7.24537 -0.403554 6.46657
H -6.62022 -0.324287 7.24307
H -6.93407 0.191888 5.7259
O 14.0871 -13.5042 -2.3961
H 14.3811 -12.5626 -2.23141
H 14.5277 -14.1114 -1.73493
O -0.121746 -7.12656 10.1057
H 0.215881 -7.06351 11.0449
H -1.082 -7.40564 10.1148
O -0.662233 8.73028 -14.0494
H 0.0117629 9.33986 -14.4668
H -1.58325 9.06283 -14.2524
O -9.35627 -11.073 0.239945
H -9.34629 -11.8022 -0.444282
H -9.12917 -11.4538 1.1363
O 12.2541 -13.5531 -14.7744
H 12.2262 -12.9817 14.2319
H 13.0758 -13.3384 -14.2464
O -2.25959 14.1724 -11.4573
H -3.182 13.8864 -11.1977
H -1.63515 13.3953 -11.3787
O 11.2772 -4.79503 12.8837
H 11.2442 -5.27328 12.0061
H 11.6242 -3.86746 12.745
O -4.90432 -5.98049 10.5436
H -5.87054 -6.2189 10.6417
H -4.43175 -6.14109 11.4102
O 14.3733 -7.84077 -4.52684
H 14.2038 -7.5517 -5.46906
H 14.5315 -7.03603 -3.95465
O 12.6181 -9.04874 -12.6761
H 12.0905 -8.20255 -12.601
H 13.324 -9.06535 -11.968
O -0.216304 12.0226 7.50007
H -0.310023 12.9073 7.95677
H 0.318397 12.1348 6.66249
O -13.0257 8.16976 3.35273
H -13.6576 8.94442 3.32773
H -12.8619 7.90367 4.30271
O -11.0016 -13.0419 10.6054
H -11.7427 -13.7114 10.5552
H -10.1224 -13.5108 10.5207
O -13.7171 7.19613 0.291463
H -13.4261 7.42561 1.22028
H -13.8537 6.20809 0.219479
O 10.0458 1.38971 -6.13335
H 10.2038 2.37102 -6.02332
H 10.8614 0.886628 -5.84738
O 8.92808 2.01809 -8.54876
H 9.30071 1.74273 -7.66254
H 8.09753 1.49437 -8.73839
O -7.1082 -7.28995 11.6896
H -8.00793 -7.32042 11.2542
H -7.19638 -6.9109 12.6108
O 2.14435 -14.7104 13.6347
H 2.10034 14.175 13.2993
H 3.08948 -14.4846 13.8709
O -3.35835 -14.0675 4.86369
H -2.82181 -14.9113 4.84733
H -2.90282 -13.372 4.30797
O 4.63199 -8.25649 0.792291
H 5.20474 -8.39503 1.60026
H 3.67009 -8.36625 1.04278
O 0.570235 3.94754 -12.0893
H 0.0113426 4.73409 -12.3521
H 1.32938 3.84826 -12.7327
O -13.0541 -12.7512 8.14091
H -12.9587 -12.0341 8.83137
H -13.652 -13.4727 8.49012
O -4.13153 1.50177 -4.45665
H -3.66133 0.901296 -5.10349
H -4.75067 2.10879 -4.9549
O -12.8943 8.15683 -2.64151
H -13.0303 8.61882 -1.76509
H -13.0425 8.80641 -3.38726
O -12.1784 -3.88641 -8.76634
H -12.4889 -3.33945 -7.98885
H -11.5495 -3.34523 -9.32466
O -12.3152 7.31966 6.08523
H -11.5142 7.48804 6.65989
H -13.1412 7.34788 6.64818
O -6.22755 7.89408 -13.5475
H -6.27467 6.90817 -13.3869
H -5.34887 8.24325 -13.2219
O 1.55021 1.22978 -6.15483
H 2.38698 0.812621 -5.80008
H 1.78688 2.00099 -6.74582
O 1.85919 5.55838 6.62154
H 0.938959 5.20153 6.78244
H 1.99937 5.68839 5.63997
O 4.17007 -14.4158 10.5172
H 3.24078 -14.1698 10.7929
H 4.26316 -14.3098 9.5272
O 8.0046 7.17581 6.27241
H 8.50488 6.43869 6.72675
H 7.06397 7.19842 6.61116
O -1.54542 -9.4687 -4.10112
H -2.51581 -9.4804 -4.34249
H -1.00212 -9.75453 -4.89054
O 4.71785 -0.505929 0.687755
H 3.82892 -0.0527024 0.621097
H 5.44316 0.150772 0.481049
O -5.47707 2.93449 6.34123
H -4.87124 3.45428 5.73887
H -5.85694 3.54319 7.03782
O -1.14582 13.9522 -0.676008
H -0.876724 13.661 0.242063
H -0.590287 14.7362 -0.95329
O -12.2924 -13.4687 4.01679
H -13.1731 -13.3264 4.46868
H -12.1553 -12.7611 3.32357
O -7.5879 -2.15444 -11.4838
H -7.40715 -2.04946 -10.5059
H -6.75158 -2.44643 -11.9479
O -4.13165 -0.191622 12.5041
H -3.80502 -0.694301 13.3045
H -5.13136 -0.208066 12.4853
O -11.4639 10.2511 12.2429
H -12.143 9.55763 12.484
H -10.5977 9.80513 12.0174
O 5.52941 11.6962 0.253069
H 6.39664 12.1847 0.1561
H 4.78387 12.2703 -0.0855656
O -4.63186 9.08924 10.1339
H -4.75351 8.61361 9.26267
H -3.72214 9.50348 10.1633
O -11.3731 -13.5296 -14.0591
H -10.6109 -13.5192 -14.7064
H -11.5288 -12.6046 -13.7124
O 12.4796 -13.9397 5.57342
H 11.884 -13.6532 6.32393
H 12.5967 14.894 5.60113
O -9.16742 -14.2919 7.43975
H -9.88375 -14.66 6.84696
H -9.56383 -13.6165 8.06166
O 4.9582 8.34909 -14.3356
H 5.73612 8.59358 -13.7567
H 4.1636 8.15323 -13.7608
O 4.74991 2.31987 -1.10807
H 5.54932 2.18094 -0.523519
H 4.91372 1.9019 -2.00167
O -12.214 6.792 -9.59699
H -12.7557 6.62969 -8.77222
H -12.1234 7.77642 -9.7479
O -6.3742 13.135 -12.3402
H -6.37908 13.4243 -13.2975
H -6.66752 12.181 -12.2788
O 12.4864 -2.40598 9.36303
H 12.8087 -3.33294 9.17081
H 11.5395 -2.31179 9.05541
O -4.58123 11.0097 0.413207
H -4.54158 10.0574 0.71588
H -3.96624 11.138 -0.364848
O -5.25215 0.44312 8.48622
H -4.53459 0.493143 7.79149
H -5.60366 1.3613 8.66907
O 6.24564 8.24286 -5.47365
H 5.67208 8.9336 -5.03324
H 5.67617 7.65148 -6.04463
O -6.57875 -4.94111 -0.869123
H -7.01583 -4.5451 -1.6767
H -7.26005 -5.06271 -0.147256
O -9.71309 11.1609 -9.79232
H -9.61064 11.9521 -10.3952
H -9.11371 10.4239 -10.1048
O 0.961849 5.9201 -6.86696
H 1.03052 6.61912 -7.5788
H 0.0174108 5.5968 -6.80729
O -2.46121 -7.68154 11.8246
H -2.99636 -8.42136 12.2324
H -2.18882 -7.03512 12.5373
O 14.5499 -4.31112 -14.2503
H 14.1197 -3.95327 14.7474
H -14.2831 -4.2268 -14.3275
O 5.01341 -14.1012 14.0855
H 5.43198 -13.4991 13.4056
H 5.43428 14.8197 14.0329
O -10.9175 14.6665 5.57899
H -11.3608 -14.4114 5.08587
H -10.3679 14.1267 4.94138
O -12.5852 -6.66455 11.6286
H -12.8925 -6.85166 12.5616
H -13.2432 -6.06335 11.1752
O 7.37915 11.5531 -2.33476
H 8.20863 11.6657 -1.78765
H 6.73749 12.2903 -2.12291
O -10.8443 -6.27129 -0.629718
H -11.0725 -5.31041 -0.786724
H -11.6679 -6.82987 -0.727775
O -14.7785 3.04583 -10.0282
H -14.0408 2.66416 -9.47122
H -14.5415 3.97805 -10.3017
O 5.93724 -1.59343 -12.088
H 5.18289 -0.951926 -11.9485
H 6.7692 -1.08593 -12.3124
O -2.71197 -11.6069 10.2459
H -3.23814 -12.3966 10.5614
H -3.08572 -11.2831 9.37669
O -5.17303 14.6046 -9.64917
H -5.85564 14.1423 -10.2152
H -5.22936 14.261 -8.71171
O -5.23502 -4.39085 -13.8168
H -4.24441 -4.50887 -13.8861
H -5.66832 -5.28211 -13.6828
O 2.64037 -10.6987 9.04546
H 2.80945 -9.71525 9.11139
H 1.70235 -10.8955 9.33085
O 14.8189 14.1885 -12.7017
H 14.8589 -14.8053 -13.2541
H -14.4133 13.4924 -13.1046
O 14.5488 2.16147 -14.5531
H 13.8211 2.66535 -14.0877
H -14.3885 2.48583 -14.2302
O -9.83345 13.8242 -8.15319
H -10.7765 14.1202 -8.30519
H -9.53962 13.244 -8.9129
O 6.90554 -7.48693 -10.3565
H 7.74383 -6.94503 -10.4171
H 6.42674 -7.26634 -9.50668
O 1.33091 9.14455 4.07564
H 1.85509 8.83112 4.86751
H 1.69592 8.72221 3.24591
O -7.97484 12.1958 14.1936
H -7.77698 13.1402 14.4562
H -7.11692 11.6946 14.0803
O -10.8647 -1.25489 7.77301
H -10.1599 -0.640691 8.12813
H -11.4849 -1.51401 8.51343
O -10.6006 6.79286 -11.6829
H -11.042 7.42578 -12.319
H -11.1963 6.64413 -10.8935
O 5.18529 13.6097 -2.91478
H 5.67901 14.1587 -2.24034
H 5.44338 13.9018 -3.83571
O -9.26398 -2.22688 -0.351469
H -8.82038 -2.49922 0.502406
H -8.57799 -2.15613 -1.07566
O -3.9781 -3.5959 10.0175
H -4.16356 -4.54715 10.264
H -4.75883 -3.02653 10.275
O 1.871 12.97 -7.223
H 1.99291 13.0359 -8.21338
H 0.938046 12.6718 -7.02111
O 13.6313 12.9508 -9.0407
H 13.7933 13.806 -9.53296
H 12.768 13.0128 -8.53976
O -2.90074 -7.4012 -10.4607
H -3.0523 -8.04228 -11.2131
H -1.93697 -7.13533 -10.4383
O 3.11195 -5.14575 -12.7259
H 4.0376 -4.97003 -12.3907
H 2.63163 -5.74111 -12.0818
O -5.99855 6.96745 8.15382
H -5.09691 6.57912 7.96329
H -6.15263 7.75854 7.56182
O -7.73424 6.11965 -8.24959
H -7.55494 6.9693 -7.7536
H -8.38963 5.56582 -7.73599
O 3.43234 -8.28227 -13.0439
H 3.1184 -7.99159 -13.9478
H 3.03734 -7.68498 -12.3459
O -14.0204 0.104797 -12.867
H -14.8195 0.195254 -13.4613
H -13.6807 1.01359 -12.6246
O 11.9652 7.54326 8.2885
H 11.7484 6.78243 8.90018
H 12.9332 7.77781 8.37842
O 11.1784 -7.90091 -4.71942
H 10.7684 -8.1915 -5.58398
H 11.9495 -8.49826 -4.4988
O 10.3085 -5.93507 8.24356
H 9.63332 -6.27088 7.58676
H 10.1428 -6.35472 9.13601
O -10.3328 -10.6122 12.8743
H -10.1909 -10.6096 13.8642
H -11.3023 -10.7572 12.6768
O -9.45005 -0.17741 -11.579
H -8.65678 -0.77596 -11.4672
H -9.77679 -0.229828 -12.5227
O -11.8144 6.87402 -14.8156
H -10.8953 6.77788 14.6286
H -11.7896 7.50953 -14.0439
O 7.57166 3.94093 -0.259894
H 7.5101 4.86611 0.114685
H 7.64393 3.98881 -1.25615
O 3.43872 -13.8264 -0.191754
H 3.62558 -13.5561 -1.13624
H 4.01031 -13.2888 0.428142
O 12.15 4.7145 6.6232
H 12.2443 5.63792 6.2511
H 11.1857 4.52786 6.8115
O -2.74443 -9.17808 2.38639
H -1.96235 -8.92159 2.95439
H -2.85395 -8.51126 1.64923
O 10.7249 5.80629 9.93431
H 11.1728 4.95736 10.2149
H 10.4788 6.33715 10.7453
O 6.64321 -12.6975 -4.80537
H 7.21446 -11.9179 -4.5487
H 7.16345 -13.5439 -4.69104
O 9.64926 1.66637 -11.1304
H 9.56996 1.71431 -10.1347
H 10.6015 1.81612 -11.3966
O 1.79829 -0.381344 3.87529
H 1.6812 0.492022 3.40245
H 0.906242 -0.816596 3.99719
O -11.7673 7.9582 10.0594
H -11.4295 7.08567 9.70638
H -11.6233 8.67291 9.3749
O 5.15054 -3.90797 -4.87594