LAMMPS data file via write_data, version 15 May 2015, timestep = 2000000

4560 atoms
7 atom types
5040 bonds
3 bond types
7200 angles
2 angle types
10560 dihedrals
3 dihedral types
2400 impropers
1 improper types

-1.0763502675555259e-01 4.1387635026745990e+01 xlo xhi
-4.0433884491974936e-02 3.5938433884472119e+01 ylo yhi
-3.5711112484589691e-01 2.9555111124838550e+01 zlo zhi
-6.7234083837551181e-02 -1.7036217651000683e+01 -4.1707816797290791e-02 xy xz yz

Masses

1 12.0107
2 1.008
3 12.0107
4 12.0107
5 12.0107
6 12.0107
7 12.0107

Pair Coeffs # lj/cut/coul/cut

1 0 0
2 0 0
3 0 0
4 0 0
5 0 0
6 0 0
7 0 0

Bond Coeffs # harmonic

1 469 1.4
2 367 1.08
3 469 0.7

Angle Coeffs # harmonic

1 35 120
2 63 120

Dihedral Coeffs # opls

1 0 7.25 0 0
2 0 7.25 0 0
3 0 7.25 0 0

Improper Coeffs # cvff

1 2.5 -1 2

Atoms # full

219 13 3 0.0000000000000000e+00 -3.0424584736924642e-01 3.0929258874508601e+00 3.1579547501299778e+00 1 0 0
220 13 4 0.0000000000000000e+00 3.2886123037577408e-01 4.0952011267032820e+00 2.3685538538738045e+00 1 0 0
224 13 2 0.0000000000000000e+00 5.0171501121563811e-01 5.0741091818213588e+00 2.7549213460487727e+00 1 0 0
580 33 4 0.0000000000000000e+00 2.6794610480290606e+00 6.7740883409716188e+00 3.9906776330686515e+00 1 0 0
228 13 3 0.0000000000000000e+00 -5.5320307509692856e-01 1.8620870995588970e+00 2.5683023326726606e+00 1 0 0
989 53 4 0.0000000000000000e+00 -1.3599954265551581e+00 7.0407314412742954e+00 3.5115218538329049e+00 1 0 0
600 34 2 0.0000000000000000e+00 -4.4502989717273067e-02 5.6798902925253412e+00 6.9377860538010285e+00 1 0 0
245 14 4 0.0000000000000000e+00 -4.9261184908166351e+00 1.4510669107155723e+00 9.0530254382358653e+00 1 0 0
227 13 4 0.0000000000000000e+00 -1.9867571441547438e-01 1.5361255546139374e+00 1.2560057041861543e+00 1 0 0
4390 233 1 0.0000000000000000e+00 2.3630162627433853e+00 7.8878496032839429e-01 5.4898084526915509e+00 1 1 0
733 13 6 0.0000000000000000e+00 -4.4680167318791497e-01 2.4218497407953103e+00 2.9418379701249315e+00 1 0 0
1758 94 4 0.0000000000000000e+00 -3.8365043454583025e+00 1.5965931581529873e+01 9.7744200193029496e+00 1 0 0
230 13 1 0.0000000000000000e+00 5.4511124001827616e-01 3.8073530947798337e+00 1.0676552240648425e+00 1 0 0
217 13 7 0.0000000000000000e+00 -1.2859327242641903e+00 2.3581674463211191e+00 5.2069956511305202e+00 1 0 0
218 13 5 0.0000000000000000e+00 -6.0522476663670322e-01 3.3842144865296491e+00 4.4815298093964842e+00 1 0 0
221 13 1 0.0000000000000000e+00 -1.6775229618848775e+00 1.1121883853483241e+00 4.6519710033950519e+00 1 0 0
222 13 2 0.0000000000000000e+00 -1.5522107343130811e+00 2.5173845408473876e+00 6.2604539866450040e+00 1 0 0
223 13 2 0.0000000000000000e+00 -2.3232234858547018e-01 4.3700708896016955e+00 4.8244047153165805e+00 1 0 0
248 14 1 0.0000000000000000e+00 -3.5828914583760465e+00 3.4425168071185341e+00 8.6350281358089163e+00 1 0 0
4380 233 4 0.0000000000000000e+00 2.5807226022060918e+00 1.1427057374687339e+00 4.1546024091718987e+00 1 1 0
244 14 1 0.0000000000000000e+00 -4.1926700676136655e+00 2.2486228618909672e+00 8.1905361223731727e+00 1 0 0
603 34 2 0.0000000000000000e+00 8.8448632746847355e-01 3.4627474576133515e+00 7.6114500379737464e+00 1 0 0
4396 234 5 0.0000000000000000e+00 -7.4743010664541032e-01 1.8168298177755460e-01 9.2368641113456977e+00 1 1 0
4394 233 2 0.0000000000000000e+00 2.1327843524627892e+00 1.5364929901651845e+00 6.2536398149446502e+00 1 1 0
579 33 3 0.0000000000000000e+00 3.3280529820168026e+00 5.8423815326871296e+00 3.1503934482062466e+00 1 0 0
252 14 2 0.0000000000000000e+00 -2.9897343373350376e+00 4.0590583761695678e+00 8.0228265631868432e+00 1 0 0
581 33 1 0.0000000000000000e+00 4.6250407809784448e+00 4.0216438565217345e+00 1.4946960893919461e+00 1 0 0
596 34 5 0.0000000000000000e+00 -5.3727352751425617e-01 6.3351823771642586e+00 8.8845303466613448e+00 1 0 0
577 33 7 0.0000000000000000e+00 4.1940260276515984e+00 5.2486099013745164e+00 9.9098953462371986e-01 1 0 0
588 33 3 0.0000000000000000e+00 3.8450774601173063e+00 4.6824966944944446e+00 3.7099607553897282e+00 1 0 0
589 33 4 0.0000000000000000e+00 4.5310175335864953e+00 3.7377031317646758e+00 2.8659115384092293e+00 1 0 0
593 33 2 0.0000000000000000e+00 5.1081382676570186e+00 2.8795829874151693e+00 3.2135197730934428e+00 1 0 0
753 33 6 0.0000000000000000e+00 3.6285971518104199e+00 5.2054279997750745e+00 3.2861384566680956e+00 1 0 0
4383 233 2 0.0000000000000000e+00 2.9925381523123287e+00 1.3709518274021781e+00 1.5148621077302795e+00 1 1 0
4379 233 3 0.0000000000000000e+00 3.2049304508036811e+00 2.3321132427378205e-01 3.2712739272997422e+00 1 1 0
578 33 5 0.0000000000000000e+00 3.4856010247132492e+00 6.1156180546282393e+00 1.8253418206083909e+00 1 0 0
226 13 1 0.0000000000000000e+00 3.0374208630198368e-01 2.5350751021262887e+00 4.8075670947183180e-01 1 0 0
4384 233 2 0.0000000000000000e+00 2.1323734369332787e+00 2.0691542835236363e+00 3.8686455890510256e+00 1 1 0
586 33 1 0.0000000000000000e+00 3.1168463052313378e+00 5.3506591203005316e+00 5.9647314211018925e+00 1 0 0
587 33 4 0.0000000000000000e+00 3.7805305994503362e+00 4.4417260551455149e+00 5.1598240151918331e+00 1 0 0
585 33 2 0.0000000000000000e+00 5.1311863210087756e+00 3.2579399968693390e+00 8.6351963769817419e-01 1 0 0
591 33 2 0.0000000000000000e+00 3.0550075369184633e+00 5.2233211717516239e+00 7.0279106116007961e+00 1 0 0
592 33 2 0.0000000000000000e+00 4.2323144528950492e+00 3.6128739425567984e+00 5.6385156948874959e+00 1 0 0
590 33 1 0.0000000000000000e+00 2.6940632212700928e+00 6.5680546929337016e+00 5.4079235669121477e+00 1 0 0
1753 93 2 0.0000000000000000e+00 -2.1540578829320971e+00 1.2137401239794803e+01 3.3904143079847944e+00 1 0 0
234 13 2 0.0000000000000000e+00 8.8795272203755182e-01 4.6120179697075079e+00 4.6548538694184904e-01 1 0 0
229 13 4 0.0000000000000000e+00 -1.2425241403826062e+00 8.4675746970909715e-01 3.3258021011274175e+00 1 0 0
1010 54 2 0.0000000000000000e+00 -4.9097738598329475e+00 6.2064358886760642e+00 8.6143300721864531e+00 1 0 0
985 53 2 0.0000000000000000e+00 -1.9076952296605922e+00 6.3684000223312101e+00 5.4494058192554000e+00 1 0 0
599 34 1 0.0000000000000000e+00 4.5424421069436516e-01 4.1219847438014678e+00 8.2896675527502310e+00 1 0 0
4401 234 2 0.0000000000000000e+00 -1.1103547133378733e+00 1.1276392499519339e+00 8.8954523312227014e+00 1 1 0
225 13 2 0.0000000000000000e+00 -2.1831878020565441e+00 3.4484684184138448e-01 5.2357954823806523e+00 1 0 0
595 34 7 0.0000000000000000e+00 1.3977805035864321e-02 5.4145313355094480e+00 7.9870237103232249e+00 1 0 0
981 53 1 0.0000000000000000e+00 -1.3530785668090837e+00 7.1347093341072041e+00 4.8942781227285206e+00 1 0 0
4378 233 5 0.0000000000000000e+00 3.4383818059290032e+00 4.9048780586388302e-01 1.9231096524435563e+00 1 1 0
582 33 2 0.0000000000000000e+00 4.3287863954694901e+00 5.3936755612812233e+00 -4.6826542834231710e-02 1 0 0
583 33 2 0.0000000000000000e+00 3.1208599412243303e+00 7.0174141579856419e+00 1.4349572599444225e+00 1 0 0
2131 114 2 0.0000000000000000e+00 9.8353136094070770e-01 1.4551274338657967e+01 9.9321253997236703e+00 1 0 0
232 13 2 0.0000000000000000e+00 -4.1794918256186098e-01 5.5263694671636299e-01 8.8643051549934393e-01 1 0 0
235 14 7 0.0000000000000000e+00 -5.2634014916985219e+00 2.3000593930778415e+00 1.3148553173061771e+01 1 0 0
236 14 5 0.0000000000000000e+00 -4.5614273792750186e+00 3.1518485159010439e+00 1.2337073756587332e+01 1 0 0
597 34 3 0.0000000000000000e+00 -6.1880593281994578e-01 5.9449647769472236e+00 1.0237293815283437e+01 1 0 0
734 14 6 0.0000000000000000e+00 -4.6249336662111746e+00 2.3502552565227108e+00 1.0494921656769122e+01 1 0 0
239 14 1 0.0000000000000000e+00 -5.8592805775030001e+00 1.1250084740759281e+00 1.2621814722539295e+01 1 0 0
240 14 2 0.0000000000000000e+00 -5.5790098655991391e+00 2.5976047976603565e+00 1.4173015986813224e+01 1 0 0
243 14 2 0.0000000000000000e+00 -6.5290729466669966e+00 4.5636144568793047e-01 1.3234906980201151e+01 1 0 0
237 14 3 0.0000000000000000e+00 -4.4232454352457626e+00 2.8850365886404665e+00 1.0948623847738695e+01 1 0 0
4402 234 2 0.0000000000000000e+00 -1.8513161949724051e+00 1.7339851077223587e+00 1.1064764138237212e+01 1 1 0
1011 54 2 0.0000000000000000e+00 -6.0686436039423874e+00 6.1585059706581839e+00 1.0753154122847560e+01 1 0 0
242 14 2 0.0000000000000000e+00 -3.2628776739568339e+00 4.6571717704457951e+00 1.0366283686516935e+01 1 0 0
4408 234 1 0.0000000000000000e+00 -1.8411904097243923e+00 2.9800062466736338e-01 1.2689474649915583e+01 1 1 0
238 14 4 0.0000000000000000e+00 -3.7259820799188810e+00 3.7398921945933812e+00 1.0005868563833173e+01 1 0 0
246 14 3 0.0000000000000000e+00 -5.0049747658140804e+00 1.7529730280624676e+00 1.0395381801883733e+01 1 0 0
604 34 1 0.0000000000000000e+00 -8.1773384266025673e-01 4.9348159300175674e+00 1.2906577132821665e+01 1 0 0
605 34 4 0.0000000000000000e+00 -4.0301642681468586e-01 4.1026859531348521e+00 1.1860282059115468e+01 1 0 0
606 34 3 0.0000000000000000e+00 -2.6086922719999173e-01 4.6308621195500050e+00 1.0514309437580467e+01 1 0 0
607 34 4 0.0000000000000000e+00 4.2741894826732185e-01 3.7460103299127399e+00 9.6269554945500921e+00 1 0 0
611 34 2 0.0000000000000000e+00 9.4463956036789032e-01 2.9215524433341407e+00 9.9677498179000938e+00 1 0 0
610 34 2 0.0000000000000000e+00 -1.5379278331385748e-01 3.0934565422898586e+00 1.2083370222609075e+01 1 0 0
241 14 2 0.0000000000000000e+00 -4.1111335562619225e+00 4.0396709243375470e+00 1.2701976033991569e+01 1 0 0
1756 94 5 0.0000000000000000e+00 -4.6228389040132392e+00 1.5163424960470683e+01 1.2001587775725643e+01 1 0 0
598 34 4 0.0000000000000000e+00 -1.1557016499004646e+00 6.7852907398941875e+00 1.1205452722605587e+01 1 0 0
754 34 6 0.0000000000000000e+00 -4.3920452479784444e-01 5.2727419383059972e+00 1.0502363208370333e+01 1 0 0
609 34 2 0.0000000000000000e+00 -1.0055618872809724e+00 4.5544511575091056e+00 1.3929479339402048e+01 1 0 0
4398 234 4 0.0000000000000000e+00 -1.5956779214234897e+00 7.3388399999483012e-01 1.1391964087759726e+01 1 1 0
4412 234 2 0.0000000000000000e+00 -2.4063097607368125e+00 9.2154281727681875e-01 1.3488179186472365e+01 1 1 0
247 14 4 0.0000000000000000e+00 -5.7564045713746363e+00 8.7490226580128960e-01 1.1249128442026061e+01 1 0 0
608 34 1 0.0000000000000000e+00 -1.1646385656986791e+00 6.2636112646883815e+00 1.2515161980039904e+01 1 0 0
612 34 2 0.0000000000000000e+00 -1.5694276904937325e+00 6.9866528402445356e+00 1.3232779493851620e+01 1 0 0
979 53 3 0.0000000000000000e+00 -1.2846044345694607e-01 9.1423453495584646e+00 3.3181263236451319e+00 1 0 0
980 53 4 0.0000000000000000e+00 5.6384312448619767e-01 1.0012421106065601e+01 2.4887937904486694e+00 1 0 0
984 53 2 0.0000000000000000e+00 1.2892445036566818e+00 1.0628746067912369e+01 2.9931750180193801e+00 1 0 0
1361 74 2 0.0000000000000000e+00 -1.0211580213520599e+00 1.3232671855077836e+01 8.3856876084476468e+00 1 0 0
990 53 1 0.0000000000000000e+00 5.3469311011868426e-01 9.9197423868288048e+00 1.1073288004034254e+00 1 0 0
2253 93 6 0.0000000000000000e+00 -3.6889139049247466e-01 1.4272715576876349e+01 2.9955869097951497e+00 1 0 0
1493 53 6 0.0000000000000000e+00 -5.6461589232940135e-01 8.6665782226522605e+00 2.9947162995187684e+00 1 0 0
986 53 1 0.0000000000000000e+00 -1.0593598090368711e-01 8.8355274737549667e+00 4.6875386866860269e-01 1 0 0
1005 54 4 0.0000000000000000e+00 -4.5280491681565440e+00 7.2006388191533919e+00 8.8741837027010533e+00 1 0 0
994 53 2 0.0000000000000000e+00 1.1032433753958297e+00 1.0552262889563805e+01 4.5654232824703000e-01 1 0 0
594 33 2 0.0000000000000000e+00 2.1933544313486899e+00 7.3340378653709859e+00 6.0546361531572339e+00 1 0 0
1741 93 1 0.0000000000000000e+00 -1.6322236903195566e+00 1.3479924569591981e+01 4.9040652605703414e+00 1 0 0
977 53 7 0.0000000000000000e+00 -8.0646289973556229e-01 8.3053831332906967e+00 5.4520200132805234e+00 1 0 0
978 53 5 0.0000000000000000e+00 -1.6135003527239400e-01 9.2931067341054980e+00 4.7095032716891438e+00 1 0 0
982 53 2 0.0000000000000000e+00 -8.9498794859723096e-01 8.4610275249884221e+00 6.5310023467646090e+00 1 0 0
983 53 2 0.0000000000000000e+00 3.1495999268816854e-01 1.0141175354215358e+01 5.2525973560562882e+00 1 0 0
1012 54 2 0.0000000000000000e+00 -2.2118061675632275e+00 9.5261897646136209e+00 7.7555581372958144e+00 1 0 0
1004 54 1 0.0000000000000000e+00 -3.5852769373390005e+00 7.8682433676223136e+00 8.0410171157270671e+00 1 0 0
1363 74 2 0.0000000000000000e+00 9.5752415888021858e-01 9.5098734796927751e+00 7.8212357434882183e+00 1 0 0
1745 93 2 0.0000000000000000e+00 -2.4251683728539009e+00 1.3134341686686881e+01 5.5975702015621485e+00 1 0 0
1008 54 1 0.0000000000000000e+00 -2.9334672724151249e+00 9.0548615091762894e+00 8.4136385575860597e+00 1 0 0
1338 73 5 0.0000000000000000e+00 3.6532507798000795e+00 1.2279240891251950e+01 1.6516566678520581e+00 1 0 0
1339 73 3 0.0000000000000000e+00 3.3813271988464528e+00 1.1849906730213032e+01 2.9901606903608844e+00 1 0 0
1340 73 4 0.0000000000000000e+00 2.8071006988842058e+00 1.2800850778937873e+01 3.9188746068869955e+00 1 0 0
1341 73 1 0.0000000000000000e+00 5.0074055120007195e+00 1.0261892710918868e+01 1.3134680012044126e+00 1 0 0
1337 73 7 0.0000000000000000e+00 4.4426395167731565e+00 1.1435324618032510e+01 8.4257792976088508e-01 1 0 0
1343 73 2 0.0000000000000000e+00 3.4571673876489513e+00 1.3228799284942891e+01 1.2133042242993803e+00 1 0 0
988 53 3 0.0000000000000000e+00 -7.6901353292425711e-01 8.0474698415025223e+00 2.7520632915675387e+00 1 0 0
1348 73 3 0.0000000000000000e+00 3.8645655731906348e+00 1.0640699381213755e+01 3.4343886421008816e+00 1 0 0
1349 73 4 0.0000000000000000e+00 4.6359671992037637e+00 9.8154571903593233e+00 2.5945241185992614e+00 1 0 0
1353 73 2 0.0000000000000000e+00 4.9536069773023206e+00 8.9431963582593159e+00 2.9774820700977203e+00 1 0 0
1513 73 6 0.0000000000000000e+00 3.6800555963161354e+00 1.1293074050100074e+01 3.2467511331311658e+00 1 0 0
1356 74 5 0.0000000000000000e+00 -6.6830132838622092e-01 1.2333990864951330e+01 8.8107673070407575e+00 1 0 0
1354 73 2 0.0000000000000000e+00 2.1795440347728507e+00 1.3084230769367492e+01 5.9178612325970938e+00 1 0 0
1346 73 1 0.0000000000000000e+00 3.1127193282010275e+00 1.1142955039904063e+01 5.6672856527485358e+00 1 0 0
1347 73 4 0.0000000000000000e+00 3.6551909842495967e+00 1.0240352738652346e+01 4.7705175208659982e+00 1 0 0
1350 73 1 0.0000000000000000e+00 2.6019653737682669e+00 1.2405239915660001e+01 5.2136555006906766e+00 1 0 0
1351 73 2 0.0000000000000000e+00 2.9711446758222726e+00 1.0845920106103186e+01 6.7018267217832923e+00 1 0 0
1352 73 2 0.0000000000000000e+00 4.0046935915997386e+00 9.3219651494717830e+00 5.1184329861095375e+00 1 0 0
1345 73 2 0.0000000000000000e+00 5.6704748136969974e+00 9.6321795783132664e+00 7.2281277225148233e-01 1 0 0
1355 74 7 0.0000000000000000e+00 -1.4152286871485575e-01 1.1431712675645732e+01 7.9118326724302257e+00 1 0 0
1359 74 1 0.0000000000000000e+00 5.0434567959442234e-01 1.0240422009867721e+01 8.4516628255220407e+00 1 0 0
1360 74 2 0.0000000000000000e+00 -3.2803658059562135e-01 1.1560513117564312e+01 6.8728805128197514e+00 1 0 0
1747 93 4 0.0000000000000000e+00 -6.0994425543820696e-01 1.3219234391284079e+01 1.3109000840808018e+00 1 0 0
1748 93 3 0.0000000000000000e+00 -6.9095204352871242e-01 1.3728736119550945e+01 2.6424203882975124e+00 1 0 0
601 34 2 0.0000000000000000e+00 -8.2882659695295757e-01 7.3433992272957624e+00 8.5877291978300363e+00 1 0 0
1027 55 2 0.0000000000000000e+00 -8.1631734589582834e+00 8.1702496548726025e+00 1.4158533725552497e+01 1 0 0
1746 93 1 0.0000000000000000e+00 2.2331332417855132e-01 1.3878397414416389e+01 3.6765808855576476e-01 1 0 0
584 33 2 0.0000000000000000e+00 2.2729852147572318e+00 7.6577805970088058e+00 3.4538580879431890e+00 1 0 0
2513 133 2 0.0000000000000000e+00 -1.6781877935067930e+00 1.7909391469198667e+01 3.0688216822500363e+00 1 0 0
1749 93 4 0.0000000000000000e+00 -1.4798599708831874e+00 1.3050492051479484e+01 3.5717987119803523e+00 1 0 0
2129 114 2 0.0000000000000000e+00 -2.5195050903126504e-01 1.7064042120083570e+01 1.3898148555649753e+01 1 0 0
1344 73 2 0.0000000000000000e+00 2.4276348143826563e+00 1.3737064516829218e+01 3.4274985812483783e+00 1 0 0
1009 54 2 0.0000000000000000e+00 -3.4298703717923025e+00 7.5204465030837726e+00 7.0250048179558204e+00 1 0 0
987 53 4 0.0000000000000000e+00 -7.8448800805537333e-01 7.9694246103706092e+00 1.3223747871784923e+00 1 0 0
995 54 7 0.0000000000000000e+00 -5.3809455473686718e+00 8.8879498135029031e+00 1.2688056505979318e+01 1 0 0
996 54 5 0.0000000000000000e+00 -4.5280585315614079e+00 9.5398589562766620e+00 1.1782358057160106e+01 1 0 0
997 54 3 0.0000000000000000e+00 -4.2236287330753157e+00 9.0200962687755801e+00 1.0502333947302192e+01 1 0 0
1001 54 2 0.0000000000000000e+00 -4.1982509069407632e+00 1.0513412327342852e+01 1.2001923534327362e+01 1 0 0
1371 74 2 0.0000000000000000e+00 1.0580280330367851e+00 9.1882786753264352e+00 1.0196784738828507e+01 1 0 0
1357 74 3 0.0000000000000000e+00 -6.7806810167457865e-01 1.2115897307371155e+01 1.0177859761190156e+01 1 0 0
1767 94 4 0.0000000000000000e+00 -6.0134961282970947e+00 1.3050218340410039e+01 1.0862054754874800e+01 1 0 0
998 54 4 0.0000000000000000e+00 -3.2779066965495454e+00 9.5962826329796709e+00 9.6285173237870172e+00 1 0 0
1494 54 6 0.0000000000000000e+00 -4.5583865288001526e+00 8.4025269108366327e+00 1.0302956717667328e+01 1 0 0
1362 74 2 0.0000000000000000e+00 -1.6649041381081080e+00 1.3948273492395391e+01 1.0759576168525413e+01 1 0 0
1003 54 2 0.0000000000000000e+00 -6.5952188145221005e+00 7.1171215555677128e+00 1.2956368093898320e+01 1 0 0
999 54 1 0.0000000000000000e+00 -6.0064105134454042e+00 7.7087786400832652e+00 1.2267949627481366e+01 1 0 0
1372 74 2 0.0000000000000000e+00 -1.7433542466377636e+00 1.3332380332987173e+01 1.3182574656541235e+01 1 0 0
1514 74 6 0.0000000000000000e+00 -2.6370631796699318e-01 1.1646392200486668e+01 1.0550139627157597e+01 1 0 0
602 34 2 0.0000000000000000e+00 -1.5744080511554666e+00 7.7803649268649542e+00 1.0992745794102067e+01 1 0 0
1358 74 4 0.0000000000000000e+00 -1.2811797417731858e+00 1.3036858606421331e+01 1.1113329996098003e+01 1 0 0
1364 74 1 0.0000000000000000e+00 -7.6128824623207247e-01 1.1453260646770270e+01 1.2874144420601933e+01 1 0 0
1365 74 4 0.0000000000000000e+00 -1.0185762884454341e-01 1.0577935393118031e+01 1.2009546642706024e+01 1 0 0
1366 74 3 0.0000000000000000e+00 -1.0014309468909577e-01 1.0950674513418305e+01 1.0683434912853670e+01 1 0 0
1759 94 1 0.0000000000000000e+00 -5.9999608351609677e+00 1.3206884429814167e+01 1.2257077308225924e+01 1 0 0
1368 74 1 0.0000000000000000e+00 -1.3252116343265579e+00 1.2700361144690151e+01 1.2470481857549542e+01 1 0 0
1369 74 2 0.0000000000000000e+00 -7.4163209042714584e-01 1.1345267569258985e+01 1.3980212872230865e+01 1 0 0
1370 74 2 0.0000000000000000e+00 4.8837189487932875e-01 9.6905436860264249e+00 1.2355911080694581e+01 1 0 0
1378 75 2 0.0000000000000000e+00 -4.1755737264679498e+00 1.1567569272231662e+01 1.3841772377458286e+01 1 0 0
1000 54 2 0.0000000000000000e+00 -5.5017544252583761e+00 9.2462958621228708e+00 1.3702712554258461e+01 1 0 0
1766 94 3 0.0000000000000000e+00 -5.2886588310146081e+00 1.3972490750686076e+01 1.0041356987560810e+01 1 0 0
1006 54 3 0.0000000000000000e+00 -4.8178737188619536e+00 7.7619947804460283e+00 1.0140901479365272e+01 1 0 0
1763 94 2 0.0000000000000000e+00 -6.5203700223500389e+00 1.2509794499218241e+01 1.2912994810577997e+01 1 0 0
1367 74 4 0.0000000000000000e+00 5.4938821470212318e-01 1.0080306259916155e+01 9.7898014338571731e+00 1 0 0
1002 54 2 0.0000000000000000e+00 -2.7141760277454541e+00 1.0491756338632381e+01 9.9859456765217676e+00 1 0 0
1755 94 7 0.0000000000000000e+00 -5.2856874935305305e+00 1.4283138010730799e+01 1.2789702328142265e+01 1 0 0
1007 54 4 0.0000000000000000e+00 -5.7108148889618953e+00 7.1328497286380586e+00 1.1049238585243025e+01 1 0 0
1737 93 7 0.0000000000000000e+00 -9.4608254328043317e-01 1.4691326858671690e+01 5.2798815208202639e+00 1 0 0
1740 93 4 0.0000000000000000e+00 6.8306711977223555e-01 1.5594796134912427e+01 2.0199761213583352e+00 1 0 0
1744 93 2 0.0000000000000000e+00 1.1539195429548921e+00 1.6532714979875912e+01 2.2537400364592393e+00 1 0 0
1768 94 1 0.0000000000000000e+00 -3.7834345025430105e+00 1.5786122327858367e+01 8.4101274568971629e+00 1 0 0
1750 93 1 0.0000000000000000e+00 8.6248342350058649e-01 1.5062837923969475e+01 7.2682596541448330e-01 1 0 0
2112 113 2 0.0000000000000000e+00 3.8034856303284403e+00 1.5558596723736306e+01 5.6257531578770212e+00 1 0 0
2119 114 1 0.0000000000000000e+00 6.4546006369209508e-01 1.5788078484601849e+01 8.1715872303635599e+00 1 0 0
1765 94 4 0.0000000000000000e+00 -5.2161525934430522e+00 1.3754864468495649e+01 8.6345496606585481e+00 1 0 0
1743 93 2 0.0000000000000000e+00 4.3284991312938148e-01 1.6236527874285034e+01 4.6992774130030641e+00 1 0 0
2127 114 4 0.0000000000000000e+00 6.0989243125681369e-01 1.5493189646410782e+01 9.5464958539569515e+00 1 0 0
1772 94 2 0.0000000000000000e+00 -3.1513563587650486e+00 1.6331097813746954e+01 7.8121988468747254e+00 1 0 0
1739 93 3 0.0000000000000000e+00 -7.8074648269381708e-03 1.4879269132684346e+01 3.0234057827657552e+00 1 0 0
1754 93 2 0.0000000000000000e+00 1.5094480991157426e+00 1.5532704785919284e+01 2.1666268470643679e-02 1 0 0
2097 113 7 0.0000000000000000e+00 4.3928737890467531e+00 1.7291058815040081e+01 1.1354243584629262e+00 1 0 0
1064 57 2 0.0000000000000000e+00 7.2038128004691879e+00 6.3436324246225579e+00 1.0161930025983537e+00 1 0 0
2101 113 1 0.0000000000000000e+00 4.8422373296098362e+00 1.6078689509811607e+01 1.6925023208986296e+00 1 0 0
2113 113 2 0.0000000000000000e+00 4.9188186622518000e+00 1.4999383753326605e+01 3.6054063751547467e+00 1 0 0
1738 93 5 0.0000000000000000e+00 -1.3895353199756144e-01 1.5356047233555843e+01 4.3331776822406844e+00 1 0 0
2108 113 3 0.0000000000000000e+00 3.8361031382881499e+00 1.6836738361818991e+01 3.7645113421046075e+00 1 0 0
2109 113 4 0.0000000000000000e+00 4.5295486427500018e+00 1.5860229593920021e+01 3.0325267326675549e+00 1 0 0
2273 113 6 0.0000000000000000e+00 3.6272972757394064e+00 1.7349833182988313e+01 3.3975635589968829e+00 1 0 0
2106 113 1 0.0000000000000000e+00 2.9320147349197785e+00 1.7400147159589075e+01 5.9366199122602419e+00 1 0 0
2107 113 4 0.0000000000000000e+00 3.6017519973695165e+00 1.6496227045684343e+01 5.1514924072290587e+00 1 0 0
2111 113 2 0.0000000000000000e+00 2.6551977785071328e+00 1.7163893138520717e+01 6.9821838919614798e+00 1 0 0
2115 114 7 0.0000000000000000e+00 -7.3767631190673200e-02 1.6967514118299516e+01 7.7110643341698690e+00 1 0 0
2102 113 2 0.0000000000000000e+00 4.6897781739967570e+00 1.7498512138861720e+01 1.3262644315672234e-01 1 0 0
2120 114 2 0.0000000000000000e+00 -1.3569760600491687e-01 1.7095593442555188e+01 6.5971597754562978e+00 1 0 0
2123 114 2 0.0000000000000000e+00 9.0469353748696246e-01 1.5048768969299122e+01 7.4768930114153642e+00 1 0 0
1760 94 2 0.0000000000000000e+00 -5.4109943078657281e+00 1.4320506710700075e+01 1.3847294167589668e+01 1 0 0
2105 113 2 0.0000000000000000e+00 5.4624625765173382e+00 1.5385963927225738e+01 1.0854618435925778e+00 1 0 0
1742 93 2 0.0000000000000000e+00 -1.0438044754547420e+00 1.5033617212940294e+01 6.2921796692890339e+00 1 0 0
1764 94 1 0.0000000000000000e+00 -4.4740998328156953e+00 1.4685573200063374e+01 7.8364385629363387e+00 1 0 0
2117 114 3 0.0000000000000000e+00 -4.5469893773350378e-01 1.7604957707867587e+01 9.9974628657173952e+00 1 0 0
1761 94 2 0.0000000000000000e+00 -4.1213047065119301e+00 1.6001426590795965e+01 1.2515026816737247e+01 1 0 0
2274 114 6 0.0000000000000000e+00 -2.6428008806015413e-01 1.7043035600096420e+01 1.0288521181581135e+01 1 0 0
2254 94 6 0.0000000000000000e+00 -5.0628958000538766e+00 1.4614118510692654e+01 1.0273606327455450e+01 1 0 0
2130 114 2 0.0000000000000000e+00 4.9869879821223684e-01 1.5264908959459875e+01 1.2106290592628099e+01 1 0 0
2124 114 1 0.0000000000000000e+00 -2.6820111538884994e-01 1.7195857684291369e+01 1.2782869217010804e+01 1 0 0
2125 114 4 0.0000000000000000e+00 1.6925659704201657e-01 1.6255480444395349e+01 1.1810629029092887e+01 1 0 0
2126 114 3 0.0000000000000000e+00 1.1909772417741937e-01 1.6451059519056987e+01 1.0444510776520266e+01 1 0 0
2138 115 2 0.0000000000000000e+00 -3.4729589168115522e+00 1.7284435184968657e+01 1.4450592188000520e+01 1 0 0
1757 94 3 0.0000000000000000e+00 -4.6312785631322768e+00 1.5101589117936301e+01 1.0565006713137446e+01 1 0 0
993 53 2 0.0000000000000000e+00 -1.8495095457303992e+00 6.1411178055103717e+00 3.1190242444425049e+00 1 0 0
1762 94 2 0.0000000000000000e+00 -3.3192457383547853e+00 1.6769764228155321e+01 1.0255257484805830e+01 1 0 0
2116 114 5 0.0000000000000000e+00 -5.3089828051468579e-01 1.7917687690769803e+01 8.6377824272477888e+00 1 0 0
267 15 2 0.0000000000000000e+00 -8.3717372000823094e+00 1.7691439370976936e+00 1.4550128496606572e+01 1 0 0
249 14 2 0.0000000000000000e+00 -4.0186527588706165e+00 1.9340175576394241e+00 7.1881748445197635e+00 1 0 0
233 13 2 0.0000000000000000e+00 -1.4159590651875900e+00 -3.9286682285330006e-02 2.7391092605423824e+00 1 0 0
1381 75 2 0.0000000000000000e+00 -2.9894967939581703e+00 9.5928907198081319e+00 1.4587942791555824e+01 1 0 0
1342 73 2 0.0000000000000000e+00 4.7238257063372870e+00 1.1793604036720787e+01 -1.4735972878734971e-01 1 0 0
4416 235 4 0.0000000000000000e+00 -5.8524495889635801e+00 8.8670154755735731e-01 1.9048581195486019e+01 1 1 0
4420 235 2 0.0000000000000000e+00 -6.1196688214810147e+00 1.8225795961381086e+00 1.8692268358087976e+01 1 1 0
255 15 3 0.0000000000000000e+00 -8.7113870444251909e+00 3.0581532650038410e+00 1.8202366649786711e+01 1 0 0
256 15 4 0.0000000000000000e+00 -8.0358263856195862e+00 3.8839723321858299e+00 1.7217799717728766e+01 1 0 0
260 15 2 0.0000000000000000e+00 -7.7297521596053098e+00 4.9035418296681303e+00 1.7385513277937115e+01 1 0 0
1806 96 2 0.0000000000000000e+00 -1.3421540967339993e+01 1.2398817412631312e+01 2.3192668944426778e+01 1 0 0
4414 235 5 0.0000000000000000e+00 -4.9011780054603280e+00 3.5046420593153738e-01 1.6866558228418711e+01 1 1 0
264 15 3 0.0000000000000000e+00 -9.2670556676057831e+00 1.8181436629993337e+00 1.7832863361696774e+01 1 0 0
262 15 1 0.0000000000000000e+00 -8.4892515472952113e+00 2.1512241179429545e+00 1.5572019607847242e+01 1 0 0
266 15 1 0.0000000000000000e+00 -7.9754146228666833e+00 3.3962996450413598e+00 1.5883043497673079e+01 1 0 0
263 15 4 0.0000000000000000e+00 -9.1624019061366013e+00 1.3699875512487549e+00 1.6540589671348425e+01 1 0 0
735 15 6 0.0000000000000000e+00 -8.9468891047424961e+00 2.4156683204362213e+00 1.8046273548759086e+01 1 0 0
265 15 4 0.0000000000000000e+00 -1.0038971898355719e+01 1.0908465366339182e+00 1.8735576941931654e+01 1 0 0
1792 96 5 0.0000000000000000e+00 -1.3082712687933887e+01 1.5298460476710854e+01 2.6729064359969058e+01 1 0 0
613 35 7 0.0000000000000000e+00 -4.4751966230457629e+00 5.6207831758507449e+00 1.6156192687481763e+01 1 0 0
618 35 2 0.0000000000000000e+00 -4.4200165930516722e+00 6.1320200986785691e+00 1.5199540841187265e+01 1 0 0
615 35 3 0.0000000000000000e+00 -5.2932768748962706e+00 5.8014582357347226e+00 1.8411865152444349e+01 1 0 0
617 35 1 0.0000000000000000e+00 -3.9462779572994462e+00 4.3154025319880081e+00 1.6412408576960722e+01 1 0 0
621 35 2 0.0000000000000000e+00 -3.4050227254536587e+00 3.7861706610959138e+00 1.5688409180407302e+01 1 0 0
624 35 3 0.0000000000000000e+00 -4.7287016105465574e+00 4.5499220051276339e+00 1.8720674756659655e+01 1 0 0
625 35 4 0.0000000000000000e+00 -4.0206922270307315e+00 3.7925901668345672e+00 1.7646069355179630e+01 1 0 0
629 35 2 0.0000000000000000e+00 -3.6183627710060522e+00 2.8468143396026768e+00 1.7755585325317995e+01 1 0 0
755 35 6 0.0000000000000000e+00 -4.9628578255843232e+00 5.1241910234328865e+00 1.8415051249171132e+01 1 0 0
270 15 2 0.0000000000000000e+00 -7.6914851866523071e+00 4.0021667433727286e+00 1.5051817694368964e+01 1 0 0
614 35 5 0.0000000000000000e+00 -5.2048697514442237e+00 6.3328046638455033e+00 1.7105809096684311e+01 1 0 0
4419 235 2 0.0000000000000000e+00 -5.1560583419943660e+00 1.3525608005997496e+00 1.6520077196591014e+01 1 1 0
1025 55 4 0.0000000000000000e+00 -9.7876710483510667e+00 6.7353897529856894e+00 1.8324493437039560e+01 1 0 0
616 35 4 0.0000000000000000e+00 -5.9417558538754358e+00 6.5529687679565312e+00 1.9395383568251692e+01 1 0 0
269 15 2 0.0000000000000000e+00 -1.0516687612598886e+01 1.4476757225778106e-01 1.8444806242313351e+01 1 0 0
4436 236 2 0.0000000000000000e+00 -8.5115148512641419e+00 2.2354412290353054e-01 2.2339124608738619e+01 1 1 0
254 15 5 0.0000000000000000e+00 -8.9455761488313250e+00 3.5929855588354354e+00 1.9524304170817956e+01 1 0 0
280 16 1 0.0000000000000000e+00 -1.2667443301667198e+01 2.3264630037230796e+00 2.3109432738612512e+01 1 0 0
4415 235 3 0.0000000000000000e+00 -5.2198599753457016e+00 -3.1584922042725949e-02 1.8219359749940786e+01 1 1 0
258 15 2 0.0000000000000000e+00 -1.0050927493871230e+01 3.2968566056085753e+00 2.1399611375266357e+01 1 0 0
634 36 4 0.0000000000000000e+00 -1.0200022803312837e+01 6.3972629007131347e+00 2.6153301459109361e+01 1 0 0
4433 236 3 0.0000000000000000e+00 -9.5955369774841017e+00 2.5766970070835685e-02 2.5585923187944243e+01 1 1 0
257 15 1 0.0000000000000000e+00 -1.0307167457413174e+01 1.6555507166990355e+00 1.9975589552277288e+01 1 0 0
284 16 1 0.0000000000000000e+00 -1.2145101367636441e+01 3.5432349370406930e+00 2.3628898031263535e+01 1 0 0
279 16 2 0.0000000000000000e+00 -1.4832817549813493e+01 6.6411466650728390e-01 2.8327303201815557e+01 1 0 0
1118 60 2 0.0000000000000000e+00 -5.7060923045332466e+00 6.1992810611454354e+00 2.3974618223935625e+01 1 0 0
288 16 2 0.0000000000000000e+00 -1.1644154276541853e+01 4.1762532843466662e+00 2.2894001363708270e+01 1 0 0
271 16 7 0.0000000000000000e+00 -1.3754493283938007e+01 2.4814913347762504e+00 2.8088007369075587e+01 1 0 0
272 16 5 0.0000000000000000e+00 -1.3176603588848820e+01 3.4187138384891864e+00 2.7152092673697172e+01 1 0 0