LAMMPS (15 May 2015)
Reading data file ...
  triclinic box = (-0.107635 -0.0404339 -0.357111) to (41.3876 35.9384 29.5551) with tilt (-0.0672341 -17.0362 -0.0417078)
  5 by 2 by 2 MPI processor grid
  reading atoms ...
  4560 atoms
  reading velocities ...
  4560 velocities
  scanning bonds ...
  3 = max bonds/atom
  scanning angles ...
  3 = max angles/atom
  scanning dihedrals ...
  8 = max dihedrals/atom
  scanning impropers ...
  1 = max impropers/atom
  reading bonds ...
  5040 bonds
  reading angles ...
  7200 angles
  reading dihedrals ...
  10560 dihedrals
  reading impropers ...
  2400 impropers
Finding 1-2 1-3 1-4 neighbors ...
 Special bond factors lj:   0          0          0         
 Special bond factors coul: 0          0          0         
  4 = max # of 1-2 neighbors
  8 = max # of 1-3 neighbors
  20 = max # of 1-4 neighbors
  16 = max # of special neighbors
4560 atoms in group all
720 atoms in group C
480 atoms in group S
1920 atoms in group H
720 atoms in group Si
240 atoms in group Na
240 atoms in group Ba
240 atoms in group O
4560 atoms in group naphthalene
2400 atoms in group carbon
960 atoms in group CO
Setting atom values ...
  720 settings made for charge
Setting atom values ...
  720 settings made for charge
Setting atom values ...
  1920 settings made for charge
Setting atom values ...
  480 settings made for charge
Setting atom values ...
  240 settings made for charge
Setting atom values ...
  240 settings made for charge
Setting atom values ...
  240 settings made for charge
Finding 1-2 1-3 1-4 neighbors ...
 Special bond factors lj:   0          0          0.5       
 Special bond factors coul: 0          0          0.5       
  4 = max # of 1-2 neighbors
  8 = max # of 1-3 neighbors
  20 = max # of 1-4 neighbors
  16 = max # of special neighbors
Neighbor list info ...
  4 neighbor list requests
  update every 1 steps, delay 0 steps, check yes
  master list distance cutoff = 12
Setting up run ...
Memory usage per processor = 13.4064 Mbytes
Step Temp Density PotEng E_vdwl E_tail E_coul E_long Press Volume Xy Xz Yz E_mol E_bond E_angle E_dihed 14[1] 14[2] 14[3] msd[4] msd2[4] msd3[4] msd4[4] naphthal Cella Cellb Cellc CellAlpha CellBeta CellGamma 2 3 27[1] 27[2] 27[3] 28[1] 28[2] 28[3] 
       0          298    1.2509986     3498.833            0            0            0            0   -15873.524    44657.537 -0.067234084   -17.036218 -0.041707817     3498.833    1521.0094     935.4334    889.67826    28.379601    18.846571    14.337846 7.7711016e-30 8.8746852e-30 6.8181724e-30 5.7534156e-30          298     41.49527    35.978931    34.423473    90.016431    119.66323    90.107069 1.857299e-23 4.9466509e-24    28.379557    18.849013    14.339638    28.379812    18.845474    14.337264 
   10000    298.39981    1.2509986    3496.0451            0            0            0            0   -8101.8419    44657.537 -0.067234084   -17.036218 -0.041707817    3496.0451    1506.2028    946.01232    887.04716     28.38003    18.847187    14.337167 0.00033098314 0.0003304235 0.00034093602 0.00034079934    298.39981     41.49527    35.978931    34.423473    90.016431    119.66323    90.107069    818.24645    198.58988     28.38003    18.848437    14.339574    28.380174    18.845417    14.337215 
   20000    296.73554    1.2509986    3598.8581            0            0            0            0   -7292.0289    44657.537 -0.067234084   -17.036218 -0.041707817    3598.8581    1518.2019    952.11871    961.36833    28.381431    18.846723    14.338763 0.00034204363 0.00034046816 0.00035980021 0.00035942476    296.73554     41.49527    35.978931    34.423473    90.016431    119.66323    90.107069    863.52051    205.22618    28.379779    18.848207    14.338702    28.379289    18.845768    14.337388 
   30000    302.50368    1.2509986    3549.4617            0            0            0            0   -8242.9425    44657.537 -0.067234084   -17.036218 -0.041707817    3549.4617    1469.6788    978.60685    935.17984    28.378131    18.845802    14.337481  0.000368682 0.00036825422 0.00034333425 0.00034321645    302.50368     41.49527    35.978931    34.423473    90.016431    119.66323    90.107069     824.0022     221.2092    28.379097     18.84863    14.339903    28.379535    18.845676    14.337281 
   40000    295.69254    1.2509986    3476.1692            0            0            0            0   -7920.3883    44657.537 -0.067234084   -17.036218 -0.041707817    3476.1692    1469.3414    980.57691    875.37634    28.379909    18.845126    14.337439 0.00035610965 0.00035318053 0.00036444118 0.00036433342    295.69254     41.49527    35.978931    34.423473    90.016431    119.66323    90.107069    874.65884    213.66579    28.379399    18.847312     14.33975    28.379931    18.845761    14.337372 
   50000    300.33026    1.2509986    3552.5795            0            0            0            0   -7394.7657    44657.537 -0.067234084   -17.036218 -0.041707817    3552.5795    1531.3825    969.30759    898.15879     28.38027    18.847057    14.337659 0.0003575222 0.00035641547 0.00035531554 0.00035504607    300.33026     41.49527    35.978931    34.423473    90.016431    119.66323    90.107069     852.7573    214.51332    28.378869    18.849689    14.340058    28.379594    18.845308    14.336823 
   60000    301.46095    1.2509986    3482.4818            0            0            0            0   -6782.4982    44657.537 -0.067234084   -17.036218 -0.041707817    3482.4818    1477.2479    963.61189     885.6192    28.379644    18.843897    14.337372 0.00033955778 0.00033688814 0.00035627764 0.00035606167    301.46095     41.49527    35.978931    34.423473    90.016431    119.66323    90.107069    855.06635    203.73467    28.379456    18.847385    14.339741    28.379965    18.845193    14.337601 
   70000    297.16213    1.2509986    3516.7977            0            0            0            0   -7883.5735    44657.537 -0.067234084   -17.036218 -0.041707817    3516.7977    1454.9815    1001.3922    907.78427    28.379593    18.845029     14.33764 0.00034928127 0.00034830823 0.00037824678 0.00037790045    297.16213     41.49527    35.978931    34.423473    90.016431    119.66323    90.107069    907.79228    209.56876    28.379916    18.848264    14.340171    28.379523    18.845009    14.337478 
   80000    292.71884    1.2509986    3468.4265            0            0            0            0    -8845.186    44657.537 -0.067234084   -17.036218 -0.041707817    3468.4265    1461.0541    972.44766    880.73493    28.380982    18.846342    14.338576 0.00039226463  0.000391792 0.00037230641 0.00037146097    292.71884     41.49527    35.978931    34.423473    90.016431    119.66323    90.107069     893.5354    235.35878    28.379755    18.848826    14.339007    28.379339    18.846031    14.337823 
   90000    295.80056    1.2509986    3491.8744            0            0            0            0   -8157.6553    44657.537 -0.067234084   -17.036218 -0.041707817    3491.8744    1526.1388    924.10312    891.29219    28.381873    18.845108    14.338404 0.00036091995 0.00035780068 0.00036006771 0.00035993447    295.80056     41.49527    35.978931    34.423473    90.016431    119.66323    90.107069    864.16251    216.55197     28.38044    18.849957    14.338435    28.379867    18.845176    14.337061 
  100000    299.61835    1.2509986    3513.8034            0            0            0            0   -8750.5973    44657.537 -0.067234084   -17.036218 -0.041707817    3513.8034    1491.0667    977.37982    889.12706    28.383369    18.847573    14.338431 0.00035457377 0.00035349111 0.0003621106 0.00036194898    299.61835     41.49527    35.978931    34.423473    90.016431    119.66323    90.107069    869.06543    212.74426    28.378914    18.848266    14.339972    28.380072    18.845389    14.337559 
  110000    299.19095    1.2509986     3568.924            0            0            0            0   -7351.4396    44657.537 -0.067234084   -17.036218 -0.041707817     3568.924    1525.8608     982.1073    899.39724    28.381379    18.845833    14.338402 0.00037913744 0.00037668829 0.00037532859 0.00037419304    299.19095     41.49527    35.978931    34.423473    90.016431    119.66323    90.107069    900.78862    227.48246    28.381052    18.848658    14.339931    28.380059    18.846506    14.337167 
  120000    296.54003    1.2509986    3497.6245            0            0            0            0   -7875.8242    44657.537 -0.067234084   -17.036218 -0.041707817    3497.6245    1460.7188    962.06682    915.07419    28.378364    18.846422    14.337096  0.000380313 0.00037919176 0.0003357296 0.00033537081    296.54003     41.49527    35.978931    34.423473    90.016431    119.66323    90.107069    805.75103     228.1878    28.380425    18.849346    14.339132    28.379941    18.844997    14.336926 
  130000     293.5307    1.2509986    3450.8937            0            0            0            0   -8573.2827    44657.537 -0.067234084   -17.036218 -0.041707817    3450.8937    1437.8699     972.3224    885.95267    28.378515    18.847159    14.336993 0.00034789907 0.00034760514 0.00035806039 0.00035698489     293.5307     41.49527    35.978931    34.423473    90.016431    119.66323    90.107069    859.34494    208.73944    28.379433    18.848485    14.339659    28.379702    18.845699    14.336258 
  140000     296.2509    1.2509986    3550.7323            0            0            0            0   -7546.6092    44657.537 -0.067234084   -17.036218 -0.041707817    3550.7323    1511.5458    938.60772    939.66717    28.381581    18.845359    14.337376 0.00035965766 0.0003583996 0.00036174499 0.00036148912     296.2509     41.49527    35.978931    34.423473    90.016431    119.66323    90.107069    868.18797     215.7946    28.378487    18.848728    14.339459    28.380228    18.845188    14.337299 
  150000    297.48925    1.2509986      3488.02            0            0            0            0    -7497.046    44657.537 -0.067234084   -17.036218 -0.041707817      3488.02     1513.293      924.986    900.00876    28.379158    18.844753    14.337415 0.00034827725 0.00034781008 0.00035905904 0.00035866911    297.48925     41.49527    35.978931    34.423473    90.016431    119.66323    90.107069     861.7417    208.96635    28.379599    18.849634    14.339357    28.379485    18.845015    14.336997 
  160000    297.21936    1.2509986    3461.3735            0            0            0            0   -7670.2234    44657.537 -0.067234084   -17.036218 -0.041707817    3461.3735    1479.1851    934.28537     899.1319    28.380096     18.84533    14.338389 0.00035444297 0.00035361317 0.00035848999 0.00035817969    297.21936     41.49527    35.978931    34.423473    90.016431    119.66323    90.107069    860.37598    212.66578    28.380303    18.848509    14.339499    28.379649    18.845041    14.337574 
  170000    299.82741    1.2509986    3482.5829            0            0            0            0   -6839.2344    44657.537 -0.067234084   -17.036218 -0.041707817    3482.5829    1490.2061    928.44032    903.67177    28.379021    18.844875    14.336925 0.00035182474 0.00035150191 0.00036364762 0.00036359498    299.82741     41.49527    35.978931    34.423473    90.016431    119.66323    90.107069    872.75429    211.09484     28.37949    18.848839    14.339101    28.379868     18.84568     14.33735 
  180000    295.79987    1.2509986    3498.3144            0            0            0            0   -7995.4603    44657.537 -0.067234084   -17.036218 -0.041707817    3498.3144    1484.1066    977.55355    885.35805    28.379785      18.8457    14.337781 0.00036076989 0.00036031643 0.00034098822 0.00034095693    295.79987     41.49527    35.978931    34.423473    90.016431    119.66323    90.107069    818.37172    216.46194    28.380197    18.849133    14.339807    28.379851    18.845637    14.337322 
  190000    294.47066    1.2509986    3486.0841            0            0            0            0   -8234.0513    44657.537 -0.067234084   -17.036218 -0.041707817    3486.0841    1461.9988    1001.3119    866.66137      28.3807    18.846762    14.338569 0.00035335351 0.00035297499  0.000367841 0.00036757287    294.47066     41.49527    35.978931    34.423473    90.016431    119.66323    90.107069    882.81839     212.0121    28.379358    18.849595    14.339643    28.379965    18.845931    14.337455 
  200000    298.97797    1.2509986    3425.8106            0            0            0            0    -6713.519    44657.537 -0.067234084   -17.036218 -0.041707817    3425.8106    1435.5672    947.19334    890.10029    28.381409    18.844961    14.338449 0.00036532179 0.00036363027 0.00037067042 0.00037058079    298.97797     41.49527    35.978931    34.423473    90.016431    119.66323    90.107069    889.60901    219.19307    28.379826    18.847917    14.340285    28.380048    18.845577    14.337417 
  210000    308.06646    1.2509986    3480.4601            0            0            0            0   -9720.4774    44657.537 -0.067234084   -17.036218 -0.041707817    3480.4601    1484.7062    965.61388    874.33992    28.379975    18.845559    14.338723 0.00033121251 0.00033072667 0.00035458398 0.00035442057    308.06646     41.49527    35.978931    34.423473    90.016431    119.66323    90.107069    851.00154    198.72751    28.379533    18.849695    14.339498    28.379938    18.845835    14.337398 
  220000    298.42088    1.2509986    3591.9907            0            0            0            0    -7967.623    44657.537 -0.067234084   -17.036218 -0.041707817    3591.9907    1485.9423     999.0347    942.02664    28.377475    18.844162    14.336829 0.00033938814 0.00033769127 0.00036406226 0.00036400559    298.42088     41.49527    35.978931    34.423473    90.016431    119.66323    90.107069    873.74941    203.63288    28.380616    18.849226    14.338911    28.379698    18.845571     14.33745 
  230000    298.73119    1.2509986    3536.9955            0            0            0            0   -7050.9762    44657.537 -0.067234084   -17.036218 -0.041707817    3536.9955    1510.8771    950.67536    914.16594    28.379983     18.84686    14.336719 0.00036071666 0.00035926957 0.00035020178 0.0003496642    298.73119     41.49527    35.978931    34.423473    90.016431    119.66323    90.107069    840.48427    216.42999     28.38051    18.848666    14.338992    28.379831     18.84605    14.336811 
  240000    300.18366    1.2509986    3529.3212            0            0            0            0   -8046.2584    44657.537 -0.067234084   -17.036218 -0.041707817    3529.3212    1504.8021    945.61601    917.33151    28.380262    18.844229    14.337817 0.00033219384 0.00032998974 0.00035374182 0.00035326645    300.18366     41.49527    35.978931    34.423473    90.016431    119.66323    90.107069    848.98036     199.3163    28.380845    18.848365    14.339284    28.379234    18.845533    14.336893 
  250000    293.09222    1.2509986    3505.4614            0            0            0            0   -9041.8413    44657.537 -0.067234084   -17.036218 -0.041707817    3505.4614    1473.1446    995.30707    887.69096    28.379232    18.846216    14.337264 0.00033974387 0.0003396786 0.00035435796 0.00035356396    293.09222     41.49527    35.978931    34.423473    90.016431    119.66323    90.107069     850.4591    203.84632    28.379488    18.848872     14.33984    28.379975    18.846347    14.337344 
  260000    293.43492    1.2509986    3571.3541            0            0            0            0   -6885.9878    44657.537 -0.067234084   -17.036218 -0.041707817    3571.3541    1552.9223    968.32919     900.5376    28.378177     18.84536    14.336606 0.00032389056 0.00032362105 0.00036234071 0.00036219212    293.43492     41.49527    35.978931    34.423473    90.016431    119.66323    90.107069     869.6177    194.33433     28.37937    18.849101    14.339162    28.379554    18.845554     14.33699 
  270000    293.00096    1.2509986    3517.4564            0            0            0            0   -8472.4445    44657.537 -0.067234084   -17.036218 -0.041707817    3517.4564    1498.2854     956.7134    903.49166    28.379824    18.844889    14.337753 0.00035865405 0.00035838548 0.00036923488 0.00036861165    293.00096     41.49527    35.978931    34.423473    90.016431    119.66323    90.107069     886.1637    215.19243    28.379242    18.848616    14.339528    28.379524    18.844753    14.337407 
  280000    295.91178    1.2509986    3455.1016            0            0            0            0   -7465.2646    44657.537 -0.067234084   -17.036218 -0.041707817    3455.1016    1467.8821    952.65195     879.2015      28.3798     18.84618    14.337519 0.00035056122 0.00035026278 0.00034802453 0.00034791159    295.91178     41.49527    35.978931    34.423473    90.016431    119.66323    90.107069    835.25888    210.33673    28.380097    18.848931     14.33964    28.379564    18.845306    14.337112 
  290000    295.70497    1.2509986    3570.6686            0            0            0            0   -7618.3621    44657.537 -0.067234084   -17.036218 -0.041707817    3570.6686    1510.4507     982.1127    923.58176    28.379873    18.846214      14.3376 0.00035132218 0.00035129869  0.000375359 0.00037482155    295.70497     41.49527    35.978931    34.423473    90.016431    119.66323    90.107069     900.8616    210.79331     28.37957    18.849068    14.339496    28.379901     18.84611    14.336911 
  300000    297.22581    1.2509986    3503.6206            0            0            0            0   -7984.1465    44657.537 -0.067234084   -17.036218 -0.041707817    3503.6206    1468.1758    948.06717    924.48028    28.378784    18.846591    14.338015 0.00033032238 0.00032993096 0.00035817585 0.00035750132    297.22581     41.49527    35.978931    34.423473    90.016431    119.66323    90.107069    859.62204    198.19343    28.379719    18.849617    14.339649    28.379875    18.846242    14.337548 
  310000    291.54191    1.2509986     3533.951            0            0            0            0   -7966.0547    44657.537 -0.067234084   -17.036218 -0.041707817     3533.951    1501.5128    962.98925    917.39158    28.378529    18.846518    14.337654 0.00035758078 0.0003562651 0.00035745057 0.00035717319    291.54191     41.49527    35.978931    34.423473    90.016431    119.66323    90.107069    857.88137    214.54847    28.380677     18.84922    14.339767    28.379611    18.845596    14.337736 
  320000    299.96254    1.2509986    3520.7298            0            0            0            0   -8800.3836    44657.537 -0.067234084   -17.036218 -0.041707817    3520.7298    1492.2138    966.13543    906.46729    28.380444    18.844694    14.338064 0.00033811674 0.0003374783 0.00035403399 0.0003540115    299.96254     41.49527    35.978931    34.423473    90.016431    119.66323    90.107069    849.68156    202.87004    28.379344    18.849138    14.340398    28.379742    18.845351    14.337312 
  330000    295.63864    1.2509986    3463.8695            0            0            0            0   -7564.6375    44657.537 -0.067234084   -17.036218 -0.041707817    3463.8695    1503.4536    952.64115    856.61495      28.3776    18.846055    14.337571 0.00034129013 0.00033952306 0.00036671861 0.00036589612    295.63864     41.49527    35.978931    34.423473    90.016431    119.66323    90.107069    880.12467    204.77408    28.380791      18.8494    14.339332    28.379214    18.846044    14.337639 
  340000    293.53916    1.2509986    3475.4552            0            0            0            0   -7360.7757    44657.537 -0.067234084   -17.036218 -0.041707817    3475.4552    1502.4022    939.22545    881.94679    28.380626    18.846678     14.33721 0.0003471234 0.00034653088 0.00034817258 0.0003474642    293.53916     41.49527    35.978931    34.423473    90.016431    119.66323    90.107069     835.6142    208.27404    28.379867    18.848802     14.34031    28.380122    18.846137    14.336848 
  350000    299.67835    1.2509986    3466.3529            0            0            0            0   -6357.3502    44657.537 -0.067234084   -17.036218 -0.041707817    3466.3529    1439.3494    966.32961    906.56431    28.378965    18.845516    14.337371 0.00036276674 0.00036231035 0.00034675371 0.00034644799    299.67835     41.49527    35.978931    34.423473    90.016431    119.66323    90.107069     832.2089    217.66004     28.37967    18.848757    14.340253    28.380266    18.845315    14.337536 
  360000    301.79064    1.2509986    3474.3852            0            0            0            0   -5831.2034    44657.537 -0.067234084   -17.036218 -0.041707817    3474.3852    1490.5451    967.71277    866.62078    28.378468    18.844848    14.336766 0.00034764771 0.00034596196 0.00034720328 0.00034685993    301.79064     41.49527    35.978931    34.423473    90.016431    119.66323    90.107069    833.28788    208.58863    28.379657     18.84772    14.339707    28.379356    18.845358    14.336916 
  370000    295.24243    1.2509986    3522.6037            0            0            0            0   -8331.1762    44657.537 -0.067234084   -17.036218 -0.041707817    3522.6037    1489.5128    974.98477    900.68353    28.378342    18.846548    14.336791 0.00034835582 0.00034753301 0.00036183172 0.00036161537    295.24243     41.49527    35.978931    34.423473    90.016431    119.66323    90.107069    868.39613    209.01349    28.380029    18.849748    14.339397    28.380085    18.845737    14.336995 
  380000    304.23894    1.2509986    3488.9282            0            0            0            0   -8529.1952    44657.537 -0.067234084   -17.036218 -0.041707817    3488.9282    1467.9669    951.63775    909.76106    28.380319    18.845027    14.337568 0.00033358888 0.00033321669 0.00039376801 0.00039350417    304.23894     41.49527    35.978931    34.423473    90.016431    119.66323    90.107069    945.04322    200.15333    28.379436    18.849579     14.33983     28.37958    18.845867    14.337028 
  390000    295.90277    1.2509986    3516.4822            0            0            0            0   -7016.4654    44657.537 -0.067234084   -17.036218 -0.041707817    3516.4822    1486.1513    980.59424    891.16081    28.381508    18.846444    14.337241 0.00037228364 0.00037123294 0.00036621806 0.00036574696    295.90277     41.49527    35.978931    34.423473    90.016431    119.66323    90.107069    878.92334    223.37018     28.38054    18.849015    14.339348    28.380321    18.845921    14.337152 
  400000    298.56583    1.2509986    3476.9204            0            0            0            0   -7091.5217    44657.537 -0.067234084   -17.036218 -0.041707817    3476.9204    1478.7152    980.57285    872.00309    28.380673    18.846989    14.337712 0.00039894923 0.00039653722 0.00035506417 0.00035475055    298.56583     41.49527    35.978931    34.423473    90.016431    119.66323    90.107069      852.154    239.36954     28.37802    18.848801    14.339715    28.379922     18.84567    14.336751 
  410000     296.5323    1.2509986     3523.112            0            0            0            0   -7287.1927    44657.537 -0.067234084   -17.036218 -0.041707817     3523.112    1465.6457    958.37014    934.33532    28.377939    18.845342    14.336664 0.00036128236 0.00035941064 0.00036272374 0.00036263743     296.5323     41.49527    35.978931    34.423473    90.016431    119.66323    90.107069    870.53698    216.76942     28.37876      18.8489    14.340744     28.37955    18.845416    14.337144 
  420000    299.17276    1.2509986    3441.3566            0            0            0            0   -8022.8609    44657.537 -0.067234084   -17.036218 -0.041707817    3441.3566    1484.5165    930.12242    878.95557    28.380963     18.84564    14.338359 0.00035518046 0.00035412193 0.00036931732 0.00036906774    299.17276     41.49527    35.978931    34.423473    90.016431    119.66323    90.107069    886.36157    213.10828    28.379201    18.848666    14.338737    28.380161    18.845751    14.337491 
  430000    300.22274    1.2509986    3448.7132            0            0            0            0   -8353.2836    44657.537 -0.067234084   -17.036218 -0.041707817    3448.7132    1489.5015    955.24724    853.50028    28.379276    18.845764    14.337536 0.00035469869 0.00035322579 0.00036305629 0.00036302618    300.22274     41.49527    35.978931    34.423473    90.016431    119.66323    90.107069    871.33509    212.81921    28.380443    18.849087    14.338812    28.379893    18.845479    14.337418 
  440000    299.97795    1.2509986    3535.9193            0            0            0            0   -7577.1026    44657.537 -0.067234084   -17.036218 -0.041707817    3535.9193    1488.7519    939.91384    947.52334    28.379574    18.845817    14.337881 0.00038064706 0.00037916158 0.00036110499 0.00036101527    299.97795     41.49527    35.978931    34.423473    90.016431    119.66323    90.107069    866.65198    228.38824    28.379148    18.848116    14.338922    28.379654    18.845701     14.33738 
  450000    296.29451    1.2509986    3506.2681            0            0            0            0   -10459.719    44657.537 -0.067234084   -17.036218 -0.041707817    3506.2681    1521.2783    937.56214    894.01836     28.38007    18.844915    14.337944 0.00036053917 0.00035975643 0.00035937623 0.00035900512    296.29451     41.49527    35.978931    34.423473    90.016431    119.66323    90.107069    862.50296     216.3235    28.379082    18.848757     14.34034    28.380314    18.845133    14.337319 
  460000    299.45289    1.2509986    3534.3504            0            0            0            0   -6958.1256    44657.537 -0.067234084   -17.036218 -0.041707817    3534.3504    1462.4247    974.18202    938.48862    28.379629    18.846981    14.337405 0.00037434334 0.00037193884 0.00035186552  0.000351807    299.45289     41.49527    35.978931    34.423473    90.016431    119.66323    90.107069    844.47726      224.606    28.379402    18.848373    14.341042    28.379739    18.845503    14.337493 
  470000    296.69644    1.2509986    3443.3019            0            0            0            0   -6572.9409    44657.537 -0.067234084   -17.036218 -0.041707817    3443.3019    1448.2822    944.45978    899.01706    28.378582    18.846252    14.337223 0.0003408001 0.00033821106 0.00035560353 0.00035558196    296.69644     41.49527    35.978931    34.423473    90.016431    119.66323    90.107069    853.44847    204.48006    28.378076    18.849375    14.340153    28.379778    18.845602      14.3372 
  480000    303.55728    1.2509986    3483.5675            0            0            0            0   -7764.8429    44657.537 -0.067234084   -17.036218 -0.041707817    3483.5675    1475.5981    975.31247    882.68749    28.384147    18.845295    14.338837 0.00033986692 0.00033800405 0.00035731857 0.00035695456    303.55728     41.49527    35.978931    34.423473    90.016431    119.66323    90.107069    857.56456    203.92015    28.379449    18.847658     14.33976    28.379988    18.844983    14.337566 
  490000    297.33123    1.2509986    3454.6903            0            0            0            0    -6894.968    44657.537 -0.067234084   -17.036218 -0.041707817    3454.6903    1452.2527    975.07677    875.69796    28.381378    18.845927    14.338571 0.00034000651 0.00033783965 0.00037112455 0.00037031471    297.33123     41.49527    35.978931    34.423473    90.016431    119.66323    90.107069    890.69891     204.0039    28.380249     18.84782    14.339123    28.379075    18.844993    14.337077 
  500000    300.27646    1.2509986    3499.4755            0            0            0            0   -8037.8082    44657.537 -0.067234084   -17.036218 -0.041707817    3499.4755    1477.3196    956.88575    906.11476    28.380191    18.846525    14.337402 0.00032231578 0.0003207402 0.00035525146 0.00035489974    300.27646     41.49527    35.978931    34.423473    90.016431    119.66323    90.107069     852.6035    193.38947    28.378362    18.848842    14.339984    28.379577    18.846006    14.337147 
  510000    300.13794    1.2509986    3520.0949            0            0            0            0   -7505.0188    44657.537 -0.067234084   -17.036218 -0.041707817    3520.0949    1510.2511    955.73041    899.96028    28.379557    18.846079    14.337184 0.00036692366 0.00036573815 0.00036332909 0.00036314863    300.13794     41.49527    35.978931    34.423473    90.016431    119.66323    90.107069    871.98981    220.15419     28.37931    18.849232    14.338601    28.379967    18.845246    14.336942 
  520000    294.84489    1.2509986    3488.3351            0            0            0            0    -9191.947    44657.537 -0.067234084   -17.036218 -0.041707817    3488.3351    1477.3576    957.81059    896.67149    28.381248    18.844642    14.337524 0.00033535979 0.00033435797 0.00036364798 0.00036298927    294.84489     41.49527    35.978931    34.423473    90.016431    119.66323    90.107069    872.75514    201.21587    28.378915    18.848254    14.339757    28.380177    18.844751    14.337315 
  530000    300.94691    1.2509986    3457.2264            0            0            0            0   -6882.7093    44657.537 -0.067234084   -17.036218 -0.041707817    3457.2264    1482.0989    932.22788    883.34523    28.378816    18.844579    14.337151 0.00037977186 0.00037939448 0.00035540001 0.00035502665    300.94691     41.49527    35.978931    34.423473    90.016431    119.66323    90.107069    852.96002    227.86312    28.379585    18.848679    14.339123    28.380323    18.845776     14.33712 
  540000    302.19672    1.2509986    3531.8166            0            0            0            0   -7922.0164    44657.537 -0.067234084   -17.036218 -0.041707817    3531.8166    1456.5622    993.99324    923.75734    28.380673    18.844663    14.337992 0.00036016901 0.00035818909 0.00035993394 0.00035968092    302.19672     41.49527    35.978931    34.423473    90.016431    119.66323    90.107069    863.84145     216.1014    28.379811    18.847802    14.340309    28.380121    18.845619    14.337634 
  550000    302.92518    1.2509986    3345.8553            0            0            0            0    -7652.345    44657.537 -0.067234084   -17.036218 -0.041707817    3345.8553    1436.4441    899.03193    864.17405    28.380199    18.846053    14.336982 0.00035523326 0.00035474163 0.00036259735 0.00036243074    302.92518     41.49527    35.978931    34.423473    90.016431    119.66323    90.107069    870.23364    213.13996    28.380225    18.849034    14.339847    28.379715    18.845745    14.337555 
  560000    295.37019    1.2509986    3548.8297            0            0            0            0   -7109.9512    44657.537 -0.067234084   -17.036218 -0.041707817    3548.8297    1462.4956    983.39032    937.67897    28.381476    18.845849     14.33837 0.00037170313 0.00036876192 0.0003750044 0.00037483588    295.37019     41.49527    35.978931    34.423473    90.016431    119.66323    90.107069    900.01056    223.02188    28.379175    18.850426    14.340532    28.380022    18.845332    14.337587 
  570000    300.78965    1.2509986    3530.6701            0            0            0            0   -7689.1717    44657.537 -0.067234084   -17.036218 -0.041707817    3530.6701    1473.3119    961.37267    934.44701    28.380066    18.845385    14.338753 0.00031439046 0.00031388661 0.00036716427 0.00036672716    300.78965     41.49527    35.978931    34.423473    90.016431    119.66323    90.107069    881.19426    188.63428    28.379107    18.849417    14.339266    28.380017    18.845839    14.337776 
  580000    302.20502    1.2509986    3461.6356            0            0            0            0   -7456.3893    44657.537 -0.067234084   -17.036218 -0.041707817    3461.6356     1450.336    941.09778    911.15577     28.37673    18.845447    14.336301 0.00033740678 0.00033708379 0.00036066179 0.00036010462    302.20502     41.49527    35.978931    34.423473    90.016431    119.66323    90.107069    865.58829    202.44407    28.380054    18.848779    14.339492    28.379363    18.845933    14.336883 
  590000    293.56529    1.2509986    3513.5754            0            0            0            0   -8896.2567    44657.537 -0.067234084   -17.036218 -0.041707817    3513.5754    1464.8501    971.81825    918.08167    28.380776    18.844507    14.337851 0.00031883064 0.00031819858 0.0003379202 0.00033776169    293.56529     41.49527    35.978931    34.423473    90.016431    119.66323    90.107069    811.00848    191.29839    28.380305    18.849156     14.33941     28.37977    18.845217    14.337565 
  600000    300.09906    1.2509986    3547.8656            0            0            0            0   -7247.6061    44657.537 -0.067234084   -17.036218 -0.041707817    3547.8656    1505.0302     990.2601    896.50751    28.381241    18.845528    14.338533 0.00033936994 0.00033872387  0.000376565 0.0003763967    300.09906     41.49527    35.978931    34.423473    90.016431    119.66323    90.107069    903.75601    203.62196    28.378807     18.84924     14.33982    28.379563    18.845763    14.337416 
  610000    298.91802    1.2509986    3419.7823            0            0            0            0   -7154.2067    44657.537 -0.067234084   -17.036218 -0.041707817    3419.7823    1418.9596    956.59711    886.73179    28.380288    18.845246    14.337473 0.00033095531 0.00033014131 0.0003596351 0.00035900686    298.91802     41.49527    35.978931    34.423473    90.016431    119.66323    90.107069    863.12425    198.57319    28.379709    18.848565    14.340406    28.380522    18.845379    14.336924 
  620000    291.40972    1.2509986    3541.2325            0            0            0            0   -8392.2736    44657.537 -0.067234084   -17.036218 -0.041707817    3541.2325    1477.6776    992.71938    910.50631     28.37826    18.846319    14.337637 0.00032874076 0.00032803076 0.00037865398 0.00037800153    291.40972     41.49527    35.978931    34.423473    90.016431    119.66323    90.107069    908.76954    197.24445    28.378848    18.849465    14.339587    28.379434    18.845977    14.337771 
  630000    294.75961    1.2509986    3507.2183            0            0            0            0   -8573.0049    44657.537 -0.067234084   -17.036218 -0.041707817    3507.2183    1482.6344    982.43276    889.83712    28.381398    18.845352    14.338194 0.00035600033 0.00035496938 0.00036551901 0.00036473786    294.75961     41.49527    35.978931    34.423473    90.016431    119.66323    90.107069    877.24562     213.6002     28.37872    18.848687    14.339163    28.380083    18.845767    14.336476 
  640000    296.77194    1.2509986    3457.6837            0            0            0            0   -7793.5394    44657.537 -0.067234084   -17.036218 -0.041707817    3457.6837     1451.007    949.53161     901.2144    28.380616     18.84769    14.337145 0.00035715611 0.00035670367 0.00035222076 0.00035181112    296.77194     41.49527    35.978931    34.423473    90.016431    119.66323    90.107069    845.32983    214.29367    28.379493    18.849122    14.338977    28.379754    18.845546    14.336631 
  650000    295.77628    1.2509986    3503.8661            0            0            0            0   -8004.3712    44657.537 -0.067234084   -17.036218 -0.041707817    3503.8661    1495.8429    959.41459    895.79625    28.381088    18.846023    14.337709 0.0003291048 0.00032800539 0.00035997244  0.000359804    295.77628     41.49527    35.978931    34.423473    90.016431    119.66323    90.107069    863.93386    197.46288    28.380424     18.84873    14.339121    28.379521    18.845263    14.337462 
  660000    291.88689    1.2509986     3594.315            0            0            0            0   -9313.6474    44657.537 -0.067234084   -17.036218 -0.041707817     3594.315    1509.4653    981.81935    940.67424      28.3794    18.846768    14.337116 0.00032432698 0.00032376132 0.0003583305 0.00035773017    291.88689     41.49527    35.978931    34.423473    90.016431    119.66323    90.107069     859.9932    194.59619    28.379805    18.849492    14.340162    28.379155     18.84588    14.337205 
  670000     295.3148    1.2509986    3503.6627            0            0            0            0   -7825.5599    44657.537 -0.067234084   -17.036218 -0.041707817    3503.6627    1519.0455    958.73442    874.47445    28.380005    18.844743    14.337175 0.00037820656 0.00037659835 0.00037130424 0.00037119025     295.3148     41.49527    35.978931    34.423473    90.016431    119.66323    90.107069    891.13016    226.92394    28.378833    18.847974    14.339711    28.379998    18.845695     14.33709 
  680000    296.53585    1.2509986    3453.7711            0            0            0            0   -7629.4424    44657.537 -0.067234084   -17.036218 -0.041707817    3453.7711     1476.355    928.17857    893.39502    28.378995    18.845479    14.337157 0.00033719216 0.00033656972 0.00035037285 0.00035026852    296.53585     41.49527    35.978931    34.423473    90.016431    119.66323    90.107069    840.89484    202.31529    28.379836    18.848311    14.339865    28.380087    18.845325    14.337185 
  690000    300.10689    1.2509986    3510.5336            0            0            0            0   -7670.8413    44657.537 -0.067234084   -17.036218 -0.041707817    3510.5336    1484.2879    966.06357    901.88882    28.379308    18.845316     14.33763 0.00040513561 0.00040502381 0.00034210109 0.00034175589    300.10689     41.49527    35.978931    34.423473    90.016431    119.66323    90.107069    821.04263    243.08137     28.37945    18.848716    14.339749    28.380177    18.845755      14.3369 
  700000    303.58469    1.2509986    3472.9541            0            0            0            0   -6720.1411    44657.537 -0.067234084   -17.036218 -0.041707817    3472.9541    1443.7639     981.6372    893.83567    28.381342    18.846252    14.338639 0.00034123968 0.00034114243 0.00036727633 0.00036715942    303.58469     41.49527    35.978931    34.423473    90.016431    119.66323    90.107069    881.46318    204.74381    28.379267    18.848903    14.339601    28.379761    18.845783    14.337402 
  710000    301.06616    1.2509986     3523.884            0            0            0            0   -7905.6058    44657.537 -0.067234084   -17.036218 -0.041707817     3523.884    1521.2015    974.26127    877.25399    28.382884    18.846132    14.338753 0.00034152524 0.00034004732 0.0003573789 0.00035655211    301.06616     41.49527    35.978931    34.423473    90.016431    119.66323    90.107069    857.70935    204.91515    28.380139    18.848394    14.340507    28.379397    18.846279    14.337344 
  720000    302.82492    1.2509986     3454.079            0            0            0            0   -9339.5572    44657.537 -0.067234084   -17.036218 -0.041707817     3454.079    1457.6381    972.17616    874.30275    28.380002    18.846242    14.337656 0.00035981585 0.00035792297 0.00035166892 0.00035153142    302.82492     41.49527    35.978931    34.423473    90.016431    119.66323    90.107069    844.00541    215.88951     28.38046    18.848031    14.339973    28.379467    18.845558    14.337158 
  730000    302.07457    1.2509986    3424.7263            0            0            0            0     -8357.54    44657.537 -0.067234084   -17.036218 -0.041707817    3424.7263     1456.784    934.87191     879.0479    28.378718    18.845159     14.33716 0.00036187127 0.00036057804 0.00035901761 0.00035887821    302.07457     41.49527    35.978931    34.423473    90.016431    119.66323    90.107069    861.64226    217.12276    28.379258    18.847993    14.340043    28.379776     18.84583    14.337158 
  740000    299.26701    1.2509986    3507.9784            0            0            0            0   -7891.5846    44657.537 -0.067234084   -17.036218 -0.041707817    3507.9784    1494.3201    947.75861    901.83072    28.379251    18.845975    14.337817 0.00033409769 0.00033267699 0.00037569074 0.00037558573    299.26701     41.49527    35.978931    34.423473    90.016431    119.66323    90.107069    901.65777    200.45861    28.380597    18.848622    14.339208    28.379558    18.845376     14.33744 
  750000    294.31408    1.2509986    3549.0722            0            0            0            0   -9964.8473    44657.537 -0.067234084   -17.036218 -0.041707817    3549.0722    1514.0723    976.87754    898.76933      28.3783    18.847483    14.337361 0.00032880704 0.00032839363 0.0003467815 0.00034628477    294.31408     41.49527    35.978931    34.423473    90.016431    119.66323    90.107069    832.27561    197.28422    28.380113     18.84896    14.339956    28.379711    18.846095    14.337583 
  760000     298.9464    1.2509986    3526.9521            0            0            0            0   -8466.7061    44657.537 -0.067234084   -17.036218 -0.041707817    3526.9521    1511.6016     982.3116    882.86595     28.37918    18.845005    14.336997 0.00034385156 0.00034361644 0.00035561366 0.00035534124     298.9464     41.49527    35.978931    34.423473    90.016431    119.66323    90.107069    853.47278    206.31093     28.37921    18.849153    14.339329    28.379629    18.845953    14.337165 
  770000    294.84155    1.2509986    3486.4494            0            0            0            0   -8194.4626    44657.537 -0.067234084   -17.036218 -0.041707817    3486.4494    1476.7258    973.20467    887.53618    28.380356     18.84689    14.338393 0.00036231758 0.0003616709 0.00036159656 0.00036147394    294.84155     41.49527    35.978931    34.423473    90.016431    119.66323    90.107069    867.83175    217.39055    28.380052    18.848422     14.33941    28.379822    18.845759    14.337468 
  780000    300.74912    1.2509986    3515.9627            0            0            0            0   -7902.2123    44657.537 -0.067234084   -17.036218 -0.041707817    3515.9627    1485.1538     957.7694    915.70391     28.38001    18.844555    14.337698 0.00035019927 0.00034966473 0.00034629277 0.00034596465    300.74912     41.49527    35.978931    34.423473    90.016431    119.66323    90.107069    831.10264    210.11956    28.379209    18.848792    14.340242    28.379761    18.845112    14.336824 
  790000    300.40907    1.2509986    3508.0136            0            0            0            0   -9023.8756    44657.537 -0.067234084   -17.036218 -0.041707817    3508.0136    1483.9515    974.78016    894.33974    28.379499    18.845589    14.337514 0.00035292366 0.00035173745 0.00034844475 0.00034769186    300.40907     41.49527    35.978931    34.423473    90.016431    119.66323    90.107069    836.26739     211.7542    28.380613    18.849179    14.339431    28.379506    18.846286    14.337296 
  800000     304.3042    1.2509986    3468.1627            0            0            0            0   -8559.4488    44657.537 -0.067234084   -17.036218 -0.041707817    3468.1627    1475.4423    926.13833    909.27148    28.379373    18.845342    14.337743 0.0003737084 0.00037154665 0.00035611012 0.00035559595     304.3042     41.49527    35.978931    34.423473    90.016431    119.66323    90.107069    854.66429    224.22504    28.379527    18.847998    14.340702    28.379604    18.845721    14.337904 
  810000    299.16074    1.2509986    3482.6727            0            0            0            0   -6983.2681    44657.537 -0.067234084   -17.036218 -0.041707817    3482.6727    1490.9293    948.06728     889.2573    28.379007    18.846226    14.337608 0.00035238216 0.00035142988 0.00036294114 0.00036286918    299.16074     41.49527    35.978931    34.423473    90.016431    119.66323    90.107069    871.05875     211.4293    28.380531    18.848994    14.339599    28.379823    18.845707    14.337398 
  820000    296.27844    1.2509986    3440.9645            0            0            0            0   -5774.4488    44657.537 -0.067234084   -17.036218 -0.041707817    3440.9645    1471.1464    933.49125    882.83054    28.379368    18.844533    14.338162 0.00034390938 0.00034286592 0.00038494528 0.00038446103    296.27844     41.49527    35.978931    34.423473    90.016431    119.66323    90.107069    923.86866    206.34563    28.379824    18.848062    14.339899    28.379585    18.845041    14.337759 
  830000    300.54124    1.2509986    3477.7512            0            0            0            0   -7884.2375    44657.537 -0.067234084   -17.036218 -0.041707817    3477.7512    1449.3386     949.9905     920.1923    28.380676    18.846664     14.33767 0.00038092082 0.00037790107 0.00036110533 0.00036064531    300.54124     41.49527    35.978931    34.423473    90.016431    119.66323    90.107069    866.65279    228.55249    28.380207    18.849168    14.341242    28.379882    18.846075    14.336958 
  840000    297.23273    1.2509986    3516.4584            0            0            0            0   -8936.5193    44657.537 -0.067234084   -17.036218 -0.041707817    3516.4584    1499.1455    975.37479    888.31003    28.379403     18.84427    14.337627 0.00037028593 0.00036955207 0.00036857721 0.00036799535    297.23273     41.49527    35.978931    34.423473    90.016431    119.66323    90.107069    884.58529    222.17156    28.379947    18.849098     14.33888    28.379839    18.844775    14.337568 
  850000    298.19321    1.2509986    3443.1179            0            0            0            0   -7925.0117    44657.537 -0.067234084   -17.036218 -0.041707817    3443.1179    1440.3438     975.2924    877.64278    28.380475    18.844544    14.338191 0.00036989139 0.00036855267 0.00036317018  0.000362006    298.19321     41.49527    35.978931    34.423473    90.016431    119.66323    90.107069    871.60844    221.93483    28.378672     18.84868    14.340306    28.379995    18.845093    14.338257 
  860000    300.72689    1.2509986    3548.1047            0            0            0            0   -7460.4486    44657.537 -0.067234084   -17.036218 -0.041707817    3548.1047    1506.6609    997.27312    892.58549    28.379499     18.84532    14.337648 0.00034028629 0.00033868773 0.00037228407 0.00037182064    300.72689     41.49527    35.978931    34.423473    90.016431    119.66323    90.107069    893.48176    204.17177    28.380223    18.849507    14.340592    28.380399    18.845156    14.337131 
  870000    298.12836    1.2509986    3559.0118            0            0            0            0   -9058.9134    44657.537 -0.067234084   -17.036218 -0.041707817    3559.0118    1491.7007    1002.9937    903.70211    28.380538    18.846144    14.337835 0.00032810388 0.00032782427 0.00035266373 0.00035215869    298.12836     41.49527    35.978931    34.423473    90.016431    119.66323    90.107069    846.39296    196.86233    28.379199    18.848772    14.339944    28.380522    18.845491    14.337269 
  880000    305.94257    1.2509986    3461.7368            0            0            0            0   -6610.1579    44657.537 -0.067234084   -17.036218 -0.041707817    3461.7368    1473.6643    922.66784    909.25492     28.37916    18.845016    14.336946 0.00035234663 0.00035224973 0.00035190796 0.00035161532    305.94257     41.49527    35.978931    34.423473    90.016431    119.66323    90.107069    844.57911    211.40798    28.379286     18.84886    14.339645    28.380193    18.845652    14.336924 
  890000     298.8124    1.2509986    3543.0368            0            0            0            0   -6988.2756    44657.537 -0.067234084   -17.036218 -0.041707817    3543.0368    1487.9599    988.49145    911.24446    28.378497    18.846917    14.337457 0.00035206189 0.00035203882 0.00036466984 0.0003639602     298.8124     41.49527    35.978931    34.423473    90.016431    119.66323    90.107069    875.20761    211.23713    28.379618    18.848881    14.339681    28.380443     18.84588    14.337648 
  900000    306.33454    1.2509986    3537.1511            0            0            0            0    -7812.752    44657.537 -0.067234084   -17.036218 -0.041707817    3537.1511    1482.4233    956.62019    934.79985    28.379372    18.845256    14.337752 0.0003566331  0.000355629 0.00037780158 0.00037763124    306.33454     41.49527    35.978931    34.423473    90.016431    119.66323    90.107069     906.7238    213.97986    28.380123    18.849492    14.340312    28.379683    18.845558    14.337647 
  910000    294.92489    1.2509986    3475.3449            0            0            0            0   -8486.9075    44657.537 -0.067234084   -17.036218 -0.041707817    3475.3449    1501.0442    954.62101    867.09382    28.379948    18.844906    14.337126 0.00034145333 0.00034115025 0.00035751164 0.00035738917    294.92489     41.49527    35.978931    34.423473    90.016431    119.66323    90.107069    858.02794      204.872    28.379062    18.848776    14.339691    28.379949    18.845666    14.337006 
  920000    305.65366    1.2509986    3531.3658            0            0            0            0   -7072.5102    44657.537 -0.067234084   -17.036218 -0.041707817    3531.3658    1488.1436     977.8088    908.99639    28.378989     18.84595    14.337958 0.00038294543 0.00038270362 0.00035570256 0.00035481184    305.65366     41.49527    35.978931    34.423473    90.016431    119.66323    90.107069    853.68616    229.76726     28.37949    18.848854    14.340099    28.379605    18.844694    14.337753 
  930000    301.25043    1.2509986    3568.2675            0            0            0            0   -7194.5898    44657.537 -0.067234084   -17.036218 -0.041707817    3568.2675    1490.3631    986.11487    925.36798    28.380035    18.845571    14.337854 0.00037478673 0.00037425812 0.0003527531 0.00035237394    301.25043     41.49527    35.978931    34.423473    90.016431    119.66323    90.107069    846.60745    224.87204    28.378907    18.848799    14.339391     28.37949    18.845824    14.337656 
  940000    294.57776    1.2509986     3562.889            0            0            0            0   -8217.2169    44657.537 -0.067234084   -17.036218 -0.041707817     3562.889    1523.6806    977.65028    905.57426    28.381755    18.845685    14.337662 0.0003768228 0.00037593374 0.00036084865 0.00036080579    294.57776     41.49527    35.978931    34.423473    90.016431    119.66323    90.107069    866.03675    226.09368    28.380224    18.848646    14.339082     28.37987    18.845393    14.337446 
  950000    297.39133    1.2509986    3541.4627            0            0            0            0    -7177.198    44657.537 -0.067234084   -17.036218 -0.041707817    3541.4627    1518.6254    953.79774    909.91572    28.381118    18.846191    14.337953 0.00033633115 0.00033583657 0.00034158969 0.00034134802    297.39133     41.49527    35.978931    34.423473    90.016431    119.66323    90.107069    819.81527    201.79869    28.379806    18.849538    14.340034    28.379735    18.845561    14.337742 
  960000    300.56544    1.2509986    3532.4071            0            0            0            0   -6658.8552    44657.537 -0.067234084   -17.036218 -0.041707817    3532.4071    1496.1817     969.1314    904.16876    28.379882    18.844796       14.337 0.00037542286 0.00037434546 0.00036235716 0.00036178604    300.56544     41.49527    35.978931    34.423473    90.016431    119.66323    90.107069    869.65719    225.25372    28.379188    18.849825     14.34017    28.380104    18.846171    14.337252 
  970000    292.68369    1.2509986    3395.1075            0            0            0            0   -8705.9574    44657.537 -0.067234084   -17.036218 -0.041707817    3395.1075    1455.5373    909.84718    875.62044    28.380103    18.844792    14.337709 0.00038207009 0.00038097321 0.00035696193 0.00035675956    292.68369     41.49527    35.978931    34.423473    90.016431    119.66323    90.107069    856.70862    229.24205      28.3792    18.848584    14.340524    28.379673    18.845177    14.336957 
  980000    303.73662    1.2509986    3537.2179            0            0            0            0   -7658.2402    44657.537 -0.067234084   -17.036218 -0.041707817    3537.2179    1482.4924    965.45003    933.72811    28.378084    18.845807    14.336945 0.00035220428 0.0003509716 0.00039020893 0.00039007439    303.73662     41.49527    35.978931    34.423473    90.016431    119.66323    90.107069    936.50143    211.32257     28.37888    18.848134    14.339681    28.380172    18.845475    14.337335 
  990000    292.52321    1.2509986     3537.549            0            0            0            0   -8144.6942    44657.537 -0.067234084   -17.036218 -0.041707817     3537.549    1480.5346    925.19044    965.53263    28.379643    18.845086    14.337553 0.00034734051 0.0003466541 0.00036579907 0.00036564354    292.52321     41.49527    35.978931    34.423473    90.016431    119.66323    90.107069    877.91776    208.40431    28.379033    18.848499    14.339253    28.379505    18.845255    14.337149 
 1000000    299.87015    1.2509986    3513.2184            0            0            0            0   -8527.7293    44657.537 -0.067234084   -17.036218 -0.041707817    3513.2184    1509.9719    947.72313    895.32884    28.379627    18.845403    14.337577 0.00036325909 0.00036215626 0.00034207852 0.00034183697    299.87015     41.49527    35.978931    34.423473    90.016431    119.66323    90.107069    820.98846    217.95545    28.380506    18.848574    14.339547    28.379771    18.845934    14.337434 
 1010000    295.54641    1.2509986    3477.7111            0            0            0            0   -9128.9208    44657.537 -0.067234084   -17.036218 -0.041707817    3477.7111    1491.0205    964.03969    874.45577    28.378973    18.843771    14.337241 0.00034762572 0.00034722845 0.00036248729 0.00036204849    295.54641     41.49527    35.978931    34.423473    90.016431    119.66323    90.107069    869.96951    208.57543     28.37984    18.848522    14.339914    28.380074    18.844997    14.337642 
 1020000    292.85227    1.2509986    3467.6853            0            0            0            0   -7771.4939    44657.537 -0.067234084   -17.036218 -0.041707817    3467.6853    1453.1377    973.70191     883.3019    28.377491    18.845491    14.336793 0.00036432555 0.00036399619 0.00034522171 0.00034484026    292.85227     41.49527    35.978931    34.423473    90.016431    119.66323    90.107069     828.5321    218.59533    28.379718    18.848625    14.339248    28.379361    18.845147    14.336998 
 1030000    300.37028    1.2509986    3544.1765            0            0            0            0    -7118.745    44657.537 -0.067234084   -17.036218 -0.041707817    3544.1765    1512.0584    990.87767    885.43434    28.379629     18.84451    14.337916 0.0003622003 0.00036140296 0.00035420644 0.00035354282    300.37028     41.49527    35.978931    34.423473    90.016431    119.66323    90.107069    850.09545    217.32018    28.379105    18.848353    14.339241    28.379638    18.844993    14.337898 
 1040000    300.00439    1.2509986    3532.2884            0            0            0            0   -7260.7804    44657.537 -0.067234084   -17.036218 -0.041707817    3532.2884    1500.8976    978.08466    898.55848    28.378864    18.845683    14.337429 0.00037109344 0.00036915912 0.00037368868 0.00037343936    300.00439     41.49527    35.978931    34.423473    90.016431    119.66323    90.107069    896.85283    222.65606    28.378252    18.848652    14.339957    28.380029    18.845055    14.337426 
 1050000    300.06866    1.2509986    3549.7427            0            0            0            0   -7162.6472    44657.537 -0.067234084   -17.036218 -0.041707817    3549.7427    1475.3558    986.01131    925.84667    28.378376     18.84567    14.336758 0.00033925058 0.00033704066 0.00036202835 0.00036198759    300.06866     41.49527    35.978931    34.423473    90.016431    119.66323    90.107069    868.86805    203.55035     28.37913    18.848399    14.340923    28.379877    18.845319    14.337153 
 1060000    304.97847    1.2509986    3506.5219            0            0            0            0   -6967.8127    44657.537 -0.067234084   -17.036218 -0.041707817    3506.5219     1450.148    1004.6695    897.68441    28.381681    18.846825    14.337434 0.00030869444 0.00030854827 0.00035042915 0.00035036992    304.97847     41.49527    35.978931    34.423473    90.016431    119.66323    90.107069    841.02996    185.21666    28.379726    18.848681    14.339723    28.380023    18.845562    14.337182 
 1070000    298.46634    1.2509986    3524.2513            0            0            0            0    -7645.353    44657.537 -0.067234084   -17.036218 -0.041707817    3524.2513    1442.9245    986.29384    936.06654     28.37781    18.845003    14.336485 0.0003563722 0.00035497625 0.00036318208 0.00036290847    298.46634     41.49527    35.978931    34.423473    90.016431    119.66323    90.107069      871.637    213.82332    28.380073    18.848032    14.339228    28.379386    18.845257    14.337477 
 1080000    297.35247    1.2509986    3491.5072            0            0            0            0    -8281.905    44657.537 -0.067234084   -17.036218 -0.041707817    3491.5072    1473.0576    972.84176    890.81137    28.380488    18.846471     14.33827 0.00039836876 0.00039472266 0.00036112345 0.00036088972    297.35247     41.49527    35.978931    34.423473    90.016431    119.66323    90.107069    866.69627    239.02126    28.378527    18.848376    14.338162    28.379553    18.845407    14.337667 
 1090000    293.91502    1.2509986    3454.9395            0            0            0            0   -9483.5912    44657.537 -0.067234084   -17.036218 -0.041707817    3454.9395    1457.6942    951.43455    890.28151    28.379647    18.845285    14.337509 0.00033196015 0.00033092768 0.00035340662 0.00035271784    293.91502     41.49527    35.978931    34.423473    90.016431    119.66323    90.107069    848.17589    199.17609    28.379039     18.84837    14.339046    28.379776    18.844833     14.33779 
 1100000    299.11334    1.2509986    3474.7695            0            0            0            0    -9655.152    44657.537 -0.067234084   -17.036218 -0.041707817    3474.7695     1478.233    945.48253    894.11119    28.380517    18.847646    14.337913 0.00036858466 0.00036667498 0.00034993628 0.00034895373    299.11334     41.49527    35.978931    34.423473    90.016431    119.66323    90.107069    839.84708     221.1508    28.379881    18.848657    14.338343    28.379267    18.846301    14.337214 
 1110000    300.70184    1.2509986    3464.4298            0            0            0            0   -6391.2025    44657.537 -0.067234084   -17.036218 -0.041707817    3464.4298    1490.8611    937.42769    880.90265    28.378377    18.845066    14.337353 0.00032663704 0.00032618459 0.00035581134 0.00035537081    300.70184     41.49527    35.978931    34.423473    90.016431    119.66323    90.107069    853.94723    195.98223    28.379398     18.84957     14.33998    28.379722    18.845037    14.337756 
 1120000    298.41301    1.2509986    3519.1669            0            0            0            0    -7702.492    44657.537 -0.067234084   -17.036218 -0.041707817    3519.1669    1466.4756    949.28015    937.29569     28.37824    18.844277    14.336974 0.00035325817 0.0003530203 0.00035873386 0.00035854457    298.41301     41.49527    35.978931    34.423473    90.016431    119.66323    90.107069    860.96125     211.9549    28.379661    18.849156    14.339184    28.379525    18.845415    14.336943 
 1130000    293.52892    1.2509986    3517.0145            0            0            0            0   -8830.5679    44657.537 -0.067234084   -17.036218 -0.041707817    3517.0145     1518.949    957.34202    888.00766    28.379946    18.846654    14.337542 0.00033541818 0.00033472572 0.00035780346 0.00035776819    293.52892     41.49527    35.978931    34.423473    90.016431    119.66323    90.107069     858.7283    201.25091    28.380145    18.849518     14.33994    28.379657    18.845577    14.337237 
 1140000    293.92235    1.2509986    3490.6361            0            0            0            0   -9358.4371    44657.537 -0.067234084   -17.036218 -0.041707817    3490.6361    1506.2236    954.63639    875.50301    28.379704    18.845155    14.337322 0.00037414662 0.00037352415 0.0003527332 0.00035269832    293.92235     41.49527    35.978931    34.423473    90.016431    119.66323    90.107069    846.55968    224.48797    28.379468    18.849468    14.340276    28.379995    18.845512    14.337265 
 1150000    297.75919    1.2509986    3548.0835            0            0            0            0   -9241.8889    44657.537 -0.067234084   -17.036218 -0.041707817    3548.0835    1476.5014    982.48921    928.99862    28.379476    18.845136    14.337074 0.00036996934 0.00036932839 0.00036933027 0.00036903881    297.75919     41.49527    35.978931    34.423473    90.016431    119.66323    90.107069    886.39264     221.9816    28.380333    18.849195    14.339706    28.379819    18.845776    14.336816 
 1160000    296.68664    1.2509986    3582.3624            0            0            0            0   -8857.3932    44657.537 -0.067234084   -17.036218 -0.041707817    3582.3624    1519.9403    987.45962    916.13149    28.379809    18.845176    14.337396 0.00034525546 0.00034471826 0.0003528422 0.00035276772    296.68664     41.49527    35.978931    34.423473    90.016431    119.66323    90.107069    846.82128    207.15327    28.379724    18.849658    14.339334    28.379554    18.845548    14.337216 
 1170000    296.96812    1.2509986    3475.8217            0            0            0            0    -7698.864    44657.537 -0.067234084   -17.036218 -0.041707817    3475.8217    1476.6739    966.70055    881.90314      28.3789    18.846894    14.337197 0.0003295799 0.00032791531 0.00035021119 0.00035002333    296.96812     41.49527    35.978931    34.423473    90.016431    119.66323    90.107069    840.50686    197.74794    28.380258    18.849008    14.340721     28.37957    18.845763     14.33705 
 1180000    291.93524    1.2509986    3538.0047            0            0            0            0   -8180.3892    44657.537 -0.067234084   -17.036218 -0.041707817    3538.0047    1513.2367    945.88034    922.54481    28.380245    18.845696    14.337637 0.00033497429 0.00033238522 0.00035541571 0.00035530635    291.93524     41.49527    35.978931    34.423473    90.016431    119.66323    90.107069    852.99769    200.98457    28.379282    18.848016    14.338405    28.379595    18.845341    14.337053 
 1190000     301.3711    1.2509986    3509.0115            0            0            0            0   -7328.0324    44657.537 -0.067234084   -17.036218 -0.041707817    3509.0115    1480.7304     961.2872    909.09445    28.381466    18.845283    14.337673 0.00035815297 0.00035781717 0.00036942286 0.0003693697     301.3711     41.49527    35.978931    34.423473    90.016431    119.66323    90.107069    886.61487    214.89178    28.379479    18.848851    14.340189    28.379904    18.845357    14.337089 
 1200000     289.6772    1.2509986    3524.5707            0            0            0            0   -7285.9407    44657.537 -0.067234084   -17.036218 -0.041707817    3524.5707    1497.1645    976.80966    897.78545    28.377992    18.846671    14.336413 0.00035633504 0.00035483269 0.00036331827 0.00036322163     289.6772     41.49527    35.978931    34.423473    90.016431    119.66323    90.107069    871.96384    213.80102    28.380745    18.848924    14.339926    28.379767    18.845207    14.337416 
 1210000    297.83368    1.2509986    3506.7373            0            0            0            0   -8967.4039    44657.537 -0.067234084   -17.036218 -0.041707817    3506.7373    1512.1667    939.39061     896.7242    28.379601    18.845719    14.337855 0.00035440206 0.00035247754 0.00036222023 0.00036176092    297.83368     41.49527    35.978931    34.423473    90.016431    119.66323    90.107069    869.32854    212.64124    28.380454    18.847962     14.33951    28.380178    18.845986    14.337013 
 1220000    295.07433    1.2509986    3543.7353            0            0            0            0   -7587.2103    44657.537 -0.067234084   -17.036218 -0.041707817    3543.7353    1500.2532    970.43212     922.3368    28.378933    18.845832    14.336525 0.0004040829 0.00040335286  0.000363228 0.00036267254    295.07433     41.49527    35.978931    34.423473    90.016431    119.66323    90.107069     871.7472    242.44974    28.379039    18.848728    14.340256    28.379447    18.844939    14.336896 
 1230000    302.54709    1.2509986    3484.6457            0            0            0            0   -8647.5466    44657.537 -0.067234084   -17.036218 -0.041707817    3484.6457    1448.4757    947.59161    926.34607    28.380529    18.845418    14.337683 0.0003406101 0.00033996491 0.00034979738 0.00034940952    302.54709     41.49527    35.978931    34.423473    90.016431    119.66323    90.107069    839.51371    204.36606    28.379025    18.849242    14.339081    28.380249    18.845917    14.337296 
 1240000    301.20185    1.2509986    3514.6824            0            0            0            0   -9821.0243    44657.537 -0.067234084   -17.036218 -0.041707817    3514.6824    1482.6243    986.18198    894.41939     28.37847    18.844268    14.337601 0.00032806748 0.00032762595 0.00036551382 0.00036479871    301.20185     41.49527    35.978931    34.423473    90.016431    119.66323    90.107069    877.23316    196.84049    28.379554    18.848397    14.339887    28.379859    18.845621    14.338096 
 1250000    298.48575    1.2509986    3482.9196            0            0            0            0   -8469.8685    44657.537 -0.067234084   -17.036218 -0.041707817    3482.9196     1501.904    940.34063    888.72823    28.379206    18.845566    14.336877 0.00036905705 0.00036862026 0.00036085685 0.00036067546    298.48575     41.49527    35.978931    34.423473    90.016431    119.66323    90.107069    866.05644    221.43423    28.379453    18.848439    14.339327    28.380124    18.845557    14.336986 
 1260000    299.12767    1.2509986    3514.7226            0            0            0            0   -6595.6089    44657.537 -0.067234084   -17.036218 -0.041707817    3514.7226    1513.4654    957.92784    893.47803    28.377624     18.84596    14.336539 0.00035523515 0.00035151614 0.00037070973 0.00037051873    299.12767     41.49527    35.978931    34.423473    90.016431    119.66323    90.107069    889.70335    213.14109    28.377644    18.849116    14.339867    28.379484    18.845696    14.337449 
 1270000    303.20516    1.2509986    3488.4325            0            0            0            0   -6672.9715    44657.537 -0.067234084   -17.036218 -0.041707817    3488.4325    1470.9617    991.10262    877.36182     28.37686    18.846723    14.336917 0.0003269938 0.00032384559 0.00034719939 0.00034628299    303.20516     41.49527    35.978931    34.423473    90.016431    119.66323    90.107069    833.27853    196.19628    28.379515    18.850324    14.338443    28.378911    18.845165    14.337172 
 1280000    295.98342    1.2509986    3444.7523            0            0            0            0    -8075.217    44657.537 -0.067234084   -17.036218 -0.041707817    3444.7523    1477.6007     918.8539    894.57401    28.379048    18.845857    14.338356 0.00033255617 0.00032419286 0.00036002261 0.00035995494    295.98342     41.49527    35.978931    34.423473    90.016431    119.66323    90.107069    864.05428     199.5337    28.380595    18.848418    14.342271    28.379644     18.84562      14.3374 
 1290000    294.90761    1.2509986     3466.152            0            0            0            0    -7797.407    44657.537 -0.067234084   -17.036218 -0.041707817     3466.152    1465.1409    957.72285    891.73778    28.380605    18.846061    14.336724 0.00036633533 0.00036607755 0.00036637841 0.00036602794    294.90761     41.49527    35.978931    34.423473    90.016431    119.66323    90.107069    879.30818     219.8012     28.38002    18.848847    14.339512    28.380344    18.845418    14.337011 
 1300000    296.96486    1.2509986    3551.7068            0            0            0            0    -7461.635    44657.537 -0.067234084   -17.036218 -0.041707817    3551.7068    1545.2847    956.06148    897.94124      28.3795    18.844897    14.336706 0.00037892127 0.00037867865 0.00036144285 0.00036137918    296.96486     41.49527    35.978931    34.423473    90.016431    119.66323    90.107069    867.46283    227.35276     28.37956    18.849111    14.339155    28.379909    18.845411     14.33704 
 1310000    301.39624    1.2509986    3490.2215            0            0            0            0   -7926.4094    44657.537 -0.067234084   -17.036218 -0.041707817    3490.2215    1480.7809    929.15254     918.1476    28.379603    18.845649    14.337759 0.00034199862 0.00034070751 0.00035820822 0.00035748088    301.39624     41.49527    35.978931    34.423473    90.016431    119.66323    90.107069    859.69972    205.19917    28.380344    18.849562    14.340245    28.379282    18.844977    14.336818 
 1320000    294.09379    1.2509986     3520.225            0            0            0            0   -8375.3359    44657.537 -0.067234084   -17.036218 -0.041707817     3520.225    1445.5741    1024.2704     900.8059    28.381889    18.845814    14.338118 0.00033368518 0.00033016427 0.00035637028 0.0003562484    294.09379     41.49527    35.978931    34.423473    90.016431    119.66323    90.107069    855.28868    200.21111    28.380497    18.847567    14.340377    28.379647    18.845167    14.337274 
 1330000    299.20821    1.2509986    3507.0299            0            0            0            0   -9205.9442    44657.537 -0.067234084   -17.036218 -0.041707817    3507.0299    1488.2884    947.24657    912.16214    28.379698    18.845049    14.337492 0.0003709303 0.0003700173 0.0003476799 0.00034755378    299.20821     41.49527    35.978931    34.423473    90.016431    119.66323    90.107069    834.43176    222.55818    28.380222    18.848327     14.33964    28.379801    18.845816    14.337359 
 1340000    295.15794    1.2509986    3559.4411            0            0            0            0    -8934.755    44657.537 -0.067234084   -17.036218 -0.041707817    3559.4411     1491.128    990.30889    920.06398    28.380904    18.846156    14.338167 0.00035957005 0.0003586985 0.00035805104 0.00035789895    295.15794     41.49527    35.978931    34.423473    90.016431    119.66323    90.107069    859.32249    215.74203    28.378812    18.848619    14.340041    28.379997    18.845801     14.33737 
 1350000    294.68148    1.2509986    3485.0815            0            0            0            0   -7343.4065    44657.537 -0.067234084   -17.036218 -0.041707817    3485.0815    1474.1001    951.06762    908.00557    28.378497    18.845456    14.337641 0.00036925632 0.00036547305 0.00036869662 0.00036795496    294.68148     41.49527    35.978931    34.423473    90.016431    119.66323    90.107069     884.8719    221.55379    28.379522    18.850949    14.339455    28.380208    18.845884    14.337911 
 1360000    302.20481    1.2509986    3555.0511            0            0            0            0    -7553.746    44657.537 -0.067234084   -17.036218 -0.041707817    3555.0511    1501.5222    947.88382    940.68452    28.380147     18.84596    14.337963 0.00034967512 0.00034794139 0.0003525544 0.00035251309    302.20481     41.49527    35.978931    34.423473    90.016431    119.66323    90.107069    846.13056    209.80507     28.37969    18.850098    14.340372    28.379798    18.845392    14.337449 
 1370000    296.30909    1.2509986    3509.5774            0            0            0            0   -7090.7687    44657.537 -0.067234084   -17.036218 -0.041707817    3509.5774    1457.8188    983.35497    908.53436    28.379906    18.845729    14.338101 0.00038620525 0.0003842527 0.00036156584 0.00036130219    296.30909     41.49527    35.978931    34.423473    90.016431    119.66323    90.107069    867.75802    231.72315    28.378708    18.848763     14.34072    28.379522    18.845055    14.337327 
 1380000    297.45129    1.2509986    3514.0216            0            0            0            0   -6721.6998    44657.537 -0.067234084   -17.036218 -0.041707817    3514.0216    1466.3764    954.12513    926.82145    28.378734    18.845674    14.336529 0.00036105204 0.00035910274 0.00035517285  0.000354672    297.45129     41.49527    35.978931    34.423473    90.016431    119.66323    90.107069    852.41485    216.63122    28.378711     18.84886    14.338538    28.380032    18.846136    14.337142 
 1390000    297.07918    1.2509986    3475.4954            0            0            0            0   -7548.4892    44657.537 -0.067234084   -17.036218 -0.041707817    3475.4954    1474.6602    945.04073    900.35115     28.38096    18.846006    14.337905 0.00035364797 0.00035330414 0.0003548207 0.00035464077    297.07918     41.49527    35.978931    34.423473    90.016431    119.66323    90.107069    851.56969    212.18878    28.379593    18.848622    14.340073    28.379512    18.845774    14.337279 
 1400000    293.36586    1.2509986    3519.5383            0            0            0            0   -8593.0176    44657.537 -0.067234084   -17.036218 -0.041707817    3519.5383    1476.4391    976.00434    910.54644    28.378802    18.846642    14.337516 0.00037503751 0.00037401509 0.00035067739 0.00035037937    293.36586     41.49527    35.978931    34.423473    90.016431    119.66323    90.107069    841.62573    225.02251    28.379599     18.84968    14.340397    28.379514    18.845717    14.337652 
 1410000    302.61635    1.2509986    3480.6416            0            0            0            0   -7046.9969    44657.537 -0.067234084   -17.036218 -0.041707817    3480.6416    1460.0613    983.04247    883.36531    28.378745    18.846354    14.337352 0.00034792236 0.00034693519 0.00033307158 0.00033295066    302.61635     41.49527    35.978931    34.423473    90.016431    119.66323    90.107069     799.3718    208.75342    28.378928    18.848557    14.339019    28.380078    18.845598     14.33745 
 1420000    307.96738    1.2509986    3529.4656            0            0            0            0   -7312.6873    44657.537 -0.067234084   -17.036218 -0.041707817    3529.4656    1512.1412    946.84465    915.04024    28.380373    18.844599    14.337739 0.00035549841 0.00035406961 0.00035248127 0.0003521068    307.96738     41.49527    35.978931    34.423473    90.016431    119.66323    90.107069    845.95505    213.29905     28.38051    18.849733    14.339674    28.380106    18.845733    14.337735 
 1430000    292.05345    1.2509986    3530.5843            0            0            0            0    -8674.444    44657.537 -0.067234084   -17.036218 -0.041707817    3530.5843    1527.7614    972.93429    877.59062    28.378782     18.84702     14.33674 0.00034051326 0.00033825423 0.00034743245 0.00034702865    292.05345     41.49527    35.978931    34.423473    90.016431    119.66323    90.107069    833.83788    204.30796    28.380044     18.84901    14.338216    28.379962    18.845819    14.336752 
 1440000    296.81227    1.2509986    3473.1132            0            0            0            0   -8109.8722    44657.537 -0.067234084   -17.036218 -0.041707817    3473.1132    1430.8885    988.63668    897.35509    28.378824    18.845022    14.337214 0.00033577845 0.0003349084 0.00035313116 0.00035306636    296.81227     41.49527    35.978931    34.423473    90.016431    119.66323    90.107069    847.51478    201.46707    28.378803     18.84847    14.339723    28.379571    18.845551    14.337235 
 1450000    294.09561    1.2509986    3480.4779            0            0            0            0   -8938.3717    44657.537 -0.067234084   -17.036218 -0.041707817    3480.4779    1470.6103    976.71688    879.76529    28.379006    18.846465    14.338241 0.00035487769 0.00035368743 0.00037218861 0.00037126888    294.09561     41.49527    35.978931    34.423473    90.016431    119.66323    90.107069    893.25266    212.92661    28.379767    18.848396    14.340513     28.37965    18.845297    14.338193 
 1460000    295.80337    1.2509986     3447.239            0            0            0            0   -8129.8366    44657.537 -0.067234084   -17.036218 -0.041707817     3447.239    1458.9557    938.02436    896.78163    28.378307    18.846773    14.335933 0.00036973944 0.00036960546 0.00036753848 0.00036684088    295.80337     41.49527    35.978931    34.423473    90.016431    119.66323    90.107069    882.09234    221.84366    28.379848    18.848963    14.339853    28.379704    18.845598    14.336445 
 1470000    299.10394    1.2509986    3517.6445            0            0            0            0   -8865.0898    44657.537 -0.067234084   -17.036218 -0.041707817    3517.6445    1489.6845    990.92034    883.43988    28.380138    18.844921    14.337236 0.00033047991 0.00032987406 0.00034291165 0.00034269978    299.10394     41.49527    35.978931    34.423473    90.016431    119.66323    90.107069    822.98796    198.28794    28.379814    18.849438    14.339039    28.379874    18.845553    14.336815 
 1480000    299.80269    1.2509986    3535.3172            0            0            0            0   -9035.9828    44657.537 -0.067234084   -17.036218 -0.041707817    3535.3172    1496.7546      999.623    885.73421    28.378975    18.844954    14.337648 0.00035805695 0.00035717796 0.00036608449 0.00036576918    299.80269     41.49527    35.978931    34.423473    90.016431    119.66323    90.107069    878.60277    214.83417    28.379392    18.849008    14.338715    28.379834    18.845274    14.337788 
 1490000    300.85894    1.2509986    3556.5306            0            0            0            0   -9706.4831    44657.537 -0.067234084   -17.036218 -0.041707817    3556.5306    1491.2209    985.64573    918.33538    28.380838    18.845875    14.337598 0.00033722115 0.00033689237 0.00034265333 0.00034257563    300.85894     41.49527    35.978931    34.423473    90.016431    119.66323    90.107069    822.36799    202.33269     28.37926    18.848568    14.339432     28.37977    18.845551       14.337 
 1500000    293.65626    1.2509986    3450.2766            0            0            0            0   -9077.2042    44657.537 -0.067234084   -17.036218 -0.041707817    3450.2766      1479.68    960.03411    860.04463    28.377657    18.845102     14.33674 0.00033955405 0.00033723543 0.00036469312 0.00036420295    293.65626     41.49527    35.978931    34.423473    90.016431    119.66323    90.107069    875.26348    203.73243    28.378979     18.84785    14.340433    28.379221    18.845527    14.336892 
 1510000     297.9511    1.2509986    3555.9284            0            0            0            0    -5932.364    44657.537 -0.067234084   -17.036218 -0.041707817    3555.9284    1521.8894    967.36344    910.93974    28.380929    18.846313    14.338321 0.00033764918 0.00033757903 0.00036695146 0.00036659475     297.9511     41.49527    35.978931    34.423473    90.016431    119.66323    90.107069    880.68351    202.58951    28.379531    18.849087    14.339385    28.379364    18.845846     14.33713 
 1520000    298.71698    1.2509986    3526.4686            0            0            0            0   -8138.9035    44657.537 -0.067234084   -17.036218 -0.041707817    3526.4686    1497.1568    923.29768    941.52577    28.379104    18.845813    14.337407 0.00034628415 0.00034599302 0.00036766581 0.00036761915    298.71698     41.49527    35.978931    34.423473    90.016431    119.66323    90.107069    882.39795    207.77049    28.379271    18.848555    14.339619    28.379645    18.845609    14.337289 
[...]
 1630000    295.38458    1.2509986    3518.5271            0            0            0            0   -8306.2117    44657.537 -0.067234084   -17.036218 -0.041707817    3518.5271    1504.5328    957.86092    900.83267    28.380817    18.846414    14.337924 0.00036101634 0.00036071975 0.00036874675 0.00036839746    295.38458     41.49527    35.978931    34.423473    90.016431    119.66323    90.107069    884.99219     216.6098     28.37999    18.848784    14.339875    28.380109    18.845579    14.337765 
 1640000    300.08317    1.2509986    3527.1135            0            0            0            0    -9368.201    44657.537 -0.067234084   -17.036218 -0.041707817    3527.1135    1451.3522    969.20836    947.26065    28.381294    18.846037    14.337922 0.00035726632 0.00035524206 0.00035079342 0.00034997646    300.08317     41.49527    35.978931    34.423473    90.016431    119.66323    90.107069    841.90422    214.35979    28.378627    18.847981    14.339948    28.379716    18.846332    14.337534 
 1650000     297.9267    1.2509986    3522.9178            0            0            0            0    -8335.413    44657.537 -0.067234084   -17.036218 -0.041707817    3522.9178    1530.3849    915.93369    918.88488    28.377702    18.844948    14.336845 0.00036694515 0.00036509912 0.00035473167 0.00035453785     297.9267     41.49527    35.978931    34.423473    90.016431    119.66323    90.107069      851.356    220.16709    28.379981    18.848101    14.340552    28.379627    18.845828    14.337449 
 1660000    298.93009    1.2509986    3437.5425            0            0            0            0   -7018.6221    44657.537 -0.067234084   -17.036218 -0.041707817    3437.5425    1449.3311    942.08063    891.21206    28.379532    18.844432    14.337537 0.00039523887 0.0003943587 0.0003704951 0.00037020106    298.93009     41.49527    35.978931    34.423473    90.016431    119.66323    90.107069    889.18824    237.14332    28.380135    18.849085    14.340373    28.379959    18.845996    14.337249 
 1670000    300.78443    1.2509986    3513.1155            0            0            0            0   -8352.6752    44657.537 -0.067234084   -17.036218 -0.041707817    3513.1155    1499.7044    956.09326    900.44035    28.380222    18.845088    14.337916 0.00035280083 0.0003514833 0.00035289312 0.00035275852    300.78443     41.49527    35.978931    34.423473    90.016431    119.66323    90.107069    846.94348     211.6805    28.379906    18.849274      14.3407    28.379779    18.845109     14.33727 
 1680000    293.59442    1.2509986    3547.2395            0            0            0            0   -8069.7022    44657.537 -0.067234084   -17.036218 -0.041707817    3547.2395    1458.7987    970.74685    953.98401    28.377758    18.846262    14.337192 0.00034731299 0.00034247922 0.00036336772 0.00036317923    293.59442     41.49527    35.978931    34.423473    90.016431    119.66323    90.107069    872.08252    208.38779    28.377698    18.848919    14.340809    28.379506    18.845181    14.337172 
 1690000    306.32295    1.2509986    3520.9552            0            0            0            0   -7398.9075    44657.537 -0.067234084   -17.036218 -0.041707817    3520.9552    1490.8595     993.5785    884.98742    28.379345    18.846499    14.337426 0.0003468376 0.00034661983 0.00034296866 0.00034282164    306.32295     41.49527    35.978931    34.423473    90.016431    119.66323    90.107069    823.12479    208.10256    28.379596    18.848681    14.339312    28.380036    18.845784    14.337291 
 1700000    294.03174    1.2509986    3476.5099            0            0            0            0   -8167.0598    44657.537 -0.067234084   -17.036218 -0.041707817    3476.5099    1472.3506    953.51306    899.40221    28.378722    18.845579    14.336802 0.00033618083 0.00033471613 0.00035081626 0.00035028635    294.03174     41.49527    35.978931    34.423473    90.016431    119.66323    90.107069    841.95902     201.7085    28.380164     18.84954    14.340542    28.380322    18.845406     14.33675 
 1710000    296.70375    1.2509986    3523.9186            0            0            0            0   -8150.7378    44657.537 -0.067234084   -17.036218 -0.041707817    3523.9186    1498.4786     980.7391     890.9401    28.378739    18.844472    14.337396 0.0003555794 0.00035366016 0.00035713313 0.00035702469    296.70375     41.49527    35.978931    34.423473    90.016431    119.66323    90.107069    857.11951    213.34764     28.37966    18.848738    14.340992    28.379564    18.845361     14.33708 
 1720000    292.76761    1.2509986     3467.041            0            0            0            0   -8016.4048    44657.537 -0.067234084   -17.036218 -0.041707817     3467.041     1454.128    945.06548    910.91366    28.378801    18.845634     14.33733 0.00037591497 0.00037578831 0.00035736282 0.00035715722    292.76761     41.49527    35.978931    34.423473    90.016431    119.66323    90.107069    857.67078    225.54898    28.379751    18.849299    14.339722    28.379836    18.845791     14.33694 
 1730000    302.44262    1.2509986    3464.4954            0            0            0            0   -8386.1393    44657.537 -0.067234084   -17.036218 -0.041707817    3464.4954    1452.6855    940.54541    915.31181    28.379661    18.845447    14.338243 0.00034967393 0.00034800191 0.00036524384 0.00036484082    302.44262     41.49527    35.978931    34.423473    90.016431    119.66323    90.107069    876.58522    209.80436    28.379135     18.84951    14.340755    28.379682    18.844981    14.337643 
 1740000    297.22886    1.2509986    3501.2547            0            0            0            0   -7543.6874    44657.537 -0.067234084   -17.036218 -0.041707817    3501.2547    1483.5461     970.9528    892.65582    28.379313    18.845245    14.337389 0.00037231881 0.00036994608 0.00037155075 0.00037148079    297.22886     41.49527    35.978931    34.423473    90.016431    119.66323    90.107069    891.72179    223.39128    28.380355     18.85029    14.339315     28.37985    18.845418     14.33752 
 1750000    298.98565    1.2509986    3476.4064            0            0            0            0   -6486.0254    44657.537 -0.067234084   -17.036218 -0.041707817    3476.4064    1521.7127     938.6993    867.17854    28.379044    18.846413    14.337494 0.00037658824 0.00037578833 0.0003405047 0.00034043006    298.98565     41.49527    35.978931    34.423473    90.016431    119.66323    90.107069    817.21127    225.95294     28.37999     18.84877    14.338894    28.379797    18.845557    14.337524 
 1760000     302.8381    1.2509986    3510.8592            0            0            0            0    -6887.198    44657.537 -0.067234084   -17.036218 -0.041707817    3510.8592    1498.8469    958.33731    896.81013    28.382365    18.844793    14.338246 0.00036542463 0.00036302225 0.00035629616 0.00035601724     302.8381     41.49527    35.978931    34.423473    90.016431    119.66323    90.107069    855.11079    219.25478    28.380776    18.848274     14.33903    28.380291    18.845446    14.337043 
 1770000    297.62486    1.2509986    3473.6985            0            0            0            0   -7737.3172    44657.537 -0.067234084   -17.036218 -0.041707817    3473.6985     1489.437    943.54764    890.31828    28.382221    18.846587    14.337769 0.00033858102   0.00033755 0.00035563393 0.00035538417    297.62486     41.49527    35.978931    34.423473    90.016431    119.66323    90.107069    853.52142    203.14861    28.378817    18.849526    14.340108    28.380252    18.845666    14.337124 
 1780000    296.29479    1.2509986    3435.4798            0            0            0            0   -6793.4948    44657.537 -0.067234084   -17.036218 -0.041707817    3435.4798    1440.0917    951.26442    889.25912    28.380557    18.845558    14.338319 0.00038816302 0.00038691965 0.00036129408 0.0003608528    296.29479     41.49527    35.978931    34.423473    90.016431    119.66323    90.107069    867.10579    232.89781    28.378915    18.849127    14.340543    28.379443    18.845186    14.337735 
 1790000    297.61602    1.2509986    3467.3884            0            0            0            0   -7243.8935    44657.537 -0.067234084   -17.036218 -0.041707817    3467.3884    1444.4358     966.5506    902.04549      28.3794    18.845033    14.337175 0.0003471628 0.0003466653 0.00035639708 0.00035634014    297.61602     41.49527    35.978931    34.423473    90.016431    119.66323    90.107069    855.35299    208.29768      28.3792     18.84914    14.340233    28.379891    18.845663    14.337141 
 1800000    298.54182    1.2509986    3520.8057            0            0            0            0   -7039.3009    44657.537 -0.067234084   -17.036218 -0.041707817    3520.8057    1480.9886    980.19578    905.69821    28.380138    18.845057    14.337099 0.00035476115 0.00035411043 0.00036668981 0.0003666392    298.54182     41.49527    35.978931    34.423473    90.016431    119.66323    90.107069    880.05554    212.85669    28.378978    18.848948     14.33908    28.379738    18.845674     14.33719 
 1810000     296.7467    1.2509986    3480.2663            0            0            0            0   -7531.0634    44657.537 -0.067234084   -17.036218 -0.041707817    3480.2663    1436.1196    988.80373    901.96635    28.378955    18.843908    14.336824 0.00039319392 0.00039044778 0.00037672809 0.00037671395     296.7467     41.49527    35.978931    34.423473    90.016431    119.66323    90.107069    904.14741    235.91635     28.37843    18.848946    14.338425    28.379722    18.845423    14.337322 
 1820000     296.7046    1.2509986    3499.3302            0            0            0            0    -7471.429    44657.537 -0.067234084   -17.036218 -0.041707817    3499.3302    1487.9464    946.76552    907.28847    28.380982    18.845731    14.337716 0.00034651565 0.00034132009 0.00036101864 0.0003608411     296.7046     41.49527    35.978931    34.423473    90.016431    119.66323    90.107069    866.44474    207.90939      28.3795    18.847156    14.338318    28.380086    18.845788    14.337197 
 1830000    304.02475    1.2509986    3435.6722            0            0            0            0   -7416.8521    44657.537 -0.067234084   -17.036218 -0.041707817    3435.6722    1459.5247    965.29173    863.42151    28.378402     18.84604    14.336845 0.00031218324 0.00031118452 0.00036333553 0.00036301497    304.02475     41.49527    35.978931    34.423473    90.016431    119.66323    90.107069    872.00527    187.30995    28.380239    18.849737    14.339732     28.37987     18.84509    14.336852 
 1840000    300.86754    1.2509986     3400.375            0            0            0            0   -10201.428    44657.537 -0.067234084   -17.036218 -0.041707817     3400.375    1443.8231    940.78342    868.22518    28.379581    18.845614    14.337134 0.00034139679 0.00034089522 0.00035957642 0.00035940094    300.86754     41.49527    35.978931    34.423473    90.016431    119.66323    90.107069     862.9834    204.83808     28.37886    18.848957    14.339521    28.379451    18.845545    14.337063 
 1850000    291.81388    1.2509986    3477.9983            0            0            0            0   -8433.9389    44657.537 -0.067234084   -17.036218 -0.041707817    3477.9983     1499.792    921.65155    898.79915    28.379843     18.84685    14.337553 0.0003931748 0.0003921048 0.00034686912 0.00034639795    291.81388     41.49527    35.978931    34.423473    90.016431    119.66323    90.107069    832.48589    235.90488    28.380067    18.848499    14.340377    28.380251    18.845349    14.337777 
 1860000    298.27117    1.2509986     3499.108            0            0            0            0   -6951.5562    44657.537 -0.067234084   -17.036218 -0.041707817     3499.108    1468.6392    960.50577    910.00176    28.379833    18.845665    14.337634 0.00033968357 0.00033959076 0.00036517311 0.00036466664    298.27117     41.49527    35.978931    34.423473    90.016431    119.66323    90.107069    876.41548    203.81014    28.379451    18.848783    14.339468    28.379841    18.846065    14.337661 
 1870000    300.68713    1.2509986    3489.7658            0            0            0            0   -7937.0335    44657.537 -0.067234084   -17.036218 -0.041707817    3489.7658    1462.2268    958.08989    911.16005    28.379846    18.846329    14.337493 0.00035585968 0.00035560197 0.00035869977 0.00035831751    300.68713     41.49527    35.978931    34.423473    90.016431    119.66323    90.107069    860.87944    213.51581    28.379769    18.849459    14.339753    28.379794    18.845436    14.337881 
 1880000    296.55647    1.2509986    3483.2711            0            0            0            0   -6438.2086    44657.537 -0.067234084   -17.036218 -0.041707817    3483.2711    1435.2311    979.81548    912.95299      28.3802    18.844976    14.338048  0.000351911 0.00034991571 0.00036021705 0.00035995853    296.55647     41.49527    35.978931    34.423473    90.016431    119.66323    90.107069    864.52091     211.1466    28.379721    18.848701    14.341006    28.380319    18.845517    14.337274 
 1890000    304.10506    1.2509986    3517.7524            0            0            0            0   -7591.9077    44657.537 -0.067234084   -17.036218 -0.041707817    3517.7524    1498.9456    971.15478    889.87626    28.378302    18.845943    14.336793 0.00033107449 0.00032919123 0.00035948126 0.00035889945    304.10506     41.49527    35.978931    34.423473    90.016431    119.66323    90.107069    862.75502    198.64469    28.378235    18.849139    14.339984    28.379862    18.846062     14.33678 
 1900000    296.84791    1.2509986    3531.0334            0            0            0            0    -9209.147    44657.537 -0.067234084   -17.036218 -0.041707817    3531.0334    1511.3193    964.44541    898.92919    28.379293    18.845978    14.338247 0.00035495739 0.00035487247 0.00035667367 0.00035613639    296.84791     41.49527    35.978931    34.423473    90.016431    119.66323    90.107069     856.0168    212.97443    28.379519    18.848829    14.339861    28.379714    18.845002    14.337816 
 1910000     298.2908    1.2509986    3539.6934            0            0            0            0   -6477.3702    44657.537 -0.067234084   -17.036218 -0.041707817    3539.6934    1497.2365    1006.8129    883.69425    28.381783    18.844878    14.337442  0.000341482 0.0003397577 0.00034343576 0.00034336723     298.2908     41.49527    35.978931    34.423473    90.016431    119.66323    90.107069    824.24582     204.8892    28.379057    18.847817     14.33943    28.380057    18.845447    14.337178 
 1920000    294.58352    1.2509986    3412.9099            0            0            0            0   -7818.7116    44657.537 -0.067234084   -17.036218 -0.041707817    3412.9099    1414.9401    966.97897    880.77991    28.379734    18.844026    14.337165 0.00033713362 0.00033568149 0.00035033129 0.00035015563    294.58352     41.49527    35.978931    34.423473    90.016431    119.66323    90.107069    840.79509    202.28017    28.379266    18.848375    14.338658    28.380214    18.845575     14.33733 
 1930000    295.83524    1.2509986    3481.9091            0            0            0            0   -8082.8594    44657.537 -0.067234084   -17.036218 -0.041707817    3481.9091    1477.4688    967.59668    882.55652    28.380236    18.844855    14.337226 0.00034187197 0.00034134763 0.00034712978 0.00034708064    295.83524     41.49527    35.978931    34.423473    90.016431    119.66323    90.107069    833.11148    205.12318    28.379565    18.848308    14.339804    28.379836    18.845692    14.337231 
 1940000    302.62297    1.2509986    3458.7658            0            0            0            0   -7378.9148    44657.537 -0.067234084   -17.036218 -0.041707817    3458.7658    1464.9861    942.98749    896.76351    28.380808    18.844944    14.338207 0.00040011292 0.0003989085 0.00034301124 0.00034275887    302.62297     41.49527    35.978931    34.423473    90.016431    119.66323    90.107069    823.22699    240.06775    28.380645    18.848943    14.339519    28.379696    18.845339    14.337734 
 1950000    304.14901    1.2509986    3539.9944            0            0            0            0   -8517.3682    44657.537 -0.067234084   -17.036218 -0.041707817    3539.9944    1509.5658    971.45106    902.51296    28.379317    18.845137    14.337145 0.00036203605 0.0003594763 0.00035360485 0.00035344281    304.14901     41.49527    35.978931    34.423473    90.016431    119.66323    90.107069    848.65163    217.22163    28.378703    18.848407    14.340848    28.379684    18.845551     14.33689 
 1960000    295.37857    1.2509986    3477.0874            0            0            0            0   -7472.7712    44657.537 -0.067234084   -17.036218 -0.041707817    3477.0874    1453.9595     965.6653    899.32334    28.378942    18.846147    14.336676 0.00035179921 0.00035093768 0.0003552406 0.00035523246    295.37857     41.49527    35.978931    34.423473    90.016431    119.66323    90.107069    852.57745    211.07952    28.379632    18.849039    14.340563    28.379725     18.84548    14.337241 
 1970000    296.75039    1.2509986    3442.5044            0            0            0            0   -8853.5072    44657.537 -0.067234084   -17.036218 -0.041707817    3442.5044    1468.5639    962.04195    864.37396    28.379789    18.844766    14.337461 0.00035997432 0.00035899481 0.00036271715 0.00036258615    296.75039     41.49527    35.978931    34.423473    90.016431    119.66323    90.107069    870.52117    215.98459    28.379564     18.84851     14.34049    28.380148    18.845513    14.337136 
 1980000    294.84434    1.2509986    3511.7193            0            0            0            0   -8481.7665    44657.537 -0.067234084   -17.036218 -0.041707817    3511.7193    1482.0014    963.92206    904.89157    28.378938    18.846681    14.338124 0.0003361292 0.00033548133 0.00033908634 0.00033903121    294.84434     41.49527    35.978931    34.423473    90.016431    119.66323    90.107069    813.80722    201.67752    28.378942    18.849074    14.340155    28.379631    18.845611    14.337323 
 1990000    299.34699    1.2509986    3489.4198            0            0            0            0   -6787.0292    44657.537 -0.067234084   -17.036218 -0.041707817    3489.4198    1477.4553     925.9185    928.44735    28.379753    18.845212    14.337943 0.00032015136 0.00031975984 0.00034060691 0.00034006705    299.34699     41.49527    35.978931    34.423473    90.016431    119.66323    90.107069    817.45659    192.09081    28.380032    18.848716    14.339916    28.379368    18.845141    14.337745 
 2000000       294.53    1.2509986     3468.432            0            0            0            0    -9110.707    44657.537 -0.067234084   -17.036218 -0.041707817     3468.432    1483.8269     971.5421    860.41425    28.379648    18.848022    14.336868 0.00036800374 0.00036589901 0.0003647972 0.00036427965       294.53     41.49527    35.978931    34.423473    90.016431    119.66323    90.107069    875.51328    220.80225    28.379511    18.849933    14.340759    28.380072     18.84563    14.336612 
Loop time of 3647.74 on 20 procs for 2000000 steps with 4560 atoms

Pair  time (%) = 2680.47 (73.4832)
Bond  time (%) = 343.947 (9.42904)
Neigh time (%) = 37.9258 (1.03971)
Comm  time (%) = 434.788 (11.9194)
Outpt time (%) = 0.552689 (0.0151516)
Other time (%) = 150.051 (4.11352)

Nlocal:    228 ave 241 max 222 min
Histogram: 2 5 4 1 4 3 0 0 0 1
Nghost:    5778.45 ave 5836 max 5725 min
Histogram: 2 0 2 2 4 5 2 1 1 1
Neighs:    83666.4 ave 88762 max 80682 min
Histogram: 3 3 2 4 3 1 3 0 0 1

Total # of neighbors = 1673329
Ave neighs/atom = 366.958
Ave special neighs/atom = 10.6316
Neighbor list builds = 8023
Dangerous builds = 0
System init for write_data ...
