LAMMPS data file via write_data, version 15 May 2015, timestep = 2000000

4560 atoms
7 atom types
5040 bonds
3 bond types
7200 angles
2 angle types
10560 dihedrals
3 dihedral types
2400 impropers
1 improper types

-1.0763502675555259e-01 4.1387635026745990e+01 xlo xhi
-4.0433884491974936e-02 3.5938433884472119e+01 ylo yhi
-3.5711112484589691e-01 2.9555111124838550e+01 zlo zhi
-6.7234083837551181e-02 -1.7036217651000683e+01 -4.1707816797290791e-02 xy xz yz

Masses

1 12.0107
2 1.008
3 12.0107
4 12.0107
5 12.0107
6 12.0107
7 12.0107

Pair Coeffs # lj/cut/coul/cut

1 0 0
2 0 0
3 0 0
4 0 0
5 0 0
6 0 0
7 0 0

Bond Coeffs # harmonic

1 469 1.4
2 367 1.08
3 469 0.7

Angle Coeffs # harmonic

1 35 120
2 63 120

Dihedral Coeffs # opls

1 0 7.25 0 0
2 0 7.25 0 0
3 0 7.25 0 0

Improper Coeffs # cvff

1 2.5 -1 2

Atoms # full

219 13 3 0.0000000000000000e+00 -3.3958802821376821e-01 3.0369284956944211e+00 3.2740178762124277e+00 1 0 0
220 13 4 0.0000000000000000e+00 1.8290864716546795e-01 3.9884850876200710e+00 2.3800875496346445e+00 1 0 0
224 13 2 0.0000000000000000e+00 2.9343454355354770e-01 5.0712711435657747e+00 2.5252649367369950e+00 1 0 0
580 33 4 0.0000000000000000e+00 2.6383868217615585e+00 6.7501402769706553e+00 3.8201131747597099e+00 1 0 0
228 13 3 0.0000000000000000e+00 -6.1548737732676129e-01 1.7595704059786690e+00 2.7227772222247593e+00 1 0 0
989 53 4 0.0000000000000000e+00 -1.4075116404839902e+00 7.0835081718459962e+00 3.6941056956378464e+00 1 0 0
600 34 2 0.0000000000000000e+00 1.8404729698984834e-01 5.6175295879138449e+00 7.0357290034793447e+00 1 0 0
245 14 4 0.0000000000000000e+00 -4.9029619248550267e+00 1.3384547235637254e+00 9.0404887122844144e+00 1 0 0
227 13 4 0.0000000000000000e+00 -1.4624091334138611e-01 1.3601790443539041e+00 1.4399757275899752e+00 1 0 0
4390 233 1 0.0000000000000000e+00 2.2939848809034933e+00 8.5986141312925879e-01 5.3581442833506046e+00 1 1 0
733 13 6 0.0000000000000000e+00 -4.3454716594664844e-01 2.4299989651427927e+00 2.9337879340163679e+00 1 0 0
582 33 2 0.0000000000000000e+00 4.5399109815500092e+00 5.4811513470640723e+00 -1.0539759858788500e-01 1 0 0
230 13 1 0.0000000000000000e+00 5.4321880110258614e-01 3.5861495661888467e+00 1.0779662942094355e+00 1 0 0
217 13 7 0.0000000000000000e+00 -1.1661485919615240e+00 2.2620719284774946e+00 5.3815563635889143e+00 1 0 0
218 13 5 0.0000000000000000e+00 -6.3289058698528677e-01 3.3307309672263714e+00 4.5780742561703232e+00 1 0 0
221 13 1 0.0000000000000000e+00 -1.4444209874064431e+00 9.9745797654719892e-01 4.8673852928257446e+00 1 0 0
222 13 2 0.0000000000000000e+00 -1.4348780844984654e+00 2.5215791526870976e+00 6.4450286523309268e+00 1 0 0
223 13 2 0.0000000000000000e+00 -4.1718521392262531e-01 4.2470922537857785e+00 5.0338560914569950e+00 1 0 0
248 14 1 0.0000000000000000e+00 -3.5963217022812537e+00 3.3873820628076183e+00 8.5081110598714424e+00 1 0 0
4380 233 4 0.0000000000000000e+00 2.5238607763204270e+00 1.1187084405685899e+00 4.0417188315061328e+00 1 1 0
1771 94 2 0.0000000000000000e+00 -6.1151473245371060e+00 1.2075907698740577e+01 1.0258274537383576e+01 1 0 0
603 34 2 0.0000000000000000e+00 6.7831977832220680e-01 3.2743641969463835e+00 7.7753267741923864e+00 1 0 0
1746 93 1 0.0000000000000000e+00 2.0173846376710391e-01 1.4017823684751281e+01 3.5075032700987252e-01 1 0 0
4394 233 2 0.0000000000000000e+00 1.7421628588950089e+00 1.5143769634082416e+00 5.9248269243934875e+00 1 1 0
579 33 3 0.0000000000000000e+00 3.3528177097485998e+00 5.8290231844297393e+00 3.0730511260997067e+00 1 0 0
252 14 2 0.0000000000000000e+00 -3.1705257731518968e+00 4.0597357882354537e+00 7.7346368170280009e+00 1 0 0
581 33 1 0.0000000000000000e+00 4.7993628616718054e+00 4.0258532972032643e+00 1.5446006479828778e+00 1 0 0
596 34 5 0.0000000000000000e+00 -2.6609840688823105e-01 6.2782799730920065e+00 8.9570310970108640e+00 1 0 0
577 33 7 0.0000000000000000e+00 4.3434493832279033e+00 5.2308412534573518e+00 9.5688975116353125e-01 1 0 0
588 33 3 0.0000000000000000e+00 3.9240401600309198e+00 4.6936987067750797e+00 3.6661711294530974e+00 1 0 0
589 33 4 0.0000000000000000e+00 4.6858611701881108e+00 3.7959765874032820e+00 2.9183131962953741e+00 1 0 0
593 33 2 0.0000000000000000e+00 5.1603525912329697e+00 2.9757970662046582e+00 3.4541788396084576e+00 1 0 0
753 33 6 0.0000000000000000e+00 3.6096233781575662e+00 5.1976825220091678e+00 3.2723598136541763e+00 1 0 0
4383 233 2 0.0000000000000000e+00 2.9601665417146474e+00 1.2878188139725795e+00 1.3402344589051092e+00 1 1 0
4379 233 3 0.0000000000000000e+00 3.2740611291299326e+00 1.9404858982533338e-01 3.2455291452442347e+00 1 1 0
578 33 5 0.0000000000000000e+00 3.5871197579388374e+00 6.1242698821209922e+00 1.7500571476008631e+00 1 0 0
226 13 1 0.0000000000000000e+00 5.0039176275805586e-01 2.2790503610244932e+00 6.1366594529626528e-01 1 0 0
4384 233 2 0.0000000000000000e+00 2.0063655384367354e+00 1.9467094919734340e+00 3.5522035865939916e+00 1 1 0
586 33 1 0.0000000000000000e+00 2.8519435721856157e+00 5.3229614422970828e+00 5.7842028198512487e+00 1 0 0
587 33 4 0.0000000000000000e+00 3.6106244709710200e+00 4.4513995656597789e+00 5.0252038398375518e+00 1 0 0
585 33 2 0.0000000000000000e+00 5.3849447279237292e+00 3.3975300909417108e+00 8.6638814404667563e-01 1 0 0
1370 74 2 0.0000000000000000e+00 1.0769992047337773e-01 9.8106414668753885e+00 1.2461281479267940e+01 1 0 0
4408 234 1 0.0000000000000000e+00 -1.8353821416289708e+00 2.5724726188370683e-01 1.2743340647820537e+01 1 1 0
590 33 1 0.0000000000000000e+00 2.4199646797353043e+00 6.5320998670559867e+00 5.2017061220428387e+00 1 0 0
1758 94 4 0.0000000000000000e+00 -4.0338792073700009e+00 1.6044120340173350e+01 9.7144743876735049e+00 1 0 0
234 13 2 0.0000000000000000e+00 9.9317590515711507e-01 4.3186270192028964e+00 4.1038145981554719e-01 1 0 0
229 13 4 0.0000000000000000e+00 -1.0833757961379065e+00 7.3944698421364841e-01 3.5362644596069748e+00 1 0 0
1082 58 2 0.0000000000000000e+00 2.8877820853405503e+00 6.7857578200380129e+00 8.4696679089318234e+00 1 0 0
985 53 2 0.0000000000000000e+00 -1.7399109270490163e+00 6.4607245752637148e+00 5.7521500631935574e+00 1 0 0
599 34 1 0.0000000000000000e+00 3.9573553180370968e-01 4.0224911109031307e+00 8.4785803156871307e+00 1 0 0
4401 234 2 0.0000000000000000e+00 -1.0787812211656966e+00 1.1050234754149963e+00 8.8080224851953961e+00 1 1 0
1342 73 2 0.0000000000000000e+00 4.4963033974401512e+00 1.1852040744564128e+01 -1.1989270735237151e-01 1 0 0
595 34 7 0.0000000000000000e+00 1.0366468306945098e-01 5.3194164088519207e+00 8.0186041177714209e+00 1 0 0
981 53 1 0.0000000000000000e+00 -1.2927204395427490e+00 7.1950087902897355e+00 5.0572100283341044e+00 1 0 0
4378 233 5 0.0000000000000000e+00 3.4306951420621932e+00 4.2575774610102585e-01 1.9024052143597299e+00 1 1 0
1369 74 2 0.0000000000000000e+00 -1.0819138155820127e+00 1.1315562358001973e+01 1.3857195338988383e+01 1 0 0
583 33 2 0.0000000000000000e+00 3.2199072809612579e+00 7.0232216205590454e+00 1.1739527498507498e+00 1 0 0
1760 94 2 0.0000000000000000e+00 -5.3882945574229701e+00 1.4473560314396199e+01 1.3741816902721359e+01 1 0 0
2126 114 3 0.0000000000000000e+00 5.5775456944237689e-02 1.6409265354217172e+01 1.0439568683702191e+01 1 0 0
235 14 7 0.0000000000000000e+00 -4.9294063269749948e+00 2.3817529755022493e+00 1.3093427787109556e+01 1 0 0
236 14 5 0.0000000000000000e+00 -4.1918442182402975e+00 3.1857695475115824e+00 1.2189526494024168e+01 1 0 0
597 34 3 0.0000000000000000e+00 -4.9120764952185869e-01 5.9461570599655147e+00 1.0283348614843590e+01 1 0 0
734 14 6 0.0000000000000000e+00 -4.6462180560436170e+00 2.3288127419968134e+00 1.0490406233788384e+01 1 0 0
239 14 1 0.0000000000000000e+00 -5.6388476111190640e+00 1.1812884672764543e+00 1.2744107086601552e+01 1 0 0
240 14 2 0.0000000000000000e+00 -4.9729457811518962e+00 2.5501413576107024e+00 1.4161232670905417e+01 1 0 0
1009 54 2 0.0000000000000000e+00 -3.4392546401264639e+00 7.3799739809930536e+00 6.9603471894338789e+00 1 0 0
237 14 3 0.0000000000000000e+00 -4.2246847470589444e+00 2.8140060804850280e+00 1.0788119278131729e+01 1 0 0
4402 234 2 0.0000000000000000e+00 -1.8877770407568146e+00 1.6960671396254807e+00 1.1133371427250914e+01 1 1 0
1757 94 3 0.0000000000000000e+00 -4.6378022911576382e+00 1.5090589822531857e+01 1.0571783024016831e+01 1 0 0
242 14 2 0.0000000000000000e+00 -2.9736624056446046e+00 4.5325241750687395e+00 1.0282812680976702e+01 1 0 0
225 13 2 0.0000000000000000e+00 -1.9091011779022771e+00 2.1544364580317280e-01 5.4263035727281785e+00 1 0 0
238 14 4 0.0000000000000000e+00 -3.6046866984952453e+00 3.7076504460207422e+00 9.8779116952097894e+00 1 0 0
246 14 3 0.0000000000000000e+00 -4.9320109033833095e+00 1.6675695030290334e+00 1.0417765699417274e+01 1 0 0
604 34 1 0.0000000000000000e+00 -1.0466225201439370e+00 5.2036271851507596e+00 1.2939257583941046e+01 1 0 0
605 34 4 0.0000000000000000e+00 -4.7349741160352465e-01 4.2570791137131838e+00 1.2100160488515881e+01 1 0 0
606 34 3 0.0000000000000000e+00 -2.0266668153281753e-01 4.6805827416179842e+00 1.0772956346922053e+01 1 0 0
607 34 4 0.0000000000000000e+00 2.9310015769403108e-01 3.7476467379788403e+00 9.8548963488161672e+00 1 0 0
611 34 2 0.0000000000000000e+00 4.8603438035247848e-01 2.7527542873335893e+00 1.0174974521864403e+01 1 0 0
610 34 2 0.0000000000000000e+00 -2.2264512875718800e-01 3.2145844417255347e+00 1.2458790871650205e+01 1 0 0
241 14 2 0.0000000000000000e+00 -3.6142335118757321e+00 4.0222605410351706e+00 1.2512795665203869e+01 1 0 0
2138 115 2 0.0000000000000000e+00 -3.9503753601622824e+00 1.7532441759296905e+01 1.4261834737288012e+01 1 0 0
598 34 4 0.0000000000000000e+00 -1.0396610962530932e+00 6.9225511115004155e+00 1.1228007815110436e+01 1 0 0
754 34 6 0.0000000000000000e+00 -4.3149083851186010e-01 5.2701358245339316e+00 1.0490094837098242e+01 1 0 0
591 33 2 0.0000000000000000e+00 2.6749626354092886e+00 5.1312557286003067e+00 6.8661280665595807e+00 1 0 0
4398 234 4 0.0000000000000000e+00 -1.6139255724422163e+00 6.3538508501302027e-01 1.1413608246525952e+01 1 1 0
4412 234 2 0.0000000000000000e+00 -2.3661856729763375e+00 9.1663146134040774e-01 1.3444373084197982e+01 1 1 0
247 14 4 0.0000000000000000e+00 -5.6877880112972221e+00 9.2101979143214197e-01 1.1345931002278121e+01 1 0 0
608 34 1 0.0000000000000000e+00 -1.3869364056383207e+00 6.5376790969281098e+00 1.2475067107138919e+01 1 0 0
612 34 2 0.0000000000000000e+00 -1.9033115660511575e+00 7.2273493564846767e+00 1.3077029044235807e+01 1 0 0
979 53 3 0.0000000000000000e+00 -1.3627103648553884e-01 9.1055859066873133e+00 3.4038940199876975e+00 1 0 0
980 53 4 0.0000000000000000e+00 3.9861355907984430e-01 1.0043796653807279e+01 2.5291047790922425e+00 1 0 0
984 53 2 0.0000000000000000e+00 8.1874877245581157e-01 1.0913513807073182e+01 2.9761665107488087e+00 1 0 0
1361 74 2 0.0000000000000000e+00 -6.6282851952960176e-01 1.3354354798845497e+01 8.4644476240449897e+00 1 0 0
990 53 1 0.0000000000000000e+00 4.2050026184587752e-01 9.9248709196665441e+00 1.1554664267886952e+00 1 0 0
2253 93 6 0.0000000000000000e+00 -3.7127838566955829e-01 1.4258632002746529e+01 2.9894972910654141e+00 1 0 0
1493 53 6 0.0000000000000000e+00 -5.4933553865212281e-01 8.6709511353000988e+00 2.9737502231579755e+00 1 0 0
2116 114 5 0.0000000000000000e+00 -3.3433563718364567e-01 1.7919522869397120e+01 8.5858074133186761e+00 1 0 0
1005 54 4 0.0000000000000000e+00 -4.5868482788301819e+00 7.2645753727117146e+00 8.8192640808165930e+00 1 0 0
994 53 2 0.0000000000000000e+00 8.8048393486105725e-01 1.0793494642346936e+01 5.9519944246587098e-01 1 0 0
594 33 2 0.0000000000000000e+00 1.7987438898124219e+00 7.1201052674174701e+00 5.8597242981721527e+00 1 0 0
1741 93 1 0.0000000000000000e+00 -1.7433600601711345e+00 1.3686746786599636e+01 4.8787965345843007e+00 1 0 0
977 53 7 0.0000000000000000e+00 -6.2810646715649332e-01 8.2956022203221593e+00 5.5855643479753949e+00 1 0 0
978 53 5 0.0000000000000000e+00 -4.8066045681181002e-03 9.2255390771981372e+00 4.7952740389800947e+00 1 0 0
982 53 2 0.0000000000000000e+00 -5.2262535389684439e-01 8.2827165322546588e+00 6.6453236073115560e+00 1 0 0
983 53 2 0.0000000000000000e+00 5.4986347040547789e-01 1.0081856246412711e+01 5.1869092306042388e+00 1 0 0
1012 54 2 0.0000000000000000e+00 -2.3260011836675436e+00 9.3955375995444737e+00 7.5574349263557981e+00 1 0 0
1004 54 1 0.0000000000000000e+00 -3.6814458986292631e+00 7.7969925509329236e+00 7.9434936859771668e+00 1 0 0
1363 74 2 0.0000000000000000e+00 1.4211029555379033e+00 9.7107960285830721e+00 7.9834275740570551e+00 1 0 0
1745 93 2 0.0000000000000000e+00 -2.3641506064035500e+00 1.3263140875329050e+01 5.6734266058980527e+00 1 0 0
1008 54 1 0.0000000000000000e+00 -3.0304902591196914e+00 8.9872733979937145e+00 8.2871680953266846e+00 1 0 0
1338 73 5 0.0000000000000000e+00 3.5450649397023959e+00 1.2373036888188132e+01 1.8239839122764243e+00 1 0 0
1339 73 3 0.0000000000000000e+00 3.4024032188548006e+00 1.1912754524869987e+01 3.1444543612423934e+00 1 0 0
1340 73 4 0.0000000000000000e+00 2.8933178847510352e+00 1.2864874175657711e+01 4.0838341866283905e+00 1 0 0
1341 73 1 0.0000000000000000e+00 4.6520938776372986e+00 1.0261070579649983e+01 1.1417943810125331e+00 1 0 0
1337 73 7 0.0000000000000000e+00 4.2438527055478517e+00 1.1541143082191066e+01 8.5999516944800236e-01 1 0 0
1343 73 2 0.0000000000000000e+00 3.1321387156821268e+00 1.3407120857221136e+01 1.6200841416463394e+00 1 0 0
988 53 3 0.0000000000000000e+00 -7.3093057528968108e-01 7.9904629231812159e+00 2.8357870684011730e+00 1 0 0
1348 73 3 0.0000000000000000e+00 3.8279064282377511e+00 1.0624342410474522e+01 3.4434757312067346e+00 1 0 0
1349 73 4 0.0000000000000000e+00 4.3504780827652478e+00 9.7511559942331800e+00 2.4455179962126321e+00 1 0 0
1353 73 2 0.0000000000000000e+00 4.6313623393528385e+00 8.7910438637038375e+00 2.5544366026884733e+00 1 0 0
1513 73 6 0.0000000000000000e+00 3.7006796964442827e+00 1.1249155337209412e+01 3.2255568857450130e+00 1 0 0
1356 74 5 0.0000000000000000e+00 -3.5731468954397716e-01 1.2470313641951318e+01 8.7884475390957206e+00 1 0 0
1354 73 2 0.0000000000000000e+00 2.2601273812385583e+00 1.3055447839479360e+01 6.0612198817548837e+00 1 0 0
1346 73 1 0.0000000000000000e+00 3.0751792884762432e+00 1.1095892664973627e+01 5.6944101613719331e+00 1 0 0
1347 73 4 0.0000000000000000e+00 3.7160063465270947e+00 1.0229860078873115e+01 4.7883419621073555e+00 1 0 0
1350 73 1 0.0000000000000000e+00 2.6842873729416210e+00 1.2431485091775277e+01 5.3540985798478751e+00 1 0 0
243 14 2 0.0000000000000000e+00 -6.0112446839899540e+00 4.2215614255038175e-01 1.3406499688178551e+01 1 0 0
1352 73 2 0.0000000000000000e+00 3.9838399914072027e+00 9.2686414285499499e+00 5.0978004857364265e+00 1 0 0
1345 73 2 0.0000000000000000e+00 5.0546355589694851e+00 9.6330755111536668e+00 3.8567960402737378e-01 1 0 0
1355 74 7 0.0000000000000000e+00 3.5702924918459544e-01 1.1603435792066181e+01 7.9154690969499306e+00 1 0 0
1359 74 1 0.0000000000000000e+00 9.4631983991460178e-01 1.0470582450027702e+01 8.5479115490168844e+00 1 0 0
1360 74 2 0.0000000000000000e+00 5.5279836181447628e-01 1.1774611520752185e+01 6.8923418818127677e+00 1 0 0
1747 93 4 0.0000000000000000e+00 -5.4915713490922169e-01 1.3292943689658667e+01 1.2984223479575452e+00 1 0 0
1748 93 3 0.0000000000000000e+00 -7.5451948895952825e-01 1.3786237901617325e+01 2.6020825115298818e+00 1 0 0
601 34 2 0.0000000000000000e+00 -3.5897589422563048e-01 7.2923436800322960e+00 8.5685994588786567e+00 1 0 0
592 33 2 0.0000000000000000e+00 4.0522823265787373e+00 3.5609086196012574e+00 5.4397748573984073e+00 1 0 0
4396 234 5 0.0000000000000000e+00 -7.9629183020715288e-01 1.3240148961777595e-01 9.1202145850451544e+00 1 1 0
584 33 2 0.0000000000000000e+00 2.2366036669636036e+00 7.5528506661264272e+00 3.3680044825918869e+00 1 0 0
2131 114 2 0.0000000000000000e+00 1.1630827241259158e+00 1.4733762294898286e+01 1.0154520101242227e+01 1 0 0
1749 93 4 0.0000000000000000e+00 -1.6534823104074841e+00 1.3163658959416709e+01 3.5329643306281597e+00 1 0 0
1762 94 2 0.0000000000000000e+00 -3.3874753621009548e+00 1.6875968006233538e+01 9.9509092682123352e+00 1 0 0
1344 73 2 0.0000000000000000e+00 2.7247226578380479e+00 1.3869856300895622e+01 3.8690938574152796e+00 1 0 0
2125 114 4 0.0000000000000000e+00 -1.3303061806103944e-01 1.6105248394264958e+01 1.1751910144804556e+01 1 0 0
1754 93 2 0.0000000000000000e+00 1.5312893484755306e+00 1.5719871502851584e+01 2.7269907899499735e-01 1 0 0
995 54 7 0.0000000000000000e+00 -5.2200398806328092e+00 8.8972697251833672e+00 1.2631574294449537e+01 1 0 0
996 54 5 0.0000000000000000e+00 -4.4251125249283270e+00 9.5208156649801303e+00 1.1688348184664244e+01 1 0 0
997 54 3 0.0000000000000000e+00 -4.2133026273676863e+00 8.9827316534165345e+00 1.0433799035017074e+01 1 0 0
1001 54 2 0.0000000000000000e+00 -3.9365928352524020e+00 1.0444579755015473e+01 1.2029076771658366e+01 1 0 0
1371 74 2 0.0000000000000000e+00 1.1482974714996983e+00 9.3842621697342086e+00 1.0329678366212839e+01 1 0 0
1357 74 3 0.0000000000000000e+00 -4.5811871570994711e-01 1.2143401458266206e+01 1.0133232225136629e+01 1 0 0
2124 114 1 0.0000000000000000e+00 -7.7695306902035721e-01 1.6992654372531042e+01 1.2657648983901920e+01 1 0 0
998 54 4 0.0000000000000000e+00 -3.3484325594136695e+00 9.6461386766734041e+00 9.5172258720744995e+00 1 0 0
1494 54 6 0.0000000000000000e+00 -4.5510686152336408e+00 8.4126733474348825e+00 1.0296424057517418e+01 1 0 0
1362 74 2 0.0000000000000000e+00 -1.3529775310949015e+00 1.4033896211854882e+01 1.0427702590366980e+01 1 0 0
986 53 1 0.0000000000000000e+00 -1.3305011629847713e-01 8.7499790549092715e+00 5.4320512576284941e-01 1 0 0
999 54 1 0.0000000000000000e+00 -5.8914337119029874e+00 7.6593101323951887e+00 1.2211156313484791e+01 1 0 0
1372 74 2 0.0000000000000000e+00 -1.8004299236013432e+00 1.3636228109043284e+01 1.2794667225687485e+01 1 0 0
1514 74 6 0.0000000000000000e+00 -2.4125283842122247e-01 1.1651523529859890e+01 1.0531995858571623e+01 1 0 0
602 34 2 0.0000000000000000e+00 -1.3205598572377282e+00 7.9607500966707017e+00 1.0928342321143969e+01 1 0 0
1358 74 4 0.0000000000000000e+00 -1.0700777052513839e+00 1.3115250497912349e+01 1.0923431528831731e+01 1 0 0
1364 74 1 0.0000000000000000e+00 -8.1243586972871107e-01 1.1652204314687003e+01 1.2841305218635656e+01 1 0 0
1365 74 4 0.0000000000000000e+00 -6.8223155793353030e-02 1.0771026627414351e+01 1.2071300064826234e+01 1 0 0
1366 74 3 0.0000000000000000e+00 1.2123889855830683e-01 1.1061289984959764e+01 1.0736169436671746e+01 1 0 0
1759 94 1 0.0000000000000000e+00 -5.7038727327758361e+00 1.3107846798437887e+01 1.2131600805518762e+01 1 0 0
1368 74 1 0.0000000000000000e+00 -1.3575578096425964e+00 1.2808326468921457e+01 1.2239282703333329e+01 1 0 0
244 14 1 0.0000000000000000e+00 -4.2927173131620240e+00 2.2119023829887614e+00 8.1072723967798002e+00 1 0 0
232 13 2 0.0000000000000000e+00 -2.0085587527048787e-01 2.7524435630401378e-01 1.1756272494624815e+00 1 0 0
1378 75 2 0.0000000000000000e+00 -4.4051470726813182e+00 1.1454808899932114e+01 1.3926009815127049e+01 1 0 0
1000 54 2 0.0000000000000000e+00 -5.3742870021085958e+00 9.2801954002602560e+00 1.3628152301171948e+01 1 0 0
1766 94 3 0.0000000000000000e+00 -5.2732104964805870e+00 1.3990774233867034e+01 1.0006296805242226e+01 1 0 0
1006 54 3 0.0000000000000000e+00 -4.8305535301146589e+00 7.8011773737517078e+00 1.0036155724964946e+01 1 0 0
2120 114 2 0.0000000000000000e+00 3.6285847061008258e-01 1.7234996370748945e+01 6.6422166923788222e+00 1 0 0
1367 74 4 0.0000000000000000e+00 7.3995577789800571e-01 1.0209446777994646e+01 9.8958121465700248e+00 1 0 0
1002 54 2 0.0000000000000000e+00 -2.9650440537554750e+00 1.0575462145181850e+01 9.8376366036137082e+00 1 0 0
1755 94 7 0.0000000000000000e+00 -5.2869564669224953e+00 1.4264277818417609e+01 1.2705219669781194e+01 1 0 0
1007 54 4 0.0000000000000000e+00 -5.7169070589047273e+00 7.1874109363711245e+00 1.0940721418294542e+01 1 0 0
1737 93 7 0.0000000000000000e+00 -9.7547150812203087e-01 1.4789418781778494e+01 5.2682807947720001e+00 1 0 0
1740 93 4 0.0000000000000000e+00 7.4719358467402541e-01 1.5589151808418192e+01 2.1718831497598270e+00 1 0 0
1744 93 2 0.0000000000000000e+00 1.4100582230268615e+00 1.6438011906572449e+01 2.3959284211557161e+00 1 0 0
1768 94 1 0.0000000000000000e+00 -4.2512387367461271e+00 1.6060538811267175e+01 8.2984264314390934e+00 1 0 0
1750 93 1 0.0000000000000000e+00 9.2510186288140994e-01 1.5134638204132276e+01 8.4504193233806890e-01 1 0 0
2112 113 2 0.0000000000000000e+00 4.3514779132422898e+00 1.5779036890735776e+01 5.5287338605864376e+00 1 0 0
2119 114 1 0.0000000000000000e+00 8.4315156895118903e-01 1.5803427378909051e+01 8.2308052447771409e+00 1 0 0
609 34 2 0.0000000000000000e+00 -1.2572711003700485e+00 4.8527686915167552e+00 1.3944856282706311e+01 1 0 0
1743 93 2 0.0000000000000000e+00 2.1204987281793519e-01 1.6416632860366544e+01 4.6171735842634813e+00 1 0 0
2127 114 4 0.0000000000000000e+00 7.1829677863292662e-01 1.5576242632489327e+01 9.6082118311415385e+00 1 0 0
1772 94 2 0.0000000000000000e+00 -3.9044227761760180e+00 1.6876135610094639e+01 7.6334543834250432e+00 1 0 0
1739 93 3 0.0000000000000000e+00 -1.1979192849093101e-01 1.4928744204671503e+01 3.0786142438781647e+00 1 0 0
2129 114 2 0.0000000000000000e+00 -7.9277415253874395e-01 1.6956166584207743e+01 1.3753557479771370e+01 1 0 0
2097 113 7 0.0000000000000000e+00 4.1809626652583232e+00 1.7201782309336110e+01 1.0422154740276455e+00 1 0 0
1763 94 2 0.0000000000000000e+00 -5.9747893316273526e+00 1.2351995722507997e+01 1.2869211267861957e+01 1 0 0
2101 113 1 0.0000000000000000e+00 4.7273276876354036e+00 1.6075075607234162e+01 1.6316296491091387e+00 1 0 0
2113 113 2 0.0000000000000000e+00 4.9903076505359252e+00 1.5007402272462892e+01 3.4474395299397722e+00 1 0 0
1738 93 5 0.0000000000000000e+00 -1.9903111086666048e-01 1.5466700872005184e+01 4.3700055349463875e+00 1 0 0
2108 113 3 0.0000000000000000e+00 3.9452553507658483e+00 1.6860006363718810e+01 3.7931430898680389e+00 1 0 0
2109 113 4 0.0000000000000000e+00 4.6343162113676186e+00 1.5902241454234114e+01 3.0550902918216951e+00 1 0 0
2273 113 6 0.0000000000000000e+00 3.6342812740200885e+00 1.7340679181936860e+01 3.3950131484856918e+00 1 0 0
1351 73 2 0.0000000000000000e+00 2.8423162576807948e+00 1.0678636640517958e+01 6.6509978149029587e+00 1 0 0
2107 113 4 0.0000000000000000e+00 3.8812716098661055e+00 1.6675037087090679e+01 5.1634747710642559e+00 1 0 0
2111 113 2 0.0000000000000000e+00 3.0408710008976625e+00 1.7260503638915875e+01 7.0872417260731178e+00 1 0 0
2115 114 7 0.0000000000000000e+00 3.2114407612786078e-01 1.6983762022535799e+01 7.7684102142567895e+00 1 0 0
251 14 2 0.0000000000000000e+00 -6.1493473135746806e+00 3.2985456644272854e-02 1.0904830023543530e+01 1 0 0
1003 54 2 0.0000000000000000e+00 -6.4972710337967028e+00 7.1074466496721636e+00 1.2875581955794161e+01 1 0 0
2123 114 2 0.0000000000000000e+00 1.2177059260699838e+00 1.4960647200314629e+01 7.6243320578514888e+00 1 0 0
1767 94 4 0.0000000000000000e+00 -5.8246658189588638e+00 1.2949041865636564e+01 1.0768249139888656e+01 1 0 0
2105 113 2 0.0000000000000000e+00 5.1221039229629994e+00 1.5301880742164577e+01 9.5036704103310754e-01 1 0 0
1742 93 2 0.0000000000000000e+00 -1.0632323075924450e+00 1.5069227398621479e+01 6.3257098927669171e+00 1 0 0
1756 94 5 0.0000000000000000e+00 -4.6730842740456922e+00 1.5257773771746798e+01 1.1936315882763354e+01 1 0 0
2117 114 3 0.0000000000000000e+00 -4.8227014177450211e-01 1.7616459925484808e+01 9.9372418299634599e+00 1 0 0
1761 94 2 0.0000000000000000e+00 -4.4140530958968345e+00 1.6139051509264998e+01 1.2343989335502307e+01 1 0 0
2274 114 6 0.0000000000000000e+00 -2.8530134906301718e-01 1.7031824881472765e+01 1.0308202005796465e+01 1 0 0
2254 94 6 0.0000000000000000e+00 -5.0492725307157915e+00 1.4628358788983247e+01 1.0285542344382039e+01 1 0 0
987 53 4 0.0000000000000000e+00 -7.5590587156191513e-01 7.8666822523393174e+00 1.4200439565233183e+00 1 0 0
2106 113 1 0.0000000000000000e+00 3.2201466595718324e+00 1.7580580807585218e+01 6.0355797080086671e+00 1 0 0
2130 114 2 0.0000000000000000e+00 2.9289256207260994e-01 1.5144516095800743e+01 1.2131062779062548e+01 1 0 0
1753 93 2 0.0000000000000000e+00 -2.1308089208739007e+00 1.2285082298680214e+01 3.1684125564219521e+00 1 0 0
2102 113 2 0.0000000000000000e+00 4.2054105274699145e+00 1.7311073148963377e+01 -6.1928181386345926e-02 1 0 0
1064 57 2 0.0000000000000000e+00 7.2401651396389255e+00 6.3284132299504714e+00 9.4386226977228649e-01 1 0 0
993 53 2 0.0000000000000000e+00 -1.9709216152407121e+00 6.2270221065239735e+00 3.3468784875370332e+00 1 0 0
1010 54 2 0.0000000000000000e+00 -5.1133066693583409e+00 6.3483351356709061e+00 8.6647881580673811e+00 1 0 0
1011 54 2 0.0000000000000000e+00 -6.1933103161885601e+00 6.3043688516653527e+00 1.0673615307699963e+01 1 0 0
1752 93 2 0.0000000000000000e+00 -9.5536946071819240e-01 1.2251315741824859e+01 1.1149239080897093e+00 1 0 0
1842 98 2 0.0000000000000000e+00 2.8474324324016376e+00 1.2586318149673991e+01 8.9475706784782858e+00 1 0 0
1841 98 2 0.0000000000000000e+00 3.6295649764388624e+00 1.4157242783166758e+01 7.3437766880618955e+00 1 0 0
249 14 2 0.0000000000000000e+00 -4.1872394720315498e+00 1.9622309824432964e+00 7.0580910647450432e+00 1 0 0
231 13 2 0.0000000000000000e+00 9.7080064211508499e-01 2.0404006616545440e+00 -3.4524189130338001e-01 1 0 0
4416 235 4 0.0000000000000000e+00 -6.0132921208882708e+00 7.3198794243985066e-01 1.8851167182705506e+01 1 1 0
4420 235 2 0.0000000000000000e+00 -6.2999823652574811e+00 1.7130187760620887e+00 1.8511141781863778e+01 1 1 0
255 15 3 0.0000000000000000e+00 -8.7715196042808312e+00 3.0852891879570059e+00 1.8234426461297286e+01 1 0 0
256 15 4 0.0000000000000000e+00 -7.8799192618995395e+00 3.8396386748351414e+00 1.7460114833680841e+01 1 0 0
260 15 2 0.0000000000000000e+00 -7.3573228890878832e+00 4.7829702070184075e+00 1.7790909755444769e+01 1 0 0
2166 116 2 0.0000000000000000e+00 -8.4011516013715273e+00 1.5096533938218915e+01 2.7325335885217395e+01 1 0 0
4414 235 5 0.0000000000000000e+00 -4.8013467504359104e+00 3.5195630920798215e-01 1.6831672773114544e+01 1 1 0
264 15 3 0.0000000000000000e+00 -9.3477859791483429e+00 1.9053434759679924e+00 1.7813055103921663e+01 1 0 0
262 15 1 0.0000000000000000e+00 -8.1637490815763059e+00 2.1430229626137685e+00 1.5728983458589145e+01 1 0 0
266 15 1 0.0000000000000000e+00 -7.5379681535733321e+00 3.2836595157639001e+00 1.6207600178936865e+01 1 0 0
263 15 4 0.0000000000000000e+00 -9.0808224628585261e+00 1.4325152926951816e+00 1.6521128276785500e+01 1 0 0
735 15 6 0.0000000000000000e+00 -8.9279225424761108e+00 2.4064723867219926e+00 1.8041463910217804e+01 1 0 0
265 15 4 0.0000000000000000e+00 -1.0232470407530524e+01 1.1639911734460577e+00 1.8639232423544005e+01 1 0 0
1789 95 2 0.0000000000000000e+00 -1.0161137165707052e+01 1.1594578859870904e+01 1.8075263822744240e+01 1 0 0
613 35 7 0.0000000000000000e+00 -4.4390955026024335e+00 5.3895710891533595e+00 1.5994307783209759e+01 1 0 0
618 35 2 0.0000000000000000e+00 -4.4691252726668003e+00 5.8275055398139450e+00 1.5008354679283435e+01 1 0 0
615 35 3 0.0000000000000000e+00 -5.0458572486173452e+00 5.7939753399989700e+00 1.8366932834891767e+01 1 0 0
617 35 1 0.0000000000000000e+00 -3.9076749724422823e+00 4.1061265286789519e+00 1.6335182482165187e+01 1 0 0
621 35 2 0.0000000000000000e+00 -3.4276772921825422e+00 3.5175427550309126e+00 1.5549491651736293e+01 1 0 0
624 35 3 0.0000000000000000e+00 -4.5929081808012153e+00 4.5449423115748173e+00 1.8626830423318626e+01 1 0 0
625 35 4 0.0000000000000000e+00 -3.9798321886483814e+00 3.7137043627203123e+00 1.7675840167294499e+01 1 0 0
629 35 2 0.0000000000000000e+00 -3.4866352247108647e+00 2.7759809398373960e+00 1.7989738812954769e+01 1 0 0
755 35 6 0.0000000000000000e+00 -4.9771810556296607e+00 5.1095065720913766e+00 1.8448364389721377e+01 1 0 0
270 15 2 0.0000000000000000e+00 -6.8530167353515221e+00 3.8429739639446159e+00 1.5600481882527907e+01 1 0 0
614 35 5 0.0000000000000000e+00 -4.9859600002946687e+00 6.1955779132717685e+00 1.7026100055263051e+01 1 0 0
4419 235 2 0.0000000000000000e+00 -5.1331887929786646e+00 1.3366393876381604e+00 1.6463246855715163e+01 1 1 0
1025 55 4 0.0000000000000000e+00 -9.5878642820356941e+00 6.6493472341131517e+00 1.8295872716635461e+01 1 0 0
616 35 4 0.0000000000000000e+00 -5.6137462879993834e+00 6.6583517395737992e+00 1.9322547381148549e+01 1 0 0
1041 56 4 0.0000000000000000e+00 -1.3475268218574088e+01 7.2216455616592699e+00 2.3871646707078153e+01 1 0 0
267 15 2 0.0000000000000000e+00 -7.9436976629728093e+00 1.6985775433662915e+00 1.4752763420115263e+01 1 0 0
254 15 5 0.0000000000000000e+00 -9.0317980572776975e+00 3.5947296527672332e+00 1.9531249213516865e+01 1 0 0
4433 236 3 0.0000000000000000e+00 -9.5525689453599920e+00 2.3134763363879957e-02 2.5721575848317670e+01 1 1 0
269 15 2 0.0000000000000000e+00 -1.0699935325530868e+01 2.9139337021251061e-01 1.8272028343509930e+01 1 0 0
258 15 2 0.0000000000000000e+00 -1.0067721093866869e+01 3.0923367092733529e+00 2.1309780361989851e+01 1 0 0
634 36 4 0.0000000000000000e+00 -1.0189229264746704e+01 6.4547550625158623e+00 2.6143166946569362e+01 1 0 0
628 35 2 0.0000000000000000e+00 -4.4214995488291216e+00 3.1449315527257475e+00 2.0210156110046611e+01 1 0 0
257 15 1 0.0000000000000000e+00 -1.0224525253367560e+01 1.5537688071433664e+00 1.9969868119615533e+01 1 0 0
284 16 1 0.0000000000000000e+00 -1.2179861948982236e+01 3.4478914542565482e+00 2.3575085086206503e+01 1 0 0
279 16 2 0.0000000000000000e+00 -1.4735548349535946e+01 8.3862499249516043e-01 2.8354106762981061e+01 1 0 0
1039 56 2 0.0000000000000000e+00 -1.5103510938556116e+01 7.1741468648565272e+00 2.8203318693031022e+01 1 0 0
288 16 2 0.0000000000000000e+00 -1.1663319024302375e+01 4.0261714312090060e+00 2.2869851514519514e+01 1 0 0
271 16 7 0.0000000000000000e+00 -1.3690964057452025e+01 2.6337377894468754e+00 2.7990025418274858e+01 1 0 0
272 16 5 0.0000000000000000e+00 -1.2999877964215537e+01 3.4243298114663636e+00 2.7066790940453298e+01 1 0 0