LAMMPS (15 May 2015)
Reading data file ...
  triclinic box = (-0.107635 -0.0404339 -0.357111) to (41.3876 35.9384 29.5551) with tilt (-0.0672341 -17.0362 -0.0417078)
  5 by 2 by 2 MPI processor grid
  reading atoms ...
  4560 atoms
  reading velocities ...
  4560 velocities
  scanning bonds ...
  3 = max bonds/atom
  scanning angles ...
  3 = max angles/atom
  scanning dihedrals ...
  8 = max dihedrals/atom
  scanning impropers ...
  1 = max impropers/atom
  reading bonds ...
  5040 bonds
  reading angles ...
  7200 angles
  reading dihedrals ...
  10560 dihedrals
  reading impropers ...
  2400 impropers
Finding 1-2 1-3 1-4 neighbors ...
 Special bond factors lj:   0          0          0         
 Special bond factors coul: 0          0          0         
  4 = max # of 1-2 neighbors
  8 = max # of 1-3 neighbors
  20 = max # of 1-4 neighbors
  16 = max # of special neighbors
4560 atoms in group all
720 atoms in group C
480 atoms in group S
1920 atoms in group H
720 atoms in group Si
240 atoms in group Na
240 atoms in group Ba
240 atoms in group O
4560 atoms in group naphthalene
2400 atoms in group carbon
960 atoms in group CO
Setting atom values ...
  720 settings made for charge
Setting atom values ...
  720 settings made for charge
Setting atom values ...
  1920 settings made for charge
Setting atom values ...
  480 settings made for charge
Setting atom values ...
  240 settings made for charge
Setting atom values ...
  240 settings made for charge
Setting atom values ...
  240 settings made for charge
Finding 1-2 1-3 1-4 neighbors ...
 Special bond factors lj:   0          0          0.5       
 Special bond factors coul: 0          0          0.5       
  4 = max # of 1-2 neighbors
  8 = max # of 1-3 neighbors
  20 = max # of 1-4 neighbors
  16 = max # of special neighbors
Neighbor list info ...
  4 neighbor list requests
  update every 1 steps, delay 0 steps, check yes
  master list distance cutoff = 12
Setting up run ...
Memory usage per processor = 13.4064 Mbytes
Step Temp Density PotEng E_vdwl E_tail E_coul E_long Press Volume Xy Xz Yz E_mol E_bond E_angle E_dihed 14[1] 14[2] 14[3] msd[4] msd2[4] msd3[4] msd4[4] naphthal Cella Cellb Cellc CellAlpha CellBeta CellGamma 2 3 27[1] 27[2] 27[3] 28[1] 28[2] 28[3] 
       0          298    1.2509986     3498.833            0            0            0            0   -15873.524    44657.537 -0.067234084   -17.036218 -0.041707817     3498.833    1521.0094     935.4334    889.67826    28.379601    18.846571    14.337846 7.7711016e-30 8.8746852e-30 6.8181724e-30 5.7534156e-30          298     41.49527    35.978931    34.423473    90.016431    119.66323    90.107069 6.5285102e-26 4.9466509e-24    28.379557    18.849013    14.339638    28.379812    18.845474    14.337264 
   10000    298.47295    1.2509986    3445.7347            0            0            0            0    264.24363    44657.537 -0.067234084   -17.036218 -0.041707817    3445.7347    1405.0039    995.45177    898.97839    28.382961    18.848364    14.338167 0.0003716031 0.00037135936  0.042406236  0.042402462    298.47295     41.49527    35.978931    34.423473    90.016431    119.66323    90.107069    357.74471    222.96186    28.379343    18.848743    14.339992    28.381103    18.846921     14.33739 
   20000    296.39223    1.2509986     3564.126            0            0            0            0    1636.4161    44657.537 -0.067234084   -17.036218 -0.041707817     3564.126    1508.2022    1011.8619    890.20757    28.380639    18.850607    14.337787 0.00035792168 0.00035733099  0.042524428  0.042514974    296.39223     41.49527    35.978931    34.423473    90.016431    119.66323    90.107069    358.74179    214.75301    28.379475    18.849497    14.340229    28.379407    18.848518    14.337432 
   30000    302.34577    1.2509986    3604.6832            0            0            0            0    1647.6497    44657.537 -0.067234084   -17.036218 -0.041707817    3604.6832    1529.7841    1005.5435    909.76656    28.380956    18.847334     14.33776 0.00036432686 0.0003637431   0.04478355   0.04475928    302.34577     41.49527    35.978931    34.423473    90.016431    119.66323    90.107069    377.80005    218.59612    28.379833    18.848613    14.339049    28.384106    18.847865    14.337609 
   40000     299.3622    1.2509986    3512.9036            0            0            0            0    -1065.743    44657.537 -0.067234084   -17.036218 -0.041707817    3512.9036    1371.1105    1024.3454    952.86794      28.3789    18.845587    14.337959 0.00033605445 0.00033333508  0.047234398  0.047229631     299.3622     41.49527    35.978931    34.423473    90.016431    119.66323    90.107069    398.47573    201.63267    28.378192    18.848203    14.339189    28.378289    18.847013    14.337543 
   50000    294.39757    1.2509986    3532.0744            0            0            0            0    846.38766    44657.537 -0.067234084   -17.036218 -0.041707817    3532.0744    1454.6818    1022.9596    901.25031    28.378782    18.849277    14.332497 0.00034892257 0.00034670785  0.043387621  0.043337798    294.39757     41.49527    35.978931    34.423473    90.016431    119.66323    90.107069    366.02381    209.35354    28.378125     18.84862    14.339533     28.37981    18.850372    14.332181 
   60000    295.80488    1.2509986     3471.601            0            0            0            0    1804.0882    44657.537 -0.067234084   -17.036218 -0.041707817     3471.601    1415.4606    984.60264    916.87399    28.379579    18.846647    14.338423 0.00034324044 0.00034223457  0.046581762  0.046576124    295.80488     41.49527    35.978931    34.423473    90.016431    119.66323    90.107069    392.97001    205.94426     28.37874     18.84925    14.339107    28.381462    18.844996    14.338903 
   70000     293.6589    1.2509986    3531.5548            0            0            0            0   -203.70787    44657.537 -0.067234084   -17.036218 -0.041707817    3531.5548    1457.1216    982.31119    932.58166    28.379547    18.848323    14.338977 0.00035064542 0.00034939501  0.044734958  0.044722122     293.6589     41.49527    35.978931    34.423473    90.016431    119.66323    90.107069    377.39012    210.38725    28.379909    18.848194    14.338964    28.381126    18.848469    14.338728 
   80000    294.02168    1.2509986    3487.2516            0            0            0            0   -2115.3246    44657.537 -0.067234084   -17.036218 -0.041707817    3487.2516     1459.725    968.96672    902.32631    28.379767    18.846897    14.341557 0.00034075974 0.00033847136  0.045902881  0.045886282    294.02168     41.49527    35.978931    34.423473    90.016431    119.66323    90.107069    387.24288    204.45584    28.378982    18.847617    14.339541    28.380751    18.846813    14.340996 
   90000    300.08775    1.2509986    3500.4777            0            0            0            0    611.08996    44657.537 -0.067234084   -17.036218 -0.041707817    3500.4777     1447.355    997.05016    901.68147    28.377584    18.845355    14.336619 0.00033711856 0.00033447219   0.04602649  0.046023269    300.08775     41.49527    35.978931    34.423473    90.016431    119.66323    90.107069    388.28566    202.27114    28.378826    18.849038    14.338185    28.378301    18.844572    14.336912 
  100000    300.54922    1.2509986    3582.4357            0            0            0            0   -207.65849    44657.537 -0.067234084   -17.036218 -0.041707817    3582.4357    1495.2167    1005.0369    925.32268    28.382348    18.847076    14.334706 0.00036314427 0.00035981637  0.043976249   0.04396341    300.54922     41.49527    35.978931    34.423473    90.016431    119.66323    90.107069    370.98955    217.88656    28.379019    18.850033    14.338224    28.382577    18.845348    14.334988 
  110000    296.05582    1.2509986     3530.818            0            0            0            0    358.94348    44657.537 -0.067234084   -17.036218 -0.041707817     3530.818    1476.9911     1016.485    891.03834    28.379375    18.848954    14.338726 0.00036188269 0.0003612069  0.047849446   0.04783074    296.05582     41.49527    35.978931    34.423473    90.016431    119.66323    90.107069    403.66436    217.12961    28.380138    18.848626    14.339204    28.379804     18.84928     14.33932 
  120000    297.90451    1.2509986    3608.2874            0            0            0            0    284.85439    44657.537 -0.067234084   -17.036218 -0.041707817    3608.2874    1488.7092     1036.565    925.33273    28.381368    18.847125    14.336572 0.00035098113 0.00035009337  0.043879825  0.043867799    297.90451     41.49527    35.978931    34.423473    90.016431    119.66323    90.107069     370.1761    210.58868    28.378671    18.848899    14.339939    28.379061    18.848639     14.33606 
  130000     306.0285    1.2509986    3505.1221            0            0            0            0    656.13154    44657.537 -0.067234084   -17.036218 -0.041707817    3505.1221    1425.1823     1021.391    905.03634    28.381877    18.847401    14.337588 0.00038238353 0.00038190497  0.047735334  0.047731753     306.0285     41.49527    35.978931    34.423473    90.016431    119.66323    90.107069    402.70169    229.43012    28.379466    18.848363    14.339419    28.380083    18.847252    14.336674 
  140000    297.20267    1.2509986    3578.5803            0            0            0            0   -248.76626    44657.537 -0.067234084   -17.036218 -0.041707817    3578.5803     1511.081    1009.3416    900.26643    28.379582    18.849966    14.337353 0.0003358055 0.00033511173  0.048608145  0.048581502    297.20267     41.49527    35.978931    34.423473    90.016431    119.66323    90.107069    410.06484     201.4833    28.379178    18.848385    14.340033    28.379521    18.850616    14.337614 
  150000    300.37551    1.2509986     3556.041            0            0            0            0   -1777.0126    44657.537 -0.067234084   -17.036218 -0.041707817     3556.041    1488.4906    1009.1708    899.08196    28.379435    18.846897    14.336679 0.00036562925 0.00036457906  0.045794832  0.045782229    300.37551     41.49527    35.978931    34.423473    90.016431    119.66323    90.107069    386.33135    219.37755    28.380112    18.848152    14.339665    28.376824    18.846454    14.335616 
  160000    299.54221    1.2509986    3531.3633            0            0            0            0    379.55771    44657.537 -0.067234084   -17.036218 -0.041707817    3531.3633    1493.5386    983.15955     902.1603     28.37997    18.844396    14.338399 0.00033035481 0.00032975677  0.045715307  0.045710114    299.54221     41.49527    35.978931    34.423473    90.016431    119.66323    90.107069    385.66047    198.21289    28.379532    18.848815    14.338891    28.379384    18.843285    14.337729 
  170000    297.21864    1.2509986    3567.1241            0            0            0            0    414.88817    44657.537 -0.067234084   -17.036218 -0.041707817    3567.1241    1454.7359    1018.9085    930.96149    28.376261    18.846087    14.336537 0.00034791909 0.00034699896  0.042478398  0.042427509    297.21864     41.49527    35.978931    34.423473    90.016431    119.66323    90.107069    358.35348    208.75145     28.37946    18.848336    14.340311    28.373223    18.847142    14.335098 
  180000     298.9353    1.2509986     3537.745            0            0            0            0   -502.69995    44657.537 -0.067234084   -17.036218 -0.041707817     3537.745    1464.8418    1027.3225    893.47044    28.378985    18.847421    14.335919 0.00037564977 0.00037484835  0.044323201  0.044319101     298.9353     41.49527    35.978931    34.423473    90.016431    119.66323    90.107069    373.91648    225.38986    28.379759    18.849436    14.338875    28.378507    18.846503    14.336107 
  190000    291.63995    1.2509986    3558.4334            0            0            0            0   -1471.1907    44657.537 -0.067234084   -17.036218 -0.041707817    3558.4334    1463.5447    1022.5477    911.85262     28.37561    18.848875    14.338163 0.00036574915 0.00036509687  0.044988644  0.044947621    291.63995     41.49527    35.978931    34.423473    90.016431    119.66323    90.107069    379.53025    219.44949    28.379935     18.84886    14.338941    28.375427    18.850049    14.338193 
  200000    298.19071    1.2509986    3484.5876            0            0            0            0   -968.68637    44657.537 -0.067234084   -17.036218 -0.041707817    3484.5876    1480.2533    1011.9094    845.34962    28.382596    18.849803    14.336742 0.00033127614 0.00033029092  0.046560467  0.046519395    298.19071     41.49527    35.978931    34.423473    90.016431    119.66323    90.107069    392.79036    198.76568    28.379959    18.848621     14.33882    28.383933    18.850371    14.337603 
  210000    297.52814    1.2509986    3562.2767            0            0            0            0    553.72416    44657.537 -0.067234084   -17.036218 -0.041707817    3562.2767    1481.1222    995.04456     926.4031    28.378221    18.850364    14.336676 0.00035359484 0.00035193479  0.044778117  0.044732455    297.52814     41.49527    35.978931    34.423473    90.016431    119.66323    90.107069    377.75421    212.15691    28.378812    18.849783    14.338922    28.376207     18.85077    14.335114 
  220000    294.81143    1.2509986    3554.5836            0            0            0            0    961.33433    44657.537 -0.067234084   -17.036218 -0.041707817    3554.5836    1461.4786    997.87183    932.74864    28.379131    18.850429    14.338704 0.00034549793 0.00034389143  0.044287865  0.044257928    294.81143     41.49527    35.978931    34.423473    90.016431    119.66323    90.107069    373.61839    207.29876    28.379712    18.847808    14.339275    28.378993    18.850803    14.338196 
  230000    304.68833    1.2509986     3602.901            0            0            0            0    -786.6643    44657.537 -0.067234084   -17.036218 -0.041707817     3602.901    1435.4788     1030.131    970.92081    28.381624    18.850427    14.338802 0.00035718416 0.00035551073  0.045536839  0.045488421    304.68833     41.49527    35.978931    34.423473    90.016431    119.66323    90.107069    384.15489     214.3105    28.380166    18.850066    14.339199     28.38293    18.851492    14.338843 
  240000    298.43778    1.2509986    3599.5418            0            0            0            0    660.87593    44657.537 -0.067234084   -17.036218 -0.041707817    3599.5418    1513.5633    1019.3913    908.89334     28.37829    18.850567    14.337022 0.00034764957 0.00034616452  0.045373902  0.045323557    298.43778     41.49527    35.978931    34.423473    90.016431    119.66323    90.107069    382.78034    208.58974    28.379047    18.849674     14.33875    28.375985     18.85144    14.336935 
  250000     302.7508    1.2509986      3517.22            0            0            0            0   -1099.3241    44657.537 -0.067234084   -17.036218 -0.041707817      3517.22    1409.0618    1057.1289    898.34232    28.378649     18.85126    14.335365 0.00033385053 0.00033099275  0.043788607  0.043744578     302.7508     41.49527    35.978931    34.423473    90.016431    119.66323    90.107069    369.40657    200.31032    28.380412    18.847895    14.338702    28.378622    18.851854    14.335883 
  260000    296.71356    1.2509986    3500.7815            0            0            0            0    278.16161    44657.537 -0.067234084   -17.036218 -0.041707817    3500.7815     1425.945     1029.812    889.36484    28.380009     18.84818     14.33762 0.00035432924 0.00035353866  0.048394648  0.048390647    296.71356     41.49527    35.978931    34.423473    90.016431    119.66323    90.107069    408.26376    212.59754    28.379779    18.848545    14.340361    28.381281    18.846829    14.337352 
  270000    297.36326    1.2509986    3545.1745            0            0            0            0   -79.264425    44657.537 -0.067234084   -17.036218 -0.041707817    3545.1745    1410.2766    1013.2327    954.38626     28.37964    18.847603    14.339193 0.00037479826 0.00037189384  0.048472113  0.048464189    297.36326     41.49527    35.978931    34.423473    90.016431    119.66323    90.107069    408.91726    224.87896    28.380921    18.848786    14.340634    28.378704    18.847825    14.338348 
  280000    295.44815    1.2509986    3484.1907            0            0            0            0    -111.7431    44657.537 -0.067234084   -17.036218 -0.041707817    3484.1907    1419.7532     993.2176    915.56228    28.379702    18.846185     14.33761 0.00034351837 0.00034329068  0.044210711  0.044210222    295.44815     41.49527    35.978931    34.423473    90.016431    119.66323    90.107069     372.9675    206.11102    28.379727    18.849061    14.339195    28.379511    18.845051    14.336796 
  290000    298.38093    1.2509986    3514.4056            0            0            0            0   -325.18496    44657.537 -0.067234084   -17.036218 -0.041707817    3514.4056    1451.7166    1011.1386    899.47331    28.379611    18.847487    14.333223 0.00038280209 0.00038255093  0.044229438  0.044207617    298.38093     41.49527    35.978931    34.423473    90.016431    119.66323    90.107069    373.12548    229.68126    28.380053    18.849064    14.339596    28.379896    18.847274    14.332954 
  300000    299.43222    1.2509986     3551.442            0            0            0            0    1099.3755    44657.537 -0.067234084   -17.036218 -0.041707817     3551.442    1460.1076    1031.3472    903.53917    28.380544    18.846991    14.338296 0.00032777148 0.00032649307  0.044320683  0.044314899    299.43222     41.49527    35.978931    34.423473    90.016431    119.66323    90.107069    373.89524    196.66289    28.378765    18.849719    14.339247    28.380274     18.84782       14.337 
  310000    295.29684    1.2509986    3470.7963            0            0            0            0    774.82016    44657.537 -0.067234084   -17.036218 -0.041707817    3470.7963    1434.0166    1000.7192    880.70671    28.377363    18.850802    14.335616 0.00032925109 0.00032687875  0.044092644  0.044048848    295.29684     41.49527    35.978931    34.423473    90.016431    119.66323    90.107069    371.97147    197.55066    28.380145    18.849874    14.338505    28.378211    18.851802    14.336173 
  320000    292.25573    1.2509986    3535.0877            0            0            0            0    1674.1353    44657.537 -0.067234084   -17.036218 -0.041707817    3535.0877     1447.646     1002.809    930.00457    28.381359    18.848493     14.34315 0.00034438949 0.00034119731  0.045862124  0.045814504    292.25573     41.49527    35.978931    34.423473    90.016431    119.66323    90.107069    386.89904    206.63369     28.38033    18.848289    14.341077    28.378723    18.848588    14.343326 
  330000    297.42671    1.2509986    3569.9755            0            0            0            0    1012.5345    44657.537 -0.067234084   -17.036218 -0.041707817    3569.9755     1430.845    1051.8348    925.50453    28.383517    18.851302    14.338505 0.00034988686 0.00034790762  0.045767737  0.045718876    297.42671     41.49527    35.978931    34.423473    90.016431    119.66323    90.107069    386.10278    209.93212    28.380278    18.847971    14.340249    28.384439    18.850639    14.338147 
  340000    297.72392    1.2509986    3483.3703            0            0            0            0    348.33182    44657.537 -0.067234084   -17.036218 -0.041707817    3483.3703    1412.9506    1016.5906    900.44435    28.379819     18.84985    14.334288 0.00037725885 0.00037478459  0.046262903  0.046223905    297.72392     41.49527    35.978931    34.423473    90.016431    119.66323    90.107069    390.28007    226.35531    28.378255     18.84824    14.340064    28.378041    18.849922    14.333255 
  350000    298.89028    1.2509986    3542.2522            0            0            0            0   -136.30972    44657.537 -0.067234084   -17.036218 -0.041707817    3542.2522    1481.7533    987.57261    919.84546    28.377778    18.844156    14.338446 0.00038079551 0.00037908529  0.045224439  0.045215456    298.89028     41.49527    35.978931    34.423473    90.016431    119.66323    90.107069    381.51945     228.4773    28.379281    18.847739    14.339748    28.378674    18.843512    14.339223 
  360000    293.72755    1.2509986    3549.3426            0            0            0            0    2500.0345    44657.537 -0.067234084   -17.036218 -0.041707817    3549.3426    1470.3133    996.22067     921.5543    28.381144    18.847752    14.339894 0.00035727724 0.0003552029  0.044109561   0.04409331    293.72755     41.49527    35.978931    34.423473    90.016431    119.66323    90.107069    372.11419    214.36635    28.378462    18.849538    14.338863    28.379974    18.847985    14.340414 
  370000    292.31964    1.2509986    3510.9982            0            0            0            0    1450.3596    44657.537 -0.067234084   -17.036218 -0.041707817    3510.9982    1465.1413    985.30758    908.03272    28.378164    18.849943    14.337132  0.000338666 0.00033665343   0.04671454  0.046688252    292.31964     41.49527    35.978931    34.423473    90.016431    119.66323    90.107069    394.09014     203.1996     28.37817    18.849208    14.339411    28.377754    18.850129    14.336638 
  380000     295.6457    1.2509986       3565.9            0            0            0            0    853.96766    44657.537 -0.067234084   -17.036218 -0.041707817       3565.9    1439.7161     1033.865     933.5252    28.376949    18.846041    14.338384 0.00036713628 0.00036563523  0.047032763  0.047024349     295.6457     41.49527    35.978931    34.423473    90.016431    119.66323    90.107069    396.77471    220.28177    28.378642     18.84972    14.339232    28.377358    18.846087    14.338685 
  390000    296.93134    1.2509986    3529.7442            0            0            0            0    484.04792    44657.537 -0.067234084   -17.036218 -0.041707817    3529.7442    1412.5831    1009.2931    946.93318    28.377954    18.846501    14.337095 0.00034813144 0.0003466015    0.0458121  0.045805178    296.93134     41.49527    35.978931    34.423473    90.016431    119.66323    90.107069    386.47703    208.87886    28.379354    18.847899    14.340137    28.377401    18.846529    14.337248 
  400000    292.22953    1.2509986    3560.0532            0            0            0            0     189.6488    44657.537 -0.067234084   -17.036218 -0.041707817    3560.0532    1495.3904    1019.4135     896.2587    28.375059    18.850268    14.333866 0.00034051797 0.00034014886  0.046797081  0.046743427    292.22953     41.49527    35.978931    34.423473    90.016431    119.66323    90.107069    394.78646    204.31078    28.379717    18.848512    14.339334    28.375852    18.849926    14.333004 
  410000    297.04424    1.2509986    3588.8925            0            0            0            0   -1257.3302    44657.537 -0.067234084   -17.036218 -0.041707817    3588.8925    1490.4895     1001.578    939.01818    28.377212    18.850881    14.335576 0.0003506651 0.00034828972  0.042769549  0.042735437    297.04424     41.49527    35.978931    34.423473    90.016431    119.66323    90.107069    360.80966    210.39906    28.379841    18.849699    14.340989    28.377581    18.850672    14.335808 
  420000    300.53563    1.2509986    3542.0895            0            0            0            0    649.97969    44657.537 -0.067234084   -17.036218 -0.041707817    3542.0895    1463.5012    984.04129    933.94555    28.380937    18.852841    14.340584 0.0003871099 0.0003851297   0.04322586  0.043163701    300.53563     41.49527    35.978931    34.423473    90.016431    119.66323    90.107069    364.65916    232.26594    28.379306    18.850145    14.340435     28.38065    18.853014     14.33941 
  430000    302.14231    1.2509986    3473.2312            0            0            0            0    1759.7505    44657.537 -0.067234084   -17.036218 -0.041707817    3473.2312    1444.3156    963.64193    910.78264    28.378563    18.848593    14.339443 0.00035910353 0.00035898332   0.04642461  0.046403485    302.14231     41.49527    35.978931    34.423473    90.016431    119.66323    90.107069    391.64425    215.46212    28.379554    18.848672    14.339703    28.376468    18.848237    14.338785 
  440000    305.62978    1.2509986    3486.0404            0            0            0            0   -58.421865    44657.537 -0.067234084   -17.036218 -0.041707817    3486.0404    1461.8768    970.25791    901.79451    28.378787    18.850228    14.337777 0.00033578889 0.00033425035  0.043099046  0.043069749    305.62978     41.49527    35.978931    34.423473    90.016431    119.66323    90.107069    363.58934    201.47333    28.378383    18.849231    14.339975    28.378708    18.850744     14.33782 
  450000    297.93807    1.2509986    3475.1149            0            0            0            0    1391.8519    44657.537 -0.067234084   -17.036218 -0.041707817    3475.1149    1390.0509    969.37831    948.51594    28.377153    18.845806    14.336847 0.00040402953 0.00040194845  0.046956388  0.046953998    297.93807     41.49527    35.978931    34.423473    90.016431    119.66323    90.107069     396.1304    242.41772     28.37962    18.849491    14.340998    28.378484    18.845231    14.336512 
  460000    302.18729    1.2509986    3492.3548            0            0            0            0    1917.4878    44657.537 -0.067234084   -17.036218 -0.041707817    3492.3548    1475.5896     961.5932    905.67361    28.383672    18.849061     14.33788 0.00037545069 0.0003746859   0.04304958  0.043014639    302.18729     41.49527    35.978931    34.423473    90.016431    119.66323    90.107069    363.17205    225.27042    28.378956    18.848415    14.339855     28.38326    18.850246    14.336735 
  470000    302.89561    1.2509986    3496.2256            0            0            0            0    1454.3102    44657.537 -0.067234084   -17.036218 -0.041707817    3496.2256    1421.9586    1006.9739    912.37679    28.379068    18.846719    14.336903 0.00034101926 0.0003393918  0.044346654   0.04434194    302.89561     41.49527    35.978931    34.423473    90.016431    119.66323    90.107069    374.11434    204.61156    28.378496    18.849118    14.340339    28.378107    18.846416    14.336305 
  480000    290.87116    1.2509986    3505.5653            0            0            0            0    670.99484    44657.537 -0.067234084   -17.036218 -0.041707817    3505.5653    1431.8147    1023.8569    893.48731    28.380816    18.851442    14.338285 0.00033581228 0.00033379344  0.046967541  0.046923944    290.87116     41.49527    35.978931    34.423473    90.016431    119.66323    90.107069    396.22449    201.48737    28.379272     18.84792      14.3405    28.379065    18.852031    14.337472 
  490000    300.69825    1.2509986    3493.4965            0            0            0            0    -454.7219    44657.537 -0.067234084   -17.036218 -0.041707817    3493.4965    1454.0621      1008.21    881.93546     28.38219     18.84346    14.339618 0.00033143592 0.00033062999  0.045399189   0.04536972    300.69825     41.49527    35.978931    34.423473    90.016431    119.66323    90.107069    382.99366    198.86155    28.380053    18.849438    14.340253     28.38295    18.842159    14.340202 
  500000    296.06357    1.2509986     3513.599            0            0            0            0   -45.114488    44657.537 -0.067234084   -17.036218 -0.041707817     3513.599    1452.8619    1001.8856    905.30452    28.378272     18.84839    14.338258 0.00036125727 0.00035942011  0.044856254    0.0448431    296.06357     41.49527    35.978931    34.423473    90.016431    119.66323    90.107069    378.41339    216.75436    28.380598    18.848924    14.340501    28.376898     18.84763    14.337375 
  510000    305.05382    1.2509986    3483.1133            0            0            0            0    1355.2597    44657.537 -0.067234084   -17.036218 -0.041707817    3483.1133    1410.6594    991.82023    924.01164    28.383127    18.849085    14.341235 0.0003500671 0.0003498036   0.04293303  0.042872513    305.05382     41.49527    35.978931    34.423473    90.016431    119.66323    90.107069    362.18881    210.04026    28.379354    18.848551    14.339733    28.385714    18.848215    14.341526 
  520000    305.82743    1.2509986     3570.149            0            0            0            0   -1132.1071    44657.537 -0.067234084   -17.036218 -0.041707817     3570.149    1439.0479     1024.553     948.9197    28.377339    18.850885    14.334855 0.00035872751 0.00035750552  0.044359596  0.044311807    305.82743     41.49527    35.978931    34.423473    90.016431    119.66323    90.107069    374.22352    215.23651    28.378467    18.849131    14.339782    28.378647    18.851202    14.333573 
  530000    294.38373    1.2509986    3522.2839            0            0            0            0    179.50122    44657.537 -0.067234084   -17.036218 -0.041707817    3522.2839    1490.3745    966.31132     910.2325    28.377925    18.849323    14.337301 0.00033385807 0.00033328934  0.043915642  0.043906311    294.38373     41.49527    35.978931    34.423473    90.016431    119.66323    90.107069    370.47825    200.31484     28.38031    18.849033    14.339607    28.378114    18.848004    14.337036 
  540000    302.72438    1.2509986    3546.5844            0            0            0            0   -620.42035    44657.537 -0.067234084   -17.036218 -0.041707817    3546.5844    1454.5422    976.55818    952.68441    28.381866      18.8497    14.335546 0.00034779853 0.00034454665  0.046641392  0.046604574    302.72438     41.49527    35.978931    34.423473    90.016431    119.66323    90.107069    393.47305    208.67912    28.377944    18.849629    14.339118    28.383194    18.850202    14.335523 
  550000    298.35774    1.2509986    3525.6617            0            0            0            0    906.85651    44657.537 -0.067234084   -17.036218 -0.041707817    3525.6617    1451.9033    1005.5059     913.8782     28.37821    18.850232    14.335239 0.00035246752 0.00035122174  0.047127438  0.047095661    298.35774     41.49527    35.978931    34.423473    90.016431    119.66323    90.107069     397.5734    211.48051    28.380161    18.848547    14.338823    28.379162     18.85089    14.335843 
  560000    297.80381    1.2509986    3514.3101            0            0            0            0    1062.5755    44657.537 -0.067234084   -17.036218 -0.041707817    3514.3101    1444.8796     986.5673     923.1768    28.379988    18.846339     14.34172 0.00036399804 0.00036393784  0.045617501  0.045599458    297.80381     41.49527    35.978931    34.423473    90.016431    119.66323    90.107069    384.83537    218.39883    28.379605    18.849223    14.339522    28.380056    18.846364    14.341411 
  570000     294.9582    1.2509986    3469.4433            0            0            0            0    2603.3457    44657.537 -0.067234084   -17.036218 -0.041707817    3469.4433    1452.8153     953.4373     903.4978      28.3793    18.848945    14.338869 0.00037865802 0.00037736739    0.0428973  0.042876605     294.9582     41.49527    35.978931    34.423473    90.016431    119.66323    90.107069    361.88739    227.19481    28.378691    18.848326    14.339904    28.378461    18.849694    14.338295 
  580000    299.52771    1.2509986    3597.5651            0            0            0            0     327.7032    44657.537 -0.067234084   -17.036218 -0.041707817    3597.5651    1451.9112    1043.5422    951.69976    28.374611    18.847371    14.337456 0.00037038762 0.00037023229  0.046019586  0.045996819    299.52771     41.49527    35.978931    34.423473    90.016431    119.66323    90.107069    388.22741    222.23257     28.37981    18.849204    14.339871    28.375122    18.846309     14.33699 
  590000    298.43508    1.2509986    3517.9779            0            0            0            0   -303.54871    44657.537 -0.067234084   -17.036218 -0.041707817    3517.9779    1452.4322    999.64539    907.92672    28.377905    18.845663    14.337132 0.00035792158 0.00035645647  0.046111373  0.046109545    298.43508     41.49527    35.978931    34.423473    90.016431    119.66323    90.107069    389.00174    214.75295    28.378537    18.849353    14.340195    28.378544    18.845216    14.337656 
  600000    299.64773    1.2509986    3616.4379            0            0            0            0    1129.2468    44657.537 -0.067234084   -17.036218 -0.041707817    3616.4379    1481.5763    1022.2209    948.50297    28.380796    18.852385    14.337576 0.00038053724 0.00037571946  0.043999028   0.04397514    299.64773     41.49527    35.978931    34.423473    90.016431    119.66323    90.107069    371.18171    228.32235    28.378312    18.850538    14.338668    28.378599    18.850155    14.337975 
  610000    289.37411    1.2509986    3447.2604            0            0            0            0      851.944    44657.537 -0.067234084   -17.036218 -0.041707817    3447.2604    1397.2856    1002.2369    897.03419    28.381534    18.844488    14.338261 0.00035058123 0.00035016706  0.044281466  0.044265594    289.37411     41.49527    35.978931    34.423473    90.016431    119.66323    90.107069     373.5644    210.34874    28.379424    18.849345    14.339103    28.383607    18.844606    14.338113 
  620000    297.57739    1.2509986    3546.6518            0            0            0            0    2449.6687    44657.537 -0.067234084   -17.036218 -0.041707817    3546.6518    1439.0724    1005.4666    943.17922     28.38126    18.848099    14.339076 0.0003507691 0.00034933446  0.043775884    0.0437654    297.57739     41.49527    35.978931    34.423473    90.016431    119.66323    90.107069    369.29924    210.46146    28.380388    18.848402    14.340246    28.382054    18.846498    14.339365 
  630000    299.93535    1.2509986    3581.5328            0            0            0            0    175.99832    44657.537 -0.067234084   -17.036218 -0.041707817    3581.5328    1508.7609     1011.936    909.07799    28.383722    18.846485    14.339444 0.00037820118 0.00037544838  0.043082619  0.043057778    299.93535     41.49527    35.978931    34.423473    90.016431    119.66323    90.107069    363.45076    226.92071    28.380928    18.848852    14.340558    28.384143    18.846584    14.339467 
  640000    297.35731    1.2509986    3521.5264            0            0            0            0    709.85695    44657.537 -0.067234084   -17.036218 -0.041707817    3521.5264    1455.0853    1033.4774    880.70109    28.379421    18.848721    14.337475 0.00032798612 0.00032777261  0.046784274  0.046774813    297.35731     41.49527    35.978931    34.423473    90.016431    119.66323    90.107069    394.67842    196.79167    28.379524    18.848588     14.33946    28.381727    18.847704    14.338171 
  650000    299.74981    1.2509986    3543.1187            0            0            0            0    1234.4851    44657.537 -0.067234084   -17.036218 -0.041707817    3543.1187    1460.8025    1014.7972    913.25548    28.380533    18.849628    14.341125 0.00036376615 0.00036313856  0.046906087  0.046877032    299.74981     41.49527    35.978931    34.423473    90.016431    119.66323    90.107069    395.70606    218.25969     28.37902    18.848441    14.339751    28.379024    18.849494    14.340769 
  660000    296.65919    1.2509986    3554.7552            0            0            0            0    1857.8982    44657.537 -0.067234084   -17.036218 -0.041707817    3554.7552    1461.2223    1004.7394    926.18149    28.379261    18.847953    14.339082  0.000364312 0.00036324853   0.04303588  0.043025499    296.65919     41.49527    35.978931    34.423473    90.016431    119.66323    90.107069    363.05646     218.5872    28.380452    18.849427     14.33994    28.378381    18.847972    14.338712 
  670000    296.41826    1.2509986    3565.0496            0            0            0            0   -978.35277    44657.537 -0.067234084   -17.036218 -0.041707817    3565.0496    1509.7279    1007.9545     894.4018    28.378132    18.849774    14.334595 0.00037545319 0.00037528466  0.044995501  0.044976724    296.41826     41.49527    35.978931    34.423473    90.016431    119.66323    90.107069     379.5881    225.27191    28.379564    18.849415    14.339554    28.379977    18.848805    14.334498 
  680000    300.14209    1.2509986    3561.0247            0            0            0            0     990.6516    44657.537 -0.067234084   -17.036218 -0.041707817    3561.0247    1465.0013    1006.3953    928.91466    28.382127    18.851072    14.339429 0.00038516932 0.00038429158  0.045933648  0.045886012    300.14209     41.49527    35.978931    34.423473    90.016431    119.66323    90.107069    387.50243    231.10159    28.378738    18.848558    14.339652    28.381838    18.851544    14.339852 
  690000    294.90173    1.2509986    3502.2929            0            0            0            0    216.99634    44657.537 -0.067234084   -17.036218 -0.041707817    3502.2929    1426.2072    996.44436     921.8174    28.383827    18.848736     14.33865 0.00032285812 0.00032212973  0.046666165  0.046615047    294.90173     41.49527    35.978931    34.423473    90.016431    119.66323    90.107069    393.68204    193.71487    28.379821    18.848313    14.339227    28.385925    18.848739    14.339025 
  700000    298.95985    1.2509986    3584.2879            0            0            0            0     -1272.23    44657.537 -0.067234084   -17.036218 -0.041707817    3584.2879    1490.9255    1028.8131     908.5968    28.379263    18.851201    14.338884 0.00037661124 0.00037543688  0.045257109  0.045225302    298.95985     41.49527    35.978931    34.423473    90.016431    119.66323    90.107069    381.79506    225.96674    28.380336    18.849148    14.340379    28.380293    18.850449    14.339878 
  710000    301.62072    1.2509986    3515.5966            0            0            0            0   -1061.8759    44657.537 -0.067234084   -17.036218 -0.041707817    3515.5966    1447.1005    983.07307    924.14963    28.378604    18.846776    14.335824 0.00039652919 0.00039329605  0.045178113  0.045173032    301.62072     41.49527    35.978931    34.423473    90.016431    119.66323    90.107069    381.12864    237.91751    28.380163    18.850214    14.340831    28.380623    18.847476     14.33662 
  720000    295.35866    1.2509986    3553.1223            0            0            0            0   -185.04565    44657.537 -0.067234084   -17.036218 -0.041707817    3553.1223    1482.8893    1013.4475     899.2815      28.3826    18.849761    14.338591 0.0003795324 0.00037857565  0.045362752  0.045343851    295.35866     41.49527    35.978931    34.423473    90.016431    119.66323    90.107069    382.68627    227.71944    28.380416    18.849366    14.339942     28.38102    18.849649    14.337363 
  730000    297.32014    1.2509986    3505.7269            0            0            0            0   -521.52128    44657.537 -0.067234084   -17.036218 -0.041707817    3505.7269    1473.1967    976.60357    902.27535      28.3793    18.853429    14.338126 0.00033208779 0.00033179397  0.048574624  0.048531848    297.32014     41.49527    35.978931    34.423473    90.016431    119.66323    90.107069    409.78206    199.25268    28.379907    18.849302    14.339342    28.380314    18.851991    14.337497 
  740000    302.23662    1.2509986    3437.8263            0            0            0            0    1087.7463    44657.537 -0.067234084   -17.036218 -0.041707817    3437.8263    1374.1614     1010.983    896.89317    28.381487    18.846889    14.340983 0.00037163037 0.00037138147  0.043539847  0.043515679    302.23662     41.49527    35.978931    34.423473    90.016431    119.66323    90.107069      367.308    222.97822    28.379563    18.849348    14.339269    28.381142    18.847087    14.341714 
  750000    294.43549    1.2509986    3479.2574            0            0            0            0   -127.39762    44657.537 -0.067234084   -17.036218 -0.041707817    3479.2574    1437.7751    969.62969    917.75163    28.380196    18.848045    14.337082 0.0003537136 0.00035336728  0.044810758  0.044802546    294.43549     41.49527    35.978931    34.423473    90.016431    119.66323    90.107069    378.02958    212.22816    28.380003    18.848944     14.33926    28.379353    18.848286    14.336955 
  760000    298.49986    1.2509986    3559.1625            0            0            0            0   -186.26573    44657.537 -0.067234084   -17.036218 -0.041707817    3559.1625    1442.5598    1013.8597    941.58504    28.380136    18.848825    14.339193 0.00035680634 0.00035451988  0.043043755  0.043031058    298.49986     41.49527    35.978931    34.423473    90.016431    119.66323    90.107069     363.1229    214.08381    28.378131    18.849343    14.340019     28.37848    18.848762    14.337607 
  770000    290.53216    1.2509986    3492.0411            0            0            0            0    1411.8838    44657.537 -0.067234084   -17.036218 -0.041707817    3492.0411    1450.1866    996.00723    896.12127    28.382363    18.851005    14.338288 0.00036307158 0.00035877053  0.044828211  0.044801972    290.53216     41.49527    35.978931    34.423473    90.016431    119.66323    90.107069    378.17681    217.84295    28.381502     18.84869    14.338996      28.3784    18.850384    14.336889 
  780000    298.88757    1.2509986    3478.2173            0            0            0            0    810.45926    44657.537 -0.067234084   -17.036218 -0.041707817    3478.2173    1405.2071    1018.1195    899.33759    28.378797    18.850359    14.334875 0.00036897008 0.00036873558  0.044703808  0.044674346    298.88757     41.49527    35.978931    34.423473    90.016431    119.66323    90.107069    377.12734    221.38205    28.379285    18.848791    14.339972    28.378848    18.850263    14.334897 
  790000    292.77874    1.2509986    3575.3928            0            0            0            0    1340.8275    44657.537 -0.067234084   -17.036218 -0.041707817    3575.3928    1489.7847    1047.3143    884.66125    28.378778    18.848448    14.338152 0.00036182629 0.00036034654  0.044485383  0.044479623    292.77874     41.49527    35.978931    34.423473    90.016431    119.66323    90.107069    375.28467    217.09577    28.378874    18.849145    14.340637    28.378975    18.846963     14.33895 
  800000    296.06943    1.2509986    3565.3364            0            0            0            0    877.08238    44657.537 -0.067234084   -17.036218 -0.041707817    3565.3364    1419.4841    1052.2944    934.71207    28.378215    18.846725    14.336264 0.00037063861 0.00036881609   0.04287128  0.042863103    296.06943     41.49527    35.978931    34.423473    90.016431    119.66323    90.107069    361.66788    222.38317    28.378788     18.84795     14.33932    28.377697     18.84454    14.335583 
  810000    300.51513    1.2509986    3562.8041            0            0            0            0   -271.35803    44657.537 -0.067234084   -17.036218 -0.041707817    3562.8041    1475.9557    998.54545     927.0037    28.376186    18.846677    14.338006 0.00034826023 0.00034658317  0.043552094  0.043534721    300.51513     41.49527    35.978931    34.423473    90.016431    119.66323    90.107069    367.41132    208.95614    28.379595    18.847753    14.339937    28.375721    18.846214    14.336966 
  820000    301.08129    1.2509986    3548.9309            0            0            0            0    812.99649    44657.537 -0.067234084   -17.036218 -0.041707817    3548.9309    1430.3045    1073.4071    892.58839    28.381483    18.848207    14.335922 0.00036757967 0.00036676502  0.043880253  0.043866989    301.08129     41.49527    35.978931    34.423473    90.016431    119.66323    90.107069    370.17972     220.5478    28.378913    18.849642    14.339571    28.382686     18.84761    14.336598 
  830000    295.44044    1.2509986    3564.4685            0            0            0            0      1212.64    44657.537 -0.067234084   -17.036218 -0.041707817    3564.4685    1460.4387    1030.1163    918.83502    28.378406    18.850479    14.336576 0.0003425406 0.00034179865  0.041672199  0.041657002    295.44044     41.49527    35.978931    34.423473    90.016431    119.66323    90.107069    351.55227    205.52436    28.379512    18.849405    14.338872    28.378375    18.848822    14.335876 
  840000    290.22821    1.2509986    3579.1132            0            0            0            0    1051.4397    44657.537 -0.067234084   -17.036218 -0.041707817    3579.1132     1459.593    1050.6217    909.22495    28.380807    18.849416    14.336503 0.0003335124 0.00033157217  0.048165193  0.048147195    290.22821     41.49527    35.978931    34.423473    90.016431    119.66323    90.107069    406.32804    200.10744    28.378777    18.849973    14.338998    28.381703    18.849265    14.337038 
  850000    302.57126    1.2509986    3460.4907            0            0            0            0   -4.8794169    44657.537 -0.067234084   -17.036218 -0.041707817    3460.4907    1420.3539    956.27821    920.43825    28.380787    18.849165    14.336659 0.00036964566 0.00036815851  0.046121411  0.046106849    302.57126     41.49527    35.978931    34.423473    90.016431    119.66323    90.107069    389.08643    221.78739    28.379108    18.848651    14.340713    28.380343     18.84915    14.336388 
  860000    295.06433    1.2509986      3422.49            0            0            0            0   -2127.7985    44657.537 -0.067234084   -17.036218 -0.041707817      3422.49    1395.5649     989.1572    883.96762    28.376652    18.845167    14.331191 0.00036716092 0.00036694417  0.046248993  0.046196306    295.06433     41.49527    35.978931    34.423473    90.016431    119.66323    90.107069    390.16272    220.29655    28.379546    18.848626    14.339897    28.377803    18.844372    14.330377 
  870000    300.49534    1.2509986    3490.9455            0            0            0            0    254.86412    44657.537 -0.067234084   -17.036218 -0.041707817    3490.9455    1416.6834    1001.3844    917.03551    28.378729    18.844277    14.336601 0.00042094945 0.00042012543  0.045101055  0.045096071    300.49534     41.49527    35.978931    34.423473    90.016431    119.66323    90.107069    380.47856    252.56967    28.380224    18.848491    14.339963    28.378379    18.843811    14.336863 
  880000    295.48742    1.2509986    3486.1813            0            0            0            0    2227.0032    44657.537 -0.067234084   -17.036218 -0.041707817    3486.1813    1464.5342    970.92304    896.33562    28.380798    18.846866    14.339994 0.00035428656 0.00035386088   0.04544679  0.045421269    295.48742     41.49527    35.978931    34.423473    90.016431    119.66323    90.107069    383.39523    212.57194    28.379843     18.84907    14.339055    28.383464    18.847188    14.340305 
  890000    302.60147    1.2509986    3555.7536            0            0            0            0    2846.7914    44657.537 -0.067234084   -17.036218 -0.041707817    3555.7536    1450.0406    1033.7391    909.70213    28.378368    18.847376    14.336002 0.00037731844 0.0003769803  0.047076834  0.047074066    302.60147     41.49527    35.978931    34.423473    90.016431    119.66323    90.107069     397.1465    226.39106    28.379891    18.849267     14.34004    28.379579    18.846391    14.335895 
  900000    295.11751    1.2509986     3510.546            0            0            0            0    1121.8047    44657.537 -0.067234084   -17.036218 -0.041707817     3510.546    1408.4122    1009.0331     930.5926    28.382488     18.84931    14.336633 0.00033636877 0.00033393785   0.04388014  0.043842207    295.11751     41.49527    35.978931    34.423473    90.016431    119.66323    90.107069    370.17876    201.82126    28.380365    18.850183    14.340277    28.381469    18.851202    14.335721 
  910000    293.64167    1.2509986    3523.5047            0            0            0            0    1471.0061    44657.537 -0.067234084   -17.036218 -0.041707817    3523.5047    1436.6056    999.13035    929.54133    28.378292    18.847922    14.337143 0.00032027299 0.00031895402  0.047386488  0.047363887    293.64167     41.49527    35.978931    34.423473    90.016431    119.66323    90.107069    399.75878    192.16379    28.379489    18.849703    14.340554    28.376052    18.848363    14.336925 
  920000    299.94682    1.2509986    3476.2003            0            0            0            0   -901.96584    44657.537 -0.067234084   -17.036218 -0.041707817    3476.2003    1401.6345    1016.2097    904.27153    28.378813    18.846304    14.333382 0.00033883204 0.00033851691  0.046492635  0.046470725    299.94682     41.49527    35.978931    34.423473    90.016431    119.66323    90.107069    392.21812    203.29922    28.379594    18.848509    14.339394    28.379792    18.845193    14.332592 
  930000    299.57132    1.2509986    3508.4547            0            0            0            0    530.52969    44657.537 -0.067234084   -17.036218 -0.041707817    3508.4547    1467.1746    975.13392    910.16612    28.377009    18.845303    14.339343 0.00035961957 0.00035623207  0.044173578  0.044159077    299.57132     41.49527    35.978931    34.423473    90.016431    119.66323    90.107069    372.65424    215.77174    28.378097    18.848345    14.340538     28.37969    18.844107    14.340816 
  940000     296.7205    1.2509986     3485.187            0            0            0            0   -97.091148    44657.537 -0.067234084   -17.036218 -0.041707817     3485.187    1445.2995    985.55384    904.44143    28.380657    18.848994    14.339477 0.00039167331 0.00039012935  0.045692587  0.045685907     296.7205     41.49527    35.978931    34.423473    90.016431    119.66323    90.107069    385.46881    235.00398    28.379027    18.849626    14.338696    28.380196    18.847178     14.33917 
  950000     299.7437    1.2509986    3523.9896            0            0            0            0    756.19363    44657.537 -0.067234084   -17.036218 -0.041707817    3523.9896    1435.5786    1005.5042    924.35632    28.381129      18.8492    14.337138 0.00037053223 0.00036813056  0.043879582  0.043854052     299.7437     41.49527    35.978931    34.423473    90.016431    119.66323    90.107069    370.17405    222.31934    28.379449    18.848424    14.341068    28.381062    18.850353    14.336855 
  960000    298.02508    1.2509986    3537.8191            0            0            0            0   -2659.2528    44657.537 -0.067234084   -17.036218 -0.041707817    3537.8191    1456.9622    986.29285    935.05725    28.381561    18.844374    14.338825 0.00033022856 0.00032717904  0.046477861  0.046467206    298.02508     41.49527    35.978931    34.423473    90.016431    119.66323    90.107069    392.09349    198.13714    28.380534    18.847774     14.33889    28.382241    18.844635    14.339277 
  970000    300.15042    1.2509986    3585.0352            0            0            0            0   -102.89638    44657.537 -0.067234084   -17.036218 -0.041707817    3585.0352    1484.5578    1035.9253    908.17944     28.38302    18.849521    14.337339 0.00036202068 0.00036160123  0.045617766  0.045587477    300.15042     41.49527    35.978931    34.423473    90.016431    119.66323    90.107069     384.8376    217.21241     28.37974    18.848506    14.339997    28.384144    18.848826    14.336725 
  980000    297.64195    1.2509986    3572.1495            0            0            0            0   -201.04073    44657.537 -0.067234084   -17.036218 -0.041707817    3572.1495     1469.705    1036.4844    909.51399     28.38033    18.846996    14.337277 0.00038775745 0.00038737432  0.045346534  0.045345368    297.64195     41.49527    35.978931    34.423473    90.016431    119.66323    90.107069    382.54946    232.65447    28.379054    18.848657    14.339697    28.379054    18.845469    14.336495 
  990000    299.95869    1.2509986     3462.141            0            0            0            0    384.23749    44657.537 -0.067234084   -17.036218 -0.041707817     3462.141    1433.0277    995.95516    884.22128    28.381402    18.848975    14.340128 0.00034310803 0.00034065729  0.045460076  0.045440373    299.95869     41.49527    35.978931    34.423473    90.016431    119.66323    90.107069    383.50731    205.86482    28.379372    18.850565    14.339721    28.381227     18.84906    14.339465 
 1000000    299.02042    1.2509986    3527.6218            0            0            0            0   -331.77313    44657.537 -0.067234084   -17.036218 -0.041707817    3527.6218    1419.1007    1046.9949    901.56823    28.377689    18.847646    14.337731 0.00034486848 0.00034460804  0.044342553  0.044331975    299.02042     41.49527    35.978931    34.423473    90.016431    119.66323    90.107069    374.07973    206.92109    28.379106    18.849167    14.339455    28.379253    18.848575    14.338072 
 1010000    290.97167    1.2509986    3477.8624            0            0            0            0   -184.77668    44657.537 -0.067234084   -17.036218 -0.041707817    3477.8624    1431.8955    1021.5793    875.04273    28.376192    18.847599    14.336055 0.00034429211 0.00034272455    0.0442113  0.044203125    290.97167     41.49527    35.978931    34.423473    90.016431    119.66323    90.107069    372.97247    206.57527    28.380122    18.849367    14.340698    28.378471    18.847874    14.336478 
 1020000    302.35655    1.2509986    3537.4622            0            0            0            0    343.79458    44657.537 -0.067234084   -17.036218 -0.041707817    3537.4622    1441.3181    1006.3235    930.01489    28.380195    18.846869    14.337577 0.00037022316 0.00036896623  0.045201662  0.045199112    302.35655     41.49527    35.978931    34.423473    90.016431    119.66323    90.107069     381.3273    222.13389    28.379372    18.848199    14.340387    28.378662    18.846301    14.336527 
 1030000    303.08554    1.2509986    3617.4358            0            0            0            0    789.45841    44657.537 -0.067234084   -17.036218 -0.041707817    3617.4358    1477.8291    1019.4719    953.73809    28.382237    18.846885    14.339945 0.00035101516 0.00035026494  0.048147939   0.04813303    303.08554     41.49527    35.978931    34.423473    90.016431    119.66323    90.107069    406.18248     210.6091    28.378703     18.84897    14.339497    28.382651    18.846608    14.339624 
 1040000    292.68984    1.2509986    3580.9633            0            0            0            0   -187.99919    44657.537 -0.067234084   -17.036218 -0.041707817    3580.9633    1456.2824    1028.1916    934.86677    28.374439    18.847259    14.335869 0.0003428168 0.00034256162  0.047711804  0.047665284    292.68984     41.49527    35.978931    34.423473    90.016431    119.66323    90.107069    402.50319    205.69008    28.379243    18.848808    14.339299    28.373222     18.84617    14.335647 
 1050000    296.94638    1.2509986    3502.2793            0            0            0            0   -19.066342    44657.537 -0.067234084   -17.036218 -0.041707817    3502.2793    1426.3523    1003.8312    915.39445    28.381255    18.845611    14.338437 0.00034638469 0.00034541663  0.047808757  0.047808246    296.94638     41.49527    35.978931    34.423473    90.016431    119.66323    90.107069     403.3211    207.83081    28.378611    18.849028    14.339366    28.380012    18.846158    14.337331 
 1060000     299.7502    1.2509986    3489.4877            0            0            0            0   -604.55567    44657.537 -0.067234084   -17.036218 -0.041707817    3489.4877    1444.4692    978.85411    912.86307    28.377356    18.846279    14.334316 0.00038592775 0.00038467876  0.046355445  0.046339888     299.7502     41.49527    35.978931    34.423473    90.016431    119.66323    90.107069    391.06076    231.55665    28.379332    18.849732    14.338812     28.37813    18.844327    14.333886 
 1070000    300.02379    1.2509986    3571.0621            0            0            0            0    68.136012    44657.537 -0.067234084   -17.036218 -0.041707817    3571.0621    1482.0841    1026.3151    906.34792    28.380359    18.846757    14.336747 0.00035279248 0.00035199691  0.041147509  0.041142634    300.02379     41.49527    35.978931    34.423473    90.016431    119.66323    90.107069    347.12591    211.67549    28.378961    18.848525    14.340089    28.380062    18.846756    14.335484 
 1080000    301.82751    1.2509986    3583.5551            0            0            0            0   -257.88162    44657.537 -0.067234084   -17.036218 -0.041707817    3583.5551    1486.8862    1022.5648    919.57565    28.377099    18.849067    14.337067 0.0003685967 0.0003666663  0.046262937  0.046238734    301.82751     41.49527    35.978931    34.423473    90.016431    119.66323    90.107069    390.28036    221.15802    28.378916    18.850119    14.339093    28.378856    18.850298    14.337412 
 1090000    300.20681    1.2509986    3582.5961            0            0            0            0   -719.52258    44657.537 -0.067234084   -17.036218 -0.041707817    3582.5961    1476.6704    1039.3773    909.72077    28.378231     18.84629    14.337177 0.00035700435 0.00035567483  0.046005943  0.045995217    300.20681     41.49527    35.978931    34.423473    90.016431    119.66323    90.107069    388.11232    214.20261    28.379178    18.848427     14.33872    28.377112    18.846515     14.33573 
 1100000    297.15476    1.2509986    3604.3701            0            0            0            0   -506.28588    44657.537 -0.067234084   -17.036218 -0.041707817    3604.3701    1480.8881    1044.3069    924.66254    28.377466    18.845978    14.337179 0.00035613285 0.00035422995     0.046107  0.046100942    297.15476     41.49527    35.978931    34.423473    90.016431    119.66323    90.107069    388.96485    213.67971    28.380175    18.847781    14.339698     28.37754    18.846394    14.337485 
 1110000    299.72848    1.2509986    3626.0751            0            0            0            0   -1373.2456    44657.537 -0.067234084   -17.036218 -0.041707817    3626.0751    1471.1435    1047.7385    946.23068    28.381148    18.847976    14.340511 0.00036033892 0.00035832895  0.044779956  0.044756599    299.72848     41.49527    35.978931    34.423473    90.016431    119.66323    90.107069    377.76972    216.20335    28.378208    18.848585    14.339736    28.379411    18.848819     14.34073 
 1120000    305.78985    1.2509986    3495.1161            0            0            0            0    795.69846    44657.537 -0.067234084   -17.036218 -0.041707817    3495.1161    1442.8887    989.23796    906.36375    28.378397    18.848601    14.337106 0.00035036626 0.0003488957  0.042128741  0.042109147    305.78985     41.49527    35.978931    34.423473    90.016431    119.66323    90.107069    355.40372    210.21975    28.379719    18.848186    14.338766    28.376133    18.847801    14.336462 
 1130000     299.4212    1.2509986    3540.3496            0            0            0            0    807.67131    44657.537 -0.067234084   -17.036218 -0.041707817    3540.3496    1456.2893      1016.87    912.28368    28.379909    18.849798    14.338339 0.00033247623 0.00033187673  0.045686057  0.045674677     299.4212     41.49527    35.978931    34.423473    90.016431    119.66323    90.107069    385.41372    199.48574    28.380305    18.848993    14.339836    28.377907    18.848184    14.337905 
 1140000    291.45077    1.2509986    3539.6497            0            0            0            0    933.63526    44657.537 -0.067234084   -17.036218 -0.041707817    3539.6497    1465.3609    1030.2609    892.93741    28.380442     18.84999    14.335949 0.00037278598 0.00037229693  0.045243042  0.045213617    291.45077     41.49527    35.978931    34.423473    90.016431    119.66323    90.107069    381.67638    223.67159    28.380037     18.84951    14.339532    28.381304    18.850595    14.336275 
 1150000    292.30509    1.2509986    3525.6024            0            0            0            0    456.81772    44657.537 -0.067234084   -17.036218 -0.041707817    3525.6024    1482.9472    976.02193    915.84361    28.378275    18.850008    14.338213 0.00034999661 0.00034781242  0.045302997  0.045287243    292.30509     41.49527    35.978931    34.423473    90.016431    119.66323    90.107069    382.18217    209.99797    28.380164    18.848832    14.340973    28.379544    18.849406    14.337737 
 1160000    297.17894    1.2509986    3489.5789            0            0            0            0    1233.0782    44657.537 -0.067234084   -17.036218 -0.041707817    3489.5789    1437.0043     981.9747    906.78989     28.38263    18.848083    14.334758 0.00035596984 0.00035564021  0.044166804  0.044129332    297.17894     41.49527    35.978931    34.423473    90.016431    119.66323    90.107069     372.5971     213.5819     28.38006    18.849184    14.339853    28.383588    18.847957    14.333136 
 1170000    299.48907    1.2509986    3569.7158            0            0            0            0    59.685983    44657.537 -0.067234084   -17.036218 -0.041707817    3569.7158     1469.319    1037.7549     906.1757    28.379014     18.84903     14.33754 0.00035242924 0.00035176459  0.044282938  0.044263035    299.48907     41.49527    35.978931    34.423473    90.016431    119.66323    90.107069    373.57682    211.45755    28.379742    18.849141    14.340422    28.377698    18.849392    14.336962 
 1180000    298.44324    1.2509986    3561.0183            0            0            0            0   -469.33533    44657.537 -0.067234084   -17.036218 -0.041707817    3561.0183     1463.487    1026.9106    913.93927    28.380536    18.847608    14.336406 0.00034241506 0.00034210797  0.042350936  0.042347233    298.44324     41.49527    35.978931    34.423473    90.016431    119.66323    90.107069    357.27818    205.44903    28.379158     18.84891    14.339267    28.381123     18.84679    14.336761 
 1190000    296.16062    1.2509986    3554.3796            0            0            0            0    1894.3392    44657.537 -0.067234084   -17.036218 -0.041707817    3554.3796    1478.4188    1007.5854    909.17572    28.380077    18.846828    14.337895  0.000361364 0.00035729944  0.042680927  0.042675561    296.16062     41.49527    35.978931    34.423473    90.016431    119.66323    90.107069    360.06203     216.8184    28.380248    18.847538    14.338451    28.381514    18.846265    14.338623 
 1200000    305.89809    1.2509986    3497.0724            0            0            0            0    1038.9743    44657.537 -0.067234084   -17.036218 -0.041707817    3497.0724    1434.1894     1040.939    866.87187    28.378612    18.849046    14.333974 0.00035483834 0.00035363816  0.043020551  0.042992306    305.89809     41.49527    35.978931    34.423473    90.016431    119.66323    90.107069    362.92715      212.903    28.379512    18.849472    14.338644    28.377035    18.847645    14.333287 
 1210000    294.80191    1.2509986     3533.654            0            0            0            0   -1025.8218    44657.537 -0.067234084   -17.036218 -0.041707817     3533.654    1467.0927    1005.2906     898.5896     28.37959    18.848585    14.340654 0.00036539153 0.00036509229  0.045529529  0.045509478    294.80191     41.49527    35.978931    34.423473    90.016431    119.66323    90.107069    384.09323    219.23492    28.379504    18.849377    14.340043    28.379162    18.848111    14.340825 
 1220000    302.16026    1.2509986    3564.3581            0            0            0            0   -761.52542    44657.537 -0.067234084   -17.036218 -0.041707817    3564.3581    1511.6389     1011.138    888.95069    28.376133    18.847995    14.336548 0.00034818729 0.00034612008  0.048239753  0.048219729    302.16026     41.49527    35.978931    34.423473    90.016431    119.66323    90.107069    406.95704    208.91238    28.379174    18.849984    14.340627     28.37622    18.847645    14.335712 
 1230000    297.43617    1.2509986    3573.6079            0            0            0            0    228.49339    44657.537 -0.067234084   -17.036218 -0.041707817    3573.6079    1491.0911    998.06509    920.58955    28.378206     18.85082    14.337009  0.000325584 0.00032503386  0.045233576  0.045214502    297.43617     41.49527    35.978931    34.423473    90.016431    119.66323    90.107069    381.59653     195.3504    28.380193     18.84935    14.339459    28.380311    18.849745    14.338031 
 1240000    297.06682    1.2509986    3485.3358            0            0            0            0    1271.1855    44657.537 -0.067234084   -17.036218 -0.041707817    3485.3358    1432.7262    978.69962    911.66347    28.377273    18.847209      14.3341 0.00033556429 0.00033536098  0.045218569  0.045194789    297.06682     41.49527    35.978931    34.423473    90.016431    119.66323    90.107069    381.46992    201.33857    28.379205    18.848733    14.339676    28.376761    18.847756     14.33422 
 1250000    295.08764    1.2509986    3510.4804            0            0            0            0    51.116921    44657.537 -0.067234084   -17.036218 -0.041707817    3510.4804     1415.987    1031.0214    902.84433    28.383908    18.846511    14.338592 0.0004015453 0.00040087178   0.04319807  0.043186366    295.08764     41.49527    35.978931    34.423473    90.016431    119.66323    90.107069    364.42472    240.92718    28.379495    18.848669    14.338896    28.382483    18.847205     14.33852 
 1260000    301.06526    1.2509986    3567.8698            0            0            0            0   -1225.1871    44657.537 -0.067234084   -17.036218 -0.041707817    3567.8698     1514.678    987.30102    910.98705    28.379708    18.848343    14.339263 0.00035892987 0.0003544554  0.047152612  0.047142265    301.06526     41.49527    35.978931    34.423473    90.016431    119.66323    90.107069    397.78577    215.35792    28.380518    18.848737    14.337774    28.379568    18.847497    14.339753 
 1270000     302.7532    1.2509986    3515.7447            0            0            0            0    2496.6735    44657.537 -0.067234084   -17.036218 -0.041707817    3515.7447     1446.711    1018.9185    898.85783    28.381165     18.84732    14.337297 0.00033064445 0.00032804688  0.045348811  0.045346041     302.7532     41.49527    35.978931    34.423473    90.016431    119.66323    90.107069    382.56867    198.38667    28.380648    18.849923    14.338877    28.380732    18.846388    14.336221 
 1280000     302.4571    1.2509986    3462.3507            0            0            0            0   -885.08332    44657.537 -0.067234084   -17.036218 -0.041707817    3462.3507    1399.0246    1022.8018    891.97831    28.377942    18.845639    14.336878 0.00038476881 0.00038187954  0.046826274  0.046821652     302.4571     41.49527    35.978931    34.423473    90.016431    119.66323    90.107069    395.03274    230.86129    28.381222    18.849081    14.339303    28.378779    18.847309    14.336829 
 1290000    293.31333    1.2509986    3567.9036            0            0            0            0    689.77226    44657.537 -0.067234084   -17.036218 -0.041707817    3567.9036    1482.9091    998.61061    926.62553    28.380897    18.845366    14.335183 0.00036129246 0.00035785453  0.047113746  0.047105719    293.31333     41.49527    35.978931    34.423473    90.016431    119.66323    90.107069    397.45789    216.77548    28.379521    18.847811    14.338226    28.379508    18.845117     14.33447 
 1300000    292.63427    1.2509986    3536.0329            0            0            0            0    580.09941    44657.537 -0.067234084   -17.036218 -0.041707817    3536.0329    1436.2204    1005.2581    934.23404    28.384894    18.848557    14.340136 0.00034015219 0.00033967865  0.045690312  0.045645535    292.63427     41.49527    35.978931    34.423473    90.016431    119.66323    90.107069    385.44961    204.09132    28.380231    18.848883    14.339599    28.384059    18.849324    14.340717 
 1310000    304.39216    1.2509986     3486.584            0            0            0            0   -566.57481    44657.537 -0.067234084   -17.036218 -0.041707817     3486.584    1441.3898    1000.7767    895.11545    28.381653    18.846698    14.338987 0.00037914501 0.00037810269  0.043570941  0.043542301    304.39216     41.49527    35.978931    34.423473    90.016431    119.66323    90.107069    367.57031      227.487    28.379484    18.848091    14.339205    28.384191    18.847046    14.339908 
 1320000    300.66609    1.2509986    3528.0108            0            0            0            0    1467.5661    44657.537 -0.067234084   -17.036218 -0.041707817    3528.0108    1441.8948    1001.8359    922.92841    28.382542    18.850962    14.340089 0.00034814383 0.00034567154  0.046410856  0.046369077    300.66609     41.49527    35.978931    34.423473    90.016431    119.66323    90.107069    391.52822     208.8863    28.378796    18.847662    14.339902    28.381817    18.851106    14.339722 
 1330000    299.50402    1.2509986    3570.8444            0            0            0            0   -145.56413    44657.537 -0.067234084   -17.036218 -0.041707817    3570.8444    1457.0003    1040.3394     912.3468    28.374941    18.851852    14.334302 0.00036573172 0.00036438741  0.044155347  0.044106087    299.50402     41.49527    35.978931    34.423473    90.016431    119.66323    90.107069    372.50044    219.43903    28.378701    18.848253    14.339448     28.37713    18.851412    14.334653 
 1340000     298.2293    1.2509986     3564.237            0            0            0            0   -77.885355    44657.537 -0.067234084   -17.036218 -0.041707817     3564.237    1464.4645    1021.1424    924.29812    28.378498    18.846628    14.337345 0.00037432971 0.00037346625  0.048037305  0.048011559     298.2293     41.49527    35.978931    34.423473    90.016431    119.66323    90.107069    405.24916    224.59782    28.378674     18.84884    14.339874     28.37555    18.848148    14.336603 
 1350000    298.38036    1.2509986    3471.3431            0            0            0            0    287.32335    44657.537 -0.067234084   -17.036218 -0.041707817    3471.3431    1432.8489    1006.0649    879.11754     28.38029    18.848123    14.335647 0.00035142885 0.00035058064  0.044065546  0.044054347    298.38036     41.49527    35.978931    34.423473    90.016431    119.66323    90.107069    371.74287    210.85731    28.380096     18.84876     14.34034    28.380571    18.847885    14.335071 
 1360000    292.75282    1.2509986    3572.3658            0            0            0            0    189.14181    44657.537 -0.067234084   -17.036218 -0.041707817    3572.3658    1482.2691    1005.7536    925.25407    28.381542     18.85122    14.338698 0.0003969134 0.0003961335  0.044619563  0.044593054    292.75282     41.49527    35.978931    34.423473    90.016431    119.66323    90.107069    376.41663    238.14804    28.380177    18.849548    14.339968    28.382721    18.849514    14.338579 
 1370000    300.65656    1.2509986    3560.0788            0            0            0            0    1774.5519    44657.537 -0.067234084   -17.036218 -0.041707817    3560.0788    1450.1773    1046.4099    910.36966    28.379673    18.847857    14.336356 0.0003665785 0.00036548007  0.044294657  0.044285063    300.65656     41.49527    35.978931    34.423473    90.016431    119.66323    90.107069    373.67568     219.9471    28.380329    18.849003    14.340347    28.378266    18.847572     14.33559 
 1380000    293.37085    1.2509986    3559.9444            0            0            0            0    1407.2141    44657.537 -0.067234084   -17.036218 -0.041707817    3559.9444    1461.6924    1013.6085    927.31291     28.38224    18.850206    14.342192 0.00038243402 0.0003764195  0.046707104  0.046640299    293.37085     41.49527    35.978931    34.423473    90.016431    119.66323    90.107069     394.0274    229.46041    28.379695    18.849973    14.341891    28.382809    18.850724    14.342766 
 1390000    302.11539    1.2509986    3581.8394            0            0            0            0    754.35598    44657.537 -0.067234084   -17.036218 -0.041707817    3581.8394    1497.8128    1016.6144    912.43588    28.385512    18.849976    14.340871 0.00034071608 0.00034037835  0.046406585  0.046324444    302.11539     41.49527    35.978931    34.423473    90.016431    119.66323    90.107069    391.49219    204.42965    28.379036    18.849077    14.339888    28.386022    18.850608    14.341414 
 1400000    298.82073    1.2509986    3518.6908            0            0            0            0    256.76452    44657.537 -0.067234084   -17.036218 -0.041707817    3518.6908    1497.9525    999.66564    872.80935    28.376295    18.844295    14.335228 0.00039846363 0.00039761857  0.044922985  0.044899666    298.82073     41.49527    35.978931    34.423473    90.016431    119.66323    90.107069    378.97634    239.07818    28.379041    18.849719    14.339353    28.375828    18.844097    14.334909 
 1410000    308.88808    1.2509986    3482.9149            0            0            0            0    372.96905    44657.537 -0.067234084   -17.036218 -0.041707817    3482.9149    1439.3438    971.02664    913.56492    28.381485    18.848087    14.338047 0.00035375325 0.00035172597  0.043362217  0.043340635    308.88808     41.49527    35.978931    34.423473    90.016431    119.66323    90.107069    365.80949    212.25195    28.378364    18.848379    14.339187    28.382549    18.849075    14.338326 
 1420000    299.93864    1.2509986    3568.4506            0            0            0            0   -424.54604    44657.537 -0.067234084   -17.036218 -0.041707817    3568.4506    1471.9451    1021.3079    918.15663    28.380635    18.849754    14.338222 0.00033086211 0.00033034433  0.046004083  0.045981163    299.93864     41.49527    35.978931    34.423473    90.016431    119.66323    90.107069    388.09662    198.51727    28.379562    18.848397     14.34001     28.38053     18.85001    14.338616 
 1430000    300.40949    1.2509986    3516.4206            0            0            0            0    1735.6869    44657.537 -0.067234084   -17.036218 -0.041707817    3516.4206    1443.3448    1005.3006    906.12657    28.380217    18.846337    14.336035 0.00034994458 0.00034955937  0.044175373  0.044171837    300.40949     41.49527    35.978931    34.423473    90.016431    119.66323    90.107069    372.66938    209.96675    28.379897    18.848804    14.340113    28.381523    18.845673    14.336511 
 1440000    302.21138    1.2509986    3595.0381            0            0            0            0    1049.0107    44657.537 -0.067234084   -17.036218 -0.041707817    3595.0381    1469.8118    1040.3007    931.35338    28.381357    18.847485    14.336576 0.00034092295 0.00033980383  0.044740679  0.044733778    302.21138     41.49527    35.978931    34.423473    90.016431    119.66323    90.107069    377.43838    204.55377    28.379559    18.849614    14.338768    28.380879    18.847537    14.336036 
 1450000    299.75368    1.2509986    3499.8649            0            0            0            0    1415.4353    44657.537 -0.067234084   -17.036218 -0.041707817    3499.8649    1422.2996     999.5735    922.64622    28.379309    18.849796    14.341157 0.00031628145 0.00031518337  0.046175698   0.04611373    299.75368     41.49527    35.978931    34.423473    90.016431    119.66323    90.107069    389.54439    189.76887     28.37909    18.849923    14.339411    28.379518    18.851998     14.34166 
 1460000    299.80788    1.2509986    3473.3688            0            0            0            0    1007.7526    44657.537 -0.067234084   -17.036218 -0.041707817    3473.3688     1431.893    1011.2864    877.87551    28.382234    18.848187    14.340109 0.00039353854 0.00039015929  0.043280703  0.043260294    299.80788     41.49527    35.978931    34.423473    90.016431    119.66323    90.107069    365.12183    236.12313     28.37817    18.848912    14.338435    28.383117    18.847992     14.33904 
 1470000    300.31038    1.2509986    3606.1831            0            0            0            0    1014.3693    44657.537 -0.067234084   -17.036218 -0.041707817    3606.1831    1479.9045    1018.7795    948.50333     28.38081    18.845769    14.340671 0.00038889643 0.00038740718  0.048434576  0.048427136    300.31038     41.49527    35.978931    34.423473    90.016431    119.66323    90.107069    408.60059    233.33786    28.378814     18.84821     14.34018    28.378224    18.845739    14.339466 
 1480000    294.87245    1.2509986    3484.6836            0            0            0            0    1126.5429    44657.537 -0.067234084   -17.036218 -0.041707817    3484.6836     1406.189    1002.7153    916.90191    28.382669    18.846488    14.337363 0.00037326074 0.00037317085  0.043468984  0.043461835    294.87245     41.49527    35.978931    34.423473    90.016431    119.66323    90.107069    366.71019    223.95645     28.37954    18.849132    14.339364    28.382418    18.846012       14.337 
 1490000    300.50495    1.2509986    3493.2627            0            0            0            0   -531.84383    44657.537 -0.067234084   -17.036218 -0.041707817    3493.2627    1445.5193    969.93706    919.75739     28.37934    18.845696    14.339049 0.00038449981 0.00038418023   0.04571299  0.045704821    300.50495     41.49527    35.978931    34.423473    90.016431    119.66323    90.107069    385.64093    230.69988    28.379085    18.848838    14.339381    28.380367    18.847006    14.339613 
 1500000    296.89374    1.2509986    3567.9812            0            0            0            0     1181.449    44657.537 -0.067234084   -17.036218 -0.041707817    3567.9812    1454.6237    1063.5228    892.84857    28.379886    18.847211    14.336832 0.00035852412 0.00035761323  0.043263665  0.043251629    296.89374     41.49527    35.978931    34.423473    90.016431    119.66323    90.107069     364.9781    215.11447     28.37944    18.848515    14.338832    28.377418    18.847381     14.33563 
 1510000    300.30634    1.2509986    3466.7435            0            0            0            0    601.50812    44657.537 -0.067234084   -17.036218 -0.041707817    3466.7435    1426.7652     976.7609    911.97707    28.380523    18.850707    14.336535 0.00035410173 0.00035308202  0.044451338  0.044401901    300.30634     41.49527    35.978931    34.423473    90.016431    119.66323    90.107069    374.99746    212.46104    28.379613    18.849563    14.338793    28.378292    18.852279    14.336354 
 1520000    289.18558    1.2509986    3497.0285            0            0            0            0    59.016571    44657.537 -0.067234084   -17.036218 -0.041707817    3497.0285    1462.8534    1005.7577    878.62613    28.377529    18.847036    14.336347 0.00035936699 0.00035812544  0.043961104  0.043949175    289.18558     41.49527    35.978931    34.423473    90.016431    119.66323    90.107069    370.86178    215.62019    28.380204    18.849469    14.338854    28.376893    18.846559    14.335771 
[...]
 1630000    295.41458    1.2509986    3479.6204            0            0            0            0    11.093173    44657.537 -0.067234084   -17.036218 -0.041707817    3479.6204    1430.3092    1006.3328    889.43663    28.377991    18.850983    14.335387 0.00040378589 0.00040288666  0.042200078   0.04215435    295.41458     41.49527    35.978931    34.423473    90.016431    119.66323    90.107069    356.00553    242.27153    28.380382    18.848547    14.339608    28.378686    18.851462    14.334331 
 1640000    297.51626    1.2509986    3521.1244            0            0            0            0    318.50747    44657.537 -0.067234084   -17.036218 -0.041707817    3521.1244     1443.002    1014.9043    908.49714    28.382181    18.851553    14.338713 0.00037646592 0.00037426639  0.041531626  0.041486422    297.51626     41.49527    35.978931    34.423473    90.016431    119.66323    90.107069    350.36638    225.87955    28.378901    18.849953    14.340579    28.381475    18.851933    14.338113 
 1650000     299.3956    1.2509986    3542.2115            0            0            0            0   -379.58358    44657.537 -0.067234084   -17.036218 -0.041707817    3542.2115    1481.7633    990.79965    908.31137    28.380476    18.851641    14.335406 0.00033859736 0.00033477313  0.042596641  0.042561358     299.3956     41.49527    35.978931    34.423473    90.016431    119.66323    90.107069    359.35099    203.15842    28.379302    18.848294    14.337837    28.379687    18.850865    14.334772 
 1660000    297.13627    1.2509986    3480.0901            0            0            0            0    1133.4422    44657.537 -0.067234084   -17.036218 -0.041707817    3480.0901    1424.7151    996.79205    904.83824    28.378326    18.844348    14.337672 0.00035104409 0.00035047546  0.043713017  0.043712931    297.13627     41.49527    35.978931    34.423473    90.016431    119.66323    90.107069    368.76889    210.62646    28.379397     18.84852    14.340186     28.38004    18.845376    14.337422 
 1670000    292.53871    1.2509986    3548.7505            0            0            0            0    741.66034    44657.537 -0.067234084   -17.036218 -0.041707817    3548.7505    1462.9011    1016.4016    910.71912    28.375683    18.851752    14.336738 0.00039916109 0.00039580378  0.042499939  0.042415854    292.53871     41.49527    35.978931    34.423473    90.016431    119.66323    90.107069    358.53519    239.49665    28.379121    18.847523    14.340611    28.374742    18.852945    14.335664 
 1680000    297.00599    1.2509986    3532.2411            0            0            0            0    1609.2876    44657.537 -0.067234084   -17.036218 -0.041707817    3532.2411    1438.8507    996.61002    931.80678    28.380261    18.850587    14.336365 0.00033398212 0.00033346484  0.044495244  0.044471493    297.00599     41.49527    35.978931    34.423473    90.016431    119.66323    90.107069    375.36786    200.38927    28.379357    18.849378    14.339052    28.381912    18.849826    14.336633 
 1690000    293.75927    1.2509986    3460.9084            0            0            0            0   -377.43232    44657.537 -0.067234084   -17.036218 -0.041707817    3460.9084    1447.5827    975.75959    889.40325    28.382001    18.847727    14.340213 0.00033591421 0.00033548136  0.044261925  0.044248374    293.75927     41.49527    35.978931    34.423473    90.016431    119.66323    90.107069    373.39955    201.54853    28.379388     18.84914    14.339015    28.381772    18.847687    14.339458 
 1700000    301.97673    1.2509986    3541.7734            0            0            0            0   -379.63501    44657.537 -0.067234084   -17.036218 -0.041707817    3541.7734     1483.403    1010.4866    893.64145    28.378875    18.845026     14.33589 0.00037017336 0.0003689295  0.044973155  0.044967567    301.97673     41.49527    35.978931    34.423473    90.016431    119.66323    90.107069    379.39958    222.10402    28.379382    18.849006     14.34074    28.378313    18.844772    14.335577 
 1710000    294.12839    1.2509986    3510.8781            0            0            0            0    328.53775    44657.537 -0.067234084   -17.036218 -0.041707817    3510.8781     1450.908    1034.8403    878.56695    28.381956    18.848324    14.337791 0.00037711498 0.00037697286  0.044654764  0.044649003    294.12839     41.49527    35.978931    34.423473    90.016431    119.66323    90.107069    376.71359    226.26899     28.37948    18.849002    14.340007    28.381355    18.847309    14.337386 
 1720000    294.86936    1.2509986    3525.4556            0            0            0            0    -1443.573    44657.537 -0.067234084   -17.036218 -0.041707817    3525.4556    1468.4934    1015.9425     885.7604    28.378862    18.846186    14.337441 0.0003953075 0.0003940823   0.04451472  0.044509067    294.86936     41.49527    35.978931    34.423473    90.016431    119.66323    90.107069    375.53216     237.1845    28.379355    18.848025    14.340096    28.382059    18.845728    14.337999 
 1730000    301.56646    1.2509986    3563.8067            0            0            0            0   -497.63983    44657.537 -0.067234084   -17.036218 -0.041707817    3563.8067     1438.613    1062.2369     910.3402    28.381957    18.852482    14.336575 0.00035268754 0.00035225616  0.046001504  0.045957905    301.56646     41.49527    35.978931    34.423473    90.016431    119.66323    90.107069    388.07487    211.61252    28.379374    18.849577    14.339356    28.379977    18.851846    14.335538 
 1740000     304.4743    1.2509986    3488.0075            0            0            0            0     -1024.09    44657.537 -0.067234084   -17.036218 -0.041707817    3488.0075    1469.4011    968.94815    895.29201    28.378264    18.847056    14.339214 0.00036002586 0.00035620627  0.045256783  0.045245583     304.4743     41.49527    35.978931    34.423473    90.016431    119.66323    90.107069     381.7923    216.01552    28.379106    18.848519    14.341475    28.377149    18.845773    14.339269 
 1750000    299.21467    1.2509986    3573.3674            0            0            0            0   -238.40508    44657.537 -0.067234084   -17.036218 -0.041707817    3573.3674    1510.4564    993.81011    913.64369    28.380173    18.848876    14.336676 0.00040181777 0.00039860882  0.046087318  0.046076294    299.21467     41.49527    35.978931    34.423473    90.016431    119.66323    90.107069    388.79881    241.09066    28.378153    18.849875    14.338935    28.379078     18.84852    14.336163 
 1760000    294.14003    1.2509986    3574.7062            0            0            0            0   -10.203643    44657.537 -0.067234084   -17.036218 -0.041707817    3574.7062    1522.1336    1015.1626    884.10565    28.379724    18.846036    14.336771 0.00035671034 0.00035557717  0.044648664  0.044647233    294.14003     41.49527    35.978931    34.423473    90.016431    119.66323    90.107069    376.66213     214.0262    28.379059    18.849858    14.340052    28.380971    18.845267    14.337052 
 1770000    296.38487    1.2509986    3588.8315            0            0            0            0   -111.78546    44657.537 -0.067234084   -17.036218 -0.041707817    3588.8315    1514.6564    1028.2465    887.26421    28.382284    18.847672    14.337687 0.00035834801 0.00035812267  0.046059001  0.046038919    296.38487     41.49527    35.978931    34.423473    90.016431    119.66323    90.107069    388.55993    215.00881    28.379246    18.848665     14.33973    28.384053    18.846695    14.338042 
 1780000    302.03241    1.2509986    3586.3127            0            0            0            0   -1612.7178    44657.537 -0.067234084   -17.036218 -0.041707817    3586.3127    1485.1537    1015.3887    922.32373    28.380105    18.849142    14.337264 0.00038271931 0.00038203718  0.045539567  0.045532381    302.03241     41.49527    35.978931    34.423473    90.016431    119.66323    90.107069     384.1779    229.63158    28.379563    18.849798    14.339383    28.380226    18.848122    14.337212 
 1790000      305.524    1.2509986    3487.1548            0            0            0            0    2585.4622    44657.537 -0.067234084   -17.036218 -0.041707817    3487.1548    1431.7327    971.83801    931.78142    28.379449    18.846672    14.334045 0.00034625943 0.00034616599  0.042366628  0.042354696      305.524     41.49527    35.978931    34.423473    90.016431    119.66323    90.107069    357.41056    207.75566    28.379356    18.849122    14.339842    28.380077    18.846987     14.33417 
 1800000    301.22033    1.2509986    3519.6184            0            0            0            0    798.19804    44657.537 -0.067234084   -17.036218 -0.041707817    3519.6184    1439.7633    994.02794     929.8737    28.381847    18.845503    14.336635 0.00035627439 0.00035596513  0.047674254  0.047671325    301.22033     41.49527    35.978931    34.423473    90.016431    119.66323    90.107069    402.18642    213.76463    28.379151    18.848967    14.339261    28.380037    18.846342    14.335806 
 1810000    302.56663    1.2509986    3580.8372            0            0            0            0     291.0223    44657.537 -0.067234084   -17.036218 -0.041707817    3580.8372    1486.7266    1019.6638    918.84265    28.378324    18.847133    14.336233 0.00034977972 0.00034974547  0.045602281  0.045600391    302.56663     41.49527    35.978931    34.423473    90.016431    119.66323    90.107069    384.70697    209.86783    28.379535    18.849129    14.339781    28.379849    18.846547    14.336405 
 1820000     302.9198    1.2509986    3481.1201            0            0            0            0    869.55263    44657.537 -0.067234084   -17.036218 -0.041707817    3481.1201    1456.0431    992.55899    884.18365    28.379599    18.848329    14.338383 0.00036658688 0.00036396299  0.046048846  0.046041168     302.9198     41.49527    35.978931    34.423473    90.016431    119.66323    90.107069    388.47425    219.95213    28.380716    18.849115    14.340765    28.380509    18.848153    14.337405 
 1830000    290.11952    1.2509986    3521.4275            0            0            0            0   -1514.2706    44657.537 -0.067234084   -17.036218 -0.041707817    3521.4275    1424.4412    1023.8743     911.9515    28.381096    18.846963    14.336306 0.00039201426 0.00039130863  0.046230609  0.046228666    290.11952     41.49527    35.978931    34.423473    90.016431    119.66323    90.107069    390.00763    235.20856    28.379899    18.848295    14.339909    28.380596     18.84585    14.336175 
 1840000     298.9421    1.2509986     3648.135            0            0            0            0    326.51581    44657.537 -0.067234084   -17.036218 -0.041707817     3648.135    1498.8247    1045.8921     943.5593    28.378994    18.851184    14.337664 0.00035127534 0.00034847055  0.048676733  0.048637482     298.9421     41.49527    35.978931    34.423473    90.016431    119.66323    90.107069    410.64346     210.7652    28.379506    18.849296    14.337988    28.378595    18.851606    14.337672 
 1850000    298.70909    1.2509986    3496.2923            0            0            0            0   -750.07631    44657.537 -0.067234084   -17.036218 -0.041707817    3496.2923    1432.2298    981.62133    923.85707    28.379836    18.847669    14.336766 0.00034227965 0.0003416137  0.047568124  0.047565415    298.70909     41.49527    35.978931    34.423473    90.016431    119.66323    90.107069    401.29109    205.36779    28.378936    18.848607    14.339979    28.380234    18.847057    14.337097 
 1860000    296.97074    1.2509986    3557.3758            0            0            0            0     629.8391    44657.537 -0.067234084   -17.036218 -0.041707817    3557.3758    1430.7563    1022.0183    944.91839    28.380976    18.846808    14.337367 0.00035934938 0.00035695281  0.044429074   0.04442706    296.97074     41.49527    35.978931    34.423473    90.016431    119.66323    90.107069    374.80964    215.60963    28.380875    18.849537    14.339018    28.381112    18.846032     14.33715 
 1870000    297.92801    1.2509986    3518.4312            0            0            0            0     673.9717    44657.537 -0.067234084   -17.036218 -0.041707817    3518.4312     1467.588    1003.3785    894.18142    28.381674    18.844807    14.335471 0.00032304128 0.0003222883  0.042940766  0.042932867    297.92801     41.49527    35.978931    34.423473    90.016431    119.66323    90.107069    362.25407    193.82477    28.379474    18.848254    14.340051    28.380636    18.845581    14.334579 
 1880000    302.43161    1.2509986    3532.9088            0            0            0            0    1529.9133    44657.537 -0.067234084   -17.036218 -0.041707817    3532.9088    1427.6363     1041.267    906.76284    28.379704    18.847283    14.336589 0.00036366581 0.00036350342  0.047598564  0.047590015    302.43161     41.49527    35.978931    34.423473    90.016431    119.66323    90.107069    401.54788    218.19948    28.379915    18.849106    14.339479    28.378959    18.848175    14.336537 
 1890000    294.04035    1.2509986    3611.0208            0            0            0            0   -294.79476    44657.537 -0.067234084   -17.036218 -0.041707817    3611.0208     1480.263    1050.2055     924.2406      28.3809    18.847376    14.339613 0.00033269902 0.00033162434  0.044151562  0.044136543    294.04035     41.49527    35.978931    34.423473    90.016431    119.66323    90.107069    372.46851    199.61941    28.379493     18.84813    14.339098    28.380893    18.847684    14.340259 
 1900000    295.97054    1.2509986     3553.273            0            0            0            0    -1702.756    44657.537 -0.067234084   -17.036218 -0.041707817     3553.273     1447.888    1009.1425    931.27417    28.379508    18.844481     14.33705 0.00036966999 0.00036670207  0.042832259  0.042831564    295.97054     41.49527    35.978931    34.423473    90.016431    119.66323    90.107069    361.33869    221.80199    28.378803    18.847821    14.338648    28.379415    18.844742    14.337302 
 1910000    293.88003    1.2509986    3545.9218            0            0            0            0    19.870809    44657.537 -0.067234084   -17.036218 -0.041707817    3545.9218    1445.0516    1014.6002     927.3995    28.377716    18.849096    14.338427 0.00037360404  0.000373274  0.042876905  0.042854369    293.88003     41.49527    35.978931    34.423473    90.016431    119.66323    90.107069    361.71533    224.16242     28.37973    18.848808    14.340146    28.377331    18.849153    14.338952 
 1920000    293.45316    1.2509986    3573.8988            0            0            0            0    713.40474    44657.537 -0.067234084   -17.036218 -0.041707817    3573.8988     1492.125    1000.0594    923.19012    28.378225    18.851965    14.338922 0.00037383303 0.00037169911  0.047187987  0.047152526    293.45316     41.49527    35.978931    34.423473    90.016431    119.66323    90.107069     398.0842    224.29982    28.380729    18.849618    14.340265    28.378984    18.851175    14.338776 
 1930000    298.72958    1.2509986    3550.9422            0            0            0            0   -79.993216    44657.537 -0.067234084   -17.036218 -0.041707817    3550.9422    1475.1967     1006.774    912.09561    28.379709    18.850564    14.339852 0.00034005998 0.00033980627   0.04463078  0.044587441    298.72958     41.49527    35.978931    34.423473    90.016431    119.66323    90.107069    376.51126    204.03599    28.379766    18.849399    14.339885    28.379723    18.851261    14.340401 
 1940000    299.78748    1.2509986    3511.9809            0            0            0            0    622.23222    44657.537 -0.067234084   -17.036218 -0.041707817    3511.9809    1434.3766    1016.9127    908.37316    28.381652    18.845025    14.339487 0.00036554875 0.00036468748   0.04460717  0.044595498    299.78748     41.49527    35.978931    34.423473    90.016431    119.66323    90.107069    376.31208    219.32925    28.380345      18.8495    14.339693    28.382088     18.84495    14.339758 
 1950000    296.87164    1.2509986    3546.2643            0            0            0            0    154.71549    44657.537 -0.067234084   -17.036218 -0.041707817    3546.2643    1479.9865     997.6701     914.7954     28.37996    18.847524    14.337488 0.00039031844 0.0003882413  0.045675203  0.045672974    296.87164     41.49527    35.978931    34.423473    90.016431    119.66323    90.107069    385.32215    234.19106    28.378715    18.849856     14.34045    28.379718    18.846918    14.337632 
 1960000    300.79773    1.2509986    3506.8326            0            0            0            0    233.93943    44657.537 -0.067234084   -17.036218 -0.041707817    3506.8326    1451.4665    1015.8851    888.32447    28.377578    18.850906    14.336294  0.000352559 0.00035237932  0.044798114  0.044777155    300.79773     41.49527    35.978931    34.423473    90.016431    119.66323    90.107069    377.92291     211.5354    28.379191    18.848805    14.339581    28.380451    18.850005    14.337118 
 1970000    298.57883    1.2509986    3599.4218            0            0            0            0   -1035.4142    44657.537 -0.067234084   -17.036218 -0.041707817    3599.4218    1473.8537    1014.8735    945.71827    28.381066    18.848348    14.338757 0.0003773278 0.00037558814  0.045677922    0.0456592    298.57883     41.49527    35.978931    34.423473    90.016431    119.66323    90.107069    385.34509    226.39668    28.379865    18.850192    14.340144    28.383007    18.847553    14.339312 
 1980000     295.4398    1.2509986    3504.2338            0            0            0            0   -2055.4537    44657.537 -0.067234084   -17.036218 -0.041707817    3504.2338    1437.3376     987.8007    922.60665    28.377675    18.849831    14.340666 0.00037069916 0.00036741087  0.044362077    0.0443309     295.4398     41.49527    35.978931    34.423473    90.016431    119.66323    90.107069    374.24444    222.41949    28.379671    18.849227    14.341435    28.378096    18.849123    14.341126 
 1990000    303.82329    1.2509986    3544.1461            0            0            0            0   -182.81689    44657.537 -0.067234084   -17.036218 -0.041707817    3544.1461    1488.0296    991.98848    910.13337    28.375389    18.846998    14.336779 0.00038025598 0.0003790398  0.047164679  0.047147076    303.82329     41.49527    35.978931    34.423473    90.016431    119.66323    90.107069    397.88757    228.15359    28.378846    18.849211    14.338819    28.376132    18.847487    14.337179 
 2000000    296.99943    1.2509986    3542.5291            0            0            0            0   -1206.1374    44657.537 -0.067234084   -17.036218 -0.041707817    3542.5291    1477.4536    1022.6019    894.53872    28.383506    18.847497    14.339039 0.00040844044 0.00040606716  0.044576828   0.04455629    296.99943     41.49527    35.978931    34.423473    90.016431    119.66323    90.107069    376.05611    245.06426    28.379887    18.848073    14.338463    28.383657    18.847424     14.33866 
Loop time of 3720.41 on 20 procs for 2000000 steps with 4560 atoms

Pair  time (%) = 2723.71 (73.2101)
Bond  time (%) = 343.151 (9.22348)
Neigh time (%) = 71.6927 (1.92701)
Comm  time (%) = 429.634 (11.548)
Outpt time (%) = 0.528961 (0.0142178)
Other time (%) = 151.686 (4.07714)

Nlocal:    228 ave 234 max 220 min
Histogram: 1 1 3 1 3 2 0 4 1 4
Nghost:    5787.05 ave 5843 max 5746 min
Histogram: 1 3 3 3 4 2 0 2 1 1
Neighs:    83676.4 ave 87012 max 80851 min
Histogram: 3 1 2 4 2 2 1 2 2 1

Total # of neighbors = 1673529
Ave neighs/atom = 367.002
Ave special neighs/atom = 10.6316
Neighbor list builds = 14961
Dangerous builds = 0
System init for write_data ...
