LAMMPS data file via write_data, version 15 May 2015, timestep = 1009000

2593 atoms
6 atom types
1728 bonds
4 bond types
864 angles
3 angle types
0 dihedrals
3 dihedral types
0 impropers
1 improper types

-1.4967622242188462e+01 1.4967622242188462e+01 xlo xhi
-1.4967622242188462e+01 1.4967622242188462e+01 ylo yhi
-1.4967622242188462e+01 1.4967622242188462e+01 zlo zhi

Masses

1 15.9994
2 1.00794
3 12.0107
4 1.00794
5 12.0107
6 12.0107

Bond Coeffs # harmonic

1 1000 1
2 469 1.4
3 367 1.08
4 469 0.7

Angle Coeffs # harmonic

1 100 109.47
2 35 120
3 63 120

Dihedral Coeffs # opls

1 0 7.25 0 0
2 0 7.25 0 0
3 0 7.25 0 0

Improper Coeffs # cvff

1 2.5 -1 2

Atoms # full

2256 752 2 4.0999999999999998e-01 -9.5817401507810196e+00 -8.0284489819513354e+00 -9.8997575918558809e+00 2 0 1
614 205 2 4.0999999999999998e-01 -8.8733924368608026e+00 -9.6705705272439246e+00 -1.0495564349365390e+01 0 -1 3
316 106 1 -8.1999999999999995e-01 -1.4429053754153275e+01 -6.6762985665108019e+00 -1.3721866240604646e+01 1 3 0
2369 790 2 4.0999999999999998e-01 -1.1330345724379292e+01 -9.1895872587275100e+00 -1.1272549843516394e+01 1 3 2
2394 798 2 4.0999999999999998e-01 -1.2934120008166349e+01 -1.2344561038740391e+01 -1.3176202265885777e+01 2 3 0
2092 698 1 -8.1999999999999995e-01 -6.6245393907715400e+00 -6.4362844915322839e+00 -1.4775295896914828e+01 2 4 3
2368 790 1 -8.1999999999999995e-01 -1.0331339323107370e+01 -9.2302906710555668e+00 -1.1290027877515925e+01 1 3 2
317 106 2 4.0999999999999998e-01 -1.4232991255866066e+01 -7.6555205929054511e+00 -1.3670293363983008e+01 1 3 0
499 167 1 -8.1999999999999995e-01 -7.8940097483424641e+00 -1.2803919546830587e+01 -1.2204568110684599e+01 2 2 2
2370 790 2 4.0999999999999998e-01 -1.0031230852462588e+01 -9.6956396387176405e+00 -1.2122711059949783e+01 1 3 2
1736 579 2 4.0999999999999998e-01 -1.3197361230647436e+01 -1.0501002452121408e+01 -1.1059724867697565e+01 1 1 1
2492 831 2 4.0999999999999998e-01 -1.1439256209457199e+01 -1.0326671755012708e+01 -1.4225669394195128e+01 0 1 -1
2482 828 1 -8.1999999999999995e-01 -1.4078686700163802e+01 -7.5178144738742922e+00 -9.6372108351488155e+00 0 1 2
2392 798 1 -8.1999999999999995e-01 -1.1960995821113315e+01 -1.2517130707720600e+01 -1.3023804558562881e+01 2 3 0
2119 707 1 -8.1999999999999995e-01 -1.2574992718556054e+01 -5.1945289949332292e+00 -1.2353120410524948e+01 -2 2 0
1084 362 1 -8.1999999999999995e-01 -8.9212605870161621e+00 -1.0691020013622250e+01 -1.3389390252987099e+01 2 0 1
1513 505 1 -8.1999999999999995e-01 -1.6490107565676269e+00 -1.4320432799833657e+01 -7.6101091933336438e+00 1 3 0
1085 362 2 4.0999999999999998e-01 -8.6029797339166088e+00 -1.1403211557799862e+01 -1.2763725358181066e+01 2 0 1
1737 579 2 4.0999999999999998e-01 -1.3765689032803941e+01 -9.5157741136497904e+00 -1.2231429276234048e+01 1 1 1
2254 752 1 -8.1999999999999995e-01 -9.3596634277280586e+00 -7.3078506868337918e+00 -9.2429501167524144e+00 2 0 1
660 220 2 4.0999999999999998e-01 -6.4850218632750405e+00 -6.7395532092423451e+00 -8.7377442823221969e+00 0 2 0
1829 610 2 4.0999999999999998e-01 -9.9253115868876591e+00 -6.2419865886830372e+00 -1.0973419066274920e+01 0 1 1
613 205 1 -8.1999999999999995e-01 -7.9883099886626692e+00 -1.0021227332334602e+01 -1.0189549809580324e+01 0 -1 3
1735 579 1 -8.1999999999999995e-01 -1.3174322420420790e+01 -9.5711670863713838e+00 -1.1426946095222887e+01 1 1 1
399 133 2 4.0999999999999998e-01 -1.5218962564968681e+00 -5.9290191994055341e+00 -9.1501693924124794e+00 -1 1 1
422 141 2 4.0999999999999998e-01 -8.4698734636178585e-01 -1.1931562630761134e+01 -1.1753459620097681e+01 -2 1 2
1830 610 2 4.0999999999999998e-01 -8.9602777337092974e+00 -6.6707797162137599e+00 -1.2218974634181789e+01 0 1 1
444 148 2 4.0999999999999998e-01 -9.1626511538706001e+00 -7.2004318949945807e+00 -1.4442026919710546e+01 -1 1 1
2038 680 1 -8.1999999999999995e-01 -7.7832017630752572e+00 -7.9190436471713594e+00 -1.2719108827673287e+01 1 0 0
2079 693 2 4.0999999999999998e-01 -1.1594367699547581e+01 -5.5239979534440735e+00 -8.1874019320242777e+00 1 1 1
1828 610 1 -8.1999999999999995e-01 -9.7844994342928437e+00 -6.1669208470570087e+00 -1.1960593369197579e+01 0 1 1
2484 828 2 4.0999999999999998e-01 -1.3788529386207491e+01 -8.1944884585402527e+00 -1.0313891782510616e+01 0 1 2
2291 764 2 4.0999999999999998e-01 -1.2592235112352586e+01 -1.3025906888314548e+01 -9.7027274770484659e+00 0 1 2
615 205 2 4.0999999999999998e-01 -7.3811970476080662e+00 -1.0126657093760841e+01 -1.0977124871219347e+01 0 -1 3
326 109 2 4.0999999999999998e-01 -1.4335660692252329e+01 -9.1393602033076036e+00 -8.8069463538772368e+00 1 0 1
774 258 2 4.0999999999999998e-01 -1.0252781045624921e+01 -1.3495400158903946e+01 -9.6160719085005049e+00 -2 1 1
2290 764 1 -8.1999999999999995e-01 -1.3100509187859064e+01 -1.2618484460266338e+01 -1.0461437214358526e+01 0 1 2
659 220 2 4.0999999999999998e-01 -6.0215060857894809e+00 -8.2157339834046397e+00 -8.2156274255728654e+00 0 2 0
158 53 2 4.0999999999999998e-01 -5.7092601724318151e+00 -1.3277575440917881e+01 -8.6511142210553906e+00 -3 1 0
2393 798 2 4.0999999999999998e-01 -1.1822527048086197e+01 -1.2841323157045162e+01 -1.2088015218675157e+01 2 3 0
2470 824 1 -8.1999999999999995e-01 -1.1767010791609618e+01 -1.4485267769427852e+01 -8.7423785992413627e+00 1 3 0
2255 752 2 4.0999999999999998e-01 -8.5403801228644056e+00 -7.5649343234945086e+00 -8.7304475280763487e+00 2 0 1
1071 357 2 4.0999999999999998e-01 -7.8232880439974117e-01 -9.7311694283034740e+00 -1.4032325791654781e+01 -1 0 0
2093 698 2 4.0999999999999998e-01 -6.3308601566138343e+00 -5.4812716682807654e+00 -1.4734319340166948e+01 2 4 3
877 293 1 -8.1999999999999995e-01 -8.3130488133758949e+00 -1.4707814202614072e+01 -1.4183803639712252e+01 0 1 1
1086 362 2 4.0999999999999998e-01 -8.4142293238558850e+00 -1.0751742005411259e+01 -1.4249162419299404e+01 2 0 1
772 258 1 -8.1999999999999995e-01 -9.3046832927386554e+00 -1.3249468952932231e+01 -9.8175775575877910e+00 -2 1 1
773 258 2 4.0999999999999998e-01 -8.9177749774646156e+00 -1.2750441550306952e+01 -9.0421746609739166e+00 -2 1 1
658 220 1 -8.1999999999999995e-01 -6.7043600291315641e+00 -7.4919348768288456e+00 -8.1166254294663744e+00 0 2 0
1289 430 2 4.0999999999999998e-01 -1.1011987409642265e+01 -7.4125783031607417e+00 -8.2839963549922935e+00 2 2 0
1017 339 2 4.0999999999999998e-01 -8.1657917575072059e+00 -1.0978723651065739e+01 -8.7021525445935328e+00 -2 0 1
1290 430 2 4.0999999999999998e-01 -1.2554597658310069e+01 -7.2927436663064213e+00 -8.8060651802316681e+00 2 2 0
878 293 2 4.0999999999999998e-01 -8.1247617770340419e+00 -1.4035556888613892e+01 -1.3467846853946215e+01 0 1 1
879 293 2 4.0999999999999998e-01 -9.1026715536901257e+00 -1.4410712984598156e+01 -1.4720648885272325e+01 0 1 1
2472 824 2 4.0999999999999998e-01 -1.1318833864557332e+01 -1.4086152155662083e+01 -7.9424909887052735e+00 1 3 0
2322 774 2 4.0999999999999998e-01 -6.8318647678081277e+00 -6.8233998590820715e+00 -1.1139185780385993e+01 -1 2 2
500 167 2 4.0999999999999998e-01 -8.4956594329280541e+00 -1.3000828702366393e+01 -1.1430474773975210e+01 2 2 2
2121 707 2 4.0999999999999998e-01 -1.3175797880265662e+01 -5.8074648844756407e+00 -1.2866266383810402e+01 -2 2 0
2120 707 2 4.0999999999999998e-01 -1.1700426752985381e+01 -5.6491538750724324e+00 -1.2184518466527843e+01 -2 2 0
869 290 2 4.0999999999999998e-01 -1.4194158764197514e+01 -1.0128592693452568e+01 -1.4399176566242375e+01 -1 -1 2
1288 430 1 -8.1999999999999995e-01 -1.1945885866352356e+01 -7.1688866382349135e+00 -8.0224163808971163e+00 2 2 0
1820 607 2 4.0999999999999998e-01 -1.1008347928015366e+01 -1.3198029800119706e+01 -1.4440889599841871e+01 -2 1 2
888 296 2 4.0999999999999998e-01 -1.7112205316828604e+00 -9.7147786638723854e+00 -9.0005771795696656e+00 -1 0 -1
2039 680 2 4.0999999999999998e-01 -7.3576453526989960e+00 -7.4655984742786234e+00 -1.3502221388610685e+01 1 0 0
166 56 1 -8.1999999999999995e-01 -4.0089438372378439e-01 -1.4767357705738554e+01 -1.4328633979278621e+01 -2 -1 2
886 296 1 -8.1999999999999995e-01 -2.3540208960134539e+00 -9.7899481110281741e+00 -9.7628981672556634e+00 -1 0 -1
450 150 2 4.0999999999999998e-01 -5.3507146993868684e+00 -1.2312736801803826e+01 -1.0742395414421829e+01 -2 1 1
1515 505 2 4.0999999999999998e-01 -1.8431603217447705e+00 -1.4546318498169633e+01 -8.5647073447074931e+00 1 3 0
2040 680 2 4.0999999999999998e-01 -7.9883770711836668e+00 -8.8689070401074943e+00 -1.2954987299982252e+01 1 0 0
1241 414 2 4.0999999999999998e-01 -5.5649797111004933e+00 -1.4529461191346011e+01 -1.0677310636360426e+01 0 1 2
887 296 2 4.0999999999999998e-01 -3.2680368488512048e+00 -9.5252516701776919e+00 -9.4555113022418915e+00 -1 0 -1
157 53 1 -8.1999999999999995e-01 -5.8404988118688284e+00 -1.2290471818410417e+01 -8.7426504675004892e+00 -3 1 0
464 155 2 4.0999999999999998e-01 -4.5447820845564237e+00 -8.7365162574473789e+00 -1.4095652687246245e+01 0 2 1
780 260 2 4.0999999999999998e-01 -2.5608262404812443e-01 -5.3638648549036620e+00 -1.4171535559337624e+01 -1 1 2
1069 357 1 -8.1999999999999995e-01 -1.2652434653559155e+00 -1.0373018346526411e+01 -1.4627976210074927e+01 -1 0 0
159 53 2 4.0999999999999998e-01 -6.7978744693915889e+00 -1.2063533865528060e+01 -8.5640250262032254e+00 -3 1 0
22 8 1 -8.1999999999999995e-01 -3.6167438316064171e+00 -6.5913480000112266e+00 -1.1425709268341052e+01 -3 -1 0
24 8 2 4.0999999999999998e-01 -3.4506122934119645e+00 -5.9037978248611580e+00 -1.2132569321377542e+01 -3 -1 0
1407 469 2 4.0999999999999998e-01 -3.3901086752635017e+00 -1.3943707328496329e+01 -1.4136280578149490e+01 -2 1 2
2292 764 2 4.0999999999999998e-01 -1.4080616372136971e+01 -1.2754995549445280e+01 -1.0317455746888037e+01 0 1 2
1493 498 2 4.0999999999999998e-01 -5.4408779684098310e+00 -1.0287169315729834e+01 -8.8699468667681813e+00 1 2 1
964 322 1 -8.1999999999999995e-01 -3.2781349271148255e+00 -5.9820703011051677e+00 -8.7515215117191225e+00 -2 1 1
2110 704 1 -8.1999999999999995e-01 -2.2511926300721381e+00 -1.4624279950122091e+01 -1.0250696108717868e+01 0 1 0
446 149 2 4.0999999999999998e-01 -2.9803380786057989e+00 -1.1422025018154788e+01 -1.3123723730737368e+01 -1 1 -1
1899 633 2 4.0999999999999998e-01 -1.8474783938469859e+00 -8.7944713738548401e+00 -1.1511413416544855e+01 -1 3 2
1897 633 1 -8.1999999999999995e-01 -1.2674481521601280e+00 -8.2774722480008123e+00 -1.2140899597247529e+01 -1 3 2
1492 498 1 -8.1999999999999995e-01 -4.8775937048879339e+00 -9.5211059947358123e+00 -8.5603764114133973e+00 1 2 1
501 167 2 4.0999999999999998e-01 -6.9464400106191775e+00 -1.2992475755309910e+01 -1.1946625891302901e+01 2 2 2
2111 704 2 4.0999999999999998e-01 -1.3056896791320654e+00 -1.4499972174521504e+01 -1.0551607704853463e+01 0 1 0
1494 498 2 4.0999999999999998e-01 -4.4155004637006705e+00 -9.7697833850955025e+00 -7.7091388154486618e+00 1 2 1
168 56 2 4.0999999999999998e-01 -1.3721141744257981e+00 -1.4581729294335593e+01 -1.4477799117632804e+01 -2 -1 2
23 8 2 4.0999999999999998e-01 -3.1842308893050966e+00 -7.4531230760938616e+00 -1.1690760798021760e+01 -3 -1 0
793 265 1 -8.1999999999999995e-01 -2.9198528510209592e+00 -7.2288063557448368e+00 -1.4289971825304967e+01 -2 3 -1
448 150 1 -8.1999999999999995e-01 -5.1727635648764476e+00 -1.2940088707334752e+01 -1.1500510853619884e+01 -2 1 1
1898 633 2 4.0999999999999998e-01 -4.1748909105416487e-01 -8.0240218815549547e+00 -1.1679046195513330e+01 -1 3 2
1405 469 1 -8.1999999999999995e-01 -3.3529244039304533e+00 -1.4869630042600329e+01 -1.4512126963078238e+01 -2 1 2
2112 704 2 4.0999999999999998e-01 -2.7944031312596191e+00 -1.3829603431907561e+01 -1.0521597601535165e+01 0 1 0
868 290 1 -8.1999999999999995e-01 -1.4526848382641624e+01 -9.5429074061427137e+00 -1.3660078189409189e+01 -1 -1 2
430 144 1 -8.1999999999999995e-01 -5.6562473743156687e+00 -9.7911808303431069e+00 -1.1535892304913055e+01 0 2 1
2320 774 1 -8.1999999999999995e-01 -6.2088285568689852e+00 -6.1879630123733147e+00 -1.0683091578500877e+01 -1 2 2
2321 774 2 4.0999999999999998e-01 -5.2786075532612138e+00 -6.3337976061585941e+00 -1.1019836585256906e+01 -1 2 2
447 149 2 4.0999999999999998e-01 -4.3439733211491234e+00 -1.1060241652729363e+01 -1.3946021917355614e+01 -1 1 -1
463 155 1 -8.1999999999999995e-01 -5.1367288265126181e+00 -9.4738247481411939e+00 -1.4421154281661185e+01 0 2 1
794 265 2 4.0999999999999998e-01 -2.1295270678680769e+00 -7.6159882468516056e+00 -1.3815154635174618e+01 -2 3 -1
1070 357 2 4.0999999999999998e-01 -1.4689511131334498e+00 -1.1210144306825367e+01 -1.4120335250505894e+01 -1 0 0
431 144 2 4.0999999999999998e-01 -5.5262539391950654e+00 -9.7002245754610144e+00 -1.2523214284936650e+01 0 2 1
432 144 2 4.0999999999999998e-01 -5.0944764817567609e+00 -9.1131667228115489e+00 -1.1061881380326492e+01 0 2 1
397 133 1 -8.1999999999999995e-01 -6.0820332337307725e-01 -5.5479219137264479e+00 -9.2912584080126059e+00 -1 1 1
445 149 1 -8.1999999999999995e-01 -3.8037468312285210e+00 -1.1800737933068230e+01 -1.3546276200112516e+01 -1 1 -1
421 141 1 -8.1999999999999995e-01 -1.7753345950638710e+00 -1.1565606020257619e+01 -1.1818445588241884e+01 -2 1 2
449 150 2 4.0999999999999998e-01 -4.8337676366236408e+00 -1.2424382646299645e+01 -1.2287343150273236e+01 -2 1 1
965 322 2 4.0999999999999998e-01 -3.3355220763173179e+00 -6.1816234522423681e+00 -9.7297143973437912e+00 -2 1 1
423 141 2 4.0999999999999998e-01 -1.9853562224335679e+00 -1.1041088806080253e+01 -1.0993370637738604e+01 -2 1 2
966 322 2 4.0999999999999998e-01 -3.7918338803454699e+00 -5.1479197047794258e+00 -8.5508171695359714e+00 -2 1 1
1015 339 1 -8.1999999999999995e-01 -8.4188246763243715e+00 -1.1609584714283798e+01 -7.9686917591572684e+00 -2 0 1
398 133 2 4.0999999999999998e-01 -1.5920274219303288e-01 -5.4223103091991991e+00 -8.4066137148340445e+00 -1 1 1
327 109 2 4.0999999999999998e-01 -1.4800551581452087e+01 -1.0023297326723876e+01 -7.5150120680219983e+00 1 0 1
1016 339 2 4.0999999999999998e-01 -9.2528478737721453e+00 -1.1284848665682494e+01 -7.5226784918370084e+00 -2 0 1
1447 483 1 -8.1999999999999995e-01 -5.8222256426632590e-01 -9.7370216834096031e+00 -7.6365014375102565e+00 0 1 -2
2493 831 2 4.0999999999999998e-01 -1.1042308595569370e+01 -8.8935126561616471e+00 -1.4900243441529277e+01 0 1 -1
2214 738 2 4.0999999999999998e-01 -8.1184537949979756e+00 -7.9023154714474044e+00 -6.9978705448459921e+00 -2 1 3
2212 738 1 -8.1999999999999995e-01 -8.5160942268821955e+00 -8.2323951372091670e+00 -6.1417715278239129e+00 -2 1 3
1178 393 2 4.0999999999999998e-01 -1.2406476870541356e+01 -7.5581038202362487e+00 -6.1853654884162239e+00 0 1 1
1179 393 2 4.0999999999999998e-01 -1.3279830160379312e+01 -8.4307751404808080e+00 -5.1165992094666137e+00 0 1 1
2381 794 2 4.0999999999999998e-01 -1.1877897174451215e+01 -1.0990034177225571e+01 -1.1236735457544835e+00 0 -1 1
1177 393 1 -8.1999999999999995e-01 -1.2559544829714000e+01 -7.7441042614446420e+00 -5.2148243658615634e+00 0 1 1
2578 860 1 -8.1999999999999995e-01 -1.3538272383124907e+01 -5.5129422268776587e+00 -2.5333876182149790e+00 -1 1 1
254 85 2 4.0999999999999998e-01 -1.0716773320679971e+01 -9.0454652329274374e+00 -9.0371784164149815e-01 -1 2 0
2537 846 2 4.0999999999999998e-01 -9.1618972079507657e+00 -1.0480652735194781e+01 -2.0595442277059881e+00 2 2 0
220 74 1 -8.1999999999999995e-01 -8.8676413004385388e+00 -8.3511658200158596e+00 -4.5914637450098006e-01 0 1 -1
148 50 1 -8.1999999999999995e-01 -1.1148631135129420e+01 -1.4413143740863720e+01 -2.3143655388765598e+00 -2 1 -2
253 85 1 -8.1999999999999995e-01 -1.1547025787616271e+01 -9.3112540842420408e+00 -1.3936292181084067e+00 -1 2 0
255 85 2 4.0999999999999998e-01 -1.2043290579395787e+01 -8.4909798859311127e+00 -1.6779662021494239e+00 -1 2 0
1231 411 1 -8.1999999999999995e-01 -1.0031093252673040e+01 -6.6318398627043642e+00 -4.3015449238201313e+00 1 2 0
527 176 2 4.0999999999999998e-01 -1.1046602972575181e+01 -1.3246677892887584e+01 -5.7016681571812491e+00 -1 2 0
1025 342 2 4.0999999999999998e-01 -1.4682791648900849e+01 -1.1485598218439485e+01 -2.2275574974137573e+00 0 1 1
1345 449 1 -8.1999999999999995e-01 -1.4842733216727872e+01 -9.5531376731508981e+00 -5.0841056036522581e+00 0 1 0
1233 411 2 4.0999999999999998e-01 -1.0925921002872357e+01 -7.0704493392574577e+00 -4.2185927171635136e+00 1 2 0
1232 411 2 4.0999999999999998e-01 -9.4532507529942862e+00 -7.1672965570687444e+00 -4.9174671776951726e+00 1 2 0
1481 494 2 4.0999999999999998e-01 -9.6539333979101052e+00 -5.2248883452993748e+00 -5.3237464755127544e+00 -2 0 2
526 176 1 -8.1999999999999995e-01 -1.0581822651467427e+01 -1.3861239075817860e+01 -6.3390611656746678e+00 -1 2 0
150 50 2 4.0999999999999998e-01 -1.1848512589166013e+01 -1.4578400299064279e+01 -1.6195042171863463e+00 -2 1 -2
884 295 2 4.0999999999999998e-01 -1.4443939231745825e+01 -7.3130547516790001e+00 -2.3107415171555648e+00 2 1 1
1500 500 2 4.0999999999999998e-01 -1.1467685029231543e+01 -1.2893210789751558e+01 -3.5283541692530989e+00 2 1 1
1256 419 2 4.0999999999999998e-01 -3.9064115316844994e+00 -1.2917120721528152e+01 -8.4377967193169745e-01 1 0 1
2382 794 2 4.0999999999999998e-01 -1.1600297032072737e+01 -1.2590680795921610e+01 -1.2892970404511175e+00 0 -1 1
1498 500 1 -8.1999999999999995e-01 -1.1663100948003361e+01 -1.2261920144876903e+01 -4.2788611794007689e+00 2 1 1
149 50 2 4.0999999999999998e-01 -1.0267393417696129e+01 -1.4754702889398889e+01 -1.9876646697550910e+00 -2 1 -2
1499 500 2 4.0999999999999998e-01 -1.2594266969144924e+01 -1.1909822792907619e+01 -4.1843448237101057e+00 2 1 1
2538 846 2 4.0999999999999998e-01 -7.5818666911712684e+00 -1.0597214250957304e+01 -1.6639692482356789e+00 2 2 0
528 176 2 4.0999999999999998e-01 -9.8987570739388779e+00 -1.4399250368495522e+01 -5.8451570163718127e+00 -1 2 0
1465 489 1 -8.1999999999999995e-01 -6.1707141056276118e+00 -5.9370234408515525e+00 -4.4103520794799724e+00 1 2 1
1347 449 2 4.0999999999999998e-01 -1.4803698609670514e+01 -1.0192966416865579e+01 -4.3165956482803409e+00 0 1 0
2213 738 2 4.0999999999999998e-01 -7.7873259333171223e+00 -8.5585574556722079e+00 -5.5396993093953384e+00 -2 1 3
1261 421 1 -8.1999999999999995e-01 -7.7897848344828127e+00 -1.3322878050014358e+01 -3.3173523719189468e+00 0 0 2
2109 703 2 4.0999999999999998e-01 -1.3507757129795912e+01 -6.0936498695861694e+00 -5.2476078914981095e+00 -1 0 0
1262 421 2 4.0999999999999998e-01 -8.3338825875667979e+00 -1.2674574276849803e+01 -2.7847775799736318e+00 0 0 2
1657 553 1 -8.1999999999999995e-01 -7.7032724527725627e-01 -1.3763482598852020e+01 -1.6831511376253161e+00 0 1 0
2536 846 1 -8.1999999999999995e-01 -8.4217125447018866e+00 -1.1113359999920771e+01 -1.8319827469100094e+00 2 2 0
1835 612 2 4.0999999999999998e-01 -1.3740435228304799e+01 -1.1785638922016112e+01 -3.5917365838505155e-01 0 1 -1
1263 421 2 4.0999999999999998e-01 -7.1240821559891119e+00 -1.2823100793230759e+01 -3.8714630874462017e+00 0 0 2
1659 553 2 4.0999999999999998e-01 -3.3522959066259794e-01 -1.3183801796918397e+01 -2.3720896234472253e+00 0 1 0
1020 340 2 4.0999999999999998e-01 -1.0459012714505326e+01 -5.8809312254236978e+00 -2.2826007570232356e+00 0 1 1
2478 826 2 4.0999999999999998e-01 -7.6669818034685777e+00 -1.1735514192401485e+01 -5.9749496944447404e+00 2 1 0
1514 505 2 4.0999999999999998e-01 -2.3927665855536446e+00 -1.4653874213398352e+01 -7.0307818954047949e+00 1 3 0
2580 860 2 4.0999999999999998e-01 -1.3338464374634693e+01 -5.6034910060880012e+00 -3.5090175231981569e+00 -1 1 1
2380 794 1 -8.1999999999999995e-01 -1.2116233931152191e+01 -1.1899563706760631e+01 -7.8319199363097525e-01 0 -1 1
138 46 2 4.0999999999999998e-01 -6.5532950268143804e+00 -1.4494383256816560e+01 -1.8131719820731611e+00 -1 1 1
156 52 2 4.0999999999999998e-01 -1.1048820624578504e-01 -1.2016308235837233e+01 -4.3354084008733906e+00 -2 3 0
497 166 2 4.0999999999999998e-01 -8.5019376923651144e+00 -1.4812991537052056e+01 -4.2126000850185594e+00 0 1 1
1707 569 2 4.0999999999999998e-01 -1.4911011645220210e+01 -1.4617028915511737e+01 -3.8252724550074486e+00 -2 4 0
1019 340 2 4.0999999999999998e-01 -9.9684917078874733e+00 -7.0857403101690553e+00 -1.2954904423273383e+00 0 1 1
1448 483 2 4.0999999999999998e-01 -1.0168353361699793e+00 -8.9709806667938494e+00 -7.1629310225058935e+00 0 1 -2
835 279 1 -8.1999999999999995e-01 -1.7274291740617187e-01 -7.7093472874506608e+00 -8.5199049007886174e-01 -1 2 2
1834 612 1 -8.1999999999999995e-01 -1.4736320554636816e+01 -1.1703703723892128e+01 -3.2076657101917405e-01 0 1 -1
664 222 1 -8.1999999999999995e-01 -6.1368564965261356e+00 -8.9327383983316295e+00 -1.9615611154517030e+00 1 2 1
2107 703 1 -8.1999999999999995e-01 -1.3561597377994865e+01 -5.1048468006034717e+00 -5.3866968706817584e+00 -1 0 0
1706 569 2 4.0999999999999998e-01 -1.4445121096952175e+01 -1.3237543643046445e+01 -3.0859964956125285e+00 -2 4 0
2477 826 2 4.0999999999999998e-01 -6.4063808811307812e+00 -1.0948815422074183e+01 -5.2977843403836165e+00 2 1 0
883 295 1 -8.1999999999999995e-01 -1.4733322308189308e+01 -8.0939709573786001e+00 -1.7572043976991036e+00 2 1 1
222 74 2 4.0999999999999998e-01 -7.9601411703784297e+00 -8.0157028180021186e+00 -7.1189945501021157e-01 0 1 -1
885 295 2 4.0999999999999998e-01 -1.4205279970750379e+01 -8.1146977611858606e+00 -9.0825344216005277e-01 2 1 1
490 164 1 -8.1999999999999995e-01 -8.2493435706741636e-01 -6.4773831895658507e+00 -4.7251440113313965e+00 -1 -1 -1
1658 553 2 4.0999999999999998e-01 -1.2744240150968054e+00 -1.3191290114969728e+01 -1.0362676599508607e+00 0 1 0
1257 419 2 4.0999999999999998e-01 -2.9637820962758372e+00 -1.1702362602465664e+01 -1.3936660392401503e+00 1 0 1
246 82 2 4.0999999999999998e-01 -4.7428314768967095e+00 -1.1163567526334759e+01 -2.0599348719158606e-01 -1 0 2
1466 489 2 4.0999999999999998e-01 -6.1101980941704337e+00 -6.8675417925249640e+00 -4.7715299282609944e+00 1 2 1
1602 534 2 4.0999999999999998e-01 -5.4505968381826335e+00 -9.3207095887438918e+00 -5.3361787344356415e+00 0 0 1
1808 603 2 4.0999999999999998e-01 -3.8424343681474564e+00 -1.2930938559170791e+01 -5.2950308387057010e+00 -1 0 -1
1600 534 1 -8.1999999999999995e-01 -6.2636839876514543e+00 -9.0488372586609707e+00 -4.8214450431680653e+00 0 0 1
2457 819 2 4.0999999999999998e-01 -3.4925327102602264e+00 -8.0588367208647824e+00 -1.0864620570275907e+00 2 0 0
2440 814 1 -8.1999999999999995e-01 -8.3561270883559935e-01 -1.2114941747363440e+01 -5.9536777578537361e+00 1 1 0
1807 603 1 -8.1999999999999995e-01 -4.3169537114980283e+00 -1.3403474556317871e+01 -6.0376728621093960e+00 -1 0 -1
1166 389 2 4.0999999999999998e-01 -3.4959751970275335e+00 -6.1699995493308570e+00 -2.4760651480780478e+00 -1 2 1
2455 819 1 -8.1999999999999995e-01 -2.7844398385568727e+00 -8.1307497280011258e+00 -1.7888928645437421e+00 2 0 0
1456 486 1 -8.1999999999999995e-01 -1.7493009581291332e+00 -1.0817227793772737e+01 -5.5403491595335552e-01 -1 2 2
1705 569 1 -8.1999999999999995e-01 -1.4130181775280777e+01 -1.4032783216749918e+01 -3.6040537075892409e+00 -2 4 0
665 222 2 4.0999999999999998e-01 -5.9041595440041910e+00 -9.4337013997008565e+00 -1.1279759494408577e+00 1 2 1
1018 340 1 -8.1999999999999995e-01 -1.0419028120722871e+01 -6.1938121600360123e+00 -1.3336630470004494e+00 0 1 1
2441 814 2 4.0999999999999998e-01 -1.3569023479871785e+00 -1.2874891186222094e+01 -6.3418916166601385e+00 1 1 0
666 222 2 4.0999999999999998e-01 -6.1987204158107687e+00 -7.9558435358236528e+00 -1.7570487481682395e+00 1 2 1
1601 534 2 4.0999999999999998e-01 -6.0891447267320054e+00 -9.1543534990584483e+00 -3.8424770126222985e+00 0 0 1
1574 525 2 4.0999999999999998e-01 -2.3261454944370268e+00 -1.1368799791257349e+01 -4.1976151920032834e+00 -2 0 0
1165 389 1 -8.1999999999999995e-01 -4.0768342083927802e+00 -5.4490418435292760e+00 -2.8539524901630422e+00 -1 2 1
1467 489 2 4.0999999999999998e-01 -5.3001305287392970e+00 -5.6865878267266883e+00 -3.9868638404263699e+00 1 2 1
1332 444 2 4.0999999999999998e-01 -1.9753027261569560e+00 -9.1383339656934890e+00 -3.0283479555414985e+00 2 2 1
1331 444 2 4.0999999999999998e-01 -1.0942243154544755e+00 -8.2106693723128679e+00 -4.0430901878432248e+00 2 2 1
1573 525 1 -8.1999999999999995e-01 -3.2810466662728306e+00 -1.1665172003685292e+01 -4.2150304317618925e+00 -2 0 0
2442 814 2 4.0999999999999998e-01 -9.3615442840133944e-01 -1.1309219492875927e+01 -6.5373549363901482e+00 1 1 0
1458 486 2 4.0999999999999998e-01 -8.3843013422121793e-01 -1.0405554492809552e+01 -5.8259150979891672e-01 -1 2 2
2456 819 2 4.0999999999999998e-01 -1.8878574404845931e+00 -7.9707166410363239e+00 -1.3759697798387727e+00 2 0 0
1575 525 2 4.0999999999999998e-01 -3.5470872743900319e+00 -1.1986028366193484e+01 -3.3060476730452244e+00 -2 0 0
1251 417 2 4.0999999999999998e-01 -1.8006564869535140e+00 -7.1915972563131918e+00 -5.9919458441768612e+00 -2 -1 1
1255 419 1 -8.1999999999999995e-01 -3.8544256127000462e+00 -1.2148502861819217e+01 -1.4813532714899704e+00 1 0 1
1809 603 2 4.0999999999999998e-01 -5.0335741541424692e+00 -1.2810968445473254e+01 -6.4055963412029122e+00 -1 0 -1
2476 826 1 -8.1999999999999995e-01 -6.7900768623181218e+00 -1.1848091172732456e+01 -5.5076808521374545e+00 2 1 0
1249 417 1 -8.1999999999999995e-01 -2.2009892113372356e+00 -7.6389045813644492e+00 -6.7917120033181728e+00 -2 -1 1
2514 838 2 4.0999999999999998e-01 -6.5485275265233795e+00 -5.7726654195253602e+00 -8.6120303682616672e-01 0 0 1
848 283 2 4.0999999999999998e-01 -3.7963178367190356e+00 -1.0576024455258215e+01 -5.3721736462413947e+00 0 1 1
491 164 2 4.0999999999999998e-01 -1.2054385737345736e+00 -5.6507525933848495e+00 -4.3105665922486178e+00 -1 -1 -1
1330 444 1 -8.1999999999999995e-01 -1.3899309078202666e+00 -9.1438966363893357e+00 -3.8390790636402219e+00 2 2 1
847 283 1 -8.1999999999999995e-01 -4.1288708509132643e+00 -9.9698142701167001e+00 -6.0945957973504274e+00 0 1 1
849 283 2 4.0999999999999998e-01 -3.4647573519003831e+00 -9.2380243775059263e+00 -6.2476084160158614e+00 0 1 1
2512 838 1 -8.1999999999999995e-01 -6.5574083608575133e+00 -6.6438887863283629e+00 -3.7042100829116542e-01 0 0 1
1250 417 2 4.0999999999999998e-01 -2.5440432361941330e+00 -6.9450336856317865e+00 -7.4248258578583881e+00 -2 -1 1
1457 486 2 4.0999999999999998e-01 -2.3918448973792703e+00 -1.0176063608884277e+01 -1.3448536505507747e-01 -1 2 2
1314 438 2 4.0999999999999998e-01 -1.1788382111300640e+01 -1.1858359200003553e+01 1.2016678574570285e+00 2 0 1
2314 772 1 -8.1999999999999995e-01 -1.1599047354536724e+01 -9.4487783756053965e+00 3.9690768738179898e+00 1 2 0
2316 772 2 4.0999999999999998e-01 -1.1785872038949414e+01 -1.0110095291561572e+01 3.2426248716719712e+00 1 2 0
1312 438 1 -8.1999999999999995e-01 -1.1788672912584847e+01 -1.1639306648781783e+01 2.1773685922089463e+00 2 0 1
1313 438 2 4.0999999999999998e-01 -1.0895468222562606e+01 -1.1860399155817733e+01 2.5688778613463725e+00 2 0 1
2410 804 1 -8.1999999999999995e-01 -1.1739839498834947e+01 -1.0594776470100744e+01 6.5486969106454076e+00 1 2 -2
48 16 2 4.0999999999999998e-01 -1.0326919685793126e+01 -8.4534144209933970e+00 3.4431632466171784e+00 -1 1 2
46 16 1 -8.1999999999999995e-01 -9.5934225625058449e+00 -7.8498699728250827e+00 3.1306058219814084e+00 -1 1 2
2384 795 2 4.0999999999999998e-01 -1.2621009912384945e+01 -1.3168307904965591e+01 2.7012369524883191e+00 1 3 1
47 16 2 4.0999999999999998e-01 -9.1022200175133285e+00 -7.4849939242094923e+00 3.9215303333988132e+00 -1 1 2
2506 836 1 -8.1999999999999995e-01 -1.3976653395773294e+01 -7.9965406358161735e+00 9.4800675561627301e-01 -1 3 -1
2315 772 2 4.0999999999999998e-01 -1.1552520749124440e+01 -9.9234224599311389e+00 4.8480104931752344e+00 1 2 0
1117 373 1 -8.1999999999999995e-01 -1.1357019303899602e+01 -1.3855505859488103e+01 5.3344927512037934e+00 0 1 1
290 97 2 4.0999999999999998e-01 -1.3053514978216347e+01 -1.2945303013057558e+01 6.0770480309628923e+00 -1 2 -1
890 297 2 4.0999999999999998e-01 -1.0306836691901928e+01 -7.2337644253742761e+00 1.4604390365744493e+00 -2 -1 2
2411 804 2 4.0999999999999998e-01 -1.0764484189030300e+01 -1.0375340120930957e+01 6.5711859310419207e+00 1 2 -2
72 24 2 4.0999999999999998e-01 -1.0264458137025617e+01 -6.2029403961028766e+00 5.1985799765618133e+00 -2 -1 0
70 24 1 -8.1999999999999995e-01 -9.4766689487334865e+00 -6.3418898858721775e+00 5.7986277047412536e+00 -2 -1 0
2587 863 1 -8.1999999999999995e-01 -9.2775089797796113e+00 -9.1921410517626043e+00 6.8517526116680898e+00 1 1 2
2507 836 2 4.0999999999999998e-01 -1.3039199627963109e+01 -7.9040654425293670e+00 1.2835731719906569e+00 -1 3 -1
567 189 2 4.0999999999999998e-01 -1.2716290710016345e+01 -6.2445089517431338e+00 4.1795761030061698e+00 -1 0 1
2588 863 2 4.0999999999999998e-01 -9.3419046824683676e+00 -8.2409448988706231e+00 6.5499992257436226e+00 1 1 2
71 24 2 4.0999999999999998e-01 -8.9637103257297266e+00 -5.4872193677761238e+00 5.8785513856909439e+00 -2 -1 0
889 297 1 -8.1999999999999995e-01 -1.1212510518576158e+01 -7.0204147751058361e+00 1.0940882587272966e+00 -2 -1 2
507 169 2 4.0999999999999998e-01 -8.8914928700136286e+00 -1.2084088829417485e+01 1.9003227436536072e+00 -1 0 0
244 82 1 -8.1999999999999995e-01 -5.6067092746626184e+00 -1.0769598784895727e+01 1.0782150372733668e-01 -1 0 2
1867 623 1 -8.1999999999999995e-01 -8.1655640998033476e+00 -9.7759504825552490e+00 1.8644311837028553e+00 0 2 3
1868 623 2 4.0999999999999998e-01 -8.7290973005165888e+00 -9.2386546597155395e+00 2.4919019615828510e+00 0 2 3
2383 795 1 -8.1999999999999995e-01 -1.3253601391368255e+01 -1.3810285058934161e+01 3.1344452684088999e+00 1 3 1
565 189 1 -8.1999999999999995e-01 -1.1900757374586929e+01 -5.7586509964866064e+00 4.4939380930264008e+00 -1 0 1
505 169 1 -8.1999999999999995e-01 -9.4116480410172407e+00 -1.2312519044764548e+01 2.7232651894370896e+00 -1 0 0
2508 836 2 4.0999999999999998e-01 -1.4579392248057561e+01 -7.3956457564295421e+00 1.4729898643187518e+00 -1 3 -1
1118 373 2 4.0999999999999998e-01 -1.0368396582292533e+01 -1.3730813900847167e+01 5.4184754051795814e+00 0 1 1
2083 695 1 -8.1999999999999995e-01 -5.8418878442533284e+00 -1.1638489678837374e+01 7.0617182714883668e+00 -1 1 0
2104 702 1 -8.1999999999999995e-01 -8.1683553013175327e+00 -1.0995054226003623e+01 5.1408221659097926e+00 0 1 1