2593
Atoms. Timestep: 1000000
O 6.36067 -8.9703 -3.93905
H 6.03523 -9.62621 -3.25794
H 6.82852 -8.21597 -3.47847
O -3.38304 -0.336862 -8.82095
H -3.22924 0.551815 -8.38894
H -3.20924 -0.264578 -9.80309
O 6.12633 9.54875 -5.38616
H 5.45266 9.27243 -6.07161
H 6.7944 8.81528 -5.26079
O 6.67779 1.18231 5.61256
H 6.04592 0.443149 5.37933
H 6.95001 1.09809 6.57112
O -6.06728 -0.444539 -12.1775
H -6.06964 -1.10652 -12.927
H -6.99255 -0.355129 -11.8088
O 9.00484 5.22334 -10.5329
H 9.20148 4.39694 -10.0052
H 9.6151 5.26683 -11.3239
O 1.24453 13.4282 7.1007
H 0.247246 13.397 7.03373
H 1.57692 12.5836 7.52062
O -3.20391 -5.73458 -9.55825
H -2.61498 -6.49507 -9.83184
H -3.4751 -5.21483 -10.3684
O 8.89453 -3.62497 13.7064
H 8.90055 -4.62445 13.7388
H 9.60895 -3.2677 14.3081
O -1.95025 0.963007 8.15503
H -1.95786 1.9377 7.93155
H -1.02132 0.684136 8.39864
O 7.6585 7.70094 14.1324
H 6.9708 7.31665 13.5164
H 7.86782 7.03942 14.8525
O 6.92754 -5.79143 -13.2067
H 7.62985 -6.50067 -13.2682
H 6.69883 -5.46833 -14.125
O 14.1969 14.239 5.38471
H 14.8424 -14.8338 5.73588
H 13.8575 13.6792 6.14064
O -5.9386 11.3976 -9.91509
H -5.50552 10.7441 -10.5359
H -5.66348 11.1967 -8.97488
O 7.75722 -6.18459 13.8095
H 7.23045 -6.88699 13.3307
H 8.70012 -6.49664 13.9261
O -8.32265 -8.15843 4.09708
H -8.87813 -7.52727 4.63848
H -7.44069 -8.29683 4.54766
O -9.99755 8.46587 0.0517567
H -10.0023 9.42036 0.350004
H -9.90723 7.86818 0.848401
O 2.3141 -5.84381 -8.38128
H 1.87536 -6.74213 -8.40501
H 2.54098 -5.60853 -7.43619
O 13.5712 9.26417 11.5412
H 13.7092 9.52873 10.5867
H 13.9825 9.95117 12.1403
O -7.25271 -4.79786 -9.26138
H -6.47006 -5.31476 -8.91454
H -7.96854 -4.76872 -8.56369
O -10.6619 -11.6698 10.0236
H -10.4191 -10.706 9.91378
H -10.4249 -12.1703 9.19089
O 4.37406 4.77879 4.23601
H 3.68225 5.32393 4.70956
H 4.76199 5.31245 3.48452
O 3.33922 13.691 3.1845
H 3.20012 13.5694 2.20171
H 3.75681 12.8666 3.56658
O -8.26236 -5.85942 6.20307
H -7.75754 -5.4237 6.94827
H -9.10882 -6.25443 6.56015
O 12.7926 9.08484 0.460817
H 12.8874 9.60968 -0.385114
H 13.6988 8.89617 0.839289
O -3.01143 6.25674 -11.668
H -3.73809 6.13674 -10.9915
H -3.33087 6.86296 -12.3964
O -0.428459 3.63038 -9.99623
H 0.429992 3.34996 -9.56674
H -0.329097 4.55324 -10.3684
O 7.44342 -7.50727 5.13155
H 6.50639 -7.74764 5.38496
H 7.50459 -6.52103 4.97789
O -6.90438 -4.74463 10.7526
H -6.03036 -5.1576 10.4965
H -7.43663 -4.55263 9.92806
O 9.91409 -11.42 -10.6391
H 9.6195 -10.6089 -11.1445
H 9.15358 -12.066 -10.573
O 12.4475 4.35698 -7.55235
H 12.4123 3.7164 -8.31945
H 13.3731 4.37365 -7.17423
O 8.18749 -2.70934 2.69207
H 8.70569 -1.86805 2.84612
H 7.35288 -2.49828 2.18323
O -7.67878 1.43113 -10.2997
H -8.27929 2.18368 -10.0294
H -7.28052 1.01274 -9.48341
O -5.53574 9.95379 -4.09312
H -5.40437 10.9205 -4.31288
H -4.65893 9.47651 -4.15168
O -11.1211 4.95392 2.96018
H -10.4518 4.54312 2.34105
H -10.983 5.94388 2.99099
O 12.4583 8.01139 14.8085
H 11.8794 7.84741 -14.1438
H 12.0068 8.66142 14.1973
O 10.4274 -6.59051 14.3246
H 11.2968 -6.30552 13.921
H 10.5608 -7.43686 14.8403
O 1.42815 0.314487 6.2058
H 2.27016 0.797313 6.44649
H 1.62651 -0.657003 6.07582
O 5.89212 9.5784 1.11157
H 6.87488 9.73862 1.01907
H 5.64532 9.57126 2.08062
O -1.19152 4.90506 -7.54666
H -0.238334 5.03707 -7.27455
H -1.32524 5.25603 -8.47347
O -6.44815 -4.78455 7.84762
H -6.2507 -3.81118 7.96415
H -5.59148 -5.28651 7.72846
O -10.4291 -14.7098 13.3953
H -10.4636 -13.732 13.6021
H -11.1412 14.5659 13.9121
O 2.05747 11.74 -6.22055
H 1.53679 12.5849 -6.34348
H 2.99973 11.9626 -5.97027
O -9.9929 4.20821 -4.25361
H -9.43938 3.64651 -3.63868
H -10.6951 3.63997 -4.68267
O 12.0216 2.76467 11.733
H 11.4181 3.25763 12.3598
H 12.9244 3.19466 11.7323
O -7.97361 13.9971 -0.556079
H -7.54064 14.061 0.343083
H -8.9678 14.0034 -0.448496
O -4.28896 7.66333 -7.43525
H -4.59598 7.19189 -8.262
H -5.00615 8.28495 -7.12022
O -0.442677 -7.0396 -3.23092
H -1.0523 -7.42964 -2.54081
H -0.78276 -6.14035 -3.5061
O 3.2952 4.49466 -3.53663
H 2.38967 4.10223 -3.37525
H 3.5865 4.2878 -4.47064
O -12.5801 -14.3736 -4.61707
H -12.6742 -13.913 -3.73444
H -13.1911 -13.9458 -5.28313
O -12.8479 -2.53388 11.3931
H -12.505 -3.44394 11.626
H -13.6579 -2.33191 11.9436
O 2.32088 -14.8539 -5.75045
H 3.16699 14.3909 -5.91747
H 2.11841 -14.2736 -6.53928
O -4.64922 -13.505 -3.44481
H -4.12046 -13.1452 -2.67603
H -5.62192 -13.3315 -3.29053
O -13.0428 3.1927 -8.41665
H -13.8359 2.7313 -8.81446
H -12.7442 3.92725 -9.026
O 10.9268 6.68842 -1.50244
H 10.9936 6.55515 -0.513594
H 10.4717 5.89936 -1.91514
O -1.79948 14.6401 -11.3431
H -1.78431 -14.6918 -10.4353
H -1.07796 13.9504 -11.4039
O 12.3224 11.6522 -8.95372
H 12.1781 11.9994 -9.88033
H 12.5047 10.6696 -8.99061
O 13.0345 1.99918 6.81895
H 13.8991 2.4734 6.6527
H 12.5564 2.43524 7.58139
O -3.35245 10.0663 6.67365
H -3.17752 9.58185 5.81647
H -4.30465 10.371 6.69599
O 3.59956 9.60036 -4.11229
H 4.506 10.0065 -4.22842
H 3.68168 8.60409 -4.085
O -13.0517 -7.65843 -0.128639
H -12.1172 -7.3032 -0.106928
H -13.3876 -7.77029 0.806617
O 3.40767 -2.66808 13.0037
H 4.37224 -2.81614 13.2221
H 3.29108 -1.7559 12.6108
O 9.93439 -9.74483 -2.88295
H 8.94449 -9.67116 -2.76164
H 10.3914 -9.56288 -2.01226
O -3.86139 4.85783 3.6621
H -4.61528 4.86125 4.31911
H -3.5831 5.79877 3.46919
O 9.54601 2.90871 -14.0033
H 9.8107 1.94442 -14.014
H 8.54859 2.98062 -14.0062
O 8.38514 11.9232 -1.23033
H 9.23956 11.4316 -1.06229
H 7.79491 11.3735 -1.82144
O 6.83635 -10.8765 6.04555
H 7.42037 -11.0184 5.2463
H 6.60755 -11.7608 6.45248
O 4.97043 5.6042 -14.021
H 4.80539 5.72955 -13.0426
H 4.18362 5.94179 -14.5377
O 6.62288 3.34865 -14.1024
H 6.41425 2.76 -13.3214
H 6.03634 4.15815 -14.0758
O 5.68806 6.96698 2.1549
H 5.84161 7.73789 1.53672
H 6.56836 6.60851 2.46573
O -6.94069 -3.45373 0.58024
H -6.07714 -3.21963 1.0269
H -7.69461 -2.99634 1.05187
O 11.504 -8.93442 -5.07409
H 12.0814 -8.18532 -4.7493
H 10.9869 -9.31354 -4.30669
O -7.76688 13.0648 3.54407
H -8.57365 13.5243 3.17254
H -7.80322 13.0835 4.54325
O -6.15861 -6.43593 2.82831
H -7.08797 -6.09751 2.68069
H -6.13228 -6.98384 3.66445
O -12.3489 13.2681 14.3113
H -13.1717 13.39 14.8664
H -11.6269 12.8605 14.8704
O -0.444359 -3.20531 -11.5743
H -0.504392 -4.11345 -11.9887
H 0.438688 -2.79373 -11.7999
O 2.42599 -5.59785 -0.587782
H 1.43063 -5.50313 -0.606166
H 2.7673 -5.35402 0.320009
O -8.56339 0.741942 -4.3631
H -8.2497 1.41313 -3.69143
H -8.27534 1.02592 -5.27766
O 13.1421 -7.38161 -3.4104
H 12.4425 -6.69492 -3.21311
H 14.0479 -6.99227 -3.24286
O 5.49398 4.20932 -8.20194
H 5.0147 4.2942 -9.07551
H 5.79904 5.11254 -7.89999
O 7.36293 -10.4831 12.1682
H 7.09541 -11.0341 12.9588
H 7.02071 -9.55025 12.2809
O -2.59956 -9.22248 1.07968
H -2.63838 -9.95949 1.75447
H -1.85618 -8.59564 1.31312
O -8.72923 -5.45856 -12.6072
H -8.02152 -4.75467 -12.5463
H -9.26046 -5.47129 -11.7601
O -1.65358 -3.71572 5.03362
H -1.05543 -2.99433 4.68452
H -2.60741 -3.42695 4.95085
O -7.49905 -12.9604 -2.86492
H -7.98871 -13.807 -3.07382
H -8.01428 -12.1808 -3.22093
O 14.7628 13.4596 -14.5025
H 14.1088 12.7106 -14.3967
H 14.4652 14.0595 14.5058
O -12.9968 -2.91176 5.6231
H -13.0084 -3.00013 6.61913
H -13.9347 -2.9247 5.2764
O -0.598941 -1.78884 3.57483
H -0.689232 -1.01147 4.19739
H -1.07621 -1.58792 2.71933
O 0.89988 -6.72185 12.8438
H 0.330779 -6.35709 13.5808
H 0.571422 -6.37395 11.9657
O -14.7255 -6.84442 6.31048
H -14.2028 -6.16407 5.79672
H -14.1158 -7.58019 6.60526
O 5.68788 12.2243 8.02721
H 5.50502 11.4437 7.42952
H 6.66668 12.2689 8.22719
O 12.6746 -7.24384 0.316641
H 13.1079 -6.56398 -0.275052
H 12.4927 -6.83846 1.21251
O -7.10317 10.5972 3.0523
H -7.09429 11.5673 2.80959
H -7.87849 10.4118 3.65605
O -13.9095 -3.88274 -14.8247
H -14.4741 -4.69185 -14.6618
H -14.432 -3.21224 14.3996
O -6.60546 4.54988 0.555857
H -6.41113 4.14109 -0.335862
H -6.24333 5.48167 0.581416
O -7.68615 9.53483 9.75073
H -8.45117 10.1602 9.59668
H -7.14839 9.85211 10.5319
O -11.4757 14.3439 8.791
H -11.0549 13.9757 9.62011
H -11.1097 13.8674 7.99163
O 3.42165 -9.29882 8.3451
H 4.06553 -9.64407 7.66227
H 3.34033 -8.30622 8.25469
O -7.14414 3.80953 -6.72368
H -6.43947 3.75814 -6.01599
H -7.7692 4.56244 -6.51762
O -13.8675 8.44604 -6.86356
H -13.6491 8.50028 -5.88918
H -13.9043 9.36817 -7.24872
O -5.9178 -0.0906679 -1.09968
H -6.80794 -0.468283 -1.35478
H -5.80637 -0.141115 -0.107176
O 11.7008 -12.9304 6.39107
H 11.8587 -12.1532 7.00027
H 11.2563 -13.6677 6.89979
O -9.03325 -5.04171 2.87517
H -8.62904 -4.29425 3.40238
H -9.884 -4.72941 2.45242
O -5.90448 -2.13181 7.84015
H -5.28573 -1.43449 8.20199
H -6.77201 -2.09754 8.33639
O 3.56279 -4.15723 4.79941
H 3.77836 -4.98899 5.31101
H 3.22615 -4.40287 3.89036
O -13.4376 -6.45549 -11.1092
H -13.7029 -7.39748 -11.3149
H -14.143 -6.02608 -10.5453
O -0.562646 -8.58871 10.5547
H 0.0337616 -9.04733 9.89593
H -0.591109 -9.11748 11.403
O -1.11982 3.32808 7.57341
H -1.25036 3.50393 6.59767
H -0.571864 4.06242 7.97406
O -13.9552 -10.7169 -9.20854
H -14.1324 -10.4623 -8.25783
H -12.9695 -10.7108 -9.37708
O -14.6941 6.71023 -3.07944
H -14.2292 7.05078 -3.89675
H 14.1233 7.06756 -3.05372
O -2.22737 -13.0757 6.59257
H -3.16566 -13.3684 6.40835
H -1.75076 -13.7884 7.10719
O 13.1396 -12.7046 0.345362
H 13.2222 -11.7176 0.207276
H 12.8195 -12.8854 1.27535
O -5.5497 7.90034 7.69199
H -4.62933 7.55785 7.50322
H -6.21427 7.16714 7.54782
O -13.0041 -10.0276 13.705
H -12.3193 -10.7392 13.8618
H -13.725 -10.3839 13.1105
O -7.71262 1.22361 14.237
H -7.62905 0.331077 13.7938
H -8.09845 1.1065 -14.5989
O 14.1911 6.42504 11.1702
H 13.7279 7.28475 11.3856
H -14.643 6.43133 11.5691
O 9.70324 -12.1437 11.3242
H 10.4877 -11.9682 10.7293
H 9.19467 -11.2942 11.4645
O -12.8502 7.07312 5.48489
H -12.8013 7.33841 4.52195
H -12.6588 7.86856 6.05992
O -1.61241 8.66075 8.85731
H -1.99894 7.84347 8.42991
H -2.35311 9.25342 9.17377
O -11.3079 9.12834 -11.7975
H -11.0562 9.98656 -12.2449
H -11.1613 9.21079 -10.8117
O 14.3003 13.9295 -6.85062
H 13.5655 13.9855 -7.52658
H 14.2988 14.7557 -6.28728
O -5.42116 12.7709 -4.3386
H -6.08711 13.0479 -5.0313
H -4.61258 13.356 -4.40081
O 4.43941 11.4039 -9.62003
H 5.31942 11.1495 -10.0211
H 4.19533 12.3289 -9.91128
O -13.1502 1.31813 4.42795
H -12.3788 1.9237 4.62367
H -14.003 1.83803 4.47743
O 4.90047 9.81446 6.69262
H 4.77047 9.0814 7.36027
H 4.20156 9.74479 5.98079
O -13.7978 13.6022 1.2811
H -13.1394 13.012 0.813949
H -14.1015 13.1602 2.12516
O -8.30727 0.899453 9.4788
H -8.6202 0.158082 10.0725
H -8.96453 1.65244 9.51121
O 2.00127 2.60182 9.11008
H 3.00026 2.56782 9.08032
H 1.68862 3.49713 8.79275
O -3.33874 10.1301 -0.267991
H -3.04406 11.0841 -0.211387
H -4.29535 10.0934 -0.557078
O -12.3579 -10.9806 6.41326
H -11.889 -11.6502 6.98941
H -11.7427 -10.6787 5.68497
O 12.9614 8.83994 -5.18704
H 12.6104 8.13963 -5.8086
H 13.446 9.53935 -5.71247
O 1.88049 0.548328 -13.8698
H 2.22214 0.0217718 -13.0913
H 2.65024 0.845457 -14.4348
O 0.229172 -5.81896 -12.2115
H 1.19253 -5.66364 -11.9928
H 0.152805 -6.18534 -13.1389
O 2.96798 9.28965 4.89628
H 3.09711 8.55534 4.22984
H 2.245 9.90375 4.57971
O -5.38419 -2.46945 11.5311
H -4.64564 -2.38556 10.8622
H -6.04794 -3.14583 11.2118
O 13.4626 7.41134 2.95993
H 13.2967 6.5796 2.43011
H 12.9764 7.35365 3.83189
O 13.5835 7.44761 7.30168
H 14.1673 6.71166 7.64461
H 12.6618 7.09454 7.14102
O -6.03322 -3.85883 3.79803
H -6.23576 -4.77734 3.45841
H -5.36957 -3.41863 3.1932
O 12.3548 12.841 12.5173
H 11.7013 12.5627 13.2213
H 11.8957 12.8706 11.6294
O 2.20663 9.01369 -11.5272
H 2.72067 8.19155 -11.2825
H 2.23809 9.66457 -10.7686
O -2.54888 -8.76372 -12.1114
H -2.84809 -9.61752 -11.6854
H -1.81265 -8.3602 -11.5681
O -1.30583 -14.477 10.8675
H -1.27023 14.2838 11.0026
H -0.584009 -14.0411 11.4051
O 8.06611 2.80958 1.84364
H 7.40803 3.20948 1.20565
H 8.62206 2.12916 1.36616
O -7.02092 -8.62047 -5.90022
H -6.46148 -8.39151 -6.69686
H -6.57333 -9.3447 -5.37563
O -10.6135 -6.67554 0.829298
H -10.0889 -7.03945 0.0596272
H -10.1984 -5.8209 1.14123
O -9.16533 3.763 -9.97637
H -9.79329 4.40061 -9.53013
H -9.29789 3.80281 -10.9668
O 3.59087 3.94127 -10.7665
H 2.65471 3.93513 -11.1181
H 4.03184 3.06885 -10.9774
O -9.81846 -6.4138 14.7512
H -9.7311 -5.77294 13.9885
H -9.47735 -5.98491 -14.1634
O -4.68731 -11.2134 -12.0921
H -5.11039 -11.4388 -12.9697
H -5.2093 -10.4854 -11.6476
O -1.78421 -12.0395 -11.4711
H -2.63839 -12.003 -11.9899
H -1.9575 -11.769 -10.5241
O 6.49691 -10.3757 -6.57202
H 6.00517 -9.78878 -5.92884
H 6.35108 -10.0443 -7.50419
O 11.9654 -2.2507 12.6642
H 12.106 -2.59765 11.7369
H 11.0173 -1.94981 12.7673
O -6.50998 9.5763 12.1723
H -6.87226 9.16491 13.0087
H -5.92214 8.91667 11.7039
O -1.4249 11.2165 -3.25603
H -1.13954 11.9183 -3.90878
H -1.83117 11.6532 -2.4534
O -5.33859 -8.98244 -8.13299
H -4.74801 -9.68215 -7.73092
H -5.63107 -9.27591 -9.04313
O 6.16814 12.7381 3.48816
H 6.5219 12.6146 2.56099
H 6.07014 13.7146 3.68024
O -13.2501 -1.1354 -7.4507
H -12.3306 -1.15214 -7.05779
H -13.766 -0.373461 -7.0592
O 11.2468 -11.3139 3.01219
H 10.2979 -11.6285 2.98458
H 11.8332 -12.0523 3.34532
O -2.30683 1.4511 2.96411
H -1.93218 1.32663 3.8829
H -2.4976 2.42065 2.81046
O -8.22153 -2.41655 9.13192
H -8.85331 -3.14183 8.85835
H -8.53943 -2.00161 9.98444
O 1.77934 4.2254 -12.7296
H 2.31193 4.30955 -13.5718
H 0.820963 4.43955 -12.9185
O 1.4508 5.15278 8.08117
H 1.87701 5.64427 7.32169
H 1.04948 5.80942 8.71976
O 7.78082 -13.2502 3.85504
H 6.86142 -13.623 3.98064
H 8.29296 -13.832 3.22322
O 1.15074 -10.0022 -0.707869
H 1.83866 -9.40807 -1.1248
H 1.266 -10.9354 -1.04807
O -1.46915 -8.29901 14.3806
H -0.710774 -7.66036 14.5111
H -1.18704 -9.02868 13.7577
O -8.43677 13.0194 -3.88095
H -8.39534 12.031 -4.0277
H -7.8908 13.2604 -3.07854
O -5.38943 -13.2944 -10.407
H -5.50032 -13.058 -9.44172
H -5.11418 -12.4812 -10.9199
O 8.05131 14.5914 -6.73316
H 7.70811 13.6842 -6.4897
H 8.63473 14.521 -7.5423
O -4.89375 -13.8469 5.70103
H -5.49786 -13.1649 6.11331
H -4.87988 -14.6682 6.27141
O -4.79867 4.27952 6.97908
H -4.93739 3.38022 6.56428
H -4.81409 4.19307 7.97524
O -4.94746 4.41914 9.56695
H -5.37603 4.91529 10.3221
H -4.99767 3.43602 9.74301
O 10.4717 8.90368 5.81244
H 10.9598 8.03437 5.89058
H 9.56057 8.74148 5.43361
O 3.85976 -2.05453 9.20023
H 3.47498 -1.72139 10.061
H 4.70936 -2.5489 9.3841
O 3.83163 8.71852 11.1743
H 4.25695 9.55229 11.5263
H 4.53864 8.11091 10.8123
O -1.2968 3.42837 12.463
H -2.06278 2.93308 12.8729
H -0.43575 3.01586 12.7604
O -9.81369 -14.7646 -5.10864
H -10.7669 -14.7857 -4.807
H -9.30888 14.2427 -4.67038
O 4.02079 10.7376 -0.578878
H 3.70278 10.7381 -1.52698
H 4.93762 10.3408 -0.535032
O -5.26159 3.26761 -4.44325
H -4.57111 2.7553 -3.93255
H -4.81158 3.94722 -5.02261
O 9.81844 13.9478 -8.67464
H 10.7091 14.4007 -8.71514
H 9.86284 13.1818 -8.03331
O 6.55126 8.34073 10.2141
H 7.09437 7.67094 10.7205
H 7.12894 9.11779 9.96407
O 4.29944 -5.40938 12.8971
H 3.99295 -6.34789 13.0562
H 3.50442 -4.80784 12.8189
O -6.71913 13.4748 -6.5715
H -6.19833 13.8292 -7.34814
H -7.30918 14.1961 -6.2088
O 3.10157 7.53556 2.90222
H 3.99725 7.18862 2.62396
H 2.84124 8.29868 2.31069
O -4.32419 7.80911 11.5464
H -3.40765 7.96659 11.9141
H -4.42413 6.84455 11.3021
O 10.6209 4.23969 13.5731
H 9.75354 3.87775 13.2314
H 10.7279 3.99443 14.5367
O 7.06585 -6.52366 -5.97761
H 6.22243 -6.9832 -6.25598
H 7.71475 -7.20021 -5.6294
O 12.2942 -5.04981 13.4004
H 12.4474 -5.53225 12.538
H 12.1724 -4.07389 13.2194
O -9.97957 14.489 2.34159
H -10.1851 -14.3162 2.5928
H -10.4303 14.2684 1.47657
O -12.5591 -8.49301 7.61931
H -12.6195 -8.39567 8.61274
H -12.4612 -9.46013 7.38449
O 6.03106 10.0414 3.82233
H 6.09719 11.0321 3.70289
H 5.37865 9.83651 4.55198
O 5.63432 -8.94232 -0.196578
H 5.87763 -9.80438 -0.6412
H 4.67125 -8.73737 -0.371287
O -4.79408 -8.72293 8.20978
H -4.50164 -7.77451 8.08724
H -4.06916 -9.23894 8.66612
O 12.7635 -9.49089 14.0887
H 13.2213 -9.48601 13.1996
H 13.3961 -9.82502 14.7875
O 7.39518 0.110592 -6.04513
H 7.78091 1.02265 -5.90585
H 7.60057 -0.462851 -5.25203
O 2.80912 -1.10326 -11.6316
H 2.74833 -1.67156 -10.811
H 3.51816 -1.46588 -12.2364
O -9.7484 6.22793 -14.8344
H -8.9011 6.59045 -14.4463
H -9.64924 5.24539 14.7591
O 12.0579 -3.83672 4.87495
H 11.4484 -3.20478 5.35372
H 11.8965 -4.76779 5.20221
O 9.42742 -5.06016 -7.24026
H 9.48084 -5.43677 -8.16511
H 8.62392 -5.4316 -6.77501
O 14.6563 -2.81628 7.78447
H 14.0559 -3.30568 7.15196
H 14.5656 -1.83157 7.63558
O -9.74404 -4.6789 8.5321
H -10.4258 -4.44261 7.8397
H -10.2062 -4.9351 9.38111
O 7.70304 -10.3731 1.18258
H 6.77277 -10.044 1.02036
H 8.11487 -9.85291 1.93083
O 8.94664 4.35812 6.33134
H 9.22634 4.00992 5.4366
H 7.96152 4.53005 6.32902
O -1.74721 -10.1243 6.91651
H -2.30546 -10.9234 7.13988
H -1.20062 -9.86631 7.7132
O -0.385504 -12.2534 14.2752
H 0.044724 -11.5944 -14.8589
H -0.685137 -13.0521 14.797
O -8.01158 -10.7407 -7.5582
H -8.49329 -10.7505 -8.43449
H -8.06089 -9.82429 -7.16099
O 3.79302 5.45385 9.22532
H 2.84211 5.25295 8.98987
H 4.10436 6.24909 8.70503
O 10.7206 -12.7432 -3.10011
H 10.2265 -11.9278 -2.79849
H 10.1891 -13.5588 -2.87111
O 13.6667 -2.37206 -11.3105
H 13.4124 -3.18555 -11.8336
H 14.1968 -2.64438 -10.5075
O 13.3622 -4.0047 -1.47215
H 13.6234 -3.44307 -2.25725
H 13.8681 -3.70353 -0.663834
O -1.61513 7.49693 12.224
H -2.02161 6.74553 11.7042
H -0.653273 7.59651 11.9691
O 2.98892 12.0676 -2.92569
H 2.77104 11.2552 -3.46659
H 3.95345 12.3011 -3.04881
O -12.1827 11.5233 0.137432
H -12.6335 10.9127 -0.513702
H -11.5735 10.9918 0.725916
O -0.0213579 0.851206 13.8174
H 0.299786 0.69106 14.7508
H 0.730164 1.20901 13.2631
O 10.7742 -2.66408 8.66308
H 11.6104 -2.94343 9.13509
H 10.3288 -3.46847 8.2699
O -1.41677 3.96911 4.79572
H -2.15919 4.61157 4.6057
H -0.545964 4.37415 4.51702
O 14.3621 3.64263 12.0488
H 13.9677 4.45765 12.4734
H -14.7288 3.91727 11.3497
O 8.63355 2.51079 -4.63193
H 9.28358 2.6597 -5.37712
H 7.99358 3.27805 -4.58956
O 9.01911 2.19172 4.46064
H 8.15254 1.94557 4.89482
H 8.84142 2.56604 3.55051
O 12.6951 9.01346 -9.30172
H 12.6003 8.57513 -10.1955
H 12.8089 8.31286 -8.59729
O -10.5253 -8.48726 -5.53422
H -11.5128 -8.36117 -5.43959
H -10.204 -8.00359 -6.34839
O -9.29233 5.5781 -6.63574
H -9.95851 6.29617 -6.83727
H -9.33412 5.34802 -5.66345
O -4.94836 -8.06024 0.863269
H -5.23113 -7.3455 1.50297
H -3.96979 -8.23586 0.970996
O 6.12854 -12.1137 9.96117
H 5.16558 -12.0434 10.2215
H 6.66111 -11.4355 10.4677
O 14.7466 -2.91702 -3.43997
H 14.8244 -3.4786 -4.26374
H -14.5189 -2.05371 -3.57803
O 14.3653 11.0407 13.3766
H -14.7291 11.7115 13.0318
H 13.4506 11.4446 13.3872
O 3.59218 -8.01589 12.9866
H 2.70305 -7.67882 12.677
H 3.50258 -8.96566 13.2865
O 3.14132 -5.40494 -5.64875
H 3.27362 -4.45674 -5.3599
H 2.18716 -5.66727 -5.50457
O 4.18599 -14.7589 14.3696
H 3.32553 14.7958 13.8994
H 4.46083 14.1956 -14.8429
O 8.3218 -1.82069 -12.4049
H 8.91562 -2.08204 -13.1658
H 8.60302 -2.31005 -11.5793
O -3.11252 12.4029 -10.6725
H -3.71772 12.034 -11.378
H -2.86481 13.3436 -10.9045
O 0.466453 11.1961 -12.5523
H -0.439072 10.8752 -12.83
H 1.04991 10.4104 -12.3466
O -3.56898 14.2015 13.1094
H -3.94314 13.3192 12.8238
H -2.76042 14.414 12.5606
O 10.6738 0.580215 10.5065
H 9.90475 1.20677 10.3802
H 11.4307 1.06555 10.9443
O 6.17231 0.923926 -2.34397
H 7.07394 1.07727 -2.74842
H 6.17898 0.0659782 -1.83025
O 7.31201 13.7328 0.876879
H 8.10838 14.189 1.274
H 7.61582 13.0518 0.210541
O -12.8012 -1.10436 -12.1774
H -13.0224 -2.07932 -12.1542
H -12.1395 -0.930013 -12.9066
O 0.10621 1.14264 -11.6624
H 0.87473 1.13853 -12.3022
H -0.353658 2.02987 -11.6995
O -8.14701 -8.7861 8.28541
H -7.31917 -8.50916 7.79754
H -8.95174 -8.51057 7.75955
O 7.26862 1.3347 8.16835
H 7.84031 1.92691 8.73623
H 7.37962 0.384719 8.46033
O -3.52918 -2.10952 -6.14215
H -2.67944 -2.46149 -6.5347
H -3.99265 -1.53193 -6.81418
O -2.81385 -2.21594 -13.304
H -2.6669 -1.53655 -12.5851
H -1.95396 -2.38151 -13.7869
O 11.4378 13.4715 10.0713
H 11.1527 14.2141 9.46521
H 12.4269 13.3433 9.99893
O 8.10227 8.17019 4.4682
H 8.16861 7.29557 3.98792
H 7.37041 8.71822 4.06314
O 0.105265 -2.81956 8.50347
H 0.915158 -2.69828 7.92955
H 0.197058 -2.26547 9.33087
O 12.2719 10.6477 4.55432
H 13.2249 10.4884 4.81191
H 11.6698 10.1567 5.18397
O 8.92703 -4.96141 -1.75268
H 8.53919 -5.52168 -1.02076
H 9.42712 -4.19242 -1.35445
O -0.984022 -4.7651 7.25309
H -1.11166 -4.34033 6.35682
H -0.726267 -4.06569 7.91975
O 11.2184 -1.16358 -6.5409
H 11.2121 -2.16161 -6.60359
H 10.3936 -0.797356 -6.97186
O -4.75512 12.1676 4.59019
H -5.38821 11.4589 4.90166
H -4.69871 12.8903 5.27905
O -2.07095 9.87682 -13.1626
H -2.00731 9.86943 -14.1606
H -2.8638 10.4184 -12.8832
O 10.3309 8.77849 12.9639
H 9.41529 8.5738 13.31
H 10.6905 7.98051 12.4802
O -4.28687 2.1514 -7.47627
H -3.41096 1.97305 -7.02794
H -4.89057 2.63967 -6.84606
O -0.415711 -1.98101 -14.6891
H 0.404277 -2.42821 14.7046
H -0.566036 -1.12127 14.5738
O -13.3881 -13.7356 5.63293
H -13.6986 -13.8671 4.6915
H -12.827 -12.9096 5.68651
O 1.45786 5.26578 -7.10272
H 1.84937 5.98443 -7.67743
H 2.18153 4.63932 -6.8131
O 13.4645 -9.86786 -0.153685
H 13.2936 -8.95894 0.226721
H 13.9186 -9.77823 -1.04014
O -7.2046 2.82011 -2.5398
H -6.82424 2.14009 -1.91296
H -6.49893 3.10827 -3.18713
O -4.99976 -12.1724 -7.27735
H -5.79973 -12.3339 -6.69945
H -4.20675 -12.6403 -6.88722
O 7.41775 -4.83052 4.2388
H 7.79676 -3.91494 4.1043
H 6.97941 -5.13724 3.39392
O 0.0543003 -10.7491 -13.1581
H -0.574172 -9.97899 -13.2676
H -0.427422 -11.5143 -12.731
O -3.41743 -9.12008 4.82289
H -3.19868 -8.20051 4.49644
H -3.09909 -9.22376 5.7652
O 3.35594 13.3798 0.410609
H 3.6538 14.1328 -0.176179
H 3.4092 12.5201 -0.0974724
O 4.33015 12.7287 -13.4111
H 5.322 12.6273 -13.3339
H 3.9314 12.8106 -12.4977
O -3.10336 -9.84097 10.3092
H -2.20104 -9.46977 10.5284
H -3.04354 -10.8358 10.227
O -4.42181 -6.86139 -13.0762
H -3.78138 -7.48189 -12.6236
H -4.4228 -5.98027 -12.6033
O 9.83921 7.61637 8.53974
H 10.3912 8.35918 8.91861
H 9.02157 7.99602 8.10689
O 3.17739 6.74648 6.13874
H 2.71615 7.6244 6.01008
H 4.12129 6.90516 6.42841
O -2.26415 -6.76002 8.89049
H -1.58048 -7.24589 9.43507
H -1.80743 -6.10045 8.2935
O -10.7487 10.6947 13.9303
H -11.1796 9.98027 13.379
H -10.8425 10.4696 -14.8509
O 5.57613 -14.5922 -7.86835
H 6.55865 -14.6947 -7.71292
H 5.37364 -13.6421 -8.10593
O 6.80712 -9.89687 -12.3641
H 5.88569 -9.99195 -11.9873
H 7.23245 -10.7991 -12.4363
O -4.37346 7.05885 -2.65251
H -3.81652 7.84591 -2.91782
H -3.78072 6.26896 -2.49515
O -8.68564 12.5712 14.0506
H -9.2771 13.2812 13.6683
H -9.05638 11.6707 13.8235
O -10.641 13.7848 -0.16498
H -10.9553 14.2644 -0.984243
H -10.9552 12.8358 -0.193225
O -3.05541 -4.35848 12.8845
H -3.51744 -3.48259 13.0236
H -3.67574 -5.10467 13.1262
O -11.4954 8.16554 13.3207
H -11.5015 7.69028 14.2005
H -10.6418 7.96541 12.8396
O 3.98457 -1.12334 -3.06152
H 4.59457 -0.467906 -3.50687
H 4.29857 -1.28889 -2.12662
O 11.6602 -5.96121 2.49306
H 11.9878 -5.83165 3.42898
H 11.4272 -5.07365 2.0956
O -0.151706 -5.14572 -1.03024
H -0.654731 -4.78675 -1.81645
H -0.63814 -5.93498 -0.655421
O 6.72094 10.5945 -10.848
H 6.80041 9.84482 -11.5051
H 7.28254 11.3644 -11.1512
O -10.5877 2.02201 7.57975
H -11.2866 2.34942 8.21563
H -10.6262 2.55875 6.73686
O 1.71001 -14.267 5.2485
H 1.31152 14.8462 5.90754
H 1.88446 -14.7436 4.38687
O -3.71126 -9.74532 -4.90962
H -3.05254 -9.93377 -4.1812
H -3.61075 -8.79774 -5.21297
O -10.4583 -11.6873 13.9336
H -10.7534 -11.4158 14.8497
H -9.93795 -10.9421 13.5165
O 3.01864 8.37867 8.72603
H 3.13214 8.80173 9.62501
H 2.05618 8.14593 8.58629
O -1.23341 -10.5502 12.5192
H -0.765192 -11.0844 13.223
H -1.37681 -11.119 11.7093
O -13.1236 -5.33371 4.67241
H -12.3581 -5.86425 4.30827
H -12.8227 -4.39814 4.85729
O -1.01404 4.74745 -13.0637
H -1.56195 3.92314 -13.2064
H -1.55467 5.42485 -12.5648
O 7.10436 -6.54012 0.0200859
H 6.55013 -7.34873 -0.17743
H 8.01154 -6.82528 0.329504
O 13.3122 -11.334 -12.7641
H 12.7081 -12.0993 -12.5419
H 14.2649 -11.6225 -12.6678
O 9.97796 11.3897 -7.81716
H 10.817 11.6839 -8.2749
H 10.2108 10.8291 -7.0225
O 6.46825 -3.94553 -2.56556
H 5.58238 -4.3933 -2.68706
H 7.10029 -4.57442 -2.11272
O -5.87844 -14.4039 -13.0196
H -5.67377 -14.0788 -12.0963
H -6.86807 -14.3982 -13.1632
O -9.84029 -8.4965 10.4396
H -9.37074 -8.3176 11.3042
H -9.25116 -8.22601 9.67816
O -10.6548 -11.0963 -0.476641
H -10.7462 -10.6398 0.40839
H -9.72277 -11.4444 -0.577454
O -2.89137 -11.551 -9.00232
H -2.39895 -10.8125 -8.54156
H -3.81544 -11.6207 -8.62645
O -7.94041 -8.36393 1.35413
H -8.0542 -8.36814 2.34764
H -6.96744 -8.41922 1.12983
O -9.57607 -4.76667 12.3474
H -8.80717 -5.11478 11.8111
H -9.29302 -3.94421 12.8409
O 3.8261 -12.6794 5.29136
H 2.95388 -13.1676 5.32102
H 4.32538 -12.8368 6.14339
O 2.98142 -13.5866 10.4512
H 2.31932 -13.4659 9.71151
H 2.56472 -14.1192 11.1879
O -13.3633 6.11999 12.6197
H -13.246 5.29181 12.0716
H -12.491 6.36627 13.0423
O 8.44443 -8.0187 -13.6451
H 9.36808 -8.40197 -13.6426
H 7.79318 -8.71655 -13.3469
O 7.89784 -1.82277 6.14778
H 7.57811 -2.46086 6.84824
H 8.89048 -1.72268 6.21619
O -11.1643 -3.81118 -8.53061
H -11.6789 -3.59588 -7.70066
H -11.0696 -2.98604 -9.08758
O 0.0102621 0.683991 -8.97325
H 0.173497 0.889856 -9.93813
H 0.395842 -0.212219 -8.75377
O 2.58268 1.23929 -7.44988
H 1.60991 1.04638 -7.57848
H 3.07342 0.383478 -7.28622
O -8.94834 -1.2025 -11.0789
H -9.90543 -1.40471 -10.8712
H -8.67475 -0.364363 -10.607
O 7.78123 -12.2864 -12.3467
H 8.028 -12.7589 -13.1928
H 7.14845 -12.8543 -11.8202
O -3.01097 9.17803 -4.00724
H -2.425 9.87044 -3.58624
H -2.45658 8.57834 -4.58434
O -1.52372 -4.60514 -4.15651
H -2.34929 -4.06965 -3.97837
H -0.79403 -3.99799 -4.47107
O -2.14524 10.4769 -7.42474
H -2.05041 11.4522 -7.22536
H -2.01586 10.3228 -8.40431
O 10.3255 -2.64818 -13.928
H 11.3115 -2.52504 -14.0406
H 10.1446 -3.5518 -13.5396
O 1.00961 -5.15651 9.9838
H 0.425842 -5.0183 9.18371
H 0.708788 -4.55493 10.7238
O 14.6319 -1.86105 13.2689
H 13.6592 -1.9035 13.0408
H -14.7887 -0.9251 13.1469
O -14.3606 8.87026 -11.634
H -14.1305 8.81448 -12.6056
H -13.6181 9.32398 -11.1412
O -11.4265 -0.0646818 11.9908
H -11.6899 0.296858 12.8852
H -11.9723 -0.877144 11.7858
O 6.0275 6.59521 7.08337
H 6.53777 6.90207 7.88679
H 6.12578 5.60498 6.98428
O -0.814435 -5.32078 14.4616
H -0.30221 -4.59723 -14.8267
H -1.52037 -4.91184 13.8833
O -13.3978 -1.09587 1.18988
H -13.0412 -1.09696 2.12416
H -12.6416 -0.987033 0.544617
O -4.58507 13.2633 7.14937
H -3.91505 12.9337 7.81456
H -5.50713 13.1422 7.51703
O -10.8236 -0.582783 -14.2624
H -9.97608 -0.128594 -13.9877
H -10.608 -1.46111 -14.6891
O -5.26114 -6.27945 -8.02929
H -4.53744 -5.90673 -8.61013
H -5.35176 -7.26094 -8.19815
O 14.3106 -6.0936 -14.644
H 13.5006 -6.05583 14.5219
H 14.5695 -7.04786 -14.4944
O 0.242146 -9.84931 4.9115
H -0.411825 -10.0062 4.17141
H -0.227041 -9.92111 5.79169
O -11.567 -1.79809 -3.33964
H -11.6827 -2.38752 -4.13916
H -11.1597 -2.32469 -2.59342
O 0.78895 -10.1896 8.49915
H 1.72861 -9.85513 8.57102
H 0.795479 -11.1859 8.41313
O 9.60172 -0.408857 2.86837
H 10.2384 -0.474004 3.63676
H 10.1071 -0.186244 2.03468
O -14.6648 4.55807 -6.43637
H 14.5764 4.42439 -5.58653
H -13.9413 3.87096 -6.5026
O 0.510114 3.56145 -2.63577
H -0.0310007 2.72122 -2.60053
H -0.0588231 4.33614 -2.35972
O 1.28158 -8.44564 -9.20449
H 1.34297 -8.68317 -10.1739
H 1.85765 -9.06598 -8.67219
O -6.08802 12.9565 14.7652
H -5.99329 13.8758 -14.6038
H -7.05596 12.7573 14.6121
O -7.56553 8.37906 -10.3907
H -7.57504 7.40019 -10.1864
H -7.3753 8.89242 -9.55387
O 4.07111 14.5125 7.66902
H 4.56978 13.7039 7.98128
H 3.26688 14.2274 7.14753
O -12.3039 1.55312 14.4123
H -11.854 0.756938 14.817
H -12.8002 2.05237 -14.6285
O 11.2445 -13.3465 -6.03713
H 10.3496 -13.0689 -6.3865
H 11.3896 -12.9427 -5.13387
O 6.42605 -4.06763 -11.2827
H 7.23792 -3.48917 -11.2034
H 6.51254 -4.65492 -12.0875
O 12.1256 -14.3534 -8.32214
H 11.9646 -14.0541 -7.38164
H 12.8074 -13.7593 -8.74891
O -6.50722 10.1742 6.32231
H -7.14622 9.62561 5.78312
H -6.33214 9.71958 7.19562
O -7.88713 -13.0825 -6.21559
H -8.77235 -13.2605 -5.78579
H -7.96478 -12.2926 -6.82386
O -11.4589 -7.196 3.73392
H -10.9785 -7.03099 2.87251
H -12.4332 -7.32908 3.55204
O 0.73472 5.54358 4.44303
H 1.47126 6.07259 4.86457
H 0.880522 5.49799 3.45475
O 14.7909 -10.1267 -6.68523
H 14.4187 -9.3378 -7.1742
H -14.4082 -9.81053 -5.91359
O -8.35016 -5.09238 -4.19668
H -8.14296 -4.39445 -3.51112
H -9.03866 -5.72095 -3.83488
O 2.96728 -0.605287 11.5513
H 1.97113 -0.517482 11.554
H 3.38207 0.302331 11.6162
O 13.9135 5.88014 13.8743
H 13.4791 6.66675 14.3131
H 14.8467 6.12076 13.6073
O -0.202398 13.8025 -3.9091
H 0.480662 14.0084 -3.20834
H 0.165953 14.0297 -4.81059
O -3.16367 3.09481 -12.4089
H -3.59303 2.43624 -13.0269
H -3.76669 3.88386 -12.2914
O 5.54645 3.56529 1.01104
H 5.0611 3.38585 0.155318
H 5.02649 3.18399 1.77543
O -3.94749 -7.14929 14.0317
H -4.24898 -6.965 -14.7839
H -3.0361 -7.56046 14.0501
O -7.37198 13.2955 8.92542
H -7.79606 12.5264 9.40348
H -7.14129 14.0114 9.58453
O -11.0425 8.09236 -7.27331
H -10.864 8.70075 -6.49997
H -12.006 7.82458 -7.27131
O -3.25417 -0.943909 -1.11594
H -4.15119 -0.502323 -1.09599
H -3.29858 -1.76312 -1.68773
O -1.37047 -2.03847 -7.82755
H -2.02377 -1.45081 -8.30492
H -0.548047 -2.1453 -8.38634
O -13.1855 4.22254 10.574
H -12.8808 3.29323 10.3653
H -12.9911 4.81974 9.79578
O 8.25287 3.22232 12.4988
H 7.78206 2.36273 12.3001
H 7.62395 3.84782 12.9606
O 13.7582 4.79488 1.68468
H 14.7161 4.94426 1.43941
H 13.2227 4.63564 0.855286
O 3.61006 -11.0575 13.2268
H 3.9601 -11.3417 14.1194
H 3.63482 -11.8336 12.5966
O 3.30851 -3.74619 -9.85764
H 2.8431 -4.51176 -9.41342
H 4.0734 -3.44529 -9.28804
O 10.8227 -7.75486 11.3849
H 10.5748 -8.22587 12.2314
H 10.4943 -8.28247 10.6014
O -11.3667 2.3386 -6.37385
H -10.4705 2.14548 -6.77337
H -12.0218 2.53428 -7.10363
O 3.23421 13.388 10.3986
H 2.958 12.6507 9.78204
H 3.57241 14.1616 9.86264
O -9.15679 -13.446 -10.3652
H -8.54971 -14.2406 -10.3732
H -9.88797 -13.5784 -11.0344
O -4.19239 3.36942 -9.73902
H -4.32413 2.91936 -8.85577
H -3.21845 3.38021 -9.96564
O -10.1733 3.64659 14.5342
H -10.9619 3.06772 14.3267
H -9.48051 3.5339 13.8219
O -8.36726 10.3869 -4.14697
H -8.42137 9.79375 -3.3437
H -7.5168 10.2036 -4.64005