2593
Atoms. Timestep: 18495000
O -11.8652 7.52108 2.867
H -11.5894 7.28622 3.79909
H -11.0526 7.71933 2.31893
O -4.60728 -0.689177 -2.32936
H -4.50259 0.283657 -2.53584
H -3.91063 -1.21121 -2.82145
O 0.45255 5.04328 11.5295
H 1.09966 4.55255 10.9461
H -0.222301 4.40085 11.8926
O 11.1715 -14.9211 13.16
H 10.9709 -14.6913 14.1123
H 11.6155 14.0772 13.1196
O 8.89741 8.76079 -3.18834
H 8.34468 9.50895 -3.55542
H 9.6761 9.13694 -2.68619
O -10.5061 13.658 -3.23215
H -11.0706 13.6963 -4.05669
H -10.5808 12.7504 -2.81895
O -10.6045 -7.04314 3.2754
H -10.5418 -7.05281 2.27742
H -9.94441 -6.38899 3.64459
O -6.20943 4.96173 -9.36284
H -5.89563 4.87247 -8.41756
H -6.41297 5.9213 -9.55727
O 0.750511 -12.736 6.55799
H 0.729874 -13.6274 7.01071
H 1.65942 -12.3315 6.65954
O -7.01468 3.44319 -12.3398
H -6.32235 4.07987 -12.6794
H -7.40504 3.7974 -11.49
O -12.3565 1.23783 10.2084
H -12.0814 1.04951 9.26564
H -12.6496 2.19074 10.2861
O 7.72388 -12.8703 -0.905077
H 7.97716 -12.2085 -0.19949
H 7.1986 -13.614 -0.491423
O 5.94012 5.18832 -9.32996
H 5.54949 5.28948 -10.2449
H 6.59816 5.9231 -9.16537
O -4.22957 -7.27321 -13.033
H -4.83761 -6.47942 -13.0468
H -3.30807 -6.99191 -13.3008
O -2.48523 12.3633 0.795095
H -3.11067 12.1119 0.0564176
H -3.01193 12.6692 1.58819
O -14.9466 -7.12159 -0.598428
H 14.1741 -6.60391 -0.231382
H -14.8648 -6.94762 -1.57978
O -7.56017 5.97744 3.16638
H -7.28744 5.76857 2.22723
H -8.22538 6.72409 3.16205
O -12.6063 -0.797599 1.51476
H -12.9442 -1.07138 2.41521
H -13.2713 -0.190736 1.0795
O 12.4973 7.30842 1.8679
H 12.3724 7.00924 2.81389
H 12.9127 8.21798 1.85807
O 6.18081 10.1407 12.3829
H 7.09666 10.0423 12.7722
H 5.63902 9.32759 12.5959
O 1.00052 -7.393 10.7699
H 1.93485 -7.3147 11.1176
H 0.764907 -8.35883 10.6619
O 12.1421 14.8097 10.5027
H 11.1464 14.7177 10.4894
H 12.4454 -14.8775 11.4329
O -14.5127 0.997022 0.24223
H -14.2434 1.93106 0.00757771
H 14.4416 0.997232 0.585816
O -10.2461 -1.11029 -10.5767
H -11.145 -1.32184 -10.1931
H -9.85008 -1.93806 -10.9741
O -8.07936 -4.41277 1.29951
H -7.36089 -4.11066 0.672997
H -8.97409 -4.25335 0.88233
O 4.42365 -5.46752 10.7628
H 3.83456 -4.68635 10.9695
H 4.32051 -5.71715 9.79992
O 9.12471 -6.63624 -12.0142
H 8.52462 -7.27468 -12.4962
H 9.05477 -6.79224 -11.0289
O 8.90106 -4.54035 7.40774
H 9.77699 -4.86668 7.76306
H 8.67243 -5.04143 6.57309
O -9.33506 -4.28706 9.59793
H -8.41673 -4.33816 9.20543
H -9.50811 -5.10368 10.1486
O 4.27623 -9.0321 -12.3515
H 3.4742 -8.70761 -12.853
H 4.71558 -8.26106 -11.8906
O 9.06878 3.26277 0.867051
H 9.68361 3.5906 0.149758
H 9.54731 3.26974 1.74509
O 2.04815 -11.4869 -10.371
H 2.55796 -12.271 -10.0172
H 1.85782 -11.6242 -11.3431
O -3.0722 14.2484 -12.1882
H -2.98043 -14.6964 -11.8855
H -2.17018 13.8174 -12.2119
O 4.74473 -4.54286 -8.23666
H 4.64257 -3.88345 -8.98147
H 5.69345 -4.85643 -8.19688
O 12.6334 9.03611 -0.61727
H 12.1424 9.63154 -1.25314
H 12.109 8.19675 -0.47412
O -14.8199 7.30059 -14.0166
H -14.3455 7.23642 -14.8946
H 14.2727 6.70177 -14.0259
O -8.03027 13.9622 -9.35495
H -8.22647 13.2188 -9.99448
H -8.01119 13.6028 -8.42194
O 7.57931 3.21138 -2.71308
H 7.33631 3.32999 -3.67583
H 7.15545 3.93661 -2.17053
O 14.6776 -2.82507 -0.206576
H -14.2169 -2.83141 -0.161706
H 14.3042 -2.64478 0.703414
O 7.7897 13.1887 -8.90984
H 7.32037 13.9467 -8.4569
H 8.61575 13.5289 -9.35917
O 14.857 1.77239 -3.96206
H 14.9345 2.76682 -3.89075
H -14.1834 1.39668 -4.32415
O -9.61546 12.6362 12.3971
H -9.67814 11.9879 13.1559
H -8.75154 13.1363 12.4564
O -12.3204 12.0255 4.73238
H -11.6889 11.554 5.34791
H -13.2216 11.5952 4.78595
O -5.13608 1.40981 -6.51934
H -5.25527 1.9719 -5.7009
H -5.67841 1.79158 -7.26776
O -6.9954 -0.282826 9.80528
H -6.84005 0.687422 9.61959
H -7.96365 -0.433095 10.0051
O -4.50654 -13.3113 8.6439
H -5.41601 -12.8967 8.61253
H -3.82643 -12.6077 8.84994
O 11.8242 10.3999 -13.1024
H 11.587 9.47303 -13.3932
H 11.2768 10.649 -12.3035
O -9.59193 6.81407 -14.5674
H -9.94367 7.32587 -13.7836
H -10.1991 6.94562 14.5425
O -12.6112 -9.78615 5.01399
H -13.051 -9.38346 4.21125
H -12.7626 -9.197 5.8077
O 2.68155 12.8191 -1.84753
H 3.66265 12.8599 -2.03668
H 2.18153 12.6979 -2.70501
O -13.5485 -3.63341 8.51677
H -13.4755 -4.61701 8.68169
H -12.6663 -3.19872 8.69785
O -8.07998 6.60289 7.19387
H -7.61799 7.37328 7.63326
H -9.01751 6.53756 7.5356
O 10.1781 3.88134 3.32166
H 11.0664 3.72127 2.8911
H 10.3041 4.02099 4.30381
O -9.86876 4.88763 1.24214
H -8.9366 4.78326 0.895474
H -9.9512 5.76307 1.71838
O 12.2306 -14.079 -8.59083
H 13.2272 -14.1554 -8.56053
H 11.9191 -13.4847 -7.84936
O -8.49899 4.28333 10.3424
H -8.10967 4.33644 9.42284
H -8.13757 3.47743 10.8113
O -5.34755 4.99521 -6.74318
H -5.95206 5.56512 -6.18662
H -4.42734 5.38663 -6.74337
O -13.5796 -1.54338 14.415
H -14.3998 -2.07656 14.6221
H -13.3734 -1.61446 13.439
O -7.15892 -7.074 -6.18239
H -8.07157 -6.72599 -6.39678
H -7.21208 -7.68427 -5.39198
O -2.47557 -12.8361 4.73982
H -1.89226 -12.4378 5.44773
H -1.99137 -12.827 3.86491
O -0.102434 -14.8172 -9.89731
H 0.316053 -14.0933 -9.34876
H 0.590335 14.6633 -10.4885
O -3.23167 -6.41201 6.79824
H -3.66456 -7.02307 7.46097
H -3.85699 -5.66372 6.57679
O -5.3772 -13.2021 1.89118
H -4.64035 -12.9456 1.26568
H -6.1358 -13.5932 1.37003
O -13.3158 -13.0814 3.20186
H -13.8639 -12.326 2.84278
H -13.4214 -13.8805 2.61008
O 12.692 5.46461 -13.7746
H 12.3248 4.73815 -14.3555
H 13.1009 5.06194 -12.9556
O 12.0968 0.851373 9.06966
H 12.1999 -0.00923709 8.57094
H 11.3097 1.35266 8.71027
O -3.26094 13.5388 3.25766
H -2.41129 13.4267 3.77293
H -3.86685 14.1664 3.74655
O -5.18147 5.09313 -3.18004
H -6.07283 5.40679 -3.50728
H -4.45813 5.61794 -3.62875
O 0.0618446 -13.4465 10.8552
H -0.0653424 -13.5805 11.838
H 1.03298 -13.5271 10.6308
O -9.60936 -9.46997 -7.57627
H -10.0441 -8.65045 -7.94958
H -8.97592 -9.84814 -8.25134
O -12.2213 -5.45113 -14.3074
H -12.4604 -4.62717 -13.7936
H -12.9386 -5.64679 14.9173
O 14.2899 5.84934 -7.64954
H 14.7902 5.04568 -7.32722
H 14.6198 6.10492 -8.55832
O 0.242202 2.38088 5.13408
H -0.582638 2.17156 4.60889
H 0.714512 1.53048 5.36589
O -0.608459 12.9869 -13.0177
H 0.184355 13.4884 -12.6714
H -0.324597 12.0722 -13.3053
O -4.49211 -10.2615 -9.08323
H -3.4966 -10.2294 -9.1722
H -4.82937 -9.36744 -8.78839
O -0.737371 4.79187 8.10987
H -1.54298 4.35345 7.71141
H -1.00861 5.6443 8.55686
O -14.8137 11.3313 -1.40967
H -14.2668 10.7351 -0.822074
H -14.2176 12.0015 -1.85179
O 7.36902 -12.5906 3.8556
H 7.09195 -11.7612 4.34062
H 6.57706 -13.1905 3.74187
O -7.37972 -0.787675 -10.0958
H -6.72363 -0.408785 -10.7485
H -8.30959 -0.628759 -10.4276
O -13.1345 -8.21656 7.33322
H -12.32 -8.00211 7.87231
H -13.9274 -8.2826 7.93907
O 14.8031 4.10964 13.9531
H 13.8642 3.77076 13.8929
H -14.4531 3.34571 13.8514
O 8.05406 -3.51601 -6.53192
H 7.32664 -3.43269 -5.85081
H 7.82025 -4.23844 -7.18263
O 2.23914 -3.21332 -1.76756
H 1.55497 -3.92464 -1.60654
H 1.82225 -2.45833 -2.2737
O -2.30129 14.6679 -1.4805
H -1.83006 14.6371 -0.599032
H -3.24031 -14.9093 -1.3456
O -5.14566 -14.5535 -1.14463
H -4.99324 -13.689 -1.62374
H -5.78297 -14.4073 -0.388007
O 14.8732 3.70261 -13.0839
H -14.2458 4.02077 -12.5371
H -14.928 4.04031 -14.0207
O 4.48331 14.1821 7.52726
H 5.06632 14.7474 8.11076
H 3.9456 13.5598 8.09618
O 13.2271 -4.75696 12.5262
H 14.1445 -4.35893 12.5306
H 12.8636 -4.76708 13.4577
O 0.390256 -0.346133 -14.5017
H 0.333638 -0.379844 14.394
H 1.25777 0.0711557 -14.2309
O -4.8878 -4.88482 -5.45797
H -4.40865 -4.72202 -6.32047
H -5.87204 -4.77665 -5.59789
O 14.4182 -13.7552 12.3171
H 14.784 -14.6816 12.4062
H -14.8263 -13.1017 12.7068
O -10.6808 7.60487 5.59429
H -11.2913 8.37604 5.77448
H -10.89 6.85918 6.22688
O 14.8992 12.0684 -11.0936
H 14.8294 12.9589 -11.5432
H -14.328 12.1219 -10.3498
O -0.0218847 -1.39072 10.0993
H 0.382852 -0.478637 10.1648
H 0.27738 -1.828 9.25119
O 4.0343 8.00487 -8.67974
H 3.32384 7.50279 -9.17286
H 3.62406 8.78445 -8.20649
O -10.8588 12.8081 0.425275
H -11.4162 13.2741 1.11246
H -10.7269 11.854 0.694211
O -6.38744 -5.48467 -13.6875
H -6.64278 -4.99298 -14.52
H -6.99597 -5.215 -12.9412
O 11.783 5.86349 -7.83876
H 11.7041 6.54826 -8.56323
H 12.6887 5.44122 -7.87644
O 2.40064 -7.74489 6.70121
H 1.55876 -8.26227 6.54771
H 2.96509 -7.77437 5.87627
O 3.95744 2.96698 14.422
H 4.32702 2.17789 13.9313
H 4.14858 3.80087 13.9042
O 4.32938 -2.48048 -9.99001
H 4.38376 -1.6834 -9.38859
H 3.49209 -2.43069 -10.5345
O -4.13123 10.3873 -13.3999
H -3.67503 10.0405 -14.2194
H -4.47778 11.3087 -13.5761
O 5.50331 -14.3905 -11.7927
H 5.29905 -13.4538 -12.0772
H 6.49166 -14.4981 -11.6852
O -10.0778 -9.48737 4.19577
H -10.247 -8.54694 3.90089
H -10.9432 -9.91611 4.45528
O -13.202 12.2758 -9.17975
H -12.5753 11.9553 -9.89001
H -12.7708 12.1727 -8.28342
O -5.92905 1.58325 5.72539
H -6.20314 2.2674 5.04951
H -6.72289 1.03223 5.98269
O -8.4016 -6.96861 13.0377
H -9.02839 -6.48219 13.6464
H -7.52469 -7.10182 13.4995
O 8.24255 -3.07647 -9.86919
H 8.72869 -3.15188 -8.99857
H 8.78842 -2.53678 -10.5101
O -6.41663 -1.80375 -0.607263
H -5.67233 -1.32564 -1.07354
H -7.2906 -1.53571 -1.01265
O 1.33391 -10.6757 -13.0073
H 0.55189 -10.56 -12.3949
H 1.67193 -9.77791 -13.2896
O 2.59555 -11.4026 12.865
H 2.51482 -11.8534 11.9761
H 3.46635 -11.6532 13.288
O 7.82962 -11.6467 -13.1948
H 8.46027 -10.8846 -13.0481
H 8.09772 -12.4173 -12.6166
O 1.35708 1.74504 -3.40039
H 0.961563 2.09626 -2.55175
H 2.23357 2.19523 -3.57098
O -6.78597 -13.7432 -7.94379
H -7.09979 -14.69 -8.01558
H -7.47151 -13.1337 -8.34199
O 0.537603 -3.29561 4.6507
H 1.34242 -3.52754 4.10438
H 0.677841 -3.59495 5.59448
O -4.62367 2.50247 -3.47717
H -3.65693 2.38192 -3.70274
H -4.89188 3.44927 -3.65503
O -7.02944 -11.7456 12.1567
H -7.31434 -12.2146 12.9927
H -7.67425 -11.954 11.4213
O -13.6617 6.77589 8.80799
H -14.1926 7.25987 8.11234
H -13.0514 7.41982 9.26938
O -4.25561 -4.00151 -0.382152
H -4.30394 -4.65439 -1.13807
H -4.95175 -3.29459 -0.507267
O 1.01155 7.72341 -7.73971
H 1.72511 8.40886 -7.59487
H 0.225794 8.14981 -8.18779
O 5.65484 -14.2499 0.956929
H 5.225 14.8476 0.530587
H 5.05869 -13.8949 1.67705
O -0.510794 -14.2372 13.6342
H -0.7141 -13.6066 14.3832
H -0.888891 14.7549 13.8455
O 0.399022 -6.8468 -3.65224
H 1.05477 -7.59357 -3.76331
H 0.510515 -6.19144 -4.39928
O -9.19507 7.82965 2.10166
H -8.78295 7.41753 1.28906
H -8.78232 8.72538 2.26689
O 14.7565 -14.9414 -8.47085
H -14.5205 14.3742 -9.00567
H -14.6145 -14.456 -7.76981
O 9.70873 6.41931 2.31479
H 9.93917 5.52979 2.70931
H 10.4463 6.71606 1.7082
O 10.7904 7.05582 -1.10014
H 9.99259 6.46571 -0.976312
H 11.1711 6.91417 -2.01391
O 10.5334 -7.48838 2.43597
H 10.3334 -7.4455 1.45712
H 10.2201 -6.64751 2.87734
O -12.1722 -13.3612 9.95305
H -13.1047 -13.0306 9.80758
H -11.6444 -13.2512 9.11085
O 9.64842 6.46482 7.62152
H 9.80087 7.43695 7.79962
H 9.47038 6.32842 6.647
O -6.18017 -2.81412 -8.72415
H -6.6717 -2.1121 -9.23948
H -5.47317 -2.38259 -8.16385
O 6.72414 -8.46767 -9.47563
H 5.91853 -8.94862 -9.12968
H 6.46226 -7.89446 -10.2521
O -11.4964 -13.2803 -13.7642
H -11.9097 -13.8726 -14.4557
H -10.5468 -13.5555 -13.614
O -7.1353 -14.3717 5.54722
H -6.18073 -14.3391 5.25102
H -7.66217 -13.682 5.05046
O 6.40252 2.15145 -5.88691
H 6.20493 2.31507 -6.85345
H 5.58521 1.7932 -5.43562
O -7.25034 -5.97633 6.57204
H -7.84542 -5.60831 5.85759
H -6.64322 -6.66611 6.17758
O 11.2206 10.172 -2.60624
H 10.6633 10.8897 -3.02378
H 11.8109 9.76155 -3.30128
O -6.09738 -7.68466 14.5595
H -6.10583 -7.65556 -14.3344
H -5.37454 -7.08581 14.2147
O -2.8682 -6.28323 -9.13785
H -3.45587 -6.21543 -9.94411
H -2.89101 -5.41907 -8.63515
O -10.9954 -3.05644 2.41429
H -11.7967 -3.64582 2.51729
H -11.2806 -2.16458 2.06318
O -11.3903 2.99703 -0.661647
H -12.2406 3.38559 -1.01641
H -11.0638 3.55216 0.103375
O 4.49241 -2.5097 5.8432
H 4.24039 -3.20858 5.17383
H 4.15156 -1.61973 5.54026
O 6.27377 12.0534 -14.372
H 6.75155 12.4738 14.7501
H 5.7768 11.2453 -14.6881
O 9.97152 3.86856 -8.5732
H 10.3735 3.28983 -7.86363
H 10.4613 4.73965 -8.6099
O -10.3971 -0.153339 7.71827
H -10.7794 0.463055 7.0299
H -10.0309 0.3826 8.47899
O -13.1685 -1.91848 11.4899
H -12.3659 -1.5209 11.0452
H -13.9982 -1.56781 11.0555
O 2.91172 -14.762 -0.136869
H 2.58339 -14.6657 0.802773
H 2.55987 14.2807 -0.527377
O 0.598366 -5.21876 -1.22901
H 0.431292 -5.81077 -2.01743
H -0.246966 -5.11516 -0.70491
O -13.1732 -9.07934 -8.78004
H -12.664 -9.81961 -9.219
H -14.1159 -9.37235 -8.62016
O -10.6524 -12.8659 -10.1255
H -10.6238 -13.2514 -9.20328
H -9.73861 -12.5531 -10.3845
O 9.17092 -8.68374 -6.57034
H 8.28667 -8.21677 -6.56448
H 9.3181 -9.12989 -5.68757
O 1.46639 -14.726 2.87965
H 2.00725 14.5865 3.48783
H 1.60648 -13.7664 3.12374
O 10.4455 -4.6268 11.6118
H 10.0385 -4.59346 12.5247
H 11.3572 -5.03367 11.668
O 12.2882 3.41208 13.545
H 11.9949 4.00839 12.7978
H 11.6053 2.69558 13.6874
O 14.8665 -0.2331 10.0901
H 14.2846 -0.288477 9.2787
H -14.7603 0.718205 10.2447
O -0.880681 2.79346 -6.93943
H -0.677734 3.70351 -7.30085
H -0.241166 2.1302 -7.32816
O 11.5525 -0.746786 -6.82672
H 11.4832 -0.0993156 -6.06778
H 11.1163 -0.357361 -7.63795
O -14.7501 1.30622 -7.73665
H -14.4663 1.75337 -8.58488
H -14.3099 0.410915 -7.66838
O -0.863417 9.94917 6.65264
H -0.0947491 10.4411 6.2438
H -0.869613 10.1025 7.64079
O 0.346917 14.6193 7.82865
H 1.05629 14.3821 8.49236
H -0.545848 14.337 8.17973
O 3.75968 -3.87877 14.2023
H 4.25293 -4.63689 14.6289
H 4.35607 -3.07744 14.1555
O -3.53052 2.10264 -12.0849
H -3.16557 1.69597 -12.9224
H -4.02083 2.94476 -12.3095
O 2.73294 9.76854 -3.83221
H 2.79146 10.2188 -4.72318
H 2.63562 8.78193 -3.96309
O 13.5978 -3.69957 9.20813
H 14.5083 -3.67161 8.79551
H 13.6663 -4.04658 10.1435
O -4.37069 4.94802 -12.6846
H -4.90685 5.75252 -12.9401
H -3.51965 4.93414 -13.2095
O -2.8716 7.60012 0.802096
H -3.01428 7.97043 1.71998
H -3.14116 8.2819 0.122013
O -11.2806 13.8352 7.30343
H -10.896 14.7387 7.49259
H -11.5916 13.7975 6.35376
O 7.13739 12.6296 4.36628
H 7.31582 11.6598 4.53258
H 7.48507 12.8824 3.46341
O 10.944 -10.7467 -14.7075
H 11.9347 -10.6197 -14.6588
H 10.5486 -10.6369 -13.7955
O -3.50325 -2.59686 -14.2886
H -2.86839 -1.82494 -14.2558
H -3.73247 -2.79963 14.6528
O -13.4188 0.287877 -2.33159
H -14.2476 0.843046 -2.26135
H -13.1919 -0.0873969 -1.43289
O 10.7055 0.889582 0.267084
H 10.2581 1.77835 0.366578
H 10.9674 0.753378 -0.688339
O 8.99788 -5.0187 13.8348
H 8.72989 -5.25987 14.7675
H 8.30544 -5.34864 13.1932
O -6.98154 -11.2637 8.69175
H -7.19375 -10.8686 7.79796
H -7.80827 -11.6692 9.08169
O 5.40252 -6.68351 -11.3278
H 4.58838 -6.34367 -10.857
H 5.52733 -6.18046 -12.183
O 4.18443 -14.9393 11.4415
H 4.70019 14.1013 11.3595
H 4.247 -14.6009 12.3804
O -14.2755 7.08821 -9.81545
H -13.3343 7.01311 -10.1448
H -14.8468 7.49447 -10.5286
O -13.2092 -10.216 0.998087
H -12.9631 -9.47341 0.375224
H -12.4596 -10.8765 1.04191
O 7.25561 -0.0461037 4.62298
H 7.84866 -0.604344 5.20321
H 7.24125 -0.425738 3.69796
O -14.188 -8.67255 3.05203
H 14.7651 -8.62456 2.7153
H -13.5988 -9.05742 2.34159
O 10.0625 14.4334 -9.83598
H 10.0842 -14.4651 -9.93388
H 10.8825 14.1282 -9.35171
O -7.84716 2.00841 11.7264
H -6.84878 2.05861 11.7532
H -8.19282 1.76029 12.6313
O 8.33887 -4.9073 1.84893
H 7.9663 -4.52615 1.00281
H 7.62557 -5.42125 2.32543
O -11.8915 1.3652 -4.28531
H -11.4469 2.25933 -4.2323
H -12.2876 1.13665 -3.39598
O 2.42327 -8.87563 -4.48688
H 2.78371 -9.51624 -3.80887
H 1.77733 -9.35097 -5.08422
O 6.10161 -5.99657 3.55433
H 5.88136 -5.04315 3.34821
H 5.25754 -6.53057 3.60326
O 1.24829 -1.09432 -3.8141
H 1.32213 -1.27473 -4.79491
H 1.05364 -0.1245 -3.6673
O 11.159 11.2638 11.2055
H 11.449 11.1977 10.2507
H 10.4101 11.9221 11.2816
O 1.16032 8.9824 -11.498
H 1.64222 9.84018 -11.3191
H 1.74422 8.21225 -11.2412
O 11.4961 -5.509 8.51945
H 12.3426 -4.98105 8.45072
H 11.6935 -6.47695 8.36413
O 14.2707 6.85834 -1.88919
H 13.5761 6.75034 -2.60042
H 14.1485 7.7409 -1.43515
O 3.98665 -8.12597 -1.88822
H 3.25148 -8.60458 -1.40817
H 4.42206 -8.74957 -2.53748
O 1.50057 12.1765 -5.73117
H 1.56328 13.0783 -5.30357
H 0.53976 11.9102 -5.80813
O 4.54284 9.41996 -12.3607
H 4.83705 8.47274 -12.4881
H 4.23295 9.54895 -11.4188
O -1.4897 12.5661 -2.96611
H -1.55796 11.692 -2.48511
H -1.67183 13.3134 -2.32702
O -0.918652 10.7374 9.27948
H -0.416045 10.0558 9.81123
H -0.551423 11.6474 9.47205
O 14.013 9.60337 1.75671
H 13.6134 10.4085 2.19499
H 13.6846 9.53942 0.814322
O -14.0594 8.79215 3.64773
H -13.1858 8.47086 3.28219
H -14.6486 9.08436 2.89448
O 0.786481 9.08721 3.61416
H 0.738575 9.53249 2.72006
H -0.0118078 8.49738 3.73598
O 2.9748 9.76356 10.7652
H 3.58397 10.136 10.065
H 3.50416 9.20775 11.4061
O 6.84679 -0.830928 -10.2078
H 7.25698 -1.69868 -9.92721
H 7.5538 -0.236519 -10.591
O -5.09397 3.04893 11.4126
H -4.61259 3.73702 11.9555
H -4.43206 2.52255 10.8789
O -2.9572 -13.2698 -10.9577
H -3.16797 -13.5573 -10.0234
H -2.34071 -12.4828 -10.9332
O -1.27246 3.41755 12.8016
H -2.15644 2.99797 13.0078
H -0.713792 2.77634 12.2755
O 2.30702 10.3823 -8.07537
H 1.59516 10.7585 -7.48227
H 2.1195 10.6371 -9.02401
O 14.5088 -14.1477 8.51055
H 13.8838 -13.8973 9.24986
H 14.694 -13.3446 7.94421
O 6.90379 -10.4886 5.89987
H 7.89352 -10.4273 5.7707
H 6.6211 -9.85123 6.61673
O 8.04538 -12.0221 8.61155
H 8.49222 -12.3797 7.79152
H 8.73025 -11.8668 9.32347
O 8.77954 9.74677 14.0195
H 9.4855 9.41531 13.3936
H 8.4448 8.98695 14.5769
O -5.63769 -9.25571 9.91198
H -4.71119 -9.632 9.91151
H -6.29532 -9.98891 9.73893
O 11.8451 -14.8404 7.80995
H 11.7726 -14.8457 8.80731
H 12.7518 -14.5137 7.54332
O 14.1835 8.04719 7.58071
H 14.1774 8.99252 7.25466
H 13.2554 7.77694 7.83677
O 8.21904 11.5637 9.04757
H 7.56835 10.8054 9.08837
H 8.19964 11.9708 8.13439
O 2.83869 13.4279 -9.1059
H 3.76931 13.7498 -8.93157
H 2.2395 14.2122 -9.2669
O -3.66035 4.79703 4.4328
H -3.87825 4.14739 3.70444
H -4.26841 5.58816 4.3667
O -4.90446 -4.20365 6.2278
H -5.49578 -4.83397 5.72478
H -5.44738 -3.43445 6.5648
O 8.50347 -10.7757 0.748457
H 7.69311 -10.2883 0.423201
H 8.75631 -10.4349 1.65395
O -7.40561 -11.2642 -0.889516
H -8.0505 -10.7225 -1.42862
H -6.57798 -10.7283 -0.722733
O 3.69131 1.53607 11.629
H 3.7327 1.39144 10.6404
H 4.61845 1.63416 11.9907
O -13.3628 8.70161 -6.9283
H -13.7993 9.5786 -6.72742
H -13.9416 8.17634 -7.55208
O -5.96443 7.92699 0.632935
H -5.66417 8.29332 1.51364
H -5.41191 7.12704 0.39884
O 13.4453 14.4036 -4.39959
H 13.308 -14.9412 -3.57494
H 12.574 14.0022 -4.68185
O 0.0401368 7.13602 -2.00712
H -0.590377 6.80526 -1.30495
H 0.398416 8.03026 -1.73886
O -1.33108 -10.8496 -9.75574
H -1.35745 -10.3236 -10.6058
H -0.389298 -10.8985 -9.42307
O -1.66496 8.18385 -13.8778
H -1.65286 8.77717 -14.6827
H -2.36141 8.50609 -13.2366
O 1.49211 1.26185 8.72928
H 1.20131 0.956039 7.82269
H 2.48803 1.20274 8.79742
O -10.6745 11.019 -2.16898
H -10.3923 10.9213 -1.21462
H -11.4334 10.3958 -2.3576
O -4.33348 9.97006 -3.85387
H -3.76187 9.1993 -4.13527
H -3.9812 10.8126 -4.26142
O -12.7124 -3.18679 -12.8608
H -13.5287 -3.17725 -12.2833
H -12.3337 -2.26304 -12.9179
O 4.95791 -14.5462 -8.97637
H 5.69909 -14.4432 -8.31301
H 5.2578 -14.2043 -9.86698
O 7.10063 3.07432 8.03213
H 7.44985 2.54936 7.25594
H 7.84797 3.26554 8.66846
O -13.9633 6.71152 5.36769
H -13.9996 6.90014 6.34906
H -14.3301 7.49377 4.86412
O -12.9768 4.15904 5.0093
H -13.2487 5.1195 4.94943
H -11.9979 4.10134 5.20545
O -0.490367 1.57264 10.7689
H -0.0798038 1.67901 9.86329
H -1.47335 1.74723 10.7118
O 10.3657 -13.3268 -14.0878
H 10.9537 -13.8926 -13.5097
H 10.8158 -12.4517 -14.2658
O -11.4283 11.2702 -11.1792
H -11.3902 11.8629 -11.9836
H -10.4989 11.0521 -10.8815
O 8.22204 -14.4413 -12.0763
H 8.89758 -14.6483 -11.3686
H 8.4988 -14.8693 -12.9367
O -6.42166 -2.13824 8.01569
H -6.95259 -1.83624 7.22391
H -6.54868 -1.49212 8.76827
O -4.89357 -0.207035 3.94793
H -5.66361 -0.398532 3.33935
H -5.06757 0.640679 4.44903
O -7.04094 -4.0456 13.2403
H -7.33273 -3.49072 12.4612
H -7.81962 -4.5681 13.5876
O -9.99736 0.965713 -8.88583
H -10.0468 0.362015 -9.68151
H -9.50578 0.504245 -8.14732
O -3.55621 -11.9936 0.178302
H -3.64375 -12.3334 -0.758127
H -3.98887 -11.0948 0.248577
O 1.9799 -10.1285 8.64581
H 1.74046 -9.36755 8.04278
H 1.18651 -10.3752 9.2023
O -10.7543 3.94495 -4.43611
H -11.3325 4.75038 -4.56629
H -9.99499 3.97112 -5.08631
O 8.77962 -9.47748 3.31728
H 9.30744 -9.8146 4.09687
H 9.11302 -8.57171 3.05568
O -11.1212 12.0403 -7.38636
H -11.2304 11.0532 -7.50283
H -10.1574 12.2841 -7.49418
O -8.48962 1.33494 14.1549
H -8.35612 0.45961 14.6196
H -9.42241 1.65814 14.3144
O -4.34999 -9.61584 -3.3156
H -3.60752 -8.97751 -3.51874
H -4.92382 -9.72872 -4.12676
O -14.2231 3.7914 -6.82374
H -14.3433 2.80358 -6.92257
H -13.2484 4.00308 -6.75239
O 4.17401 2.35849 8.76875
H 3.89528 2.67638 7.86253
H 5.09969 2.68176 8.96524
O -6.71531 10.2444 -8.98512
H -5.84423 10.3631 -9.4617
H -6.61227 10.5189 -8.02905
O -11.8423 6.50782 -10.9609
H -11.7198 7.27361 -11.5922
H -11.7554 5.64629 -11.4611
O 0.875148 -10.6014 -5.93936
H 1.48739 -11.3714 -5.75946
H 0.182541 -10.5511 -5.2198
O -5.65634 -6.66328 3.35261
H -5.10594 -7.33433 2.85587
H -5.64635 -5.79336 2.85951
O 12.6348 -5.20544 -14.6561
H 12.9362 -5.99544 -14.1222
H 11.7689 -4.86577 -14.2889
O 10.8043 8.60386 8.70529
H 10.3484 8.41447 9.57497
H 11.3565 9.43302 8.79204
O 1.98853 0.472859 -11.38
H 2.16811 0.55607 -12.3602
H 1.81841 -0.485948 -11.1525
O -1.83075 9.12697 -4.43709
H -1.79947 9.88956 -5.08322
H -0.914034 8.74159 -4.33168
O -13.0828 13.6648 9.41975
H -12.5193 13.5983 8.5963
H -13.2669 14.6269 9.62087
O 6.57354 7.92739 -9.18754
H 5.58806 8.02022 -9.04537
H 7.06195 8.43802 -8.47993
O -13.9292 11.2644 -13.4148
H -13.4936 12.0848 -13.7852
H -14.4488 11.5043 -12.5947
O -6.60803 4.1217 14.5892
H -6.13206 3.32571 -14.9303
H -7.58044 3.91148 14.4881
O 13.6388 5.20372 0.0623719
H 13.7292 5.6638 -0.820886
H 13.4381 5.8798 0.77134
O 10.8891 3.8165 -1.02964
H 11.6813 4.20946 -0.56275
H 10.9937 3.93109 -2.01753
O 0.0137869 -5.2339 9.43647
H 0.372007 -6.02911 9.92568
H -0.677489 -4.78018 9.99885
O -7.83214 8.42122 5.10783
H -8.78283 8.23965 5.35928
H -7.24767 7.69337 5.46647
O 2.96428 -3.95221 3.42383
H 3.89942 -3.70247 3.17253
H 2.91318 -4.93866 3.57971
O -14.1837 -6.79619 4.97403
H -14.6208 -7.5053 4.4208
H -13.66 -7.22383 5.71086
O -2.82681 1.01026 -8.1572
H -2.18278 1.7524 -7.97157
H -3.67554 1.17171 -7.65363
O 6.32623 -9.1871 -3.33621
H 6.09882 -9.44654 -4.27481
H 7.14684 -8.61562 -3.33787
O 1.65163 7.92524 6.8053
H 1.60983 8.8971 7.03711
H 1.04875 7.74153 6.02891
O -9.83254 4.73982 5.01518
H -9.05119 4.62765 4.40125
H -9.74181 5.60041 5.51633
O 5.65174 1.16012 13.3756
H 6.13977 0.886835 12.5466
H 6.31196 1.38656 14.0917
O 10.0838 2.76401 -4.11848
H 9.99751 2.05081 -4.8141
H 9.19462 2.91906 -3.688
O -10.2797 9.08148 -7.99449
H -10.0952 8.17126 -8.36525
H -10.3455 9.02847 -6.99806
O -5.39312 1.64392 -14.7362
H -6.18916 1.26006 14.6893
H -4.7187 0.922433 -14.5793
O 10.2204 -10.2867 -11.7809
H 11.0906 -10.732 -11.5701
H 9.83546 -9.8948 -10.9453
O -6.65114 -4.68763 8.95629
H -6.47663 -3.74625 8.66757
H -6.889 -5.24218 8.15885
O -12.6276 -5.7127 0.207508
H -13.0736 -5.55861 1.08914
H -13.3167 -5.72526 -0.517022
O 1.71498 4.11071 9.13215
H 0.945977 4.609 8.73172
H 1.67366 3.15198 8.85087
O -2.41484 -3.22457 6.93952
H -2.13164 -3.53796 7.84593
H -3.34967 -3.52995 6.75829
O 13.2894 -14.7709 0.364274
H 12.5905 -14.2455 0.849716
H 14.1679 -14.6677 0.830721
O -2.75715 -0.760771 6.02826
H -2.41943 -1.65629 6.31805
H -3.13505 -0.829857 5.10499
O -13.2418 2.49054 7.33086
H -13.3109 3.08543 6.53003
H -13.0286 3.0413 8.13781
O -5.53962 12.977 -2.71876
H -5.39914 13.7674 -2.12247
H -5.64991 13.2872 -3.663
O -2.63697 -1.71285 -9.21878
H -2.94488 -0.832115 -8.85892
H -2.47987 -1.63414 -10.2032
O 0.0777916 3.53152 -1.11963
H -0.118438 3.97125 -1.99606
H -0.183738 4.14386 -0.373543
O 5.70073 -13.2278 8.13345
H 5.07607 -12.8516 7.44913
H 6.59559 -12.7905 8.04406
O -5.27835 7.14668 5.72603
H -4.94699 7.71185 6.48153
H -5.59836 6.26869 6.082
O 5.66657 14.8173 -4.3581
H 5.57559 13.8655 -4.06502
H 5.79798 14.8498 -5.3489
O 6.92981 -6.86084 8.31266
H 6.91014 -7.85553 8.21163
H 7.5667 -6.61247 9.04251
O 5.79422 -6.1743 -1.8019
H 6.50959 -6.49775 -2.42129
H 5.12475 -6.90278 -1.65657
O 2.95132 5.31829 4.30321
H 2.0492 5.15803 4.70382
H 3.32287 6.17868 4.65205
O -1.22579 -4.84764 -14.9161
H -1.90647 -4.11518 -14.9028
H -1.13603 -5.20233 14.0467
O 4.2249 1.42608 -4.52918
H 3.79706 2.28183 -4.23824
H 3.63159 0.658026 -4.28818
O 4.76542 -9.04841 3.9985
H 4.54943 -9.32607 3.06241
H 5.74908 -9.13857 4.15434
O 9.81814 -10.3601 6.34672
H 10.2653 -11.2364 6.52648
H 9.76773 -9.8316 7.19413
O 11.0938 12.8535 -14.4372
H 10.281 12.8229 14.8745
H 11.2293 11.9612 -14.0065
O -9.52967 -4.94488 -14.8811
H -9.27519 -4.62417 -13.9688
H -10.5037 -5.1707 -14.8954
O 10.481 -11.604 10.3484
H 9.95273 -11.6997 11.1921
H 11.3239 -12.1371 10.4207
O 12.3592 6.9316 -3.69705
H 11.7279 6.30344 -4.15197
H 12.4194 7.78117 -4.22106
O 13.8148 -9.97407 -0.808659
H 14.1836 -10.7608 -1.30374
H 14.5451 -9.31074 -0.645439
O 0.170435 -9.18625 6.04191
H -0.490567 -8.62433 5.54459
H -0.308999 -9.92718 6.51219
O -7.65891 2.92783 -3.4722
H -6.68044 2.81955 -3.29652
H -7.84443 2.75902 -4.44023
O 12.2903 -7.8939 7.82924
H 12.5834 -7.97911 6.87694
H 11.619 -8.60548 8.03631
O 3.10725 -11.5292 6.45342
H 2.84356 -11.0198 7.27258
H 3.74594 -10.9823 5.91209
O 3.21122 -7.43238 12.2285
H 3.59601 -6.55933 11.929
H 3.86564 -7.89829 12.8241
O 0.407797 8.74395 10.5946
H 0.305383 8.04071 11.2981
H 1.33457 9.11794 10.6295
O -7.17249 10.5442 10.6072
H -7.15552 9.96242 11.4204
H -6.7941 11.4422 10.8319
O -8.52985 -6.39331 -2.29101
H -8.00968 -5.65806 -2.72555
H -9.24954 -5.99952 -1.7192
O 6.03097 0.357995 0.854376
H 6.53246 0.220822 0.000151398
H 5.97042 1.33642 1.0519
O -0.943719 10.5615 -1.04405
H -0.0645422 10.2036 -1.35857
H -0.841369 10.9334 -0.121429
O 7.94296 -6.22131 5.49436
H 7.28991 -6.23126 4.73712
H 7.45994 -6.39133 6.35331
O -8.15464 3.9411 7.36195
H -8.44738 3.61681 6.46243
H -7.84589 4.88953 7.2901
O 13.2117 -8.39359 1.65278
H 13.3086 -9.01951 0.878929
H 12.3784 -8.61582 2.15893
O 6.98903 -3.97614 -0.568044
H 6.33717 -3.23517 -0.729469
H 6.61158 -4.834 -0.916766
O 6.59411 -9.0478 -0.413222
H 6.67964 -8.06715 -0.237141
H 6.10545 -9.19052 -1.27394
O 4.07165 13.3314 -12.7056
H 4.80806 12.8411 -13.1718
H 4.43114 14.1779 -12.3131
O 4.07754 -9.14379 -8.87436
H 3.3553 -9.80754 -9.06876
H 3.76873 -8.22917 -9.1353
O -0.839664 -10.6589 -3.83381
H -0.376427 -10.3043 -3.02162
H -0.930006 -11.652 -3.75905
O 3.35969 12.5676 14.2254
H 2.58034 12.8048 14.8053
H 4.0052 13.3311 14.2059
O -0.84034 10.9271 -7.16721
H -0.545759 11.6058 -7.83989
H -0.751673 10.0107 -7.55755
O 10.8607 5.3842 -5.14681
H 11.0355 4.44637 -4.84689
H 11.4299 5.59118 -5.94252
O 5.32487 -1.79307 13.3455
H 5.20554 -0.810435 13.2034
H 5.33964 -2.25847 12.4605
O -10.0134 14.9378 3.88061
H -9.99391 -14.0098 4.20443
H -9.24631 14.4337 4.27753
O 9.30001 -1.28872 6.40873
H 8.75675 -2.08072 6.6873
H 10.1308 -1.60003 5.9473
O -0.142265 11.6051 1.8837
H -1.04935 11.9056 1.58885
H -0.1064 11.5845 2.88284
O 11.0589 -4.33753 -3.56337
H 12.0243 -4.0773 -3.54813
H 10.5493 -3.69432 -4.13485
O -7.11234 6.17874 -4.7463
H -7.91512 5.8547 -4.24575
H -7.10275 7.17869 -4.74946
O 5.59709 12.6127 11.1492
H 5.62354 12.2484 10.2183
H 5.72674 11.867 11.8027
O -13.5768 -6.09736 9.77871
H -14.2966 -6.7867 9.69654
H -12.6958 -6.50511 9.53873
O 8.07831 13.4273 -0.626423
H 7.39487 13.374 0.101637
H 8.93807 13.0294 -0.306295
O -4.81904 -14.1021 14.2346
H -4.47926 -13.3848 14.8429
H -4.24427 -14.146 13.4174
O 8.94214 4.5782 -13.6573
H 8.00619 4.28763 -13.4584
H 9.07886 4.60705 -14.6475
O 6.27744 4.28278 4.8116
H 5.43104 3.85055 5.1227
H 6.06704 4.95519 4.10196
O 14.9349 9.67744 -3.63834
H -14.8965 10.3158 -2.87112
H 13.9808 9.59375 -3.92592
O -13.9793 1.49497 13.5081
H -14.7026 1.64381 12.8338
H -14.0039 0.544875 13.8191
O -4.36423 -3.56895 13.1345
H -5.33242 -3.70891 13.3419
H -3.92113 -4.45496 12.998
O 13.8856 8.35112 -11.6679
H 14.2422 8.28002 -12.5995
H 13.9166 9.30555 -11.3711
O 2.3459 13.6761 9.55657
H 3.08665 14.3462 9.60373
H 2.37772 13.0867 10.3638
O 4.75007 -13.3574 3.46317
H 4.5392 -14.1739 4.00069
H 4.00328 -12.6983 3.55137
O -8.94962 5.24616 -2.58422
H -8.3994 4.41592 -2.49501
H -9.74206 5.06005 -3.16508
O -1.32663 -6.79366 -12.8331
H -1.2929 -6.30787 -13.7065
H -1.34421 -6.13154 -12.0839
O 13.353 8.53305 -7.1922
H 13.3959 9.02408 -8.06229
H 13.4489 7.55162 -7.35827
O 10.5957 1.47979 12.9834
H 11.1201 0.808185 12.46
H 10.0409 1.00855 13.669
O -8.68226 -5.01899 4.00174
H -9.39247 -4.37177 4.27871
H -8.3026 -4.73992 3.11971
O 0.883309 2.06681 -9.41512
H 1.30436 1.74238 -10.2621
H 0.190099 2.75485 -9.62974
O 2.05289 6.78328 -10.0654
H 1.52518 6.65058 -9.22639
H 1.62585 6.27311 -10.812
O -7.25786 11.0766 -14.8163
H -8.16056 10.8212 14.7309
H -6.55135 10.6462 14.5154
O 11.9797 -0.871668 -11.6967
H 12.0205 0.0982764 -11.9365
H 12.8686 -1.29564 -11.8702
O -4.56761 -3.92893 2.39574
H -3.87678 -3.76451 3.09982
H -4.13126 -4.32049 1.58563
O 9.68231 2.18288 9.97596
H 9.196 1.41872 9.55221
H 9.7706 2.01813 10.9583
O -8.62123 -12.1968 1.54966
H -8.21429 -11.5533 0.901395
H -8.26545 -13.1151 1.37562
O -5.03995 -5.6488 -2.5498
H -5.93138 -5.23369 -2.36806
H -4.85045 -5.61517 -3.53111
O 2.07808 7.27866 -4.40927
H 1.40487 6.9839 -3.73111
H 2.18231 6.56878 -5.10584
O -3.93659 11.996 -6.01853
H -4.25318 12.8872 -5.69362
H -3.75902 12.0434 -7.00149
O 12.0949 11.03 8.40074
H 11.4504 11.6424 7.94296
H 12.946 11.5208 8.58698
O 8.99155 12.4221 13.7776
H 8.98501 12.7798 12.8438
H 8.73251 11.4563 13.7664
O -3.87136 -13.6386 -8.38443
H -4.86214 -13.7384 -8.29271
H -3.59471 -12.7376 -8.05042
O 11.6374 -10.3305 3.10625
H 11.5414 -11.3057 2.90683
H 10.9555 -9.8154 2.58693
O 11.8628 7.63389 13.2334
H 12.8099 7.95496 13.237
H 11.5192 7.59868 14.1718
O -11.9868 -7.2398 -7.04904
H -12.3087 -7.75919 -7.84066
H -12.5721 -7.43496 -6.26201
O 13.4447 12.1049 2.99943
H 13.6381 11.8132 3.93618
H 14.2678 12.5075 2.59902
O 5.19173 12.8337 0.488644
H 5.60349 12.0042 0.11125
H 4.25353 12.6395 0.775108
O -11.3754 2.68227 13.6257
H -12.3007 2.30785 13.5649
H -11.179 3.22026 12.806