LAMMPS data file via write_data

7840 atoms
13 atom types
7720 bonds
13 bond types
14250 angles
23 angle types
16140 dihedrals
19 dihedral types
8800 impropers
17 improper types

0.0000000000000000e+00 4.3771368435108599e+01 xlo xhi
0.0000000000000000e+00 4.3771368435108599e+01 ylo yhi
0.0000000000000000e+00 4.3771368435108599e+01 zlo zhi

Masses

1 12.0112  # C
2 12.0112  # C
3 12.0112  # C
4 12.0112  # C
5 18.9984  # F
6 1.00797  # H
7 1.00797  # H
8 6.94     # Li
9 14.0067  # N
10 15.9994 # O
11 15.9994 # O
12 15.9994 # O
13 32.064  # S

Pair Coeffs # lj/class2/coul/long

1 0.04 3.75
2 0.054 3.815
3 0.071 3.884
4 0.0748 3.87
5 0.0488 3.421
6 0.023 2.878
7 0.008 1.087
8 0.3727 1.635
9 0.1643 3.89
10 0.2029 3.5432
11 0.12 3.3
12 0.096 3.58
13 0.25 4.027

Bond Coeffs # class2

1 1.35 403.03 0 0
2 1.795 257.33 0 0
3 1.4308 743.76 0 0
4 1.5944 205.78 0 0
5 1.53 299.67 -501.77 679.81
6 1.42 400.4 -835.2 1313
7 1.101 345 -691.89 844.6
8 1.101 345 -691.89 844.6
9 1.53 299.67 -501.77 679.81
10 1.53 299.67 -501.77 679.81
11 1.42 400.4 -835.2 1313
12 1.101 345 -691.89 844.6
13 0.965 532.51 -1282.9 2004.8

Angle Coeffs # class2

1 109.1 71.97 0 0
2 109.5 60 0 0
3 109.5 50 0 0
4 109.5 50 0 0
5 119.33 135 0 0
6 109.5 50 0 0
7 120 50 0 0
8 111.27 54.538 -8.3642 -13.084
9 110.77 41.453 -10.604 5.129
10 108.73 58.545 -10.809 -12.401
11 107.66 39.641 -12.921 -2.4318
12 110.77 41.453 -10.604 5.129
13 107.66 39.641 -12.921 -2.4318
14 104.5 35.745 -10.007 -6.2729
15 111.27 54.538 -8.3642 -13.084
16 110.77 41.453 -10.604 5.129
17 111.27 54.538 -8.3642 -13.084
18 110.77 41.453 -10.604 5.129
19 108.73 58.545 -10.809 -12.401
20 107.66 39.641 -12.921 -2.4318
21 110.77 41.453 -10.604 5.129
22 111.27 54.538 -8.3642 -13.084
23 105.8 52.706 -12.109 -9.8681

BondBond Coeffs

1 0 1.35 1.35
2 0 1.35 1.795
3 0 1.795 1.4308
4 0 1.795 1.5944
5 0 1.4308 1.4308
6 0 1.5944 1.4308
7 0 1.5944 1.5944
8 11.432 1.53 1.42
9 3.3872 1.53 1.101
10 23.198 1.101 1.42
11 5.3316 1.101 1.101
12 3.3872 1.53 1.101
13 5.3316 1.101 1.101
14 -7.1131 1.42 1.42
15 11.432 1.53 1.42
16 3.3872 1.53 1.101
17 11.432 1.53 1.42
18 3.3872 1.53 1.101
19 23.198 1.101 1.42
20 5.3316 1.101 1.101
21 3.3872 1.53 1.101
22 11.432 1.53 1.42
23 -9.6879 1.42 0.965

BondAngle Coeffs

1 0 0 1.35 1.35
2 0 0 1.35 1.795
3 0 0 1.795 1.4308
4 0 0 1.795 1.5944
5 0 0 1.4308 1.4308
6 0 0 1.5944 1.4308
7 0 0 1.5944 1.5944
8 2.6868 20.403 1.53 1.42
9 20.754 11.421 1.53 1.101
10 4.6189 55.327 1.101 1.42
11 18.103 18.103 1.101 1.101
12 20.754 11.421 1.53 1.101
13 18.103 18.103 1.101 1.101
14 -2.8112 -2.8112 1.42 1.42
15 2.6868 20.403 1.53 1.42
16 20.754 11.421 1.53 1.101
17 2.6868 20.403 1.53 1.42
18 20.754 11.421 1.53 1.101
19 4.6189 55.327 1.101 1.42
20 18.103 18.103 1.101 1.101
21 20.754 11.421 1.53 1.101
22 2.6868 20.403 1.53 1.42
23 28.58 18.928 1.42 0.965

Dihedral Coeffs # class2

1 0 0 0 0 0.1367 0
2 0 0 0 0 0.1367 0
3 0 0 0.5 0 0 0
4 0 0 0.5 0 0 0
5 -0.1435 0 0.253 0 -0.0905 0
6 -0.1432 0 0.0617 0 -0.1083 0
7 -0.5203 0 -0.3028 0 -0.345 0
8 0.5302 0 0 0 -0.3966 0
9 -0.5203 0 -0.3028 0 -0.345 0
10 -0.1435 0 0.253 0 -0.0905 0
11 -0.182 0 -0.1084 0 -0.7047 0
12 -0.1432 0 0.0617 0 -0.1083 0
13 -0.5203 0 -0.3028 0 -0.345 0
14 -0.1435 0 0.253 0 -0.0905 0
15 -0.182 0 -0.1084 0 -0.7047 0
16 -0.1432 0 0.0617 0 -0.1083 0
17 -0.1435 0 0.253 0 -0.0905 0
18 -0.6732 0 -0.4778 0 -0.167 0
19 0.1863 0 -0.4338 0 -0.2121 0

AngleAngleTorsion Coeffs

1 0 109.5 109.5
2 0 109.5 109.5
3 0 120 109.5
4 0 120 109.5
5 -20.201 111.27 110.77
6 -12.564 110.77 110.77
7 -19.006 111.27 104.5
8 -16.444 108.73 104.5
9 -19.006 111.27 104.5
10 -20.201 110.77 111.27
11 -14.048 111.27 111.27
12 -12.564 110.77 110.77
13 -19.006 111.27 104.5
14 -20.201 110.77 111.27
15 -14.048 111.27 111.27
16 -12.564 110.77 110.77
17 -20.201 111.27 110.77
18 -12.104 111.27 105.8
19 -10.509 108.73 105.8

EndBondTorsion Coeffs

1 0 0 0 0 0 0 1.35 1.4308
2 0 0 0 0 0 0 1.35 1.5944
3 0 0 0 0 0 0 1.5944 1.795
4 0 0 0 0 0 0 1.5944 1.4308
5 0.5903 0.6669 0.8584 0.9681 0.9551 0.0436 1.42 1.101
6 0.213 0.312 0.0777 0.213 0.312 0.0777 1.101 1.101
7 -0.2456 1.0517 -0.7795 0.4741 1.2635 0.5576 1.53 1.42
8 -0.6054 1.3339 0.9648 -0.162 0.1564 -1.1408 1.101 1.42
9 -0.2456 1.0517 -0.7795 0.4741 1.2635 0.5576 1.53 1.42
10 0.9681 0.9551 0.0436 0.5903 0.6669 0.8584 1.101 1.42
11 1.0165 0.7553 -0.4609 1.0165 0.7553 -0.4609 1.42 1.42
12 0.213 0.312 0.0777 0.213 0.312 0.0777 1.101 1.101
13 -0.2456 1.0517 -0.7795 0.4741 1.2635 0.5576 1.53 1.42
14 0.9681 0.9551 0.0436 0.5903 0.6669 0.8584 1.101 1.42
15 1.0165 0.7553 -0.4609 1.0165 0.7553 -0.4609 1.42 1.42
16 0.213 0.312 0.0777 0.213 0.312 0.0777 1.101 1.101
17 0.5903 0.6669 0.8584 0.9681 0.9551 0.0436 1.42 1.101
18 -0.58 0.9004 0 0 0.5343 0.9025 1.53 0.965
19 -1.7554 1.3145 0.2263 0.2493 0.6803 0 1.101 0.965

MiddleBondTorsion Coeffs

1 0 0 0 1.795
2 0 0 0 1.795
3 0 0 0 1.5944
4 0 0 0 1.5944
5 -16.797 -1.2296 -0.275 1.53
6 -14.261 -0.5322 -0.4864 1.53
7 -5.9288 -2.7007 -0.3175 1.42
8 -6.8007 -4.6546 -1.4101 1.42
9 -5.9288 -2.7007 -0.3175 1.42
10 -16.797 -1.2296 -0.275 1.53
11 -17.259 -3.6157 -0.8364 1.53
12 -14.261 -0.5322 -0.4864 1.53
13 -5.9288 -2.7007 -0.3175 1.42
14 -16.797 -1.2296 -0.275 1.53
15 -17.259 -3.6157 -0.8364 1.53
16 -14.261 -0.5322 -0.4864 1.53
17 -16.797 -1.2296 -0.275 1.53
18 1.2472 0 0.7485 1.42
19 0 0.9241 -0.5889 1.42

BondBond13 Coeffs

1 0 1.35 1.4308
2 0 1.35 1.5944
3 0 1.5944 1.795
4 0 1.5944 1.4308
5 0 1.42 1.101
6 0 1.101 1.101
7 0 1.53 1.42
8 0 1.101 1.42
9 0 1.53 1.42
10 0 1.101 1.42
11 0 1.42 1.42
12 0 1.101 1.101
13 0 1.53 1.42
14 0 1.101 1.42
15 0 1.42 1.42
16 0 1.101 1.101
17 0 1.42 1.101
18 0 1.53 0.965
19 0 1.101 0.965

AngleTorsion Coeffs

1 0 0 0 0 0 0 109.5 109.5
2 0 0 0 0 0 0 109.5 109.5
3 0 0 0 0 0 0 120 109.5
4 0 0 0 0 0 0 120 109.5
5 -0.1892 0.4918 0.7273 2.3668 2.492 -1.0122 111.27 110.77
6 -0.8085 0.5569 -0.2466 -0.8085 0.5569 -0.2466 110.77 110.77
7 -2.7466 1.4877 -0.8955 0.5676 0.945 0.0703 111.27 104.5
8 -1.8234 1.6393 0.5144 -0.7777 0.434 -0.6653 108.73 104.5
9 -2.7466 1.4877 -0.8955 0.5676 0.945 0.0703 111.27 104.5
10 2.3668 2.492 -1.0122 -0.1892 0.4918 0.7273 110.77 111.27
11 0.5511 0.9737 -0.6673 0.5511 0.9737 -0.6673 111.27 111.27
12 -0.8085 0.5569 -0.2466 -0.8085 0.5569 -0.2466 110.77 110.77
13 -2.7466 1.4877 -0.8955 0.5676 0.945 0.0703 111.27 104.5
14 2.3668 2.492 -1.0122 -0.1892 0.4918 0.7273 110.77 111.27
15 0.5511 0.9737 -0.6673 0.5511 0.9737 -0.6673 111.27 111.27
16 -0.8085 0.5569 -0.2466 -0.8085 0.5569 -0.2466 110.77 110.77
17 -0.1892 0.4918 0.7273 2.3668 2.492 -1.0122 111.27 110.77
18 -3.5903 2.5225 0.4888 0.8726 -0.3577 0.3888 111.27 105.8
19 -3.406 1.6396 0.0737 0 -0.281 -0.5944 108.73 105.8

Improper Coeffs # class2

1 0 0
2 0 0
3 0 0
4 0 0
5 0 0
6 0 0
7 0 0
8 0 0
9 0 0
10 0 0
11 0 0
12 0 0
13 0 0
14 0 0
15 0 0
16 0 0
17 0 0

AngleAngle Coeffs

1 0 0 0 120 120 120
2 0 0 0 120 120 120
3 0 0 0 120 120 120
4 0 0 0 120 120 120
5 0 0 0 120 120 120
6 3.9177 2.5926 0.1689 110.77 111.27 108.73
7 0.2738 -0.4825 0.2738 110.77 110.77 107.66
8 2.4259 2.4259 2.1283 107.66 108.73 108.73
9 0.2738 -0.4825 0.2738 110.77 110.77 107.66
10 -0.3157 -0.3157 -0.3157 107.66 107.66 107.66
11 3.9177 2.5926 0.1689 110.77 111.27 108.73
12 0.2738 -0.4825 0.2738 110.77 110.77 107.66
13 3.9177 2.5926 0.1689 110.77 111.27 108.73
14 0.2738 -0.4825 0.2738 110.77 110.77 107.66
15 2.4259 2.4259 2.1283 107.66 108.73 108.73
16 0.2738 -0.4825 0.2738 110.77 110.77 107.66
17 3.9177 2.5926 0.1689 110.77 111.27 108.73

Atoms # full

3547 108 11 -3.2000000000000001e-01 7.9043441084837980e+00 6.2876833773290519e+00 2.2093198540782788e-01 4 -6 -3
1454 102 2 5.3999999999999999e-02 3.1516945439255917e+00 5.3305737596954883e-01 9.0924804239623414e-01 5 -6 -1
1447 102 2 5.3999999999999999e-02 5.2547374006975323e-01 2.0959453876853646e+00 2.9803212269995569e+00 5 -6 -1
1050 101 6 5.2999999999999999e-02 1.3503816464239393e+00 6.1743595431857088e+00 1.7206273365738192e+00 4 -5 -2
3539 108 2 5.3999999999999999e-02 4.5293483081159582e+00 9.0555631530456164e+00 3.9878003725667273e+00 4 -6 -3
229 16 5 -1.1200000000000000e-01 9.5963768554283124e+00 5.3144182802349906e+00 6.2208432802981495e+00 1 -6 -3
1046 101 2 5.3999999999999999e-02 3.1901940891813467e+00 4.9824349243926136e+00 1.9355186232661996e+00 4 -5 -2
3540 108 11 -3.2000000000000001e-01 6.2996311111448451e+00 8.8562772537438477e+00 2.4777103789535992e+00 4 -6 -3
3542 108 6 5.2999999999999999e-02 4.8431883652793575e+00 1.0027511290877332e+01 4.2922164287860447e+00 4 -6 -3
3544 108 6 5.2999999999999999e-02 5.2181344863356021e+00 7.1924675373486551e+00 3.2487672317408016e+00 4 -6 -3
235 16 10 -2.9399999999999998e-01 6.7899639313057349e+00 3.5108892541980401e+00 2.3200795516634027e+00 1 -6 -3
3549 108 6 5.2999999999999999e-02 7.6851157286900929e+00 9.0566862733726339e+00 1.1641677510437405e+00 4 -6 -3
3533 108 11 -3.2000000000000001e-01 3.7201088669910063e+00 9.0270227187609891e+00 2.8141773871256879e+00 4 -6 -3
234 16 13 4.4800000000000001e-01 7.0935109602904189e+00 3.8824110535120764e+00 3.6711043609130929e+00 1 -6 -3
240 16 5 -1.1200000000000000e-01 5.5674119967309439e+00 2.3518344599752461e+00 5.0943972498563204e+00 1 -6 -3
3531 108 2 5.3999999999999999e-02 2.6744707241889576e+00 9.9611083720087095e+00 2.7450190844442504e+00 4 -6 -3
3538 108 2 5.3999999999999999e-02 5.6597833308899457e+00 8.1556479355312810e+00 3.5494442519180320e+00 4 -6 -3
954 101 6 5.2999999999999999e-02 4.3082121231804296e+00 6.1628745956250288e+00 6.6106359011810678e+00 4 -5 -2
1035 101 6 5.2999999999999999e-02 1.4597774752707928e-02 9.8689234295405868e+00 6.4321336224580579e+00 4 -5 -2
1409 102 6 5.2999999999999999e-02 2.9384358860296391e+00 4.5961132536992366e+00 6.8130160873480543e+00 5 -6 -1
4851 112 6 5.2999999999999999e-02 1.0285596621487528e+01 9.3862781498343857e+00 3.4328767154121049e+00 3 -6 -4
3526 108 11 -3.2000000000000001e-01 1.9393838843261650e+00 1.0081703314841656e+01 3.2086394121803985e-01 4 -6 -3
239 16 5 -1.1200000000000000e-01 7.0130921675131486e+00 1.1660815367102564e+00 3.9437587279899851e+00 1 -6 -3
233 16 9 -5.8799999999999997e-01 8.5562412570760031e+00 4.4284470444228301e+00 3.4742847522728670e+00 1 -6 -3
4856 112 2 5.3999999999999999e-02 9.0446997554108872e+00 8.7763432378990398e+00 6.0307592576180022e+00 3 -6 -4
1039 101 2 5.3999999999999999e-02 6.3090376441376717e-01 6.0470728421010653e+00 4.2542458489372388e+00 4 -5 -2
226 16 1 4.1999999999999998e-01 1.0355254257173499e+01 4.2674077887453636e+00 5.7031102608017417e+00 1 -6 -3
4859 112 6 5.2999999999999999e-02 8.2721719546041630e+00 9.3858490111050461e+00 5.5851186687504031e+00 3 -6 -4
4850 112 11 -3.2000000000000001e-01 1.0283451162473485e+01 9.2652355860498670e+00 5.5185135979380107e+00 3 -6 -4
3543 108 6 5.2999999999999999e-02 4.0781915565412437e+00 8.4899278203282620e+00 4.8638620511270831e+00 4 -6 -3
3565 108 6 5.2999999999999999e-02 9.5171489781487626e+00 1.0179121461371947e+00 4.1436554392346558e-01 4 -6 -3
3536 108 6 5.2999999999999999e-02 1.8261197449092657e+00 8.4162817936660215e+00 1.4923375863590234e+00 4 -6 -3
3545 108 2 5.3999999999999999e-02 6.8253887228230967e+00 7.0153767659298536e+00 9.2132510532785861e-01 4 -6 -3
3541 108 6 5.2999999999999999e-02 6.3961370759036029e+00 8.0694792808884408e+00 4.3462177904026653e+00 4 -6 -3
1410 102 6 5.2999999999999999e-02 4.2097236210925937e+00 3.3966758311748135e+00 7.2425105547872386e+00 5 -6 -1
1456 102 11 -3.2000000000000001e-01 4.5604046184512024e+00 7.5627673733465062e-01 6.2484126970107068e-01 5 -6 -1
4854 112 6 5.2999999999999999e-02 1.0303461761578404e+01 7.6868668731788059e+00 4.0341028258945855e+00 3 -6 -4
1041 101 11 -3.2000000000000001e-01 1.6939485958360376e+00 5.3122920425699860e+00 3.6027396052835945e+00 4 -5 -2
238 16 5 -1.1200000000000000e-01 7.7319122137950869e+00 2.2291169332380147e+00 5.6364737968950180e+00 1 -6 -3
948 101 2 5.3999999999999999e-02 4.8520133514071411e+00 6.9364215988935598e+00 7.1650904931184130e+00 4 -5 -2
1048 101 11 -3.2000000000000001e-01 3.5368445936048887e+00 5.1358667277101402e+00 5.5365465843615469e-01 4 -5 -2
236 16 10 -2.9399999999999998e-01 6.3477513151150715e+00 4.9110404752831744e+00 4.3802127107523994e+00 1 -6 -3
1449 102 11 -3.2000000000000001e-01 1.3344751497287035e+00 9.7057112255508704e-01 2.5275502601043942e+00 5 -6 -1
1043 101 6 5.2999999999999999e-02 1.3951879645089578e+00 8.1315287673786809e+00 4.1128487657134505e+00 4 -5 -2
4860 112 6 5.2999999999999999e-02 8.9459516097735143e+00 7.7254448317784599e+00 5.8695731901972046e+00 3 -6 -4
1052 101 6 5.2999999999999999e-02 2.7868888125743956e+00 4.0445903173977618e+00 2.1567219627211127e+00 4 -5 -2
3537 108 6 5.2999999999999999e-02 2.3115105239174860e+00 1.0203585282794087e+01 3.7104674425238477e+00 4 -6 -3
3532 108 2 5.3999999999999999e-02 1.6978555929835484e+00 9.4947124648031593e+00 1.6210904546259290e+00 4 -6 -3
1455 102 2 5.3999999999999999e-02 2.7588125370277874e+00 9.7806701277746289e-01 2.2560878492808136e+00 5 -6 -1
237 16 1 4.1999999999999998e-01 6.8699653294145939e+00 2.3360442774142278e+00 4.6163584329493741e+00 1 -6 -3
4848 112 2 5.3999999999999999e-02 1.0706397275739278e+01 8.7325658400279096e+00 4.2045752489939598e+00 3 -6 -4
1051 101 6 5.2999999999999999e-02 2.6896600916396478e+00 6.9580780361969268e+00 2.7013234516794031e+00 4 -5 -2
231 16 10 -2.9399999999999998e-01 1.0102413650236413e+01 2.5771386149406350e+00 3.6912035883581500e+00 1 -6 -3
1458 102 6 5.2999999999999999e-02 3.2253333030553133e+00 1.9591888894708540e+00 2.4646190185371917e+00 5 -6 -1
1049 101 6 5.2999999999999999e-02 4.1008975872794293e+00 5.0601440113839349e+00 2.4678517996989617e+00 4 -5 -2
1411 102 6 5.2999999999999999e-02 2.3567756634775101e+00 2.5739911587343554e+00 5.6993484659494849e+00 5 -6 -1
3550 108 6 5.2999999999999999e-02 8.0000690321872270e+00 7.8329456974106613e+00 2.5552281741254665e+00 4 -6 -3
1450 102 6 5.2999999999999999e-02 5.4334060516366287e-02 2.6266793523944409e+00 2.1530273018854884e+00 5 -6 -1
1459 102 6 5.2999999999999999e-02 3.1296687342775757e+00 2.4772039640346022e-01 3.0256593045170130e+00 5 -6 -1
765 65 8 6.9999999999999996e-01 8.4398614853826768e+00 4.7567748356339168e+00 1.4409721032471088e+00 4 -5 -2
3546 108 2 5.3999999999999999e-02 7.3450762472483380e+00 8.1813615677605966e+00 1.7941089591741584e+00 4 -6 -3
3535 108 6 5.2999999999999999e-02 6.6820261906421541e-01 9.6766347026710822e+00 1.7255323947273200e+00 4 -6 -3
1453 102 6 5.2999999999999999e-02 1.1409169582357865e+00 2.9019483204572145e+00 3.4225620003133992e+00 5 -6 -1
1047 101 2 5.3999999999999999e-02 2.1546873375300075e+00 6.0107879849515369e+00 2.4325745222309263e+00 4 -5 -2
230 16 13 4.4800000000000001e-01 1.0025783686083443e+01 3.9912297616419190e+00 3.9588982707321492e+00 1 -6 -3
228 16 5 -1.1200000000000000e-01 1.0408221394378693e+01 3.1245989753648273e+00 6.4541714686150389e+00 1 -6 -3
951 101 6 5.2999999999999999e-02 5.7484609608561783e+00 7.2140606091626527e+00 6.5116404768043452e+00 4 -5 -2
3548 108 6 5.2999999999999999e-02 6.1974942975311587e+00 6.2881650178651221e+00 1.5418241371541350e+00 4 -6 -3
3559 108 2 5.3999999999999999e-02 1.0337449369628018e+01 1.7077759723598100e+00 1.3707189534192982e-01 4 -6 -3
1044 101 6 5.2999999999999999e-02 1.8987154945857150e+00 7.2879322886885509e+00 5.6078447874787143e+00 4 -5 -2
232 16 10 -2.9399999999999998e-01 1.0699613164483740e+01 4.8482004767206286e+00 3.0710752644249171e+00 1 -6 -3
1040 101 2 5.3999999999999999e-02 1.0846019422736746e+00 7.4214278502425577e+00 4.8883088765530607e+00 4 -5 -2
1460 102 6 5.2999999999999999e-02 2.5486545678694563e+00 1.1601485625319938e+00 1.8622924005873184e-01 5 -6 -1
1042 101 6 5.2999999999999999e-02 1.0873024197196253e-01 5.3756939926408389e+00 5.0134223070634967e+00 4 -5 -2
3562 108 6 5.2999999999999999e-02 1.0639489273656586e+01 2.2461070130944161e+00 1.0519703748130271e+00 4 -6 -3
1405 102 2 5.3999999999999999e-02 2.2562107239590761e+00 2.5894828626432198e+00 6.7670789410941445e+00 5 -6 -1
6832 118 6 5.2999999999999999e-02 6.1238649056764709e+00 8.2096942187589050e-01 7.0817724368395885e+00 3 -5 -3
3551 108 6 5.2999999999999999e-02 6.2030774695681741e+00 7.5019989953329906e+00 1.2073272612491256e-01 4 -6 -3
1408 102 6 5.2999999999999999e-02 1.2291835363447288e+00 2.8344125024786964e+00 7.0027726101181234e+00 5 -6 -1
950 101 11 -3.2000000000000001e-01 4.1769406491519661e+00 8.1885611255332655e+00 7.2127713556218955e+00 4 -5 -2
961 101 6 5.2999999999999999e-02 3.1821383256942006e+00 1.0537026568597256e+01 7.1758486269842185e+00 4 -5 -2
1407 102 11 -3.2000000000000001e-01 2.6829156958831808e+00 1.2885584962991941e+00 7.1942014647650288e+00 5 -6 -1
1451 102 6 5.2999999999999999e-02 4.7572462974488933e-01 1.0447811067658206e+00 4.8190597244398576e+00 5 -6 -1
3534 108 6 5.2999999999999999e-02 3.0685136899068608e+00 1.0881074235703540e+01 2.3011580217814123e+00 4 -6 -3
956 101 2 5.3999999999999999e-02 4.7118836746266073e+00 9.2345173136663110e+00 7.9620804965895120e+00 4 -5 -2
2873 106 6 5.2999999999999999e-02 4.2449449249172853e+00 4.0681496929799641e+00 1.2245129233309811e+01 3 -5 -3
1038 101 6 5.2999999999999999e-02 6.8115417133544787e-01 8.5888822365221174e+00 7.3782772723634036e+00 4 -5 -2
941 101 2 5.3999999999999999e-02 6.8919274952594112e+00 4.3478468944911723e+00 8.7278278455802134e+00 4 -5 -2
936 101 11 -3.2000000000000001e-01 8.9732398089992724e+00 4.0222235788257690e+00 9.8175303322044254e+00 4 -5 -2
2875 106 6 5.2999999999999999e-02 2.8533123224584558e+00 2.9465079885208798e+00 1.3847436980042993e+01 3 -5 -3
944 101 6 5.2999999999999999e-02 7.5619050022208567e+00 3.8318908566984637e+00 7.9894180384558551e+00 4 -5 -2
1397 102 6 5.2999999999999999e-02 3.6239131416095327e-01 3.8932297084377341e+00 1.2705568011091851e+01 5 -6 -1
2863 106 2 5.3999999999999999e-02 4.6824904727765881e+00 7.8832049187659958e+00 1.3462817678137029e+01 3 -5 -3
2864 106 11 -3.2000000000000001e-01 4.1609336177143303e+00 5.5637951730709512e+00 1.3675048588712571e+01 3 -5 -3
1401 102 6 5.2999999999999999e-02 1.0130740316015672e+00 4.0816765527440149e+00 8.9417142733148598e+00 5 -6 -1
963 101 2 5.3999999999999999e-02 2.6768340193160323e+00 9.6916533874352027e+00 1.0326772347919839e+01 4 -5 -2
6825 118 6 5.2999999999999999e-02 9.1756876313274596e+00 8.5351098770278444e-01 9.8811515587693552e+00 3 -5 -3
2855 106 2 5.3999999999999999e-02 5.3512932884845794e+00 1.0164167797237370e+01 1.3234627974431161e+01 3 -5 -3
1398 102 2 5.3999999999999999e-02 1.9422590381441796e+00 4.5586629043527109e+00 9.2202601140899549e+00 5 -6 -1
940 101 6 5.2999999999999999e-02 1.0516671360203633e+01 5.3236210643567974e+00 9.9087877794817061e+00 4 -5 -2
6820 118 2 5.3999999999999999e-02 8.3388770358486859e+00 2.9867294592778010e-01 7.8447178505620974e+00 3 -5 -3
4858 112 6 5.2999999999999999e-02 9.3458034396126859e+00 1.0166402018477118e+01 7.5947877066299805e+00 3 -6 -4
947 101 6 5.2999999999999999e-02 6.2962174459577422e+00 3.6226413091632006e+00 9.2281176556417197e+00 4 -5 -2
119 8 5 -1.1200000000000000e-01 1.0684785022492999e+01 7.4565683710163970e+00 1.4315275479713437e+01 3 -4 0
4857 112 11 -3.2000000000000001e-01 9.8682063839693424e+00 8.0975741045446394e+00 8.1358739952919148e+00 3 -6 -4
1391 102 2 5.3999999999999999e-02 5.9307941632905137e-01 4.8989518812332724e+00 1.2600337623386075e+01 5 -6 -1
2862 106 2 5.3999999999999999e-02 4.9904674006715979e+00 6.4995096758003585e+00 1.2916241086111341e+01 3 -5 -3
2870 106 2 5.3999999999999999e-02 4.5504035550798561e+00 4.2158821445237749e+00 1.3256860498841810e+01 3 -5 -3
946 101 6 5.2999999999999999e-02 8.3164436867724074e+00 5.7631246514654304e+00 9.1541740998596115e+00 4 -5 -2
1394 102 6 5.2999999999999999e-02 1.4411624726874128e+00 5.2254957971543048e+00 1.3324895041227579e+01 5 -6 -1
1413 102 2 5.3999999999999999e-02 1.9066235773988742e+00 9.6023657133082607e-01 8.3816635056691400e+00 5 -6 -1
937 101 6 5.2999999999999999e-02 9.7313631219322154e+00 5.0361418333376013e+00 1.1480318561497450e+01 4 -5 -2
2867 106 6 5.2999999999999999e-02 3.5757494233259610e+00 8.0965456708169992e+00 1.3480961806380586e+01 3 -5 -3
942 101 2 5.3999999999999999e-02 7.8711441397942350e+00 4.9245825294843089e+00 9.6827030546821433e+00 4 -5 -2
4867 112 6 5.2999999999999999e-02 1.0582328102095330e+01 9.0039726604017911e+00 9.8684846154443573e+00 3 -6 -4
2866 106 6 5.2999999999999999e-02 4.9861349109814448e+00 7.7656647072168070e+00 1.4567497283203052e+01 3 -5 -3
957 101 11 -3.2000000000000001e-01 2.4548841830193715e+00 9.7098277497206240e+00 8.9105197644811103e+00 4 -5 -2
966 101 6 5.2999999999999999e-02 3.2387957877660414e+00 8.8050634692450558e+00 1.0654875114803460e+01 4 -5 -2
934 101 2 5.3999999999999999e-02 1.0043730443106961e+01 4.5667083217421345e+00 1.0525721211001233e+01 4 -5 -2
2868 106 6 5.2999999999999999e-02 6.0772056296975645e+00 6.2949500494562924e+00 1.3063584119737133e+01 3 -5 -3
2869 106 2 5.3999999999999999e-02 3.9031524444605430e+00 3.0550753737460554e+00 1.4087242011796562e+01 3 -5 -3
1406 102 2 5.3999999999999999e-02 3.1216988368616869e+00 3.6603359621491061e+00 7.4066230672658824e+00 5 -6 -1
959 101 6 5.2999999999999999e-02 5.0229046679440446e+00 9.0080666179746736e+00 8.9998355566172545e+00 4 -5 -2
1417 102 6 5.2999999999999999e-02 8.0939898105984076e-01 8.6348679617385848e-01 8.1110276396785217e+00 5 -6 -1
1399 102 2 5.3999999999999999e-02 1.9599207793912949e+00 4.4870426222619741e+00 1.0761256014386310e+01 5 -6 -1
4861 112 6 5.2999999999999999e-02 8.0330023099429386e+00 9.0745401596141804e+00 7.8861434271843027e+00 3 -6 -4
952 101 6 5.2999999999999999e-02 4.5824469428859809e+00 5.8701793098346116e+00 9.1354767342756809e+00 4 -5 -2
970 101 2 5.3999999999999999e-02 2.1560259346890509e-01 1.0551792544834186e+01 1.3007743947036088e+01 4 -5 -2
6815 118 11 -3.2000000000000001e-01 1.0642972697178283e+01 5.7224247107881632e-01 8.5296433333819959e+00 3 -5 -3
2886 106 6 5.2999999999999999e-02 9.4697660923419065e+00 2.8960607444197022e-02 1.2320586787680570e+01 3 -5 -3
953 101 6 5.2999999999999999e-02 6.0115757981685141e+00 6.9015807010316417e+00 9.1045556425608680e+00 4 -5 -2
2857 106 11 -3.2000000000000001e-01 5.3032366385747647e+00 8.8788907707040252e+00 1.2709940860789658e+01 3 -5 -3
1404 102 6 5.2999999999999999e-02 1.9703391501368155e+00 5.5703966436028747e+00 8.7807112860368672e+00 5 -6 -1
962 101 2 5.3999999999999999e-02 1.2607234684119473e+00 9.7593033367766573e+00 1.1093556656931565e+01 4 -5 -2
4855 112 2 5.3999999999999999e-02 9.0508168221809306e+00 9.0978164902018026e+00 7.4863846654355184e+00 3 -6 -4
2888 106 6 5.2999999999999999e-02 7.1605392490502222e+00 1.0154746985501115e+00 1.2283423762118371e+01 3 -5 -3
1416 102 6 5.2999999999999999e-02 2.0380754497395044e+00 1.8813877696718830e+00 8.9992564040580678e+00 5 -6 -1
2861 106 6 5.2999999999999999e-02 4.4231469371553205e+00 1.0735193841874668e+01 1.3333087684384912e+01 3 -5 -3
1393 102 11 -3.2000000000000001e-01 7.9665559835439870e-01 5.2248590915568940e+00 1.1259018750636649e+01 5 -6 -1
949 101 2 5.3999999999999999e-02 5.3636468907244756e+00 6.2447090795077109e+00 8.5020271013680144e+00 4 -5 -2
965 101 6 5.2999999999999999e-02 5.7532742980384910e-01 1.0430607111521189e+01 1.0548773820009032e+01 4 -5 -2
964 101 11 -3.2000000000000001e-01 1.5015358002553827e+00 1.0290975293850833e+01 1.2391089352166127e+01 4 -5 -2
120 8 5 -1.1200000000000000e-01 1.0347369089265497e+01 7.5326116763604372e+00 1.2230322804786150e+01 3 -4 0
945 101 6 5.2999999999999999e-02 7.4769104691357358e+00 5.2051208808322720e+00 1.0702256503444174e+01 4 -5 -2
2874 106 6 5.2999999999999999e-02 5.6832230385045923e+00 4.0517343263711929e+00 1.3284370693542437e+01 3 -5 -3
2871 106 11 -3.2000000000000001e-01 4.7281904743987413e+00 1.9656161293396124e+00 1.3926979556206822e+01 3 -5 -3
967 101 6 5.2999999999999999e-02 3.1189458503573828e+00 1.0657064448907514e+01 1.0676510187594630e+01 4 -5 -2
1402 102 6 5.2999999999999999e-02 2.8543151931433468e+00 4.9087527783045681e+00 1.1309534138758593e+01 5 -6 -1
1403 102 6 5.2999999999999999e-02 1.9364623778549812e+00 3.4144853681798066e+00 1.1053505719055464e+01 5 -6 -1
2865 106 6 5.2999999999999999e-02 4.7013553021369905e+00 6.4014467638544419e+00 1.1881037298998786e+01 3 -5 -3
943 101 11 -3.2000000000000001e-01 6.1223107740201863e+00 5.2420864381815289e+00 7.8764255085652941e+00 4 -5 -2
1400 102 11 -3.2000000000000001e-01 3.0414077779788289e+00 3.7769822420658774e+00 8.8006879237252686e+00 5 -6 -1
117 8 1 4.1999999999999998e-01 1.0601660692980282e+01 8.3122231550430659e+00 1.3265582423099055e+01 3 -4 0
2860 106 6 5.2999999999999999e-02 6.3300328428261530e+00 1.0677140616282809e+01 1.1334349225153428e+01 3 -5 -3
118 8 5 -1.1200000000000000e-01 9.4578326203756777e+00 9.0632123862862350e+00 1.3476073779399831e+01 3 -4 0
955 101 2 5.3999999999999999e-02 3.5532598820536370e+00 1.0202976231829359e+01 8.1613243876173023e+00 4 -5 -2
6823 118 6 5.2999999999999999e-02 8.2234432797507466e+00 1.3695706759395101e+00 7.6954871976650914e+00 3 -5 -3
6821 118 2 5.3999999999999999e-02 9.4089971338013338e+00 1.8989477206348981e-01 9.0715870197992459e+00 3 -5 -3
2877 106 2 5.3999999999999999e-02 4.3492093752239631e+00 6.5695754631830250e-01 1.4295218899781835e+01 3 -5 -3
2881 106 6 5.2999999999999999e-02 3.3169659059221481e+00 4.4085816679003381e-01 1.3952504367544421e+01 3 -5 -3
968 101 6 5.2999999999999999e-02 8.3997168553602108e-01 8.6750666872260229e+00 1.1139783274870513e+01 4 -5 -2
960 101 6 5.2999999999999999e-02 5.5955445389900369e+00 9.7179441525150114e+00 7.5057694697879507e+00 4 -5 -2
2858 106 6 5.2999999999999999e-02 5.8084393494423825e+00 1.0099494670657023e+01 1.4212500070029426e+01 3 -5 -3
1424 102 6 5.2999999999999999e-02 1.7136394591837592e+00 1.0780320689469642e+00 1.1231930909660269e+01 5 -6 -1
2889 106 6 5.2999999999999999e-02 8.8737889034219144e+00 1.9691887125472793e-01 1.3956738821904699e+01 3 -5 -3
4863 112 2 5.3999999999999999e-02 1.0912328881648325e+01 8.7350884992341129e+00 8.8303975442055620e+00 3 -6 -4
2850 106 11 -3.2000000000000001e-01 7.7411680103922045e+00 1.0822427515936896e+01 1.2868762042203743e+01 3 -5 -3
1425 102 6 5.2999999999999999e-02 1.2004023002981978e+00 1.4370456713615665e-01 1.3366156025788136e+01 5 -6 -1
1420 102 2 5.3999999999999999e-02 1.8864856214596417e+00 1.6912042174745068e-02 1.1305217489746974e+01 5 -6 -1
2884 106 2 5.3999999999999999e-02 7.3211775590668315e+00 2.7208136230811419e-02 1.2697067539371753e+01 3 -5 -3
5853 115 6 5.2999999999999999e-02 1.0873553953570449e+01 5.4396038943387948e-01 1.4480709254315540e+01 4 -6 -2
3953 109 2 5.3999999999999999e-02 8.1971267656697560e+00 1.0120104952136497e+01 1.7512761876460626e+01 4 -6 -2
564 38 13 4.4800000000000001e-01 3.1812870074885069e+00 1.9455630111860587e+00 1.9903593438539694e+01 4 -5 -3
3366 108 6 5.2999999999999999e-02 9.6714578205335471e+00 2.1010603923346736e+00 2.1026757420815290e+01 3 -5 -4
3804 109 6 5.2999999999999999e-02 9.0333813321693466e+00 3.2581124679680096e-01 1.9763045942785297e+01 4 -6 -2
3964 109 6 5.2999999999999999e-02 9.3229853035145158e+00 8.9628810305330848e+00 1.9152092305483677e+01 4 -6 -2
5874 115 6 5.2999999999999999e-02 7.0567681026519402e+00 5.1584700977393751e+00 2.0587516451807311e+01 3 -6 -2
3961 109 2 5.3999999999999999e-02 9.5841926040256009e+00 8.4849313115572915e+00 1.8144632766204190e+01 4 -6 -2
565 38 10 -2.9399999999999998e-01 3.6306693130565550e+00 2.0339178206134907e+00 1.8537937067686208e+01 4 -5 -3
5869 115 2 5.3999999999999999e-02 7.1201367692698829e+00 7.3843525682320355e+00 2.0212516582247517e+01 3 -6 -2
830 101 2 5.3999999999999999e-02 1.5653483234172501e+00 6.8825738579350517e+00 1.6760836453427107e+01 4 -5 -2
5871 115 11 -3.2000000000000001e-01 6.8215254977390840e+00 7.8259022936064184e+00 2.1506990278657231e+01 3 -6 -2
5868 115 6 5.2999999999999999e-02 5.5893718952536071e+00 3.9290146179323990e+00 1.8518941934671719e+01 3 -6 -2
3965 109 6 5.2999999999999999e-02 8.8932608558235682e+00 7.6373086093762348e+00 1.8107197155161469e+01 4 -6 -2
5881 115 6 5.2999999999999999e-02 6.9162929776968962e+00 9.8348120513321842e+00 2.1063825713622112e+01 3 -6 -2
838 101 11 -3.2000000000000001e-01 4.1995593170166705e+00 1.0471867332192094e+01 1.8866571272277348e+01 4 -5 -2
835 101 6 5.2999999999999999e-02 9.2826215931368794e-01 9.0054584984058952e+00 1.6424860777235644e+01 4 -5 -2
5855 115 2 5.3999999999999999e-02 8.5830022778665835e+00 4.0360563743393554e+00 1.5834182899862821e+01 3 -6 -2
6662 117 6 5.2999999999999999e-02 2.9922114855944950e+00 8.2938720724765655e+00 2.0932874458705591e+01 4 -5 -3
3364 108 2 5.3999999999999999e-02 1.0012320425837913e+01 4.0689534776453362e+00 2.1604032821157929e+01 4 -5 -4
837 101 2 5.3999999999999999e-02 3.3787045407213898e+00 1.0036548283964027e+01 1.6546557516445159e+01 4 -5 -2
570 38 5 -1.1200000000000000e-01 2.6657502510427404e+00 3.7562811931562159e+00 2.1710105691024669e+01 4 -5 -3
5850 115 11 -3.2000000000000001e-01 1.0697873642456347e+01 3.1229974611394522e+00 1.5033183146174521e+01 4 -6 -2
5864 115 11 -3.2000000000000001e-01 6.8318355722884636e+00 5.6743797562390546e+00 1.8646103748095875e+01 3 -6 -2
5863 115 2 5.3999999999999999e-02 6.4226363053395703e+00 4.5535162139334995e+00 1.6626009677057077e+01 3 -6 -2
3363 108 2 5.3999999999999999e-02 9.9361136448737639e+00 2.9816896806704167e+00 2.0509122556525448e+01 3 -5 -4
5859 115 6 5.2999999999999999e-02 9.3013828243685754e+00 2.0691109961949805e+00 1.6114416287029034e+01 4 -6 -2
5866 115 6 5.2999999999999999e-02 6.6769050154210401e+00 5.5228530329344014e+00 1.6271343393192296e+01 4 -6 -2
3955 109 11 -3.2000000000000001e-01 9.2309353408016719e+00 9.2844162186349042e+00 1.7004367277236614e+01 4 -6 -2
836 101 2 5.3999999999999999e-02 4.5155450368798897e+00 1.0197526052927792e+01 1.7488585709140722e+01 4 -5 -2
569 38 5 -1.1200000000000000e-01 3.5299956597099147e+00 4.5225513543539737e+00 1.9744513999154744e+01 4 -5 -3
568 38 5 -1.1200000000000000e-01 1.4147766645299813e+00 3.9008171031796168e+00 1.9883509430060325e+01 4 -5 -3