LAMMPS data file via write_data, version 15 May 2015, timestep = 1009000

2593 atoms
6 atom types
1728 bonds
4 bond types
864 angles
3 angle types
0 dihedrals
3 dihedral types
0 impropers
1 improper types

-1.4986864533833868e+01 1.4986864533833868e+01 xlo xhi
-1.4986864533833868e+01 1.4986864533833868e+01 ylo yhi
-1.4986864533833868e+01 1.4986864533833868e+01 zlo zhi

Masses

1 15.9994
2 1.00794
3 12.0107
4 1.00794
5 12.0107
6 12.0107

Bond Coeffs # harmonic

1 1000 1
2 469 1.4
3 367 1.08
4 469 0.7

Angle Coeffs # harmonic

1 100 109.47
2 35 120
3 63 120

Dihedral Coeffs # opls

1 0 7.25 0 0
2 0 7.25 0 0
3 0 7.25 0 0

Improper Coeffs # cvff

1 2.5 -1 2

Atoms # full

1604 535 2 4.0999999999999998e-01 -1.0014391625600608e+01 -8.7108955056374242e+00 -1.3830187423619435e+01 -1 1 -1
573 191 2 4.0999999999999998e-01 -1.2702294077274013e+01 -1.3350278355258412e+01 -1.4029139567742201e+01 0 1 3
1216 406 1 -8.1999999999999995e-01 -1.1241317716725229e+01 -1.3392422953457851e+01 -1.0643539105634868e+01 1 2 0
1603 535 1 -8.1999999999999995e-01 -1.0905058779478118e+01 -8.3940604294510912e+00 -1.3503979867605072e+01 -1 1 -1
959 320 2 4.0999999999999998e-01 -2.9657324634322535e-01 -1.2363690213242444e+01 -1.2786480818350851e+01 0 -1 -1
1353 451 2 4.0999999999999998e-01 -9.0259310552543024e+00 -1.0495728489675177e+01 -1.0624145898789406e+01 3 2 1
1282 428 1 -8.1999999999999995e-01 -1.2244299819754426e+01 -1.0910292772852081e+01 -1.0277664272780948e+01 1 2 0
1351 451 1 -8.1999999999999995e-01 -9.7190496362764272e+00 -9.7794120687357982e+00 -1.0705145782146793e+01 3 2 1
1352 451 2 4.0999999999999998e-01 -9.6239689381662608e+00 -9.3220430343391580e+00 -1.1589372446290101e+01 3 2 1
1218 406 2 4.0999999999999998e-01 -1.0299864665891210e+01 -1.3057198352077174e+01 -1.0606469932712507e+01 1 2 0
1217 406 2 4.0999999999999998e-01 -1.1305583121604784e+01 -1.4260719461439889e+01 -1.0151589235482412e+01 1 2 0
2444 815 2 4.0999999999999998e-01 -8.8666755291638388e+00 -1.2173766000399178e+01 -9.1331293628674857e+00 0 1 2
2443 815 1 -8.1999999999999995e-01 -8.6899669663752626e+00 -1.2256038651576905e+01 -1.0113990648926119e+01 0 1 2
1284 428 2 4.0999999999999998e-01 -1.1963911102734919e+01 -1.1869774029293623e+01 -1.0307013818548970e+01 1 2 0
2485 829 1 -8.1999999999999995e-01 -1.3065557155795730e+01 -1.0179077039905685e+01 -1.2686605761564895e+01 1 0 0
1283 428 2 4.0999999999999998e-01 -1.1439298303604517e+01 -1.0324704720093148e+01 -1.0373282719358656e+01 1 2 0
2487 829 2 4.0999999999999998e-01 -1.2834164534116171e+01 -1.0520374949305630e+01 -1.1775531045942131e+01 1 0 0
2486 829 2 4.0999999999999998e-01 -1.2402513058748706e+01 -9.4820565456536681e+00 -1.2959769950748157e+01 1 0 0
571 191 1 -8.1999999999999995e-01 -1.2001364457530443e+01 -1.3170031963556886e+01 -1.4719278967860873e+01 0 1 3
2234 745 2 4.0999999999999998e-01 -6.8213972813096380e+00 -1.0527393926861478e+01 -1.2557337977835921e+01 0 2 1
816 272 2 4.0999999999999998e-01 -8.0806703713897043e-01 -1.3800853934809552e+01 -1.1485357987476240e+01 1 2 -1
857 286 2 4.0999999999999998e-01 -1.2554027220548512e+01 -7.6872467004051437e+00 -8.8463953478881763e+00 0 3 0
486 162 2 4.0999999999999998e-01 -1.4283251838637236e+01 -1.0305811967041683e+01 -1.3701028287182380e+01 -1 0 3
1819 607 1 -8.1999999999999995e-01 -1.3904301935225691e+01 -1.1016819813989990e+01 -8.2251967081773341e+00 0 2 2
1724 575 2 4.0999999999999998e-01 -1.0423083870978960e+01 -5.3853723890499694e+00 -1.4715066674945882e+01 1 -1 2
519 173 2 4.0999999999999998e-01 -1.4156574536127811e+01 -1.3807695547488049e+01 -1.1929889547375788e+01 2 2 0
2417 806 2 4.0999999999999998e-01 -1.1127324815699602e+00 -1.4695603149135389e+01 -8.8244671294851056e+00 3 1 -1
517 173 1 -8.1999999999999995e-01 -1.3316020690090273e+01 -1.3952076835094738e+01 -1.2452102906911868e+01 2 2 0
1653 551 2 4.0999999999999998e-01 -1.4625895574186078e+01 -8.0143621635831330e+00 -1.0170591633159239e+01 3 2 0
1183 395 1 -8.1999999999999995e-01 -8.2122296050347039e+00 -9.0791586286092762e+00 -1.3859127258174450e+01 -1 3 0
1715 572 2 4.0999999999999998e-01 -2.4106455815431289e+00 -1.3252108392413000e+01 -1.3192199209085782e+01 1 1 2
1184 395 2 4.0999999999999998e-01 -7.9450962324029701e+00 -9.5453405487376575e+00 -1.4702571384847731e+01 -1 3 0
2150 717 2 4.0999999999999998e-01 -5.2977803153571905e+00 -1.0875647420424350e+01 -1.0568244153144025e+01 1 -1 3
2445 815 2 4.0999999999999998e-01 -7.9415942348417401e+00 -1.2902002567144375e+01 -1.0264829553252850e+01 0 1 2
1652 551 2 4.0999999999999998e-01 -1.3270271993839295e+01 -8.5237462078517154e+00 -1.0925351052966679e+01 3 2 0
225 75 2 4.0999999999999998e-01 -1.0556472505329946e+01 -1.4292800712326393e+01 -1.4114334130472981e+01 2 2 3
1397 466 2 4.0999999999999998e-01 -8.3149496774237939e+00 -6.1533420449875500e+00 -1.1796129109381248e+01 2 2 2
2366 789 2 4.0999999999999998e-01 -4.0140782330969742e+00 -5.2764574645038937e+00 -1.3075522395393612e+01 0 1 0
1396 466 1 -8.1999999999999995e-01 -8.8582601965921484e+00 -6.2135366085059118e+00 -1.0958708153582712e+01 2 2 2
1398 466 2 4.0999999999999998e-01 -9.5109807966893314e+00 -6.9669993511592256e+00 -1.1038289754793659e+01 2 2 2
518 173 2 4.0999999999999998e-01 -1.2525032983940781e+01 -1.3786120001107069e+01 -1.1863137427498861e+01 2 2 0
48 16 2 4.0999999999999998e-01 -8.4108099307571926e+00 -6.4462854876863140e+00 -8.8240834914946742e+00 -1 0 2
46 16 1 -8.1999999999999995e-01 -8.3801107632422127e+00 -6.5525445838368785e+00 -7.8301770099513961e+00 -1 0 2
916 306 1 -8.1999999999999995e-01 -3.3226395976451464e+00 -1.0648766986438186e+01 -1.3295502160661838e+01 1 2 3
1185 395 2 4.0999999999999998e-01 -7.7880288287680770e+00 -8.1740179106696047e+00 -1.3829843567150885e+01 -1 3 0
1651 551 1 -8.1999999999999995e-01 -1.3626480485025155e+01 -8.0231482975263724e+00 -1.0136300475776897e+01 3 2 0
1802 601 2 4.0999999999999998e-01 -5.1180075557251872e+00 -1.4367997264954647e+01 -8.9396849484151986e+00 1 -1 0
1821 607 2 4.0999999999999998e-01 -1.3358264362248592e+01 -1.0790842237768285e+01 -9.0319561648854076e+00 0 2 2
1018 340 1 -8.1999999999999995e-01 -2.4966969350066126e+00 -6.2160814043112609e+00 -9.9157398119423430e+00 0 2 2
223 75 1 -8.1999999999999995e-01 -9.6324256640201575e+00 -1.4640737620050464e+01 -1.3955711763949369e+01 2 2 3
2446 816 1 -8.1999999999999995e-01 -3.2056887008467072e-01 -1.0374917096071947e+01 -7.6476002226774691e+00 1 2 0
828 276 2 4.0999999999999998e-01 -2.8744908364348856e+00 -1.4849026056081362e+01 -1.0746381847857226e+01 -1 2 -1
2306 769 2 4.0999999999999998e-01 -5.9071979938138490e+00 -6.1811768168007077e+00 -9.9263129496262881e+00 -2 2 -1
1725 575 2 4.0999999999999998e-01 -1.0421975278053749e+01 -5.0072635358183533e+00 -1.3126393784568027e+01 1 -1 2
1421 474 2 4.0999999999999998e-01 -6.9648879062154752e+00 -1.3997487958077755e+01 -1.3154305466296218e+01 -1 1 0
856 286 1 -8.1999999999999995e-01 -1.2009535725294075e+01 -7.5912299475172613e+00 -8.0130926393135500e+00 0 3 0
2233 745 1 -8.1999999999999995e-01 -6.0511771348282881e+00 -1.1129225904890333e+01 -1.2346049715916619e+01 0 2 1
2307 769 2 4.0999999999999998e-01 -5.8019060126122479e+00 -5.2061244903396382e+00 -1.1232083126604085e+01 -2 2 -1
1420 474 1 -8.1999999999999995e-01 -6.4562581294078392e+00 -1.3421578745732988e+01 -1.3794389795075309e+01 -1 1 0
1422 474 2 4.0999999999999998e-01 -6.3801069470236449e+00 -1.3888981761341777e+01 -1.4675195724672381e+01 -1 1 0
1820 607 2 4.0999999999999998e-01 -1.3372005801497796e+01 -1.1605317773968309e+01 -7.6165798540970524e+00 0 2 2
2087 696 2 4.0999999999999998e-01 -4.4565610052410403e+00 -7.3716195310486707e+00 -1.3915517862786396e+01 1 1 -1
913 305 1 -8.1999999999999995e-01 -6.1073997997480411e-01 -7.9145868569127060e+00 -1.4793763392618649e+01 0 0 1
1723 575 1 -8.1999999999999995e-01 -1.0404479995967819e+01 -5.7577398083416806e+00 -1.3787122760394967e+01 1 -1 2
2305 769 1 -8.1999999999999995e-01 -5.9911266032589197e+00 -5.2389229005318363e+00 -1.0250653874403341e+01 -2 2 -1
2365 789 1 -8.1999999999999995e-01 -4.9458868031947443e+00 -5.4105816077861153e+00 -1.3412904966448989e+01 0 1 0
1214 405 2 4.0999999999999998e-01 -8.1521494157275889e+00 -5.8796682786916570e+00 -1.3833819011081260e+01 -1 1 0
1039 347 1 -8.1999999999999995e-01 -5.1025357495754555e+00 -7.8554614733406627e+00 -9.6275511183059326e+00 0 1 0
2149 717 1 -8.1999999999999995e-01 -5.1834743157773460e+00 -1.0523528959163230e+01 -9.6392498916662035e+00 1 -1 3
1716 572 2 4.0999999999999998e-01 -2.1360535653661046e+00 -1.4801502387329677e+01 -1.3629036639624253e+01 1 1 2
224 75 2 4.0999999999999998e-01 -9.4250195313200891e+00 -1.4602305528796641e+01 -1.2978169249550698e+01 2 2 3
826 276 1 -8.1999999999999995e-01 -2.6036386983161695e+00 -1.3933275881611252e+01 -1.1043239144980829e+01 -1 2 -1
899 300 2 4.0999999999999998e-01 -1.2901932462406158e+00 -1.2137809380245560e+01 -7.9233712815033286e+00 1 1 0
1714 572 1 -8.1999999999999995e-01 -2.4950755783565235e+00 -1.3918905473240780e+01 -1.3932696846012124e+01 1 1 2
1213 405 1 -8.1999999999999995e-01 -7.5791072729773132e+00 -6.4496865156465546e+00 -1.3244933970346889e+01 -1 1 0
960 320 2 4.0999999999999998e-01 -1.3996560766751127e+00 -1.1258260775344276e+01 -1.3264061624686207e+01 0 -1 -1
958 320 1 -8.1999999999999995e-01 -4.2568418729619850e-01 -1.1484297022356673e+01 -1.3244827314754341e+01 0 -1 -1
827 276 2 4.0999999999999998e-01 -2.5172402590799727e+00 -1.3336259535135165e+01 -1.0245623764727132e+01 -1 2 -1
1019 340 2 4.0999999999999998e-01 -3.2756129839843879e+00 -6.8272575408829432e+00 -1.0056583733067804e+01 0 2 2
2263 755 1 -8.1999999999999995e-01 -1.0943917377035202e+01 -5.0216840830734064e+00 -7.6937343509171399e+00 0 1 -1
1455 485 2 4.0999999999999998e-01 -1.4668611858158648e+01 -6.1901618470275270e+00 -1.0664300515778528e+01 0 2 -1
885 295 2 4.0999999999999998e-01 -4.4056640662937312e+00 -1.0291616949310862e+01 -7.6233186588009483e+00 0 0 1
1605 535 2 4.0999999999999998e-01 -1.0946641314096702e+01 -7.3967085517661992e+00 -1.3564343625755367e+01 -1 1 -1
2431 811 1 -8.1999999999999995e-01 -7.0669145005011664e+00 -1.4223621436207663e+01 -1.1189490035228371e+01 2 3 0
2432 811 2 4.0999999999999998e-01 -6.1852675828802930e+00 -1.4346247344295401e+01 -1.0733699179967235e+01 2 3 0
1020 340 2 4.0999999999999998e-01 -2.3307519639859180e+00 -6.1080558769721041e+00 -8.9354968542699815e+00 0 2 2
2235 745 2 4.0999999999999998e-01 -6.1226686975347828e+00 -1.1965487066213093e+01 -1.2889777522802888e+01 0 2 1
1215 405 2 4.0999999999999998e-01 -6.6207079152232655e+00 -6.1871917565456389e+00 -1.3357409595956838e+01 -1 1 0
1041 347 2 4.0999999999999998e-01 -4.9888479042215934e+00 -8.8206161403684114e+00 -9.8634219599236594e+00 0 1 0
2151 717 2 4.0999999999999998e-01 -5.5278910756990562e+00 -1.1195345902460595e+01 -8.9834125602554025e+00 1 -1 3
1040 347 2 4.0999999999999998e-01 -4.9746678127925144e+00 -7.7356392050495595e+00 -8.6429822038387449e+00 0 1 0
914 305 2 4.0999999999999998e-01 -7.4618866554566310e-01 -7.7525289327106286e+00 -1.3816279598667546e+01 0 0 1
917 306 2 4.0999999999999998e-01 -4.1024202175978211e+00 -1.0957140502498699e+01 -1.2750587827707214e+01 1 2 3
2086 696 1 -8.1999999999999995e-01 -3.6213769252841583e+00 -7.9180892804024614e+00 -1.3852892388945111e+01 1 1 -1
918 306 2 4.0999999999999998e-01 -3.4659626699419981e+00 -9.6993464607360522e+00 -1.3575042429684920e+01 1 2 3
572 191 2 4.0999999999999998e-01 -1.1825871021896303e+01 -1.2186676915812182e+01 -1.4767220470071232e+01 0 1 3
2265 755 2 4.0999999999999998e-01 -1.1241655324612463e+01 -5.9762879276524838e+00 -7.6808064733552319e+00 0 1 -1
898 300 1 -8.1999999999999995e-01 -1.9001782418332152e+00 -1.2825403149536193e+01 -8.3173467059583537e+00 1 1 0
858 286 2 4.0999999999999998e-01 -1.1812357293555531e+01 -8.4968660270877727e+00 -7.6375564381992289e+00 0 3 0
2447 816 2 4.0999999999999998e-01 -3.8471355334444546e-01 -9.8620615876983955e+00 -8.5037241670998824e+00 1 2 0
1046 349 2 4.0999999999999998e-01 -2.8262319528687918e-01 -6.6738596054494490e+00 -1.1994233630974509e+01 2 0 0
1453 485 1 -8.1999999999999995e-01 -1.4549491343908093e+01 -5.4400923310308524e+00 -1.1314907550553354e+01 0 2 -1
2088 696 2 4.0999999999999998e-01 -2.8626263571661212e+00 -7.4160331746959383e+00 -1.4268007770811778e+01 1 1 -1
2198 733 2 4.0999999999999998e-01 -8.7994904568857990e+00 -1.0618210753593862e+01 -8.1439471014579183e+00 1 3 4
2197 733 1 -8.1999999999999995e-01 -8.8943184346841662e+00 -1.1429112590827703e+01 -7.5664269593494202e+00 1 3 4
900 300 2 4.0999999999999998e-01 -2.6144511991914499e+00 -1.3055329552545683e+01 -7.6562631476010976e+00 1 1 0
1664 555 2 4.0999999999999998e-01 -1.3460804540793850e+01 -1.2161377514292367e+01 -2.9678560348445995e+00 -1 1 2
1256 419 2 4.0999999999999998e-01 -1.4920365869341490e+01 -9.8591031428521276e+00 -7.1223257521148966e+00 1 0 -1
591 197 2 4.0999999999999998e-01 -4.9456032371526977e+00 -7.5490841134195188e+00 -3.0711701250811601e+00 -1 1 2
72 24 2 4.0999999999999998e-01 -1.3479306029880458e+01 -1.2950051170571573e+01 -7.8241733454741080e-01 0 1 0
1424 475 2 4.0999999999999998e-01 -1.2799086907453619e+01 -1.4804863080877261e+01 -2.2055684207462676e+00 -1 1 -1
1663 555 1 -8.1999999999999995e-01 -1.3528079516900666e+01 -1.1850375241519139e+01 -3.9159252350101159e+00 -1 1 2
2240 747 2 4.0999999999999998e-01 -4.8672226788770665e+00 -9.3574734061796239e+00 -6.0130449167412081e-01 -1 -1 -3
234 78 2 4.0999999999999998e-01 -9.7642643747682705e+00 -5.2785852586927824e+00 -4.7979105606464945e+00 1 3 -2
2239 747 1 -8.1999999999999995e-01 -4.8334697466339236e+00 -1.0353894606749840e+01 -5.2327197401397818e-01 -1 -1 -3
2545 849 1 -8.1999999999999995e-01 -1.4349480375425676e+01 -6.7064650756294917e+00 -6.3315535063957391e+00 3 3 0
1665 555 2 4.0999999999999998e-01 -1.3250262506248976e+01 -1.0891373938093128e+01 -3.9726506892023057e+00 -1 1 2
70 24 1 -8.1999999999999995e-01 -1.2703502741755644e+01 -1.3125598518922180e+01 -1.3885492751277244e+00 0 1 0
71 24 2 4.0999999999999998e-01 -1.1853972176837015e+01 -1.2877026914195001e+01 -9.2315316189693242e-01 0 1 0
232 78 1 -8.1999999999999995e-01 -1.0657729716248568e+01 -5.4581087041336289e+00 -4.3861159457995420e+00 1 3 -2
1886 629 2 4.0999999999999998e-01 -1.3076583325451535e+01 -6.2646845122070918e+00 -2.8006468699900324e+00 0 4 -1
566 189 2 4.0999999999999998e-01 -1.2345139640147426e+01 -7.9164134693136203e+00 -3.7348471019132745e-01 -1 1 0
2199 733 2 4.0999999999999998e-01 -9.4114149264251417e+00 -1.1193620067714962e+01 -6.7434822182464167e+00 1 3 4
2546 849 2 4.0999999999999998e-01 -1.3485011837593934e+01 -6.6166067536027704e+00 -6.8262287703714470e+00 3 3 0
238 80 1 -8.1999999999999995e-01 -1.1998369928700512e+01 -9.6497774867727983e+00 -3.1655153557442013e+00 1 1 0
239 80 2 4.0999999999999998e-01 -1.2006386065715651e+01 -8.6988077502154901e+00 -3.4748305104032085e+00 1 1 0
233 78 2 4.0999999999999998e-01 -1.0638333538848441e+01 -5.1973415485362509e+00 -3.4208657630276935e+00 1 3 -2
240 80 2 4.0999999999999998e-01 -1.1562784280991476e+01 -9.7043726709683984e+00 -2.2669787120584779e+00 1 1 0
565 189 1 -8.1999999999999995e-01 -1.3128018029513814e+01 -7.2945815446289446e+00 -3.9606752065300910e-01 -1 1 0
1906 636 1 -8.1999999999999995e-01 -1.4866329471075220e+01 -1.1845763466557557e+01 -7.4017350677943128e-02 1 0 -1
442 148 1 -8.1999999999999995e-01 -9.3449193851426049e+00 -7.0726110291789253e+00 -9.4210142242125627e-01 0 1 0
1885 629 1 -8.1999999999999995e-01 -1.2966678433355703e+01 -6.6838690336468307e+00 -3.7019175843522145e+00 0 4 -1
2190 730 2 4.0999999999999998e-01 -8.1284935083481145e+00 -7.7642847633021104e+00 -6.7171813495947870e+00 2 2 -1
1887 629 2 4.0999999999999998e-01 -1.2047039211531228e+01 -6.4960498867607104e+00 -4.0469848499100216e+00 0 4 -1
2188 730 1 -8.1999999999999995e-01 -7.7314298443359153e+00 -8.4286466543576317e+00 -6.0838984409865713e+00 2 2 -1
2189 730 2 4.0999999999999998e-01 -8.4231063675081259e+00 -9.1067610240538279e+00 -5.8352460416780811e+00 2 2 -1
103 35 1 -8.1999999999999995e-01 -1.2451189450133700e+01 -1.2786628892528881e+01 -6.4725765281776830e+00 1 0 1
104 35 2 4.0999999999999998e-01 -1.2825648531098771e+01 -1.2435434735555631e+01 -5.6143652831336102e+00 1 0 1
1387 463 1 -8.1999999999999995e-01 -1.0151689790306172e+01 -1.3331831241932251e+01 -3.2708098720076144e+00 1 2 -1
1388 463 2 4.0999999999999998e-01 -1.0931323675292958e+01 -1.2909978806907295e+01 -2.8078896486606233e+00 1 2 -1
47 16 2 4.0999999999999998e-01 -8.4572242952191026e+00 -5.6547695908054827e+00 -7.3964289077536458e+00 -1 0 2
2364 788 2 4.0999999999999998e-01 -8.6622111667637824e+00 -1.3159680360087030e+01 -4.5526629787568105e+00 2 3 0
2547 849 2 4.0999999999999998e-01 -1.4173193658410526e+01 -6.6934343338515490e+00 -5.3472584681522566e+00 3 3 0
988 330 1 -8.1999999999999995e-01 -4.4214240437003802e+00 -1.0269933588284363e+01 -4.2713700623029869e+00 0 3 1
139 47 1 -8.1999999999999995e-01 -5.1259705629738512e+00 -1.2518157299533012e+01 -7.3657687331001807e+00 0 2 3
105 35 2 4.0999999999999998e-01 -1.1790872965825262e+01 -1.3511551536944122e+01 -6.2762273529870107e+00 1 0 1
1171 391 1 -8.1999999999999995e-01 -4.1885844302930586e-01 -1.4932921349340651e+01 -1.0354644272871685e+00 1 0 1
769 257 1 -8.1999999999999995e-01 -9.4325569151461917e+00 -1.0273480327728382e+01 -4.7798409070154211e+00 2 0 -1
770 257 2 4.0999999999999998e-01 -8.5193014886374065e+00 -1.0209806202349524e+01 -4.3773564871384565e+00 2 0 -1
1611 537 2 4.0999999999999998e-01 -1.0211296333616115e+01 -8.7909732512019261e+00 -6.1783976690932541e-01 1 3 0
1329 443 2 4.0999999999999998e-01 -6.0618277737188961e+00 -7.9477375908998882e+00 -6.8607504575426805e+00 1 2 -1
771 257 2 4.0999999999999998e-01 -1.0101159286413431e+01 -1.0463613602820008e+01 -4.0608807473633455e+00 2 0 -1
1609 537 1 -8.1999999999999995e-01 -1.0957071212605642e+01 -9.4456880950227173e+00 -7.4133826546939474e-01 1 3 0
8 3 2 4.0999999999999998e-01 -2.8604328635134859e+00 -1.3771027580428134e+01 -5.0943371452146771e+00 1 0 0
2476 826 1 -8.1999999999999995e-01 -6.5285923034468336e+00 -5.6384955118122910e+00 -4.3773383956659728e-01 3 1 1
1951 651 1 -8.1999999999999995e-01 -1.0214778381882645e+01 -1.2716166326823219e+01 -3.5899100830219943e-01 0 3 0
1389 463 2 4.0999999999999998e-01 -1.0480224240555238e+01 -1.4024387942204919e+01 -3.9130824360709102e+00 1 2 -1
590 197 2 4.0999999999999998e-01 -3.7171341300657250e+00 -7.7029857568107722e+00 -2.0062630699134605e+00 -1 1 2
1953 651 2 4.0999999999999998e-01 -9.7877662973211201e+00 -1.1811960828214513e+01 -3.7150601792003179e-01 0 3 0
989 330 2 4.0999999999999998e-01 -4.0861862072189705e+00 -9.5285534792097728e+00 -3.6899453707484966e+00 0 3 1
1793 598 2 4.0999999999999998e-01 -1.4021459132807744e+01 -1.3488596120303411e+01 -7.3904925288464840e+00 3 1 1
2241 747 2 4.0999999999999998e-01 -4.0509902394002388e+00 -1.0702346605876979e+01 -1.0394029279670622e+00 -1 -1 -3
1792 598 1 -8.1999999999999995e-01 -1.4681251908141498e+01 -1.4240099268023357e+01 -7.3905116675958604e+00 3 1 1
7 3 1 -8.1999999999999995e-01 -3.1591343095319591e+00 -1.4017475099514913e+01 -6.0163591405650791e+00 1 0 0
2293 765 1 -8.1999999999999995e-01 -1.0978193381018549e+01 -1.4852213053810161e+01 -5.6237319473831313e+00 0 1 0
2362 788 1 -8.1999999999999995e-01 -7.8145498427276596e+00 -1.3188819119678557e+01 -5.0824787684532815e+00 2 3 0
1382 461 2 4.0999999999999998e-01 -1.3541723204193143e+00 -1.0698018112670946e+01 -1.9194901185225266e+00 -1 0 -1
2363 788 2 4.0999999999999998e-01 -7.8568417673823996e+00 -1.2511038879639372e+01 -5.8165829736417773e+00 2 3 0
1938 646 2 4.0999999999999998e-01 -2.2916093285019183e+00 -1.2336144624625785e+01 -3.8023496413278934e-01 0 1 -1
1383 461 2 4.0999999999999998e-01 -2.6594079475132411e+00 -1.1154789413296886e+01 -2.7881496074848062e+00 -1 0 -1
2032 678 1 -8.1999999999999995e-01 -5.5366211292834198e+00 -1.2926852935245400e+01 -3.3977114717478116e+00 0 2 2
141 47 2 4.0999999999999998e-01 -4.2965701546575108e+00 -1.2878909364604240e+01 -6.9391114833367169e+00 0 2 3
738 246 2 4.0999999999999998e-01 -6.7981856110877192e+00 -1.0529503517057773e+01 -2.3816570559663166e+00 0 1 -1
2348 783 2 4.0999999999999998e-01 -3.8672730387640257e+00 -6.4712091859560044e+00 -6.9611590367858440e+00 2 2 1
2347 783 1 -8.1999999999999995e-01 -2.9658752746501147e+00 -6.0689164808782934e+00 -7.1215531004220125e+00 2 2 1
1151 384 2 4.0999999999999998e-01 -8.8533870744161938e+00 -1.3989123487079656e+01 -1.7366710512673968e+00 0 0 1
381 127 2 4.0999999999999998e-01 -8.0887383747620767e-01 -9.9572570213213787e+00 -4.1099645354856982e+00 1 3 0
379 127 1 -8.1999999999999995e-01 -1.0528375052552281e+00 -1.0684310868066609e+01 -4.7518041071299812e+00 1 3 0
2033 678 2 4.0999999999999998e-01 -6.3683544588044168e+00 -1.3235356464900519e+01 -3.8593702450425891e+00 0 2 2
503 168 2 4.0999999999999998e-01 -6.8816812523952482e+00 -7.7645978287539537e+00 -4.7533642207118838e+00 1 2 2
884 295 2 4.0999999999999998e-01 -2.8366586556146132e+00 -1.0012978151989628e+01 -7.2663430535623261e+00 0 0 1
1150 384 1 -8.1999999999999995e-01 -8.0054112340081058e+00 -1.4431643958997059e+01 -1.4447873091578192e+00 0 0 1
1327 443 1 -8.1999999999999995e-01 -5.1613534642797347e+00 -7.5483371591203099e+00 -6.6883879945692417e+00 1 2 -1
1443 481 2 4.0999999999999998e-01 -7.5760395489148635e-01 -6.6519796992067413e+00 -7.3667323897512489e+00 0 2 2
656 219 2 4.0999999999999998e-01 -4.3976592231402716e+00 -1.4212708180468059e+01 -3.2034763612044994e+00 1 1 2
1172 391 2 4.0999999999999998e-01 -8.3504131617075039e-01 -1.4044213406897427e+01 -8.4291958222420682e-01 1 0 1
1381 461 1 -8.1999999999999995e-01 -2.3202770458724000e+00 -1.0951467162282999e+01 -1.8695997366825274e+00 -1 0 -1
444 148 2 4.0999999999999998e-01 -9.8404851649880527e+00 -6.4094706963638295e+00 -1.5031212592934953e+00 0 1 0
1238 413 2 4.0999999999999998e-01 -1.4536484127967835e+01 -8.2102654861525650e+00 -5.9038877923028821e-01 1 2 0
360 120 2 4.0999999999999998e-01 -3.5492635149625684e-01 -1.2576189262439504e+01 -4.8280552536562205e+00 -1 2 1
1403 468 2 4.0999999999999998e-01 -2.3070679466014088e+00 -6.9585686552286390e+00 -3.9644272948122019e+00 1 1 0
589 197 1 -8.1999999999999995e-01 -4.0024213807327378e+00 -7.8593548798164496e+00 -2.9519074976357302e+00 -1 1 2
1152 384 2 4.0999999999999998e-01 -7.2394473977191840e+00 -1.3801559465235380e+01 -1.5727576952678017e+00 0 0 1
2034 678 2 4.0999999999999998e-01 -5.3471007232198353e+00 -1.1978178968989353e+01 -3.6510557191408406e+00 0 2 2
380 127 2 4.0999999999999998e-01 -6.0416415614937868e-01 -1.0518115477311220e+01 -5.6299583607250323e+00 1 3 0
443 148 2 4.0999999999999998e-01 -8.4100884978910351e+00 -6.7503256351083518e+00 -7.9274592546985012e-01 0 1 0
140 47 2 4.0999999999999998e-01 -5.7496424198517762e+00 -1.2189267255932792e+01 -6.6565802919313679e+00 0 2 3
1404 468 2 4.0999999999999998e-01 -2.2848920094574936e+00 -6.2404984304871221e+00 -5.4309650431281380e+00 1 1 0
1402 468 1 -8.1999999999999995e-01 -1.8038287666248696e+00 -6.3313749629936247e+00 -4.5589540504085697e+00 1 1 0
1328 443 2 4.0999999999999998e-01 -4.5387606818940309e+00 -8.2589229990305579e+00 -6.3604710809660059e+00 1 2 -1
502 168 1 -8.1999999999999995e-01 -6.6120621915343705e+00 -7.4496587203893974e+00 -3.8433079170882607e+00 1 2 2
737 246 2 4.0999999999999998e-01 -6.9464124887450360e+00 -9.1272939487102089e+00 -3.2054812002800315e+00 0 1 -1
1971 657 2 4.0999999999999998e-01 -4.9684014217252237e+00 -6.6235597669823179e+00 -4.1270526531138074e-01 3 1 0
990 330 2 4.0999999999999998e-01 -4.2327477157369842e+00 -1.0053596770182281e+01 -5.2293278611197156e+00 0 3 1
504 168 2 4.0999999999999998e-01 -7.2303912563624788e+00 -6.7222684363773126e+00 -3.5455563033833180e+00 1 2 2
736 246 1 -8.1999999999999995e-01 -7.3617388375000363e+00 -1.0020366409954995e+01 -3.0322497037273664e+00 0 1 -1
883 295 1 -8.1999999999999995e-01 -3.7810073309723506e+00 -9.8376332578968366e+00 -6.9878768406246774e+00 0 0 1
2349 783 2 4.0999999999999998e-01 -3.0606328869151671e+00 -5.0829691317544974e+00 -7.2594383019171760e+00 2 2 1
1969 657 1 -8.1999999999999995e-01 -4.1883658045139569e+00 -7.2312805589695985e+00 -2.6336193239931838e-01 3 1 0
655 219 1 -8.1999999999999995e-01 -3.7316935082967380e+00 -1.4943359632261727e+01 -3.0527385322996476e+00 1 1 2
2111 704 2 4.0999999999999998e-01 -1.3400190630553094e+01 -5.1710862203646020e+00 2.5893524607014005e+00 1 2 -2
1975 659 1 -8.1999999999999995e-01 -8.3605920996116758e+00 -1.1920632016181603e+01 4.4788710398238063e+00 0 2 1
2434 812 1 -8.1999999999999995e-01 -1.3226320653348305e+01 -1.2419224637047966e+01 3.1518897408510309e+00 -1 2 0
2112 704 2 4.0999999999999998e-01 -1.3355689426150779e+01 -6.7917750905854177e+00 2.3938103930896570e+00 1 2 -2
439 147 1 -8.1999999999999995e-01 -2.7280961979626213e+00 -1.0072701701980407e+01 7.2397346950154127e+00 2 0 -1
2436 812 2 4.0999999999999998e-01 -1.4021119968048877e+01 -1.1835952159368400e+01 3.3197312674785966e+00 -1 2 0
323 108 2 4.0999999999999998e-01 -1.1285224415547457e+01 -1.4440062021609865e+01 5.8065816287296936e+00 1 3 -1
724 242 1 -8.1999999999999995e-01 -1.4036152096989973e+01 -6.1018189954893884e+00 6.6491925335121405e+00 1 3 0
725 242 2 4.0999999999999998e-01 -1.4279848107774372e+01 -6.8959458835102421e+00 6.0923636831712020e+00 1 3 0
2110 704 1 -8.1999999999999995e-01 -1.3523279979328882e+01 -5.9184310511493887e+00 1.9363528932339324e+00 1 2 -2
2532 844 2 4.0999999999999998e-01 -5.7061496681812276e+00 -9.4704930745846490e+00 7.1042566899600619e+00 1 3 0
119 40 2 4.0999999999999998e-01 -9.4579222738427191e+00 -1.4399803098958381e+01 6.1561275339548889e+00 1 2 0
2153 718 2 4.0999999999999998e-01 -1.2726747707767700e+01 -1.0447053115720934e+01 7.2416735280549478e+00 0 2 2
722 241 2 4.0999999999999998e-01 -1.2207198859140881e+01 -8.4417508382592565e+00 3.9856257747616564e+00 0 0 -2
969 323 2 4.0999999999999998e-01 -1.0772925671020868e+01 -1.4969407807232569e+01 2.1602041738005351e+00 1 0 2
584 195 2 4.0999999999999998e-01 -1.1156697823597861e+01 -7.5680490415907880e+00 5.7979448452901519e+00 1 1 -2
292 98 1 -8.1999999999999995e-01 -6.2806763887567012e+00 -1.3409026605385186e+01 6.5306558106405728e+00 3 2 0
2502 834 2 4.0999999999999998e-01 -9.0599157013378537e+00 -8.3442970844968301e+00 2.9172433180421837e+00 1 2 1
2435 812 2 4.0999999999999998e-01 -1.3469984293233122e+01 -1.3134148739557983e+01 2.4964546951321029e+00 -1 2 0
721 241 1 -8.1999999999999995e-01 -1.2723191339646087e+01 -8.4835149626752600e+00 3.1300026068452436e+00 0 0 -2
279 93 2 4.0999999999999998e-01 -1.2414593350727674e+01 -1.1189282421041163e+01 2.3409607900469904e+00 0 0 -1
723 241 2 4.0999999999999998e-01 -1.2430576812549704e+01 -9.2813986276472704e+00 2.6028955051972087e+00 0 0 -2
2500 834 1 -8.1999999999999995e-01 -9.2743989980932895e+00 -8.4757436461162126e+00 1.9493578699569465e+00 1 2 1
585 195 2 4.0999999999999998e-01 -1.0675793208186509e+01 -9.1282667171443705e+00 5.7618797024634230e+00 1 1 -2
929 310 2 4.0999999999999998e-01 -1.3538116555545024e+01 -1.2404026666794545e+01 6.1619415870101601e+00 2 1 0
237 79 2 4.0999999999999998e-01 -1.3812937284516726e+01 -8.3597499180146109e+00 4.6467641140028260e+00 3 2 0
278 93 2 4.0999999999999998e-01 -1.0987376586668942e+01 -1.1204149636977125e+01 1.5474367269672822e+00 0 0 -1
277 93 1 -8.1999999999999995e-01 -1.1761142639479310e+01 -1.0634882662118814e+01 1.8254740492611976e+00 0 0 -1
235 79 1 -8.1999999999999995e-01 -1.4539212117577716e+01 -8.7842452522623287e+00 5.1875158174749512e+00 3 2 0
583 195 1 -8.1999999999999995e-01 -1.1228223109798074e+01 -8.4332616852808684e+00 5.3015833811456101e+00 1 1 -2
1472 491 2 4.0999999999999998e-01 -1.4381971939940955e+01 -1.4382669673136267e+01 7.2570166041054431e+00 0 3 0
683 228 2 4.0999999999999998e-01 -5.9752331868116304e+00 -9.3179010255667869e+00 2.9841718583573655e+00 1 1 1
86 29 2 4.0999999999999998e-01 -8.4114627622642573e+00 -6.5491478669614533e+00 4.5686186057518992e+00 0 2 0
152 51 2 4.0999999999999998e-01 -5.9619220884356334e+00 -5.2513916145907462e+00 6.7952597593378368e+00 -2 2 -1
928 310 1 -8.1999999999999995e-01 -1.2818057178572484e+01 -1.1800397242553462e+01 5.8195532246320187e+00 2 1 0
1977 659 2 4.0999999999999998e-01 -8.9323802079445951e+00 -1.2595163924291162e+01 4.9459348506587038e+00 0 2 1
85 29 1 -8.1999999999999995e-01 -8.7279219731901136e+00 -5.9857526865271691e+00 3.8053867105662231e+00 0 2 0
930 310 2 4.0999999999999998e-01 -1.2909766524268449e+01 -1.1700787496677258e+01 4.8287198245235405e+00 2 1 0
1471 491 1 -8.1999999999999995e-01 -1.4486008927819769e+01 -1.3761680032125458e+01 6.4800792216021694e+00 0 3 0
294 98 2 4.0999999999999998e-01 -5.8479603278310410e+00 -1.3715729456980316e+01 7.3784610805876891e+00 3 2 0
649 217 1 -8.1999999999999995e-01 -1.1337695936455642e+01 -5.7483315954471497e+00 6.3532161303689012e+00 1 2 -2
1976 659 2 4.0999999999999998e-01 -7.5120464100994866e+00 -1.2355029791147068e+01 4.1766255660780427e+00 0 2 1
2080 694 1 -8.1999999999999995e-01 -6.6312063657909004e+00 -1.0737511948064045e+01 6.1155713090865103e+00 0 3 1
1741 581 1 -8.1999999999999995e-01 -9.1372267365563982e+00 -1.4196149951076677e+01 2.0045315189321595e+00 0 0 -2
296 99 2 4.0999999999999998e-01 -9.0502448976064098e+00 -1.0129113526466224e+01 1.6666349239108857e+00 0 3 -3
2081 694 2 4.0999999999999998e-01 -7.2187771557756353e+00 -1.0971138898747261e+01 5.3408051664765974e+00 0 3 1
87 29 2 4.0999999999999998e-01 -9.4036301064352230e+00 -5.3265288139936597e+00 4.1354260178763571e+00 0 2 0
650 217 2 4.0999999999999998e-01 -1.2321364732588810e+01 -5.9283120566766474e+00 6.3439270277272310e+00 1 2 -2
322 108 1 -8.1999999999999995e-01 -1.0784522716134784e+01 -1.3643866105036144e+01 5.4667973243274393e+00 1 3 -1
324 108 2 4.0999999999999998e-01 -1.1406446522409103e+01 -1.2863844488598179e+01 5.3970785546491857e+00 1 3 -1
1473 491 2 4.0999999999999998e-01 -1.4789440819649013e+01 -1.4277857254253750e+01 5.6790962401220444e+00 0 3 0