LAMMPS data file via write_data, version 15 May 2015, timestep = 18500000

2593 atoms
6 atom types
1728 bonds
4 bond types
864 angles
3 angle types
0 dihedrals
3 dihedral types
0 impropers
1 improper types

-1.5006134600385961e+01 1.5006134600385961e+01 xlo xhi
-1.5006134600385961e+01 1.5006134600385961e+01 ylo yhi
-1.5006134600385961e+01 1.5006134600385961e+01 zlo zhi

Masses

1 15.9994
2 1.00794
3 12.0107
4 1.00794
5 12.0107
6 12.0107

Bond Coeffs # harmonic

1 1000 1
2 469 1.4
3 367 1.08
4 469 0.7

Angle Coeffs # harmonic

1 100 109.47
2 35 120
3 63 120

Dihedral Coeffs # opls

1 0 7.25 0 0
2 0 7.25 0 0
3 0 7.25 0 0

Improper Coeffs # cvff

1 2.5 -1 2

Atoms # full

1877 626 2 4.0999999999999998e-01 -9.4041838287859960e+00 -1.0697606841268055e+01 -1.1648578946882866e+01 2 6 0
1876 626 1 -8.1999999999999995e-01 -9.9025641840282077e+00 -1.1533762965177013e+01 -1.1877577220903062e+01 2 6 0
2317 773 1 -8.1999999999999995e-01 -1.2677054032208273e+01 -1.2131016994374962e+01 -1.1487662339111854e+01 0 1 0
1218 406 2 4.0999999999999998e-01 -9.5914287253293864e+00 -8.9876513611761979e+00 -7.9063427341366932e+00 1 3 2
1878 626 2 4.0999999999999998e-01 -1.0771323594525089e+01 -1.1550118082837834e+01 -1.1382632916335194e+01 2 6 0
1380 460 2 4.0999999999999998e-01 -1.4285388372300824e+01 -9.1069871761337460e+00 -9.9720082812193276e+00 2 7 -1
561 187 2 4.0999999999999998e-01 -8.9996924598959254e+00 -1.3227725852405513e+01 -9.1005189650884830e+00 3 0 3
559 187 1 -8.1999999999999995e-01 -9.6002086119049004e+00 -1.2524466452125464e+01 -8.7200102366327634e+00 3 0 3
2362 788 1 -8.1999999999999995e-01 -5.8932773381633972e+00 -9.8234218363424581e+00 -9.6143091903192346e+00 4 3 3
900 300 2 4.0999999999999998e-01 -1.0296228234628241e+01 -1.1010576791412127e+01 -8.6894078003648652e+00 0 2 3
2319 773 2 4.0999999999999998e-01 -1.2708967909239432e+01 -1.2044951311786477e+01 -1.2483430623492094e+01 0 1 0
1208 403 2 4.0999999999999998e-01 -8.4124141174879448e+00 -8.9036471317446537e+00 -1.0662156632281482e+01 -2 -3 2
2318 773 2 4.0999999999999998e-01 -1.3088686891005006e+01 -1.1321148578551027e+01 -1.1069748547280948e+01 0 1 0
477 159 2 4.0999999999999998e-01 -9.1377302059711738e+00 -1.2950487378939467e+01 -1.2416373228661117e+01 5 3 0
475 159 1 -8.1999999999999995e-01 -9.0214913891509720e+00 -1.3867514200228033e+01 -1.2797857960649795e+01 5 3 0
1023 341 2 4.0999999999999998e-01 -6.4826303450051910e+00 -1.1646064092976312e+01 -1.3239833205165539e+01 8 3 1
915 305 2 4.0999999999999998e-01 -1.2584736502450241e+01 -1.3699276549899949e+01 -1.0476482243306895e+01 2 3 0
1604 535 2 4.0999999999999998e-01 -1.4079813653391867e+01 -1.4831689179439044e+01 -1.4373120137631368e+01 1 3 1
252 84 2 4.0999999999999998e-01 -8.0881999348608513e+00 -9.7922531736186684e+00 -1.3432821726926779e+01 2 4 0
250 84 1 -8.1999999999999995e-01 -7.1885832856649152e+00 -1.0165221723224400e+01 -1.3659900079662263e+01 2 4 0
672 224 2 4.0999999999999998e-01 -9.5769400415154475e+00 -1.4782329816904204e+01 -1.1293470205594161e+01 1 7 -3
251 84 2 4.0999999999999998e-01 -6.6316127784909487e+00 -9.4541646887300175e+00 -1.4089041059641103e+01 2 4 0
1207 403 1 -8.1999999999999995e-01 -8.9156611054617976e+00 -8.7377026911551479e+00 -1.1510204480918290e+01 -2 -3 2
1209 403 2 4.0999999999999998e-01 -8.8582205376208876e+00 -7.7679916111296805e+00 -1.1747567598625071e+01 -2 -3 2
913 305 1 -8.1999999999999995e-01 -1.2762069608799141e+01 -1.4479713671730075e+01 -9.8769395969804066e+00 2 3 0
189 63 2 4.0999999999999998e-01 -1.2192706387338429e+01 -8.1686553876125920e+00 -9.9091332001397419e+00 -3 -1 0
1079 360 2 4.0999999999999998e-01 -1.1694507339360872e+01 -1.1023773747504631e+01 -1.4144478665717171e+01 2 5 -3
560 187 2 4.0999999999999998e-01 -1.0416476706045078e+01 -1.2955571408679802e+01 -8.3355167823899681e+00 3 0 3
181 61 1 -8.1999999999999995e-01 -7.1111848886373847e+00 -1.1696431727967429e+01 -8.0688615081025201e+00 3 5 -2
476 159 2 4.0999999999999998e-01 -8.3529017127974718e+00 -1.3837142442740326e+01 -1.3540855696080937e+01 5 3 0
1284 428 2 4.0999999999999998e-01 -9.4532753991736982e+00 -8.5048812871217017e+00 -1.3322061810405302e+01 0 3 -2
1282 428 1 -8.1999999999999995e-01 -9.2136697486451382e+00 -8.1772193755185683e+00 -1.4235958468536719e+01 0 3 -2
1240 414 1 -8.1999999999999995e-01 -1.3921894199558082e+01 -8.5887796281364466e+00 -1.3990053544690392e+01 2 5 3
2363 788 2 4.0999999999999998e-01 -6.4895950530262425e+00 -1.0477394951135864e+01 -9.1487937824352876e+00 4 3 3
182 61 2 4.0999999999999998e-01 -8.1069771924359024e+00 -1.1786688216828956e+01 -8.0840838489123641e+00 3 5 -2
1379 460 2 4.0999999999999998e-01 -1.4538171568638306e+01 -1.0207071336748966e+01 -1.1152046117487785e+01 2 7 -1
898 300 1 -8.1999999999999995e-01 -1.0896338049638899e+01 -1.0217191251507121e+01 -8.7913289788819533e+00 0 2 3
1532 511 2 4.0999999999999998e-01 -1.3944278222188501e+01 -1.1147715452136385e+01 -8.7081637062159061e+00 1 3 -2
1078 360 1 -8.1999999999999995e-01 -1.2683820043481960e+01 -1.1158598895564872e+01 -1.4089136040949342e+01 2 5 -3
805 269 1 -8.1999999999999995e-01 -6.8528053897017198e+00 -1.3468483141341933e+01 -1.0248854153272354e+01 1 1 1
861 287 2 4.0999999999999998e-01 -1.1865517445876831e+01 -1.4069253856175669e+01 -8.2785952663772591e+00 3 1 4
806 269 2 4.0999999999999998e-01 -6.6636084653228060e+00 -1.2672288864244875e+01 -9.6741721201063502e+00 1 1 1
1870 624 1 -8.1999999999999995e-01 -1.4563441925964462e+01 -8.0430979420210313e+00 -7.6487729635033688e+00 2 -2 0
1378 460 1 -8.1999999999999995e-01 -1.3951545896451901e+01 -9.9556713040215801e+00 -1.0382209327948260e+01 2 7 -1
807 269 2 4.0999999999999998e-01 -6.6151251079364641e+00 -1.3258992067687203e+01 -1.1197327561359323e+01 1 1 1
1080 360 2 4.0999999999999998e-01 -1.2987958456582794e+01 -1.1716115245429483e+01 -1.4861570915219987e+01 2 5 -3
1242 414 2 4.0999999999999998e-01 -1.3364422496344119e+01 -9.4174251338435404e+00 -1.4040572549079297e+01 2 5 3
1021 341 1 -8.1999999999999995e-01 -5.9025121499824742e+00 -1.2370166921798496e+01 -1.2866847593188838e+01 8 3 1
1780 594 1 -8.1999999999999995e-01 -5.3380033762579711e+00 -7.5203517178449291e+00 -1.2403805206308530e+01 -2 7 2
899 300 2 4.0999999999999998e-01 -1.1848228962959739e+01 -1.0502848411430136e+01 -8.6804960452437498e+00 0 2 3
786 262 2 4.0999999999999998e-01 -5.2240103208807529e+00 -1.4040507139692382e+01 -1.3455653805545904e+01 5 -2 3
572 191 2 4.0999999999999998e-01 -1.4615620121329005e+01 -1.3482078442281892e+01 -1.2610578282847063e+01 -1 7 3
1531 511 1 -8.1999999999999995e-01 -1.3499333067646120e+01 -1.1493840244471111e+01 -7.8822087015848910e+00 1 3 -2
1603 535 1 -8.1999999999999995e-01 -1.3205445903159342e+01 -1.4363107683271938e+01 -1.4247053637656300e+01 1 3 1
2486 829 2 4.0999999999999998e-01 -5.4135024308382356e+00 -8.2836427682154081e+00 -9.4367899267650550e+00 1 0 -4
1216 406 1 -8.1999999999999995e-01 -9.0810010595987745e+00 -8.1557446629042225e+00 -7.6886845456400232e+00 1 3 2
1241 414 2 4.0999999999999998e-01 -1.4882948099600325e+01 -8.8401011009402275e+00 -1.3875191944314283e+01 2 5 3
1605 535 2 4.0999999999999998e-01 -1.2734010815016777e+01 -1.4745312359947766e+01 -1.3452290280099980e+01 1 3 1
2364 788 2 4.0999999999999998e-01 -5.0641990470937639e+00 -1.0289539394969960e+01 -9.9230872119712430e+00 4 3 3
1948 650 1 -8.1999999999999995e-01 -1.0927407482318243e+01 -6.1050670012302479e+00 -1.4805381754906350e+01 0 1 5
1280 427 2 4.0999999999999998e-01 -7.5056441731701149e+00 -7.3805256589569455e+00 -1.4936274993474363e+01 -3 1 -1
564 188 2 4.0999999999999998e-01 -1.3740466460643166e+01 -4.5949546903483647e+00 -1.4628680992525393e+01 1 3 1
1279 427 1 -8.1999999999999995e-01 -6.6011088688582618e+00 -6.9610124151844825e+00 -1.4860085866328582e+01 -3 1 -1
1481 494 2 4.0999999999999998e-01 -1.3347656971806664e+01 -7.9627752261709261e-01 -1.4636197366457749e+01 2 -2 2
187 63 1 -8.1999999999999995e-01 -1.2466747659695603e+01 -7.2204365908025157e+00 -1.0069641024412359e+01 -3 -1 0
1782 594 2 4.0999999999999998e-01 -5.8909394453579296e+00 -7.3454285758790299e+00 -1.3218448628831196e+01 -2 7 2
1851 617 2 4.0999999999999998e-01 -7.2300989437554541e+00 -4.4073810685358854e+00 -1.4824878819885530e+01 0 8 3
1283 428 2 4.0999999999999998e-01 -9.7349560622018672e+00 -7.3486693657598163e+00 -1.4440276417920652e+01 0 3 -2
1915 639 1 -8.1999999999999995e-01 -5.0792007740732750e+00 -2.5849717483197665e-01 -1.2665902811788770e+01 1 5 2
188 63 2 4.0999999999999998e-01 -1.3432207006413144e+01 -7.1081597059169628e+00 -9.8345614101594592e+00 -3 -1 0
180 60 2 4.0999999999999998e-01 -1.3962736131634673e+01 -1.6260619689409914e+00 -1.0521444544919305e+01 4 2 1
434 145 2 4.0999999999999998e-01 -9.7220096707160977e+00 -3.5044293624173264e+00 -1.1259764196437221e+01 -1 -3 0
851 284 2 4.0999999999999998e-01 -8.0023311806213329e+00 -9.0576417396236764e-01 -1.0388375385046270e+01 2 6 -3
2117 706 2 4.0999999999999998e-01 -1.0688936985814387e+01 -2.5412498665481387e-01 -1.3822894443785730e+01 -1 5 4
178 60 1 -8.1999999999999995e-01 -1.4517653460671797e+01 -8.1937613728917569e-01 -1.0724680912605262e+01 4 2 1
1916 639 2 4.0999999999999998e-01 -5.3001555451586508e+00 -1.2240366102701223e+00 -1.2528451564699811e+01 1 5 2
179 60 2 4.0999999999999998e-01 -1.4195686952438066e+01 -3.9835412420764627e-01 -1.1572653971219673e+01 4 2 1
1214 405 2 4.0999999999999998e-01 -6.7068066888785598e+00 -1.2749596256723414e+00 -7.9739364667489951e+00 0 -3 -5
850 284 1 -8.1999999999999995e-01 -7.4410467031842069e+00 -1.5106846527829472e+00 -9.8235645878241478e+00 2 6 -3
1992 664 2 4.0999999999999998e-01 -9.1900773426117564e+00 -3.4309133464022139e+00 -8.4696767783356002e+00 -1 1 5
562 188 1 -8.1999999999999995e-01 -1.4267282337366925e+01 -3.7568143185476988e+00 -1.4769982035306080e+01 1 3 1
1849 617 1 -8.1999999999999995e-01 -7.9991157154184833e+00 -3.9849201988296556e+00 -1.4345170222938576e+01 0 8 3
1991 664 2 4.0999999999999998e-01 -9.3057622273265732e+00 -4.7624783291989807e+00 -9.4078268179905962e+00 -1 1 5
2116 706 1 -8.1999999999999995e-01 -1.1372062672977121e+01 -6.0264602845262516e-01 -1.3181136961291273e+01 -1 5 4
2118 706 2 4.0999999999999998e-01 -1.0967742730533470e+01 -1.3296749248055892e+00 -1.2626218397229190e+01 -1 5 4
1294 432 1 -8.1999999999999995e-01 -1.2981229056796108e+01 -3.0563308858017972e+00 -1.0647223034848992e+01 2 4 5
768 256 2 4.0999999999999998e-01 -7.2600392002147913e+00 -4.2029247197431605e+00 -1.0256835151156604e+01 -4 3 0
732 244 2 4.0999999999999998e-01 -1.2891886321932470e+01 -6.6422346024417536e+00 -1.1884306663040718e+01 -2 3 6
730 244 1 -8.1999999999999995e-01 -1.2746829160970794e+01 -6.5840176891095510e+00 -1.2872005749171869e+01 -2 3 6
1217 406 2 4.0999999999999998e-01 -9.4621660663073897e+00 -7.3868993435955064e+00 -8.2020755870349848e+00 1 3 2
1295 432 2 4.0999999999999998e-01 -1.2282235371719572e+01 -3.0866376653051510e+00 -1.1361694557751363e+01 2 4 5
1296 432 2 4.0999999999999998e-01 -1.2552244370454503e+01 -3.1975700922404950e+00 -9.7550324806599562e+00 2 4 5
1990 664 1 -8.1999999999999995e-01 -8.9088820096979280e+00 -3.8475812511168144e+00 -9.3341403706933761e+00 -1 1 5
1994 665 2 4.0999999999999998e-01 -6.4724644050354989e+00 -2.9471506543056893e+00 -1.3318418207791172e+01 -2 0 1
2334 778 2 4.0999999999999998e-01 -7.6158447590044398e+00 -5.7349231481882157e+00 -1.1474038446967816e+01 1 3 -1
852 284 2 4.0999999999999998e-01 -7.8003411051345424e+00 -2.4425130486806754e+00 -9.8743940511343116e+00 2 6 -3
731 244 2 4.0999999999999998e-01 -1.3273368610503688e+01 -7.3008523695674006e+00 -1.3329044631339434e+01 -2 3 6
1995 665 2 4.0999999999999998e-01 -5.9001727452992956e+00 -3.4226909759341897e+00 -1.1864830358227286e+01 -2 0 1
1993 665 1 -8.1999999999999995e-01 -5.6727605548459508e+00 -2.9533911073432861e+00 -1.2718072194451732e+01 -2 0 1
1932 644 2 4.0999999999999998e-01 -1.0979843561623275e+01 -6.3949287669712227e+00 -9.7380358256302539e+00 4 0 -3
2332 778 1 -8.1999999999999995e-01 -8.4230689237933429e+00 -5.9958156094256907e+00 -1.2003476475564302e+01 1 3 -1
1950 650 2 4.0999999999999998e-01 -1.1668240118607017e+01 -6.1308249648365223e+00 -1.4134200778699480e+01 0 1 5
1298 433 2 4.0999999999999998e-01 -1.1621975919579803e+01 -4.0050102054169638e+00 -7.6708925190549309e+00 7 1 3
1297 433 1 -8.1999999999999995e-01 -1.2151717953490227e+01 -3.2471498302574133e+00 -8.0516830070708902e+00 7 1 3
1299 433 2 4.0999999999999998e-01 -1.3096936976103262e+01 -3.3068141739560755e+00 -7.7307757970039246e+00 7 1 3
2333 778 2 4.0999999999999998e-01 -8.3103073593637848e+00 -5.6983705062067749e+00 -1.2951522668764960e+01 1 3 -1
1930 644 1 -8.1999999999999995e-01 -9.9828286659163368e+00 -6.3493625878832951e+00 -9.6758643113065759e+00 4 0 -3
435 145 2 4.0999999999999998e-01 -9.3326581056859936e+00 -3.5805197278384711e+00 -1.2843806299335878e+01 -1 -3 0
433 145 1 -8.1999999999999995e-01 -1.0007854924820142e+01 -3.2509571472321284e+00 -1.2183898700251390e+01 -1 -3 0
1931 644 2 4.0999999999999998e-01 -9.5831660237886886e+00 -6.5632651433022389e+00 -1.0567209206439610e+01 4 0 -3
766 256 1 -8.1999999999999995e-01 -6.3228193811681255e+00 -4.3727617940875199e+00 -1.0561391632754495e+01 -4 3 0
767 256 2 4.0999999999999998e-01 -5.8348968889468136e+00 -4.8958338513051753e+00 -9.8626015958264865e+00 -4 3 0
2487 829 2 4.0999999999999998e-01 -5.0649171649834432e+00 -7.1757668484011763e+00 -1.0584689387751181e+01 1 0 -4
1850 617 2 4.0999999999999998e-01 -8.7960143120074825e+00 -3.9611448451956175e+00 -1.4948798925173540e+01 0 8 3
2174 725 2 4.0999999999999998e-01 -1.0382068298174850e+01 -1.1755255333414420e+01 -7.4342195161593239e-01 1 3 2
2173 725 1 -8.1999999999999995e-01 -9.5412615167408514e+00 -1.1759506736868611e+01 -2.0212152777931891e-01 1 3 2
1942 648 1 -8.1999999999999995e-01 -1.1737976101393119e+01 -1.1936924211207625e+01 -1.4773339276191724e+00 -1 4 -1
1943 648 2 4.0999999999999998e-01 -1.1967366611731588e+01 -1.2908856348936625e+01 -1.4252937993161350e+00 -1 4 -1
207 69 2 4.0999999999999998e-01 -9.8672864417804718e+00 -1.0009243513819584e+01 -4.9177159539952076e+00 2 7 1
1944 648 2 4.0999999999999998e-01 -1.2016564136286673e+01 -1.1575892235565714e+01 -2.3672917146247485e+00 -1 4 -1
4 2 1 -8.1999999999999995e-01 -1.2683195034499679e+01 -1.0518687792954122e+01 -3.8515638378576291e+00 1 8 -2
5 2 2 4.0999999999999998e-01 -1.3154331656322947e+01 -9.7022129263860677e+00 -3.5178281980902408e+00 1 8 -2
6 2 2 4.0999999999999998e-01 -1.2147894199806306e+01 -1.0286118822255553e+01 -4.6635644126065507e+00 1 8 -2
1036 346 1 -8.1999999999999995e-01 -9.7762243322990621e+00 -1.3611917088538251e+01 -5.2171093888236779e+00 1 1 3
1038 346 2 4.0999999999999998e-01 -1.0459817693842597e+01 -1.3501061544706245e+01 -5.9384910036545886e+00 1 1 3
1257 419 2 4.0999999999999998e-01 -1.4587772160263858e+01 -1.3315481859266828e+01 -5.1932330923128056e+00 -6 4 0
205 69 1 -8.1999999999999995e-01 -1.0615837596729126e+01 -9.7475340285304526e+00 -5.5269446533927482e+00 2 7 1
1270 424 1 -8.1999999999999995e-01 -8.3950803813650996e+00 -1.1470602566323503e+01 -4.3744989962659719e+00 -2 9 -5
206 69 2 4.0999999999999998e-01 -1.0834499745813000e+01 -1.0511767333034575e+01 -6.1336691429584640e+00 2 7 1
1037 346 2 4.0999999999999998e-01 -9.0853866978717850e+00 -1.4272390708510517e+01 -5.5112152073300553e+00 1 1 3
2175 725 2 4.0999999999999998e-01 -8.7956499033988642e+00 -1.1368155029308658e+01 -7.4146131722258168e-01 1 3 2
1271 424 2 4.0999999999999998e-01 -8.9059408524813044e+00 -1.2259935265910531e+01 -4.7150217712456719e+00 -2 9 -5
1255 419 1 -8.1999999999999995e-01 -1.3626233516266440e+01 -1.3230490972236463e+01 -4.9320813273473263e+00 -6 4 0
1256 419 2 4.0999999999999998e-01 -1.3431444614291394e+01 -1.2282176222793773e+01 -4.6816081919460419e+00 -6 4 0
277 93 1 -8.1999999999999995e-01 -1.4962647969030455e+01 -1.4704374557261279e+01 -2.7804046487477407e-01 6 -2 -1
2191 731 1 -8.1999999999999995e-01 -1.4090656768842692e+01 -8.2173040627058835e+00 -3.1612298802497669e+00 6 -1 7
1272 424 2 4.0999999999999998e-01 -7.4201339263462440e+00 -1.1601887684611858e+01 -4.5540091363645807e+00 -2 9 -5
819 273 2 4.0999999999999998e-01 -7.2753258390693238e+00 -9.6603574469573292e+00 -2.0551999388168340e+00 1 1 5
402 134 2 4.0999999999999998e-01 -9.3441020112654449e+00 -1.3990850892355706e+01 -3.3121140042121038e+00 2 4 0
817 273 1 -8.1999999999999995e-01 -7.8689803808055458e+00 -1.0446540358334239e+01 -1.8835288839733337e+00 1 1 5
400 134 1 -8.1999999999999995e-01 -9.1153796946342780e+00 -1.4132868167950047e+01 -2.3490473108030674e+00 2 4 0
818 273 2 4.0999999999999998e-01 -8.3412403165266689e+00 -1.0698340437915441e+01 -2.7282463139502795e+00 1 1 5
522 174 2 4.0999999999999998e-01 -1.3346177997718792e+01 -1.4432315520186236e+01 -9.2203798363564360e-01 0 5 -4
860 287 2 4.0999999999999998e-01 -1.2450530906710659e+01 -1.3178837364348396e+01 -7.0410608093565061e+00 3 1 4
2193 731 2 4.0999999999999998e-01 -1.3442341975054390e+01 -7.7134670355755439e+00 -2.5904265122308558e+00 6 -1 7
399 133 2 4.0999999999999998e-01 -6.1063414003132159e+00 -1.1051515983885373e+01 -1.3590752207940753e+00 1 3 -1
747 249 2 4.0999999999999998e-01 -5.9781199271171950e+00 -1.3390180666597908e+01 -5.6724898023932102e+00 1 7 -2
520 174 1 -8.1999999999999995e-01 -1.2440350230675524e+01 -1.4524892350163487e+01 -1.3354213894999027e+00 0 5 -4
2192 731 2 4.0999999999999998e-01 -1.4903674300514341e+01 -7.6562878331071174e+00 -3.3169334822255063e+00 6 -1 7
2223 741 2 4.0999999999999998e-01 -1.2927867426036409e+01 -1.0967678360395931e+01 -5.5159098780492855e-01 3 1 0
401 134 2 4.0999999999999998e-01 -9.8679318795365241e+00 -1.3807882381489012e+01 -1.7763083701784890e+00 2 4 0
2221 741 1 -8.1999999999999995e-01 -1.3444563915427521e+01 -1.0285175050573834e+01 -3.4682535004666448e-02 3 1 0
1929 643 2 4.0999999999999998e-01 -1.3181635704162684e+01 -8.6923710884854195e+00 -2.2422705258838960e-01 2 5 3
1533 511 2 4.0999999999999998e-01 -1.4192890227198379e+01 -1.1837367869748729e+01 -7.2490045722717467e+00 1 3 -2
745 249 1 -8.1999999999999995e-01 -5.9046813455228619e+00 -1.2393634952764714e+01 -5.6339707222356736e+00 1 7 -2
183 61 2 4.0999999999999998e-01 -6.7819338128186608e+00 -1.1794537083031090e+01 -7.1297399105285226e+00 3 5 -2
1170 390 2 4.0999999999999998e-01 -6.2380397716274683e+00 -9.0093996377998842e+00 -6.3276432612392739e+00 2 0 0
859 287 1 -8.1999999999999995e-01 -1.1620291413913133e+01 -1.3536045382585035e+01 -7.4689452269418979e+00 3 1 4
2580 860 2 4.0999999999999998e-01 -1.2712537239627469e+01 -7.6813599329884674e+00 -7.2008875093767024e+00 2 -1 0
2579 860 2 4.0999999999999998e-01 -1.1526194804934896e+01 -7.9671528844910329e+00 -6.1157664104257545e+00 2 -1 0
1168 390 1 -8.1999999999999995e-01 -6.8814792302143708e+00 -8.2909860506595123e+00 -6.0633556423043586e+00 2 0 0
1927 643 1 -8.1999999999999995e-01 -1.3251759182783504e+01 -7.6990579210129804e+00 -3.1583447972694501e-01 2 5 3
1293 431 2 4.0999999999999998e-01 -1.2637187652424849e+01 -1.4679200200510861e+01 -4.8073584745840208e+00 3 7 -4
1010 337 2 4.0999999999999998e-01 -6.5700070977828648e+00 -8.1276964878828579e+00 -4.3372684339177852e+00 2 0 1
1009 337 1 -8.1999999999999995e-01 -6.6167058854521965e+00 -7.6731083341750930e+00 -3.4478028222602521e+00 2 0 1
1169 390 2 4.0999999999999998e-01 -7.6577089276534132e+00 -8.2903376531119193e+00 -6.6937898539926231e+00 2 0 0
397 133 1 -8.1999999999999995e-01 -5.3100674293660681e+00 -1.1058386543035187e+01 -7.5419438751305989e-01 1 3 -1
1685 562 2 4.0999999999999998e-01 -6.3633249988729226e+00 -7.8155135520446510e+00 -1.7403432913428958e+00 1 2 -1
1684 562 1 -8.1999999999999995e-01 -6.1179027679864006e+00 -8.0373721522698816e+00 -7.9666593449028333e-01 1 2 -1
1871 624 2 4.0999999999999998e-01 -1.4896174025808461e+01 -8.7370407591882735e+00 -7.0102488880719704e+00 2 -2 0
491 164 2 4.0999999999999998e-01 -1.4997055987139570e+01 -9.9436046482060476e+00 -1.8837087107207857e+00 2 5 -1
825 275 2 4.0999999999999998e-01 -1.4796547037967454e+01 -2.3520687832521272e+00 -6.3207083772825854e+00 5 1 -2
1686 562 2 4.0999999999999998e-01 -5.7361883704689305e+00 -7.2269785275571472e+00 -3.5221499263366773e-01 1 2 -1
1924 642 1 -8.1999999999999995e-01 -1.1317678105339674e+01 -1.9425482453886573e+00 -3.0095944551060807e+00 0 6 -2
1968 656 2 4.0999999999999998e-01 -6.8960384065375795e+00 -1.3515967374071618e+00 -5.4717138099940410e+00 4 0 -5
2016 672 2 4.0999999999999998e-01 -1.0066705854679558e+01 -1.8019253763169534e+00 -6.5623476413358777e+00 2 4 -1
2472 824 2 4.0999999999999998e-01 -1.2399378823388895e+01 -2.8291402137084134e+00 -6.4105163417170985e-01 4 7 1
622 208 1 -8.1999999999999995e-01 -1.3415575918823908e+01 -4.6518615078745640e-01 -4.2805812783056325e+00 4 5 -2
629 210 2 4.0999999999999998e-01 -5.6404501388515271e+00 -4.6391077393616200e+00 -3.4227087720589733e+00 1 6 2
1857 619 2 4.0999999999999998e-01 -5.9811413867867937e+00 -9.2661924491242686e-01 -3.4500404637310513e+00 3 2 1
2471 824 2 4.0999999999999998e-01 -1.2808861505229002e+01 -1.3329964285144218e+00 -1.3070708196619485e-01 4 7 1
941 314 2 4.0999999999999998e-01 -1.0715908186347956e+01 -6.1218070774941662e+00 -6.7892885285221496e+00 -1 9 5
1813 605 1 -8.1999999999999995e-01 -5.9179718979933860e+00 -3.1098166235267772e+00 -8.1311305132194533e-01 -1 3 1
885 295 2 4.0999999999999998e-01 -1.4182330343310811e+01 -3.7358010870165828e+00 -4.7672589299877544e-01 -2 0 0
2470 824 1 -8.1999999999999995e-01 -1.2050683594877199e+01 -1.9713979345035515e+00 -2.6333466373735703e-01 4 7 1
1855 619 1 -8.1999999999999995e-01 -5.6591997061957269e+00 -8.9390338144377957e-01 -2.5038567603079738e+00 3 2 1
2578 860 1 -8.1999999999999995e-01 -1.2123300526611501e+01 -7.2670293846484570e+00 -6.5072661883919967e+00 2 -1 0
824 275 2 4.0999999999999998e-01 -1.4459279882368438e+01 -3.9341603258792297e+00 -6.0975244266105211e+00 5 1 -2
940 314 1 -8.1999999999999995e-01 -1.0339267588389975e+01 -5.1958218919552248e+00 -6.8152412348436702e+00 -1 9 5
823 275 1 -8.1999999999999995e-01 -1.4604242768665033e+01 -3.2187442311337477e+00 -6.7810050850315360e+00 5 1 -2
942 314 2 4.0999999999999998e-01 -1.0422059462477520e+01 -4.7768561047691307e+00 -5.9110324774882343e+00 -1 9 5
624 208 2 4.0999999999999998e-01 -1.3213436291846781e+01 -3.5196737692163005e-01 -5.2533615050468985e+00 4 5 -2
659 220 2 4.0999999999999998e-01 -7.1362221275392370e+00 -4.5836737668787055e+00 -5.2300082476382865e+00 -1 0 -1
505 169 1 -8.1999999999999995e-01 -1.3544176456395345e+01 -5.4149692386399781e+00 -5.1189252067350246e+00 -1 4 2
623 208 2 4.0999999999999998e-01 -1.4359934070870642e+01 -7.7501367101015717e-01 -4.1702417162426784e+00 4 5 -2
636 212 2 4.0999999999999998e-01 -8.4382246481528682e+00 -5.2494552210697840e+00 -6.7255925640958818e+00 -1 2 2
1815 605 2 4.0999999999999998e-01 -6.8754595239608438e+00 -3.0683028305012439e+00 -1.0985501385447805e+00 -1 3 1
506 169 2 4.0999999999999998e-01 -1.3068584937261278e+01 -6.1947774762635035e+00 -5.5259781437434690e+00 -1 4 2
513 171 2 4.0999999999999998e-01 -5.7701098457628817e+00 -5.0289407380629729e+00 -7.4954038948998614e+00 0 -5 -1
1150 384 1 -8.1999999999999995e-01 -1.2498190554787236e+01 -5.0211597533908758e-01 -6.9124664837957841e+00 3 1 3
1665 555 2 4.0999999999999998e-01 -8.9009746902418740e+00 -2.0412277297176615e+00 -2.3839943784219617e+00 -4 0 2
2014 672 1 -8.1999999999999995e-01 -9.2808477940397012e+00 -2.1001677112901334e+00 -7.1040660619811948e+00 2 4 -1
1213 405 1 -8.1999999999999995e-01 -6.4406802133480205e+00 -6.4067531927743104e-01 -7.2480987480908787e+00 0 -3 -5
1814 605 2 4.0999999999999998e-01 -5.4218361629901874e+00 -3.7474364299844929e+00 -1.4024098329858052e+00 -1 3 1
1664 555 2 4.0999999999999998e-01 -9.0300400705032899e+00 -2.8476202684613590e+00 -9.6990562815776826e-01 -4 0 2
1925 642 2 4.0999999999999998e-01 -1.1927291597549331e+01 -1.2646262616892034e+00 -3.4204148954432672e+00 0 6 -2
635 212 2 4.0999999999999998e-01 -7.3090878897499820e+00 -6.4291172931464065e+00 -6.7302224570677129e+00 -1 2 2
884 295 2 4.0999999999999998e-01 -1.3991275984464734e+01 -4.8298035588610020e+00 -1.6739020388161485e+00 -2 0 0
883 295 1 -8.1999999999999995e-01 -1.3650564514561022e+01 -3.9715389043145386e+00 -1.2901342003786187e+00 -2 0 0
2454 818 2 4.0999999999999998e-01 -9.8280622159370932e+00 -6.0320709413716589e+00 -3.3386865488582966e+00 -5 0 -4
2452 818 1 -8.1999999999999995e-01 -8.9549074023588879e+00 -6.3796023862263826e+00 -2.9969221804073634e+00 -5 0 -4
2453 818 2 4.0999999999999998e-01 -8.9571579169579252e+00 -6.3611007110784179e+00 -1.9971057687069429e+00 -5 0 -4
1967 656 2 4.0999999999999998e-01 -7.1938136364505834e+00 -2.5650808073649038e+00 -4.4203526507879829e+00 4 0 -5
658 220 1 -8.1999999999999995e-01 -7.1107224246276619e+00 -4.2880541399859400e+00 -4.2750532267261825e+00 -1 0 -1
1663 555 1 -8.1999999999999995e-01 -8.5132104800274639e+00 -2.7723433152116179e+00 -1.8226663215195504e+00 -4 0 2
660 220 2 4.0999999999999998e-01 -8.0241629413195170e+00 -4.3696595297567651e+00 -3.8763713178848835e+00 -1 0 -1
1011 337 2 4.0999999999999998e-01 -7.5168142818696255e+00 -7.2522021197096880e+00 -3.3354502867848730e+00 2 0 1
227 76 2 4.0999999999999998e-01 -1.1978213663365942e+01 -4.5565745215711058e+00 -4.3374539498217981e+00 2 1 -1
228 76 2 4.0999999999999998e-01 -1.1027775955508449e+01 -3.6588816275886415e+00 -3.3589911693507499e+00 2 1 -1
226 76 1 -8.1999999999999995e-01 -1.1108583586488942e+01 -4.5293475144692348e+00 -3.8445213490166701e+00 2 1 -1
2015 672 2 4.0999999999999998e-01 -8.6659914579377606e+00 -1.3258626805159448e+00 -7.2536777079227432e+00 2 4 -1
1856 619 2 4.0999999999999998e-01 -5.6776549690007663e+00 -1.8143656528226035e+00 -2.1134866158546615e+00 3 2 1
1966 656 1 -8.1999999999999995e-01 -7.3220850458793825e+00 -1.5895525967947268e+00 -4.5988784592658565e+00 4 0 -5
634 212 1 -8.1999999999999995e-01 -7.4567627413479665e+00 -5.4403234190031693e+00 -6.7087949851578195e+00 -1 2 2
1926 642 2 4.0999999999999998e-01 -1.1525211329476640e+01 -2.0304265651050404e+00 -2.0353317940864208e+00 0 6 -2
507 169 2 4.0999999999999998e-01 -1.4438108690642389e+01 -5.7092089826204919e+00 -4.7808595155299525e+00 -1 4 2
1928 643 2 4.0999999999999998e-01 -1.4212901192520349e+01 -7.4401940484521720e+00 -4.1162491874147022e-01 2 5 3
1013 338 2 4.0999999999999998e-01 -8.3359011630227027e+00 -3.5536444728618832e-02 -4.0119596664456498e+00 6 4 -2
1152 384 2 4.0999999999999998e-01 -1.2286437890323995e+01 -1.3440157830098407e+00 -7.4087988536524634e+00 3 1 3
215 72 2 4.0999999999999998e-01 -6.5112227784029653e+00 -1.3575915829852841e+01 1.0579585839955410e+00 4 7 0
1219 407 1 -8.1999999999999995e-01 -1.0370750565256081e+01 -1.0655584933799666e+01 3.9103786344719733e+00 1 -2 3
2083 695 1 -8.1999999999999995e-01 -1.4612355189434966e+01 -1.0560945898044608e+01 2.9439631188843176e+00 0 -2 2
2084 695 2 4.0999999999999998e-01 -1.3926850906485193e+01 -9.8782669138833477e+00 3.1969723969722228e+00 0 -2 2
1221 407 2 4.0999999999999998e-01 -1.1004481821182937e+01 -1.0192273589690267e+01 3.2909372835434869e+00 1 -2 3
2095 699 1 -8.1999999999999995e-01 -1.0197458720953829e+01 -1.4809308713840938e+01 5.3657287568228877e+00 -5 7 3
2097 699 2 4.0999999999999998e-01 -9.4307066331271692e+00 -1.4425814884251956e+01 4.8509433460233762e+00 -5 7 3
1220 407 2 4.0999999999999998e-01 -1.0256567220278885e+01 -1.1605906952520023e+01 3.6208437178003106e+00 1 -2 3
2096 699 2 4.0999999999999998e-01 -1.0671647064820984e+01 -1.4076109645203779e+01 5.8531145110305776e+00 -5 7 3
481 161 1 -8.1999999999999995e-01 -1.3036375647936994e+01 -1.3300301397744217e+01 2.3118877181381539e+00 -4 4 -2
1584 528 2 4.0999999999999998e-01 -1.1255406938703924e+01 -1.3921705265456023e+01 1.9990471407837145e+00 0 3 -5
1582 528 1 -8.1999999999999995e-01 -1.0291324210936139e+01 -1.4138725648485890e+01 2.1521058884871120e+00 0 3 -5
483 161 2 4.0999999999999998e-01 -1.3635891459168842e+01 -1.2501860990473798e+01 2.3671514109528271e+00 -4 4 -2
2023 675 1 -8.1999999999999995e-01 -7.9766663246392273e+00 -1.3177456160724349e+01 4.4072479056217393e+00 1 5 4
2025 675 2 4.0999999999999998e-01 -7.5644759057726860e+00 -1.2553672029617967e+01 5.0713056215248766e+00 1 5 4
2024 675 2 4.0999999999999998e-01 -7.8253751407064485e+00 -1.2827581452642971e+01 3.4827594307269880e+00 1 5 4
2536 846 1 -8.1999999999999995e-01 -1.4010297427027497e+01 -1.1346621326624534e+01 5.6086858833291426e+00 3 2 3
1597 533 1 -8.1999999999999995e-01 -1.1559649253344617e+01 -1.2613518401703093e+01 6.3657492096579791e+00 2 3 4
830 277 2 4.0999999999999998e-01 -7.3774156243936178e+00 -1.1325328457724378e+01 2.0701267334845870e+00 6 3 0
829 277 1 -8.1999999999999995e-01 -7.6673185419235752e+00 -1.2238015294552076e+01 1.7821348954420788e+00 6 3 0
1787 596 2 4.0999999999999998e-01 -8.9378249215773451e+00 -9.5252154323704765e+00 3.8850646331916838e+00 4 6 0
83 28 2 4.0999999999999998e-01 -6.4682355092982302e+00 -9.2448195474280368e+00 8.1805409408979735e-01 1 1 0
1583 528 2 4.0999999999999998e-01 -9.7210656287491499e+00 -1.3413965015283894e+01 1.7654440127978734e+00 0 3 -5
216 72 2 4.0999999999999998e-01 -5.7999681437034436e+00 -1.4879665404560154e+01 1.7368751477089273e+00 4 7 0
1786 596 1 -8.1999999999999995e-01 -8.2484666468978070e+00 -8.9317002605216587e+00 3.4697272330775721e+00 4 6 0
82 28 1 -8.1999999999999995e-01 -6.1989136633755351e+00 -9.8235562422630522e+00 1.5878006999119005e+00 1 1 0
84 28 2 4.0999999999999998e-01 -6.5652341188633532e+00 -9.4415038135701099e+00 2.4362260437015895e+00 1 1 0
1130 377 2 4.0999999999999998e-01 -1.0898410084717423e+01 -9.5394154424567983e+00 5.1070149732074750e+00 5 3 1
2098 700 1 -8.1999999999999995e-01 -8.6829836139774539e+00 -1.0457914406092206e+01 6.2707719111891915e+00 -3 3 0
2099 700 2 4.0999999999999998e-01 -8.8511551270607534e+00 -1.1021950187198920e+01 7.0792038614594315e+00 -3 3 0
1598 533 2 4.0999999999999998e-01 -1.2423981947774724e+01 -1.2205700257315847e+01 6.0714812344911469e+00 2 3 4