2593
Atoms. Timestep: 18495000
O -14.6335 14.6549 13.7207
H 14.1958 14.7212 13.7089
H -14.2663 -14.8287 12.8562
O -11.8451 -10.3859 -3.14702
H -12.7564 -10.3071 -3.55105
H -11.1994 -9.82929 -3.66978
O 5.12002 9.0017 12.1912
H 4.93085 9.76386 12.8103
H 5.83036 9.26947 11.5403
O 5.28005 -11.5755 -7.01219
H 5.47394 -11.488 -7.9893
H 4.90335 -10.7152 -6.66869
O 10.8937 -0.213846 -5.81897
H 11.5726 0.352726 -6.28597
H 10.0212 -0.156752 -6.30432
O -12.6977 8.50896 -2.35295
H -13.6189 8.74705 -2.66069
H -12.1526 9.34185 -2.25718
O 10.547 1.26959 -10.8179
H 10.7471 0.827672 -11.6924
H 11.3052 1.11404 -10.1847
O -10.9826 2.44084 3.81485
H -11.8721 2.72145 4.17544
H -10.7666 2.98204 3.00216
O -6.56146 1.62845 1.40217
H -7.48741 1.64476 1.02485
H -6.58403 1.93388 2.35413
O -13.002 0.707617 -13.2701
H -12.1915 1.2671 -13.0963
H -12.792 0.025252 -13.9703
O 0.613473 -6.41529 -9.04217
H 1.58228 -6.4659 -9.28478
H 0.0614066 -6.4008 -9.87585
O 9.67355 -1.24654 -0.151562
H 9.55997 -2.22697 -0.312384
H 10.0231 -1.09882 0.773661
O -3.74848 0.922181 -3.1783
H -3.61154 0.11546 -2.60344
H -4.59948 1.37745 -2.9165
O -10.3871 3.64877 1.48041
H -11.3101 3.80425 1.12821
H -9.72188 4.09059 0.878548
O -2.35555 6.35779 -14.0432
H -3.22824 5.92948 -14.2776
H -2.2661 7.22342 -14.5358
O 9.9868 11.0961 11.6583
H 9.68695 11.7374 12.3646
H 10.2352 10.2252 12.0825
O 7.73309 1.45939 1.02884
H 8.28126 0.783787 0.5358
H 8.14123 2.36545 0.917098
O 11.6583 -9.56016 -7.22951
H 10.7319 -9.66961 -6.86906
H 11.6128 -9.20699 -8.16397
O 1.55306 1.52048 -8.75375
H 0.604487 1.57725 -8.44231
H 1.99674 0.731415 -8.32885
O -10.1597 13.8354 10.6431
H -10.5197 14.7242 10.3595
H -10.7127 13.4762 11.3948
O 5.81819 -14.7442 5.2615
H 5.32599 -13.8739 5.24599
H 5.38661 14.4444 4.62416
O -0.16998 5.14987 -9.8102
H -1.0126 4.85418 -9.36012
H -0.383021 5.85544 -10.4861
O 6.5749 -10.5649 6.34574
H 6.75873 -9.83267 5.68996
H 5.68875 -10.9808 6.14125
O -8.85849 13.5289 -14.546
H -9.29517 14.4276 -14.5879
H -9.31043 12.9709 -13.85
O -1.83147 13.8231 -7.01594
H -1.01223 14.0396 -6.48493
H -1.83824 14.367 -7.85504
O 6.84643 -11.5256 14.8621
H 6.07245 -10.8938 14.9052
H 7.55107 -11.1488 14.2608
O 5.91369 -0.55796 -6.17682
H 6.31135 0.277423 -5.79732
H 6.3531 -1.35465 -5.76183
O -5.73912 -8.87627 0.303339
H -6.0394 -8.18912 -0.358239
H -6.53585 -9.35745 0.668992
O -11.0691 -13.7234 9.49142
H -10.8836 -12.7459 9.39083
H -11.8747 -13.967 8.95137
O -8.55223 -4.73804 1.37795
H -7.72919 -5.19067 1.03478
H -8.74777 -5.05962 2.30443
O 8.55472 12.6926 0.198784
H 9.40383 12.4523 0.669201
H 8.76462 13.0133 -0.724853
O -6.37422 13.013 -1.39464
H -5.50741 12.5148 -1.4149
H -7.00696 12.6081 -2.05467
O 13.641 -3.70393 -2.53112
H 13.784 -3.18757 -3.37549
H 14.3803 -4.36755 -2.41703
O -11.0462 10.228 1.37983
H -10.9969 11.1318 0.954733
H -10.2105 10.0593 1.90237
O -11.3546 5.84775 -6.19806
H -10.5679 6.07263 -5.62315
H -12.0425 5.37168 -5.65024
O 8.25377 -12.8781 5.88751
H 7.62425 -12.1254 6.08035
H 7.9739 -13.3393 5.04549
O 10.8459 4.74935 -2.97054
H 10.8009 3.77456 -3.18914
H 10.2502 4.94402 -2.19129
O 8.67645 -14.7411 -7.26417
H 9.38449 14.5554 -6.79809
H 7.86153 14.5194 -7.38627
O -6.65611 -6.18965 14.2469
H -6.50113 -5.89058 13.3053
H -6.72233 -5.39017 14.8439
O 4.0626 -9.49985 -5.69803
H 4.05557 -8.70494 -5.09133
H 3.7951 -10.3144 -5.18329
O 6.84439 -4.27432 -7.7844
H 7.0985 -5.2415 -7.78246
H 6.92687 -3.90616 -6.8583
O 11.2655 2.16164 5.95578
H 10.727 2.16669 5.1132
H 12.0527 2.76953 5.85185
O 12.3579 -13.4882 -14.3437
H 12.3215 -12.6066 -14.8143
H 11.549 -13.5906 -13.7647
O 13.7246 0.584766 -3.41427
H 12.8736 0.289501 -2.97995
H 13.583 1.46994 -3.85747
O -13.7567 2.47865 2.63399
H -14.3695 2.52863 3.4226
H -13.2589 1.61156 2.65314
O 1.39537 5.5426 -6.85434
H 1.09886 4.78722 -6.26997
H 0.845029 5.55401 -7.68922
O -11.9178 -11.7704 14.3428
H -12.6237 -12.0053 -14.816
H -12.3398 -11.3181 13.5571
O -5.32242 -11.7181 5.85595
H -5.38848 -10.9474 5.22215
H -4.40382 -12.1105 5.80899
O 10.4334 -10.6902 -13.9949
H 9.74564 -11.0068 -14.6482
H 11.1492 -10.189 -14.4812
O 11.6729 9.61468 -0.171039
H 11.6338 9.42918 -1.15291
H 12.5983 9.9008 0.07747
O 11.1581 12.1972 -14.8508
H 11.4815 12.2882 -13.9089
H 11.9329 12.0003 14.3754
O 3.54996 -12.0865 13.1901
H 4.3206 -11.845 13.7798
H 2.69755 -11.7785 13.6126
O -6.83575 -1.17776 1.4203
H -6.73589 -0.182753 1.42149
H -6.83417 -1.51178 0.47773
O 0.36981 7.15169 5.163
H -0.596245 6.8965 5.1226
H 0.497587 7.86505 5.85206
O 11.1717 -3.64383 -7.27485
H 10.4612 -2.97272 -7.48651
H 10.7942 -4.56616 -7.35704
O 6.80093 14.3429 -12.2539
H 7.09637 14.8175 -11.4248
H 5.82351 14.4986 -12.3968
O -8.7365 -8.89303 7.6868
H -7.97302 -8.93981 8.33095
H -8.79168 -7.97182 7.30165
O 12.2882 -6.64969 9.95063
H 11.5972 -6.49127 10.656
H 12.0312 -7.4478 9.40564
O 11.2675 -1.46779 -9.59522
H 11.6651 -2.34402 -9.86753
H 10.3859 -1.34569 -10.0512
O -14.6522 0.592974 -8.33483
H -14.44 1.36084 -7.73034
H -14.1951 0.725058 -9.2144
O -7.16854 -11.604 -7.46661
H -7.50573 -11.2967 -8.35648
H -6.22109 -11.9109 -7.55705
O 7.7855 -14.1971 -14.2459
H 7.42198 -13.2807 -14.4134
H 7.35665 -14.5815 -13.4283
O -10.3111 -5.37232 -8.81288
H -11.2422 -5.5462 -9.13355
H -9.70481 -6.0967 -9.14107
O 9.45026 5.94838 -11.1433
H 8.78584 6.37538 -11.7567
H 9.05131 5.12408 -10.7416
O -10.6666 -0.839831 7.86302
H -9.83759 -0.281084 7.88782
H -11.3184 -0.440658 7.21822
O 1.39673 -12.2018 -2.01702
H 1.23939 -13.1844 -1.91777
H 1.37185 -11.7676 -1.11653
O -3.43996 3.10087 -12.2706
H -3.75529 4.02805 -12.4729
H -4.22059 2.53269 -12.0102
O 7.59497 11.2651 -8.17187
H 6.90624 10.5671 -7.97582
H 8.26428 11.2908 -7.42932
O -9.7203 -9.72597 -4.90128
H -10.1386 -9.31732 -5.71247
H -9.87323 -10.7142 -4.90934
O -2.95685 6.84602 5.57654
H -3.09692 7.71949 5.11023
H -2.77958 6.13152 4.89973
O 8.34384 10.6948 2.44442
H 7.74194 10.9454 3.20265
H 8.05126 11.1709 1.61516
O -4.94451 -12.1522 1.95975
H -5.01481 -13.1481 2.01693
H -5.85513 -11.7482 2.04684
O 13.3389 9.56952 11.8839
H 13.6762 10.2702 11.2552
H 14.0317 8.85636 11.9911
O 1.73643 2.47221 9.00098
H 1.98781 1.69063 9.5719
H 1.2491 3.14689 9.55535
O 13.5782 -1.24988 1.43224
H 13.4418 -0.540603 2.12387
H 12.9547 -2.01161 1.60855
O -13.5239 -5.8673 -4.44284
H -14.3964 -5.95937 -4.92267
H -13.689 -5.81424 -3.458
O -9.25355 5.87315 0.00919506
H -9.96565 6.46611 0.385119
H -9.32357 5.8593 -0.988262
O 14.6625 0.534869 -0.538526
H 14.083 0.338419 -1.32952
H 14.2437 0.151764 0.284795
O 12.7461 -8.98825 -11.7391
H 13.2503 -9.85144 -11.7114
H 12.8728 -8.55676 -12.6323
O -6.08019 -4.51228 8.56449
H -7.05209 -4.38753 8.76418
H -5.5948 -3.65197 8.72032
O -9.5731 -0.00163259 -11.8965
H -10.104 0.801683 -11.6266
H -9.45205 -0.00309552 -12.8891
O 5.94213 2.65676 -1.2133
H 5.70117 1.81179 -0.735821
H 5.33738 3.39397 -0.911953
O 8.57222 -9.41303 -3.58819
H 8.38874 -10.131 -2.91674
H 8.83352 -9.8298 -4.45885
O -5.52749 -10.6315 -13.2453
H -6.18916 -9.93084 -13.5123
H -5.26523 -11.1658 -14.0488
O 10.1586 -10.8192 1.90943
H 9.1638 -10.7635 1.99501
H 10.462 -11.7431 2.1426
O -2.75613 10.9757 -5.22317
H -3.37484 11.7135 -5.49312
H -1.89558 11.3655 -4.89529
O 6.52099 -3.92243 7.80712
H 6.55635 -4.21163 6.8505
H 5.68665 -3.39428 7.96505
O 14.0803 12.0408 7.13804
H 13.9505 12.7731 6.46961
H 14.3936 11.2143 6.67029
O 3.9451 -2.72931 -8.20254
H 3.60047 -1.80624 -8.03173
H 3.60055 -3.0562 -9.08257
O 11.3978 8.96621 -6.94473
H 10.6687 8.83925 -7.61727
H 11.2431 8.35764 -6.16645
O -11.2479 9.46887 -11.4458
H -11.5822 8.68071 -11.9626
H -10.6596 10.0263 -12.0317
O -4.77587 5.09488 -14.8499
H -4.73539 4.56807 14.1281
H -5.52873 4.75825 -14.2843
O -11.8815 -14.8403 -1.79862
H -12.8658 -14.6744 -1.8599
H -11.5685 14.5278 -2.63013
O -13.2428 12.4993 -3.10727
H -12.5749 11.8683 -2.71247
H -12.8876 12.8653 -3.96744
O 2.75148 11.1562 -11.3042
H 2.42376 11.6574 -10.5033
H 3.75131 11.1379 -11.2999
O -14.407 9.30977 4.73961
H 14.4688 9.29592 5.04775
H -13.8108 9.54049 5.50863
O -12.2043 3.13954 -9.19821
H -11.2738 2.99629 -8.86117
H -12.6791 2.26095 -9.24967
O -3.09345 8.59253 -4.01104
H -2.97007 9.52381 -4.35385
H -2.77389 8.54056 -3.0649
O 0.744979 -9.4085 -6.53257
H 1.43855 -8.68843 -6.55437
H 0.453848 -9.61923 -7.46576
O 12.284 -8.44944 -4.52698
H 12.0664 -8.78572 -5.44328
H 12.4328 -7.46115 -4.56124
O -12.8857 8.73027 11.9288
H -12.7276 9.67637 11.6461
H -12.2992 8.5131 12.7091
O 5.01066 1.03696 -12.8668
H 5.46421 1.45901 -13.6518
H 4.18895 1.55834 -12.6366
O 2.14394 -14.6274 10.3019
H 2.80621 14.8448 10.9618
H 2.55861 -14.606 9.3922
O -14.1683 2.58033 -6.40452
H 14.9085 3.13342 -6.04235
H -13.6418 2.19551 -5.64642
O -2.49524 -3.75914 -3.79843
H -1.62521 -3.32447 -3.56577
H -2.53711 -3.91381 -4.78552
O -4.63976 7.7818 2.74983
H -4.09817 6.96074 2.93026
H -5.6087 7.58007 2.89295
O 10.3474 2.00392 14.6134
H 9.7557 1.39965 14.0798
H 10.7362 1.49602 -14.4449
O -9.32875 2.26456 6.11887
H -9.76074 2.75662 6.8747
H -9.96088 2.2205 5.34526
O -0.573465 -10.7045 -3.08737
H -1.36401 -11.1959 -3.45283
H 0.113566 -11.3618 -2.77761
O 2.10852 -8.05535 1.21683
H 1.89974 -8.95529 0.834013
H 1.47976 -7.37723 0.836279
O -11.5864 6.49035 3.74696
H -12.146 5.86411 4.28976
H -11.3262 7.27631 4.30787
O -2.69329 3.90255 -2.27872
H -2.46149 3.11109 -2.84429
H -3.13195 3.59248 -1.43524
O 10.9217 7.87175 7.05927
H 11.1736 8.27696 7.93811
H 10.7262 6.89907 7.18451
O 3.44748 -8.6546 -8.27758
H 3.11026 -9.55658 -8.54727
H 3.7359 -8.67909 -7.32038
O 4.79943 -10.6223 2.80689
H 4.38583 -9.76723 3.11957
H 4.65848 -10.7201 1.8217
O 1.02512 12.1771 0.396448
H 0.118357 11.756 0.374627
H 1.16693 12.7066 -0.439926
O -11.9969 12.6902 12.7818
H -12.2592 13.4264 13.4056
H -11.6275 11.9238 13.3073
O 11.4959 -8.9764 8.30625
H 11.1054 -9.86102 8.56114
H 12.4493 -9.09982 8.03073
O 6.74794 -8.07352 8.52467
H 6.21204 -8.80751 8.9419
H 6.2382 -7.683 7.75807
O 7.81275 -6.68443 -7.10415
H 7.41955 -7.45154 -7.61105
H 7.51119 -6.72483 -6.15155
O 11.4025 0.409024 -13.2007
H 11.2439 -0.552633 -13.4244
H 12.3786 0.61247 -13.2775
O -3.8038 -4.44533 -12.8145
H -4.62235 -4.97339 -12.5884
H -4.06589 -3.51052 -13.0542
O -7.59794 9.52365 -10.4093
H -8.30937 9.7226 -9.7353
H -6.77496 9.20284 -9.94049
O 10.7549 -3.60452 10.556
H 10.064 -3.69513 9.83869
H 10.9143 -4.49617 10.9797
O 9.19525 -3.87937 -9.50687
H 8.59692 -3.68579 -8.72934
H 9.13416 -3.13213 -10.1686
O 1.73012 3.34849 -10.7351
H 1.84532 2.66198 -10.0172
H 1.13997 4.08371 -10.4017
O 7.82995 -0.170383 3.21533
H 7.74394 0.479531 2.46019
H 7.69841 -1.10016 2.87149
O 6.64025 2.11703 -14.8382
H 7.18673 2.93855 -14.6755
H 7.13233 1.50695 14.3678
O 10.5979 6.64617 10.4338
H 10.2327 6.09759 9.68171
H 10.9953 7.48847 10.0697
O -12.8237 12.3103 8.09882
H -12.7479 11.8131 7.23449
H -12.9895 13.2787 7.91283
O -5.15726 -1.54064 -10.1639
H -5.15664 -0.576949 -9.8969
H -5.7055 -2.0664 -9.51353
O 1.58179 7.10518 2.57312
H 2.08026 7.94066 2.34178
H 1.23514 7.17211 3.50873
O -3.36311 -9.96437 -1.00972
H -4.12379 -9.60126 -0.471646
H -3.71814 -10.4016 -1.83603
O -5.93822 -13.768 -3.17432
H -6.35487 -14.4103 -2.53094
H -6.651 -13.2032 -3.59018
O 2.87316 5.06987 1.56862
H 2.29892 5.70704 2.0827
H 2.29972 4.51967 0.961616
O -10.434 0.869413 -1.33728
H -11.09 1.59836 -1.53331
H -10.6204 0.0852818 -1.92925
O -4.9938 3.47436 10.2098
H -3.99922 3.51498 10.114
H -5.37269 2.87748 9.50257
O -11.0256 12.7635 0.315706
H -10.6419 13.6869 0.306049
H -11.9511 12.791 0.69336
O -5.24871 -9.61687 3.96897
H -6.0365 -9.66676 3.35503
H -4.40545 -9.67334 3.43443
O 12.7279 -0.398376 8.97716
H 13.2244 -0.75781 9.76726
H 11.8312 -0.837175 8.91923
O -0.66493 11.2416 -14.4817
H -0.0242421 11.8902 -14.0708
H -1.50692 11.218 -13.9427
O 5.10919 -7.01064 -9.92877
H 4.50706 -7.5604 -9.34979
H 4.59846 -6.23452 -10.2987
O -3.72687 10.5646 -10.2478
H -4.17468 9.87487 -9.67877
H -4.41056 11.0238 -10.815
O -4.15938 12.9592 1.26089
H -4.51625 12.0753 1.56323
H -4.39363 13.661 1.93364
O -11.2152 -1.44233 -9.42568
H -10.9516 -0.737733 -8.76684
H -10.4998 -2.13952 -9.47221
O 1.92436 -9.93982 13.924
H 1.09581 -10.404 14.2372
H 1.8138 -9.66971 12.9675
O 10.5913 -9.53918 11.4827
H 10.517 -10.203 10.7385
H 11.5245 -9.5444 11.842
O -4.08466 5.05306 3.67881
H -4.44439 4.78804 2.78417
H -3.16663 4.67383 3.79459
O 4.03482 0.244058 -7.78132
H 4.32497 1.1548 -8.07522
H 4.72843 -0.147848 -7.17689
O 1.03964 -4.84713 0.360346
H 1.71949 -5.15683 -0.304404
H 0.175091 -5.32323 0.19938
O -3.73344 0.64336 9.31137
H -2.9715 0.784636 9.94343
H -3.37737 0.479769 8.39133
O -9.2645 4.99605 3.85721
H -9.88528 5.77922 3.82138
H -9.56277 4.30395 3.1999
O 14.7915 12.5423 -8.05468
H 14.058 13.2062 -8.20015
H 14.4525 11.6224 -8.25181
O -8.48764 9.81708 2.17108
H -7.95637 8.99785 2.38698
H -8.09452 10.2677 1.36955
O -13.9791 -4.38972 -7.51145
H -14.1914 -3.43369 -7.71383
H -13.1194 -4.43986 -7.00306
O 1.21451 10.4675 10.3552
H 1.12546 9.54261 10.7249
H 1.06615 11.1341 11.0857
O 14.6891 12.8921 -1.10473
H -14.8504 13.6248 -0.487892
H -14.5773 12.9141 -1.93251
O -0.211421 -11.0745 2.5361
H -0.0708719 -11.9086 3.06947
H -1.19129 -10.8924 2.45408
O -8.23508 -13.7333 -12.9376
H -7.80347 -14.4214 -13.5208
H -8.63825 -13.018 -13.5084
O 4.28081 -5.50058 -6.67649
H 4.85068 -6.14609 -7.185
H 4.253 -4.62659 -7.16164
O -13.0505 14.3169 5.051
H -14.0213 14.1268 5.19709
H -12.9528 -14.698 4.47574
O -1.19605 -0.847305 10.9205
H -1.29214 0.10303 11.2165
H -0.875412 -1.40429 11.6866
O 1.54323 3.84491 -0.537
H 1.53185 4.50103 -1.29158
H 1.0954 2.99831 -0.824644
O 11.9428 -9.45511 -1.8545
H 12.9421 -9.49063 -1.87161
H 11.6043 -9.1645 -2.74945
O -3.987 -5.85223 -5.62844
H -4.76033 -5.79046 -6.25944
H -4.28032 -6.30183 -4.78473
O 3.85069 6.71141 6.34105
H 3.85332 5.7692 6.00603
H 3.24027 6.78298 7.1299
O -2.87063 -12.874 5.5267
H -2.25228 -12.2107 5.94815
H -2.59286 -13.7994 5.78477
O -5.65877 8.21361 6.41912
H -5.98765 7.27727 6.54204
H -6.20046 8.66693 5.71125
O 14.8093 -8.67316 -3.11486
H -14.6561 -8.33435 -2.2463
H 14.1336 -8.02677 -3.4694
O -0.610989 2.56519 7.02517
H 0.121751 2.29665 7.65047
H -0.214693 2.87667 6.1615
O -6.44389 -2.55593 -5.56301
H -6.60848 -3.40858 -5.06711
H -7.04163 -1.8399 -5.20242
O 10.8507 -5.34003 6.31856
H 10.1801 -5.88317 6.82381
H 11.7251 -5.82483 6.29828
O -8.66338 6.18141 -14.0139
H -9.04699 6.59193 -14.8412
H -8.12022 6.86356 -13.5244
O -9.10367 -14.3889 -3.19595
H -9.87712 -14.3055 -3.82431
H -8.69203 14.5319 -3.29247
O -10.2104 5.96992 12.3069
H -10.9869 6.52183 12.0029
H -10.2494 5.07085 11.8708
O 10.5148 -8.60155 0.187817
H 10.9346 -8.89574 -0.670836
H 10.4497 -9.38079 0.811157
O 3.6727 14.7201 -1.08738
H 4.31064 13.9592 -0.969008
H 4.08648 -14.2673 -0.735541
O -5.75361 11.0962 7.04145
H -6.41399 11.3404 6.33132
H -5.49288 10.1363 6.93829
O 0.399921 6.10932 -14.2451
H -0.563467 5.93659 -14.0401
H 0.483435 6.96314 -14.759
O 9.25619 -0.228113 9.33022
H 9.849 -0.924234 8.92525
H 9.66071 0.0981856 10.1846
O -4.24434 -0.568538 -6.79182
H -4.75774 0.0831316 -7.35018
H -4.7715 -1.41285 -6.69556
O 5.94632 9.46129 7.53748
H 6.50482 9.14438 8.30407
H 5.24423 10.089 7.87369
O 5.1815 -1.72261 1.13141
H 4.91913 -1.39496 2.03906
H 4.78241 -2.62609 0.974968
O -1.42146 7.32168 -11.5804
H -1.74791 6.97503 -12.4598
H -0.560323 7.81211 -11.7144
O 9.10645 6.1005 -0.961469
H 8.60723 6.66628 -1.61774
H 8.4578 5.65377 -0.345276
O 9.29552 11.5261 -6.15908
H 8.7382 11.6982 -5.3468
H 10.2524 11.7349 -5.95714
O -11.4532 -10.9195 -8.31138
H -10.925 -11.6384 -7.85942
H -11.9415 -11.3064 -9.09359
O -12.442 -1.11861 14.4794
H -13.3748 -1.23235 14.1373
H -12.1203 -1.98368 14.8643
O -0.891469 6.01642 -1.67475
H -1.5346 5.29891 -1.94228
H 0.0178517 5.79795 -2.0289
O -0.0332186 -5.67254 -11.7542
H 0.219529 -6.53802 -12.1867
H -0.43209 -5.06197 -12.4384
O 14.6315 -10.9761 -12.347
H -14.8457 -11.3259 -13.216
H 14.2823 -11.7357 -11.7982
O 8.09836 -0.048878 -2.08366
H 8.0188 -0.612576 -2.90581
H 8.76847 -0.456706 -1.46346
O 7.94386 4.22267 -9.59446
H 7.38405 3.48728 -9.97633
H 7.47022 4.63137 -8.81431
O 5.68906 -7.60237 13.513
H 5.39641 -7.46765 12.5663
H 6.68493 -7.68744 13.5452
O -4.93083 3.75632 -8.62319
H -3.93218 3.79057 -8.66261
H -5.31093 4.5378 -9.11799
O -4.20446 2.22544 -0.454946
H -4.93714 2.51439 -1.07115
H -4.59906 1.91758 0.410806
O -10.1922 -4.72805 3.96066
H -10.2017 -3.86282 4.46196
H -10.9992 -4.7814 3.37245
O -5.34154 14.4825 -10.7375
H -5.80946 -14.4916 -10.5063
H -5.93735 13.7076 -10.5264
O 5.02113 0.999098 6.25064
H 4.14133 0.740822 6.6497
H 5.67276 0.249505 6.36688
O 12.8676 14.626 -7.99536
H 13.002 -14.2227 -7.83804
H 12.2907 14.2481 -7.2712
O -1.56895 4.43137 4.01265
H -0.815484 4.0271 4.53118
H -1.33167 4.45237 3.04143
O 12.0789 2.70102 11.7151
H 12.1074 3.67737 11.9294
H 12.0944 2.577 10.7229
O -10.3276 11.9485 -12.4682
H -9.50486 12.1329 -11.9304
H -11.0352 12.6151 -12.2339
O 4.77139 11.0949 13.8696
H 4.42066 10.5939 14.6608
H 4.22391 11.9196 13.7279
O -1.51941 8.68227 3.49121
H -0.680577 9.20357 3.3343
H -1.58504 7.94581 2.81791
O 1.09759 12.2104 -9.38842
H 1.01564 13.181 -9.1621
H 0.258833 11.7344 -9.12384
O -1.52004 0.911189 -9.79406
H -2.46823 0.692715 -10.0247
H -1.06443 1.3033 -10.5932
O -13.9244 -1.10191 -3.7028
H -14.6709 -0.495567 -3.42875
H -13.7819 -1.03 -4.68999
O -2.13292 -13.3021 -2.03399
H -2.70902 -12.4935 -1.9144
H -1.93817 -13.7076 -1.14089
O -5.09238 -3.53635 -2.57798
H -5.78978 -4.08454 -3.03966
H -4.23605 -3.5847 -3.09214
O 2.74913 1.23432 -5.38483
H 3.34645 0.942229 -6.13176
H 3.25432 1.20314 -4.52238
O -8.39756 -0.693782 -4.97464
H -7.60555 -0.117815 -5.17715
H -9.11116 -0.530781 -5.65598
O -8.68586 -1.72097 5.91225
H -7.90233 -1.65551 5.29434
H -8.52927 -1.14096 6.71168
O -8.62222 9.50123 7.64737
H -7.64717 9.34061 7.80066
H -8.83583 10.4598 7.83605
O -1.37176 -12.4218 -13.3908
H -0.374681 -12.3622 -13.3431
H -1.77097 -11.9807 -12.5871
O 1.24303 -10.5858 0.208989
H 0.796329 -10.7961 1.0786
H 0.684087 -9.93417 -0.303813
O 0.894103 8.18912 11.8865
H 1.86013 7.94359 11.9672
H 0.549324 8.48313 12.778
O 2.4728 -10.8314 -9.29151
H 1.64597 -10.2749 -9.2094
H 2.24488 -11.7923 -9.13425
O 8.01918 -11.8378 8.86907
H 7.56801 -11.2523 8.19547
H 7.56413 -11.7395 9.75411
O -7.74631 -4.99378 -2.95717
H -8.38476 -4.34775 -3.37556
H -7.85829 -5.89355 -3.37893
O 11.3162 4.25077 -14.0985
H 11.5653 3.97524 -13.1701
H 11.2372 3.43905 -14.6772
O -9.79424 -9.52603 12.7132
H -10.6287 -9.94722 12.3579
H -10.0311 -8.869 13.4289
O 2.46027 -6.95626 14.1024
H 2.48045 -7.95602 14.0927
H 3.02934 -6.61867 14.8522
O -6.92374 -13.262 -10.4644
H -7.35222 -12.471 -10.0277
H -7.38553 -13.4556 -11.33
O 12.2088 12.8549 -2.66571
H 12.2954 11.9702 -3.12362
H 13.0571 13.0626 -2.17861
O 6.34336 5.27064 -7.71655
H 6.60134 5.57879 -6.80085
H 5.4888 5.71302 -7.98867
O -9.69218 -2.23825 2.00707
H -9.37185 -3.16189 1.79662
H -8.91014 -1.65798 2.23449
O 10.6752 6.87534 -4.94952
H 10.6013 6.25994 -5.73428
H 10.8109 6.33868 -4.1167
O 7.27816 1.82887 8.40225
H 6.66931 1.81438 7.60908
H 7.74203 0.9466 8.48253
O 3.57759 1.56432 -2.84848
H 4.05622 0.946772 -2.22433
H 4.1019 2.41005 -2.9478
O 11.2365 5.5036 3.05431
H 10.6539 4.89111 2.52004
H 11.2975 6.39001 2.59543
O -7.91454 3.03674 -11.3699
H -8.89791 2.87933 -11.2792
H -7.5558 3.40676 -10.5129
O 3.93519 -10.4679 7.92109
H 4.45613 -11.1661 8.41221
H 4.04755 -10.5995 6.93616
O -1.42323 13.7256 -12.2027
H -0.537452 13.4545 -12.5794
H -1.84431 14.4086 -12.7995
O -10.3607 -5.7757 9.65879
H -10.478 -4.80951 9.42918
H -9.38707 -5.97694 9.76624
O 13.4783 -0.418669 6.32587
H 12.9343 -0.234395 7.14452
H 13.4255 -1.39204 6.10276
O 3.84464 13.8447 -7.19793
H 3.67033 14.8255 -7.11028
H 3.10626 13.3343 -6.7572
O -13.6113 2.64005 11.9232
H -13.8704 3.53719 11.5653
H -13.3642 2.03724 11.1645
O 13.5452 -6.40336 -13.5543
H 12.8028 -5.74834 -13.6948
H 14.3513 -5.92412 -13.207
O 3.6406 7.09179 10.5558
H 4.36609 6.86024 9.90768
H 3.98859 7.74832 11.2251
O 5.8866 2.53267 -10.376
H 5.18183 2.58742 -9.66865
H 5.55836 1.96403 -11.1303
O -7.32523 -11.5488 14.2772
H -7.41996 -10.8614 13.5571
H -6.98403 -12.4014 13.8813
O 7.25614 -0.811824 6.56633
H 8.25592 -0.806971 6.5872
H 6.91604 -1.60471 7.07198
O -11.9261 -5.17291 14.3977
H -11.8075 -4.31303 14.8943
H -12.8999 -5.39215 14.3385
O -9.41692 -1.75782 10.2608
H -9.17767 -1.06962 10.9457
H -10.103 -1.38302 9.63721
O 3.47099 3.3792 12.3888
H 3.99031 3.82548 13.1176
H 2.49231 3.47123 12.5725
O 14.4872 7.673 14.5484
H 13.546 7.97168 14.3906
H 14.5153 6.67491 14.6036
O 6.48301 -8.31657 4.65174
H 6.11322 -7.62526 5.27252
H 6.21348 -8.10025 3.71335
O -3.38181 -10.3616 -6.74448
H -3.15738 -9.44273 -7.06897
H -3.25654 -10.4049 -5.7533
O 11.0945 -12.9009 -3.76974
H 10.5002 -12.164 -4.09167
H 11.2918 -12.7697 -2.7982
O -13.1796 -0.122259 6.49506
H -13.9183 0.542304 6.38212
H -13.5535 -1.04827 6.44279
O -7.22299 6.97963 2.79129
H -7.8214 6.48997 3.42544
H -6.98398 6.37957 2.02787
O -8.00188 12.3648 -11.2279
H -8.18174 11.6246 -10.58
H -7.20141 12.1358 -11.7818
O -7.45532 4.00522 -7.57612
H -7.69373 4.83828 -8.07531
H -6.46781 3.85647 -7.62825
O 13.8282 14.0067 5.16852
H 13.5424 -14.8629 5.12948
H 13.3697 13.4922 4.44388
O -9.4641 -2.83019 -11.5938
H -9.46749 -1.83019 -11.5959
H -9.26434 -3.16081 -10.6714
O 6.73266 -10.2894 10.6917
H 5.86227 -10.0074 11.0953
H 7.48174 -9.80276 11.1411
O -4.13326 -7.15507 -2.25046
H -4.31644 -8.08083 -1.91968
H -3.15174 -6.97079 -2.19883
O -7.4512 11.1911 -6.07634
H -8.24785 10.6551 -6.3556
H -6.64132 10.6046 -6.06719
O 5.22112 -0.0321376 -0.958999
H 5.18767 -0.65592 -0.178107
H 6.16747 0.0660837 -1.26685
O 9.6855 9.37067 4.93738
H 9.17914 8.58698 4.57758
H 9.98567 9.17354 5.87068
O -2.77525 -14.3398 -14.4455
H -3.02553 -14.0506 14.4575
H -2.29087 -13.5969 -13.9835
O -3.47634 -8.19083 -8.89681
H -2.95677 -7.79531 -8.13943
H -2.84735 -8.62519 -9.54156
O 0.729975 12.284 12.285
H 1.65066 12.4269 12.6482
H 0.0551971 12.5334 12.9796
O -9.53562 2.69483 -8.71708
H -9.0187 1.84565 -8.82527
H -9.06707 3.28931 -8.06357
O -1.70441 -1.11689 -5.956
H -2.60456 -0.853139 -6.30267
H -1.54188 -2.08389 -6.15223
O -13.6001 -14.3745 8.37531
H -14.4695 -14.6586 8.77945
H -13.7112 -13.4815 7.93921
O 9.15286 -2.52059 13.3765
H 9.68437 -2.69147 12.5469
H 9.7632 -2.51747 14.1687
O -4.39683 -12.4682 -8.07617
H -4.02112 -11.6354 -7.66963
H -4.31588 -13.2228 -7.42501
O -13.157 -5.62876 7.0101
H -14.1359 -5.52196 6.83604
H -13.015 -5.89404 7.96377
O -1.62016 11.5995 -8.59774
H -2.33197 11.3146 -9.23974
H -1.9993 12.2628 -7.95255
O 13.2596 5.46942 9.36762
H 12.9866 4.58674 8.98502
H 12.9676 6.20323 8.75419
O -6.58352 -9.28866 -4.28212
H -6.86581 -10.2202 -4.51128
H -7.11637 -8.63669 -4.82157
O 4.36837 -11.9195 5.34093
H 4.35278 -11.6264 4.38495
H 3.45587 -12.2276 5.61004
O -14.3128 -1.52619 -6.7851
H -14.6062 -0.744148 -7.33494
H 14.7665 -1.81145 -6.18555
O 5.27926 4.40286 14.282
H 5.93929 5.10311 14.0099
H 5.71779 3.50443 14.2586
O -8.21972 -12.5038 0.297752
H -7.6371 -11.7677 0.64218
H -8.84052 -12.1403 -0.396853
O -8.55056 -0.526091 -14.5948
H -7.85424 0.0950015 14.8725
H -8.51189 -1.39347 14.7361
O 7.33185 11.7871 -4.09845
H 7.12515 12.5081 -3.43705
H 6.59747 11.7351 -4.7752
O 7.6105 8.00182 -8.04623
H 8.24212 7.93878 -8.81895
H 8.02154 7.56954 -7.24362
O -1.09584 -13.1251 -8.20237
H -1.62937 -12.3668 -7.82764
H -1.49826 -13.4194 -9.06922
O -6.26689 6.97607 -5.96089
H -6.08312 7.94664 -5.80515
H -5.70638 6.42703 -5.34089
O 13.9857 10.4278 0.40827
H 14.2756 11.1656 -0.201401
H 14.7307 10.2021 1.03598
O -8.1565 0.2966 -8.98139
H -8.48099 0.1701 -9.91879
H -8.83334 -0.0686348 -8.34224
O 10.1121 -0.307738 6.37957
H 10.4377 0.635709 6.31715
H 10.4618 -0.833047 5.60381
O -11.0172 -3.10179 12.0066
H -11.6729 -3.78135 11.6776
H -10.4509 -2.78856 11.2442
O -12.3744 13.0886 -8.87466
H -13.2944 12.7235 -9.01748
H -12.3753 14.0728 -9.05164
O -3.63426 -5.3503 10.8981
H -2.85809 -5.88271 11.2359
H -3.92403 -5.70956 10.011
O 2.25643 8.53894 -4.35534
H 1.67346 8.49463 -5.16664
H 3.12975 8.96297 -4.59518
O 1.74227 -3.38073 13.6831
H 2.66617 -3.72631 13.5188
H 1.7644 -2.70928 14.4238
O 0.418523 -1.70383 -14.0151
H -0.0718289 -2.52744 -13.7301
H -0.191386 -0.913926 -13.9513
O -13.0852 5.85205 -1.90948
H -13.2842 5.77432 -0.93256
H -13.1315 6.81262 -2.18367
O 11.1115 -13.1876 3.10832
H 11.6929 -13.3289 3.90959
H 10.1606 -13.3843 3.34754
O -2.2662 10.1031 7.17316
H -2.4297 10.7572 6.4346
H -1.38994 9.64474 7.02454
O 14.4206 -4.43682 0.918202
H 14.3233 -5.42201 1.05946
H 13.5179 -4.00694 0.93474
O 14.4435 4.27211 -3.17846
H -14.8375 5.10907 -3.14179
H 14.6337 3.71439 -2.37049
O 11.2272 7.05738 0.670658
H 11.4079 7.98109 0.332814
H 10.5685 6.60535 0.0691546
O -5.92841 2.19007 8.10426
H -5.43808 1.45458 7.63667
H -5.75251 3.05702 7.63791
O 6.81618 13.9899 -2.41725
H 6.51109 -14.8878 -2.49256
H 7.81573 13.9598 -2.42085
O -10.6458 -8.63184 -7.271
H -10.9703 -9.49149 -7.66566
H -9.90201 -8.26757 -7.83138
O 12.1152 -3.90372 -11.9097
H 11.5478 -4.71277 -11.7564
H 12.6855 -3.73919 -11.1049
O -2.67352 -3.88904 8.08423
H -3.06381 -2.97383 7.98379
H -3.37599 -4.57402 7.89098
O -3.27295 -4.02912 13.3788
H -3.65241 -4.58805 12.6415
H -3.64388 -4.33681 14.255
O -12.4018 9.73348 -5.32732
H -12.7207 9.25487 -6.14537
H -13.0232 9.54449 -4.56699
O -13.0152 -14.1942 -10.1642
H -13.5514 -14.5278 -10.9396
H -12.0994 -13.9416 -10.4762
O 8.60092 -3.94481 -0.729453
H 9.329 -4.08515 -1.40044
H 7.77488 -4.42213 -1.0292
O 1.81327 -0.192135 12.9158
H 2.76157 0.0742663 12.7432
H 1.65804 -1.1165 12.5673
O 0.859729 -6.36049 12.0902
H 1.47689 -6.33347 12.8766
H 0.86019 -5.4699 11.6354
O 9.12801 -7.05329 7.7279
H 9.6243 -7.91107 7.59404
H 8.25964 -7.2389 8.1878
O 2.50863 9.39528 -8.04696
H 1.59262 9.63461 -7.72499
H 2.44135 8.67779 -8.74028
O 4.80347 5.24082 -11.5282
H 4.00336 4.76965 -11.8995
H 5.38978 4.58161 -11.0573
O -11.5733 -0.777124 0.539983
H -11.4893 0.0488298 -0.0174811
H -10.6618 -1.11313 0.777354
O -6.84108 1.32511 14.4919
H -5.91315 0.953205 14.4665
H -6.85683 2.14287 -14.7598
O -11.6631 -3.99105 -6.02169
H -10.6709 -4.10612 -5.97201
H -12.1023 -4.5936 -5.35533
O -14.2424 -2.66097 9.0161
H -13.335 -2.55251 8.61016
H -14.2606 -3.48987 9.57521
O 4.61365 9.0027 4.70518
H 4.06665 8.32865 5.20164
H 5.58245 8.76659 4.78063
O -12.572 9.80024 6.93397
H -12.1527 9.99882 7.81986
H -11.8674 9.49747 6.29214
O 1.87459 12.1051 -6.02067
H 1.33314 11.3536 -6.39746
H 2.36857 11.7871 -5.21145
O 13.5622 7.72382 2.75474
H 14.343 8.18027 2.32813
H 12.7542 8.30857 2.68281
O 10.5051 -0.472117 2.48235
H 11.4698 -0.272803 2.65461
H 9.93532 0.167605 2.99819
O -3.00821 -3.46425 -8.99608
H -3.55257 -2.73967 -9.41877
H -3.35879 -4.3555 -9.2838
O 12.016 10.7262 -4.85644
H 13.001 10.8969 -4.82854
H 11.772 10.3263 -5.73992
O 10.0258 -13.9915 14.1241
H 9.24965 -14.1652 14.7302
H 10.872 -14.2711 14.5776
O 9.00545 10.544 -10.3012
H 8.80439 11.1155 -11.0968
H 8.37059 10.7673 -9.5615
O -4.79954 4.42912 6.64816
H -4.22793 4.94343 7.28751
H -4.58871 4.71048 5.71199
O -12.6655 -13.0346 1.63926
H -13.5359 -13.382 1.29055
H -11.9241 -13.6384 1.34622
O 12.0253 -11.9939 12.594
H 12.3072 -12.315 11.6898
H 11.031 -11.8901 12.6157
O -10.2691 8.29565 9.65577
H -10.2246 8.6559 10.5876
H -9.60865 8.77783 9.08011
O 8.66942 12.1495 14.0816
H 8.20953 11.4741 14.658
H 9.61826 12.2519 14.3803
O 5.76746 7.68339 -9.98219
H 6.24402 7.79332 -9.10995
H 5.75959 6.71674 -10.2382
O -11.1838 -7.95892 0.994025
H -10.982 -7.08408 0.553671
H -11.3636 -8.65055 0.294494
O 3.47683 6.43505 -14.2609
H 4.05013 5.70694 -14.6366
H 2.52063 6.26166 -14.4967
O 10.7236 14.4715 -5.40027
H 10.7774 -14.3933 -5.13343
H 10.913 13.8942 -4.60598
O 14.3062 -3.20669 4.2449
H 14.6472 -3.16915 5.18421
H -14.7612 -3.07128 3.60882
O 7.40051 3.27707 -3.45884
H 8.35454 2.98853 -3.5399
H 7.03989 2.99053 -2.57122
O 3.08035 -7.73885 8.86721
H 2.53642 -8.1875 9.57634
H 3.56674 -8.43016 8.33286
O -9.13606 -7.27067 -4.24728
H -9.43143 -8.21968 -4.3575
H -9.7744 -6.79065 -3.64552
O -7.78178 0.807247 -2.03163
H -7.45921 -0.138895 -2.05958
H -8.69478 0.836248 -1.62469
O 0.191965 -13.3508 4.41012
H 0.382284 -14.3018 4.16626
H 0.648377 -13.13 5.27206
O 7.06366 5.87045 6.99246
H 6.97605 5.3859 6.12208
H 6.98984 6.85516 6.83465
O -4.21775 -11.4343 -11.0177
H -4.66491 -11.774 -10.1903
H -4.90656 -11.2609 -11.7217
O -8.83573 0.116955 12.4735
H -9.81203 0.103218 12.6895
H -8.35599 0.692915 13.1354
O 10.1592 5.90078 -7.30169
H 10.2725 6.61305 -7.99439
H 10.4517 5.02125 -7.67702
O 12.7261 9.33979 5.67092
H 12.382 9.39666 4.73371
H 12.1387 9.87853 6.27491
O 8.41145 9.50281 -2.80583
H 8.03161 10.3526 -3.17129
H 9.4017 9.49342 -2.94483
O -10.3524 -12.3779 -5.25242
H -10.2136 -12.8646 -6.11492
H -11.2933 -12.5123 -4.94148
O -9.33231 -5.74692 12.9339
H -9.41998 -5.859 11.944
H -9.22969 -4.77632 13.1516
O -4.70589 2.88808 12.8611
H -5.35675 2.44949 13.4808
H -5.14155 3.04131 11.9741
O 14.0583 1.36168 13.2976
H 14.8567 1.75096 12.8383
H 13.2255 1.76092 12.9141
O -11.3026 7.75478 0.257683
H -11.1359 8.59673 0.770858
H -11.5569 7.98219 -0.682335
O -6.83609 5.97227 7.65562
H -6.46203 5.17691 7.17867
H -7.82768 5.87426 7.74023
O -0.410124 11.7931 8.65573
H -0.0899104 11.0932 9.29422
H -1.36187 11.6095 8.40977
O -11.7244 -1.67891 -2.33273
H -12.0473 -1.77426 -1.39111
H -12.4964 -1.45931 -2.92924
O -14.4398 5.01868 10.9858
H -13.8319 5.73146 10.6358
H 14.4707 5.1467 10.6069
O 4.96149 -3.07718 -2.99099
H 5.11241 -2.19269 -2.54951
H 4.29639 -2.97154 -3.73026
O -1.19439 -4.02528 -13.5689
H -0.941123 -4.73908 -14.2218
H -2.11457 -4.20363 -13.2203
O -10.6366 4.8728 -12.9829
H -11.3489 5.02459 -13.6682
H -9.81497 5.38287 -13.2375
O 8.50719 -10.1304 13.2915
H 9.2627 -10.166 12.6373
H 8.41912 -9.20051 13.6487
O -11.6173 4.19635 -3.39575
H -12.2549 4.74546 -2.85539
H -11.9209 3.24355 -3.40251
O -12.2379 -7.8704 -12.6212
H -12.4647 -8.36485 -13.4603
H -12.5838 -8.37735 -11.8317
O 7.16123 5.29901 9.5602
H 6.41148 4.68182 9.79889
H 7.08999 5.55253 8.59549
O 13.6616 11.8652 13.8388
H 13.5531 12.8186 13.5573
H 13.403 11.2631 13.0835
O -0.53575 -6.4505 14.8689
H -0.61222 -7.29749 -14.4321
H 0.360564 -6.41229 14.4271
O -1.10755 7.96822 -5.86628
H -0.931597 6.98434 -5.834
H -1.79664 8.20623 -5.18179
O -5.15648 8.92173 -8.54427