LAMMPS data file via write_data, version 15 May 2015, timestep = 1000000

4560 atoms
7 atom types
5040 bonds
3 bond types
7200 angles
2 angle types
10560 dihedrals
3 dihedral types
2400 impropers
1 improper types

-1.0763502675555259e-01 4.1387635026745990e+01 xlo xhi
-4.0433884491974936e-02 3.5938433884472119e+01 ylo yhi
-3.5711112484589691e-01 2.9555111124838550e+01 zlo zhi
-6.7234083837551181e-02 -1.7036217651000683e+01 -4.1707816797290791e-02 xy xz yz

Masses

1 12.0107
2 1.008
3 12.0107
4 12.0107
5 12.0107
6 12.0107
7 12.0107

Pair Coeffs # lj/cut/coul/long

1 0.07 3.55
2 0.03 2.42
3 0.07 3.55
4 0.07 3.55
5 0.07 3.55
6 0 0
7 0.07 3.55

Bond Coeffs # harmonic

1 469 1.4
2 367 1.08
3 469 0.7

Angle Coeffs # harmonic

1 35 120
2 63 120

Dihedral Coeffs # opls

1 0 7.25 0 0
2 0 7.25 0 0
3 0 7.25 0 0

Improper Coeffs # cvff

1 2.5 -1 2

Atoms # full

219 13 3 0.0000000000000000e+00 -3.1464591374749995e-01 3.0978375697093896e+00 3.1410066204696121e+00 1 0 0
220 13 4 -1.1500000000000000e-01 3.0955077462170588e-01 4.0907884058992012e+00 2.3430356163367740e+00 1 0 0
224 13 2 1.1500000000000000e-01 5.9808250394855356e-01 5.0643559045657751e+00 2.7282010504958194e+00 1 0 0
580 33 4 -1.1500000000000000e-01 2.6724434109998931e+00 6.7514753138137245e+00 3.9812150811226656e+00 1 0 0
228 13 3 0.0000000000000000e+00 -5.4299867525581380e-01 1.8535020031616365e+00 2.5765648387828621e+00 1 0 0
989 53 4 -1.1500000000000000e-01 -1.3732612412028591e+00 7.0413744058366996e+00 3.5207977600451241e+00 1 0 0
600 34 2 1.1500000000000000e-01 2.2380482877166674e-01 5.7841746128672336e+00 6.9700591638952467e+00 1 0 0
245 14 4 -1.1500000000000000e-01 -4.9066181036837584e+00 1.4104509103355067e+00 9.0635314279614736e+00 1 0 0
227 13 4 -1.1500000000000000e-01 -1.8691779944371834e-01 1.5429879187290594e+00 1.2513984503991009e+00 1 0 0
4390 233 1 -1.1500000000000000e-01 2.3174936214135178e+00 7.9618684574964149e-01 5.4691226154838208e+00 1 1 0
733 13 6 0.0000000000000000e+00 -4.4629696447210931e-01 2.4260118166090225e+00 2.9339778111908377e+00 1 0 0
987 53 4 -1.1500000000000000e-01 -8.0100570821612893e-01 7.9768332444349905e+00 1.3175827681346204e+00 1 0 0
230 13 1 -1.1500000000000000e-01 5.8632007389597418e-01 3.7918516748945823e+00 1.0559090374350437e+00 1 0 0
217 13 7 -1.1500000000000000e-01 -1.0854626460720911e+00 2.3426476817421547e+00 5.3635737314596890e+00 1 0 0
218 13 5 -1.1500000000000000e-01 -5.8854009826996423e-01 3.3803380960077991e+00 4.5162956363935907e+00 1 0 0
221 13 1 -1.1500000000000000e-01 -1.4930679767456110e+00 1.1512692847591068e+00 4.7188159463995927e+00 1 0 0
222 13 2 1.1500000000000000e-01 -1.1440397593774070e+00 2.5921520936731679e+00 6.4622542356399757e+00 1 0 0
223 13 2 1.1500000000000000e-01 -2.5968974956750301e-01 4.3317731481697601e+00 4.8732774719426830e+00 1 0 0
248 14 1 -1.1500000000000000e-01 -3.6717766927225766e+00 3.5168853940176725e+00 8.6305437131707752e+00 1 0 0
4380 233 4 -1.1500000000000000e-01 2.5587845483452165e+00 1.1190578631989008e+00 4.1396362031752556e+00 1 1 0
244 14 1 -1.1500000000000000e-01 -4.2898810389279607e+00 2.3388808602531119e+00 8.1175534112577452e+00 1 0 0
603 34 2 1.1500000000000000e-01 1.2533738143071798e+00 3.7216468416935333e+00 7.6169057774900484e+00 1 0 0
4396 234 5 -1.1500000000000000e-01 -7.3956197796770429e-01 1.7844843557690049e-01 9.2395398206235910e+00 1 1 0
4394 233 2 1.1500000000000000e-01 1.7430615270897718e+00 1.4928064312891709e+00 6.1250030396270745e+00 1 1 0
579 33 3 0.0000000000000000e+00 3.3521800877851202e+00 5.8426335169810075e+00 3.1436945938469396e+00 1 0 0
252 14 2 1.1500000000000000e-01 -3.0489514580814774e+00 4.1069996323913829e+00 7.9882141098366564e+00 1 0 0
581 33 1 -1.1500000000000000e-01 4.6512346337704722e+00 3.9801186002264259e+00 1.5061490083589923e+00 1 0 0
596 34 5 -1.1500000000000000e-01 -5.4639704290684676e-01 6.3289011013036287e+00 8.8684536895493160e+00 1 0 0
577 33 7 -1.1500000000000000e-01 4.1020302515646279e+00 5.1761739064585637e+00 9.6702679610770614e-01 1 0 0
588 33 3 0.0000000000000000e+00 3.9101153991356865e+00 4.6803889776109306e+00 3.7210010339673492e+00 1 0 0
589 33 4 -1.1500000000000000e-01 4.5404353486850546e+00 3.7216357710345251e+00 2.8684141017530722e+00 1 0 0
593 33 2 1.1500000000000000e-01 4.9416186951305479e+00 2.7782726807507263e+00 3.3238619603451207e+00 1 0 0
753 33 6 0.0000000000000000e+00 3.6306445598514960e+00 5.1913372357289500e+00 3.3006284477686734e+00 1 0 0
4383 233 2 1.1500000000000000e-01 3.1171230423326972e+00 1.4769183679127167e+00 1.5687395309502756e+00 1 1 0
4379 233 3 0.0000000000000000e+00 3.2743541415884518e+00 2.5814665382802288e-01 3.2887367000053325e+00 1 1 0
578 33 5 -1.1500000000000000e-01 3.4906024925366430e+00 6.1392569090305296e+00 1.7951558051156660e+00 1 0 0
226 13 1 -1.1500000000000000e-01 3.4899055709396848e-01 2.5366494728064324e+00 4.3974718244052424e-01 1 0 0
4384 233 2 1.1500000000000000e-01 2.0994287301669350e+00 2.1014880266771097e+00 3.8530556949822596e+00 1 1 0
586 33 1 -1.1500000000000000e-01 3.1183353319159974e+00 5.4046260373443058e+00 5.9179698587779219e+00 1 0 0
587 33 4 -1.1500000000000000e-01 3.7987890775516036e+00 4.4117758279682109e+00 5.1605938608963582e+00 1 0 0
585 33 2 1.1500000000000000e-01 5.0119135544737654e+00 3.2484230215309409e+00 8.2779535181443631e-01 1 0 0
591 33 2 1.1500000000000000e-01 3.1123405917888007e+00 5.2548393500782122e+00 6.9761238665680567e+00 1 0 0
592 33 2 1.1500000000000000e-01 4.2083715086484990e+00 3.5416295191484060e+00 5.6805661485120336e+00 1 0 0
590 33 1 -1.1500000000000000e-01 2.6093604374488346e+00 6.5673919979373112e+00 5.3497701582060264e+00 1 0 0
1010 54 2 1.1500000000000000e-01 -4.8782385415766063e+00 6.2148623738854960e+00 8.6197067891273687e+00 1 0 0
234 13 2 1.1500000000000000e-01 1.2105139388208850e+00 4.5495347113834219e+00 4.7217199843136903e-01 1 0 0
229 13 4 -1.1500000000000000e-01 -1.2182104774849172e+00 8.7811169453759064e-01 3.3305372742829187e+00 1 0 0
1064 57 2 1.1500000000000000e-01 7.2286124038729263e+00 6.3428141401446538e+00 9.5970897483074191e-01 1 0 0
985 53 2 1.1500000000000000e-01 -1.9660173653427282e+00 6.4619451885994410e+00 5.5384285309132411e+00 1 0 0
599 34 1 -1.1500000000000000e-01 6.8450854104131231e-01 4.2746362422572188e+00 8.3514235888553827e+00 1 0 0
4401 234 2 1.1500000000000000e-01 -1.0492708763274141e+00 1.1090255020355910e+00 8.8411061150197927e+00 1 1 0
225 13 2 1.1500000000000000e-01 -1.8677751269639828e+00 2.9346926967879755e-01 5.3224474069977186e+00 1 0 0
595 34 7 -1.1500000000000000e-01 1.1172993852327462e-01 5.5024647557979414e+00 7.9454266546084433e+00 1 0 0
981 53 1 -1.1500000000000000e-01 -1.4797536525513979e+00 7.2185574043072602e+00 4.9051743329900024e+00 1 0 0
4378 233 5 -1.1500000000000000e-01 3.4395332807697372e+00 5.0168014700894914e-01 1.9212398905875760e+00 1 1 0
582 33 2 1.1500000000000000e-01 4.1660995800713465e+00 5.3306138603304092e+00 -9.8527702595599731e-02 1 0 0
583 33 2 1.1500000000000000e-01 2.9747950486697041e+00 7.0226537222675569e+00 1.4755274786146153e+00 1 0 0
993 53 2 1.1500000000000000e-01 -1.8198112178516876e+00 6.1408622050608797e+00 3.0274614348435742e+00 1 0 0
232 13 2 1.1500000000000000e-01 -3.3793077919276715e-01 4.9866244405531773e-01 8.4677947622135563e-01 1 0 0
1493 53 6 0.0000000000000000e+00 -5.6038785962521875e-01 8.6578684506555845e+00 2.9873111563983779e+00 1 0 0
584 33 2 1.1500000000000000e-01 2.3509960542670965e+00 7.6039996571701698e+00 3.4967481492793988e+00 1 0 0
1005 54 4 -1.1500000000000000e-01 -4.4995747962405988e+00 7.1900582719335056e+00 8.8765759633013648e+00 1 0 0
594 33 2 1.1500000000000000e-01 2.2328811439755509e+00 7.3020393068339562e+00 6.0423399761153087e+00 1 0 0
977 53 7 -1.1500000000000000e-01 -8.9238373411409899e-01 8.3582295346457673e+00 5.4762088875188972e+00 1 0 0
982 53 2 1.1500000000000000e-01 -9.0000408594164849e-01 8.5900306466793630e+00 6.5492068160065688e+00 1 0 0
1004 54 1 -1.1500000000000000e-01 -3.7044977255226588e+00 7.7988451994298496e+00 8.0007098915931874e+00 1 0 0
988 53 3 0.0000000000000000e+00 -8.2197494605590249e-01 8.0164114324905675e+00 2.7683467560406152e+00 1 0 0
1009 54 2 1.1500000000000000e-01 -3.5152086766856594e+00 7.2706897159986950e+00 7.1043635508670642e+00 1 0 0
601 34 2 1.1500000000000000e-01 -9.1710055439484783e-01 7.2586266886400024e+00 8.6073695284471921e+00 1 0 0
1353 73 2 1.1500000000000000e-01 4.8622623709307176e+00 8.9247162139662422e+00 3.0868817880862074e+00 1 0 0
249 14 2 1.1500000000000000e-01 -4.2043330831574544e+00 2.0500311707878005e+00 7.1310801661876564e+00 1 0 0
986 53 1 -1.1500000000000000e-01 -1.0628525831255514e-01 8.8935728829128387e+00 5.7368581894011061e-01 1 0 0
304 17 2 1.1500000000000000e-01 6.9006486215381493e+00 2.1395470262633307e-01 1.8526876126479443e+00 1 0 0
250 14 2 1.1500000000000000e-01 -5.2419675690792689e+00 4.5696423204338149e-01 8.6792835915713429e+00 1 0 0
4382 233 2 1.1500000000000000e-01 4.4027636761284592e+00 1.1901516795153637e-01 1.2208190800002733e-01 1 1 0
233 13 2 1.1500000000000000e-01 -1.5269889208580802e+00 -4.1411776849001082e-02 2.8195433462591075e+00 1 0 0
235 14 7 -1.1500000000000000e-01 -5.1858779477537604e+00 2.2090138325700321e+00 1.3197574435013518e+01 1 0 0
236 14 5 -1.1500000000000000e-01 -4.5686323285466273e+00 3.1439394429196668e+00 1.2350959767193187e+01 1 0 0
597 34 3 0.0000000000000000e+00 -6.5426032092783970e-01 5.8690489548111504e+00 1.0185866384481360e+01 1 0 0
734 14 6 0.0000000000000000e+00 -4.6017333161600975e+00 2.3389848914269105e+00 1.0493971871384876e+01 1 0 0
239 14 1 -1.1500000000000000e-01 -5.9091199501659659e+00 1.0834115951496688e+00 1.2656364874352310e+01 1 0 0
240 14 2 1.1500000000000000e-01 -5.2063036853371818e+00 2.3535811665368778e+00 1.4229979553518850e+01 1 0 0
243 14 2 1.1500000000000000e-01 -6.3599248085908346e+00 3.5479174778532779e-01 1.3258000983420505e+01 1 0 0
4416 235 4 -1.1500000000000000e-01 -5.8644147957306512e+00 8.9811369717338052e-01 1.9052561781075127e+01 1 1 0
4420 235 2 1.1500000000000000e-01 -6.1221440691831841e+00 1.8769488060972135e+00 1.8637372809074979e+01 1 1 0
237 14 3 0.0000000000000000e+00 -4.4989210408109779e+00 2.9229059745663819e+00 1.0907403173647451e+01 1 0 0
4402 234 2 1.1500000000000000e-01 -1.9199839893348640e+00 1.6834840677569236e+00 1.1033058020808173e+01 1 1 0
4415 235 3 0.0000000000000000e+00 -5.1415558759142757e+00 -1.7950127756748362e-02 1.8189388272393501e+01 1 1 0
242 14 2 1.1500000000000000e-01 -3.1895806963711384e+00 4.6865826382251923e+00 1.0366217605394803e+01 1 0 0
255 15 3 0.0000000000000000e+00 -8.7689635265550780e+00 3.1062632806817536e+00 1.8159639186783288e+01 1 0 0
256 15 4 -1.1500000000000000e-01 -8.0375254848503914e+00 3.8866522263729215e+00 1.7180690194396632e+01 1 0 0
260 15 2 1.1500000000000000e-01 -7.7172805462769034e+00 4.9277076665781347e+00 1.7416465239072103e+01 1 0 0
995 54 7 -1.1500000000000000e-01 -5.3830895648593309e+00 8.8736111305726748e+00 1.2663045019511177e+01 1 0 0
4414 235 5 -1.1500000000000000e-01 -4.9069803825413461e+00 3.4076780275968838e-01 1.6851372838566405e+01 1 1 0
264 15 3 0.0000000000000000e+00 -9.3255122817660929e+00 1.8763200374304669e+00 1.7825968809736015e+01 1 0 0
262 15 1 -1.1500000000000000e-01 -8.3233890046563932e+00 2.0763383341294217e+00 1.5608272331599721e+01 1 0 0
266 15 1 -1.1500000000000000e-01 -7.7365232273233051e+00 3.2957524661393509e+00 1.5974908101995073e+01 1 0 0
4408 234 1 -1.1500000000000000e-01 -1.9477618047664143e+00 3.3718613671565301e-01 1.2709998693590101e+01 1 1 0
238 14 4 -1.1500000000000000e-01 -3.7032962644828524e+00 3.7431656747610917e+00 1.0026351086064754e+01 1 0 0
263 15 4 -1.1500000000000000e-01 -9.1516260131132565e+00 1.3859074169513874e+00 1.6560025170320852e+01 1 0 0
735 15 6 0.0000000000000000e+00 -8.9269129815234383e+00 2.4390967489573767e+00 1.8059468339090685e+01 1 0 0
246 14 3 0.0000000000000000e+00 -5.0123516318035062e+00 1.7604409202227336e+00 1.0411826356670792e+01 1 0 0
265 15 4 -1.1500000000000000e-01 -1.0046839646744537e+01 1.1036589166214477e+00 1.8738301892826563e+01 1 0 0
604 34 1 -1.1500000000000000e-01 -1.0492002648221410e+00 4.9212494569538734e+00 1.2825239237202904e+01 1 0 0
605 34 4 -1.1500000000000000e-01 -4.0174619950229662e-01 4.1010789407716937e+00 1.1887274334771734e+01 1 0 0
606 34 3 0.0000000000000000e+00 -1.7682865749049892e-01 4.5649387016609237e+00 1.0610686744572558e+01 1 0 0
1006 54 3 0.0000000000000000e+00 -4.7828740964118284e+00 7.7888049849133276e+00 1.0112928224948661e+01 1 0 0
1022 55 1 -1.1500000000000000e-01 -8.5219007369855024e+00 8.3504462031025319e+00 1.5269364671627905e+01 1 0 0
611 34 2 1.1500000000000000e-01 7.8788740283493830e-01 2.7700589876982686e+00 9.8858584595697572e+00 1 0 0
610 34 2 1.1500000000000000e-01 -1.4316627297631435e-01 3.0866123613180609e+00 1.2161383158111519e+01 1 0 0
241 14 2 1.1500000000000000e-01 -4.0568682964315954e+00 4.0082008302183043e+00 1.2756891035981464e+01 1 0 0
1011 54 2 1.1500000000000000e-01 -6.2404475442169387e+00 6.1845017844182468e+00 1.0731866189625253e+01 1 0 0
598 34 4 -1.1500000000000000e-01 -1.1630078718545969e+00 6.7736259742751272e+00 1.1189710101905524e+01 1 0 0
754 34 6 0.0000000000000000e+00 -4.3593888831231364e-01 5.2585944905675248e+00 1.0494132034187110e+01 1 0 0
609 34 2 1.1500000000000000e-01 -1.1464856417662652e+00 4.6882773849685515e+00 1.3826757131144067e+01 1 0 0
613 35 7 -1.1500000000000000e-01 -4.6047193260707164e+00 5.5785598665320846e+00 1.6012466375980573e+01 1 0 0
618 35 2 1.1500000000000000e-01 -4.6202482850118782e+00 6.0203354458463378e+00 1.5011279446830347e+01 1 0 0
615 35 3 0.0000000000000000e+00 -5.2852986082618036e+00 5.7857736803862565e+00 1.8383986717873523e+01 1 0 0
617 35 1 -1.1500000000000000e-01 -3.8651224270496201e+00 4.3617790963604559e+00 1.6335869454248485e+01 1 0 0
621 35 2 1.1500000000000000e-01 -3.4142660224595982e+00 3.8274447259935549e+00 1.5530809138804248e+01 1 0 0
624 35 3 0.0000000000000000e+00 -4.6795609246155738e+00 4.5160940500188929e+00 1.8695633206025004e+01 1 0 0
625 35 4 -1.1500000000000000e-01 -3.9978375558616053e+00 3.8135164501988603e+00 1.7654172288669542e+01 1 0 0
629 35 2 1.1500000000000000e-01 -3.6781336101170794e+00 2.7799168378690231e+00 1.7882194557274264e+01 1 0 0
755 35 6 0.0000000000000000e+00 -4.9269432345014463e+00 5.1295375183660248e+00 1.8429977465822606e+01 1 0 0
270 15 2 1.1500000000000000e-01 -7.1693991742587517e+00 3.8334105432540948e+00 1.5200756740953780e+01 1 0 0
4398 234 4 -1.1500000000000000e-01 -1.6221596292228151e+00 7.5519254702982586e-01 1.1407214100603515e+01 1 1 0
4412 234 2 1.1500000000000000e-01 -2.4694078871855991e+00 9.4641364472655320e-01 1.3396775197061480e+01 1 1 0
614 35 5 -1.1500000000000000e-01 -5.2165132475338334e+00 6.3072082118222372e+00 1.7103006159781327e+01 1 0 0
247 14 4 -1.1500000000000000e-01 -5.7534146326288518e+00 8.6265603849238537e-01 1.1255424638118155e+01 1 0 0
4419 235 2 1.1500000000000000e-01 -5.1848228121887594e+00 1.3019703194063628e+00 1.6419028377968264e+01 1 1 0
1025 55 4 -1.1500000000000000e-01 -9.8124150296911488e+00 6.7311363442712286e+00 1.8339396732419164e+01 1 0 0
608 34 1 -1.1500000000000000e-01 -1.3367343241011787e+00 6.2760154575709191e+00 1.2523816943035206e+01 1 0 0
616 35 4 -1.1500000000000000e-01 -5.9482751259686655e+00 6.5361183188485334e+00 1.9388111164449843e+01 1 0 0
612 34 2 1.1500000000000000e-01 -1.6772485270989703e+00 7.0123296747123076e+00 1.3247097217291453e+01 1 0 0
269 15 2 1.1500000000000000e-01 -1.0396388713713135e+01 1.8962584159003407e-01 1.8335883010470283e+01 1 0 0
1029 55 2 1.1500000000000000e-01 -1.0338701436316036e+01 5.8931919270219169e+00 1.8010251279583240e+01 1 0 0
254 15 5 -1.1500000000000000e-01 -8.9585648450089934e+00 3.5720014133507467e+00 1.9520689120182023e+01 1 0 0
1007 54 4 -1.1500000000000000e-01 -5.7067781604103693e+00 7.1119503128433452e+00 1.1037795567402418e+01 1 0 0
1023 55 4 -1.1500000000000000e-01 -9.1498810026603365e+00 7.4290754185463062e+00 1.6109574859792563e+01 1 0 0
619 35 2 1.1500000000000000e-01 -5.7586013127423774e+00 7.2218218778805587e+00 1.6938280778792137e+01 1 0 0
1015 55 3 0.0000000000000000e+00 -8.5372103966899857e+00 8.7980285621146379e+00 1.8023248929712995e+01 1 0 0
1494 54 6 0.0000000000000000e+00 -4.5541553724221790e+00 8.4073265996698208e+00 1.0290023166092768e+01 1 0 0
1003 54 2 1.1500000000000000e-01 -6.5574318300557470e+00 6.9541884918990871e+00 1.2891915341211586e+01 1 0 0
1495 55 6 0.0000000000000000e+00 -8.8208246365080747e+00 8.2628271267551519e+00 1.7608935243201994e+01 1 0 0
999 54 1 -1.1500000000000000e-01 -5.9786106206421161e+00 7.6396599553694085e+00 1.2286589607646194e+01 1 0 0
602 34 2 1.1500000000000000e-01 -1.3716360757878645e+00 7.8028446304811121e+00 1.0960680911129121e+01 1 0 0
1024 55 3 0.0000000000000000e+00 -9.1449233129427494e+00 7.6736779661363812e+00 1.7450482799818783e+01 1 0 0
620 35 2 1.1500000000000000e-01 -6.4421979043349733e+00 7.3986138381469200e+00 1.9163368146607187e+01 1 0 0
267 15 2 1.1500000000000000e-01 -8.0432690734127359e+00 1.7106431559506312e+00 1.4609651232428611e+01 1 0 0
607 34 4 -1.1500000000000000e-01 4.2665923001562156e-01 3.7245110457303126e+00 9.6315816434300459e+00 1 0 0
340 19 2 1.1500000000000000e-01 -1.3107566489918394e+00 6.1204917219347577e-01 1.6189382289631318e+01 1 0 0
251 14 2 1.1500000000000000e-01 -6.2590350859579651e+00 -4.0592291221785894e-03 1.0809946376257821e+01 1 0 0
280 16 1 -1.1500000000000000e-01 -1.2764125551852112e+01 2.3383464073275921e+00 2.3102957062756278e+01 1 0 0
231 13 2 1.1500000000000000e-01 -1.6404001877679438e+01 2.2319851675043880e+00 2.9307930233118739e+01 1 0 -1
258 15 2 1.1500000000000000e-01 -9.8433217058378784e+00 3.2246907926589539e+00 2.1487525378883216e+01 1 0 0
634 36 4 -1.1500000000000000e-01 -1.0207022348512215e+01 6.3936767230071236e+00 2.6175839995737704e+01 1 0 0
4433 236 3 0.0000000000000000e+00 -9.5118028684931808e+00 8.4337200708951940e-02 2.5625550975466897e+01 1 1 0
257 15 1 -1.1500000000000000e-01 -1.0213952321064848e+01 1.5679798253619657e+00 2.0044011944790682e+01 1 0 0
284 16 1 -1.1500000000000000e-01 -1.2261600834325375e+01 3.5814047853749051e+00 2.3611214507434603e+01 1 0 0
279 16 2 1.1500000000000000e-01 -1.4828922137361079e+01 6.3766128218148199e-01 2.8355757641576606e+01 1 0 0
1047 56 2 1.1500000000000000e-01 -1.4823959927761431e+01 6.1341235949324480e+00 2.6074461565823096e+01 1 0 0
288 16 2 1.1500000000000000e-01 -1.1824749990114825e+01 4.2680333951887102e+00 2.2914865429732426e+01 1 0 0
271 16 7 -1.1500000000000000e-01 -1.3841475308158449e+01 2.5479419152283009e+00 2.8062558316843322e+01 1 0 0
272 16 5 -1.1500000000000000e-01 -1.3211232363793009e+01 3.4230987058967606e+00 2.7177869991069393e+01 1 0 0
273 16 3 0.0000000000000000e+00 -1.3007131341352066e+01 3.0877063719050710e+00 2.5839391329934667e+01 1 0 0
274 16 4 -1.1500000000000000e-01 -1.2324325589265957e+01 3.9413540024192595e+00 2.4956463008724228e+01 1 0 0
275 16 1 -1.1500000000000000e-01 -1.4393698046088589e+01 1.3219695211217841e+00 2.7624232411964051e+01 1 0 0
259 15 2 1.1500000000000000e-01 -8.5833288769335123e+00 4.5438542405604174e+00 1.9867002100338610e+01 1 0 0
277 16 2 1.1500000000000000e-01 -1.2813077451853768e+01 4.4120941794761679e+00 2.7336021425090379e+01 1 0 0
278 16 2 1.1500000000000000e-01 -1.2087475332779936e+01 5.0222806682431926e+00 2.5199708289496606e+01 1 0 0
261 15 2 1.1500000000000000e-01 -1.0766986874681944e+01 8.8046813090514553e-01 2.0676164210052928e+01 1 0 0
282 16 3 0.0000000000000000e+00 -1.3449105601207838e+01 1.8275291628316577e+00 2.5395654017923889e+01 1 0 0
1043 56 4 -1.1500000000000000e-01 -1.4409865506053812e+01 7.1240019873439007e+00 2.6229885344790983e+01 1 0 0
736 16 6 0.0000000000000000e+00 -1.3239752915777940e+01 2.3831734836778677e+00 2.5737646670681190e+01 1 0 0
632 36 5 -1.1500000000000000e-01 -9.2335972538609177e+00 6.1006872609792957e+00 2.3874866450960305e+01 1 0 0
636 36 2 1.1500000000000000e-01 -8.2623101904682361e+00 5.6118147963659251e+00 2.1952558774575216e+01 1 0 0
4438 236 2 1.1500000000000000e-01 -1.0719441376488927e+01 1.6779044904229159e+00 2.6241682933695625e+01 1 1 0
253 15 7 -1.1500000000000000e-01 -9.6967412128034276e+00 2.8099584542257645e+00 2.0504388563572714e+01 1 0 0
623 35 4 -1.1500000000000000e-01 -4.7986399242144460e+00 3.9902555875206356e+00 2.0031014951186311e+01 1 0 0
627 35 2 1.1500000000000000e-01 -5.5350457625558072e+00 4.3678285136110047e+00 2.2050449383117797e+01 1 0 0
644 36 1 -1.1500000000000000e-01 -1.0356244036574637e+01 6.0006165954228852e+00 2.7543778737467463e+01 1 0 0
631 36 7 -1.1500000000000000e-01 -8.4810846669156383e+00 5.2924193484784805e+00 2.2984670114109324e+01 1 0 0
635 36 1 -1.1500000000000000e-01 -7.8829090869549487e+00 4.1431766804818340e+00 2.3479258764407142e+01 1 0 0
628 35 2 1.1500000000000000e-01 -4.3143248663945979e+00 3.1021746755602342e+00 2.0365279534554833e+01 1 0 0
639 36 2 1.1500000000000000e-01 -7.2746517959844841e+00 3.4801678958388576e+00 2.2788037064865673e+01 1 0 0
283 16 4 -1.1500000000000000e-01 -1.4109854487399934e+01 9.4328981509230314e-01 2.6245246979843508e+01 1 0 0
4430 235 2 1.1500000000000000e-01 -6.4970976340557067e+00 9.9837357813925687e-01 2.1190285405485916e+01 1 1 0
4444 236 1 -1.1500000000000000e-01 -1.0183843400556121e+01 4.3082383445268729e-01 2.7903769093444673e+01 1 1 0
638 36 2 1.1500000000000000e-01 -1.0724629089205111e+01 7.3221998353009452e+00 2.5817189679970213e+01 1 0 0
633 36 3 0.0000000000000000e+00 -9.4321387906966976e+00 5.6696250186866095e+00 2.5239202253292543e+01 1 0 0
4437 236 2 1.1500000000000000e-01 -1.0083601457106264e+01 1.4202053181035077e+00 2.4019998794735688e+01 1 1 0
640 36 1 -1.1500000000000000e-01 -9.7334224630962005e+00 4.7988044246721326e+00 2.7910445714693694e+01 1 0 0
641 36 4 -1.1500000000000000e-01 -8.9787976595129599e+00 4.0230057874267251e+00 2.7033049283529614e+01 1 0 0
642 36 3 0.0000000000000000e+00 -8.8450157453315157e+00 4.4675822018668860e+00 2.5638896627178763e+01 1 0 0
643 36 4 -1.1500000000000000e-01 -8.0759282178998433e+00 3.6878840559757107e+00 2.4743718375751740e+01 1 0 0
622 35 1 -1.1500000000000000e-01 -5.4679531172062905e+00 4.7206071186940761e+00 2.0999146552946431e+01 1 0 0
646 36 2 1.1500000000000000e-01 -8.4795464476679854e+00 3.1455498986975483e+00 2.7345031323685454e+01 1 0 0
647 36 2 1.1500000000000000e-01 -7.6916602144514101e+00 2.7699872683871529e+00 2.5041801807596318e+01 1 0 0
756 36 6 0.0000000000000000e+00 -9.3027564756467314e+00 4.9615477271277513e+00 2.5383067137089974e+01 1 0 0
281 16 4 -1.1500000000000000e-01 -1.3360944886792643e+01 1.4606747488136711e+00 2.3992052658889698e+01 1 0 0
4434 236 4 -1.1500000000000000e-01 -1.0204770780024504e+01 8.2480940657628710e-01 2.6555029001492567e+01 1 1 0
1042 56 3 0.0000000000000000e+00 -1.3590079767827419e+01 7.8051317220962089e+00 2.5235415408514008e+01 1 0 0
4436 236 2 1.1500000000000000e-01 -8.8924461302698532e+00 3.5369676938491190e-03 2.2225700785289629e+01 1 1 0
648 36 2 1.1500000000000000e-01 -1.0938526354782287e+01 6.4709506748681678e+00 2.8373373781857044e+01 1 0 0
4432 236 5 -1.1500000000000000e-01 -9.5825724158105068e+00 4.7374144053015627e-01 2.4277083242270134e+01 1 1 0
1039 56 2 1.1500000000000000e-01 -1.5272526805857250e+01 7.1038899645312199e+00 2.8182637051433893e+01 1 0 0
626 35 1 -1.1500000000000000e-01 -6.0267091021397343e+00 5.9540264278797315e+00 2.0650537241168184e+01 1 0 0
4448 236 2 1.1500000000000000e-01 -1.0756958461088878e+01 1.0079334219834790e+00 2.8568213515630330e+01 1 1 0
4426 235 1 -1.1500000000000000e-01 -6.0965893748335054e+00 4.4832051072606666e-01 2.0350567922500371e+01 1 1 0
276 16 2 1.1500000000000000e-01 -1.3909857658501732e+01 2.8145777107135683e+00 2.9113011482425375e+01 1 0 0
630 35 2 1.1500000000000000e-01 -6.6223655890334729e+00 6.4877897089528185e+00 2.1384858810870831e+01 1 0 0
1021 55 2 1.1500000000000000e-01 -1.0154318292664783e+01 6.2705133000178641e+00 2.0488926751533654e+01 1 0 0
637 36 2 1.1500000000000000e-01 -9.6904071950159878e+00 7.0218104909308963e+00 2.3628798053635482e+01 1 0 0
645 36 2 1.1500000000000000e-01 -9.8202846802365329e+00 4.4253027025129121e+00 2.8893765342322428e+01 1 0 0
1045 56 2 1.1500000000000000e-01 -1.2578471543712018e+01 7.6973212913662818e+00 2.1986575106251369e+01 1 0 0
1017 55 1 -1.1500000000000000e-01 -9.7822102031699050e+00 6.9436160214692446e+00 1.9746734192478712e+01 1 0 0
1035 56 1 -1.1500000000000000e-01 -1.4598228485935843e+01 7.6507403554778088e+00 2.7516875882327920e+01 1 0 0
1018 55 2 1.1500000000000000e-01 -9.1270122263765288e+00 8.1700590280301935e+00 2.1370120721664112e+01 1 0 0
1496 56 6 0.0000000000000000e+00 -1.3380024525755974e+01 8.4508206828210213e+00 2.5432174195780970e+01 1 0 0
1040 56 1 -1.1500000000000000e-01 -1.2665599647915244e+01 8.0023925669974378e+00 2.2984055748416669e+01 1 0 0
1041 56 4 -1.1500000000000000e-01 -1.3471177946718161e+01 7.3111804207788182e+00 2.3956241912913985e+01 1 0 0
1407 76 2 1.1500000000000000e-01 -8.2856361138601411e+00 8.7332747233322099e+00 2.4450314681264469e+01 1 0 0
1013 55 7 -1.1500000000000000e-01 -9.0909322526378258e+00 8.0530295394475004e+00 2.0294666448336731e+01 1 0 0
287 16 2 1.1500000000000000e-01 -1.4413087637935956e+01 -5.4645275048624778e-02 2.5915521461044328e+01 1 0 0
285 16 2 1.1500000000000000e-01 -1.2728672930829791e+01 2.1661800527600161e+00 2.2038274867940924e+01 1 0 0
1063 57 2 1.1500000000000000e-01 -8.8331081807923280e+00 7.9329630817152106e+00 2.9259079556705132e+01 1 0 -1
1118 60 2 1.1500000000000000e-01 -5.5588525556203745e+00 6.1657740618955073e+00 2.3682617664904065e+01 1 0 0
286 16 2 1.1500000000000000e-01 -1.3692858761971296e+01 4.8952351032459451e-01 2.3629492833036448e+01 1 0 0
1031 56 7 -1.1500000000000000e-01 -1.3970279820728555e+01 8.8706424348047204e+00 2.7800591783362897e+01 1 0 0
979 53 3 0.0000000000000000e+00 -1.5933056676245871e-01 9.1579257790500073e+00 3.3450429177865884e+00 1 0 0
980 53 4 -1.1500000000000000e-01 5.6973375294949435e-01 1.0044030273526181e+01 2.4989236636356393e+00 1 0 0
984 53 2 1.1500000000000000e-01 1.2211605918335247e+00 1.0790500911794279e+01 2.9492866315068453e+00 1 0 0
1361 74 2 1.1500000000000000e-01 -1.1995300779874314e+00 1.3149281076884211e+01 8.4371356701756941e+00 1 0 0
990 53 1 -1.1500000000000000e-01 4.7179176103988985e-01 9.9703190061485110e+00 1.0990510159580729e+00 1 0 0
2253 93 6 0.0000000000000000e+00 -3.7580260079900030e-01 1.4279986775369453e+01 2.9957148907966120e+00 1 0 0
994 53 2 1.1500000000000000e-01 1.0392528490583177e+00 1.0614940474290979e+01 4.5138687909277797e-01 1 0 0
1741 93 1 -1.1500000000000000e-01 -1.5937618461887149e+00 1.3469490529963432e+01 4.9136653909441206e+00 1 0 0
978 53 5 -1.1500000000000000e-01 -1.5168171712411738e-01 9.2776668317487783e+00 4.7132945355262503e+00 1 0 0
983 53 2 1.1500000000000000e-01 3.1941582902669463e-01 1.0228038441059198e+01 5.0706614945036659e+00 1 0 0
1012 54 2 1.1500000000000000e-01 -2.3830198954722612e+00 9.4949336983649690e+00 7.7022075698995494e+00 1 0 0
1363 74 2 1.1500000000000000e-01 1.3798162928491031e+00 9.6642860461295417e+00 7.7861196232109684e+00 1 0 0
1745 93 2 1.1500000000000000e-01 -2.2550932125491654e+00 1.2971743950284917e+01 5.5748248831848990e+00 1 0 0
1342 73 2 1.1500000000000000e-01 4.6528929390364464e+00 1.1799236959044167e+01 -1.9962424392460310e-01 1 0 0
1338 73 5 -1.1500000000000000e-01 3.6399192696494831e+00 1.2263121569167229e+01 1.6357812002337493e+00 1 0 0
1339 73 3 0.0000000000000000e+00 3.5193395684543161e+00 1.1915272558017319e+01 3.0212162226400938e+00 1 0 0
1340 73 4 -1.1500000000000000e-01 2.8176776653321940e+00 1.2785464006030855e+01 3.9446084518098257e+00 1 0 0
1341 73 1 -1.1500000000000000e-01 4.9225549514082685e+00 1.0251040339268856e+01 1.3264434051926497e+00 1 0 0
1337 73 7 -1.1500000000000000e-01 4.4509820578695178e+00 1.1467468918467539e+01 8.4476999259832697e-01 1 0 0
1343 73 2 1.1500000000000000e-01 3.2878606138782223e+00 1.3208289460416740e+01 1.2751537226068546e+00 1 0 0
1348 73 3 0.0000000000000000e+00 3.9463718774373526e+00 1.0661187652345410e+01 3.4648351034108509e+00 1 0 0
1349 73 4 -1.1500000000000000e-01 4.6375063809723871e+00 9.8146499746028031e+00 2.5972793795093083e+00 1 0 0
1513 73 6 0.0000000000000000e+00 3.7090522821367804e+00 1.1272063193015789e+01 3.2501333716726193e+00 1 0 0
1356 74 5 -1.1500000000000000e-01 -6.6262941754751381e-01 1.2331109464622946e+01 8.8284835108794208e+00 1 0 0
1354 73 2 1.1500000000000000e-01 2.2589254039927682e+00 1.3099958199089086e+01 5.9418735130140004e+00 1 0 0
1346 73 1 -1.1500000000000000e-01 3.0367289581065569e+00 1.1130720814517211e+01 5.6149142648177746e+00 1 0 0
1347 73 4 -1.1500000000000000e-01 3.6291976011917622e+00 1.0240728704257394e+01 4.7719526641642043e+00 1 0 0
1350 73 1 -1.1500000000000000e-01 2.6198187847021099e+00 1.2395208446805915e+01 5.2526416847660462e+00 1 0 0
1351 73 2 1.1500000000000000e-01 2.8082302825367385e+00 1.0906712666335290e+01 6.6173917696772655e+00 1 0 0
1352 73 2 1.1500000000000000e-01 3.8342913778767231e+00 9.2296784119403963e+00 5.0619511406153208e+00 1 0 0
1345 73 2 1.1500000000000000e-01 5.4488217916860897e+00 9.6085099711628068e+00 6.6134006607077755e-01 1 0 0
1355 74 7 -1.1500000000000000e-01 3.7593860422369119e-02 1.1474770428117084e+01 7.9690261809904825e+00 1 0 0
1359 74 1 -1.1500000000000000e-01 7.4449317272774440e-01 1.0338957035188246e+01 8.4069852943708483e+00 1 0 0
1360 74 2 1.1500000000000000e-01 -1.0241711116272789e-01 1.1598220830326314e+01 6.8698887365739809e+00 1 0 0
1747 93 4 -1.1500000000000000e-01 -6.0274917088652047e-01 1.3192488739621599e+01 1.2814019794951035e+00 1 0 0
1748 93 3 0.0000000000000000e+00 -6.9469993487402881e-01 1.3702226615078480e+01 2.6253453385148844e+00 1 0 0
1008 54 1 -1.1500000000000000e-01 -3.0640959191863901e+00 8.9897809626929153e+00 8.3777709239811742e+00 1 0 0
1746 93 1 -1.1500000000000000e-01 9.2924232113588690e-03 1.3991433491499919e+01 3.2275435362990290e-01 1 0 0
1765 94 4 -1.1500000000000000e-01 -5.2012782730568663e+00 1.3736597147743501e+01 8.6192769390787642e+00 1 0 0