LAMMPS (15 May 2015)
Reading data file ...
  triclinic box = (-0.107635 -0.0404339 -0.357111) to (41.3876 35.9384 29.5551) with tilt (-0.0672341 -17.0362 -0.0417078)
  5 by 4 by 3 MPI processor grid
  reading atoms ...
  4560 atoms
  reading velocities ...
  4560 velocities
  scanning bonds ...
  3 = max bonds/atom
  scanning angles ...
  3 = max angles/atom
  scanning dihedrals ...
  8 = max dihedrals/atom
  scanning impropers ...
  1 = max impropers/atom
  reading bonds ...
  5040 bonds
  reading angles ...
  7200 angles
  reading dihedrals ...
  10560 dihedrals
  reading impropers ...
  2400 impropers
Finding 1-2 1-3 1-4 neighbors ...
 Special bond factors lj:   0          0          0         
 Special bond factors coul: 0          0          0         
  4 = max # of 1-2 neighbors
  8 = max # of 1-3 neighbors
  20 = max # of 1-4 neighbors
  16 = max # of special neighbors
4560 atoms in group all
720 atoms in group C
480 atoms in group S
1920 atoms in group H
720 atoms in group Si
240 atoms in group Na
240 atoms in group Ba
240 atoms in group O
4560 atoms in group naphthalene
1200 atoms in group fixed
960 atoms in group CO
Setting atom values ...
  720 settings made for charge
Setting atom values ...
  720 settings made for charge
Setting atom values ...
  1920 settings made for charge
Setting atom values ...
  480 settings made for charge
Setting atom values ...
  240 settings made for charge
Setting atom values ...
  240 settings made for charge
Setting atom values ...
  240 settings made for charge
Finding 1-2 1-3 1-4 neighbors ...
 Special bond factors lj:   0          0          0.5       
 Special bond factors coul: 0          0          0.5       
  4 = max # of 1-2 neighbors
  8 = max # of 1-3 neighbors
  20 = max # of 1-4 neighbors
  16 = max # of special neighbors
PPPM initialization ...
  G vector (1/distance) = 0.246499
  grid = 16 16 20
  stencil order = 5
  estimated absolute RMS force accuracy = 0.00242397
  estimated relative force accuracy = 7.2997e-06
  using double precision FFTs
  3d grid and FFT values/proc = 1053 112
Neighbor list info ...
  4 neighbor list requests
  update every 1 steps, delay 0 steps, check yes
  master list distance cutoff = 12
Setting up run ...
Memory usage per processor = 13.288 Mbytes
Step Temp Density PotEng E_vdwl E_tail E_coul E_long Press Volume Xy Xz Yz E_mol E_bond E_angle E_dihed 14[1] 14[2] 14[3] msd[4] msd2[4] msd3[4] msd4[4] naphthal Cella Cellb Cellc CellAlpha CellBeta CellGamma 27[2] 27[3] 28[1] 28[2] 28[3] 
       0          298    1.2509986    2087.5869   -1173.1339   -211.49952    2070.8667    -2308.979    790.88859    44657.537 -0.067234084   -17.036218 -0.041707817     3498.833    1521.0094     935.4334    889.67826    28.379601    18.846571    14.337846 2.3535127e-29 2.3910021e-29 2.7538641e-29 3.294809e-29          298     41.49527    35.978931    34.423473    90.016431    119.66323    90.107069    18.846182    14.337739    28.379557    18.849013    14.339638 
    1000    295.57867    1.2509986    1988.0459   -1192.9523   -211.49952    2071.9114   -2309.1422    838.01858    44657.537 -0.067234084   -17.036218 -0.041707817     3418.229    1518.9681     911.2937     836.2994    28.382536    18.846041     14.33797 0.00037307935 0.00037283947 0.00033661287 0.00033515822    295.57867     41.49527    35.978931    34.423473    90.016431    119.66323    90.107069    18.845871    14.337535    28.380605    18.848554    14.339259 
    2000    303.75934    1.2509986     2001.843   -1202.2501   -211.49952    2068.5234   -2309.6063   -1441.9864    44657.537 -0.067234084   -17.036218 -0.041707817    3445.1759     1508.436    949.13462    840.46028    28.380383    18.844438    14.337405 0.00034447047 0.00034419623 0.00035166505 0.00035023393    303.75934     41.49527    35.978931    34.423473    90.016431    119.66323    90.107069    18.846085    14.337405    28.379989    18.848668    14.338577 
    3000    297.01555    1.2509986    2090.5158   -1192.8591   -211.49952     2071.714   -2309.3687    309.47391    44657.537 -0.067234084   -17.036218 -0.041707817    3521.0296     1548.622    931.98155     885.6857    28.381317    18.845012     14.33752 0.00035004997 0.00035001682 0.00037188989  0.000370638    297.01555     41.49527    35.978931    34.423473    90.016431    119.66323    90.107069    18.846169    14.337773    28.379531    18.849656    14.338723 
    4000    295.07919    1.2509986    2113.5429   -1172.2059   -211.49952     2069.953   -2309.5982    1149.9366    44657.537 -0.067234084   -17.036218 -0.041707817     3525.394    1556.8448    905.67556    903.13502    28.380769    18.845919    14.337579 0.00035640087 0.00035629974 0.00035677581 0.00035465271    295.07919     41.49527    35.978931    34.423473    90.016431    119.66323    90.107069    18.846319    14.337893    28.380296    18.848411     14.34074 
    5000    291.70175    1.2509986    1993.5488    -1200.027   -211.49952    2071.5417   -2309.2108   -218.82443    44657.537 -0.067234084   -17.036218 -0.041707817    3431.2448    1507.3777      913.856    860.74439    28.378058    18.846094    14.337086 0.00035240837 0.00035221105 0.00036434651 0.00036304234    291.70175     41.49527    35.978931    34.423473    90.016431    119.66323    90.107069    18.846161    14.337852    28.380544    18.848512    14.339358 
    6000    296.88303    1.2509986    2036.0248   -1194.2015   -211.49952    2073.7084   -2309.0595   -478.46804    44657.537 -0.067234084   -17.036218 -0.041707817    3465.5774    1565.8356    908.79035    839.77337    28.379544    18.846445    14.337793 0.00035229454 0.00035209383 0.00036999995 0.00036770442    296.88303     41.49527    35.978931    34.423473    90.016431    119.66323    90.107069    18.846001     14.33806    28.379969    18.847994    14.340681 
    7000    294.58235    1.2509986    2042.3846   -1190.3135   -211.49952    2069.5585   -2309.2163   -344.14152    44657.537 -0.067234084   -17.036218 -0.041707817    3472.3559    1589.2161    901.38261    836.90607    28.381017    18.845105    14.338444 0.00035764404 0.0003571895 0.00035148737 0.00035029896    294.58235     41.49527    35.978931    34.423473    90.016431    119.66323    90.107069    18.845548    14.337959    28.378939    18.848144    14.339867 
    8000    301.29472    1.2509986     2016.482   -1182.3207   -211.49952    2068.9767   -2309.6059    375.38569    44657.537 -0.067234084   -17.036218 -0.041707817    3439.4319    1523.9365    915.76156    850.33015     28.38032    18.845856    14.337182 0.00035817451 0.0003578489 0.00035138614 0.00034978363    301.29472     41.49527    35.978931    34.423473    90.016431    119.66323    90.107069    18.846255     14.33755    28.380723    18.848785    14.339204 
    9000    298.19729    1.2509986    2014.9015   -1196.4375   -211.49952    2070.4993    -2309.456   -369.67266    44657.537 -0.067234084   -17.036218 -0.041707817    3450.2957    1509.2625    915.03655    871.33875    28.380347    18.845292    14.337422 0.00035678658 0.00035670577 0.00034222425 0.00034172931    298.19729     41.49527    35.978931    34.423473    90.016431    119.66323    90.107069    18.846114    14.337498    28.379581    18.848325    14.339784 
   10000    301.03787    1.2509986    1968.5626   -1189.7304   -211.49952    2071.9067    -2309.409   -400.09885    44657.537 -0.067234084   -17.036218 -0.041707817    3395.7953    1480.4227    895.65381     869.2658    28.380425    18.844722    14.337913 0.00035034602 0.00035032525 0.00035691994 0.0003561291    301.03787     41.49527    35.978931    34.423473    90.016431    119.66323    90.107069    18.846139    14.337864     28.38038    18.849022    14.339973 
   11000    296.42524    1.2509986    2086.8472   -1192.8868   -211.49952    2070.4917   -2309.5345    317.01836    44657.537 -0.067234084   -17.036218 -0.041707817    3518.7768    1531.5435     947.8023    886.47049    28.378727    18.845136    14.336574 0.00036287444 0.00036176862 0.00036199029 0.00035964124    296.42524     41.49527    35.978931    34.423473    90.016431    119.66323    90.107069    18.845138    14.337859    28.378797    18.847922      14.3404 
   12000    299.04303    1.2509986    2087.6715   -1176.5189   -211.49952    2070.7021   -2309.5413    839.87541    44657.537 -0.067234084   -17.036218 -0.041707817    3503.0296    1529.9493     935.8179    876.73588    28.379369    18.845728    14.336783 0.00035959119 0.00035933609 0.00035672869 0.00035419814    299.04303     41.49527    35.978931    34.423473    90.016431    119.66323    90.107069    18.846412    14.337309    28.380107    18.847555    14.339318 
   13000    300.15957    1.2509986     2036.952   -1185.5464   -211.49952    2073.5849   -2309.5103    874.25342    44657.537 -0.067234084   -17.036218 -0.041707817    3458.4239    1550.0341    903.61479    859.26999    28.379647    18.845338    14.337403 0.00035384121 0.0003537983 0.00036669664 0.00036593083    300.15957     41.49527    35.978931    34.423473    90.016431    119.66323    90.107069    18.846253    14.337838    28.379392     18.84831    14.339144 
   14000    296.39949    1.2509986    2108.2195     -1192.32   -211.49952    2071.2205   -2309.1424   -553.62091    44657.537 -0.067234084   -17.036218 -0.041707817    3538.4614    1580.9539    953.56817    858.52098    28.382159    18.845009    14.338247 0.00034778554 0.00034764301 0.00036335796 0.00036293447    296.39949     41.49527    35.978931    34.423473    90.016431    119.66323    90.107069    18.846477    14.337541    28.379069    18.848897    14.339223 
   15000    296.20653    1.2509986    2099.4101   -1201.8357   -211.49952    2070.0859   -2309.6446   -868.49175    44657.537 -0.067234084   -17.036218 -0.041707817    3540.8045    1589.2586    927.86199    872.16483    28.380588    18.845619     14.33732 0.00035408649 0.0003537775 0.00036136297 0.00036117205    296.20653     41.49527    35.978931    34.423473    90.016431    119.66323    90.107069    18.845864    14.337316    28.379727    18.848629    14.339757 
   16000    298.62847    1.2509986    2086.6783   -1198.8636   -211.49952    2074.0296   -2309.6867   -41.460835    44657.537 -0.067234084   -17.036218 -0.041707817     3521.199    1586.3457    913.74817    861.72468    28.380371    18.844698      14.3377 0.00037031475 0.00037021853 0.00036268231 0.00036191236    298.62847     41.49527    35.978931    34.423473    90.016431    119.66323    90.107069    18.845893    14.337626    28.379449    18.848298    14.340136 
   17000    303.27728    1.2509986    2063.4365   -1182.0674   -211.49952    2070.5351   -2309.5189    -127.2545    44657.537 -0.067234084   -17.036218 -0.041707817    3484.4877    1542.5473    925.05647    866.78893    28.378795    18.845124    14.338216 0.0003592233 0.00035838941 0.00035341825 0.00034887008    303.27728     41.49527    35.978931    34.423473    90.016431    119.66323    90.107069    18.846194    14.338204    28.377798      18.8479    14.340104 
   18000    302.23306    1.2509986    2064.5573   -1192.8235   -211.49952    2071.4275   -2309.6122   -305.74361    44657.537 -0.067234084   -17.036218 -0.041707817    3495.5654    1559.4818    907.75326    874.08618    28.379084    18.845294     14.33683 0.00035653382 0.00035621524 0.00033474738 0.00033257675    302.23306     41.49527    35.978931    34.423473    90.016431    119.66323    90.107069    18.846671    14.338021    28.380434     18.84796    14.339096 
   19000    304.38666    1.2509986    2056.1784   -1179.9189   -211.49952    2075.6535   -2309.0531    1832.4933    44657.537 -0.067234084   -17.036218 -0.041707817    3469.4969    1498.8904    912.55549    896.71811    28.380385    18.845574     14.33721 0.00036405631 0.00036384162 0.00035819048 0.00035497877    304.38666     41.49527    35.978931    34.423473    90.016431    119.66323    90.107069    18.845865    14.337404    28.378414    18.847688    14.339248 
   20000    295.42017    1.2509986    2084.9042   -1191.1907   -211.49952    2076.1396   -2308.7986   -219.95814    44657.537 -0.067234084   -17.036218 -0.041707817    3508.7539    1555.0506    904.50579    894.58653    28.379996    18.844893     14.33649 0.00035654244 0.00035631622 0.00036494911 0.00036447672    295.42017     41.49527    35.978931    34.423473    90.016431    119.66323    90.107069    18.846132    14.337963    28.379369    18.848399    14.339884 
   21000    298.79949    1.2509986    2111.7925   -1208.1641   -211.49952    2070.2741   -2309.7587   -1178.5026    44657.537 -0.067234084   -17.036218 -0.041707817    3559.4412    1547.2359    929.73784    922.88768    28.380444    18.845832     14.33832 0.00036134248 0.0003611175 0.00035058211 0.00034865873    298.79949     41.49527    35.978931    34.423473    90.016431    119.66323    90.107069    18.846427     14.33805    28.379729    18.848257    14.338488 
   22000    296.64272    1.2509986    2030.6268   -1194.3047   -211.49952    2067.6987   -2309.4097    8.5172175    44657.537 -0.067234084   -17.036218 -0.041707817    3466.6425     1551.169    875.61075    884.94516    28.379423    18.845446    14.337467 0.00035965897 0.0003595015 0.00037247446 0.00036877745    296.64272     41.49527    35.978931    34.423473    90.016431    119.66323    90.107069     18.84653    14.337578    28.379471    18.849912    14.337941 
   23000    297.21682    1.2509986    2018.2347   -1196.2386   -211.49952    2072.8412    -2309.279    -158.0098    44657.537 -0.067234084   -17.036218 -0.041707817    3450.9111    1512.9347    921.78147    866.47619    28.378488     18.84539    14.336798 0.00036403943 0.00036402363 0.0003549907 0.00035415613    297.21682     41.49527    35.978931    34.423473    90.016431    119.66323    90.107069    18.846301    14.337755    28.378996    18.849734     14.33964 
   24000    300.00667    1.2509986    2090.9379   -1196.2821   -211.49952     2073.275   -2309.2029    11.763367    44657.537 -0.067234084   -17.036218 -0.041707817    3523.1478    1545.2504    926.69579    893.93879    28.380495    18.844153    14.337812 0.0003515857 0.00035155188 0.00035590951 0.00035566489    300.00667     41.49527    35.978931    34.423473    90.016431    119.66323    90.107069     18.84619    14.337751    28.379251    18.849283    14.339918 
   25000    295.67029    1.2509986    2006.9286   -1200.5236   -211.49952    2071.0937   -2309.4484   -258.70522    44657.537 -0.067234084   -17.036218 -0.041707817    3445.8069    1528.2076    894.34134    870.98288    28.379994    18.844555    14.337615 0.0003626893 0.00036242825 0.00035361503 0.00035229919    295.67029     41.49527    35.978931    34.423473    90.016431    119.66323    90.107069    18.846228    14.338111    28.380288     18.84861    14.340425 
   26000    297.47908    1.2509986     2105.617   -1164.6415   -211.49952     2073.824    -2309.227    1602.0815    44657.537 -0.067234084   -17.036218 -0.041707817    3505.6616    1537.9696    938.11025    881.54571    28.380211    18.845489    14.337898 0.00035697124 0.00035649427 0.00034297535 0.0003389374    297.47908     41.49527    35.978931    34.423473    90.016431    119.66323    90.107069    18.845928    14.338189    28.377943    18.849427    14.340761 
   27000    303.85097    1.2509986    2045.3063   -1176.9509   -211.49952    2070.7919   -2309.3685     104.1218    44657.537 -0.067234084   -17.036218 -0.041707817    3460.8338    1503.9443     948.2311    856.71069    28.380473    18.845516    14.338181 0.00036979682  0.000369367 0.00037724221 0.00037600892    303.85097     41.49527    35.978931    34.423473    90.016431    119.66323    90.107069    18.845552    14.337628    28.379314    18.848786    14.340698 
   28000    294.55754    1.2509986    2037.3602   -1194.8537   -211.49952     2068.885   -2309.4358    583.57246    44657.537 -0.067234084   -17.036218 -0.041707817    3472.7646    1548.6931    929.72376    845.35266    28.380768    18.846086    14.338107 0.00035131511 0.00035046931 0.00036046163 0.00035984226    294.55754     41.49527    35.978931    34.423473    90.016431    119.66323    90.107069    18.846852    14.337959    28.380266    18.849315    14.339794 
   29000    296.39356    1.2509986    2021.6496   -1185.4734   -211.49952     2067.973   -2309.6237   -36.375964    44657.537 -0.067234084   -17.036218 -0.041707817    3448.7737     1523.068    938.05331    842.11209    28.382215    18.845609    14.338033 0.00034915965 0.00034901067 0.00034592019 0.00034313061    296.39356     41.49527    35.978931    34.423473    90.016431    119.66323    90.107069    18.846005    14.337416    28.379111    18.847961     14.33842 
   30000    289.95782    1.2509986    1970.4722   -1198.3366   -211.49952    2070.1436   -2309.3461   -486.07323    44657.537 -0.067234084   -17.036218 -0.041707817    3408.0113    1532.0364     880.9097    846.77387    28.379266    18.845879    14.336585 0.00035836505 0.00035795543 0.00037794545 0.00037724583    289.95782     41.49527    35.978931    34.423473    90.016431    119.66323    90.107069     18.84611    14.337525    28.380049    18.849291    14.340254 
   31000    297.10054    1.2509986    1995.1658   -1185.3006   -211.49952    2070.2795   -2309.3569   -92.151664    44657.537 -0.067234084   -17.036218 -0.041707817    3419.5438    1496.6529    918.66421    854.40615    28.379442    18.845517    14.337032 0.00035405944 0.00035388905 0.00035341059 0.00035214583    297.10054     41.49527    35.978931    34.423473    90.016431    119.66323    90.107069    18.846181    14.337334    28.378555    18.849489    14.339448 
   32000    301.78819    1.2509986    2028.5051    -1202.541   -211.49952    2069.6288   -2309.5504     192.8762    44657.537 -0.067234084   -17.036218 -0.041707817    3470.9677    1540.5917    918.85469    862.76111     28.37771    18.844703    14.337915 0.00035211952 0.00035185607 0.00030984264 0.0003090285    301.78819     41.49527    35.978931    34.423473    90.016431    119.66323    90.107069    18.845698    14.337572    28.379578    18.848715    14.340489 
   33000    300.90614    1.2509986    2030.7443   -1187.0452   -211.49952    2068.8429   -2309.8044   -1091.6676    44657.537 -0.067234084   -17.036218 -0.041707817     3458.751    1509.9779    929.71874    869.28853    28.380032    18.845977    14.338357 0.00035524342 0.00035469636 0.00039115417 0.00038620029    300.90614     41.49527    35.978931    34.423473    90.016431    119.66323    90.107069    18.846662     14.33815    28.378251    18.850138    14.341046 
   34000    294.68639    1.2509986    2065.5569   -1179.8564   -211.49952    2070.5838   -2309.3448    856.84516    44657.537 -0.067234084   -17.036218 -0.041707817    3484.1743    1575.9057    917.40929    844.30216    28.377769    18.846617    14.336842 0.00036447013 0.00036411392 0.00036560751 0.00036432036    294.68639     41.49527    35.978931    34.423473    90.016431    119.66323    90.107069    18.846382    14.337423    28.378756    18.848237    14.339427 
   35000    300.87795    1.2509986    2000.4373   -1178.5994   -211.49952    2070.5231   -2309.3491    132.75871    44657.537 -0.067234084   -17.036218 -0.041707817    3417.8627    1544.7338    900.07484    832.64575    28.380158    18.845577    14.337473  0.000349587 0.00034906469 0.00036756313 0.00036625808    300.87795     41.49527    35.978931    34.423473    90.016431    119.66323    90.107069    18.846077     14.33838    28.378928     18.84845    14.340408 
   36000    295.68687    1.2509986    2084.1526   -1192.7903   -211.49952    2074.7412   -2309.4055    255.58783    44657.537 -0.067234084   -17.036218 -0.041707817    3511.6072    1579.5863     923.7455    861.21028    28.380995     18.84804    14.337568  0.000344068 0.00034333661 0.00033004641 0.00032911238    295.68687     41.49527    35.978931    34.423473    90.016431    119.66323    90.107069    18.847011     14.33753    28.378843    18.849175    14.340269 
   37000     289.1201    1.2509986    2087.7525   -1196.2627   -211.49952    2072.0226   -2309.5529   -526.83287    44657.537 -0.067234084   -17.036218 -0.041707817    3521.5455    1549.4234    943.55829    881.82823    28.383007    18.845424    14.338398 0.00035999066 0.0003597941 0.00035067866 0.00034909607     289.1201     41.49527    35.978931    34.423473    90.016431    119.66323    90.107069    18.846585    14.337741    28.379491    18.850136    14.340201 
   38000    297.71543    1.2509986    2021.4738   -1195.8214   -211.49952    2071.6775   -2309.5257     783.9911    44657.537 -0.067234084   -17.036218 -0.041707817    3455.1434    1577.5511    912.74866    823.45809    28.381733    18.846061    14.337963  0.000366857 0.0003665981 0.00037630102 0.00037561789    297.71543     41.49527    35.978931    34.423473    90.016431    119.66323    90.107069    18.846641     14.33769     28.37877    18.848847    14.339444 
   39000    303.86847    1.2509986    2042.8553   -1197.1355   -211.49952    2072.5455   -2309.4282   -526.20148    44657.537 -0.067234084   -17.036218 -0.041707817    3476.8736    1584.8517    885.54424    858.08768    28.379515     18.84387    14.337619 0.00035923276 0.00035866084 0.00035745061 0.0003569512    303.86847     41.49527    35.978931    34.423473    90.016431    119.66323    90.107069    18.845517    14.337614    28.379505    18.848465    14.340082 
   40000    293.81675    1.2509986    2029.2773   -1199.1449   -211.49952     2074.034   -2309.3943    674.19204    44657.537 -0.067234084   -17.036218 -0.041707817    3463.7825    1532.5256     932.6531    850.93499    28.380295    18.845689    14.337913 0.00035250919 0.00035246478 0.00034935017  0.000347806    293.81675     41.49527    35.978931    34.423473    90.016431    119.66323    90.107069    18.846298    14.337864    28.378651    18.849863    14.339625 
   41000    305.97571    1.2509986    1993.6921   -1211.8847   -211.49952    2075.1643   -2308.9784    107.03205    44657.537 -0.067234084   -17.036218 -0.041707817    3439.3908    1532.6205    890.98435    863.31804    28.380331    18.845239    14.337619 0.00035473073 0.00035390504 0.00035788303 0.0003572059    305.97571     41.49527    35.978931    34.423473    90.016431    119.66323    90.107069    18.845279    14.337835    28.380168    18.848647     14.34005 
   42000    299.56989    1.2509986    1977.0562   -1207.1524   -211.49952    2073.7535   -2309.2584    144.66829    44657.537 -0.067234084   -17.036218 -0.041707817    3419.7134    1552.4446    890.67338     830.4948    28.379126    18.845924    14.337427 0.00034590271 0.00034581591 0.00035953465 0.00035776535    299.56989     41.49527    35.978931    34.423473    90.016431    119.66323    90.107069     18.84619    14.337913    28.379467    18.848272    14.340739 
   43000    301.22617    1.2509986    2039.8636   -1178.6214   -211.49952    2073.8854   -2308.9625    1426.8612    44657.537 -0.067234084   -17.036218 -0.041707817    3453.5622    1499.0098    923.57045    883.33741    28.378902    18.845897    14.336711 0.00035535301 0.00035507202 0.0003727425 0.00037185153    301.22617     41.49527    35.978931    34.423473    90.016431    119.66323    90.107069    18.845817    14.337572    28.379483    18.849227    14.340554 
   44000     298.9678    1.2509986    1997.8781   -1174.2612   -211.49952    2073.8412   -2308.9436    298.26547    44657.537 -0.067234084   -17.036218 -0.041707817    3407.2417    1461.4396    920.23588    872.72232    28.378648    18.846009    14.337033 0.00034853839 0.00034850413 0.00033528536 0.00033494775     298.9678     41.49527    35.978931    34.423473    90.016431    119.66323    90.107069    18.846215     14.33792    28.379995    18.848961    14.340016 
   45000    297.31501    1.2509986    2007.0187   -1201.1884   -211.49952    2075.0541   -2309.1388    323.73529    44657.537 -0.067234084   -17.036218 -0.041707817    3442.2917     1494.479    893.87353    897.15704    28.380649     18.84506     14.33877 0.00035400183 0.00035395823 0.00033587942 0.00033521084    297.31501     41.49527    35.978931    34.423473    90.016431    119.66323    90.107069    18.846243    14.337912    28.379772    18.848301      14.3393 
   46000    298.30288    1.2509986    2022.2675   -1175.4154   -211.49952    2073.7607   -2309.2892    865.21361    44657.537 -0.067234084   -17.036218 -0.041707817    3433.2113    1515.0307    899.11358    867.14488    28.379135    18.846023    14.337375 0.00035306584 0.00035298098 0.00036900891 0.00036837035    298.30288     41.49527    35.978931    34.423473    90.016431    119.66323    90.107069    18.846279    14.337857     28.37959    18.848619    14.340333 
   47000    294.87283    1.2509986    2035.3132    -1195.525   -211.49952     2071.603   -2309.4215   -50.855262    44657.537 -0.067234084   -17.036218 -0.041707817    3468.6566    1544.6774    899.97686    868.57289    28.381418    18.845606    14.337634 0.0003442509 0.00034423553 0.00032933774 0.00032773491    294.87283     41.49527    35.978931    34.423473    90.016431    119.66323    90.107069    18.846185    14.337702    28.380017    18.849385    14.338519 
   48000    297.64953    1.2509986    2056.4264   -1195.8262   -211.49952    2071.4214   -2309.0718   -1198.3035    44657.537 -0.067234084   -17.036218 -0.041707817     3489.903    1543.4818    939.43708    858.55748    28.379707    18.846305    14.338097 0.00035063975 0.00035050451 0.00033908993 0.00033717586    297.64953     41.49527    35.978931    34.423473    90.016431    119.66323    90.107069    18.846435    14.338005    28.378298    18.849585    14.339593 
   49000    298.31032    1.2509986    1997.9737   -1178.9485   -211.49952    2068.5481   -2309.5862    435.67808    44657.537 -0.067234084   -17.036218 -0.041707817    3417.9604    1503.5056    889.97262    870.60154    28.381093    18.846146     14.33774 0.00035648721 0.0003563132 0.00033522698 0.0003330849    298.31032     41.49527    35.978931    34.423473    90.016431    119.66323    90.107069    18.846574    14.337693    28.378858    18.849946    14.338753 
   50000    299.27883    1.2509986    2023.6203   -1194.9907   -211.49952    2074.1873   -2309.3482    231.54488    44657.537 -0.067234084   -17.036218 -0.041707817     3453.772     1559.749    873.60105    872.61256    28.379721    18.845638    14.338042 0.00036323795 0.00036274452 0.00038270861 0.00037938845    299.27883     41.49527    35.978931    34.423473    90.016431    119.66323    90.107069       18.846    14.338386    28.379765    18.847883    14.341052 
   51000    296.17734    1.2509986    2025.2338    -1180.903   -211.49952    2068.5596   -2309.4207    341.42558    44657.537 -0.067234084   -17.036218 -0.041707817    3446.9979    1515.0951    874.73959     899.4671    28.380741    18.846716    14.338264 0.00034921392 0.00034913134 0.00034946841 0.00034935142    296.17734     41.49527    35.978931    34.423473    90.016431    119.66323    90.107069    18.846207    14.337782    28.379654    18.849306    14.339492 
   52000    297.89559    1.2509986    2086.3705   -1202.4028   -211.49952    2075.3523   -2309.0968    32.395953    44657.537 -0.067234084   -17.036218 -0.041707817    3522.5177    1584.5921    924.39418     861.6816    28.379741    18.844978    14.338095 0.00035632206 0.0003561348 0.00034381189 0.00034126596    297.89559     41.49527    35.978931    34.423473    90.016431    119.66323    90.107069    18.845922    14.337893    28.380336    18.847629    14.339484 
   53000    297.40649    1.2509986    2033.7966   -1194.1804   -211.49952     2073.088   -2309.2591   -227.46355    44657.537 -0.067234084   -17.036218 -0.041707817     3464.148    1565.6402    902.01033     847.9871    28.380466    18.846254    14.337549 0.00034379803 0.00034363557 0.00033479147 0.0003325845    297.40649     41.49527    35.978931    34.423473    90.016431    119.66323    90.107069    18.846456    14.337829    28.378875    18.847744    14.339273 
   54000    297.10202    1.2509986    2011.2344   -1192.2836   -211.49952    2074.8865   -2309.2703   -744.46121    44657.537 -0.067234084   -17.036218 -0.041707817    3437.9019    1537.8186     902.6381    851.76688    28.380973    18.845812    14.337683 0.00036739998 0.00036696049 0.0003799151 0.00037965639    297.10202     41.49527    35.978931    34.423473    90.016431    119.66323    90.107069    18.846321    14.337645    28.379997    18.848769    14.339565 
   55000    296.89445    1.2509986    2044.1685   -1178.8027   -211.49952    2072.3511   -2309.3548    827.54316    44657.537 -0.067234084   -17.036218 -0.041707817    3459.9751     1510.098    939.21629    862.26038    28.379405    18.845278    14.337234 0.00034813182 0.00034805085 0.00035671633 0.00035618662    296.89445     41.49527    35.978931    34.423473    90.016431    119.66323    90.107069    18.845971     14.33755    28.379169    18.848504    14.339292 
   56000    304.40856    1.2509986    1993.5673   -1187.7858   -211.49952    2073.8758   -2309.0181   -321.92413    44657.537 -0.067234084   -17.036218 -0.041707817    3416.4954    1511.4228    918.64626    843.46969    28.379053    18.845623    14.337144 0.00037333399 0.00037307484 0.00040201571 0.0004005407    304.40856     41.49527    35.978931    34.423473    90.016431    119.66323    90.107069    18.846614     14.33747    28.379138    18.848056    14.339018 
   57000     295.1795    1.2509986    2022.6747   -1195.6714   -211.49952    2074.0027   -2309.6694    501.71169    44657.537 -0.067234084   -17.036218 -0.041707817    3454.0129    1541.0215    912.55461    853.16288    28.379973    18.844895    14.338154 0.00035915216 0.00035867885 0.00038976148 0.00038911422     295.1795     41.49527    35.978931    34.423473    90.016431    119.66323    90.107069     18.84615    14.338361     28.37918    18.848346    14.339883 
   58000    300.15325    1.2509986    2055.1799      -1194.1   -211.49952    2073.6315   -2309.0597   -788.71867    44657.537 -0.067234084   -17.036218 -0.041707817    3484.7081     1568.529    913.03415     852.8888    28.380851    18.845895    14.337253 0.00035971058 0.00035895755 0.00034141791 0.00033983756    300.15325     41.49527    35.978931    34.423473    90.016431    119.66323    90.107069    18.846596    14.337364    28.378484    18.849596    14.339337 
   59000    300.49738    1.2509986    2078.7953   -1193.3377   -211.49952    2075.0112   -2309.2584   -1017.2506    44657.537 -0.067234084   -17.036218 -0.041707817    3506.3802    1572.3644    907.51455    870.03234    28.376981    18.844804    14.336742 0.00035240317 0.00035146125 0.00035257492 0.00035132955    300.49738     41.49527    35.978931    34.423473    90.016431    119.66323    90.107069    18.846104    14.337827    28.378583    18.849133     14.34017 
   60000     287.6298    1.2509986     2116.408   -1203.3746   -211.49952    2073.4221   -2309.4445   -719.72493    44657.537 -0.067234084   -17.036218 -0.041707817    3555.8051    1583.1033    943.81381     876.1177    28.379248     18.84631    14.337757 0.00036679891 0.00036665582 0.00039747169 0.00039592601     287.6298     41.49527    35.978931    34.423473    90.016431    119.66323    90.107069     18.84593    14.337885    28.379886     18.84793    14.340153 
   61000     296.2523    1.2509986    2042.9816   -1202.4408   -211.49952     2070.286   -2309.1486   -909.05768    44657.537 -0.067234084   -17.036218 -0.041707817     3484.285    1540.3825    927.35902    860.31316     28.37826    18.844469     14.33752 0.00035531873 0.00035527826 0.00038085626 0.00037866333     296.2523     41.49527    35.978931    34.423473    90.016431    119.66323    90.107069    18.846052    14.337848    28.380267    18.849143    14.340931 
   62000     302.2756    1.2509986    2044.0466   -1195.7418   -211.49952     2071.212   -2309.7804    365.40872    44657.537 -0.067234084   -17.036218 -0.041707817    3478.3569    1545.0601     927.9345    859.63773    28.379003    18.846335    14.337081 0.00034934504 0.00034894461 0.00036375707 0.00036108737     302.2756     41.49527    35.978931    34.423473    90.016431    119.66323    90.107069     18.84673    14.337447    28.380456    18.850356    14.339397 
   63000    296.51408    1.2509986    2166.0492   -1189.5049   -211.49952     2071.458   -2309.2704    -63.40506    44657.537 -0.067234084   -17.036218 -0.041707817    3593.3665    1602.9525    935.28731    896.45321     28.38073    18.846098    14.337255 0.00035928904 0.00035873742 0.00031111529 0.00031049538    296.51408     41.49527    35.978931    34.423473    90.016431    119.66323    90.107069    18.846304    14.338426    28.380127    18.848662    14.339224 
   64000    298.94423    1.2509986    2032.9599   -1190.2153   -211.49952    2074.0231   -2309.1802   -100.51994    44657.537 -0.067234084   -17.036218 -0.041707817    3458.3324    1508.6735    892.11259    902.43466    28.380853    18.845461    14.338048 0.00036755377 0.00036754106 0.00037079806 0.00037025431    298.94423     41.49527    35.978931    34.423473    90.016431    119.66323    90.107069    18.846183    14.337842    28.380176    18.848935     14.34003 
   65000    299.76077    1.2509986    2027.5315   -1185.9707   -211.49952    2071.9653   -2309.1815     62.56404    44657.537 -0.067234084   -17.036218 -0.041707817    3450.7185    1487.6547    962.48041    847.93114    28.378256    18.845661    14.337045 0.00036639711 0.00036637787 0.00038986219 0.00038638898    299.76077     41.49527    35.978931    34.423473    90.016431    119.66323    90.107069    18.846209    14.337814    28.379573    18.847351    14.338795 
   66000    295.26121    1.2509986    2058.0126   -1187.3517   -211.49952    2070.5951   -2309.3078    930.13009    44657.537 -0.067234084   -17.036218 -0.041707817     3484.077    1534.6065    924.84928    867.29976    28.379922    18.846415    14.337539 0.0003390075 0.0003389484 0.00032384936 0.00032202727    295.26121     41.49527    35.978931    34.423473    90.016431    119.66323    90.107069    18.846412    14.337698    28.378667    18.848312    14.340373 
   67000    300.35866    1.2509986    2068.3902   -1195.8317   -211.49952    2074.8992   -2309.0933   -633.04073    44657.537 -0.067234084   -17.036218 -0.041707817     3498.416     1556.719    902.70787     885.6835    28.380204    18.846421      14.3384 0.00035920301 0.00035873892 0.00035823249 0.0003566233    300.35866     41.49527    35.978931    34.423473    90.016431    119.66323    90.107069    18.846538    14.338313    28.379817    18.849093    14.340877 
   68000    302.80544    1.2509986     2037.926   -1198.8024   -211.49952    2072.5383    -2309.224   -200.68136    44657.537 -0.067234084   -17.036218 -0.041707817     3473.414    1508.1764    953.07753    861.04213    28.379278    18.846178    14.337172 0.00034018306 0.00033995256 0.00034063204 0.00034013449    302.80544     41.49527    35.978931    34.423473    90.016431    119.66323    90.107069    18.845777    14.337638     28.37896    18.848679    14.339464 
   69000    301.70054    1.2509986    1979.5505   -1209.9325   -211.49952     2072.699   -2309.3666   -1719.8252    44657.537 -0.067234084   -17.036218 -0.041707817    3426.1507    1540.7467     918.4814    825.23565    28.379504    18.845507    14.337447 0.00036055887 0.00036037276 0.00033770547 0.00033736457    301.70054     41.49527    35.978931    34.423473    90.016431    119.66323    90.107069     18.84581    14.337796    28.379355    18.848537    14.339366 
   70000    299.33482    1.2509986    2001.5204   -1188.1331   -211.49952    2071.4718     -2309.69    1362.0089    44657.537 -0.067234084   -17.036218 -0.041707817    3427.8717    1503.7581    890.98882    880.66775      28.3812    18.845448    14.337316 0.00035830251 0.00035793043 0.00034051544 0.00033811924    299.33482     41.49527    35.978931    34.423473    90.016431    119.66323    90.107069    18.845819    14.337282    28.379829    18.847932    14.338563 
   71000    291.10707    1.2509986    2039.8883   -1190.1124   -211.49952    2068.7097   -2309.3891   -680.11682    44657.537 -0.067234084   -17.036218 -0.041707817    3470.6801    1560.7697    907.37963    856.93533    28.379866    18.845399    14.337258 0.00035157459 0.0003511603 0.00034852987 0.00034647263    291.10707     41.49527    35.978931    34.423473    90.016431    119.66323    90.107069    18.845568    14.337929    28.380427    18.848493    14.338623 
   72000    297.60919    1.2509986    2108.0081   -1210.3723   -211.49952    2079.5769   -2309.0448    399.97453    44657.537 -0.067234084   -17.036218 -0.041707817    3547.8483    1600.4813    913.25688    877.11334    28.378258    18.844818     14.33705 0.00036171493 0.00036144275 0.00038313558 0.00037989159    297.60919     41.49527    35.978931    34.423473    90.016431    119.66323    90.107069    18.845865    14.337825     28.37875     18.84844    14.341143 
   73000    290.58378    1.2509986    1980.4392   -1191.6692   -211.49952    2067.0474   -2309.6191   -1035.4238    44657.537 -0.067234084   -17.036218 -0.041707817    3414.6801    1528.9733     858.6143    876.35886    28.381956    18.845902    14.337853 0.00036787157 0.00036773491 0.00035849069   0.00035815    290.58378     41.49527    35.978931    34.423473    90.016431    119.66323    90.107069    18.846399    14.337565    28.379548    18.848473     14.33986 
   74000    295.84345    1.2509986    2027.4073   -1191.2559   -211.49952    2073.1076   -2309.2682    919.98677    44657.537 -0.067234084   -17.036218 -0.041707817    3454.8238    1540.4598    935.72873    830.89075    28.379471    18.846563    14.337515 0.00037303209 0.00037277127 0.00036147302 0.00036077737    295.84345     41.49527    35.978931    34.423473    90.016431    119.66323    90.107069    18.846523    14.337469    28.379459    18.848311    14.339198 
   75000    296.19031    1.2509986    2028.1582   -1169.2905   -211.49952    2074.3436   -2309.2931    1381.4205    44657.537 -0.067234084   -17.036218 -0.041707817    3432.3983    1506.5764    910.51663    868.95058    28.380597    18.845515     14.33834 0.00035996469 0.00035987648 0.0003373194 0.00033620834    296.19031     41.49527    35.978931    34.423473    90.016431    119.66323    90.107069    18.846343    14.337825    28.380145    18.848833    14.338782 
   76000    294.04246    1.2509986    2036.6291   -1196.8116   -211.49952    2075.2751   -2309.1745   -56.413136    44657.537 -0.067234084   -17.036218 -0.041707817    3467.3401    1514.8362    945.08802    857.35942    28.381746    18.846149    14.338336 0.00036602465 0.00036592033 0.00040095827 0.00039987497    294.04246     41.49527    35.978931    34.423473    90.016431    119.66323    90.107069    18.846293    14.338021    28.379521    18.849197    14.340662 
   77000    307.78678    1.2509986    2020.8145   -1199.3285   -211.49952    2070.4892   -2309.6294   -414.14924    44657.537 -0.067234084   -17.036218 -0.041707817    3459.2832    1502.1089    925.83997    883.39931    28.380813    18.846391    14.338326 0.00035543972 0.00035534074 0.00033831714 0.0003373654    307.78678     41.49527    35.978931    34.423473    90.016431    119.66323    90.107069    18.846398    14.337965    28.380122    18.849549    14.340224 
   78000    303.24409    1.2509986    2060.0971   -1175.9099   -211.49952     2069.302   -2309.1737    1443.6524    44657.537 -0.067234084   -17.036218 -0.041707817    3475.8787    1502.3403    918.18433    896.88969    28.378109    18.845126     14.33687 0.00035345574 0.00035332553 0.00031171012 0.00031135526    303.24409     41.49527    35.978931    34.423473    90.016431    119.66323    90.107069    18.846506    14.337896    28.379172    18.849177    14.339214 
   79000    303.00632    1.2509986    2033.0058   -1169.2652   -211.49952    2071.7952   -2309.1332    1504.3289    44657.537 -0.067234084   -17.036218 -0.041707817     3439.609    1491.3896    939.28819    858.49931    28.376786    18.843795    14.336717 0.00035823461 0.00035820602 0.00035989937 0.0003586749    303.00632     41.49527    35.978931    34.423473    90.016431    119.66323    90.107069    18.846052    14.337742    28.378501    18.848912    14.339321 
   80000    294.56238    1.2509986    2119.8951   -1193.8553   -211.49952    2071.3964   -2309.6585   -916.92001    44657.537 -0.067234084   -17.036218 -0.041707817    3552.0125    1572.2699    935.00243    885.68826    28.380342    18.846577    14.336749 0.00038231188 0.00038207149 0.00039994779 0.0003985614    294.56238     41.49527    35.978931    34.423473    90.016431    119.66323    90.107069    18.846258    14.337255     28.38063    18.848863    14.339177 
   81000    300.14562    1.2509986    2008.6453   -1183.3762   -211.49952      2070.25    -2309.215   -268.72429    44657.537 -0.067234084   -17.036218 -0.041707817    3430.9866    1493.1023    910.15817    878.66725    28.381337    18.846507    14.337677 0.00036292319 0.00036268185 0.00033182394 0.00032957159    300.14562     41.49527    35.978931    34.423473    90.016431    119.66323    90.107069    18.845914    14.337328     28.37912     18.84804    14.338582 
   82000    301.20703    1.2509986    2061.4956   -1187.0504   -211.49952    2071.0228   -2309.4927   -69.291266    44657.537 -0.067234084   -17.036218 -0.041707817    3487.0159    1542.8206    918.62925    875.11468    28.379856    18.845151    14.337077 0.0003447379 0.0003442464 0.00034006055 0.00033889164    301.20703     41.49527    35.978931    34.423473    90.016431    119.66323    90.107069    18.846869    14.337613    28.379481    18.848893    14.338566 
   83000    302.53736    1.2509986    2062.3884   -1196.3014   -211.49952    2072.1049   -2309.5758    256.49556    44657.537 -0.067234084   -17.036218 -0.041707817    3496.1607    1552.7271    925.55594    864.38189    28.380546     18.84642    14.338168 0.00035046074 0.00035030798 0.00035845247 0.00035734541    302.53736     41.49527    35.978931    34.423473    90.016431    119.66323    90.107069    18.846022    14.337545    28.378981     18.84938    14.340439 
   84000    296.07603    1.2509986    2061.6763   -1198.7063   -211.49952     2072.189   -2309.3708   -455.69582    44657.537 -0.067234084   -17.036218 -0.041707817    3497.5644    1516.6096    958.24818    875.47367    28.378207     18.84558    14.336611 0.00035212889 0.00035198687 0.0003556671 0.00035378332    296.07603     41.49527    35.978931    34.423473    90.016431    119.66323    90.107069    18.846382    14.337447    28.378892    18.849355    14.338487 
   85000    300.34455    1.2509986    2018.2224   -1188.1152   -211.49952    2071.5412   -2309.3763    1576.6414    44657.537 -0.067234084   -17.036218 -0.041707817    3444.1727    1524.6772    871.85055     894.0964    28.380421    18.843687    14.338008 0.00034615857 0.00034607605 0.0003437118 0.00034360556    300.34455     41.49527    35.978931    34.423473    90.016431    119.66323    90.107069    18.846355     14.33796    28.379613    18.849145     14.33993 
   86000    300.78632    1.2509986    2123.8709   -1177.8337   -211.49952     2071.278    -2309.487      955.973    44657.537 -0.067234084   -17.036218 -0.041707817    3539.9136    1566.1524    912.05677    900.56463     28.38177    18.844218    14.337624 0.00035937484 0.00035880854 0.00036232542 0.00036136708    300.78632     41.49527    35.978931    34.423473    90.016431    119.66323    90.107069    18.845436    14.337819    28.379542    18.848284    14.340292 
   87000    302.64661    1.2509986    2047.9091   -1201.8731   -211.49952    2074.1648    -2309.344   -2.8409437    44657.537 -0.067234084   -17.036218 -0.041707817    3484.9614    1529.0161    894.91885    901.25967    28.381254    18.844982    14.337843 0.00035576118 0.00035558964 0.00034656028 0.00034494151    302.64661     41.49527    35.978931    34.423473    90.016431    119.66323    90.107069    18.845868    14.337777    28.380462    18.848121    14.339575 
   88000    297.73489    1.2509986     2068.859   -1160.7338   -211.49952    2073.7959   -2309.0662    2087.6589    44657.537 -0.067234084   -17.036218 -0.041707817     3464.863    1499.3678    937.58064    878.75505    28.380373    18.845598    14.337916 0.00033695127 0.0003368583 0.00031583351  0.000315484    297.73489     41.49527    35.978931    34.423473    90.016431    119.66323    90.107069    18.845958    14.337809     28.37987    18.848749    14.340064 
   89000    302.13062    1.2509986    2035.3105   -1190.4015   -211.49952    2071.3657   -2309.5941    1203.6585    44657.537 -0.067234084   -17.036218 -0.041707817    3463.9404    1500.3518    941.81399    868.72697    28.378802    18.845778    14.338352 0.00034765618 0.0003471524 0.00033958772 0.00033845342    302.13062     41.49527    35.978931    34.423473    90.016431    119.66323    90.107069    18.846441    14.338387    28.379695    18.849168    14.340683 
   90000    296.82313    1.2509986    2037.9137   -1180.7251   -211.49952    2073.5195   -2309.0706    702.76842    44657.537 -0.067234084   -17.036218 -0.041707817    3454.1899    1538.8326    902.76784    863.12576    28.380157    18.845247    14.337311 0.00034016274 0.00033944017 0.0003217113 0.00031810609    296.82313     41.49527    35.978931    34.423473    90.016431    119.66323    90.107069    18.846645    14.337037    28.378795    18.849418    14.337947 
   91000    295.00212    1.2509986    2043.0985    -1203.518   -211.49952    2073.6425   -2308.8624   -429.17648    44657.537 -0.067234084   -17.036218 -0.041707817    3481.8364    1556.2463    909.24111    864.47773    28.379572    18.845406    14.337261 0.00034631056 0.00034600591 0.00031297821 0.00031183168    295.00212     41.49527    35.978931    34.423473    90.016431    119.66323    90.107069    18.845816    14.337326    28.379922    18.848095    14.339224 
   92000    293.95881    1.2509986    2061.9035   -1193.9201   -211.49952    2070.5598   -2309.4836   -1135.5248    44657.537 -0.067234084   -17.036218 -0.041707817    3494.7474       1556.9    902.78167    884.13895    28.379268    18.845635    14.338503 0.00036309333 0.00036293072 0.00033482621 0.0003337371    293.95881     41.49527    35.978931    34.423473    90.016431    119.66323    90.107069    18.846071     14.33802    28.379032    18.849634    14.340293 
   93000     297.2983    1.2509986     2077.601   -1173.7727   -211.49952    2072.0758   -2309.3038      1439.73    44657.537 -0.067234084   -17.036218 -0.041707817    3488.6018    1555.7274     920.3084    865.20717    28.379485      18.8451    14.337585 0.00035866827 0.00035860106 0.00034381687 0.00034341552     297.2983     41.49527    35.978931    34.423473    90.016431    119.66323    90.107069    18.845947    14.337802    28.379022    18.848982    14.339976 
   94000    299.50319    1.2509986    2034.5973   -1201.8916   -211.49952    2071.5737   -2309.5361   -553.95403    44657.537 -0.067234084   -17.036218 -0.041707817    3474.4513    1551.8304    924.76366    851.33956    28.379552     18.84535    14.336856 0.00037608661 0.00037588992 0.00037199799 0.0003709864    299.50319     41.49527    35.978931    34.423473    90.016431    119.66323    90.107069     18.84606    14.337321    28.379855    18.848383    14.338913 
   95000    293.24719    1.2509986    2119.4317    -1185.279   -211.49952    2075.3366   -2309.0722   -477.51266    44657.537 -0.067234084   -17.036218 -0.041707817    3538.4464    1566.8574    936.40356     882.9455    28.380421    18.845345    14.338219 0.00036837283 0.00036791353 0.00037435244 0.00036788437    293.24719     41.49527    35.978931    34.423473    90.016431    119.66323    90.107069    18.846372    14.338374    28.379052    18.848251    14.342011 
   96000    301.81201    1.2509986     2107.156    -1177.212   -211.49952    2072.7779   -2309.3531    1432.8013    44657.537 -0.067234084   -17.036218 -0.041707817    3520.9432    1549.5883    922.90197    894.66771    28.380406    18.846749    14.337959 0.00036424458 0.00036419074 0.00036022509 0.00035945341    301.81201     41.49527    35.978931    34.423473    90.016431    119.66323    90.107069    18.846275     14.33783    28.378852    18.849314    14.340067 
   97000    291.75974    1.2509986    2050.3981   -1188.2737   -211.49952    2074.0746   -2308.9169    683.47875    44657.537 -0.067234084   -17.036218 -0.041707817    3473.5142    1521.8996    914.90948    882.60818    28.379619    18.844608    14.337623 0.0003561727 0.00035600005 0.00035640009 0.00035491435    291.75974     41.49527    35.978931    34.423473    90.016431    119.66323    90.107069    18.846407    14.338074    28.379646    18.848457    14.338557 
   98000    297.21575    1.2509986    2047.1542   -1175.6212   -211.49952    2073.5802   -2309.4376    1056.4225    44657.537 -0.067234084   -17.036218 -0.041707817    3458.6329    1491.5852    914.92598      895.934    28.380527    18.843972    14.337176 0.00036011089 0.00035990587 0.00035663455 0.00035660358    297.21575     41.49527    35.978931    34.423473    90.016431    119.66323    90.107069    18.845851    14.337433    28.379711    18.848949    14.339693 
   99000    296.75067    1.2509986    2090.8264   -1187.0978   -211.49952    2072.1042   -2309.0605   -659.96833    44657.537 -0.067234084   -17.036218 -0.041707817    3514.8806     1563.928    901.85845    895.16666    28.380144    18.846174     14.33688 0.0003516645 0.00035155205 0.00031169919 0.00031065039    296.75067     41.49527    35.978931    34.423473    90.016431    119.66323    90.107069    18.846302    14.337501    28.379438    18.849507    14.340527 
  100000    291.53851    1.2509986    2040.1441   -1189.8721   -211.49952    2072.0307   -2309.4758    517.88162    44657.537 -0.067234084   -17.036218 -0.041707817    3467.4614    1556.7731    879.33699    876.52182      28.3789    18.844273    14.336958 0.0003501488 0.0003499733 0.00033118299 0.00033068831    291.53851     41.49527    35.978931    34.423473    90.016431    119.66323    90.107069    18.846387    14.337505    28.380147    18.849375    14.339516 
  101000    297.32759    1.2509986    2114.9085   -1164.1564   -211.49952    2071.9296   -2309.4016    1345.0244    44657.537 -0.067234084   -17.036218 -0.041707817    3516.5368     1509.739    934.41547    910.77045    28.381173    18.845752    14.337681 0.00036359514 0.0003629868 0.00035792851 0.0003544338    297.32759     41.49527    35.978931    34.423473    90.016431    119.66323    90.107069    18.846372    14.338154     28.38113    18.848903    14.338634 
  102000    295.04076    1.2509986    2078.0703   -1201.5478   -211.49952     2072.588   -2309.2425   -259.78113    44657.537 -0.067234084   -17.036218 -0.041707817    3516.2726    1578.5235     921.5409    868.50199    28.381328    18.845182    14.337636 0.00037552144 0.0003752296 0.00034783245 0.00034689838    295.04076     41.49527    35.978931    34.423473    90.016431    119.66323    90.107069    18.845675    14.337552    28.380306    18.848458    14.339383 
  103000    295.10858    1.2509986    2035.8365   -1197.8702   -211.49952    2070.4205   -2309.5036   -643.02485    44657.537 -0.067234084   -17.036218 -0.041707817    3472.7899    1540.7984    894.24724     884.2626    28.378585    18.845067    14.336611 0.00035698586 0.00035630262 0.00037080935 0.00036985541    295.10858     41.49527    35.978931    34.423473    90.016431    119.66323    90.107069    18.845432    14.337408    28.378913    18.848592    14.340241 
  104000    294.96052    1.2509986    1998.2443   -1192.5369   -211.49952    2072.6002   -2309.4378    823.75388    44657.537 -0.067234084   -17.036218 -0.041707817    3427.6188    1481.0292    949.28005    847.57145    28.380586    18.845462    14.337546 0.00036152863 0.00036129598 0.00037634683 0.00037617049    294.96052     41.49527    35.978931    34.423473    90.016431    119.66323    90.107069    18.846076    14.337638    28.379754    18.849353    14.339491 
  105000     302.7822    1.2509986    2154.5031    -1197.288   -211.49952    2072.1927   -2309.4605    939.11479    44657.537 -0.067234084   -17.036218 -0.041707817    3589.0588    1574.3922    933.26467    918.15054    28.380784    18.846068    14.337502 0.00036343754 0.00036303741 0.00035919734 0.00035816165     302.7822     41.49527    35.978931    34.423473    90.016431    119.66323    90.107069    18.846588     14.33736    28.380033    18.848121    14.339523 
  106000    299.92995    1.2509986    2062.6934   -1179.1842   -211.49952    2070.1528   -2309.5628   -15.631802    44657.537 -0.067234084   -17.036218 -0.041707817    3481.2877    1549.5222    907.04574    875.12203     28.37857    18.846108    14.337195 0.00035865528 0.00035834346 0.00036136955 0.00036021178    299.92995     41.49527    35.978931    34.423473    90.016431    119.66323    90.107069    18.846452     14.33786    28.378503    18.849158    14.339475 
  107000    297.74197    1.2509986    2008.2947   -1189.6499   -211.49952    2077.8335   -2309.2936    913.37127    44657.537 -0.067234084   -17.036218 -0.041707817    3429.4048    1488.9743    928.72084    860.34745    28.380142    18.845751    14.337391 0.00036217975 0.00036187154 0.00038279218 0.00038100673    297.74197     41.49527    35.978931    34.423473    90.016431    119.66323    90.107069     18.84568    14.337939    28.379134    18.847833    14.340101 
  108000    300.02011    1.2509986    1988.4581   -1195.0859   -211.49952    2075.5361   -2308.8499   -170.98278    44657.537 -0.067234084   -17.036218 -0.041707817    3416.8578     1522.214    882.21981    859.22928    28.377626    18.846236    14.337315 0.00035390668 0.00035315554 0.00033912985 0.00033748645    300.02011     41.49527    35.978931    34.423473    90.016431    119.66323    90.107069    18.846927    14.337458    28.380348    18.849154    14.338639 
  109000    305.36834    1.2509986    1908.2469   -1186.9971   -211.49952    2071.0167   -2309.6065    1341.4366    44657.537 -0.067234084   -17.036218 -0.041707817    3333.8339    1450.7946    886.43579     851.0859    28.378625    18.846519    14.337334 0.00035710946 0.00035707207 0.0003406988 0.00033914649    305.36834     41.49527    35.978931    34.423473    90.016431    119.66323    90.107069    18.846317    14.337607     28.38063    18.848424    14.339869 
  110000    299.02606    1.2509986    1997.6599   -1180.6701   -211.49952    2069.6871   -2309.2736    1060.4603    44657.537 -0.067234084   -17.036218 -0.041707817    3417.9165    1498.8816    916.65951    854.10365    28.379292    18.845905    14.337983 0.00035353849 0.0003529686 0.00035822529 0.00035753526    299.02606     41.49527    35.978931    34.423473    90.016431    119.66323    90.107069    18.846313    14.338094    28.379063    18.849299    14.340242 
  111000    300.49813    1.2509986    1984.0772   -1173.1562   -211.49952    2070.4898   -2309.8275    744.53081    44657.537 -0.067234084   -17.036218 -0.041707817    3396.5711     1473.084    893.11376    881.33001    28.381146    18.846424     14.33682 0.00036573431 0.00036536822 0.00038654223 0.00038488626    300.49813     41.49527    35.978931    34.423473    90.016431    119.66323    90.107069     18.84663    14.337347    28.379262    18.849782    14.338649 
  112000    292.96158    1.2509986    2087.9885   -1204.1549   -211.49952      2068.73   -2309.4484   -1098.6735    44657.537 -0.067234084   -17.036218 -0.041707817    3532.8618    1566.9496    929.69594    885.97427    28.379509    18.845727    14.337753 0.00035067645 0.00035048387 0.00036712798 0.00036565354    292.96158     41.49527    35.978931    34.423473    90.016431    119.66323    90.107069    18.846418    14.338106    28.380168    18.848057     14.34007 
  113000    294.97696    1.2509986    2093.3195   -1197.7231   -211.49952    2073.6783   -2309.2553    -1127.622    44657.537 -0.067234084   -17.036218 -0.041707817    3526.6196    1549.6357    963.33478    862.98028    28.378927    18.846132    14.336974 0.00035218154 0.00035152736 0.00034842381 0.0003479336    294.97696     41.49527    35.978931    34.423473    90.016431    119.66323    90.107069    18.846957    14.337952    28.379793     18.84929     14.33904 
  114000    298.64491    1.2509986    2109.4802     -1191.09   -211.49952    2072.6802    -2309.307    920.80413    44657.537 -0.067234084   -17.036218 -0.041707817     3537.197    1574.8222    929.25472    882.05636     28.38055    18.844785     14.33776 0.00035445901 0.00035444543 0.00037915992 0.00037708454    298.64491     41.49527    35.978931    34.423473    90.016431    119.66323    90.107069    18.846271    14.337686    28.380067    18.849136     14.34098 
  115000    297.81933    1.2509986    2076.1183   -1193.9876   -211.49952    2075.4196   -2309.3724   -184.45475    44657.537 -0.067234084   -17.036218 -0.041707817    3504.0586    1529.8942    926.19833     895.4829    28.380518    18.844584    14.338003 0.00036201398  0.000361773 0.00038200589 0.00038165268    297.81933     41.49527    35.978931    34.423473    90.016431    119.66323    90.107069    18.846102    14.338071    28.379542     18.84904    14.340232 
  116000    297.65392    1.2509986    2014.9705    -1184.019   -211.49952    2070.7111   -2309.4565    232.53569    44657.537 -0.067234084   -17.036218 -0.041707817    3437.7349    1532.7223    901.99046    854.59941    28.378724    18.844384    14.337439 0.00034631136 0.00034622602 0.00032387994 0.0003218373    297.65392     41.49527    35.978931    34.423473    90.016431    119.66323    90.107069    18.846133     14.33793    28.379069    18.849269    14.340957 
  117000    294.00516    1.2509986    2084.6876   -1188.6526   -211.49952     2071.944   -2309.4634    522.61799    44657.537 -0.067234084   -17.036218 -0.041707817    3510.8595    1577.3938    905.47457    880.22665    28.379318    18.844883    14.336874 0.00035962761 0.00035954126 0.00034393686 0.00034252505    294.00516     41.49527    35.978931    34.423473    90.016431    119.66323    90.107069    18.846238    14.337451    28.379695     18.84856    14.338548 
  118000    297.19768    1.2509986    2009.7828   -1191.0976   -211.49952    2069.3589   -2309.7538   -10.087339    44657.537 -0.067234084   -17.036218 -0.041707817    3441.2753     1536.982    890.03558    863.69524    28.380788    18.845942    14.338185 0.00034859875 0.00034797437 0.00035068756 0.00034976732    297.19768     41.49527    35.978931    34.423473    90.016431    119.66323    90.107069    18.846198     14.33844    28.378825    18.849496    14.340028 
  119000    300.00679    1.2509986    2054.9688   -1178.7646   -211.49952    2076.4283   -2308.9966    919.92621    44657.537 -0.067234084   -17.036218 -0.041707817    3466.3018    1514.8662    925.94195    874.50699    28.380433    18.844848     14.33744 0.00034786742 0.00034779739 0.00037481718 0.00037415431    300.00679     41.49527    35.978931    34.423473    90.016431    119.66323    90.107069    18.846187    14.337669    28.379373    18.848369    14.339174 
  120000    297.38241    1.2509986    2036.0792   -1173.0864   -211.49952    2069.2042   -2309.5613    738.59011    44657.537 -0.067234084   -17.036218 -0.041707817    3449.5227    1508.0113    902.98965    883.48305    28.378465    18.845761    14.336986 0.00036401833 0.00036348099 0.00037134437 0.00036697931    297.38241     41.49527    35.978931    34.423473    90.016431    119.66323    90.107069    18.845702    14.338234    28.379682     18.84855    14.341672 
  121000    300.21348    1.2509986    2029.5639   -1184.7041   -211.49952    2073.5274   -2309.1625    723.07109    44657.537 -0.067234084   -17.036218 -0.041707817     3449.903      1501.09    922.86499    876.96495    28.379213    18.844965    14.336147 0.00036459741 0.00036453494 0.00035361761 0.00035340872    300.21348     41.49527    35.978931    34.423473    90.016431    119.66323    90.107069    18.846163    14.337932    28.379152    18.848802    14.339616 
  122000    303.75452    1.2509986     2086.911   -1181.3038   -211.49952    2069.8848   -2309.5816    1416.8716    44657.537 -0.067234084   -17.036218 -0.041707817    3507.9115    1571.2785     912.5001    873.16737    28.380256    18.846756    14.337687 0.00035682187 0.00035654156 0.00037226755 0.00037046016    303.75452     41.49527    35.978931    34.423473    90.016431    119.66323    90.107069    18.846339    14.337249    28.379396    18.848219    14.338565 
  123000    299.88406    1.2509986    2023.6616   -1177.6563   -211.49952    2068.8171   -2309.4508    579.00826    44657.537 -0.067234084   -17.036218 -0.041707817    3441.9517    1549.5945    871.12087    872.28757    28.380801    18.846326    14.337614 0.00035437875 0.00035424282 0.00033758441 0.00033676139    299.88406     41.49527    35.978931    34.423473    90.016431    119.66323    90.107069    18.845972    14.337635      28.3804    18.848775    14.339872 
  124000    297.71644    1.2509986    2039.4999   -1180.1874   -211.49952    2071.4966   -2309.5386    105.87052    44657.537 -0.067234084   -17.036218 -0.041707817    3457.7293    1530.5166    915.84759    863.42093    28.379402    18.846147    14.337874 0.00036976306  0.000369753 0.00036713184 0.00036569468    297.71644     41.49527    35.978931    34.423473    90.016431    119.66323    90.107069    18.846163    14.337747    28.379993    18.848305    14.338775 
  125000    300.21998    1.2509986    2078.1314   -1212.0935   -211.49952     2073.803   -2309.5599    54.262753    44657.537 -0.067234084   -17.036218 -0.041707817    3525.9819    1555.8911    931.02167    882.44293    28.379648    18.845635     14.33743 0.00034869702 0.00034855727 0.00036186228 0.00035806524    300.21998     41.49527    35.978931    34.423473    90.016431    119.66323    90.107069    18.846145    14.338106    28.379831    18.849961    14.341318 
  126000    300.07718    1.2509986     2096.306   -1194.2942   -211.49952    2073.9581   -2309.7027   -67.962957    44657.537 -0.067234084   -17.036218 -0.041707817    3526.3449    1558.9829    921.39695    890.39799    28.379403    18.845892    14.337709 0.00035630372 0.00035623241   0.00034912 0.00034808576    300.07718     41.49527    35.978931    34.423473    90.016431    119.66323    90.107069     18.84635    14.337687    28.380309    18.848789    14.340285 
  127000    309.11471    1.2509986    1980.1246   -1190.1236   -211.49952    2072.2014   -2309.4342   -184.52999    44657.537 -0.067234084   -17.036218 -0.041707817     3407.481    1514.6496    898.00506     845.1038    28.380008    18.845282    14.338074 0.00034820011 0.00034811196 0.00034418778 0.00034267028    309.11471     41.49527    35.978931    34.423473    90.016431    119.66323    90.107069     18.84638    14.337953    28.380745    18.849332    14.339704 
  128000    299.85588    1.2509986    2065.9601   -1202.2829   -211.49952    2072.5305   -2309.3499   -47.238298    44657.537 -0.067234084   -17.036218 -0.041707817    3505.0625    1570.2149    909.11299    870.33933    28.379834    18.845716    14.338049 0.00035442555 0.00035419258 0.00036541086 0.00036333576    299.85588     41.49527    35.978931    34.423473    90.016431    119.66323    90.107069    18.845941    14.338122    28.379727    18.848158    14.340785 
  129000    300.73279    1.2509986    2014.8062   -1180.7536   -211.49952     2069.267   -2309.6305    398.49898    44657.537 -0.067234084   -17.036218 -0.041707817    3435.9233    1539.1003      934.841     817.8098    28.377486       18.845    14.336674 0.00036709497 0.0003668735 0.00038208231 0.00038185708    300.73279     41.49527    35.978931    34.423473    90.016431    119.66323    90.107069    18.845783    14.337825    28.379209    18.848771    14.339851 
  130000    296.38787    1.2509986    2051.2715   -1192.0165   -211.49952    2075.5399   -2309.2179    22.176477    44657.537 -0.067234084   -17.036218 -0.041707817     3476.966    1567.2508    906.42627    854.87118     28.37831    18.845604    14.337251 0.00036303077 0.00036288917 0.00037689167 0.00037589205    296.38787     41.49527    35.978931    34.423473    90.016431    119.66323    90.107069    18.846351    14.338072    28.380499    18.848978    14.339969 
  131000    295.23764    1.2509986    2113.8837   -1180.8567   -211.49952    2072.8512   -2309.2605    914.40735    44657.537 -0.067234084   -17.036218 -0.041707817    3531.1497    1578.4448    947.29323    859.20998    28.380201    18.844836     14.33692 0.0003494106 0.0003490566 0.00037689407 0.00037538804    295.23764     41.49527    35.978931    34.423473    90.016431    119.66323    90.107069    18.845754    14.337608    28.379371    18.847815     14.33983 
  132000    300.61978    1.2509986    1997.0973   -1180.1069   -211.49952    2070.0591   -2309.3205    385.86001    44657.537 -0.067234084   -17.036218 -0.041707817    3416.4657    1495.2763    901.03167    869.50363     28.38156    18.846433    14.338359 0.00036298158 0.00036257205 0.00032476208 0.00032358815    300.61978     41.49527    35.978931    34.423473    90.016431    119.66323    90.107069    18.846334    14.338355    28.379261    18.848994     14.34068 
  133000    300.08983    1.2509986    1906.3128   -1211.4559   -211.49952    2072.2866   -2309.3874   -898.95655    44657.537 -0.067234084   -17.036218 -0.041707817    3354.8695     1499.397    878.80031    831.68226    28.379338    18.845786    14.337072 0.00037045828 0.00036994849 0.00036418032 0.00036279353    300.08983     41.49527    35.978931    34.423473    90.016431    119.66323    90.107069    18.846438    14.337078    28.379041    18.849676    14.338813 
  134000    298.49641    1.2509986    2008.7001   -1193.9312   -211.49952    2074.8681    -2309.282   -311.56467    44657.537 -0.067234084   -17.036218 -0.041707817    3437.0452    1517.3242    900.49435    866.26315    28.379082    18.846116    14.337392 0.00035367165 0.00035345458 0.00032722098 0.00032541281    298.49641     41.49527    35.978931    34.423473    90.016431    119.66323    90.107069    18.845814    14.337954    28.379124    18.850285    14.339687 
  135000    300.18879    1.2509986    2028.1207   -1205.2021   -211.49952    2073.5539   -2309.1505    204.07213    44657.537 -0.067234084   -17.036218 -0.041707817    3468.9193    1555.2446    915.11976    854.10512    28.379585    18.847601    14.337171 0.0003567277 0.00035649729 0.00035917346 0.00035823412    300.18879     41.49527    35.978931    34.423473    90.016431    119.66323    90.107069    18.846607    14.337515    28.378851    18.848348    14.339633 
  136000    301.93036    1.2509986    1964.6605   -1206.3996   -211.49952    2068.7321   -2309.6263   -1792.9422    44657.537 -0.067234084   -17.036218 -0.041707817    3411.9543    1537.5333    893.41486    831.58645     28.38251    18.846163    14.338685 0.00036056361 0.00036010839  0.000332712 0.00033215031    301.93036     41.49527    35.978931    34.423473    90.016431    119.66323    90.107069      18.8468    14.337978    28.379876    18.849545    14.340058 
  137000    306.10281    1.2509986     2036.799   -1208.2162   -211.49952    2075.2951   -2309.1786    -92.75777    44657.537 -0.067234084   -17.036218 -0.041707817    3478.8987    1553.0361    917.53185    856.09536    28.379039    18.845616    14.337258 0.00034810608 0.0003480452 0.00033731616 0.00033589238    306.10281     41.49527    35.978931    34.423473    90.016431    119.66323    90.107069    18.846428    14.337742    28.379242    18.848581    14.340705 
  138000    301.78113    1.2509986    2070.9866   -1165.4968   -211.49952    2072.1737   -2309.3159    2493.6226    44657.537 -0.067234084   -17.036218 -0.041707817    3473.6256    1540.1226    929.62422    848.86006    28.377235    18.844899    14.336396 0.00035536662 0.00035494975 0.00033658234 0.00033648536    301.78113     41.49527    35.978931    34.423473    90.016431    119.66323    90.107069    18.846234    14.337107    28.379399    18.849266    14.339549 
  139000    303.89707    1.2509986     2045.675   -1194.7328   -211.49952    2071.2546   -2309.7038    145.17368    44657.537 -0.067234084   -17.036218 -0.041707817    3478.8571    1561.4985    905.70345    864.47241    28.380459    18.844356    14.337578 0.00034894166 0.00034858906 0.00030744612 0.00030483879    303.89707     41.49527    35.978931    34.423473    90.016431    119.66323    90.107069    18.845663    14.337969    28.379791     18.84803    14.338379 
  140000    299.94851    1.2509986    2038.5699   -1183.1786   -211.49952    2072.2126   -2309.4277    23.273638    44657.537 -0.067234084   -17.036218 -0.041707817    3458.9636    1510.6685    920.47933    876.92842    28.380379    18.844897    14.337722 0.00037361854 0.00037339396 0.00036522657 0.0003633164    299.94851     41.49527    35.978931    34.423473    90.016431    119.66323    90.107069    18.846163    14.337448    28.379668    18.847744    14.340174 
  141000    297.37586    1.2509986    2015.2396   -1189.3432   -211.49952    2068.1739   -2309.7333    562.62072    44657.537 -0.067234084   -17.036218 -0.041707817    3446.1421    1535.7984    907.64237    850.26455    28.381633    18.845557    14.337591 0.00035115008 0.00035107742 0.00034589778 0.0003449391    297.37586     41.49527    35.978931    34.423473    90.016431    119.66323    90.107069    18.845986    14.337836     28.37997    18.848192    14.339976 
  142000    297.40459    1.2509986    2036.1499   -1192.5396   -211.49952    2070.0099   -2309.5786     121.6877    44657.537 -0.067234084   -17.036218 -0.041707817    3468.2582    1519.2498     920.5748    874.17576    28.379902    18.844391      14.3377 0.00035275597 0.00035269473 0.00033875288 0.00033764575    297.40459     41.49527    35.978931    34.423473    90.016431    119.66323    90.107069    18.846326     14.33794    28.380063    18.848302    14.340226 
  143000    293.06167    1.2509986    2077.6034   -1184.0305   -211.49952    2072.2676   -2308.9731    284.41312    44657.537 -0.067234084   -17.036218 -0.041707817    3498.3393    1517.1091    949.98154    878.21238     28.37736    18.844612    14.336415 0.00036459257 0.0003642976 0.00034527279 0.00034313948    293.06167     41.49527    35.978931    34.423473    90.016431    119.66323    90.107069    18.845867     14.33739     28.37941    18.847592    14.339944 
  144000    291.33339    1.2509986    2044.5558   -1176.9829   -211.49952    2071.9205   -2309.4256    1936.1521    44657.537 -0.067234084   -17.036218 -0.041707817    3459.0438    1487.1276    918.75684    898.47718     28.37952    18.844884    14.338114 0.00035886211 0.00035856965 0.00037252663 0.00037203926    291.33339     41.49527    35.978931    34.423473    90.016431    119.66323    90.107069    18.845969    14.338042    28.379356    18.849331    14.340226 
  145000    292.43387    1.2509986    1992.9679   -1184.7974   -211.49952    2072.3235   -2309.5462    781.67163    44657.537 -0.067234084   -17.036218 -0.041707817     3414.988    1554.2795    886.63241    828.99806     28.37869    18.845777    14.337344 0.00035182342 0.00035167112 0.0003514055 0.00035009357    292.43387     41.49527    35.978931    34.423473    90.016431    119.66323    90.107069    18.846333    14.337434    28.379733    18.849733    14.338765 
  146000    294.68423    1.2509986    1995.8167   -1184.3865   -211.49952    2071.6633   -2309.6876   -520.96782    44657.537 -0.067234084   -17.036218 -0.041707817    3418.2274    1528.9874    894.04067    848.81965    28.379877    18.845817    14.338179 0.00036015447 0.00035902296 0.00036223133 0.00036070361    294.68423     41.49527    35.978931    34.423473    90.016431    119.66323    90.107069    18.846484    14.338697    28.379436    18.849746    14.340626 
  147000      298.233    1.2509986    2043.7694   -1185.7693   -211.49952    2071.6642     -2309.33    284.88121    44657.537 -0.067234084   -17.036218 -0.041707817    3467.2045     1532.196    925.30573    857.13761    28.379602     18.84741    14.337627 0.00035659276 0.00035622843 0.0003467781 0.00034670672      298.233     41.49527    35.978931    34.423473    90.016431    119.66323    90.107069     18.84671    14.337801    28.379407     18.84923    14.339681 
  148000    295.26368    1.2509986    2019.6966   -1176.2115   -211.49952    2071.4271   -2309.5056    812.70811    44657.537 -0.067234084   -17.036218 -0.041707817    3433.9865    1499.6103    905.82501    874.69991    28.378661     18.84497    14.336621 0.00035889057 0.00035883721 0.00033504917 0.00033435185    295.26368     41.49527    35.978931    34.423473    90.016431    119.66323    90.107069     18.84632    14.337561    28.380245    18.848948    14.340107 
  149000    300.74331    1.2509986    2095.5656   -1192.4711   -211.49952    2071.8527   -2309.4949   -230.72093    44657.537 -0.067234084   -17.036218 -0.041707817    3525.6789    1546.7328    937.97104    889.76586    28.380289    18.844855    14.337467 0.00036110291 0.00036058989 0.00035389737 0.00035365965    300.74331     41.49527    35.978931    34.423473    90.016431    119.66323    90.107069    18.845887    14.337782    28.379468    18.849479     14.33975 
  150000    293.58863    1.2509986    2085.4852    -1188.436   -211.49952     2072.794   -2309.3435   -33.340252    44657.537 -0.067234084   -17.036218 -0.041707817    3510.4706    1562.2071    911.45467    882.29919    28.380491    18.845915    14.337039 0.00036059665 0.00036053702 0.00036724932 0.00036690728    293.58863     41.49527    35.978931    34.423473    90.016431    119.66323    90.107069    18.846286     14.33761    28.380117    18.849178    14.339649 
  151000    293.46124    1.2509986    2038.5489   -1199.5462   -211.49952     2076.149   -2309.1641   -98.167302    44657.537 -0.067234084   -17.036218 -0.041707817    3471.1102    1547.4827    926.18572    849.08526    28.382312    18.845724    14.337918 0.00034603417 0.00034560416 0.00038638381 0.00038445982    293.46124     41.49527    35.978931    34.423473    90.016431    119.66323    90.107069    18.845881    14.337725     28.38033    18.848124    14.338906 
  152000    301.13577    1.2509986    2058.8389   -1172.5159   -211.49952    2070.3508   -2309.7773    920.20156    44657.537 -0.067234084   -17.036218 -0.041707817    3470.7813    1509.0307    899.20627    901.38078    28.380963     18.84601    14.338643 0.00036214261 0.00036207833 0.0003593085 0.0003591213    301.13577     41.49527    35.978931    34.423473    90.016431    119.66323    90.107069    18.845946     14.33779    28.379779    18.849001    14.339267 
  153000    296.52502    1.2509986    2049.8139   -1168.4397   -211.49952    2075.9811    -2309.172    1123.6267    44657.537 -0.067234084   -17.036218 -0.041707817    3451.4445    1502.4795     927.6805    868.56358    28.381254    18.845056      14.3384 0.00034928891 0.00034892391 0.00038857317 0.0003870999    296.52502     41.49527    35.978931    34.423473    90.016431    119.66323    90.107069    18.845878    14.337773    28.378393    18.849256    14.339393 
  154000    294.99996    1.2509986    2095.1433   -1187.1044   -211.49952    2072.9526   -2309.1335     181.5074    44657.537 -0.067234084   -17.036218 -0.041707817    3518.4286    1536.7561    912.28438    910.00548    28.379083    18.844629    14.337142 0.00034565576 0.00034518954 0.00033715676 0.00033518021    294.99996     41.49527    35.978931    34.423473    90.016431    119.66323    90.107069    18.845876    14.338346    28.380185    18.848037    14.340432 
  155000    296.74612    1.2509986    2054.6228    -1182.217   -211.49952     2072.819   -2309.4587   -127.47761    44657.537 -0.067234084   -17.036218 -0.041707817    3473.4796     1560.905    909.34954     856.7501    28.378875    18.844992    14.337122 0.00035813884 0.00035801883 0.00036587301 0.0003638979    296.74612     41.49527    35.978931    34.423473    90.016431    119.66323    90.107069    18.845863    14.337798    28.379554    18.847822    14.338891 
  156000    298.64424    1.2509986    2033.5406   -1203.2326   -211.49952    2069.7505   -2309.5467   -1090.1014    44657.537 -0.067234084   -17.036218 -0.041707817    3476.5694    1541.9987    904.28797    877.15921    28.379967    18.844425    14.337859 0.00035946656 0.00035851961 0.00032130245 0.00032084097    298.64424     41.49527    35.978931    34.423473    90.016431    119.66323    90.107069    18.845396    14.338304    28.379425    18.848358    14.339762 
  157000    289.77983    1.2509986    2071.6315   -1191.5974   -211.49952    2077.4267   -2309.0474   -453.10669    44657.537 -0.067234084   -17.036218 -0.041707817    3494.8496    1534.4721    927.66597    881.40285    28.381309    18.845989    14.338639 0.00035193296 0.00035151435 0.00034763962 0.0003475546    289.77983     41.49527    35.978931    34.423473    90.016431    119.66323    90.107069    18.846541    14.338087    28.379293    18.849117    14.339708 
  158000    296.56125    1.2509986    2090.3474   -1181.0519   -211.49952    2070.8655   -2309.5539    71.439121    44657.537 -0.067234084   -17.036218 -0.041707817    3510.0878    1515.0657     961.7008    876.44133    28.380151    18.846542     14.33733 0.00034720632 0.00034705273 0.00035217286 0.00034898496    296.56125     41.49527    35.978931    34.423473    90.016431    119.66323    90.107069    18.846514     14.33791    28.378966    18.849466    14.341261 
  159000    299.26172    1.2509986    1989.2474   -1190.1053   -211.49952    2071.1159   -2309.5584   -296.34729    44657.537 -0.067234084   -17.036218 -0.041707817    3417.7952    1564.1555    854.88393    852.08809    28.378722    18.844801    14.337687 0.00037263991 0.00037234986 0.00039524598 0.00039404327    299.26172     41.49527    35.978931    34.423473    90.016431    119.66323    90.107069    18.845768    14.338065    28.378824    18.848653    14.340371 
  160000    293.70876    1.2509986    1935.6637   -1195.0869   -211.49952    2072.2697   -2309.5105    894.50773    44657.537 -0.067234084   -17.036218 -0.041707817    3367.9915     1496.826    879.57259    843.87672     28.38012    18.844485     14.33718 0.00034507515 0.00034490348 0.00033955278 0.00033802351    293.70876     41.49527    35.978931    34.423473    90.016431    119.66323    90.107069    18.845896    14.337827    28.380616    18.848695    14.340191 
  161000    301.85141    1.2509986    2169.9417   -1167.9407   -211.49952    2071.3106    -2309.188   -227.10792    44657.537 -0.067234084   -17.036218 -0.041707817    3575.7598    1613.9285     945.3278     864.3973    28.379474    18.844221    14.337978 0.00035925378 0.00035908587 0.00035914482 0.00035877974    301.85141     41.49527    35.978931    34.423473    90.016431    119.66323    90.107069    18.845776    14.337708    28.379854    18.848799    14.340119 
  162000    299.82164    1.2509986    2019.8452   -1200.4305   -211.49952    2072.5868   -2309.0872    1183.3088    44657.537 -0.067234084   -17.036218 -0.041707817    3456.7761    1529.8324    922.69729    856.16872    28.379825    18.846769    14.337473 0.00036088213 0.0003606351 0.00037310635 0.00037040631    299.82164     41.49527    35.978931    34.423473    90.016431    119.66323    90.107069     18.84606    14.337717    28.378373    18.848148     14.34038 
  163000    298.78065    1.2509986    2011.3965   -1186.7813   -211.49952    2070.0589   -2309.7243    1356.2373    44657.537 -0.067234084   -17.036218 -0.041707817    3437.8432    1502.8027    902.87301    880.80452     28.38102     18.84715    14.336995 0.00035186042 0.00035157061 0.00039229765 0.0003908075    298.78065     41.49527    35.978931    34.423473    90.016431    119.66323    90.107069    18.846193    14.337668    28.379164      18.8495    14.340686 
  164000    303.04701    1.2509986    2018.1223   -1183.5791   -211.49952    2070.5702   -2309.6798    294.42703    44657.537 -0.067234084   -17.036218 -0.041707817    3440.8111    1527.2848    925.11492    838.51777    28.380483    18.845483    14.338547 0.00034929084 0.00034893937 0.00035696226 0.00035665071    303.04701     41.49527    35.978931    34.423473    90.016431    119.66323    90.107069    18.846407      14.3382     28.37951    18.849496    14.339362 
[...]
  961000    292.04476    1.2509986    1998.4075   -1175.0537   -211.49952    2072.8704   -2309.2542    73.732792    44657.537 -0.067234084   -17.036218 -0.041707817     3409.845    1528.3565    890.63101    842.04411    28.380041    18.844917    14.336914 0.00035480989 0.00035461955 0.00035006471 0.00034951565    292.04476     41.49527    35.978931    34.423473    90.016431    119.66323    90.107069    18.846016    14.337361    28.379543    18.848272    14.339643 
  962000    293.38576    1.2509986    2043.7102   -1186.6465   -211.49952     2070.309   -2309.5094    679.34077    44657.537 -0.067234084   -17.036218 -0.041707817     3469.557    1561.3647    912.62325    849.65837    28.380268    18.845933    14.337735 0.00034713257 0.00034701335 0.0003593321 0.00035797198    293.38576     41.49527    35.978931    34.423473    90.016431    119.66323    90.107069    18.846236    14.337481    28.380653    18.848619    14.339694 
  963000    299.34525    1.2509986    2051.0379   -1191.9593   -211.49952    2071.6469   -2309.1638    -265.8034    44657.537 -0.067234084   -17.036218 -0.041707817    3480.5141    1518.4736    896.47661    903.30792    28.379072    18.844558    14.337212 0.00035324896 0.0003531696 0.00036476501 0.00036367032    299.34525     41.49527    35.978931    34.423473    90.016431    119.66323    90.107069    18.846121    14.337481    28.380154    18.848952    14.338782 
  964000     299.9535    1.2509986    2070.2295   -1185.0307   -211.49952    2072.0829   -2309.1393    772.97166    44657.537 -0.067234084   -17.036218 -0.041707817    3492.3166    1551.7802    901.68019    888.67539    28.379888    18.844854    14.338002 0.00035553901 0.00035528853 0.00037419017 0.00037354219     299.9535     41.49527    35.978931    34.423473    90.016431    119.66323    90.107069    18.846495    14.338091    28.380077    18.848787    14.340209 
  965000     292.2833    1.2509986    2047.1629   -1190.1009   -211.49952    2070.5662   -2309.4934   -395.11865    44657.537 -0.067234084   -17.036218 -0.041707817    3476.1909    1534.9096    916.74724    870.08773    28.379139    18.846075    14.336846 0.00035099688 0.00035057731 0.00032667332 0.00032518087     292.2833     41.49527    35.978931    34.423473    90.016431    119.66323    90.107069    18.845736    14.337289    28.380215    18.848632    14.340594 
  966000    294.68128    1.2509986    2045.2902   -1205.6514   -211.49952     2076.091   -2309.0754    -589.4886    44657.537 -0.067234084   -17.036218 -0.041707817    3483.9259     1546.706    910.74543    876.76967    28.378692    18.846538      14.3376 0.00035008967 0.00034999638 0.00033866298 0.00033825009    294.68128     41.49527    35.978931    34.423473    90.016431    119.66323    90.107069    18.846418     14.33772    28.379903     18.84946    14.339943 
  967000    296.53509    1.2509986    2037.3168    -1196.565   -211.49952    2068.3205   -2309.6173   -164.68441    44657.537 -0.067234084   -17.036218 -0.041707817    3475.1786    1501.3535    931.60476    889.18847    28.379387    18.846465    14.337132 0.00035678864 0.00035653396 0.00033506367 0.0003335232    296.53509     41.49527    35.978931    34.423473    90.016431    119.66323    90.107069    18.846617    14.337976    28.379602    18.848877    14.340871 
  968000    300.75999    1.2509986    2093.8846   -1194.2961   -211.49952    2072.3297    -2309.255   -129.65931    44657.537 -0.067234084   -17.036218 -0.041707817    3525.1059    1563.1486    932.98565    879.65801     28.37742    18.845009    14.338094 0.00037276893 0.00037261654 0.00036972295 0.00036920801    300.75999     41.49527    35.978931    34.423473    90.016431    119.66323    90.107069    18.846004    14.337991    28.379557     18.84894    14.338924 
  969000    293.00584    1.2509986    2047.4469   -1189.9932   -211.49952    2068.6841   -2309.5483    227.08981    44657.537 -0.067234084   -17.036218 -0.041707817    3478.3042    1545.6022    904.90661     874.2606    28.380059    18.844559    14.337737 0.0003517973 0.00035093449 0.00032990879 0.00032791401    293.00584     41.49527    35.978931    34.423473    90.016431    119.66323    90.107069    18.846087     14.33863    28.379935    18.848757    14.340975 
  970000    294.22383    1.2509986    2054.6268    -1198.711   -211.49952    2066.1094   -2309.7561   -2316.7095    44657.537 -0.067234084   -17.036218 -0.041707817    3496.9845    1549.1888    925.26618    875.00429    28.379854    18.846005    14.337061 0.00035656145 0.00035645527 0.00034596287 0.00034371413    294.22383     41.49527    35.978931    34.423473    90.016431    119.66323    90.107069    18.846292    14.337525    28.380782    18.848816    14.340479 
  971000    296.83798    1.2509986    2075.2995   -1176.4168   -211.49952     2069.699    -2309.315    194.89789    44657.537 -0.067234084   -17.036218 -0.041707817    3491.3323    1512.1009      912.792     907.3601    28.380441    18.844469    14.337336 0.00035089445 0.00035060322 0.0003765602 0.00037645474    296.83798     41.49527    35.978931    34.423473    90.016431    119.66323    90.107069    18.845959    14.337971      28.3796    18.849116    14.339943 
  972000    295.26845    1.2509986    2074.6852   -1160.7071   -211.49952    2076.3501   -2308.9526    2190.1134    44657.537 -0.067234084   -17.036218 -0.041707817    3467.9948     1509.548    929.30031    872.66122    28.380445    18.846194    14.337895 0.00035780072 0.00035766464 0.00036435766 0.00036309746    295.26845     41.49527    35.978931    34.423473    90.016431    119.66323    90.107069    18.846413    14.337978    28.379739    18.848846    14.340733 
  973000    301.24589    1.2509986    2045.1025   -1214.0721   -211.49952    2069.3304   -2309.6782    120.17033    44657.537 -0.067234084   -17.036218 -0.041707817    3499.5225    1560.6202     924.5903    863.27221    28.380185    18.844829    14.338031 0.00035476541 0.00035473598 0.00032605308 0.00032393556    301.24589     41.49527    35.978931    34.423473    90.016431    119.66323    90.107069    18.846342     14.33768    28.380144    18.847868    14.340318 
  974000    292.69858    1.2509986    2133.0943    -1197.268   -211.49952     2072.779   -2309.0862   -16.292778    44657.537 -0.067234084   -17.036218 -0.041707817    3566.6694    1546.7984    957.59153    902.20817    28.378564    18.845717    14.338345 0.0003559068 0.00035566676 0.00035351367 0.00035292303    292.69858     41.49527    35.978931    34.423473    90.016431    119.66323    90.107069    18.846385     14.33807     28.37934    18.849287    14.340323 
  975000     301.5061    1.2509986     2105.808   -1185.8454   -211.49952    2072.6283   -2309.0337    66.641787    44657.537 -0.067234084   -17.036218 -0.041707817    3528.0588     1582.181    945.78606    850.69028    28.380715    18.845412    14.337603 0.00034469893 0.00034431097 0.00034037874 0.00033907439     301.5061     41.49527    35.978931    34.423473    90.016431    119.66323    90.107069     18.84666    14.337944    28.379152    18.848647    14.340642 
  976000    297.76365    1.2509986    2083.1172   -1182.2265   -211.49952    2074.3743   -2309.4716    814.99361    44657.537 -0.067234084   -17.036218 -0.041707817    3500.4411    1569.9099    910.65524    872.94389    28.380673    18.845465    14.337373 0.0003564772 0.00035602833 0.00036973151 0.00036773798    297.76365     41.49527    35.978931    34.423473    90.016431    119.66323    90.107069    18.846529    14.337531    28.380809    18.848381    14.339481 
  977000    306.41217    1.2509986    2027.9717   -1183.2806   -211.49952    2073.2742   -2308.9986    61.744057    44657.537 -0.067234084   -17.036218 -0.041707817    3446.9767    1557.3257    879.31618    864.44217    28.379711    18.845106    14.336788 0.00036301243 0.00036263649 0.00037003876 0.00037000068    306.41217     41.49527    35.978931    34.423473    90.016431    119.66323    90.107069    18.846223    14.337146    28.379541     18.84911    14.339469 
  978000    296.90227    1.2509986    2014.4277   -1198.6994   -211.49952    2067.6506   -2309.8293   -1052.0624    44657.537 -0.067234084   -17.036218 -0.041707817    3455.3058    1547.3267    881.36171    876.38842     28.37824    18.844336    14.337108 0.00035636542 0.00035612261 0.00035451725 0.00035411195    296.90227     41.49527    35.978931    34.423473    90.016431    119.66323    90.107069    18.846118    14.338108    28.379059    18.848818    14.339984 
  979000    302.01052    1.2509986     2046.483    -1198.001   -211.49952    2070.6186   -2309.5918   -363.07858    44657.537 -0.067234084   -17.036218 -0.041707817    3483.4571    1549.8029     885.8705     891.3103    28.378815    18.845488    14.337417 0.00036263527 0.00036229967 0.00037629033 0.00037514929    302.01052     41.49527    35.978931    34.423473    90.016431    119.66323    90.107069    18.846738    14.337899    28.380157    18.849422    14.340421 
  980000    303.35884    1.2509986    2086.6269   -1183.9662   -211.49952    2073.2633   -2309.6143    653.51146    44657.537 -0.067234084   -17.036218 -0.041707817    3506.9441    1548.7009    944.00191    866.99826    28.380727    18.845502    14.337537 0.00034993271 0.00034976787 0.00036552499 0.00036431198    303.35884     41.49527    35.978931    34.423473    90.016431    119.66323    90.107069    18.846301    14.337425    28.379426    18.848243    14.338861 
  981000    298.83193    1.2509986    2102.2483   -1178.3721   -211.49952    2074.5331   -2309.2963    853.90131    44657.537 -0.067234084   -17.036218 -0.041707817    3515.3836    1524.5875    934.96455    896.78564    28.378682    18.845476    14.338016 0.00035816616 0.00035806015 0.00036877664 0.0003683142    298.83193     41.49527    35.978931    34.423473    90.016431    119.66323    90.107069    18.846043    14.337744    28.379881    18.848415    14.339642 
  982000    299.00324    1.2509986    2050.6346   -1190.1899   -211.49952    2072.7677   -2309.2191    1361.5026    44657.537 -0.067234084   -17.036218 -0.041707817    3477.2758    1537.1871    887.99046    895.42818    28.379387    18.844976    14.337478 0.00036771411 0.0003665832 0.00035003002 0.00034665226    299.00324     41.49527    35.978931    34.423473    90.016431    119.66323    90.107069     18.84522     14.33764    28.377788    18.848523    14.339537 
  983000    293.27998    1.2509986     1996.652   -1199.4675   -211.49952    2076.1893   -2308.9345    211.07052    44657.537 -0.067234084   -17.036218 -0.041707817    3428.8647    1555.2618    878.08424    848.81188    28.380539    18.843414    14.338724 0.00036941359 0.00036911025 0.00035848771 0.0003572312    293.27998     41.49527    35.978931    34.423473    90.016431    119.66323    90.107069    18.846193    14.338288     28.37921    18.849417    14.340625 
  984000    299.63344    1.2509986    2059.8844   -1203.1301   -211.49952    2070.0544   -2309.5285   -1654.7821    44657.537 -0.067234084   -17.036218 -0.041707817    3502.4886    1566.0958    923.20363    864.56641    28.377943    18.845827    14.337006 0.00036374726 0.00036349223 0.00039258379 0.00039222608    299.63344     41.49527    35.978931    34.423473    90.016431    119.66323    90.107069    18.846368    14.337637     28.37921    18.849486    14.339521 
  985000    299.28424    1.2509986    2055.2345   -1184.6015   -211.49952    2072.8903    -2309.358     928.9248    44657.537 -0.067234084   -17.036218 -0.041707817    3476.3037    1506.1542    930.36433     888.8408    28.380857    18.843748    14.337764 0.00034925133 0.00034921156 0.00036496878 0.00036370781    299.28424     41.49527    35.978931    34.423473    90.016431    119.66323    90.107069    18.846358    14.337832    28.380188    18.849738    14.340219 
  986000    298.35674    1.2509986    2032.6579    -1205.437   -211.49952    2073.7997    -2308.935   -477.24899    44657.537 -0.067234084   -17.036218 -0.041707817    3473.2303    1545.9777     898.0299    871.44087    28.379768    18.845133    14.337036 0.00035337038 0.00035332365 0.00034825371 0.00034649405    298.35674     41.49527    35.978931    34.423473    90.016431    119.66323    90.107069    18.846185    14.337916    28.379225     18.84987    14.340595 
  987000    301.55374    1.2509986    2065.3115   -1183.4132   -211.49952    2071.9589   -2309.2394    47.203317    44657.537 -0.067234084   -17.036218 -0.041707817    3486.0053    1536.3428    938.26454    866.37502    28.380607    18.843885     14.33802 0.00036539974 0.00036522214 0.00034792979 0.0003462922    301.55374     41.49527    35.978931    34.423473    90.016431    119.66323    90.107069    18.846309    14.337696     28.37841    18.849065    14.339073 
  988000    303.24177    1.2509986    2010.0387   -1164.5064   -211.49952    2069.7294   -2309.4038    889.38593    44657.537 -0.067234084   -17.036218 -0.041707817    3414.2196    1503.0382    906.98542    857.42762    28.379243    18.844981    14.337461 0.00035135979 0.00035089864 0.00036425513 0.00036311092    303.24177     41.49527    35.978931    34.423473    90.016431    119.66323    90.107069    18.845748    14.337335    28.378649    18.848665    14.339192 
  989000    296.75725    1.2509986    2091.8238   -1195.2332   -211.49952    2067.7745   -2309.9292   -378.57588    44657.537 -0.067234084   -17.036218 -0.041707817    3529.2118    1581.2814    919.22553    874.01851    28.378406    18.846037    14.337508 0.00036140982 0.00036122042 0.00036507472 0.0003648001    296.75725     41.49527    35.978931    34.423473    90.016431    119.66323    90.107069    18.846108    14.337696    28.379627    18.848495    14.339598 
  990000    302.29232    1.2509986    2017.4189   -1191.3716   -211.49952    2071.2784    -2309.435    479.22051    44657.537 -0.067234084   -17.036218 -0.041707817     3446.947    1539.1646    899.02244    857.14485    28.379109    18.845292    14.338005 0.00036451041 0.00036433521 0.00039088608 0.00039010694    302.29232     41.49527    35.978931    34.423473    90.016431    119.66323    90.107069    18.846562    14.337913    28.380247    18.849405    14.340024 
  991000    298.00177    1.2509986    2004.3655   -1204.7019   -211.49952    2069.5596   -2309.3999   -1819.8281    44657.537 -0.067234084   -17.036218 -0.041707817    3448.9077     1524.545    944.67219    833.60593    28.379884     18.84688    14.337573 0.00037098558 0.0003709135 0.00037178362 0.00037137751    298.00177     41.49527    35.978931    34.423473    90.016431    119.66323    90.107069    18.846428    14.337835    28.380168    18.848854     14.33972 
  992000    296.36782    1.2509986    2026.3496   -1181.9441   -211.49952    2071.0542   -2309.4314    260.40443    44657.537 -0.067234084   -17.036218 -0.041707817    3446.6708    1515.1227    933.92802    850.46389    28.378486    18.844508    14.337104 0.00036486746 0.00036468651 0.00034996693 0.00034798606    296.36782     41.49527    35.978931    34.423473    90.016431    119.66323    90.107069    18.846488    14.338034    28.378348     18.84907    14.340356 
  993000    296.87329    1.2509986    2000.2537   -1193.6044   -211.49952    2071.2079   -2309.2892    624.27183    44657.537 -0.067234084   -17.036218 -0.041707817    3431.9395    1507.5249    893.80458    877.20341    28.380406    18.846631    14.337961 0.00035887186 0.00035863147 0.00035789876 0.00035516815    296.87329     41.49527    35.978931    34.423473    90.016431    119.66323    90.107069    18.846404    14.338076    28.381051    18.848973    14.338933 
  994000    298.82684    1.2509986     2049.626   -1195.5096   -211.49952    2070.3633   -2309.4083   -775.14633    44657.537 -0.067234084   -17.036218 -0.041707817    3484.1806    1558.1086    919.75972    862.35319    28.381898    18.846634    14.338544 0.00035719539 0.00035700155 0.00036987118 0.00036943706    298.82684     41.49527    35.978931    34.423473    90.016431    119.66323    90.107069    18.846462    14.337792    28.380131    18.849301    14.339492 
  995000    301.43147    1.2509986    2057.6424     -1191.79   -211.49952      2071.66   -2309.5645    984.27495    44657.537 -0.067234084   -17.036218 -0.041707817    3487.3369    1509.9688    938.43512    890.20136    28.380361    18.846368    14.337542 0.00034900102 0.00034881307 0.00033437496 0.00033384019    301.43147     41.49527    35.978931    34.423473    90.016431    119.66323    90.107069    18.846381    14.337734    28.379261    18.849654    14.339828 
  996000    307.58167    1.2509986    1999.3818   -1201.2099   -211.49952    2072.6701   -2309.4104    432.75888    44657.537 -0.067234084   -17.036218 -0.041707817     3437.332     1519.376    896.24212    870.13222    28.378802    18.845721    14.336697 0.00034418194 0.00034393911 0.0003420557 0.00033939562    307.58167     41.49527    35.978931    34.423473    90.016431    119.66323    90.107069    18.846666    14.337644    28.379396    18.848119    14.340993 
  997000    301.01404    1.2509986    2049.2802   -1185.9129   -211.49952    2071.6672   -2309.3486   -407.33778    44657.537 -0.067234084   -17.036218 -0.041707817    3472.8745    1567.4505    904.90684    852.39251    28.379548    18.844561    14.337707 0.00036565238 0.00036443685 0.00038042598 0.00037984838    301.01404     41.49527    35.978931    34.423473    90.016431    119.66323    90.107069    18.845131    14.337839    28.380108    18.849378    14.339264 
  998000    299.04598    1.2509986    2018.7049   -1182.3356   -211.49952    2069.2837   -2309.3605    624.79854    44657.537 -0.067234084   -17.036218 -0.041707817    3441.1173     1514.101    889.17742    884.21279    28.378532    18.844894    14.336875 0.00035109823 0.00035106063 0.00034394825 0.00034340383    299.04598     41.49527    35.978931    34.423473    90.016431    119.66323    90.107069    18.846207    14.337786    28.380248    18.848931    14.339395 
  999000    298.17632    1.2509986    1995.3591   -1191.8815   -211.49952    2068.8327   -2309.2605     -669.976    44657.537 -0.067234084   -17.036218 -0.041707817    3427.6684    1540.2692    896.39702    844.03667    28.379407    18.845197     14.33674  0.000348037 0.00034778953 0.00034241811 0.00034128575    298.17632     41.49527    35.978931    34.423473    90.016431    119.66323    90.107069    18.845697    14.337648     28.37965    18.848019    14.340005 
 1000000    300.94291    1.2509986    2132.2841   -1190.0762   -211.49952    2073.5428   -2309.0457   -890.56866    44657.537 -0.067234084   -17.036218 -0.041707817    3557.8633    1563.0414    952.68774    886.38918    28.378833    18.845474    14.337428 0.00035521542 0.0003548753 0.00035212904 0.00035097741    300.94291     41.49527    35.978931    34.423473    90.016431    119.66323    90.107069    18.846276    14.338194    28.380127    18.849705    14.340227 
Loop time of 3000.56 on 60 procs for 1000000 steps with 4560 atoms

Pair  time (%) = 543.785 (18.1228)
Bond  time (%) = 58.9382 (1.96424)
Kspce time (%) = 1545.63 (51.5114)
Neigh time (%) = 1.90361 (0.0634418)
Comm  time (%) = 584.384 (19.4758)
Outpt time (%) = 3.09242 (0.103061)
Other time (%) = 262.827 (8.75927)

Nlocal:    76 ave 84 max 67 min
Histogram: 1 1 5 10 10 15 3 7 7 1
Nghost:    3995.75 ave 4080 max 3884 min
Histogram: 3 7 5 3 3 3 10 13 9 4
Neighs:    28102.1 ave 30766 max 24923 min
Histogram: 2 1 6 8 6 15 7 4 7 4

Total # of neighbors = 1686126
Ave neighs/atom = 369.764
Ave special neighs/atom = 10.6316
Neighbor list builds = 878
Dangerous builds = 0
System init for write_data ...
PPPM initialization ...
  G vector (1/distance) = 0.246499
  grid = 16 16 20
  stencil order = 5
  estimated absolute RMS force accuracy = 0.00242397
  estimated relative force accuracy = 7.2997e-06
  using double precision FFTs
  3d grid and FFT values/proc = 1053 112
