LAMMPS data file via write_data, version 15 May 2015, timestep = 18500000

2593 atoms
6 atom types
1728 bonds
4 bond types
864 angles
3 angle types
0 dihedrals
3 dihedral types
0 impropers
1 improper types

-1.4885674324542812e+01 1.4885674324542812e+01 xlo xhi
-1.4885674324542812e+01 1.4885674324542812e+01 ylo yhi
-1.4885674324542812e+01 1.4885674324542812e+01 zlo zhi

Masses

1 15.9994
2 1.00794
3 12.0107
4 1.00794
5 12.0107
6 12.0107

Bond Coeffs # harmonic

1 1000 1
2 469 1.4
3 367 1.08
4 469 0.7

Angle Coeffs # harmonic

1 100 109.47
2 35 120
3 63 120

Dihedral Coeffs # opls

1 0 7.25 0 0
2 0 7.25 0 0
3 0 7.25 0 0

Improper Coeffs # cvff

1 2.5 -1 2

Atoms # full

967 323 1 -8.1999999999999995e-01 -1.0605508445537158e+01 -8.2196817999572964e+00 -1.1784961499110214e+01 2 0 8
969 323 2 4.0999999999999998e-01 -9.8571348473782123e+00 -8.8474528445056144e+00 -1.1570999639341977e+01 2 0 8
1758 586 2 4.0999999999999998e-01 -8.7342390147551487e+00 -5.6832754491930544e+00 -8.8835299743901821e+00 -4 -4 6
622 208 1 -8.1999999999999995e-01 -1.2120452046977471e+01 -7.0463459138289615e+00 -7.6870572708051608e+00 -6 0 4
952 318 1 -8.1999999999999995e-01 -1.3264292089881479e+01 -8.4123394650770287e+00 -1.0326719258234011e+01 -3 -2 -4
624 208 2 4.0999999999999998e-01 -1.2070675535116676e+01 -7.7916031054232002e+00 -8.3519280575283119e+00 -6 0 4
1463 488 2 4.0999999999999998e-01 -1.0750195870858052e+01 -1.0906125072494525e+01 -1.3847863113450407e+01 2 0 1
968 323 2 4.0999999999999998e-01 -1.0232329117724257e+01 -7.3735964814921990e+00 -1.2165508610129699e+01 2 0 8
2588 863 2 4.0999999999999998e-01 -9.7814798948100439e+00 -1.1833338598547146e+01 -1.2128087693178090e+01 1 3 2
1292 431 2 4.0999999999999998e-01 -8.6191359897565754e+00 -1.0030399955131715e+01 -9.6330909488359886e+00 -1 4 1
37 13 1 -8.1999999999999995e-01 -9.5442708960963074e+00 -5.8979755547420289e+00 -1.2333409261507793e+01 -4 4 2
954 318 2 4.0999999999999998e-01 -1.3077166506310132e+01 -8.9756785678614026e+00 -9.5220004242908285e+00 -3 -2 -4
10 4 1 -8.1999999999999995e-01 -7.7702443484480899e+00 -9.4891240138494304e+00 -8.2977687053512987e+00 -2 3 3
953 318 2 4.0999999999999998e-01 -1.2433082896226566e+01 -8.3299197807089911e+00 -1.0876480532392808e+01 -3 -2 -4
1513 505 1 -8.1999999999999995e-01 -8.6956468231425283e+00 -8.2662524888271189e+00 -1.4532599433992047e+01 -6 1 -6
1052 351 2 4.0999999999999998e-01 -1.4185514724220750e+01 -1.1420790902258057e+01 -9.3580464607062126e+00 -1 -3 -3
1515 505 2 4.0999999999999998e-01 -9.5432257081365446e+00 -8.6781756535422900e+00 -1.4198131934974150e+01 -6 1 -6
1291 431 1 -8.1999999999999995e-01 -9.1187447523160010e+00 -1.0261722447530913e+01 -1.0467848549373151e+01 -1 4 1
2050 684 1 -8.1999999999999995e-01 -1.1529660311722353e+01 -9.6657854558987708e+00 -8.6490666452559104e+00 -2 -2 0
1053 351 2 4.0999999999999998e-01 -1.2652681570861429e+01 -1.1385484651053325e+01 -8.7962275885764747e+00 -1 -3 -3
2587 863 1 -8.1999999999999995e-01 -8.9784061727791080e+00 -1.2426337729366042e+01 -1.2186085675860912e+01 1 3 2
1464 488 2 4.0999999999999998e-01 -1.0940582968126964e+01 -9.4414923815482084e+00 -1.3151394873697406e+01 2 0 1
1074 358 2 4.0999999999999998e-01 -1.2318648294931776e+01 -1.3472650419324033e+01 -9.9064535866293539e+00 -2 0 0
2051 684 2 4.0999999999999998e-01 -1.0970291902822723e+01 -9.3978913420027688e+00 -9.4334638288317958e+00 -2 -2 0
1051 351 1 -8.1999999999999995e-01 -1.3325502074067852e+01 -1.1927638256252139e+01 -9.2995379014716022e+00 -1 -3 -3
1462 488 1 -8.1999999999999995e-01 -1.0704686959615264e+01 -9.9185368735486641e+00 -1.3997988493868281e+01 2 0 1
1072 358 1 -8.1999999999999995e-01 -1.1860544270849312e+01 -1.4361249671355935e+01 -9.9281644484886904e+00 -2 0 0
2354 785 2 4.0999999999999998e-01 -1.1419064412524508e+01 -5.3022392293622556e+00 -1.3387458353304492e+01 2 -1 9
2589 863 2 4.0999999999999998e-01 -8.7820138039809557e+00 -1.2810641855814701e+01 -1.1284043789628104e+01 1 3 2
299 100 2 4.0999999999999998e-01 -1.4841506226380655e+01 -8.2259205142868375e+00 -1.0639157125350810e+01 -1 2 0
1293 431 2 4.0999999999999998e-01 -8.5038261423693129e+00 -1.0723188605068296e+01 -1.1107272753031587e+01 -1 4 1
2498 833 2 4.0999999999999998e-01 -1.2948369341814391e+01 -1.2112136613018123e+01 -1.3667810446256553e+01 -4 -2 0
103 35 1 -8.1999999999999995e-01 -8.0706572036844442e+00 -1.3849149359267811e+01 -9.7682431824639515e+00 -3 -1 1
2353 785 1 -8.1999999999999995e-01 -1.2321214590327861e+01 -5.0648372788246796e+00 -1.3747603467947304e+01 2 -1 9
104 35 2 4.0999999999999998e-01 -8.5014561908135846e+00 -1.4518283683708585e+01 -9.1627593511363159e+00 -3 -1 1
2497 833 1 -8.1999999999999995e-01 -1.1968595988436475e+01 -1.2290447706821363e+01 -1.3758300644852431e+01 -4 -2 0
2475 825 2 4.0999999999999998e-01 -8.9433826450371363e+00 -1.2532680066379683e+01 -1.4230100329052165e+01 0 -2 1
2052 684 2 4.0999999999999998e-01 -1.0963991873959667e+01 -9.6768243696246969e+00 -7.8245446127826046e+00 -2 -2 0
442 148 1 -8.1999999999999995e-01 -1.4750840928219649e+01 -1.2146926178036562e+01 -1.3398318303942727e+01 -7 6 -2
1617 539 2 4.0999999999999998e-01 -1.3441864079262814e+01 -6.6200451660523854e+00 -1.4331838480262993e+01 1 0 3
11 4 2 4.0999999999999998e-01 -7.6037921735959175e+00 -8.5619941233605505e+00 -8.6334219017110918e+00 -2 3 3
1756 586 1 -8.1999999999999995e-01 -9.4731567865460402e+00 -5.1344921993480526e+00 -8.4926632330955201e+00 -4 -4 6
2499 833 2 4.0999999999999998e-01 -1.1825193317156337e+01 -1.3251194114913424e+01 -1.3995663960682581e+01 -4 -2 0
39 13 2 4.0999999999999998e-01 -9.6097352899195236e+00 -5.0891395119565477e+00 -1.1749082311190886e+01 -4 4 2
38 13 2 4.0999999999999998e-01 -8.6661070983960045e+00 -5.8934448776800075e+00 -1.2811684280667857e+01 -4 4 2
1615 539 1 -8.1999999999999995e-01 -1.4140409698590609e+01 -7.3133628488681657e+00 -1.4508710666942987e+01 1 0 3
2405 802 2 4.0999999999999998e-01 -1.3673659954767594e+01 -1.3890322616254009e+01 -7.6517958685863885e+00 -5 4 1
623 208 2 4.0999999999999998e-01 -1.1271365803893623e+01 -6.5188122973065603e+00 -7.7135146441031548e+00 -6 0 4
964 322 1 -8.1999999999999995e-01 -7.9675657884039426e+00 -4.9689584910943392e+00 -1.4687052145470975e+01 -1 5 1
2404 802 1 -8.1999999999999995e-01 -1.3911536110096346e+01 -1.4828704952651016e+01 -7.9023804865622012e+00 -5 4 1
1264 422 1 -8.1999999999999995e-01 -5.9404249010552697e+00 -1.3394276977671502e+01 -1.2172323470311024e+01 -9 -3 -1
2563 855 1 -8.1999999999999995e-01 -5.3861387167548536e-01 -1.3600660375704788e+01 -1.4434273242099426e+01 2 2 4
2528 843 2 4.0999999999999998e-01 -1.2871936767152832e+00 -1.3523449030902610e+01 -1.1437086868196513e+01 -1 1 -5
980 327 2 4.0999999999999998e-01 -5.9458884336657007e+00 -9.3315293145458149e+00 -1.1097551961319876e+01 0 2 3
543 181 2 4.0999999999999998e-01 -1.1945095919691138e+00 -8.7279488812042647e+00 -1.4472298124952344e+01 -6 0 4
1430 477 2 4.0999999999999998e-01 -3.5044923845825871e+00 -7.4159150379065837e+00 -1.4708155914863299e+01 -4 0 2
378 126 2 4.0999999999999998e-01 -1.3227683070211409e+00 -1.0750637872778382e+01 -1.1503152784286829e+01 0 -1 3
874 292 1 -8.1999999999999995e-01 -6.2376553970617667e+00 -1.1899409888681642e+01 -8.4074512394520902e+00 -5 1 0
979 327 1 -8.1999999999999995e-01 -6.3601875940983490e+00 -8.4218151380851225e+00 -1.1070801651653078e+01 0 2 3
1542 514 2 4.0999999999999998e-01 -6.9882083846497132e+00 -7.4652331707411781e+00 -1.3987422871744988e+01 -3 -5 6
1519 507 1 -8.1999999999999995e-01 -7.5832513311440763e-01 -7.3957904507117815e+00 -1.3214515067137290e+01 0 -2 1
105 35 2 4.0999999999999998e-01 -7.2622975278191513e+00 -1.3466635808406551e+01 -9.3208315554291445e+00 -3 -1 1
1113 371 2 4.0999999999999998e-01 -2.0315619512789009e+00 -1.0573734840103093e+01 -1.3738187629153055e+01 1 -6 1
2271 757 2 4.0999999999999998e-01 -2.0505762576314268e+00 -9.0191256795898518e+00 -1.0751770887046185e+01 -2 4 0
815 272 2 4.0999999999999998e-01 -1.1669201384574919e+00 -1.4795923404496875e+01 -1.3336381561774274e+01 -8 -1 -5
1265 422 2 4.0999999999999998e-01 -6.7476911760195222e+00 -1.3953661420116319e+01 -1.1984308949536468e+01 -9 -3 -1
876 292 2 4.0999999999999998e-01 -5.3111179594963769e+00 -1.1687702135413687e+01 -8.7183329076452658e+00 -5 1 0
1266 422 2 4.0999999999999998e-01 -5.1281530223385730e+00 -1.3847151710772700e+01 -1.1804820526916593e+01 -9 -3 -1
1521 507 2 4.0999999999999998e-01 -1.1559051244913618e+00 -6.5519188115415350e+00 -1.2854306229718215e+01 0 -2 1
1112 371 2 4.0999999999999998e-01 -1.5254644153318218e+00 -1.2124670181526971e+01 -1.3667980615584938e+01 1 -6 1
491 164 2 4.0999999999999998e-01 -5.4273584389630436e+00 -1.1655582781887137e+01 -1.1873907020763021e+01 -3 2 -4
2529 843 2 4.0999999999999998e-01 -7.2483664935032266e-01 -1.2146614648015316e+01 -1.0762886676734773e+01 -1 1 -5
1541 514 2 4.0999999999999998e-01 -5.8285969762993464e+00 -6.4580101243037156e+00 -1.3433105532177329e+01 -3 -5 6
1540 514 1 -8.1999999999999995e-01 -6.0978078583912012e+00 -7.4156520927994682e+00 -1.3535020558100594e+01 -3 -5 6
2044 682 1 -8.1999999999999995e-01 -7.0929045716951942e+00 -6.3932099883690388e+00 -9.1715472499653430e+00 -1 -2 4
492 164 2 4.0999999999999998e-01 -4.4189540015652309e+00 -1.0941487911486593e+01 -1.0806361507476407e+01 -3 2 -4
981 327 2 4.0999999999999998e-01 -6.2447049031124369e+00 -7.9767401064278367e+00 -1.1958783190303942e+01 0 2 3
1482 494 2 4.0999999999999998e-01 -3.0953938088937782e+00 -7.8625055270766371e+00 -8.8070588724355066e+00 -4 -3 6
1111 371 1 -8.1999999999999995e-01 -1.8246807674969396e+00 -1.1338221418415687e+01 -1.3127696356284936e+01 1 -6 1
2270 757 2 4.0999999999999998e-01 -3.1114487188279476e+00 -7.8508595020976033e+00 -1.1171494627061792e+01 -2 4 0
2025 675 2 4.0999999999999998e-01 -3.5195447726741644e+00 -9.8917986935255868e+00 -8.9310203518533875e+00 -3 7 0
1480 494 1 -8.1999999999999995e-01 -3.2736907541807856e+00 -7.5753799863430782e+00 -7.8659381111243638e+00 -4 -3 6
2023 675 1 -8.1999999999999995e-01 -3.7708353666437020e+00 -1.0857845050091651e+01 -8.9905747094654522e+00 -3 7 0
376 126 1 -8.1999999999999995e-01 -8.0586616712559689e-01 -1.0507618406575414e+01 -1.0682364732498655e+01 0 -1 3
2527 843 1 -8.1999999999999995e-01 -9.0878166880451872e-01 -1.3116849093761424e+01 -1.0605570165934328e+01 -1 1 -5
2045 682 2 4.0999999999999998e-01 -6.7329872100979173e+00 -6.5565380135462163e+00 -8.2530035055957107e+00 -1 -2 4
2513 838 2 4.0999999999999998e-01 -3.1507395498453956e+00 -1.4471751420538137e+01 -7.7751700006334632e+00 -5 2 -5
2046 682 2 4.0999999999999998e-01 -6.7341771885627466e+00 -7.0851735526339281e+00 -9.7979977756612868e+00 -1 -2 4
130 44 1 -8.1999999999999995e-01 -1.6394616631412635e+00 -1.1874995177525669e+01 -7.8893796119966897e+00 -1 1 1
2024 675 2 4.0999999999999998e-01 -3.0491670649275022e+00 -1.1415826718022506e+01 -8.5809523294445373e+00 -3 7 0
1431 477 2 4.0999999999999998e-01 -2.2498969403898776e+00 -6.4371021557653982e+00 -1.4341577333762579e+01 -4 0 2
2162 721 2 4.0999999999999998e-01 -4.7337938569146960e+00 -8.4829982563229009e+00 -1.3531658980307130e+01 -7 -1 1
872 291 2 4.0999999999999998e-01 -1.7493562384084882e-01 -1.0492359811836000e+01 -7.9958478296260092e+00 -1 -1 3
2512 838 1 -8.1999999999999995e-01 -3.3325357156083761e+00 -1.4424871422939709e+01 -8.7573571520371729e+00 -5 2 -5
490 164 1 -8.1999999999999995e-01 -4.9996592041195118e+00 -1.0792119447833807e+01 -1.1606617568664040e+01 -3 2 -4
2161 721 1 -8.1999999999999995e-01 -3.9260352124103690e+00 -9.0608901984114159e+00 -1.3415443285690419e+01 -7 -1 1
875 292 2 4.0999999999999998e-01 -6.7754369306709403e+00 -1.1057442909840146e+01 -8.3647689338684668e+00 -5 1 0
2269 757 1 -8.1999999999999995e-01 -2.6423155524934430e+00 -8.2910039748112432e+00 -1.0405905920081850e+01 -2 4 0
2163 721 2 4.0999999999999998e-01 -4.1426900510947107e+00 -9.8160492568442237e+00 -1.2796787748872280e+01 -7 -1 1
474 158 2 4.0999999999999998e-01 -5.8931683468644547e+00 -1.0106040725977149e+01 -1.4530708798297239e+01 -4 -2 0
132 44 2 4.0999999999999998e-01 -1.4849182844663922e+00 -1.2429347069642674e+01 -8.7071506845734881e+00 -1 1 1
329 110 2 4.0999999999999998e-01 -4.2145448696238770e+00 -5.6969429454385221e+00 -7.5658812688278401e+00 2 -5 -2
377 126 2 4.0999999999999998e-01 -5.4989744369208893e-02 -9.8955670809390188e+00 -1.0930391045786324e+01 0 -1 3
1087 363 1 -8.1999999999999995e-01 -1.7017812769723939e+00 -5.0796550574275781e+00 -1.2503341815012980e+01 0 0 0
1753 585 1 -8.1999999999999995e-01 -5.2574991007670153e+00 -5.0150732355143202e+00 -1.3039017328448576e+01 3 -3 -1
2514 838 2 4.0999999999999998e-01 -2.5813530448267450e+00 -1.4856918534874652e+01 -9.2563551780138660e+00 -5 2 -5
1481 494 2 4.0999999999999998e-01 -2.4225353784254917e+00 -7.2592060051938772e+00 -7.4470017446774959e+00 -4 -3 6
1813 605 1 -8.1999999999999995e-01 -1.3475032519436205e+01 -5.5188980837057198e+00 -7.1549103429611094e-01 -3 1 0
2461 821 1 -8.1999999999999995e-01 -1.2446738620229176e+01 -1.4266422991854249e+01 -3.9963247343895603e+00 -6 1 2
2350 784 1 -8.1999999999999995e-01 -1.3034705629850711e+01 -9.6396733652693953e+00 -4.7145911919245069e+00 -1 5 2
670 224 1 -8.1999999999999995e-01 -1.2173839796565630e+01 -1.0052554101392680e+01 -2.2663515676098029e+00 -1 8 0
175 59 1 -8.1999999999999995e-01 -1.2291335913583351e+01 -7.8872296347017095e+00 -2.4549823846959740e-01 0 3 -2
176 59 2 4.0999999999999998e-01 -1.1737696456010594e+01 -8.5871558353275290e+00 -6.9663662900927292e-01 0 3 -2
672 224 2 4.0999999999999998e-01 -1.1217770496448903e+01 -1.0335079010775919e+01 -2.3441357176605777e+00 -1 8 0
899 300 2 4.0999999999999998e-01 -1.3932847005881884e+01 -1.1231241449969001e+01 -4.4157785385601667e+00 -1 -3 -5
2486 829 2 4.0999999999999998e-01 -9.4482734823399799e+00 -8.0053169940328743e+00 -2.7638016580923157e+00 2 2 0
428 143 2 4.0999999999999998e-01 -1.0519284451260638e+01 -1.1144821370044127e+01 -5.7385231942564499e+00 -3 2 1
2306 769 2 4.0999999999999998e-01 -1.3626603305651965e+01 -1.0827607406645800e+01 -1.4553884325191149e+00 0 5 -4
671 224 2 4.0999999999999998e-01 -1.2520991504770839e+01 -9.7990532098897454e+00 -3.1692148677153860e+00 -1 8 0
2352 784 2 4.0999999999999998e-01 -1.3880216719474856e+01 -9.3370942942869064e+00 -5.1544730694810870e+00 -1 5 2
898 300 1 -8.1999999999999995e-01 -1.4291231882140965e+01 -1.2158466026409391e+01 -4.3073626843293695e+00 -1 -3 -5
2243 748 2 4.0999999999999998e-01 -7.7785809162223183e+00 -5.8129348201939237e+00 -4.4666667031917751e+00 -7 1 4
510 170 2 4.0999999999999998e-01 -9.9824671635222337e+00 -1.4398960638402368e+01 -1.1311521013457213e+00 -6 -2 0
2485 829 1 -8.1999999999999995e-01 -9.6415927131473147e+00 -7.7686672403064918e+00 -3.7159380659185732e+00 2 2 0
2487 829 2 4.0999999999999998e-01 -9.9290911716478636e+00 -6.8124419232175502e+00 -3.7699466109662900e+00 2 2 0
2174 725 2 4.0999999999999998e-01 -9.3302027810192545e+00 -1.0031825680731201e+01 -3.1115654303393239e+00 0 0 7
243 81 2 4.0999999999999998e-01 -8.1375773002505056e+00 -8.7789884666384506e+00 -4.4657549709536060e+00 -5 -1 -2
427 143 1 -8.1999999999999995e-01 -1.0557515788601313e+01 -1.0257932457668657e+01 -6.1988553463153622e+00 -3 2 1
429 143 2 4.0999999999999998e-01 -9.8072574859097266e+00 -9.6816457668355476e+00 -5.8749024663368363e+00 -3 2 1
241 81 1 -8.1999999999999995e-01 -7.8528753470876920e+00 -9.1553338973304932e+00 -5.3473716924579549e+00 -5 -1 -2
2463 821 2 4.0999999999999998e-01 -1.1564927949278832e+01 -1.3859758200804599e+01 -4.2350147691639712e+00 -6 1 2
2462 821 2 4.0999999999999998e-01 -1.3157191369373383e+01 -1.3563384497254582e+01 -4.0268701844734736e+00 -6 1 2
723 241 2 4.0999999999999998e-01 -9.0807940817369612e+00 -5.9037295282409286e+00 -1.0463429457666980e+00 1 -4 1
2351 784 2 4.0999999999999998e-01 -1.2349051404072199e+01 -9.8417919164833556e+00 -5.4138519044922706e+00 -1 5 2
1005 335 2 4.0999999999999998e-01 -9.0102136671787889e+00 -1.2560097843173709e+01 -4.3032010913346745e+00 3 -3 2
1814 605 2 4.0999999999999998e-01 -1.2937173430034223e+01 -6.3455327327781426e+00 -5.5019759641699117e-01 -3 1 0
1004 335 2 4.0999999999999998e-01 -9.3825383448060649e+00 -1.2871665287130982e+01 -5.8622919443978230e+00 3 -3 2
466 156 1 -8.1999999999999995e-01 -7.6163985551749356e+00 -1.3030159045415767e+01 -2.8332911731930341e+00 -4 6 1
2175 725 2 4.0999999999999998e-01 -8.6242106769033242e+00 -1.0136958014512096e+01 -1.6428970733154262e+00 0 0 7
2173 725 1 -8.1999999999999995e-01 -9.4946744761642989e+00 -1.0165113785874292e+01 -2.1342617243901305e+00 0 0 7
1003 335 1 -8.1999999999999995e-01 -9.6959217133818889e+00 -1.2433340923923410e+01 -5.0199132844654315e+00 3 -3 2
1662 554 2 4.0999999999999998e-01 -1.3221593021100063e+01 -6.5076572331747577e+00 -6.5043181275764983e+00 0 -1 -1
1660 554 1 -8.1999999999999995e-01 -1.3769987132800328e+01 -5.8478694321737379e+00 -5.9906225876744017e+00 0 -1 -1
1661 554 2 4.0999999999999998e-01 -1.4589942050318921e+01 -5.6165973876317210e+00 -6.5141933355113615e+00 0 -1 -1
1815 605 2 4.0999999999999998e-01 -1.4066815294301586e+01 -5.6594651546025752e+00 -1.5091995334872745e+00 -3 1 0
467 156 2 4.0999999999999998e-01 -8.4820938061311146e+00 -1.2908340223535056e+01 -2.3478315292110405e+00 -4 6 1
2305 769 1 -8.1999999999999995e-01 -1.4478322407598395e+01 -1.1083359036201291e+01 -9.9810859406970920e-01 0 5 -4
721 241 1 -8.1999999999999995e-01 -8.7433564083103157e+00 -6.8390810207934027e+00 -9.4054808413177149e-01 1 -4 1
1227 409 2 4.0999999999999998e-01 -1.4818501718812952e+01 -5.7636305657430604e+00 -3.9517746208215261e+00 -4 1 1
509 170 2 4.0999999999999998e-01 -8.8298199904369596e+00 -1.4876901951693448e+01 -7.7852144960901981e-02 -6 -2 0
508 170 1 -8.1999999999999995e-01 -9.3519432227393544e+00 -1.4094502550275770e+01 -4.1723050937565453e-01 -6 -2 0
468 156 2 4.0999999999999998e-01 -7.5712301641058399e+00 -1.3956649706372602e+01 -3.2068070101474468e+00 -4 6 1
12 4 2 4.0999999999999998e-01 -7.6220171477727847e+00 -9.5173464567886512e+00 -7.3092489363212767e+00 -2 3 3
2036 679 2 4.0999999999999998e-01 -1.4818902213086307e+01 -1.3540131295622638e+01 -2.8343387142769192e+00 1 -2 1
2337 779 2 4.0999999999999998e-01 -1.0445978486523462e+01 -5.1453928934990536e+00 -4.4535523299913713e+00 -3 1 5
2335 779 1 -8.1999999999999995e-01 -9.5221180418650384e+00 -4.9767088802400572e+00 -4.1100894915072619e+00 -3 1 5
722 241 2 4.0999999999999998e-01 -8.9766038963465604e+00 -7.1764025955685025e+00 -2.8545402610630433e-02 1 -4 1
131 44 2 4.0999999999999998e-01 -1.5729495670826541e+00 -1.2453957101149065e+01 -7.0767798174372034e+00 -1 1 1
1736 579 2 4.0999999999999998e-01 -3.7080081930796229e+00 -1.3862891257885144e+01 -4.9305672440575421e-01 -2 2 1
2477 826 2 4.0999999999999998e-01 -3.8926276395500281e-01 -6.7119492870837032e+00 -6.2594754587208374e+00 -2 1 5
242 81 2 4.0999999999999998e-01 -7.2154688809758536e+00 -8.5240249229501792e+00 -5.7890742186578930e+00 -5 -1 -2
235 79 1 -8.1999999999999995e-01 -2.1438536657229115e+00 -1.4491076126543811e+01 -9.6117644902701471e-02 3 4 1
1735 579 1 -8.1999999999999995e-01 -4.6066013914468886e+00 -1.3566374302935850e+01 -8.1639419733709140e-01 -2 2 1
2015 672 2 4.0999999999999998e-01 -1.2799310171262839e+00 -7.0932108598232517e+00 -1.1185800786531939e+00 3 0 5
1652 551 2 4.0999999999999998e-01 -4.7158007725402733e+00 -7.3326079843482788e+00 -6.0237351094958136e-01 -4 7 1
1929 643 2 4.0999999999999998e-01 -5.9747794013146294e+00 -1.3309488617760561e+01 -7.0995081820835768e+00 -4 1 1
1927 643 1 -8.1999999999999995e-01 -6.0552890114065239e+00 -1.4080288501541848e+01 -6.4675865643095687e+00 -4 1 1
2545 849 1 -8.1999999999999995e-01 -6.8151955064156891e+00 -1.0673961095102705e+01 -1.5371010370603262e+00 1 -1 -1
2480 827 2 4.0999999999999998e-01 -1.7366383860009869e+00 -8.7736835411165384e+00 -3.8385724869144457e+00 -2 -4 -2
720 240 2 4.0999999999999998e-01 -1.4910802205026510e+00 -1.4153916687285191e+01 -2.3441498822722977e+00 0 0 1
2546 849 2 4.0999999999999998e-01 -6.6316256999615906e+00 -1.0841299686244302e+01 -5.6847361281626974e-01 1 -1 -1
2547 849 2 4.0999999999999998e-01 -6.5474339641878334e+00 -1.1476262592817092e+01 -2.0705382050483347e+00 1 -1 -1
2476 826 1 -8.1999999999999995e-01 -1.3159020364226155e+00 -6.3649660285300484e+00 -6.1149713172961384e+00 -2 1 5
1737 579 2 4.0999999999999998e-01 -4.5104558907753187e+00 -1.3122375496413287e+01 -1.7072141807026391e+00 -2 2 1
2481 827 2 4.0999999999999998e-01 -1.6485381906781882e+00 -1.0131295924114893e+01 -2.9354716434365447e+00 -2 -4 -2
820 274 1 -8.1999999999999995e-01 -2.8893068966452251e+00 -7.1567379937106912e+00 -3.8560416453845150e+00 0 -2 6
2242 748 1 -8.1999999999999995e-01 -6.9260920111480555e+00 -5.6409956945774944e+00 -4.9602646198738007e+00 -7 1 4
1638 546 2 4.0999999999999998e-01 -4.9005465759264322e+00 -7.5591369189920625e+00 -6.9293886841527250e+00 -1 0 -2
1509 503 2 4.0999999999999998e-01 -3.0102734926227406e+00 -1.3352532348619201e+01 -5.5772603723797438e+00 -7 3 4
1507 503 1 -8.1999999999999995e-01 -2.4373285988772331e+00 -1.3991649039833078e+01 -6.0902936399808834e+00 -7 3 4
1330 444 1 -8.1999999999999995e-01 -4.9493268360802158e+00 -5.3650168601679340e+00 -2.8071992872268492e+00 4 1 1
994 332 1 -8.1999999999999995e-01 -1.6328856576239481e-01 -8.3093010170714301e+00 -8.2605315616671682e-01 1 0 8
1902 634 2 4.0999999999999998e-01 -7.1549150756023501e+00 -7.4410728188345310e+00 -1.7294222517036388e+00 0 6 4
2014 672 1 -8.1999999999999995e-01 -2.0317319944251544e+00 -6.4820878903995176e+00 -1.3660939921954771e+00 3 0 5
1928 643 2 4.0999999999999998e-01 -6.8741542518275267e+00 -1.4609415730904232e+01 -6.6899000905588419e+00 -4 1 1
1872 624 2 4.0999999999999998e-01 -2.4176604145791831e+00 -1.0621985997976665e+01 -5.2614432369705337e+00 -2 -2 1
1583 528 2 4.0999999999999998e-01 -1.9089884599874019e-01 -1.4618830689671533e+01 -4.0181339466468575e+00 -3 0 -2
1871 624 2 4.0999999999999998e-01 -3.5111859604322806e+00 -1.1171816347958227e+01 -6.3423468916047945e+00 -2 -2 1
1870 624 1 -8.1999999999999995e-01 -3.0372436743758353e+00 -1.1374245569695717e+01 -5.4854103100845162e+00 -2 -2 1
1369 457 1 -8.1999999999999995e-01 -4.5453805448876867e+00 -1.2549372359281962e+01 -3.3978972806579435e+00 -5 -1 2
1370 457 2 4.0999999999999998e-01 -5.5082926700956669e+00 -1.2648009850266741e+01 -3.6489152350039600e+00 -5 -1 2
1230 410 2 4.0999999999999998e-01 -1.2816710725271818e+00 -1.1804904390048605e+01 -4.5518920236897031e-01 2 5 1
2479 827 1 -8.1999999999999995e-01 -1.3389602789935751e+00 -9.6891235329171028e+00 -3.7772461196129665e+00 -2 -4 -2
836 279 2 4.0999999999999998e-01 -2.8903797650057239e+00 -1.0491181424628678e+01 -6.1467056932483466e-01 -3 -1 6
835 279 1 -8.1999999999999995e-01 -2.4824222880880136e+00 -1.0986521686130029e+01 -1.3815785606887179e+00 -3 -1 6
2016 672 2 4.0999999999999998e-01 -2.4580544889995899e+00 -6.8035981329105990e+00 -2.2115639770168638e+00 3 0 5
1508 503 2 4.0999999999999998e-01 -1.6506880759508373e+00 -1.4255843989741289e+01 -5.5323179271926719e+00 -7 3 4
1637 546 2 4.0999999999999998e-01 -6.0495745472462623e+00 -7.0580802206974385e+00 -5.8828987871147795e+00 -1 0 -2
1636 546 1 -8.1999999999999995e-01 -5.8714520499349732e+00 -7.6122097053369933e+00 -6.6960113456795085e+00 -1 0 -2
2478 826 2 4.0999999999999998e-01 -1.3150942925653926e+00 -5.3683233961345778e+00 -6.1964696879184711e+00 -2 1 5
837 279 2 4.0999999999999998e-01 -3.1885660832238667e+00 -1.1191873150812256e+01 -2.0591705787162642e+00 -3 -1 6
1371 457 2 4.0999999999999998e-01 -4.0432480709924477e+00 -1.2137397339387388e+01 -4.1582121491270723e+00 -5 -1 2
821 274 2 4.0999999999999998e-01 -3.5887133782509064e+00 -6.5293914008320275e+00 -3.5136880742251897e+00 0 -2 6
1901 634 2 4.0999999999999998e-01 -6.3172517049705466e+00 -8.8302676302955589e+00 -1.9162966525826466e+00 0 6 4
1900 634 1 -8.1999999999999995e-01 -6.2418588173389722e+00 -7.8486662924182840e+00 -1.7410428765676276e+00 0 6 4
1653 551 2 4.0999999999999998e-01 -3.2266628558982191e+00 -6.6984030232349756e+00 -3.8623315043349393e-01 -4 7 1
1332 444 2 4.0999999999999998e-01 -5.6499958676760542e+00 -5.4061480726413063e+00 -3.5194565050296713e+00 4 1 1
822 274 2 4.0999999999999998e-01 -2.5439078670179818e+00 -6.8240811287313754e+00 -4.7335256563416550e+00 0 -2 6
1331 444 2 4.0999999999999998e-01 -5.2867949274617398e+00 -5.8164600580570802e+00 -1.9812129123720457e+00 4 1 1
1863 621 2 4.0999999999999998e-01 -1.2257635387186102e+01 -1.1498806618414410e+01 2.6097848217318962e+00 -3 3 2
212 71 2 4.0999999999999998e-01 -9.9674877182108741e+00 -9.7490290001371278e+00 3.7996185280097272e+00 0 0 -1
211 71 1 -8.1999999999999995e-01 -9.4927574100617402e+00 -1.0148764489960829e+01 4.5836988011672979e+00 0 0 -1
155 52 2 4.0999999999999998e-01 -9.4684748903036464e+00 -7.3629290509589964e+00 3.9226231575716035e+00 -3 4 4
345 115 2 4.0999999999999998e-01 -1.2554804800252725e+01 -1.0966484481110960e+01 6.1274639117586389e+00 -4 -4 0
154 52 1 -8.1999999999999995e-01 -8.6100257552980146e+00 -7.0470799853140269e+00 4.3266573722219874e+00 -3 4 4
676 226 1 -8.1999999999999995e-01 -1.0926119455258256e+01 -8.4340604250085285e+00 2.4441594138765161e+00 -5 0 1
343 115 1 -8.1999999999999995e-01 -1.2150843253558135e+01 -1.0087311823361871e+01 5.8748577988805444e+00 -4 -4 0
213 71 2 4.0999999999999998e-01 -1.0058464810495796e+01 -1.0048903095444047e+01 5.4021986383748022e+00 0 0 -1
1701 567 2 4.0999999999999998e-01 -9.1642757904056715e+00 -1.3102487909431073e+01 3.9464331391703347e+00 0 1 1
678 226 2 4.0999999999999998e-01 -1.1777178412381282e+01 -8.2376148999659282e+00 2.9310341905426931e+00 -5 0 1
1640 547 2 4.0999999999999998e-01 -1.2139414006493322e+01 -1.3646909391708903e+01 5.2206969483145080e+00 2 -1 -1
1639 547 1 -8.1999999999999995e-01 -1.2469428188011188e+01 -1.4110772115009949e+01 6.0428047074714328e+00 2 -1 -1
283 95 1 -8.1999999999999995e-01 -1.1235055934375973e+01 -1.3660076155035972e+01 3.7327448599141313e+00 -1 3 -2
677 226 2 4.0999999999999998e-01 -1.0840725483472443e+01 -7.8187052250962115e+00 1.6605873849290482e+00 -5 0 1
1700 567 2 4.0999999999999998e-01 -8.4790046911834800e+00 -1.1770085638680298e+01 4.5957188021911008e+00 0 1 1
1147 383 1 -8.1999999999999995e-01 -8.8447039080185341e+00 -1.2219095336179423e+01 1.1662100625776866e+00 -2 3 0
1699 567 1 -8.1999999999999995e-01 -8.3079229645460053e+00 -1.2699754686590836e+01 4.2695506525614562e+00 0 1 1
1149 383 2 4.0999999999999998e-01 -9.7698396774492018e+00 -1.1846785863904183e+01 1.2400250351196540e+00 -2 3 0
2124 708 2 4.0999999999999998e-01 -1.4263494501253614e+01 -9.7472537567412019e+00 2.1990447758378409e+00 0 1 3
1861 621 1 -8.1999999999999995e-01 -1.1408093406542582e+01 -1.1426207960143330e+01 2.0873415339769856e+00 -3 3 2
156 52 2 4.0999999999999998e-01 -8.7123671485084593e+00 -6.9835431318847618e+00 5.3193448822799212e+00 -3 4 4
2123 708 2 4.0999999999999998e-01 -1.4137141756949942e+01 -1.0175011666213852e+01 6.2820977429472080e-01 0 1 3
2489 830 2 4.0999999999999998e-01 -1.3995818313914995e+01 -9.9556775160254958e+00 4.9729917228367775e+00 -4 2 3
2488 830 1 -8.1999999999999995e-01 -1.4661054754117668e+01 -1.0019879154279135e+01 4.2291652807798030e+00 -4 2 3
284 95 2 4.0999999999999998e-01 -1.1372018222025892e+01 -1.2907287354679212e+01 3.0889362349362735e+00 -1 3 -2
2122 708 1 -8.1999999999999995e-01 -1.3750314395366260e+01 -9.6046048218979561e+00 1.3527371014769471e+00 0 1 3
344 115 2 4.0999999999999998e-01 -1.2587825560819191e+01 -9.3567023021114988e+00 6.3994484991819576e+00 -4 -4 0
621 207 2 4.0999999999999998e-01 -1.4628494335430112e+01 -8.3937651613839819e+00 7.1022531220170961e+00 -2 4 3
1641 547 2 4.0999999999999998e-01 -1.1825981406416968e+01 -1.3957813604575213e+01 6.7928174906665006e+00 2 -1 -1
618 206 2 4.0999999999999998e-01 -1.3534960144186014e+01 -1.4581461887409510e+01 1.5778826197908700e+00 -7 1 -3
2061 687 2 4.0999999999999998e-01 -1.3271775535734541e+01 -1.2735349879672121e+01 6.7489518893739735e+00 -6 1 4
616 206 1 -8.1999999999999995e-01 -1.3734036153162393e+01 -1.3996020960380509e+01 2.3637368070664913e+00 -7 1 -3
619 207 1 -8.1999999999999995e-01 -1.3640459958944851e+01 -8.2405984203061386e+00 7.0859070229538510e+00 -2 4 3
2059 687 1 -8.1999999999999995e-01 -1.3485960242685056e+01 -1.1920786700168957e+01 7.2879797906768928e+00 -6 1 4
1148 383 2 4.0999999999999998e-01 -8.8639422208400234e+00 -1.3052655317155779e+01 6.1417127568266139e-01 -2 3 0
1862 621 2 4.0999999999999998e-01 -1.1485730159405898e+01 -1.0679372026416598e+01 1.4269266279276920e+00 -3 3 2
1085 362 2 4.0999999999999998e-01 -1.2029742957436619e+01 -5.6702146802583666e+00 5.8635215755100312e+00 4 3 4
1917 639 2 4.0999999999999998e-01 -7.7723767565104334e+00 -1.4212355800153890e+01 4.9962719331037242e+00 -8 -2 -3
167 56 2 4.0999999999999998e-01 -7.4921515599598116e+00 -1.1236827890685735e+01 1.4212808785712951e+00 -7 2 3
617 206 2 4.0999999999999998e-01 -1.4042146022448435e+01 -1.4559934781135388e+01 3.1299017089065195e+00 -7 1 -3
285 95 2 4.0999999999999998e-01 -1.0763909203783658e+01 -1.4411752653798295e+01 3.2712878175123947e+00 -1 3 -2
159 53 2 4.0999999999999998e-01 -8.5001290915288550e+00 -5.1772793035694011e+00 1.7169080283237683e+00 -3 3 0
1084 362 1 -8.1999999999999995e-01 -1.1178363199666887e+01 -5.1505637546589806e+00 5.7924262140442799e+00 4 3 4
1720 574 1 -8.1999999999999995e-01 -8.3066555176103805e+00 -7.8278456650170911e+00 7.1996525529033910e+00 -8 -2 -1
177 59 2 4.0999999999999998e-01 -1.2897463367836702e+01 -8.3204130196872939e+00 4.2151072986896665e-01 0 3 -2
2552 851 2 4.0999999999999998e-01 -1.4865008343687826e+01 -1.2369701507838414e+01 2.2153320164578645e+00 2 -3 1
1721 574 2 4.0999999999999998e-01 -7.8840461258049812e+00 -8.5633469396681257e+00 6.6701449308545300e+00 -8 -2 -1
2449 817 1 -8.1999999999999995e-01 -1.4297158482188266e+01 -5.0395980796406654e+00 4.5308735144304286e+00 -7 3 -1
1716 572 2 4.0999999999999998e-01 -7.7143843570873898e+00 -6.9402284025334904e+00 2.9094547400802497e+00 -2 -5 2