LAMMPS data file via write_data, version 15 May 2015, timestep = 1009000

2593 atoms
6 atom types
1728 bonds
4 bond types
864 angles
3 angle types
0 dihedrals
3 dihedral types
0 impropers
1 improper types

-1.4960786597323992e+01 1.4960786597323992e+01 xlo xhi
-1.4960786597323992e+01 1.4960786597323992e+01 ylo yhi
-1.4960786597323992e+01 1.4960786597323992e+01 zlo zhi

Masses

1 15.9994
2 1.00794
3 12.0107
4 1.00794
5 12.0107
6 12.0107

Bond Coeffs # harmonic

1 1000 1
2 469 1.4
3 367 1.08
4 469 0.7

Angle Coeffs # harmonic

1 100 109.47
2 35 120
3 63 120

Dihedral Coeffs # opls

1 0 7.25 0 0
2 0 7.25 0 0
3 0 7.25 0 0

Improper Coeffs # cvff

1 2.5 -1 2

Atoms # full

1903 635 1 -8.1999999999999995e-01 -1.0233871451581937e+01 -1.0959704751837609e+01 -1.0726324658681227e+01 1 1 0
650 217 2 4.0999999999999998e-01 -1.3266145227970936e+01 -9.8303353264419577e+00 -1.0551338458488837e+01 1 1 1
649 217 1 -8.1999999999999995e-01 -1.2763701572734080e+01 -9.2386927902093490e+00 -1.1181738607148436e+01 1 1 1
1905 635 2 4.0999999999999998e-01 -1.0026284153643324e+01 -1.0447280579900536e+01 -9.8931236885665541e+00 1 1 0
1904 635 2 4.0999999999999998e-01 -1.1026388383936514e+01 -1.0551913240314526e+01 -1.1179665438994917e+01 1 1 0
651 217 2 4.0999999999999998e-01 -1.3278206197125721e+01 -9.1467778356941203e+00 -1.2034224093446680e+01 1 1 1
1530 510 2 4.0999999999999998e-01 -9.5396859269994483e+00 -8.2629803763031440e+00 -9.0452981152941803e+00 1 0 1
883 295 1 -8.1999999999999995e-01 -1.0858267810780305e+01 -1.0051997802615627e+01 -1.3774885440237096e+01 0 0 1
885 295 2 4.0999999999999998e-01 -1.1655847985634972e+01 -9.7534067334604053e+00 -1.3250858621878345e+01 0 0 1
2005 669 1 -8.1999999999999995e-01 -1.0425909170480530e+01 -7.0235802522256074e+00 -8.2350059105847819e+00 2 -1 -1
1528 510 1 -8.1999999999999995e-01 -8.8168427118687305e+00 -8.6884711747008989e+00 -9.5896786366477400e+00 1 0 1
1838 613 2 4.0999999999999998e-01 -7.8904524663004514e+00 -7.7292401742328813e+00 -1.0806518916809376e+01 -2 0 2
1859 620 2 4.0999999999999998e-01 -1.3234652918760636e+01 -7.6362769948660940e+00 -1.0850211472388008e+01 -1 0 2
969 323 2 4.0999999999999998e-01 -1.6932748015186458e+00 -1.4524303155525157e+01 -1.4563482664765523e+01 1 -1 4
1845 615 2 4.0999999999999998e-01 -1.3400318136440490e+01 -5.4695723355279124e+00 -9.4919674046669300e+00 3 -1 2
1251 417 2 4.0999999999999998e-01 -1.4106565817101052e+01 -1.1088282789907957e+01 -9.3593959039005981e+00 -1 -1 1
538 180 1 -8.1999999999999995e-01 -1.3989591215432739e+01 -9.6953845442854529e+00 -8.5122833367886237e+00 0 1 0
539 180 2 4.0999999999999998e-01 -1.3274919580837667e+01 -9.7258022850794212e+00 -7.8135601388588487e+00 0 1 0
2011 671 1 -8.1999999999999995e-01 -1.0353335091346448e+01 -1.3259867409545871e+01 -1.3963388049266877e+01 1 -1 1
843 281 2 4.0999999999999998e-01 -4.6811160807696979e+00 -5.5077667147178442e+00 -1.3027177680026755e+01 -2 -1 2
1529 510 2 4.0999999999999998e-01 -8.2026788465974150e+00 -9.1986271570109643e+00 -8.9876499933975360e+00 1 0 1
2563 855 1 -8.1999999999999995e-01 -8.0102628019152355e+00 -1.0268673590673858e+01 -1.3917278076819388e+01 1 1 2
2227 743 1 -8.1999999999999995e-01 -1.3184460517598319e+01 -1.2204171457703799e+01 -1.4723880703592927e+01 1 -1 1
2229 743 2 4.0999999999999998e-01 -1.3738993653120689e+01 -1.1465243817838530e+01 -1.4341292385752720e+01 1 -1 1
1860 620 2 4.0999999999999998e-01 -1.3149228335253712e+01 -6.2321483115866165e+00 -1.1679350464615265e+01 -1 0 2
2111 704 2 4.0999999999999998e-01 -7.5233105517081738e+00 -7.3586957684117076e+00 -1.4632225462337169e+01 1 2 0
320 107 2 4.0999999999999998e-01 -1.4769412249803777e+01 -6.2006829155557295e+00 -7.9830416763800374e+00 1 0 1
1858 620 1 -8.1999999999999995e-01 -1.3483955365110308e+01 -6.6679260605823583e+00 -1.0843916151728223e+01 -1 0 2
1289 430 2 4.0999999999999998e-01 -1.1209316832402489e+01 -1.2936824197912273e+01 -1.0296279388088866e+01 1 2 1
2012 671 2 4.0999999999999998e-01 -1.0009175561188208e+01 -1.2547212110415021e+01 -1.3352183090627062e+01 1 -1 1
1508 503 2 4.0999999999999998e-01 -4.3644695786580563e+00 -1.1294344105807989e+01 -1.4709354242474623e+01 -1 1 1
2261 754 2 4.0999999999999998e-01 -1.1115792948208814e+00 -5.5443010538911750e+00 -1.0158001020141642e+01 0 2 -1
2007 669 2 4.0999999999999998e-01 -1.0813979364189356e+01 -6.4068953943238007e+00 -8.9198388948673895e+00 2 -1 -1
368 123 2 4.0999999999999998e-01 -9.6487752308385311e+00 -1.4612306713868655e+01 -1.2976796578406484e+01 0 -1 2
1837 613 1 -8.1999999999999995e-01 -7.1029961015518186e+00 -7.4393649219112392e+00 -1.1350375242447042e+01 -2 0 2
2228 743 2 4.0999999999999998e-01 -1.2436897300025844e+01 -1.2419468188498728e+01 -1.4095635991563945e+01 1 -1 1
1288 430 1 -8.1999999999999995e-01 -1.1920428002096779e+01 -1.3578659304466228e+01 -1.0009463315208981e+01 1 2 1
1250 417 2 4.0999999999999998e-01 -1.3416428704903218e+01 -1.2538668393598821e+01 -9.6534002272330461e+00 -1 -1 1
1249 417 1 -8.1999999999999995e-01 -1.4151315434174187e+01 -1.1915135040630776e+01 -9.9199382689824986e+00 -1 -1 1
667 223 1 -8.1999999999999995e-01 -1.4108200381133326e+01 -9.9191556852164737e+00 -1.3758111800018041e+01 -1 1 -1
2198 733 2 4.0999999999999998e-01 -8.7240095228502454e+00 -1.1795592155808825e+01 -1.1379919261576390e+01 1 1 4
2564 855 2 4.0999999999999998e-01 -8.9779917738972621e+00 -1.0341612937017487e+01 -1.3676289737526284e+01 1 1 2
2405 802 2 4.0999999999999998e-01 -5.7899883562606007e+00 -1.4455184776865618e+01 -1.3046849921330384e+01 -1 -1 2
668 223 2 4.0999999999999998e-01 -1.3868163702022361e+01 -9.2655516151918036e+00 -1.4475801853548333e+01 -1 1 -1
334 112 1 -8.1999999999999995e-01 -1.2689342477558110e+01 -5.1256625703058489e+00 -1.2950488588751586e+01 -2 1 2
1542 514 2 4.0999999999999998e-01 -3.6044367584208015e+00 -9.5980472010580389e+00 -8.7149341698569422e+00 1 0 1
540 180 2 4.0999999999999998e-01 -1.4624394124610548e+01 -8.9504008191693849e+00 -8.3075410727072878e+00 0 1 0
2565 855 2 4.0999999999999998e-01 -7.7373861571484035e+00 -9.3066874194474387e+00 -1.3913298262265446e+01 1 1 2
2489 830 2 4.0999999999999998e-01 -9.3221110704115695e-01 -9.4118231396430652e+00 -1.0651498096555517e+01 -1 2 2
1290 430 2 4.0999999999999998e-01 -1.1515467903258871e+01 -1.4289821932431254e+01 -9.4348765981332399e+00 1 2 1
330 110 2 4.0999999999999998e-01 -8.5738316882399950e+00 -5.1767665896748394e+00 -7.4895401420801049e+00 0 -1 1
2286 762 2 4.0999999999999998e-01 -4.4004577513983936e+00 -1.4066306438099401e+01 -1.1045881098024411e+01 1 2 4
867 289 2 4.0999999999999998e-01 -3.7734679152076804e+00 -1.4840428032553005e+01 -1.4515322586267674e+01 -1 1 4
627 209 2 4.0999999999999998e-01 -7.3615787257389904e+00 -1.1359414616753508e+01 -8.2214477034773310e+00 -1 3 0
2285 762 2 4.0999999999999998e-01 -4.0044424861532928e+00 -1.4173262582186906e+01 -9.4653500394565597e+00 1 2 4
884 295 2 4.0999999999999998e-01 -1.0908012667160861e+01 -9.6767417522559107e+00 -1.4700414050584749e+01 0 0 1
866 289 2 4.0999999999999998e-01 -4.6967890792233504e+00 -1.3547137574911222e+01 -1.4891120328665771e+01 -1 1 4
2404 802 1 -8.1999999999999995e-01 -6.4060145267545181e+00 -1.4329865911075721e+01 -1.2269224140897821e+01 -1 -1 2
1551 517 2 4.0999999999999998e-01 -1.0989167629736230e-01 -5.1153135427673533e+00 -1.2503201411298908e+01 -3 0 2
1540 514 1 -8.1999999999999995e-01 -3.3703463099068998e+00 -9.3244031703142181e+00 -7.7820807679677300e+00 1 0 1
451 151 1 -8.1999999999999995e-01 -8.1224535253745600e-01 -1.0888162556300006e+01 -8.0522621331685436e+00 0 -3 1
329 110 2 4.0999999999999998e-01 -7.2132331995889576e+00 -5.0687069318744786e+00 -8.3858888525676889e+00 0 -1 1
1082 361 2 4.0999999999999998e-01 -1.0603180213755206e+00 -1.4170117821613372e+01 -1.2318931816103275e+01 -2 0 2
980 327 2 4.0999999999999998e-01 -3.7151453713798741e+00 -7.3971666322515279e+00 -1.2301577253160147e+01 0 0 1
1411 471 1 -8.1999999999999995e-01 -5.8843073147746257e+00 -1.1878523050904334e+01 -9.8391223514327919e+00 0 0 0
1839 613 2 4.0999999999999998e-01 -7.3682643846456655e+00 -7.3736782471980149e+00 -1.2312255110506424e+01 -2 0 2
2490 830 2 4.0999999999999998e-01 -2.3432870958335332e+00 -8.9871423108982000e+00 -1.1354958748013022e+01 -1 2 2
453 151 2 4.0999999999999998e-01 -9.6017347071874681e-01 -1.1877091961746965e+01 -8.0578094151151660e+00 0 -3 1
572 191 2 4.0999999999999998e-01 -4.4232860470490003e+00 -7.0811487001444666e+00 -1.4429488885566798e+01 -1 0 4
625 209 1 -8.1999999999999995e-01 -8.0536414868592310e+00 -1.0881074655410671e+01 -7.6809526694109449e+00 -1 3 0
252 84 2 4.0999999999999998e-01 -7.3716220260534691e+00 -1.4726767124189891e+01 -7.6567809880584559e+00 -2 1 0
1541 514 2 4.0999999999999998e-01 -2.4241497551687434e+00 -9.5821153225147775e+00 -7.5866545564578045e+00 1 0 1
2201 734 2 4.0999999999999998e-01 -6.7443303036595399e+00 -5.9009164726036296e+00 -1.0358612021548545e+01 1 -2 1
1391 464 2 4.0999999999999998e-01 -1.1488285800620286e+00 -8.4469106445280566e+00 -8.7075763103265622e+00 0 1 2
1412 471 2 4.0999999999999998e-01 -6.6945511326431149e+00 -1.2242375094305672e+01 -1.0298482241100018e+01 0 0 0
1413 471 2 4.0999999999999998e-01 -5.0752041995573887e+00 -1.2382114716384987e+01 -1.0141847410066431e+01 0 0 0
335 112 2 4.0999999999999998e-01 -1.1872825564708021e+01 -5.0031761467722706e+00 -1.3514573754026369e+01 -2 1 2
250 84 1 -8.1999999999999995e-01 -7.6901115347182376e+00 -1.3869717266804585e+01 -8.0616573327781289e+00 -2 1 0
51 17 2 4.0999999999999998e-01 -5.7737361903927216e+00 -1.0175349136960936e+01 -1.0413117078117157e+01 2 -2 1
50 17 2 4.0999999999999998e-01 -6.1581332909935949e+00 -8.6453972636279914e+00 -1.0834818772657082e+01 2 -2 1
979 327 1 -8.1999999999999995e-01 -3.5934848271945334e+00 -7.3020191265797552e+00 -1.1313629618386257e+01 0 0 1
2199 733 2 4.0999999999999998e-01 -7.6216664682765431e+00 -1.1211138307683775e+01 -1.2433294603572403e+01 1 1 4
2197 733 1 -8.1999999999999995e-01 -7.8704819112226811e+00 -1.1993155938204062e+01 -1.1861950423477600e+01 1 1 4
2110 704 1 -8.1999999999999995e-01 -8.1639473620574918e+00 -7.5280922412313123e+00 -1.3883370214443849e+01 1 2 0
573 191 2 4.0999999999999998e-01 -2.8772854825741572e+00 -7.5569760410215983e+00 -1.4652685587319910e+01 -1 0 4
2488 830 1 -8.1999999999999995e-01 -1.9269429343881495e+00 -9.5034159527217845e+00 -1.0606617957703014e+01 -1 2 2
588 196 2 4.0999999999999998e-01 -4.8936132822442531e+00 -1.0204260739251673e+01 -1.2235451622057845e+01 0 1 0
865 289 1 -8.1999999999999995e-01 -4.6207843979925194e+00 -1.4353187428978599e+01 -1.4304262776991935e+01 -1 1 4
49 17 1 -8.1999999999999995e-01 -5.4195128281727882e+00 -9.2479157823342781e+00 -1.0532649722641285e+01 2 -2 1
587 196 2 4.0999999999999998e-01 -3.9752030284977309e+00 -9.3652470921593665e+00 -1.3293244061917605e+01 0 1 0
2284 762 1 -8.1999999999999995e-01 -3.9068651268400725e+00 -1.3625529180212736e+01 -1.0296230102189810e+01 1 2 4
586 196 1 -8.1999999999999995e-01 -4.3260217695082162e+00 -1.0271077040169747e+01 -1.3055982138831489e+01 0 1 0
467 156 2 4.0999999999999998e-01 -2.1730453422790497e+00 -1.2840228798495906e+01 -1.0724161937646695e+01 1 0 1
981 327 2 4.0999999999999998e-01 -3.9994521982087914e+00 -8.0897557747701558e+00 -1.0850427352219086e+01 0 0 1
571 191 1 -8.1999999999999995e-01 -3.6980392836905374e+00 -7.6831769002839492e+00 -1.4095611590340217e+01 -1 0 4
2373 791 2 4.0999999999999998e-01 -2.1361670667670580e+00 -1.1704435694844863e+01 -1.4190442823053857e+01 -1 0 2
2262 754 2 4.0999999999999998e-01 -2.5480285570183980e+00 -6.2846865192975390e+00 -1.0392071583827233e+01 0 2 -1
468 156 2 4.0999999999999998e-01 -1.5517995542932681e+00 -1.1360293140024819e+01 -1.0423845049910700e+01 1 0 1
466 156 1 -8.1999999999999995e-01 -1.3654273734845717e+00 -1.2258685577678280e+01 -1.0821401738068907e+01 1 0 1
2112 704 2 4.0999999999999998e-01 -9.0990779454578856e+00 -7.3788909741194599e+00 -1.4204562743944088e+01 1 2 0
2406 802 2 4.0999999999999998e-01 -6.9625375315961779e+00 -1.3511696724962352e+01 -1.2413363629992173e+01 -1 -1 2
2371 791 1 -8.1999999999999995e-01 -1.5135975760358829e+00 -1.2459657310816471e+01 -1.4395241266744227e+01 -1 0 2
2013 671 2 4.0999999999999998e-01 -1.0131801276314054e+01 -1.3023221991570370e+01 -1.4909335507514486e+01 1 -1 1
2260 754 1 -8.1999999999999995e-01 -2.0654319620358095e+00 -5.5881985802299212e+00 -9.8611290569643728e+00 0 2 -1
1390 464 1 -8.1999999999999995e-01 -5.5552539063702078e-01 -7.6556261594846227e+00 -8.8550722676483513e+00 0 1 2
2132 711 2 4.0999999999999998e-01 -1.3181106479587140e+01 -1.4263815096246676e+01 -1.4460082851755672e+01 1 0 3
1392 464 2 4.0999999999999998e-01 -1.0166245065845576e+00 -6.8287325685906186e+00 -8.5333123234899038e+00 0 1 2
841 281 1 -8.1999999999999995e-01 -4.9183736653905097e+00 -5.1567765437088067e+00 -1.3932942331225979e+01 -2 -1 2
251 84 2 4.0999999999999998e-01 -8.6898929652659334e+00 -1.3859510175216938e+01 -8.0767491458727196e+00 -2 1 0
2339 780 2 4.0999999999999998e-01 -1.1024386350931204e+01 -5.0161934865237310e+00 -1.0930421407995887e+01 1 3 1
2200 734 1 -8.1999999999999995e-01 -6.6529076989011493e+00 -4.9999645810054627e+00 -9.9345571967930457e+00 1 -2 1
626 209 2 4.0999999999999998e-01 -8.8817204715055666e+00 -1.1439323911118260e+01 -7.6305757132322150e+00 -1 3 0
317 106 2 4.0999999999999998e-01 -1.4716177248956001e+01 -1.2314528694981533e+01 -5.8659308667813015e+00 1 3 2
1672 558 1 -8.1999999999999995e-01 -1.3729476715602562e+01 -7.7965927173073624e+00 -2.9250845436975066e+00 -2 -1 2
2186 729 2 4.0999999999999998e-01 -1.1463260916695942e+01 -1.2191329108715966e+01 -4.0006240134750257e+00 -2 0 2
429 143 2 4.0999999999999998e-01 -9.5888348896194131e+00 -1.1501620420533706e+01 -6.6569283290829695e-01 0 1 2
427 143 1 -8.1999999999999995e-01 -9.4631188093165264e+00 -1.0509685484991072e+01 -6.5322600085469418e-01 0 1 2
2579 860 2 4.0999999999999998e-01 -1.1332588721751776e+01 -6.0856541177800842e+00 -1.1092161300870220e+00 -1 -1 1
316 106 1 -8.1999999999999995e-01 -1.3841432046467911e+01 -1.2489225674697099e+01 -5.4140495966201705e+00 1 3 2
2187 729 2 4.0999999999999998e-01 -9.9157761454550393e+00 -1.1880493427947592e+01 -3.5822722250418568e+00 -2 0 2
2185 729 1 -8.1999999999999995e-01 -1.0506025450276898e+01 -1.2403403825217836e+01 -4.1971424066922989e+00 -2 0 2
1586 529 2 4.0999999999999998e-01 -1.3579005212807225e+01 -1.1199657840679826e+01 -2.1747096829017849e+00 1 0 1
428 143 2 4.0999999999999998e-01 -8.4942768777154996e+00 -1.0298099875595227e+01 -5.2488371995015903e-01 0 1 2
121 41 1 -8.1999999999999995e-01 -1.0133774003613624e+01 -1.2509544475131850e+01 -6.9345312576703719e+00 -1 1 0
2279 760 2 4.0999999999999998e-01 -1.3878811966748387e+01 -9.6316287838963284e+00 -2.8633421776629042e-01 -1 1 1
2278 760 1 -8.1999999999999995e-01 -1.4376111325529925e+01 -1.0105303538011954e+01 -1.0131219754441272e+00 -1 1 1
1956 652 2 4.0999999999999998e-01 -9.8821196012395696e+00 -1.4240064545239765e+01 -2.4349505057892120e+00 0 1 1
1585 529 1 -8.1999999999999995e-01 -1.3045737680273138e+01 -1.1891214266172433e+01 -2.6618137075590482e+00 1 0 1
123 41 2 4.0999999999999998e-01 -9.9860749672235514e+00 -1.2455396609677948e+01 -5.9470354756352091e+00 -1 1 0
1674 558 2 4.0999999999999998e-01 -1.3583017327045654e+01 -8.7422076366386463e+00 -2.6348140980768235e+00 -2 -1 2
1673 558 2 4.0999999999999998e-01 -1.2968319234855869e+01 -7.2296298347653565e+00 -2.6103032626849902e+00 -2 -1 2
1098 366 2 4.0999999999999998e-01 -6.2545076421000978e-01 -9.9573026961356099e+00 -1.2091367270489197e+00 0 0 1
318 106 2 4.0999999999999998e-01 -1.3959255362445369e+01 -1.2423988161317421e+01 -4.4232132857079840e+00 1 3 2
1955 652 2 4.0999999999999998e-01 -8.2663244310341284e+00 -1.4374576634743212e+01 -2.6284927030289396e+00 0 1 1
1511 504 2 4.0999999999999998e-01 -1.2043760334874566e+01 -8.2879795930722064e+00 -5.9631350309783162e+00 0 0 1
2578 860 1 -8.1999999999999995e-01 -1.1469226582734192e+01 -6.2104438547686680e+00 -2.0918923100858677e+00 -1 -1 1
1960 654 1 -8.1999999999999995e-01 -9.8002239716925423e+00 -9.6285879659380420e+00 -3.0771440536910912e+00 2 0 0
1962 654 2 4.0999999999999998e-01 -9.9176532359242273e+00 -8.6396659032065557e+00 -3.1673570234615056e+00 2 0 0
1961 654 2 4.0999999999999998e-01 -9.7193434246661852e+00 -9.8677315837674993e+00 -2.1095886031259941e+00 2 0 0
1115 372 2 4.0999999999999998e-01 -1.1478496092715723e+01 -1.3845964441722776e+01 -1.0773579775107098e+00 -1 0 1
1954 652 1 -8.1999999999999995e-01 -9.1027257219654452e+00 -1.4864321154470302e+01 -2.3825697986204180e+00 0 1 1
441 147 2 4.0999999999999998e-01 -1.4407825223857543e+01 -8.3646984183586639e+00 -4.5114771802608598e+00 2 1 1
1373 458 2 4.0999999999999998e-01 -1.3351129017456749e+01 -1.4051063885771400e+01 -5.4889186890015083e+00 0 1 0
1791 597 2 4.0999999999999998e-01 -1.2884854542021529e+00 -5.4971801948039296e+00 -4.3141028581322853e+00 2 1 0
554 185 2 4.0999999999999998e-01 -8.3368363818994791e+00 -6.5683607873229484e+00 -3.9644754922345093e+00 1 1 1
2086 696 1 -8.1999999999999995e-01 -1.2638958181723586e+01 -1.4817216911521845e+01 -2.0547286983220321e+00 0 0 1
553 185 1 -8.1999999999999995e-01 -9.0195776871912940e+00 -6.1102681228851683e+00 -3.3953443285844926e+00 1 1 1
2583 861 2 4.0999999999999998e-01 -8.4591616975782529e+00 -1.0142576794210704e+01 -4.2964330401473969e+00 -1 1 0
1510 504 1 -8.1999999999999995e-01 -1.2320100728555051e+01 -7.3448648548794875e+00 -6.1477032852484541e+00 0 0 1
1429 477 1 -8.1999999999999995e-01 -4.3325030304765360e+00 -1.4675395903341105e+01 -4.4297800060464620e+00 -1 -2 3
19 7 1 -8.1999999999999995e-01 -2.0255909432367769e+00 -1.0847757826367278e+01 -5.4900548667909845e+00 -3 1 2
1587 529 2 4.0999999999999998e-01 -1.3152809492779378e+01 -1.2775608106921014e+01 -2.2076352841888713e+00 1 0 1
1191 397 2 4.0999999999999998e-01 -1.2590297833570210e+01 -1.1013650509006998e+01 -5.9881836773591886e+00 1 2 2
122 41 2 4.0999999999999998e-01 -1.0680798259953772e+01 -1.3319498365455010e+01 -7.1457989554990826e+00 -1 1 0
1173 391 2 4.0999999999999998e-01 -1.4814139451593995e+01 -6.2849029969563457e+00 -2.8600398413795052e+00 1 -1 1
1009 337 1 -8.1999999999999995e-01 -8.8899119575860652e-01 -1.1777437957913245e+01 -2.7659309724010654e+00 0 1 2
2182 728 1 -8.1999999999999995e-01 -1.2280543746254413e+01 -5.0353462286438990e+00 -4.4804717033185550e+00 2 1 0
328 110 1 -8.1999999999999995e-01 -7.5750228220155105e+00 -5.2181071548208191e+00 -7.4657352183084296e+00 0 -1 1
2580 860 2 4.0999999999999998e-01 -1.0585414561925601e+01 -6.1757955908628333e+00 -2.5583370399390244e+00 -1 -1 1
1512 504 2 4.0999999999999998e-01 -1.3282246071903593e+01 -7.3265786796873185e+00 -6.4194326624460416e+00 0 0 1
2183 728 2 4.0999999999999998e-01 -1.2044732581943245e+01 -5.6785108474101715e+00 -5.2089133592755719e+00 2 1 0
2148 716 2 4.0999999999999998e-01 -7.4428425160242861e+00 -8.5211529070704444e+00 -5.7836301792865186e-01 3 2 0
1190 397 2 4.0999999999999998e-01 -1.1421703440635865e+01 -1.0862135203386728e+01 -7.1185713872494283e+00 1 2 2
1189 397 1 -8.1999999999999995e-01 -1.2152965046725178e+01 -1.0385034208364189e+01 -6.6312050201702863e+00 1 2 2
2006 669 2 4.0999999999999998e-01 -1.1062040718105282e+01 -7.1133758116325962e+00 -7.4687368479071132e+00 2 -1 -1
1224 408 2 4.0999999999999998e-01 -3.0456195114616058e+00 -1.3944126361917778e+01 -3.1196979504404716e+00 1 2 0
1789 597 1 -8.1999999999999995e-01 -3.2014852471420241e-01 -5.4214916158146629e+00 -4.5517784882329497e+00 2 1 0
2358 786 2 4.0999999999999998e-01 -6.0677592138955525e+00 -1.2993284402626749e+01 -5.9086781305643044e-02 -1 0 2
1223 408 2 4.0999999999999998e-01 -2.7350067120615709e+00 -1.4749097894045141e+01 -1.7333766725754796e+00 1 2 0
2084 695 2 4.0999999999999998e-01 -7.6275589000775295e+00 -1.1951347285716910e+01 -3.3923467434367307e+00 -1 0 1
2582 861 2 4.0999999999999998e-01 -7.9309687207592336e+00 -1.0792060243056376e+01 -5.6984065083646271e+00 -1 1 0
2581 861 1 -8.1999999999999995e-01 -8.0149375902943945e+00 -1.0935985810366999e+01 -4.7124402104484311e+00 -1 1 0
1086 362 2 4.0999999999999998e-01 -2.5804982594241732e+00 -9.1125826384514284e+00 -2.8431845101165525e+00 2 1 0
1085 362 2 4.0999999999999998e-01 -2.3268278866196557e+00 -8.9202177661692623e+00 -4.4447441329954263e+00 2 1 0
2184 728 2 4.0999999999999998e-01 -1.1874732955180448e+01 -5.3430243852741164e+00 -3.6199215118753987e+00 2 1 0
1114 372 1 -8.1999999999999995e-01 -1.0942446239293611e+01 -1.3176641211648970e+01 -5.6301195082543209e-01 -1 0 1
90 30 2 4.0999999999999998e-01 -6.1794731339124311e+00 -1.3085508524195594e+01 -6.7665529865283425e+00 0 1 4
1563 521 2 4.0999999999999998e-01 -7.7595881768236961e+00 -6.6728232041195721e+00 -5.9985625524737607e+00 -2 -1 1
1756 586 1 -8.1999999999999995e-01 -3.8220535544314682e+00 -5.9984302641108691e+00 -3.5893919762253024e+00 -1 1 2
2059 687 1 -8.1999999999999995e-01 -4.4036077276653618e+00 -5.4844421121765041e+00 -6.4002600623102275e+00 0 2 1
1232 411 2 4.0999999999999998e-01 -4.1305237118826046e+00 -9.9538871818153574e+00 -6.4701083231571133e-01 0 1 1
2088 696 2 4.0999999999999998e-01 -1.3634549497163441e+01 -1.4883438645816106e+01 -1.9890971831383375e+00 0 0 1
2357 786 2 4.0999999999999998e-01 -5.7512825971391006e+00 -1.4336503925069010e+01 -9.3198430292791734e-01 -1 0 2
1908 636 2 4.0999999999999998e-01 -8.1091252167151104e+00 -6.4721147193458801e+00 -2.0278745123607003e+00 2 0 0
1757 586 2 4.0999999999999998e-01 -4.1381413457507961e+00 -5.8132879788439737e+00 -4.5198250549356125e+00 -1 1 2
20 7 2 4.0999999999999998e-01 -2.9619762623462567e+00 -1.0818281505893157e+01 -5.1404714756947847e+00 -3 1 2
96 32 2 4.0999999999999998e-01 -5.0055344246286939e+00 -5.2857260126641368e+00 -1.0790415390315395e+00 -2 2 3
1986 662 2 4.0999999999999998e-01 -2.2346690105807170e+00 -7.7804823813171460e+00 -6.3559841032702202e-01 0 0 3
2085 695 2 4.0999999999999998e-01 -6.5570634113221331e+00 -1.2640299340153176e+01 -2.3697370338321040e+00 -1 0 1
2083 695 1 -8.1999999999999995e-01 -7.4473385416791205e+00 -1.2745915631149717e+01 -2.8126255651140877e+00 -1 0 1
1222 408 1 -8.1999999999999995e-01 -2.3235260612901083e+00 -1.4291860350105623e+01 -2.5217372537011649e+00 1 2 0
1096 366 1 -8.1999999999999995e-01 -1.3217493997901553e+00 -9.2980560512271122e+00 -9.2548740496097714e-01 0 0 1
1518 506 2 4.0999999999999998e-01 -4.5526363239372909e+00 -1.2122433433908448e+01 -1.5586484624627577e+00 -1 1 -1
1906 636 1 -8.1999999999999995e-01 -7.7460656610816594e+00 -6.4540334592893878e+00 -1.0963404584394176e+00 2 0 0
1758 586 2 4.0999999999999998e-01 -3.3348957630444946e+00 -6.8714778683286912e+00 -3.5704163798502115e+00 -1 1 2
95 32 2 4.0999999999999998e-01 -4.5754563628752951e+00 -6.4530740429950146e+00 -2.1367170830325311e+00 -2 2 3
1011 337 2 4.0999999999999998e-01 -1.3769780276017229e+00 -1.1436954790212635e+01 -3.5695695282475679e+00 0 1 2
200 67 2 4.0999999999999998e-01 -4.5528982633533897e+00 -8.6654453054923728e+00 -6.8061820286884647e+00 -1 1 0
88 30 1 -8.1999999999999995e-01 -5.8658331986761958e+00 -1.2763312759197323e+01 -5.8734042046353689e+00 0 1 4
2356 786 1 -8.1999999999999995e-01 -5.5947122041895394e+00 -1.3351228212831401e+01 -8.6406980803151789e-01 -1 0 2
2147 716 2 4.0999999999999998e-01 -6.1480739776810527e+00 -9.5131831886593226e+00 -5.0222814310650499e-01 3 2 0
89 30 2 4.0999999999999998e-01 -6.6295893785938151e+00 -1.2774338255526745e+01 -5.2280749806025959e+00 0 1 4
1516 506 1 -8.1999999999999995e-01 -4.0470341022805947e+00 -1.1413436275991188e+01 -2.0501607226626675e+00 -1 1 -1
21 7 2 4.0999999999999998e-01 -2.0333153580733541e+00 -1.1168796198385339e+01 -6.4370340496549385e+00 -3 1 2
2146 716 1 -8.1999999999999995e-01 -7.1439142706739309e+00 -9.4753537958283172e+00 -5.8448347260555522e-01 3 2 0
1561 521 1 -8.1999999999999995e-01 -7.4179230765612756e+00 -7.1864666510456967e+00 -5.2115871818741333e+00 -2 -1 1
94 32 1 -8.1999999999999995e-01 -4.9187471762429880e+00 -6.2725713936728642e+00 -1.2150527713141610e+00 -2 2 3
1010 337 2 4.0999999999999998e-01 -1.2607711611938015e+00 -1.2667565917165359e+01 -2.5025932682424319e+00 0 1 2
1848 616 2 4.0999999999999998e-01 -5.3045118775016658e+00 -1.1151166136741043e+01 -5.1018153900369363e+00 3 0 1
1846 616 1 -8.1999999999999995e-01 -4.7850158376161360e+00 -1.0572113775893103e+01 -4.4735502360353969e+00 3 0 1
1517 506 2 4.0999999999999998e-01 -4.3947775426792610e+00 -1.1343517800011588e+01 -2.9850835978545369e+00 -1 1 -1
1084 362 1 -8.1999999999999995e-01 -2.5014938264081668e+00 -8.4443139105758895e+00 -3.5828263688272788e+00 2 1 0
1430 477 2 4.0999999999999998e-01 -4.6420955933358776e+00 -1.3911112114668422e+01 -4.9953926004853386e+00 -1 -2 3
1562 521 2 4.0999999999999998e-01 -6.5653068465519979e+00 -7.6467716951197380e+00 -5.4586898235271182e+00 -2 -1 1
201 67 2 4.0999999999999998e-01 -4.8809200086227165e+00 -7.1691732378457749e+00 -6.2405693045908315e+00 -1 1 0
1847 616 2 4.0999999999999998e-01 -4.8656848793501339e+00 -9.6165942222932053e+00 -4.7570458452260027e+00 3 0 1
199 67 1 -8.1999999999999995e-01 -5.0674257766419828e+00 -8.1447500680930087e+00 -6.1249825235744417e+00 -1 1 0
1907 636 2 4.0999999999999998e-01 -6.8008507773806492e+00 -6.1281859125688474e+00 -1.1132832988488257e+00 2 0 0
2060 687 2 4.0999999999999998e-01 -3.6688698897154648e+00 -5.2081997729180749e+00 -7.0197318891945484e+00 0 2 1
2061 687 2 4.0999999999999998e-01 -5.2863620200254768e+00 -5.2336544540825614e+00 -6.7974316544177764e+00 0 2 1
555 185 2 4.0999999999999998e-01 -8.8921163255069828e+00 -5.1201989781900483e+00 -3.4537527891099842e+00 1 1 1
1985 662 2 4.0999999999999998e-01 -3.5395172565271533e+00 -6.8669949698599524e+00 -2.7607379091278972e-01 0 0 3
375 125 2 4.0999999999999998e-01 -2.0509110409017257e+00 -5.3763673018935823e+00 -5.4027447110426685e-01 -1 1 0
1790 597 2 4.0999999999999998e-01 -2.3180444482335538e-01 -5.0481015621375143e+00 -5.4751798405549277e+00 2 1 0
1097 366 2 4.0999999999999998e-01 -1.1182735649847420e+00 -8.9752880856714157e+00 -1.1966996410439634e-03 0 0 1
2462 821 2 4.0999999999999998e-01 -1.4219481833085039e+01 -1.2487242196951517e+01 1.1306651396415290e+00 -1 1 2
2463 821 2 4.0999999999999998e-01 -1.2916602141979247e+01 -1.1711508769749342e+01 1.7365432637761238e+00 -1 1 2
2386 796 1 -8.1999999999999995e-01 -1.3011660523886437e+01 -1.0218737135417005e+01 5.4630500154527546e+00 1 1 0
2388 796 2 4.0999999999999998e-01 -1.3737648433486324e+01 -9.6980376279401010e+00 5.9121696537243764e+00 1 1 0
2256 752 2 4.0999999999999998e-01 -1.2898587014993135e+01 -8.0220538476037397e+00 4.2384665938871215e+00 3 1 0
2387 796 2 4.0999999999999998e-01 -1.3273396282905217e+01 -1.1182646571449064e+01 5.4154278779553806e+00 1 1 0
37 13 1 -8.1999999999999995e-01 -1.0020681305377526e+01 -8.4803780565933096e+00 1.6593319937894435e+00 -1 1 2
1933 645 1 -8.1999999999999995e-01 -7.8265144452264863e+00 -9.6758399887278550e+00 3.0286468106956228e+00 0 0 3
1935 645 2 4.0999999999999998e-01 -8.8070696700587270e+00 -9.4808240053398301e+00 3.0480139487011080e+00 0 0 3
1934 645 2 4.0999999999999998e-01 -7.6843198793204630e+00 -1.0656635386036232e+01 2.8955455214954036e+00 0 0 3
1812 604 2 4.0999999999999998e-01 -8.6203976745364237e+00 -1.2880372642332270e+01 3.5942346162044103e+00 -1 0 0
1799 600 2 4.0999999999999998e-01 -1.3996357945162062e+01 -1.3637729396010091e+01 4.9323277832254782e+00 -1 -1 1
1811 604 2 4.0999999999999998e-01 -9.7433578038995652e+00 -1.3385262824815976e+01 2.5216710596589920e+00 -1 0 0
1810 604 1 -8.1999999999999995e-01 -9.0510087924352742e+00 -1.2689383542618831e+01 2.7121960026023011e+00 -1 0 0
2254 752 1 -8.1999999999999995e-01 -1.2326927870211305e+01 -7.2152219153600798e+00 4.3872043757545534e+00 3 1 0
1233 411 2 4.0999999999999998e-01 -3.6922858316705867e+00 -8.8344174314166448e+00 4.5801460516988257e-01 0 1 1
1693 565 1 -8.1999999999999995e-01 -7.3424422875387307e-01 -9.0860187077948567e+00 1.7903352047150634e+00 -1 2 0
2500 834 1 -8.1999999999999995e-01 -1.2009247022881924e+01 -1.0417510355681264e+01 1.5925472784080164e+00 -1 2 1
289 97 1 -8.1999999999999995e-01 -1.3117566159838514e+01 -7.8305477884661787e+00 1.2229890791208966e+00 0 1 0
2385 795 2 4.0999999999999998e-01 -7.8929934650737668e+00 -1.2440408918541008e+01 1.5897194858876453e+00 0 0 2
406 136 1 -8.1999999999999995e-01 -9.2650759587435587e+00 -7.0208117638987657e+00 4.0137620035236523e+00 -2 1 1
291 97 2 4.0999999999999998e-01 -1.2729875896137919e+01 -8.6719649537595274e+00 1.5992978448025852e+00 0 1 0
1742 581 2 4.0999999999999998e-01 -1.3080012171775884e+01 -1.4134860616894889e+01 2.4133402819420340e+00 1 0 -1
408 136 2 4.0999999999999998e-01 -9.7232502525430107e+00 -6.4942815182686537e+00 4.7298186303291381e+00 -2 1 1
407 136 2 4.0999999999999998e-01 -9.7459299793801062e+00 -7.8868987327190165e+00 3.8774987981096132e+00 -2 1 1
2501 834 2 4.0999999999999998e-01 -1.1456464121172560e+01 -1.0828766452781988e+01 8.6784433715660114e-01 -1 2 1
67 23 1 -8.1999999999999995e-01 -8.1542276955610689e+00 -1.3311625668685748e+01 5.2863693422237148e+00 -1 2 4
2255 752 2 4.0999999999999998e-01 -1.2499598960971422e+01 -6.8483102720763149e+00 5.3012368787649677e+00 3 1 0
339 113 2 4.0999999999999998e-01 -1.1373910565859326e+01 -9.6970120616027398e+00 4.9266601002986263e+00 0 2 2
290 97 2 4.0999999999999998e-01 -1.2390938424697152e+01 -7.2882460251554777e+00 8.0130694666115510e-01 0 1 0
126 42 2 4.0999999999999998e-01 -3.8467589768412367e+00 -6.9632852269404788e+00 6.9769281348919030e+00 -2 -2 1
2461 821 1 -8.1999999999999995e-01 -1.3551462627214596e+01 -1.2471636610107142e+01 1.8745748648537024e+00 -1 1 2
69 23 2 4.0999999999999998e-01 -8.5930598942850693e+00 -1.4033887593831267e+01 5.8208399991612936e+00 -1 2 4
1061 354 2 4.0999999999999998e-01 -1.2385458585841823e+01 -5.8854157721665583e+00 3.3525689626653765e+00 -1 0 0
2383 795 1 -8.1999999999999995e-01 -7.0492182965056456e+00 -1.2217544535803764e+01 1.1015905722915136e+00 0 0 2
2273 758 2 4.0999999999999998e-01 -8.7332606015496417e+00 -6.1937141623509611e+00 2.5861804747581658e+00 0 1 1