2593
Atoms. Timestep: 1000000
O 3.98403 -3.40754 -11.0072
H 4.27446 -2.76162 -11.7132
H 4.64668 -3.40301 -10.2584
O 1.095 0.0535031 5.05303
H 1.34477 -0.25821 4.1363
H 0.14779 0.373996 5.04954
O -13.1791 0.124063 -3.37289
H -13.8522 0.601154 -2.80785
H -13.6394 -0.300742 -4.15238
O -10.1022 1.62765 12.579
H -9.25803 1.44016 13.0812
H -10.2813 2.61142 12.5837
O 7.28099 4.18128 -7.86289
H 7.70166 4.03927 -6.96689
H 6.35798 3.79659 -7.86249
O -14.5125 -1.53775 -5.28728
H -13.817 -2.14221 -5.67568
H 14.6829 -1.26506 -6.00359
O -2.81187 -7.58675 -1.14541
H -3.63096 -7.19942 -1.56849
H -2.04078 -7.50648 -1.77701
O 2.12697 14.7209 -2.44215
H 1.45164 14.6234 -3.17314
H 2.14428 -14.1671 -2.12894
O 5.04763 -0.899528 12.9225
H 5.2482 -1.58756 13.6198
H 4.05723 -0.793723 12.8338
O 10.6703 -12.3419 -14.4425
H 10.7517 -12.8987 14.5684
H 10.1228 -11.529 -14.6407
O -14.4647 -8.8429 4.50462
H 14.6034 -8.61694 5.10202
H -14.7389 -9.56137 3.86541
O 11.7659 -11.6198 9.6976
H 11.641 -10.7395 10.1552
H 11.938 -11.468 8.72431
O -10.0332 -5.59654 1.57249
H -10.6597 -6.23612 2.01798
H -9.99073 -4.74882 2.10117
O 0.0393618 -7.14174 11.7547
H 1.02231 -7.06938 11.5859
H -0.186901 -6.67685 12.6107
O -6.50722 -12.0449 -4.63198
H -7.48195 -11.899 -4.46296
H -5.97675 -11.6604 -3.87651
O 8.36605 -4.19438 11.7761
H 8.42558 -3.23685 12.0581
H 9.05559 -4.37907 11.0758
O -10.2393 -8.07278 -8.60641
H -10.5406 -7.86758 -9.53755
H -10.0014 -9.04169 -8.53898
O 13.9773 1.45864 14.8958
H 13.1084 1.00649 14.6944
H 14.672 0.769308 -14.7366
O 7.26064 1.06976 8.93071
H 7.01207 0.252363 9.45034
H 7.88776 1.63047 9.47133
O 2.84704 -5.93277 2.5904
H 2.31185 -5.96111 3.43462
H 3.6362 -6.54098 2.67547
O -4.66176 9.58438 -13.1909
H -4.62731 10.2514 -13.9351
H -5.58728 9.21262 -13.1191
O 14.1313 13.5367 -10.3195
H 14.6651 14.3004 -10.6826
H 14.2742 12.7287 -10.8909
O -9.63814 -13.8391 4.28962
H -8.64945 -13.7059 4.35812
H -9.90741 -14.6272 4.84302
O -3.76765 6.48455 -2.68047
H -3.07619 5.76403 -2.73213
H -4.01393 6.77703 -3.60445
O 8.16001 -8.06024 3.30066
H 8.2385 -7.16311 3.73532
H 8.01884 -8.7591 4.00181
O 1.42365 14.4457 -8.4977
H 1.10189 -14.7539 -7.7981
H 1.22 13.5088 -8.21348
O -6.13406 -14.0771 10.7018
H -6.58641 -14.0119 11.5912
H -6.80598 -13.9353 9.97493
O 5.25728 -9.8976 0.86481
H 5.65946 -10.5472 1.51
H 5.85305 -9.09887 0.780992
O 0.770477 -14.2808 -11.5423
H 0.809891 14.7639 -10.9342
H 1.69265 -14.0558 -11.8568
O -2.58167 -13.0498 -5.49151
H -2.19629 -13.9157 -5.81014
H -2.78674 -13.1155 -4.515
O -5.83293 1.66165 9.10936
H -6.48678 0.914043 8.9932
H -6.25159 2.38919 9.65282
O -5.76425 -2.56503 -0.968182
H -5.74302 -2.78132 0.00788323
H -5.52749 -1.60269 -1.10154
O -8.65943 5.77269 5.00344
H -9.14111 5.80736 4.12781
H -7.80185 5.27053 4.89244
O -5.02449 -9.96778 13.2534
H -4.89819 -10.1841 12.2853
H -4.56775 -10.6601 13.812
O -1.96274 3.9112 -10.808
H -1.79881 3.01871 -10.3878
H -1.15013 4.19403 -11.3175
O 2.58618 -12.1555 10.3193
H 3.25579 -12.8296 10.0078
H 3.06318 -11.3575 10.6876
O 8.37183 8.42484 0.348497
H 9.18239 9.00794 0.294633
H 8.63863 7.47019 0.216576
O 1.73814 -0.233971 2.3382
H 1.10483 -0.933745 2.0078
H 2.62554 -0.350218 1.89217
O 3.19663 2.92743 -5.14623
H 2.47245 3.26545 -4.5452
H 2.85036 2.86376 -6.08217
O 5.72553 13.441 -9.96612
H 4.97992 14.083 -10.1445
H 6.60008 13.9231 -10.0181
O -11.0991 -10.8146 -5.79666
H -11.5093 -9.90876 -5.6914
H -11.6704 -11.4946 -5.3372
O -4.04101 -7.70968 7.6169
H -4.24891 -7.86134 6.65061
H -3.08092 -7.44757 7.71411
O 4.32089 9.75418 1.084
H 4.96444 9.65764 1.84325
H 3.81148 10.6087 1.18545
O -3.17433 11.6637 10.8122
H -3.70386 10.8291 10.964
H -3.66766 12.2611 10.1799
O -0.853412 -1.23758 -11.8294
H 0.129175 -1.35427 -11.9738
H -1.05473 -1.28694 -10.8511
O 10.6535 -9.62849 14.055
H 10.6897 -9.59888 13.0561
H 11.5746 -9.50928 14.4255
O 11.9601 -5.43275 -6.44157
H 11.026 -5.78838 -6.47072
H 11.9992 -4.55852 -6.92544
O -11.7519 -7.22024 8.2874
H -10.8383 -6.96738 8.60573
H -11.7438 -8.1686 7.97041
O -13.5423 4.70319 -13.647
H -13.8249 4.124 -14.4116
H -14.1247 4.51797 -12.8555
O 9.61822 -12.3845 2.45812
H 9.03893 -13.123 2.80295
H 9.08399 -11.7987 1.84868
O 11.4625 -7.84716 -12.4417
H 11.0329 -7.67208 -13.3276
H 12.4485 -7.69662 -12.5139
O -9.18592 -9.04058 10.7131
H -9.50017 -8.17859 11.1108
H -8.22207 -8.9589 10.4596
O 5.1139 -12.8125 1.03547
H 4.48664 -12.7977 1.8141
H 4.72855 -13.3798 0.307772
O 14.3239 9.86633 8.83106
H 14.3563 10.1425 9.79158
H 14.7634 10.5661 8.26802
O 6.06477 -14.5258 12.1262
H 6.8792 -14.1922 12.6009
H 5.24708 -14.1545 12.5661
O 10.0338 -11.2091 -9.90105
H 10.9868 -11.4036 -9.66894
H 9.95376 -10.2635 -10.2162
O 8.81072 8.26213 9.4355
H 9.72314 8.53321 9.74201
H 8.32513 9.06305 9.08527
O -10.0469 -0.556882 4.63596
H -9.64587 -1.26591 4.05594
H -10.548 -0.98528 5.38783
O 8.11424 -14.7475 3.39792
H 7.62165 14.7978 2.57823
H 7.46112 -14.5724 4.13461
O -0.216683 -3.83003 6.62223
H -0.059459 -3.79271 7.60906
H -0.873001 -4.55589 6.41651
O 0.428243 -8.35057 -6.61521
H 0.235477 -9.0425 -7.31092
H -0.386255 -7.78926 -6.46872
O 9.80487 7.39615 -8.01365
H 10.2419 6.50427 -8.12977
H 10.3248 7.9387 -7.35389
O 11.7538 10.9558 -4.11322
H 11.4705 11.8565 -4.44246
H 11.2155 10.7112 -3.30682
O 5.51439 -0.313914 -10.0514
H 5.44148 -0.586917 -11.0106
H 4.9683 0.509373 -9.89671
O 2.8499 6.50731 5.34169
H 2.3285 6.6291 6.18623
H 3.81503 6.36778 5.56301
O -12.5823 -0.553545 3.34813
H -11.6456 -0.378456 3.65117
H -12.9762 -1.29361 3.89324
O -4.76291 -5.16513 -5.50525
H -4.6769 -4.44232 -4.81963
H -4.85898 -4.75469 -6.41203
O -6.92491 -12.6699 3.39364
H -6.3498 -12.1682 4.03981
H -7.03575 -12.1313 2.5584
O 5.74166 7.55478 10.6637
H 6.61732 7.18472 10.3536
H 5.56 8.41891 10.1945
O -3.90249 12.2704 -8.72661
H -3.87764 11.6267 -9.49138
H -4.60791 11.9885 -8.07637
O 3.35779 5.97034 10.3575
H 2.52952 6.12115 10.8971
H 3.97988 6.74383 10.4786
O 1.25417 -11.3392 -13.3228
H 1.47157 -11.4413 -14.2935
H 1.47542 -12.1869 -12.8407
O -9.7141 -8.18538 13.4898
H -10.066 -8.31076 14.4174
H -8.72812 -8.02279 13.5265
O -4.27876 -7.32242 12.069
H -3.94462 -7.89017 12.8213
H -4.13808 -6.35773 12.2915
O -6.52433 6.46578 -9.08957
H -7.35538 5.97291 -8.83194
H -5.95673 6.60875 -8.27881
O -0.570932 14.5576 6.61616
H -1.28129 14.9125 6.00842
H -0.695412 -14.8992 7.53241
O 4.70992 -3.20145 -3.35031
H 5.0386 -3.94533 -3.93215
H 5.1145 -3.28678 -2.43983
O 6.72838 -4.5204 8.18689
H 6.05527 -3.783 8.13103
H 7.64759 -4.14139 8.08038
O -0.832375 -0.492521 7.29892
H -1.23574 -0.746494 8.17797
H 0.16468 -0.525234 7.36783
O -2.93216 2.41422 -4.70222
H -2.12574 2.8338 -4.2856
H -3.43507 1.89807 -4.00896
O -6.40277 -3.82505 11.4437
H -6.13139 -2.93233 11.0841
H -6.37342 -4.50315 10.7094
O -1.07049 -1.91728 4.47326
H -1.8898 -1.45252 4.80892
H -0.600775 -2.35854 5.23785
O 9.62404 9.3376 -10.1435
H 9.85653 8.54829 -9.57529
H 10.331 10.0381 -10.0463
O -4.68757 -11.6885 -7.1949
H -5.67516 -11.7814 -7.0685
H -4.21164 -12.1095 -6.42281
O 10.3975 -4.04647 10.1757
H 10.3757 -3.21215 9.62493
H 10.9804 -4.72539 9.72932
O -9.60179 2.53832 -9.29241
H -10.5217 2.19863 -9.09679
H -9.66453 3.38695 -9.8176
O 11.1237 13.8878 -4.13047
H 10.1761 13.946 -3.81634
H 11.738 13.906 -3.34168
O 11.2904 12.9358 5.23954
H 12.289 12.986 5.24729
H 10.9271 13.6197 4.6069
O 6.93797 -10.8725 8.9624
H 7.33852 -11.5653 9.56208
H 6.77274 -11.2688 8.05927
O -6.29073 11.9258 -7.40361
H -6.46242 12.38 -6.52946
H -6.95904 11.1938 -7.53579
O 10.1339 12.6839 0.00331452
H 9.63332 12.345 0.799867
H 11.095 12.8166 0.245353
O 1.27838 -3.05539 -11.1165
H 2.25871 -3.01542 -10.9233
H 0.807285 -3.5053 -10.3578
O -6.38314 -11.1861 1.02245
H -6.13483 -10.2994 0.63252
H -5.57667 -11.6038 1.44085
O 8.57247 9.26874 -12.675
H 8.91702 9.86841 -13.3972
H 9.07435 9.44453 -11.8282
O -10.5298 10.2543 -8.38971
H -10.2318 9.49808 -8.97224
H -11.4786 10.1064 -8.1109
O -6.42239 4.66649 -3.2771
H -7.0924 4.9668 -2.59826
H -6.25867 5.40367 -3.93261
O -11.2895 -5.8402 -1.2426
H -12.0845 -5.24751 -1.37161
H -10.7376 -5.4969 -0.482647
O -6.56724 -8.02443 14.036
H -6.09651 -8.84651 13.7158
H -5.94571 -7.48399 14.603
O -12.2672 6.97213 -9.7371
H -12.8859 6.66344 -9.01469
H -12.6296 7.80655 -10.1523
O 1.34399 -5.83397 5.00099
H 1.5001 -6.64292 5.5677
H 1.12958 -5.0527 5.58714
O 14.8826 -1.30126 1.91639
H 14.8291 -0.499667 2.51181
H -14.0322 -1.68448 1.95545
O -13.0724 -7.71056 -0.521037
H -13.6679 -7.07481 -0.0299644
H -12.2682 -7.22115 -0.858062
O 8.31696 -1.83602 -9.38769
H 8.25908 -2.34096 -10.2489
H 7.95547 -0.912791 -9.5177
O 8.43748 -11.0528 -7.7774
H 9.0675 -11.1793 -8.54356
H 8.27752 -10.076 -7.63526
O -9.44649 -1.3323 -14.5019
H -9.18732 -0.440573 -14.8728
H -8.74356 -1.64455 -13.8629
O 14.55 -13.4892 -6.54829
H 13.6111 -13.7862 -6.7219
H 14.6807 -13.3543 -5.56613
O 14.8231 -4.00492 -9.18017
H -14.1133 -4.30041 -9.49731
H 14.1371 -4.68118 -9.44847
O 7.30556 11.5599 -2.71443
H 6.99807 10.9923 -1.95079
H 6.52644 11.779 -3.30172
O -11.272 -3.20079 -14.2163
H -10.6962 -3.99689 -14.0301
H -10.6931 -2.4083 -14.4081
O -7.54845 -7.66951 -8.17022
H -7.0232 -7.92441 -7.35839
H -8.5252 -7.76669 -7.97932
O -11.9024 11.3147 -0.494097
H -11.5618 10.5084 -0.977621
H -12.161 12.0167 -1.15761
O -13.009 -7.88074 -14.8899
H -12.0949 -8.14664 14.6419
H -13.6839 -8.16371 14.2661
O -10.8142 -10.1966 7.95852
H -10.6562 -10.82 8.7242
H -10.8712 -10.7203 7.10856
O 14.4381 2.10847 -9.362
H 13.5411 2.46124 -9.09546
H 14.4531 1.94741 -10.3488
O 8.77921 11.6103 2.39531
H 7.82552 11.6981 2.68293
H 9.20348 10.8437 2.87716
O -6.80228 3.40397 -10.0058
H -6.24963 4.20505 -9.77612
H -7.23369 3.04785 -9.17698
O 12.1498 -3.30521 3.05639
H 12.7946 -3.44526 2.30505
H 12.1652 -2.34474 3.33423
O -6.65445 9.56914 -10.118
H -6.64451 8.61163 -9.82982
H -5.7972 9.78554 -10.5851
O -3.89327 12.8204 2.81012
H -3.11508 13.0244 3.40406
H -3.81161 13.3441 1.96215
O -8.923 -3.78424 -7.68928
H -8.78731 -3.54312 -6.72835
H -9.47962 -4.61278 -7.74962
O -3.51827 2.95366 -13.4654
H -4.49317 2.74483 -13.5423
H -3.31267 3.24612 -12.5316
O 12.7236 12.009 -12.1933
H 12.34 12.8161 -12.6422
H 12.5237 11.1965 -12.7407
O -6.91271 12.4946 -13.8559
H -7.84037 12.8632 -13.7969
H -6.32685 12.9584 -13.1914
O 5.94854 -7.80683 12.7057
H 5.29651 -8.22624 13.3373
H 5.49037 -7.08883 12.1818
O -0.54794 -2.71599 1.92884
H -1.31814 -2.47861 1.3369
H -0.75071 -2.43723 2.86751
O -2.28763 4.21565 13.7922
H -2.65753 4.07142 14.7099
H -2.80379 3.66674 13.1347
O -3.02626 -10.401 3.98148
H -2.41081 -10.8992 4.59222
H -3.26631 -10.982 3.2038
O 3.56393 9.03882 12.5701
H 2.97078 8.25817 12.3734
H 4.36229 8.72904 13.0864
O -12.5692 8.096 10.8334
H -11.7857 8.05125 10.2136
H -13.3739 8.4123 10.3311
O -14.3901 -11.6592 -8.50879
H -14.3188 -12.3718 -7.8109
H -13.6803 -10.9715 -8.35656
O 7.83402 4.19613 -12.5871
H 7.64258 5.16793 -12.7245
H 8.27188 4.06518 -11.6977
O -2.43177 -11.0973 10.4202
H -3.12607 -10.6752 9.8374
H -2.76176 -11.9846 10.7425
O -11.4022 5.73986 -1.46174
H -11.9587 4.90912 -1.44921
H -11.5298 6.21339 -2.33319
O 7.95982 10.1544 12.4728
H 8.19011 10.7646 11.7148
H 7.03647 9.79368 12.3416
O 14.095 -6.79096 -12.6116
H 13.8929 -6.28467 -11.7733
H 14.079 -6.16486 -13.3912
O -8.28149 -8.81962 7.90552
H -8.19408 -7.92073 8.33482
H -8.99729 -9.34205 8.36881
O 1.87479 -0.704621 7.56505
H 1.93699 -0.526592 6.58303
H 2.48107 -0.079227 8.05622
O -3.88008 -14.8394 0.972766
H -2.91249 -14.8408 0.720376
H -4.44052 -14.8299 0.144668
O -11.8558 6.8063 4.55368
H -11.1424 6.25381 4.98459
H -11.5663 7.06468 3.63209
O -14.6501 5.81544 -2.15374
H 14.3416 5.80383 -1.62059
H -14.8356 5.48836 -3.08031
O 1.06068 12.7789 12.4777
H 0.345777 12.0835 12.5503
H 1.3228 13.0842 13.3931
O -3.06114 8.03571 8.50929
H -4.01253 8.33734 8.44739
H -3.03348 7.07359 8.78036
O -10.3869 -10.2474 -2.36897
H -10.0631 -9.30362 -2.30352
H -10.4038 -10.658 -1.45733
O 4.1503 2.12992 0.380092
H 3.4328 2.19167 1.07387
H 4.10477 2.92959 -0.218565
O 12.971 -12.3323 -2.00957
H 12.6691 -12.1659 -1.07088
H 12.4019 -11.8056 -2.64099
O 5.88595 -1.61101 5.27776
H 5.4597 -2.45562 4.9539
H 6.84846 -1.59831 5.00696
O 14.1614 -7.51332 -6.45481
H 13.451 -6.81884 -6.34107
H 14.4085 -7.88692 -5.56077
O 3.35614 12.1145 1.18549
H 3.37744 12.4977 0.262113
H 2.76722 12.6766 1.76614
O 8.67437 3.82675 -10.1051
H 9.35039 3.31299 -9.57687
H 8.02658 4.26425 -9.48144
O -11.7197 13.36 -6.61145
H -11.9875 14.3233 -6.59221
H -11.2395 13.1646 -7.46652
O 0.838218 -13.8082 -6.17202
H 1.28788 -13.5669 -5.31207
H 0.634412 -12.9755 -6.6867
O 11.8552 4.07826 -12.3669
H 11.5143 3.15687 -12.1805
H 11.1912 4.75147 -12.0418
O -3.78454 5.37377 -8.93491
H -3.05124 4.84297 -9.3597
H -4.04412 4.94902 -8.06765
O 0.632573 -10.3929 3.88229
H 0.203795 -11.0866 3.30359
H 0.1575 -10.3521 4.76126
O 6.4458 -1.26845 10.2552
H 5.95042 -0.924438 11.0528
H 5.79531 -1.64563 9.59603
O -0.0621289 -12.3261 -8.49286
H 0.388017 -11.4473 -8.6507
H 0.548794 -13.0679 -8.76935
O 14.2805 14.4694 6.50591
H 14.289 13.5593 6.09176
H 13.957 14.4031 7.44978
O -8.92856 11.0344 -1.68795
H -8.72346 10.5865 -2.55812
H -8.78081 12.0194 -1.77716
O 5.12418 13.1938 10.8634
H 4.52145 12.6701 11.4654
H 5.30813 14.0879 11.2717
O 2.44394 -13.7332 3.89136
H 2.55334 -12.7682 4.12968
H 2.44538 -14.2848 4.72547
O -0.0796792 4.43751 8.56318
H 0.23115 4.29 9.5021
H 0.209523 5.34373 8.25484
O -6.76749 -11.1191 11.1122
H -7.22235 -11.871 10.6351
H -7.10607 -11.0672 12.0517
O -10.5876 -2.48696 12.5002
H -10.1993 -2.39076 13.4167
H -11.1065 -1.66373 12.27
O -4.98839 5.94147 3.2116
H -4.07787 6.33761 3.32975
H -4.90897 4.95096 3.0997
O 1.81394 13.9214 2.42614
H 1.1311 14.206 1.75334
H 2.03973 14.6942 3.01925
O 3.14674 -10.6478 3.01132
H 2.19268 -10.4034 3.18447
H 3.37046 -10.4605 2.05486
O 7.11856 8.11034 -4.71098
H 7.66335 8.9396 -4.83531
H 6.48129 8.01248 -5.47534
O 0.650423 -14.04 11.2878
H 1.18172 -14.6784 11.8447
H 1.26759 -13.3864 10.8497
O 0.134809 5.30279 13.3833
H -0.815189 4.99945 13.4569
H 0.605068 5.13928 14.2505
O -0.739569 10.6145 11.812
H -0.598945 10.1281 10.9497
H -1.58244 11.1499 11.7591
O 13.0533 4.67603 10.0523
H 13.2572 5.35877 9.35072
H 13.2672 3.76413 9.7021
O -7.2501 8.40976 9.96719
H -8.10782 7.96867 9.70321
H -7.44798 9.27858 10.421
O -7.26116 -11.2717 7.0689
H -7.43882 -10.2994 7.22054
H -6.69948 -11.3841 6.24924
O -1.84506 11.3729 -2.30412
H -1.53019 11.6035 -1.38345
H -2.13091 10.415 -2.32842
O -14.3598 1.15484 -11.8824
H -14.3036 2.14073 -12.0398
H -13.5538 0.708706 -12.2713
O 7.53608 -11.9341 14.4806
H 8.05793 -12.7551 14.2492
H 7.17592 -11.5213 13.644
O 14.5666 -12.3635 0.811483
H 14.5606 -11.5499 0.230187
H 13.6487 -12.5192 1.17638
O -14.7853 5.73338 1.16417
H 14.8246 6.22747 0.325107
H 14.4579 4.93399 1.25185
O -3.37009 13.3288 13.2178
H -3.51598 12.5873 13.8726
H -3.22548 12.9446 12.306
O -14.0305 -11.4276 -11.1483
H -14.4236 -11.2928 -10.2388
H -13.7684 -10.5424 -11.5326
O 1.27928 14.3657 14.7346
H 1.70689 13.971 -14.2897
H 0.36027 14.6865 -14.8738
O -1.31767 -14.5818 9.41022
H -0.767655 -14.5257 10.2435
H -2.27304 -14.3817 9.62739
O -9.29978 0.107675 0.471403
H -10.1125 0.623881 0.741572
H -9.57711 -0.714196 -0.0261463
O 12.1659 -14.4194 -6.45563
H 11.9788 14.8179 -5.67798
H 11.478 -13.6944 -6.49006
O -9.20413 -3.46115 -4.86824
H -8.55784 -4.22225 -4.92294
H -8.77938 -2.69752 -4.38204
O -10.7197 8.33106 -12.145
H -11.5364 8.65067 -11.6646
H -10.0509 9.07276 -12.1952
O 0.793486 6.62733 1.63314
H 0.947337 5.82364 1.05839
H -0.102821 7.01902 1.42541
O 7.55482 -6.28975 -3.40011
H 7.22984 -5.56314 -4.00539
H 8.15256 -5.89833 -2.70052
O 2.97029 -7.31949 -5.74569
H 1.99363 -7.47243 -5.89627
H 3.43014 -8.19877 -5.62182
O 13.5227 -1.50198 11.756
H 14.3577 -1.61377 12.2946
H 13.4436 -2.25551 11.1034
O -2.54058 -7.62216 -13.1775
H -2.28917 -7.72469 -12.2151
H -1.80139 -7.97027 -13.754
O 0.335242 -1.09773 11.455
H 0.0658358 -0.822929 12.3779
H 0.682399 -0.302248 10.9583
O -2.9778 11.8655 7.34979
H -3.78579 12.4506 7.28061
H -2.28294 12.3212 7.90605
O 13.0934 -1.22887 -3.86699
H 14.0563 -1.29907 -4.12715
H 12.5321 -1.13347 -4.68908
O -9.20903 9.09968 -5.07488
H -9.67987 9.97947 -5.00988
H -8.66416 9.07438 -5.91298
O -2.58596 -12.9628 -8.93063
H -3.19386 -12.4291 -8.34277
H -1.64996 -12.9032 -8.5838
O -4.44651 -1.45277 7.94921
H -5.4045 -1.29552 7.7095
H -4.37755 -1.66681 8.92356
O -2.6774 -2.78593 -9.74279
H -2.72457 -3.47523 -10.4657
H -3.35274 -2.07013 -9.92021
O 7.44131 -8.62344 -6.84904
H 8.08336 -8.44387 -6.10374
H 6.53583 -8.81448 -6.47016
O 13.8339 -5.97373 14.6363
H 13.02 -5.6888 14.13
H 14.6502 -5.61367 14.1848
O -1.76716 2.17838 7.73984
H -1.06317 2.87626 7.87138
H -1.38948 1.41993 7.20875
O -10.6951 12.1775 14.3272
H -9.98004 12.552 14.9175
H -11.1848 11.4545 14.8145
O 0.489261 -3.26547 -7.98498
H 1.23183 -3.23052 -7.31617
H 0.153683 -2.33972 -8.15911
O -1.56744 -11.187 -11.2884
H -0.619337 -10.8927 -11.4085
H -1.60084 -11.9472 -10.6397
O -10.1232 13.2686 5.11027
H -10.2324 12.7115 4.28706
H -10.9577 13.2195 5.65905
O -14.6403 1.38224 0.104266
H 14.4607 0.741422 -0.112226
H -14.8024 1.78423 1.00541
O -2.30302 2.62407 11.0879
H -2.0909 2.70641 10.1142
H -3.19153 2.17893 11.199
O 4.94452 -2.83263 -14.9084
H 3.96825 -2.63448 -14.8215
H 5.09395 -3.81738 -14.8197
O -9.964 -11.5265 -8.31523
H -9.95769 -11.4783 -7.31644
H -9.79262 -12.4682 -8.60463
O -9.7338 -6.1066 11.2607
H -10.6075 -6.46222 11.5926
H -9.12442 -5.94237 12.0363
O 10.7574 6.24292 11.2789
H 11.7018 6.08254 10.9918
H 10.7213 7.04721 11.8719
O 9.19569 0.569186 1.16785
H 8.20942 0.416162 1.22939
H 9.60286 -0.118703 0.567051
O -14.1882 5.63242 7.45355
H -13.4197 6.26414 7.35259
H -14.6626 5.542 6.57792
O -8.36589 13.4391 9.3235
H -8.44734 14.2244 9.93726
H -9.18445 12.8699 9.40013
O -13.4783 13.0925 -12.3228
H -12.7148 13.6207 -11.9513
H -13.743 13.4685 -13.2107
O -6.24603 14.3411 3.12624
H -6.3648 -14.5085 3.028
H -5.27965 14.1089 3.01595
O -12.8908 -13.0213 -13.0266
H -13.2987 -12.2386 -12.5567
H -13.4542 -13.2672 -13.8153
O -13.8757 -13.3267 8.59929
H -13.4882 -13.2646 7.67955
H -13.9837 -14.2884 8.8512
O 7.56241 -0.721377 -5.33519
H 7.32984 0.25094 -5.35632
H 7.36667 -1.09124 -4.42699
O 7.55593 1.04039 -8.12753
H 6.63209 1.3873 -7.96594
H 7.72178 0.979791 -9.11179
O -12.6618 7.11778 -3.46172
H -13.4593 6.94223 -2.88446
H -12.5351 8.1044 -3.56401
O -6.59399 5.70353 1.02565
H -6.46137 4.85363 1.53557
H -6.54512 6.48013 1.6537
O -13.2681 -11.243 12.4846
H -12.4667 -11.3796 11.9024
H -14.0878 -11.1839 11.9149
O 4.35552 8.342 -5.85045
H 4.21139 9.00622 -6.58392
H 3.78353 8.58215 -5.06617
O 2.05106 -12.4223 7.08464
H 1.29952 -12.1201 7.671
H 2.12992 -13.4181 7.1305
O 8.52156 10.7824 -5.19447
H 8.03986 11.135 -4.39223
H 7.94841 10.8994 -6.00549
O -2.01378 -6.02184 9.93676
H -2.50317 -5.1511 9.98413
H -1.88318 -6.38146 10.8606
O 9.81116 -0.262344 -13.3272
H 9.4592 -1.19832 -13.331
H 10.3937 -0.122018 -14.1278
O -7.92013 -13.5221 8.7192
H -7.37987 -12.8474 8.21646
H -8.19598 -14.2569 8.09954
O 12.2055 13.7985 1.66224
H 13.1012 14.2164 1.81463
H 11.5616 14.4959 1.34777
O -1.07644 0.530326 13.0853
H -1.73409 0.991768 12.4899
H -1.02257 1.01281 13.9595
O -8.00849 9.53187 -7.62234
H -7.57054 9.26388 -8.48043
H -8.87897 9.98297 -7.81908
O -5.38144 -14.7094 -1.64477
H -6.18677 -14.439 -2.17224
H -5.43243 14.1516 -1.43581
O -5.08094 -0.0148281 -1.38741
H -5.49425 0.895174 -1.41926
H -4.17491 0.0156477 -1.80943
O -4.45539 -10.0818 8.70235
H -5.38151 -9.88373 9.02331
H -4.16503 -9.37018 8.06263
O 11.0854 11.2436 7.7173
H 11.0667 12.1152 7.22745
H 11.548 10.5563 7.15727
O -13.8044 -4.63865 13.8379
H -14.1563 -3.78341 13.4576
H -12.8462 -4.51863 14.0977
O 1.10923 11.1963 -3.72862
H 0.784279 10.3617 -4.17333
H 0.329896 11.7019 -3.35856
O 13.853 7.22604 -5.95333
H 13.8083 8.02696 -5.35628
H 14.0434 6.41178 -5.40503
O -10.6708 -3.48499 10.2256
H -10.7261 -2.99909 11.0979
H -10.2297 -4.37147 10.3653
O -7.54203 -13.9863 13.1112
H -7.59167 -13.0207 13.3661
H -7.28268 -14.5291 13.91
O 10.418 4.25934 -2.05045
H 10.6237 4.60841 -2.96466
H 11.1811 3.69923 -1.72805
O -14.6183 10.9207 0.437618
H -14.7918 10.7036 1.39818
H -13.6352 11.0335 0.293665
O -13.0928 3.66481 4.17953
H -12.4028 3.46304 4.87464
H -12.6522 4.07849 3.38284
O -6.30591 13.1192 -4.6839
H -6.84105 13.5889 -3.98178
H -5.33151 13.2185 -4.48232
O 7.42443 11.1805 5.54086
H 7.3188 12.0996 5.92031
H 6.55344 10.8773 5.15433
O 6.629 13.1868 7.2725
H 5.74242 13.022 7.70462
H 7.35679 13.062 7.94681
O 4.10589 13.2476 8.37606
H 4.19381 13.0856 9.35889
H 3.18733 12.9897 8.07661
O -1.23749 -13.5223 13.3056
H -1.53106 -14.4513 13.5306
H -0.646008 -13.5456 12.4997
O -13.6832 -0.921699 9.42806
H -12.7272 -0.84484 9.14509
H -13.913 -0.161705 10.036
O 5.31782 -5.55698 -14.1308
H 5.39075 -6.24759 -13.4113
H 6.20806 -5.43851 -14.5705
O 3.57789 -10.3999 5.81048
H 3.50425 -10.4939 4.81767
H 2.95499 -11.0447 6.25344
O 2.54853 0.694543 13.283
H 2.03203 0.0554152 13.8528
H 2.0342 0.886516 12.4472
O 3.78742 -0.326105 -3.59561
H 4.49199 0.329656 -3.32452
H 4.2009 -1.22847 -3.71689
O 6.99886 7.14906 4.34593
H 7.95553 6.86819 4.42232
H 6.44627 6.37175 4.04531
O 1.04931 -0.390379 -14.284
H 0.144656 -0.0109717 -14.0901
H 1.7394 0.108908 -13.7601
O -3.22937 -1.70515 1.37745
H -3.46438 -2.17078 2.23062
H -3.87509 -0.958832 1.21624
O -4.79436 -5.50917 9.21659
H -4.80328 -4.97112 8.37376
H -4.65385 -6.47401 8.99461
O 8.28703 -4.35895 -0.231714
H 8.95572 -4.64529 -0.917865
H 8.72876 -4.30994 0.664061
O -12.2326 4.76066 1.59961
H -13.027 4.54703 1.031
H -12.0571 5.74469 1.57091
O -14.2459 3.48496 13.8741
H -14.8235 4.22462 13.5289
H -14.8108 2.68206 14.0644
O -5.79895 7.39661 -4.52512
H -5.97163 8.38147 -4.53859
H -6.58858 6.91455 -4.90465
O -0.560715 10.4784 -10.86
H -1.01192 9.62906 -10.5863
H -1.04573 10.8778 -11.638
O -11.7885 13.2269 7.37996
H -12.525 13.6694 7.89144
H -11.2272 12.6849 8.00542
O 2.66148 -5.97025 8.09157
H 2.15742 -6.72794 7.67712
H 2.01842 -5.3423 8.52985
O 14.5588 -11.2671 10.6813
H -14.8411 -11.8593 10.0048
H 13.567 -11.2941 10.5561
O -0.649346 -7.99157 -2.88405
H 0.0146471 -8.20993 -2.16894
H -0.630788 -8.70445 -3.58504
O -7.28455 9.74438 -14.1153
H -6.93032 10.6655 -14.2767
H -7.85404 9.7456 -13.2933
O 2.79299 -12.8976 -4.52026
H 2.56835 -11.9587 -4.78106
H 3.14611 -12.9082 -3.58478
O 5.6442 5.09721 3.32815
H 5.29718 4.75154 4.19995
H 4.87597 5.35597 2.74265
O 13.6174 5.11661 12.8727
H 13.6651 5.0282 11.8777
H 14.0241 5.98709 13.1498
O 7.32844 -4.58594 -5.54565
H 7.79853 -3.74953 -5.82738
H 7.09484 -5.12557 -6.35445
O 11.1726 -7.04749 8.31662
H 11.0076 -6.70143 7.39308
H 10.4113 -7.63345 8.594
O 1.6041 4.18713 4.53888
H 2.09918 5.05024 4.63824
H 1.75956 3.61881 5.34683
O -0.823598 -11.6446 -0.358125
H -0.226632 -10.922 -0.00966725
H -1.6292 -11.2343 -0.785403
O 1.40632 7.12823 11.9075
H 0.892369 7.56636 11.17
H 0.808863 6.49529 12.3998
O -3.48826 -1.46573 -12.8462
H -4.07516 -1.20298 -12.0804
H -2.54447 -1.55409 -12.5278
O 12.6959 3.05471 4.3712
H 11.7016 3.00596 4.46594
H 13.1041 2.20272 4.69893
O -13.1865 9.85853 -3.93387
H -12.4814 10.5206 -3.68002
H -14.0324 10.3421 -4.15861
O -0.258506 -9.2585 -14.4148
H 0.54372 -9.72677 -14.0445
H -0.961387 -9.93192 -14.6437
O -2.11641 -4.2706 -14.0227
H -2.19041 -3.27342 -14.0126
H -2.2114 -4.62133 -13.0911
O 9.12341 5.95086 -0.191096
H 9.53699 5.47639 -0.968131
H 8.35234 5.41586 0.154104
O -3.51017 6.92372 -11.9079
H -4.50437 7.02233 -11.8655
H -3.2381 6.08472 -11.4367
O -11.7402 -2.83294 -5.87475
H -12.3108 -3.49024 -6.36702
H -10.9481 -3.30406 -5.48672
O -7.58265 12.6613 13.1785
H -8.27957 13.3514 12.9835
H -7.30543 12.729 14.1368
O 1.84483 9.1738 -11.7769
H 2.09978 9.36212 -12.7253
H 1.02097 9.69061 -11.5443
O -7.4123 -3.24486 -10.6713
H -7.43163 -2.68845 -11.502
H -8.17343 -3.89322 -10.6867
O -7.79511 -5.40252 13.1594
H -7.32109 -6.20471 13.5223
H -7.12394 -4.70973 12.8957
O -4.17505 -13.8807 13.7467
H -3.54536 -13.6351 14.4837
H -4.11907 -14.8641 13.5744
O 13.9205 -13.6321 -12.5727
H 14.4566 -13.156 -11.8757
H 13.7619 -13.0197 -13.3472
O 13.3052 -8.23974 6.57536
H 12.5723 -8.4613 5.93216
H 12.9383 -7.68113 7.31918
O 5.42295 -10.7844 -8.40615
H 5.58308 -11.6317 -7.89993
H 6.20874 -10.5941 -8.99459
O -8.71317 10.2263 -11.758
H -8.89167 11.2056 -11.6636
H -8.13312 9.91896 -11.0037
O 13.7633 5.49778 -8.95115
H 13.9028 5.86214 -9.87186
H 14.5952 5.62756 -8.41168
O -10.9473 -9.88114 -13.2611
H -10.604 -10.6092 -13.8544
H -11.0715 -10.2368 -12.3348
O -4.80745 10.7239 13.9795
H -5.803 10.7002 13.8885
H -4.39224 10.1999 13.2359
O -3.81204 10.6291 0.607279
H -4.14597 10.3113 -0.28012
H -4.34835 10.2045 1.33669
O -7.92699 0.552362 13.8348
H -7.23473 0.738384 14.532
H -7.56664 -0.106833 13.1748
O 9.8679 10.7806 -1.99907
H 8.92681 10.9674 -2.28082
H 10.1068 11.3671 -1.22517
O -11.6533 6.4642 12.8951
H -11.6747 6.60002 13.8856
H -11.9336 7.30763 12.4369
O -13.3013 -0.117853 -14.9141
H -12.6646 -0.0629074 -14.145
H -12.9026 0.337452 14.1274
O -5.3809 9.35003 7.94886
H -6.18795 8.99187 8.41826
H -5.61693 10.2034 7.48414
O -6.43932 3.67781 5.37177
H -7.13076 2.95783 5.31279
H -5.76283 3.43413 6.06669
O 1.06287 -3.41831 9.17771
H 0.43271 -2.78362 9.62493
H 1.53666 -2.94831 8.43303
O -9.41977 4.15675 9.55952
H -9.8889 4.58601 10.3313
H -9.96043 4.28433 8.72804
O 9.83871 1.63722 -6.8437
H 9.0269 1.36034 -7.35773
H 9.60705 2.40041 -6.24054
O 1.25222 -5.53704 -12.1471
H 1.57392 -4.59702 -12.0339
H 1.48689 -5.86156 -13.0633
O -5.21674 1.30582 -5.78344
H -4.30834 1.53892 -5.43644
H -5.26292 0.323187 -5.96298
O -10.9856 -1.03778 8.65404
H -10.7487 -0.296361 9.28183
H -10.9585 -1.90978 9.14274
O -11.5528 2.73041 6.35962
H -12.1653 2.99931 7.10292
H -11.5142 1.73274 6.30392
O 4.05971 2.57158 14.4103
H 5.03001 2.32984 14.4068
H 3.55066 1.9153 13.8535
O 14.8552 7.67462 13.0879
H -14.4895 8.11078 12.335
H 14.4571 8.37757 13.6772
O -12.7438 4.21275 11.5198
H -12.986 3.74231 12.3683
H -12.2065 5.02878 11.7328
O 1.71707 12.0773 4.48454
H 1.76864 12.7993 3.7946
H 1.29137 11.2651 4.08583
O 0.168338 -11.2102 8.89574
H -0.71359 -11.2997 9.35848
H 0.896542 -11.5311 9.50128
O -1.28811 6.09582 -6.01797
H -0.548277 6.09938 -6.6907
H -0.900504 6.07751 -5.09636
O -13.2426 -8.52544 -9.40554
H -13.0037 -8.70157 -10.3604
H -14.2309 -8.62078 -9.28617
O 9.42284 -13.0849 -6.32797
H 8.96946 -13.9761 -6.34045
H 8.83983 -12.408 -6.77729
O 11.219 4.93575 -8.14746
H 11.1471 4.03912 -8.58429
H 12.1479 5.28827 -8.26091
O 14.2116 -5.79075 4.47281
H 14.4886 -6.59876 4.9927
H 13.2769 -5.91344 4.13916
O -12.8558 9.36886 -10.5731
H -13.266 9.80166 -11.3758
H -13.1042 9.88428 -9.75297
O -2.15089 6.04905 4.03961
H -1.69757 5.21449 3.72665
H -1.61469 6.46405 4.7746
O -2.19328 13.2096 -12.3212
H -2.52524 13.6391 -11.4814
H -1.47701 13.7781 -12.7258
O 6.97548 12.9974 -13.0913
H 6.13658 12.4582 -13.1652
H 6.94743 13.5445 -12.2547
O 11.5548 3.03123 11.682
H 11.5327 3.037 12.6817
H 11.8221 3.93556 11.3493
O -12.736 13.6554 -2.22477
H -13.5243 13.1204 -2.52852
H -12.6973 14.5127 -2.73811
O -5.5975 -9.25625 -11.7681
H -4.81204 -8.76529 -12.1448
H -6.25665 -8.5995 -11.4018
O -9.15358 -1.06113 -8.8704
H -8.79087 -1.99069 -8.80487
H -8.77667 -0.503387 -8.13094
O 1.34915 -12.1269 13.8905
H 0.519634 -12.6603 13.7251
H 1.60836 -11.6455 13.0533
O 6.95172 7.06046 -13.0777
H 7.47356 7.86822 -13.3519
H 6.36798 7.28932 -12.2988
O -5.25939 -4.80867 -10.1928
H -4.81884 -5.08411 -11.0472
H -6.01676 -4.18735 -10.3935
O 9.92629 -1.82931 0.0761536
H 9.39331 -2.37726 0.720834
H 10.6767 -2.38032 -0.288761
O -9.8111 3.88984 0.896831
H -9.91701 3.57611 -0.0467246
H -10.7086 4.11553 1.27575
O 0.955091 -3.35235 12.531
H 0.583835 -2.56689 12.0359
H 1.75827 -3.70135 12.0483
O 0.143886 3.7234 11.2074
H 0.40417 4.21133 12.0405
H -0.761994 3.3175 11.3281
O 5.54257 -3.70005 2.17538
H 5.57973 -2.70729 2.28936
H 4.65208 -3.95955 1.80173
O -0.269092 14.6914 -3.84513
H -1.10002 -14.6922 -3.52359
H -0.0029661 -14.7659 -4.73086
O 12.8582 5.99113 -0.889973
H 12.4623 5.11258 -0.622898
H 12.1516 6.56164 -1.30861
O 1.83122 -3.73048 -3.4589
H 1.12755 -3.28286 -4.01064
H 2.71015 -3.27764 -3.60842
O -14.8243 1.93973 2.85347
H -14.5032 2.82503 3.18969
H -14.6996 1.24792 3.56465
O 5.56736 -14.1886 -4.57056
H 5.58803 14.6551 -4.67929
H 4.61796 -13.878 -4.52534
O -8.49363 10.2231 0.795397
H -8.71782 10.4589 -0.150156
H -8.94835 9.36741 1.0423
O -1.0552 -14.4573 -13.6371
H -0.64692 -14.1889 -12.7647
H -1.54864 -13.6801 -14.0274
O 4.96537 -14.8343 -0.850681
H 5.47006 -14.1307 -1.35094
H 4.07805 14.8555 -1.28745
O 11.8649 -0.467602 3.43323
H 11.1655 0.184338 3.72618
H 11.985 -0.404752 2.44249
O 13.6219 4.70918 -4.57044
H 14.0216 3.8604 -4.91649
H 12.6298 4.6058 -4.49962
O 11.7427 9.24066 1.22359
H 11.9495 10.051 1.77174
H 12.3088 8.47626 1.53208
O 10.0576 -13.689 -12.087
H 10.1756 -13.1821 -12.9408
H 10.5844 -13.2465 -11.3612
O 3.62172 -12.3588 -2.04272
H 4.61286 -12.3619 -2.17528
H 3.3297 -11.4537 -1.73362
O 14.0708 -4.12298 6.60901
H 13.8795 -4.46053 5.68737
H 14.2634 -4.89576 7.2137
O -2.94684 0.226853 -2.88459
H -2.2207 0.228531 -2.19709
H -2.79018 -0.518092 -3.53302
O 8.89517 -6.72351 -8.34506
H 8.88488 -7.45722 -7.66571
H 7.9567 -6.44493 -8.54901
O 14.7097 10.1669 2.91839
H 13.8443 10.4804 3.30933
H 14.7149 9.16778 2.87849
O -12.0949 0.448519 0.964559
H -12.4397 1.36756 0.773773
H -12.3675 0.175075 1.88698
O 13.1128 10.1801 -1.06943
H 14.0007 10.4064 -0.668813
H 12.4562 9.99089 -0.339371
O 2.39511 2.30668 -7.59037
H 2.33322 1.32107 -7.43328
H 1.48105 2.6753 -7.75936
O 5.99591 1.69408 -2.6793
H 6.95915 1.84395 -2.45651
H 5.86582 1.77526 -3.66744
O 5.27786 12.7166 -3.82759
H 4.64749 12.6728 -3.05257
H 4.78378 12.5071 -4.67134
O 3.20507 12.3506 -2.01804
H 2.80406 13.2653 -1.96837
H 2.71784 11.8098 -2.70371
O -7.29167 6.53592 12.0414
H -7.4774 7.13072 11.2593
H -6.41458 6.07447 11.9083
O -2.53598 14.319 -9.99941
H -2.56711 -14.5901 -9.62921
H -2.91278 13.68 -9.32887
O -5.05501 -6.27749 -2.25103
H -5.29152 -7.06569 -2.81913
H -4.93416 -5.4724 -2.83168
O 5.20444 6.97807 -2.90207
H 5.46694 6.85794 -1.94467
H 5.94512 7.43325 -3.39616
O 2.61626 12.5544 -13.3966
H 3.36064 11.8877 -13.4329
H 2.15051 12.4863 -12.5144
O -0.893212 10.505 3.77137
H -1.5333 10.088 4.41663