LAMMPS data file via write_data, version 15 May 2015, timestep = 2000000

4560 atoms
7 atom types
5040 bonds
3 bond types
7200 angles
2 angle types
10560 dihedrals
3 dihedral types
2400 impropers
1 improper types

-1.0763502675555259e-01 4.1387635026745990e+01 xlo xhi
-4.0433884491974936e-02 3.5938433884472119e+01 ylo yhi
-3.5711112484589691e-01 2.9555111124838550e+01 zlo zhi
-6.7234083837551181e-02 -1.7036217651000683e+01 -4.1707816797290791e-02 xy xz yz

Masses

1 12.0107
2 1.008
3 12.0107
4 12.0107
5 12.0107
6 12.0107
7 12.0107

Pair Coeffs # lj/cut/coul/cut

1 0 0
2 0 0
3 0 0
4 0 0
5 0 0
6 0 0
7 0 0

Bond Coeffs # harmonic

1 469 1.4
2 367 1.08
3 469 0.7

Angle Coeffs # harmonic

1 35 120
2 63 120

Dihedral Coeffs # opls

1 0 7.25 0 0
2 0 7.25 0 0
3 0 7.25 0 0

Improper Coeffs # cvff

1 2.5 -1 2

Atoms # full

219 13 3 0.0000000000000000e+00 -9.8025640971321126e-01 2.8318226247761702e+00 3.0335762282742502e+00 1 0 0
221 13 1 0.0000000000000000e+00 7.2588580586360263e-01 3.7778943400344445e+00 1.1049679447444765e+00 1 0 0
1737 93 7 0.0000000000000000e+00 1.0422222712694595e+00 1.2812993333788608e+01 4.3498954036281372e+00 1 0 0
580 33 4 0.0000000000000000e+00 4.8560130749888017e+00 4.5536446842063514e+00 1.9615254975605110e+00 1 0 0
228 13 3 0.0000000000000000e+00 8.2753255373762657e-02 2.0108191263479673e+00 2.6361951420779746e+00 1 0 0
242 14 2 0.0000000000000000e+00 -2.9088303181747679e+00 9.4872111359347500e-01 8.7381638403033932e+00 1 0 0
4408 234 1 0.0000000000000000e+00 -2.5630554648568742e+00 1.0017106174763997e+00 1.0095276790384631e+01 1 1 0
229 13 4 0.0000000000000000e+00 8.9299208706589472e-01 2.4774276132958919e+00 1.5157124964995976e+00 1 0 0
218 13 5 0.0000000000000000e+00 -1.1573011999187759e+00 4.1233392863172424e+00 2.5203594691959750e+00 1 0 0
234 13 2 0.0000000000000000e+00 -2.1014090534355883e+00 6.2426652823337958e-01 5.4166757045487870e+00 1 0 0
733 13 6 0.0000000000000000e+00 -4.4236686266486624e-01 2.4313410691033543e+00 2.9282002386597679e+00 1 0 0
1346 73 1 0.0000000000000000e+00 2.3132460214747179e+00 9.7517286458165646e+00 4.8739731813064102e+00 1 0 0
2127 114 4 0.0000000000000000e+00 -1.7803195043170166e+00 1.6658124543609521e+01 9.4191013424186085e+00 1 0 0
1758 94 4 0.0000000000000000e+00 -4.1783768374036434e+00 1.5538612990251313e+01 1.1606220829944236e+01 1 0 0
324 18 2 0.0000000000000000e+00 -4.3278495580148046e-01 2.9855012508339813e+00 1.2052774679823077e+01 1 0 0
585 33 2 0.0000000000000000e+00 7.8643836948360502e-01 7.1727331052339487e+00 3.9693081723521324e+00 1 0 0
1361 74 2 0.0000000000000000e+00 -1.3811857722439038e+00 1.3153275187618718e+01 1.2551507928373358e+01 1 0 0
985 53 2 0.0000000000000000e+00 -1.8608526734490283e+00 7.4337838149598916e+00 6.0292214437537632e+00 1 0 0
978 53 5 0.0000000000000000e+00 1.4884721530353850e-01 6.9406549943643094e+00 3.3919559031184607e+00 1 0 0
1764 94 1 0.0000000000000000e+00 -6.0241738545523935e+00 1.4404548540876069e+01 1.2559249046745812e+01 1 0 0
1772 94 2 0.0000000000000000e+00 -4.8760522707690921e+00 1.5719520271652701e+01 1.3632002250159832e+01 1 0 0
1749 93 4 0.0000000000000000e+00 8.3116136343944458e-01 1.3435144293904079e+01 2.0080279294063290e+00 1 0 0
1738 93 5 0.0000000000000000e+00 1.5379233212844401e-02 1.3705233799742890e+01 4.6919935994965858e+00 1 0 0
222 13 2 0.0000000000000000e+00 -3.7401219055836932e-01 5.5247626430210861e+00 1.0990736931919729e+00 1 0 0
579 33 3 0.0000000000000000e+00 3.7618491402020533e+00 5.2534370107609307e+00 2.5586872869946515e+00 1 0 0
1349 73 4 0.0000000000000000e+00 2.8008760603036511e+00 1.2575499661771836e+01 2.3884454726955329e+00 1 0 0
1761 94 2 0.0000000000000000e+00 -2.9199115673763862e+00 1.6047361706160093e+01 9.2868708316793640e+00 1 0 0
596 34 5 0.0000000000000000e+00 -1.4211951510704752e+00 6.7428532316103613e+00 1.1317817284244249e+01 1 0 0
1769 94 2 0.0000000000000000e+00 -6.6962536283064269e+00 1.4299534568560931e+01 1.3485425506486628e+01 1 0 0
588 33 3 0.0000000000000000e+00 3.7115678567944217e+00 5.4232048900449517e+00 3.9433419359557025e+00 1 0 0
589 33 4 0.0000000000000000e+00 2.5925279681816056e+00 6.0558264612421731e+00 4.5230182591262063e+00 1 0 0
989 53 4 0.0000000000000000e+00 -1.7214607993206850e+00 8.6625027574137317e+00 4.3188761840476761e+00 1 0 0
753 33 6 0.0000000000000000e+00 3.6116397437956969e+00 5.1920103887236033e+00 3.2879179091087343e+00 1 0 0
249 14 2 0.0000000000000000e+00 -1.4529027948303579e+00 3.4081889396896048e+00 1.1795649208134945e+01 1 0 0
1008 54 1 0.0000000000000000e+00 -3.3525102567310316e+00 9.8939462813611030e+00 8.7902151456697730e+00 1 0 0
578 33 5 0.0000000000000000e+00 2.8681720446776144e+00 5.9195310206023715e+00 1.7162178984074132e+00 1 0 0
1002 54 2 0.0000000000000000e+00 -2.4127910475646104e+00 1.0016656396472978e+01 1.0780364728939139e+01 1 0 0
582 33 2 0.0000000000000000e+00 1.0113522251490692e+00 6.9851736790713064e+00 1.5821749112394594e+00 1 0 0
998 54 4 0.0000000000000000e+00 -3.1771831614159614e+00 9.5546336013408730e+00 1.0165071994885137e+01 1 0 0
587 33 4 0.0000000000000000e+00 4.7899511196379745e+00 4.8982043665184021e+00 4.7029316275124771e+00 1 0 0
982 53 2 0.0000000000000000e+00 -3.5168702983270128e-01 5.6857115753137837e+00 5.0767698099655032e+00 1 0 0
251 14 2 0.0000000000000000e+00 -6.1583142578087982e+00 4.1997535145496299e+00 1.1811500797052298e+01 1 0 0
994 53 2 0.0000000000000000e+00 7.0173750221729359e-01 9.8700798938988861e+00 -1.7071061456799874e-01 1 0 0
1007 54 4 0.0000000000000000e+00 -6.0029200427211968e+00 7.1310694295614860e+00 1.0709672778289383e+01 1 0 0
2131 114 2 0.0000000000000000e+00 -2.5068828928431723e+00 1.5840948628894656e+01 9.2849259050785538e+00 1 0 0
1760 94 2 0.0000000000000000e+00 -3.6842747272276757e+00 1.5127082307060473e+01 7.0330970029022719e+00 1 0 0
2274 114 6 0.0000000000000000e+00 -2.7509583278288563e-01 1.7029142649061825e+01 1.0311542987949116e+01 1 0 0
227 13 4 0.0000000000000000e+00 4.1837019388895458e-01 8.0657299775315761e-01 3.1913909406380498e+00 1 0 0
977 53 7 0.0000000000000000e+00 -5.0859365810475810e-01 6.6290431055566943e+00 4.6071873412889977e+00 1 0 0
599 34 1 0.0000000000000000e+00 2.3665207245392494e-01 7.8204190825514299e+00 9.8282726184052738e+00 1 0 0
226 13 1 0.0000000000000000e+00 -3.5924891224573585e-01 2.6301060726482006e-01 4.2478454758768667e+00 1 0 0
1353 73 2 0.0000000000000000e+00 1.7998497516507890e+00 1.2894396208166693e+01 2.1534186939127147e+00 1 0 0
1004 54 1 0.0000000000000000e+00 -4.4211337847706558e+00 9.2846811179755679e+00 8.1209532157429560e+00 1 0 0
1750 93 1 0.0000000000000000e+00 -2.0526044049514356e+00 1.6200913090960011e+01 3.0085832279269527e+00 1 0 0
1350 73 1 0.0000000000000000e+00 3.6249529227633741e+00 9.5162602432641421e+00 5.1347886486394243e+00 1 0 0
1757 94 3 0.0000000000000000e+00 -4.4701567020499757e+00 1.5014390207088699e+01 1.0311872814802388e+01 1 0 0
983 53 2 0.0000000000000000e+00 7.6533191449332683e-01 6.2162277749844117e+00 2.9858251149473354e+00 1 0 0
2033 109 2 0.0000000000000000e+00 -1.0617642830061991e+00 1.7034295140495274e+01 4.5165914584428739e+00 1 0 0
984 53 2 0.0000000000000000e+00 1.3637510872084122e+00 7.7314033164852578e+00 1.1825827784643002e+00 1 0 0
1354 73 2 0.0000000000000000e+00 3.8374164265591104e+00 8.8068948844680079e+00 5.9338263299556901e+00 1 0 0
4385 233 2 0.0000000000000000e+00 4.2063639231209269e+00 3.2411885713374842e+00 3.9094845091671795e+00 1 1 0
597 34 3 0.0000000000000000e+00 -9.5415242899618846e-01 5.5282421386447567e+00 1.0929503836270104e+01 1 0 0
734 14 6 0.0000000000000000e+00 -4.6186199980649025e+00 2.3492519501043310e+00 1.0486572700350258e+01 1 0 0
4377 233 7 0.0000000000000000e+00 3.2725277873890808e+00 1.7639730357468681e+00 5.1764846618839631e+00 1 1 0
2107 113 4 0.0000000000000000e+00 4.5573204213527392e+00 1.7819828619790570e+01 2.0015360422245085e+00 1 0 0
244 14 1 0.0000000000000000e+00 -2.3343538796611725e+00 3.0752380370501635e+00 1.1305539446850167e+01 1 0 0
237 14 3 0.0000000000000000e+00 -4.4918784924670003e+00 2.0342561820041687e+00 9.8305486420230110e+00 1 0 0
1740 93 4 0.0000000000000000e+00 -1.5267635302035796e+00 1.5401369993009256e+01 3.9913904779276059e+00 1 0 0
1359 74 1 0.0000000000000000e+00 7.0150284444550515e-01 1.3888437439068484e+01 9.9771389628427212e+00 1 0 0
603 34 2 0.0000000000000000e+00 6.9041799747832844e-01 8.6634074725773687e+00 9.3155078789772965e+00 1 0 0
1355 74 7 0.0000000000000000e+00 -1.1298580541644121e-01 1.4156869366647420e+01 1.1104935084540301e+01 1 0 0
224 13 2 0.0000000000000000e+00 -2.6497254786536595e+00 2.8321187893079665e+00 4.4296855473472316e+00 1 0 0
246 14 3 0.0000000000000000e+00 -4.7512836498005901e+00 2.9674949425876131e+00 1.0843510050649835e+01 1 0 0
999 54 1 0.0000000000000000e+00 -5.6533450818381032e+00 6.7456458798503824e+00 1.2027064582609849e+01 1 0 0
605 34 4 0.0000000000000000e+00 6.4237385215053067e-01 4.2106328350964386e+00 9.6557084822806143e+00 1 0 0
606 34 3 0.0000000000000000e+00 1.3393627407499054e-01 5.4466296447043705e+00 1.0038899421050033e+01 1 0 0
607 34 4 0.0000000000000000e+00 7.0641946938487976e-01 6.5588765577774826e+00 9.4647125567616239e+00 1 0 0
2118 114 4 0.0000000000000000e+00 1.3314229417973165e+00 1.7205573197053795e+01 1.1281998470804313e+01 1 0 0
2029 109 1 0.0000000000000000e+00 -1.9412057325881955e+00 1.7260594144691119e+01 3.9342874189994941e+00 1 0 0
1012 54 2 0.0000000000000000e+00 -2.6659256699675993e+00 1.0524712784219489e+01 8.3442823306115184e+00 1 0 0
238 14 4 0.0000000000000000e+00 -3.1741062975705652e+00 1.5878410635426166e+00 9.5996785961478022e+00 1 0 0
598 34 4 0.0000000000000000e+00 -1.6849141200757991e+00 4.4058136731348707e+00 1.1252078750575789e+01 1 0 0
754 34 6 0.0000000000000000e+00 -4.3157586018751903e-01 5.2681798280796723e+00 1.0480248910323846e+01 1 0 0
2125 114 4 0.0000000000000000e+00 -5.5454936332772675e-01 1.5270225653009257e+01 1.1035083812548947e+01 1 0 0
1755 94 7 0.0000000000000000e+00 -4.2438041803532700e+00 1.4917197943898705e+01 7.8890192029104611e+00 1 0 0
581 33 1 0.0000000000000000e+00 1.6373731831145326e+00 6.6553591739889750e+00 3.6386679379298204e+00 1 0 0
2098 113 5 0.0000000000000000e+00 2.5816447195644305e+00 1.6908941118236790e+01 4.9575457923413984e+00 1 0 0
521 29 2 0.0000000000000000e+00 -1.8053003612081624e+00 5.4552728201198253e+00 3.3780551016555687e+00 1 0 0
1368 74 1 0.0000000000000000e+00 -1.1917675054299437e+00 9.4012110727945242e+00 1.1204318871457010e+01 1 0 0
979 53 3 0.0000000000000000e+00 -1.7285286884437734e-01 8.1036785941039042e+00 2.6410847650152558e+00 1 0 0
2106 113 1 0.0000000000000000e+00 5.3904536385603148e+00 1.6764224378289395e+01 1.8934184846893602e+00 1 0 0
2099 113 3 0.0000000000000000e+00 3.5868035683591168e+00 1.6891025163466210e+01 3.9772256470156453e+00 1 0 0
247 14 4 0.0000000000000000e+00 -6.0266346576710790e+00 3.3724271220267021e+00 1.1148214229818795e+01 1 0 0
2124 114 1 0.0000000000000000e+00 4.9394774945622100e-01 1.5016966986017961e+01 1.1967289596122283e+01 1 0 0
2253 93 6 0.0000000000000000e+00 -3.7981182485700726e-01 1.4244573192316375e+01 3.0000058173503255e+00 1 0 0
1493 53 6 0.0000000000000000e+00 -5.7438327174768267e-01 8.6665915717302155e+00 2.9744237905487720e+00 1 0 0
1747 93 4 0.0000000000000000e+00 -7.0022779632949139e-01 1.5121965665515624e+01 1.3218885211284552e+00 1 0 0
1081 58 2 0.0000000000000000e+00 1.8734195225337631e+00 9.2364210484184639e+00 7.5852761891951213e+00 1 0 0
4382 233 2 0.0000000000000000e+00 2.7832609969617748e+00 2.4903258672933020e+00 5.8491369897138350e+00 1 1 0
1291 70 2 0.0000000000000000e+00 -6.9447809972509731e+00 1.3322679305110173e+01 1.2516237332555313e+01 1 0 0
1365 74 4 0.0000000000000000e+00 4.0894619677785382e-01 1.0180601907374250e+01 9.6260240391018481e+00 1 0 0
528 30 2 0.0000000000000000e+00 -6.7867804352980752e+00 5.6093764195465967e+00 1.3861235064473245e+01 1 0 0
1358 74 4 0.0000000000000000e+00 -1.4826448097063976e+00 1.0751570591770307e+01 1.1604228648383016e+01 1 0 0
980 53 4 0.0000000000000000e+00 4.8560524414645045e-01 8.3906946642498994e+00 1.4253346898618870e+00 1 0 0
604 34 1 0.0000000000000000e+00 -4.3598355574018477e-02 3.0962342367513216e+00 1.0041953079373119e+01 1 0 0
1824 97 2 0.0000000000000000e+00 5.2300086901701963e+00 1.3662057664301969e+01 3.7084022914069017e+00 1 0 0
1351 73 2 0.0000000000000000e+00 1.4967045177684541e+00 9.1612461019529317e+00 5.4237247680226153e+00 1 0 0
248 14 1 0.0000000000000000e+00 -2.1185169620942053e+00 2.1419720545398042e+00 1.0301213016997043e+01 1 0 0
1341 73 1 0.0000000000000000e+00 3.8320920219550523e+00 1.3127125013435165e+01 1.6900770646096559e+00 1 0 0
1765 94 4 0.0000000000000000e+00 -6.3956654240671647e+00 1.3884944398381222e+01 1.1327183373171751e+01 1 0 0
1338 73 5 0.0000000000000000e+00 5.4606299765091002e+00 1.1859897398255963e+01 2.8768832923273329e+00 1 0 0
1339 73 3 0.0000000000000000e+00 4.3925887487294606e+00 1.1169980334915760e+01 3.4765453053123134e+00 1 0 0
1340 73 4 0.0000000000000000e+00 4.6690569310756835e+00 1.0163762100469199e+01 4.4489438839276705e+00 1 0 0
594 33 2 0.0000000000000000e+00 6.5691852454464836e+00 3.3186098196084912e+00 2.3620598215666369e+00 1 0 0
986 53 1 0.0000000000000000e+00 -7.8745539699526224e-01 1.0456108845683779e+01 1.1919019490713298e+00 1 0 0
529 30 2 0.0000000000000000e+00 -6.4386851112615471e+00 4.6622181672642222e+00 1.1661589102620889e+01 1 0 0
988 53 3 0.0000000000000000e+00 -1.1619967592596687e+00 9.0142282312510336e+00 3.0843812789333311e+00 1 0 0
1348 73 3 0.0000000000000000e+00 3.0416497697931382e+00 1.1500825143074879e+01 3.2801292453151407e+00 1 0 0
1345 73 2 0.0000000000000000e+00 3.4547154475875255e+00 1.3786096596131300e+01 9.3841473178594592e-01 1 0 0
577 33 7 0.0000000000000000e+00 1.7990481225073933e+00 6.5869965435454167e+00 2.2179751704795372e+00 1 0 0
1513 73 6 0.0000000000000000e+00 3.7099708731941790e+00 1.1270626895447924e+01 3.2389987062679344e+00 1 0 0
1364 74 1 0.0000000000000000e+00 -2.9375111797428399e-01 9.1150752031150919e+00 1.0189820089762904e+01 1 0 0
1756 94 5 0.0000000000000000e+00 -3.7616179970168950e+00 1.5384274881740478e+01 9.1506135693963824e+00 1 0 0
4383 233 2 0.0000000000000000e+00 2.2444684784045559e+00 -1.1747066135490820e-02 5.9627754892229108e+00 1 1 0
1347 73 4 0.0000000000000000e+00 1.9961704615149101e+00 1.0761229382320510e+01 3.9487278166851052e+00 1 0 0
4404 234 1 0.0000000000000000e+00 -1.6267385198616919e+00 1.7418269009580183e+00 1.0737856900052043e+01 1 1 0
2100 113 4 0.0000000000000000e+00 4.4149640347200725e+00 1.5717130400915270e+01 3.8562112245980575e+00 1 0 0
1745 93 2 0.0000000000000000e+00 2.1681425754714319e+00 1.1835769739727347e+01 2.7228653513912366e+00 1 0 0
1367 74 4 0.0000000000000000e+00 9.3377395129620933e-01 1.2559585544446746e+01 9.4936666853953788e+00 1 0 0
2130 114 2 0.0000000000000000e+00 -1.3440534804182311e+00 1.4498216745438372e+01 1.1056223004787242e+01 1 0 0
523 30 7 0.0000000000000000e+00 -7.5910185953651839e+00 5.6220215736175074e+00 1.3160266153337039e+01 1 0 0
217 13 7 0.0000000000000000e+00 -2.5831254708118223e-01 4.6363722253577055e+00 1.5759174640884397e+00 1 0 0
1356 74 5 0.0000000000000000e+00 -7.8953493612130554e-01 1.3043889927194797e+01 1.1646278599852456e+01 1 0 0
1748 93 3 0.0000000000000000e+00 -1.4724964523203421e-01 1.4264758989707031e+01 2.3426654713530883e+00 1 0 0
2129 114 2 0.0000000000000000e+00 5.3960164793408705e-01 1.4076569476259284e+01 1.2557205743235803e+01 1 0 0
2114 113 2 0.0000000000000000e+00 6.0496851948603689e+00 1.4878816627042156e+01 2.8132872214413958e+00 1 0 0
1762 94 2 0.0000000000000000e+00 -3.3439024145448948e+00 1.6209802016666725e+01 1.1690043001453748e+01 1 0 0
1768 94 1 0.0000000000000000e+00 -4.9693108998784332e+00 1.5225901279864891e+01 1.2648947641600355e+01 1 0 0
2117 114 3 0.0000000000000000e+00 2.8668341513132400e-01 1.7444903932761715e+01 1.0417915430988961e+01 1 0 0
2110 113 1 0.0000000000000000e+00 5.3743105036339847e+00 1.5718293336340130e+01 2.8353828198406443e+00 1 0 0
310 18 4 0.0000000000000000e+00 1.1159293815499121e+00 1.8348158249129642e+00 1.1114274619774921e+01 1 0 0
4393 233 2 0.0000000000000000e+00 5.2835125195514649e+00 1.6121922623636991e+00 2.4249292989812892e+00 1 1 0
2126 114 3 0.0000000000000000e+00 -7.0744658694014273e-01 1.6470553430891677e+01 1.0332206350242911e+01 1 0 0
2521 134 2 0.0000000000000000e+00 -4.6915580102024599e+00 1.7483531743914767e+01 1.0666050718619253e+01 1 0 0
990 53 1 0.0000000000000000e+00 2.1070152989392954e-01 9.5715867741257341e+00 7.2249244088268849e-01 1 0 0
612 34 2 0.0000000000000000e+00 -1.7509482965791614e+00 2.2289088727598165e+00 1.1003865510798914e+01 1 0 0
997 54 3 0.0000000000000000e+00 -4.1200038550449101e+00 8.7216726446298978e+00 1.0733950588162932e+01 1 0 0
1744 93 2 0.0000000000000000e+00 -1.7388441596267279e+00 1.5635382931299436e+01 5.0742838231882281e+00 1 0 0
981 53 1 0.0000000000000000e+00 -1.4113802966034223e+00 7.5801540096996103e+00 5.1012581146067548e+00 1 0 0
1357 74 3 0.0000000000000000e+00 -7.3378500265233360e-01 1.1767101069521068e+01 1.1076070001783064e+01 1 0 0
2111 113 2 0.0000000000000000e+00 6.0939939223756738e+00 1.6653641645154821e+01 1.0946935977108536e+00 1 0 0
4389 233 4 0.0000000000000000e+00 4.5975859084582167e+00 1.2605641568885873e+00 3.1839640409802028e+00 1 1 0
1494 54 6 0.0000000000000000e+00 -4.5662291866690223e+00 8.4048418853056539e+00 1.0309224145948157e+01 1 0 0
252 14 2 0.0000000000000000e+00 -1.1738798310439797e+00 1.9189317529724699e+00 9.9428803440249052e+00 1 0 0
993 53 2 0.0000000000000000e+00 -2.3451664904723635e+00 9.4348970999098256e+00 4.8385271975420334e+00 1 0 0
4378 233 5 0.0000000000000000e+00 2.8982587008627401e+00 4.0739004950990737e-01 5.2391125675772772e+00 1 1 0
602 34 2 0.0000000000000000e+00 -2.5546868723618470e+00 4.5492457630192691e+00 1.1773610402526321e+01 1 0 0
1514 74 6 0.0000000000000000e+00 -2.5947007112786391e-01 1.1641044401907356e+01 1.0536590900149337e+01 1 0 0
584 33 2 0.0000000000000000e+00 4.8816584887801309e+00 4.3878954744134653e+00 8.8037507994843556e-01 1 0 0
1369 74 2 0.0000000000000000e+00 -1.2111351355234756e-01 8.1606604976642405e+00 9.7604167269748832e+00 1 0 0
1056 57 2 0.0000000000000000e+00 5.5827571660656528e+00 9.5894285382437463e+00 3.1790479256781441e+00 1 0 0
583 33 2 0.0000000000000000e+00 3.0564917406975307e+00 5.7890614417423407e+00 6.5183807275531813e-01 1 0 0
1366 74 3 0.0000000000000000e+00 2.5710079895756976e-01 1.1525649549881875e+01 1.0072731681028239e+01 1 0 0
1342 73 2 0.0000000000000000e+00 5.9795596872618706e+00 1.3271142632513042e+01 1.4084505089060015e+00 1 0 0
4409 234 2 0.0000000000000000e+00 -1.7425248531897486e+00 2.8261612415060524e+00 1.0828901347347159e+01 1 1 0
1743 93 2 0.0000000000000000e+00 -2.8878710070603875e-01 1.3851264772935108e+01 5.7275004493207424e+00 1 0 0
1752 93 2 0.0000000000000000e+00 -3.6545678661950581e-01 1.4962557414968980e+01 3.3096785847576771e-01 1 0 0
4405 234 4 0.0000000000000000e+00 -4.8692093138214343e-01 1.0645695053900188e+00 1.1084808991014933e+01 1 1 0
590 33 1 0.0000000000000000e+00 5.7862974285850584e+00 3.9076580905918217e+00 2.7579372560960120e+00 1 0 0
1766 94 3 0.0000000000000000e+00 -5.6143881253560766e+00 1.4184619757049266e+01 1.0190180633696261e+01 1 0 0
1006 54 3 0.0000000000000000e+00 -5.1624782071222448e+00 8.0963737009159882e+00 1.0046010106570357e+01 1 0 0
1003 54 2 0.0000000000000000e+00 -6.1460754667769182e+00 6.0121168611081028e+00 1.2618908898265365e+01 1 0 0
1000 54 2 0.0000000000000000e+00 -4.2680864716415634e+00 7.0088312945389539e+00 1.3588809420026518e+01 1 0 0
1841 98 2 0.0000000000000000e+00 1.1785976300519305e+00 1.6391816861765484e+01 9.5850834823139301e+00 1 0 0
1055 57 2 0.0000000000000000e+00 5.4164048649410859e+00 7.2615851278972432e+00 3.7805772797251027e+00 1 0 0
232 13 2 0.0000000000000000e+00 1.1903161220193585e+00 2.0049842746460872e-01 2.7887861188419980e+00 1 0 0
1844 98 2 0.0000000000000000e+00 1.3590978297502332e-01 1.4207588055039698e+01 1.0166483664002804e+01 1 0 0
601 34 2 0.0000000000000000e+00 -2.1934180713108864e+00 6.7351813808913112e+00 1.2019866580505816e+01 1 0 0
4412 234 2 0.0000000000000000e+00 -3.4573266239454412e+00 1.4563622781340746e+00 9.7125421283949667e+00 1 1 0
1337 73 7 0.0000000000000000e+00 5.2115305856017393e+00 1.2821982131001958e+01 1.8944762580504926e+00 1 0 0
2254 94 6 0.0000000000000000e+00 -5.0651170067616409e+00 1.4604612723106577e+01 1.0299271815929853e+01 1 0 0
987 53 4 0.0000000000000000e+00 -1.4625047604683290e+00 1.0190572097570051e+01 2.4029917805788492e+00 1 0 0
1352 73 2 0.0000000000000000e+00 9.4093843530361232e-01 1.0896070420241323e+01 3.6574349556745700e+00 1 0 0
996 54 5 0.0000000000000000e+00 -3.8733642146756666e+00 8.3328489337131177e+00 1.2004934383175279e+01 1 0 0
2273 113 6 0.0000000000000000e+00 3.6370661596308000e+00 1.7325237017705668e+01 3.4104605638900947e+00 1 0 0
233 13 2 0.0000000000000000e+00 1.6767729006222583e+00 1.8329385550708566e+00 1.1726172120812544e+00 1 0 0
1001 54 2 0.0000000000000000e+00 -3.0362043966556538e+00 8.7739879500861875e+00 1.2472728148210214e+01 1 0 0
1739 93 3 0.0000000000000000e+00 -5.5021163144932417e-01 1.4444102893812481e+01 3.6722452263539944e+00 1 0 0
2520 134 2 0.0000000000000000e+00 -2.4919637911586179e+00 1.7516444921291260e+01 1.2029342386031242e+01 1 0 0
1080 58 1 0.0000000000000000e+00 1.3712043365883790e+00 8.4588874215334489e+00 9.4674995762726510e+00 1 0 0
250 14 2 0.0000000000000000e+00 -3.7436059958130201e+00 4.2477398368142465e+00 1.2373444093897515e+01 1 0 0
610 34 2 0.0000000000000000e+00 1.5329783251196707e+00 4.0799864788837965e+00 9.0885267288485032e+00 1 0 0
1074 58 2 0.0000000000000000e+00 1.1409796131313454e+00 7.6189549408938380e+00 1.1505647039227627e+01 1 0 0
995 54 7 0.0000000000000000e+00 -4.5756769034713507e+00 7.3523462618289885e+00 1.2652658003697807e+01 1 0 0
1076 58 1 0.0000000000000000e+00 2.2905541440266868e+00 8.9355239273434464e+00 8.5612193632372033e+00 1 0 0
600 34 2 0.0000000000000000e+00 -1.2658766429130104e+00 8.8068919795452736e+00 1.1061870386600757e+01 1 0 0
2057 110 2 0.0000000000000000e+00 -5.6902580783872576e+00 1.6640803509751084e+01 1.1184529950467439e+01 1 0 0
595 34 7 0.0000000000000000e+00 -8.1779504670964798e-01 7.8809505326660219e+00 1.0767730916826798e+01 1 0 0
1840 98 1 0.0000000000000000e+00 1.2060993426546318e+00 1.4370208820758645e+01 1.0329812632731930e+01 1 0 0
225 13 2 0.0000000000000000e+00 1.3988392281076627e+00 4.1443440793899340e+00 3.4107181992842706e-01 1 0 0
1362 74 2 0.0000000000000000e+00 -2.2015168543636925e+00 1.1032299525928849e+01 1.2316644425755243e+01 1 0 0
611 34 2 0.0000000000000000e+00 1.4204376881313268e+00 6.5089884855461717e+00 8.6776598859709466e+00 1 0 0
4381 233 1 0.0000000000000000e+00 4.0354141977742231e+00 2.1715535798553773e+00 4.0615738590611112e+00 1 1 0
245 14 4 0.0000000000000000e+00 -3.6514798508213739e+00 3.5175659342855510e+00 1.1541531075740156e+01 1 0 0
314 18 2 0.0000000000000000e+00 3.5021696474184605e-01 1.0878064848667215e+00 1.0929587916411915e+01 1 0 0
1084 58 2 0.0000000000000000e+00 3.5548249573689006e-01 8.4031572411479303e+00 9.1024299771498267e+00 1 0 0
1372 74 2 0.0000000000000000e+00 -1.7175706383021803e+00 8.5810678408783367e+00 1.1704588651704997e+01 1 0 0
220 13 4 0.0000000000000000e+00 -1.8334025804698031e+00 2.2373630522747314e+00 4.0282730384304992e+00 1 0 0
1825 97 2 0.0000000000000000e+00 5.4366931532774334e+00 1.6029916962078538e+01 3.4500224405751680e+00 1 0 0
1741 93 1 0.0000000000000000e+00 1.4272437365494843e+00 1.2612036412625800e+01 2.9802597460713502e+00 1 0 0
593 33 2 0.0000000000000000e+00 2.4501472261216160e+00 6.2616286137370167e+00 5.5889187358541745e+00 1 0 0
320 18 1 0.0000000000000000e+00 6.1290847284324013e-01 2.9728920798535312e+00 1.1756433114205000e+01 1 0 0
1370 74 2 0.0000000000000000e+00 1.0270175999992297e+00 1.0059644008609718e+01 8.6850562272856831e+00 1 0 0
608 34 1 0.0000000000000000e+00 -1.2344629388218760e+00 3.1850588028438716e+00 1.0796978806334163e+01 1 0 0
1836 98 1 0.0000000000000000e+00 1.8078070194942679e+00 1.5592514364332288e+01 9.9621957431350729e+00 1 0 0
1360 74 2 0.0000000000000000e+00 -2.5860861206618058e-01 1.5158349752165954e+01 1.1525876491232747e+01 1 0 0
230 13 1 0.0000000000000000e+00 -1.4582714318523633e+00 9.8653117767402176e-01 4.6468108661418572e+00 1 0 0
513 29 2 0.0000000000000000e+00 -2.0799074924699381e+00 6.9303431607040382e+00 5.4138908251164706e+00 1 0 0
1371 74 2 0.0000000000000000e+00 1.7748945142271726e+00 1.2414002618593452e+01 8.7050839419664552e+00 1 0 0
2103 113 2 0.0000000000000000e+00 2.3147964167696751e+00 1.5948373289117560e+01 5.4823878841171334e+00 1 0 0
1753 93 2 0.0000000000000000e+00 1.1783923317557476e+00 1.3241272806246215e+01 9.8736648727512710e-01 1 0 0
2104 113 2 0.0000000000000000e+00 4.4165932045040339e+00 1.4986378453260530e+01 4.5401373458858805e+00 1 0 0
4410 234 2 0.0000000000000000e+00 4.0452937636463204e-01 1.6469988156136861e+00 1.1503358828968125e+01 1 1 0
509 29 1 0.0000000000000000e+00 -2.9607076596269892e+00 6.6310714806256321e+00 4.7759104710996994e+00 1 0 0
609 34 2 0.0000000000000000e+00 4.3154911974121912e-01 2.2090326254566430e+00 9.7348065523208049e+00 1 0 0
1742 93 2 0.0000000000000000e+00 1.3562163679647470e+00 1.2214388524951898e+01 5.2471946934577662e+00 1 0 0
1363 74 2 0.0000000000000000e+00 1.2159281774365409e+00 1.4752521241022148e+01 9.5449631135116721e+00 1 0 0
1070 58 4 0.0000000000000000e+00 1.7776429573837227e+00 8.0161257615230070e+00 1.0717506107891074e+01 1 0 0
2123 114 2 0.0000000000000000e+00 -2.7523911526464366e+00 1.7928232529353895e+01 7.9645233665560546e+00 1 0 0
2119 114 1 0.0000000000000000e+00 -1.8663835314911386e+00 1.7771215459959624e+01 8.6108035313484628e+00 1 0 0
592 33 2 0.0000000000000000e+00 4.5929750260112758e+00 5.0532308836787410e+00 5.7302657547615263e+00 1 0 0
1333 72 2 0.0000000000000000e+00 -1.3907455057895266e+01 1.0829027394328774e+01 2.6079160930245735e+01 1 0 0
1794 96 4 0.0000000000000000e+00 -1.2444225476733592e+01 1.2812556603537386e+01 2.4292001770541383e+01 1 0 0
255 15 3 0.0000000000000000e+00 -8.5606605812313674e+00 1.9132069115976995e+00 1.7775294577133558e+01 1 0 0
1021 55 2 0.0000000000000000e+00 -7.5377225674888457e+00 1.1673436079052804e+01 1.7442959663618772e+01 1 0 0
1382 75 1 0.0000000000000000e+00 -4.4419072555606993e+00 1.3285052868959593e+01 1.6378130331028565e+01 1 0 0
2168 116 2 0.0000000000000000e+00 -6.0487024728245604e+00 1.6876564092152194e+01 2.3656684876817629e+01 1 0 0
1407 76 2 0.0000000000000000e+00 -8.6814569759630835e+00 1.2470310741707806e+01 2.7541319455469786e+01 1 0 0
264 15 3 0.0000000000000000e+00 -8.9911506158685270e+00 3.0679441969745183e+00 1.8374560061794806e+01 1 0 0
254 15 5 0.0000000000000000e+00 -7.2601732551119973e+00 1.8253443936864480e+00 1.7326537819115355e+01 1 0 0
2133 115 7 0.0000000000000000e+00 -3.9260466965551322e+00 1.4927992365640636e+01 1.8875270706327676e+01 1 0 0
4429 235 2 0.0000000000000000e+00 -3.1495717412145270e+00 5.7532799432418646e-01 1.6901057315227291e+01 1 1 0
735 15 6 0.0000000000000000e+00 -8.9102649032701819e+00 2.4277709868753399e+00 1.8054214721493942e+01 1 0 0
1040 56 1 0.0000000000000000e+00 -1.2785564978661556e+01 1.0289428330841863e+01 2.4003901903214103e+01 1 0 0
2161 116 4 0.0000000000000000e+00 -8.9748953096474686e+00 1.5600121534740961e+01 2.4855950080461589e+01 1 0 0
628 35 2 0.0000000000000000e+00 -4.8082767949490499e+00 2.5049635855512329e+00 1.7839360094109892e+01 1 0 0
1027 55 2 0.0000000000000000e+00 -8.4782215325515473e+00 5.3297834638919825e+00 1.9466442117760639e+01 1 0 0
615 35 3 0.0000000000000000e+00 -4.7066965243680912e+00 5.7857310089279377e+00 1.8406077830689213e+01 1 0 0
1378 75 2 0.0000000000000000e+00 -5.0518718283682729e+00 7.8761075251921060e+00 1.9125877478762519e+01 1 0 0
1100 59 2 0.0000000000000000e+00 -2.1627073560766306e+00 6.4026639296429719e+00 1.6641898143166006e+01 1 0 0
624 35 3 0.0000000000000000e+00 -5.2608342482052555e+00 4.5271993205089247e+00 1.8139202914897602e+01 1 0 0
625 35 4 0.0000000000000000e+00 -6.6289608043895853e+00 4.3318853161521531e+00 1.7979556834108866e+01 1 0 0
1028 55 2 0.0000000000000000e+00 -7.2878425566357690e+00 7.5412146681275125e+00 1.9647943989605867e+01 1 0 0
755 35 6 0.0000000000000000e+00 -4.9511485974096612e+00 5.0997957762329325e+00 1.8431299614590440e+01 1 0 0
2136 115 4 0.0000000000000000e+00 -6.2487133855727199e+00 1.6709838625990766e+01 1.6538377150257798e+01 1 0 0
614 35 5 0.0000000000000000e+00 -5.5332656487177401e+00 6.9059665006050386e+00 1.8538189231437872e+01 1 0 0
1048 56 2 0.0000000000000000e+00 -1.0963272352547458e+01 9.5698753855792589e+00 2.3050031523749567e+01 1 0 0
1796 96 2 0.0000000000000000e+00 -1.1193391743495800e+01 1.7344800383027515e+01 2.4508379853621832e+01 1 0 0
616 35 4 0.0000000000000000e+00 -3.2823173163217874e+00 5.9753499909887076e+00 1.8508404943840297e+01 1 0 0
1880 100 2 0.0000000000000000e+00 -7.2878942388502423e+00 1.6300353799961627e+01 2.6346168290967171e+01 1 0 0
4376 232 2 0.0000000000000000e+00 -1.4975880524284113e+01 3.6510694507871422e-01 2.8067389776423123e+01 1 1 0
1785 95 4 0.0000000000000000e+00 -1.0287348200715838e+01 1.4432943773236842e+01 1.9501841458960723e+01 1 0 0
1023 55 4 0.0000000000000000e+00 -8.0231988793183078e+00 7.3404122850798164e+00 1.8877445989834296e+01 1 0 0
2140 115 2 0.0000000000000000e+00 -6.5642120458791151e+00 1.5736424179804265e+01 1.6132267342949742e+01 1 0 0
1800 96 1 0.0000000000000000e+00 -1.4429612503556401e+01 1.2215972406943058e+01 2.5551268310883515e+01 1 0 0
634 36 4 0.0000000000000000e+00 -8.6545543204303570e+00 3.7570352080351617e+00 2.4147045036732226e+01 1 0 0
4417 235 1 0.0000000000000000e+00 -5.0491656826751568e+00 1.5215033302106469e+00 1.7404058035618949e+01 1 1 0
1117 60 2 0.0000000000000000e+00 -7.9417530737515296e+00 5.8149216238272299e+00 2.6604964612391569e+01 1 0 0
1386 75 1 0.0000000000000000e+00 -3.4648833625434134e+00 1.2349652442554721e+01 1.5904628193761202e+01 1 0 0