LAMMPS (15 May 2015)
Reading data file ...
  triclinic box = (-0.107635 -0.0404339 -0.357111) to (41.3876 35.9384 29.5551) with tilt (-0.0672341 -17.0362 -0.0417078)
  5 by 2 by 2 MPI processor grid
  reading atoms ...
  4560 atoms
  reading velocities ...
  4560 velocities
  scanning bonds ...
  3 = max bonds/atom
  scanning angles ...
  3 = max angles/atom
  scanning dihedrals ...
  8 = max dihedrals/atom
  scanning impropers ...
  1 = max impropers/atom
  reading bonds ...
  5040 bonds
  reading angles ...
  7200 angles
  reading dihedrals ...
  10560 dihedrals
  reading impropers ...
  2400 impropers
Finding 1-2 1-3 1-4 neighbors ...
 Special bond factors lj:   0          0          0         
 Special bond factors coul: 0          0          0         
  4 = max # of 1-2 neighbors
  8 = max # of 1-3 neighbors
  20 = max # of 1-4 neighbors
  16 = max # of special neighbors
4560 atoms in group all
720 atoms in group C
480 atoms in group S
1920 atoms in group H
720 atoms in group Si
240 atoms in group Na
240 atoms in group Ba
240 atoms in group O
4560 atoms in group naphthalene
2400 atoms in group carbon
960 atoms in group CO
Setting atom values ...
  720 settings made for charge
Setting atom values ...
  720 settings made for charge
Setting atom values ...
  1920 settings made for charge
Setting atom values ...
  480 settings made for charge
Setting atom values ...
  240 settings made for charge
Setting atom values ...
  240 settings made for charge
Setting atom values ...
  240 settings made for charge
Finding 1-2 1-3 1-4 neighbors ...
 Special bond factors lj:   0          0          0.5       
 Special bond factors coul: 0          0          0.5       
  4 = max # of 1-2 neighbors
  8 = max # of 1-3 neighbors
  20 = max # of 1-4 neighbors
  16 = max # of special neighbors
Neighbor list info ...
  4 neighbor list requests
  update every 1 steps, delay 0 steps, check yes
  master list distance cutoff = 12
Setting up run ...
Memory usage per processor = 13.4064 Mbytes
Step Temp Density PotEng E_vdwl E_tail E_coul E_long Press Volume Xy Xz Yz E_mol E_bond E_angle E_dihed 14[1] 14[2] 14[3] msd[4] msd2[4] msd3[4] msd4[4] naphthal Cella Cellb Cellc CellAlpha CellBeta CellGamma 2 3 27[1] 27[2] 27[3] 28[1] 28[2] 28[3] 
       0          298    1.2509986     3498.833            0            0            0            0   -15873.524    44657.537 -0.067234084   -17.036218 -0.041707817     3498.833    1521.0094     935.4334    889.67826    28.379601    18.846571    14.337846 7.7711016e-30 8.8746852e-30 6.8181724e-30 5.7534156e-30          298     41.49527    35.978931    34.423473    90.016431    119.66323    90.107069 3.7145981e-32 4.9466509e-24    28.379557    18.849013    14.339638    28.379812    18.845474    14.337264 
   10000    296.54227    1.2509986    3582.3865            0            0            0            0     1430.112    44657.537 -0.067234084   -17.036218 -0.041707817    3582.3865    1486.5963    1021.3842    916.72794    28.370822    18.850828    14.338546 0.0003370551 0.00033592293    2.5068447    2.5067337    296.54227     41.49527    35.978931    34.423473    90.016431    119.66323    90.107069  0.012032854    202.23306    28.380115    18.849298    14.338778    28.370944    18.851087    14.338171 
   20000    294.08392    1.2509986    3661.0743            0            0            0            0   -472.49617    44657.537 -0.067234084   -17.036218 -0.041707817    3661.0743    1511.9098    1041.9251    944.75291     28.37757    18.848351    14.342006 0.00034245606 0.00034204531    3.9600574    3.9600165    294.08392     41.49527    35.978931    34.423473    90.016431    119.66323    90.107069  0.019008276    205.47364     28.37914     18.84887    14.340104    28.378204    18.847213    14.343207 
   30000    295.87628    1.2509986    3518.7078            0            0            0            0     159.9122    44657.537 -0.067234084   -17.036218 -0.041707817    3518.7078     1453.533    988.63273    919.66148    28.380312    18.850089    14.332109 0.00035531344 0.0003544101     4.920252    4.9202214    295.87628     41.49527    35.978931    34.423473    90.016431    119.66323    90.107069  0.023617209    213.18806     28.37991    18.848167    14.339889    28.381073    18.849877    14.334174 
   40000    299.70262    1.2509986     3517.119            0            0            0            0    1067.8415    44657.537 -0.067234084   -17.036218 -0.041707817     3517.119    1462.6488    981.70286    916.61247    28.376406    18.845984    14.344019 0.00035252447 0.00034894773     5.654947    5.6548977    299.70262     41.49527    35.978931    34.423473    90.016431    119.66323    90.107069  0.027143745    211.51468    28.380911    18.847892    14.340335     28.37673    18.845497    14.343568 
   50000    300.54212    1.2509986    3627.5457            0            0            0            0    256.31572    44657.537 -0.067234084   -17.036218 -0.041707817    3627.5457     1493.803    1031.1463    945.43415    28.373436    18.848494    14.335776 0.00032146068 0.00032142291    6.3370524    6.3369947    300.54212     41.49527    35.978931    34.423473    90.016431    119.66323    90.107069  0.030417852    192.87641    28.379546    18.849016    14.339444    28.373399    18.848485    14.334515 
   60000    298.85716    1.2509986    3611.0244            0            0            0            0    1633.8683    44657.537 -0.067234084   -17.036218 -0.041707817    3611.0244    1474.1395    1012.5779    962.55561    28.380681    18.849419    14.344051 0.00034201662 0.00033986546    6.4947676    6.4947052    298.85716     41.49527    35.978931    34.423473    90.016431    119.66323    90.107069  0.031174884    205.20997    28.380232    18.850069      14.3404    28.380366    18.848824    14.344395 
   70000      289.463    1.2509986    3545.6602            0            0            0            0    1749.7894    44657.537 -0.067234084   -17.036218 -0.041707817    3545.6602    1480.1806    994.31266    913.65534    28.380642    18.850624     14.33726 0.00033745914 0.00033682609    6.6565201    6.6565011      289.463     41.49527    35.978931    34.423473    90.016431    119.66323    90.107069  0.031951296    202.47548     28.37963    18.849674    14.339202    28.381084    18.849642    14.337259 
   80000    295.71919    1.2509986    3538.1292            0            0            0            0   -442.09472    44657.537 -0.067234084   -17.036218 -0.041707817    3538.1292    1452.6342    1016.2898    911.99595    28.379977    18.847013    14.338509 0.00034329262 0.00033855994    6.7043121    6.7043106    295.71919     41.49527    35.978931    34.423473    90.016431    119.66323    90.107069  0.032180698    205.97557     28.38125     18.84955    14.340894    28.378606    18.845617    14.337389 
   90000    296.60392    1.2509986    3553.4348            0            0            0            0    654.18974    44657.537 -0.067234084   -17.036218 -0.041707817    3553.4348    1453.2959     1006.244    935.81969    28.383946    18.849667    14.337618 0.00035100761 0.00035078291    6.6145917     6.614565    296.60392     41.49527    35.978931    34.423473    90.016431    119.66323    90.107069   0.03175004    210.60456    28.379256    18.849338    14.339807    28.383587    18.848959     14.33675 
  100000    299.14855    1.2509986    3520.8204            0            0            0            0    1462.2537    44657.537 -0.067234084   -17.036218 -0.041707817    3520.8204    1498.9377    978.16664    892.55274    28.385124    18.846037    14.342546 0.00038160083 0.00037739401    6.7504528    6.7503834    299.14855     41.49527    35.978931    34.423473    90.016431    119.66323    90.107069  0.032402173     228.9605     28.37812    18.849171    14.341093    28.386158     18.84677    14.342497 
  110000    297.55708    1.2509986    3543.0968            0            0            0            0    2419.3865    44657.537 -0.067234084   -17.036218 -0.041707817    3543.0968      1440.38    1006.9147    938.34234    28.374826    18.844616    14.333409 0.00035796979 0.00035628515    6.8772735    6.8772239    297.55708     41.49527    35.978931    34.423473    90.016431    119.66323    90.107069  0.033010913    214.78188    28.378833    18.847936      14.3396    28.375781    18.843997    14.331683 
  120000    296.59902    1.2509986    3668.1451            0            0            0            0   -1445.3602    44657.537 -0.067234084   -17.036218 -0.041707817    3668.1451    1485.6323    1052.2426    962.84477    28.378654    18.846312    14.342381 0.00037271552 0.00037024122    6.6998581    6.6998342    296.59902     41.49527    35.978931    34.423473    90.016431    119.66323    90.107069  0.032159319    223.62931    28.378471      18.8497    14.338731     28.37688    18.847225    14.340756 
  130000     297.4506    1.2509986    3626.4544            0            0            0            0    1206.3726    44657.537 -0.067234084   -17.036218 -0.041707817    3626.4544    1489.8316    1059.6262    915.71039    28.384563    18.847392    14.338542 0.00037192042 0.00037101706    6.3968362    6.3967999     297.4506     41.49527    35.978931    34.423473    90.016431    119.66323    90.107069  0.030704814    223.15225     28.37883    18.848711    14.340171    28.385456    18.847589     14.33732 
  140000    298.54021    1.2509986    3615.5122            0            0            0            0   -214.57618    44657.537 -0.067234084   -17.036218 -0.041707817    3615.5122     1479.684    1038.9937    937.48079    28.376854    18.844024    14.330607 0.00033636815 0.00033470432    6.4156402    6.4155809    298.54021     41.49527    35.978931    34.423473    90.016431    119.66323    90.107069  0.030795073    201.82089    28.379474    18.849094    14.338353    28.376287    18.844335    14.330518 
  150000    299.41959    1.2509986    3666.2327            0            0            0            0    1686.7897    44657.537 -0.067234084   -17.036218 -0.041707817    3666.2327    1483.4966    1057.9143    958.80014    28.386869    18.857461    14.338951 0.00033660008 0.00033641643    6.3312567     6.331093    299.41959     41.49527    35.978931    34.423473    90.016431    119.66323    90.107069  0.030390032    201.96005    28.379322    18.848664     14.33972    28.386224    18.856471    14.338554 
  160000    295.88343    1.2509986     3568.313            0            0            0            0    526.67669    44657.537 -0.067234084   -17.036218 -0.041707817     3568.313    1422.2039    1049.2119    933.12297    28.377946    18.847058    14.340417 0.00035243838 0.00035164665    6.4922867    6.4922659    295.88343     41.49527    35.978931    34.423473    90.016431    119.66323    90.107069  0.031162976    211.46303    28.379813    18.849517    14.338951    28.377526    18.848515    14.339778 
  170000    300.87805    1.2509986     3569.843            0            0            0            0    1484.6827    44657.537 -0.067234084   -17.036218 -0.041707817     3569.843    1468.3203    1016.5366    925.56235    28.379591    18.852058    14.338233 0.00034970625 0.00034837209    6.8459757    6.8459282    300.87805     41.49527    35.978931    34.423473    90.016431    119.66323    90.107069  0.032860683    209.82375    28.379449    18.848887    14.340781    28.378243    18.852089     14.33838 
  180000    291.38767    1.2509986    3490.6634            0            0            0            0   -572.08674    44657.537 -0.067234084   -17.036218 -0.041707817    3490.6634     1430.407    1007.6374    893.33599    28.383392    18.844799    14.334218 0.00034802961 0.00034664874    6.9355464    6.9355026    291.38767     41.49527    35.978931    34.423473    90.016431    119.66323    90.107069  0.033290623    208.81776    28.380141     18.84823    14.338985     28.38193    18.843821    14.331217 
  190000    295.96273    1.2509986    3574.8924            0            0            0            0     38.83533    44657.537 -0.067234084   -17.036218 -0.041707817    3574.8924     1490.154    1005.0817    922.64404    28.389197    18.845595    14.336918 0.00036760199 0.00036509155    6.9400593    6.9399547    295.96273     41.49527    35.978931    34.423473    90.016431    119.66323    90.107069  0.033312285    220.56119    28.380267    18.847743    14.340265    28.390038    18.845645     14.33736 
  200000    297.78202    1.2509986    3594.7907            0            0            0            0   -146.53486    44657.537 -0.067234084   -17.036218 -0.041707817    3594.7907    1486.1613    1004.9774    948.04231    28.377807    18.852382    14.336747 0.00034326485 0.00034302181    6.7974621    6.7974175    297.78202     41.49527    35.978931    34.423473    90.016431    119.66323    90.107069  0.032627818    205.95891    28.379382    18.848636    14.339373    28.376417    18.851221    14.337512 
  210000    293.58537    1.2509986    3614.3006            0            0            0            0    991.09641    44657.537 -0.067234084   -17.036218 -0.041707817    3614.3006    1493.5017    1000.6338    961.08843    28.377733    18.852207    14.334926 0.00036648278 0.00036630037    7.2172649    7.2171958    293.58537     41.49527    35.978931    34.423473    90.016431    119.66323    90.107069  0.034642871    219.88967    28.379806    18.848698    14.339494    28.375844     18.85261    14.335726 
  220000     293.4679    1.2509986    3552.3131            0            0            0            0    1058.9823    44657.537 -0.067234084   -17.036218 -0.041707817    3552.3131    1489.4927    1050.2349    868.14681    28.376711    18.849069    14.338044 0.00036998625 0.00036859052    6.9071451      6.90712     293.4679     41.49527    35.978931    34.423473    90.016431    119.66323    90.107069  0.033154296    221.99175    28.378873    18.848081    14.339884    28.375838    18.848385    14.338131 
  230000    301.92115    1.2509986    3556.7321            0            0            0            0     1749.932    44657.537 -0.067234084   -17.036218 -0.041707817    3556.7321    1490.0156    1009.0829    907.13623    28.377975    18.845377     14.33794 0.00034026234 0.00033998474    6.8937765    6.8937671    301.92115     41.49527    35.978931    34.423473    90.016431    119.66323    90.107069  0.033090127     204.1574    28.379924    18.848763    14.339355    28.377665    18.843308    14.337639 
  240000    297.58188    1.2509986    3597.4639            0            0            0            0   -1057.4167    44657.537 -0.067234084   -17.036218 -0.041707817    3597.4639    1470.7562    1017.2334    949.93343    28.379762    18.847812    14.349167 0.00033880785 0.00033831957    6.7642505    6.7641024    297.58188     41.49527    35.978931    34.423473    90.016431    119.66323    90.107069  0.032468402    203.28471    28.379392    18.849618     14.33933    28.381094    18.847107    14.349254 
  250000    295.25371    1.2509986    3643.9618            0            0            0            0   -1329.9051    44657.537 -0.067234084   -17.036218 -0.041707817    3643.9618    1507.2563    1071.0854    905.87421    28.377979    18.850425    14.339823 0.00033011291 0.00032933667    6.6690928     6.669067    295.25371     41.49527    35.978931    34.423473    90.016431    119.66323    90.107069  0.032011645    198.06775     28.37984    18.849831    14.339477     28.37808    18.849575    14.339715 
  260000    304.39052    1.2509986    3577.0435            0            0            0            0    502.47219    44657.537 -0.067234084   -17.036218 -0.041707817    3577.0435    1484.0513    1026.9644    908.04613    28.381801    18.852192    14.341955 0.0003776978 0.00037608359      6.71777     6.717678    304.39052     41.49527    35.978931    34.423473    90.016431    119.66323    90.107069  0.032245296    226.61868    28.380016    18.849046    14.338454    28.383522    18.852744    14.342297 
  270000    301.65838    1.2509986    3635.3227            0            0            0            0    1728.2543    44657.537 -0.067234084   -17.036218 -0.041707817    3635.3227    1457.6443    1048.9252     963.9949    28.376123    18.854716    14.339995 0.00037931271 0.00037901821    6.6666466    6.6665243    301.65838     41.49527    35.978931    34.423473    90.016431    119.66323    90.107069  0.031999904    227.58763    28.379763    18.849488    14.339477    28.374922    18.854977    14.340109 
  280000    294.73631    1.2509986    3530.6301            0            0            0            0    309.04039    44657.537 -0.067234084   -17.036218 -0.041707817    3530.6301    1413.7387    1021.7365    939.51777    28.375813    18.848956    14.339863 0.00035817925 0.0003576682    6.8430432    6.8430039    294.73631     41.49527    35.978931    34.423473    90.016431    119.66323    90.107069  0.032846607    214.90755    28.379933    18.848663    14.339141    28.375873    18.849436    14.340097 
  290000    299.87024    1.2509986    3562.8763            0            0            0            0   -845.80942    44657.537 -0.067234084   -17.036218 -0.041707817    3562.8763    1500.4451    1003.6612    907.18041    28.380186    18.848489    14.342555 0.00038486961 0.00038413958    6.7990421    6.7989978    299.87024     41.49527    35.978931    34.423473    90.016431    119.66323    90.107069  0.032635402    230.92177    28.379623    18.849575    14.340278    28.381128    18.848938      14.3428 
  300000    297.43481    1.2509986    3553.1862            0            0            0            0    1230.2301    44657.537 -0.067234084   -17.036218 -0.041707817    3553.1862    1453.7826    1020.0561    922.73493     28.37893    18.843289    14.339266 0.00038275519 0.00038176037    7.3365452     7.336522    297.43481     41.49527    35.978931    34.423473    90.016431    119.66323    90.107069  0.035215417    229.65311     28.37922     18.84856    14.338816    28.377918    18.844032    14.341454 
  310000    298.50415    1.2509986    3697.1107            0            0            0            0    2235.8941    44657.537 -0.067234084   -17.036218 -0.041707817    3697.1107    1507.5605    1054.8106    968.87775    28.382861    18.853325    14.338895 0.00035077771 0.00035065498    7.0833288    7.0832305    298.50415     41.49527    35.978931    34.423473    90.016431    119.66323    90.107069  0.033999978    210.46663     28.37932    18.848768     14.33972    28.383747    18.853739    14.341066 
  320000    299.06157    1.2509986    3659.4483            0            0            0            0    1538.7628    44657.537 -0.067234084   -17.036218 -0.041707817    3659.4483    1547.3191    1025.6862    922.03086    28.377078    18.856083    14.337073 0.00039553224 0.0003953816    7.0851989    7.0850814    299.06157     41.49527    35.978931    34.423473    90.016431    119.66323    90.107069  0.034008955    237.31934    28.379671    18.849319    14.339429    28.375185    18.855238    14.338105 
  330000    304.10572    1.2509986    3631.7496            0            0            0            0    217.86711    44657.537 -0.067234084   -17.036218 -0.041707817    3631.7496    1485.3874    1031.3836    958.29973     28.38121    18.846904     14.33678 0.00037721055 0.00037501809    6.7868447    6.7868434    304.10572     41.49527    35.978931    34.423473    90.016431    119.66323    90.107069  0.032576855    226.32633    28.378419     18.84939    14.340508    28.380669      18.8461    14.336878 
  340000    297.61276    1.2509986    3555.2654            0            0            0            0    931.45173    44657.537 -0.067234084   -17.036218 -0.041707817    3555.2654    1503.2448    1001.7236    896.28994    28.379905    18.846613    14.342177 0.00036718168 0.00036357548    6.7713275    6.7713037    297.61276     41.49527    35.978931    34.423473    90.016431    119.66323    90.107069  0.032502372    220.30901    28.378245    18.850187    14.338925    28.379493    18.845812    14.342126 
  350000    296.31646    1.2509986    3623.7635            0            0            0            0    656.46542    44657.537 -0.067234084   -17.036218 -0.041707817    3623.7635    1501.3943    1039.7929    929.17889    28.386012    18.842874    14.339279 0.00037003777 0.00036709249    6.7359683    6.7359037    296.31646     41.49527    35.978931    34.423473    90.016431    119.66323    90.107069  0.032332648    222.02266    28.379279    18.849898    14.341082    28.387199    18.843811    14.339956 
  360000    298.14951    1.2509986    3565.7496            0            0            0            0    -1992.842    44657.537 -0.067234084   -17.036218 -0.041707817    3565.7496    1497.1203    1014.6544    904.89371    28.384733    18.852965    14.330215 0.00041106549 0.00040937705    6.8163854    6.8162559    298.14951     41.49527    35.978931    34.423473    90.016431    119.66323    90.107069   0.03271865    246.63929    28.378265    18.848879    14.339673    28.383396    18.853801    14.330386 
  370000    296.15293    1.2509986    3633.8777            0            0            0            0   -1389.9718    44657.537 -0.067234084   -17.036218 -0.041707817    3633.8777    1469.4073    1064.3214    943.19666    28.378737    18.852517    14.340692 0.00034332885 0.00034291774    6.8671013    6.8670319    296.15293     41.49527    35.978931    34.423473    90.016431    119.66323    90.107069  0.032962086    205.99731    28.379623    18.849548    14.339984    28.379929    18.853432    14.339719 
  380000    299.99047    1.2509986    3640.9293            0            0            0            0    809.03089    44657.537 -0.067234084   -17.036218 -0.041707817    3640.9293    1517.3028    1004.1336     957.5528    28.389688    18.854374    14.336253 0.00039011582 0.00038392535    6.7624729    6.7622592    299.99047     41.49527    35.978931    34.423473    90.016431    119.66323    90.107069   0.03245987    234.06949    28.380845    18.847528    14.338114    28.390362     18.85525    14.334647 
  390000    299.24883    1.2509986    3533.0311            0            0            0            0   -42.971546    44657.537 -0.067234084   -17.036218 -0.041707817    3533.0311    1434.5383    1024.3589    920.14539    28.383302    18.845833    14.343683 0.00033268636 0.00033050872    7.0586333    7.0585591    299.24883     41.49527    35.978931    34.423473    90.016431    119.66323    90.107069   0.03388144    199.61181    28.380133    18.848122    14.338613    28.385626    18.844633    14.343561 
  400000    299.23718    1.2509986    3661.6422            0            0            0            0    -233.2836    44657.537 -0.067234084   -17.036218 -0.041707817    3661.6422    1516.5364    1047.5785    938.62424    28.378243    18.850134    14.342558 0.00035004005 0.00034980535    6.9698624    6.9697728    299.23718     41.49527    35.978931    34.423473    90.016431    119.66323    90.107069   0.03345534    210.02403     28.37914    18.848921    14.339868    28.377906    18.851959    14.343895 
  410000    296.97954    1.2509986    3639.4978            0            0            0            0   -395.18338    44657.537 -0.067234084   -17.036218 -0.041707817    3639.4978    1481.6467    1069.7302    926.76812    28.373557    18.845529    14.343575 0.00037191645 0.00036915323     6.754869    6.7548041    296.97954     41.49527    35.978931    34.423473    90.016431    119.66323    90.107069  0.032423371    223.14987    28.379023    18.849376    14.338106    28.374874    18.844464    14.343551 
  420000    301.17645    1.2509986    3643.6213            0            0            0            0   -838.51639    44657.537 -0.067234084   -17.036218 -0.041707817    3643.6213    1502.8354    1050.1856    929.96769    28.382392    18.853597    14.335163 0.00037926334 0.00037785485    6.8462361    6.8461665    301.17645     41.49527    35.978931    34.423473    90.016431    119.66323    90.107069  0.032861933      227.558    28.378421    18.849329      14.3395    28.380006    18.853177    14.334064 
  430000    302.07713    1.2509986    3671.4234            0            0            0            0    542.64251    44657.537 -0.067234084   -17.036218 -0.041707817    3671.4234    1528.9081    1045.4541    938.16821    28.375493    18.846236    14.343308 0.00037147477 0.00036966508    6.9521315    6.9520684    302.07713     41.49527    35.978931    34.423473    90.016431    119.66323    90.107069  0.033370231    222.88486    28.378934    18.848009    14.340282    28.376253    18.844748     14.34433 
  440000    299.74189    1.2509986    3521.9518            0            0            0            0   -322.88103    44657.537 -0.067234084   -17.036218 -0.041707817    3521.9518       1489.5    971.28734    907.34968    28.382454    18.852357    14.336885 0.00035949252 0.00035901393    7.0551966    7.0551464    299.74189     41.49527    35.978931    34.423473    90.016431    119.66323    90.107069  0.033864944    215.69551     28.37926    18.848567    14.340076    28.383612    18.851284    14.335826 
  450000    300.57563    1.2509986    3586.4024            0            0            0            0    102.48441    44657.537 -0.067234084   -17.036218 -0.041707817    3586.4024    1467.9983     1044.079    916.91975       28.376    18.851731    14.342616 0.00034199002 0.00033931225    6.8092905    6.8092018    300.57563     41.49527    35.978931    34.423473    90.016431    119.66323    90.107069  0.032684595    205.19401    28.378231    18.849474     14.34048    28.376469    18.852702      14.3423 
  460000    300.64526    1.2509986     3652.492            0            0            0            0   -342.26352    44657.537 -0.067234084   -17.036218 -0.041707817     3652.492    1513.9749    1006.8653    962.31761    28.378783    18.845831    14.345354 0.00035270104 0.00035180585    6.8791452    6.8790419    300.64526     41.49527    35.978931    34.423473    90.016431    119.66323    90.107069  0.033019897    211.62062    28.379347    18.848227    14.340122    28.378651     18.84532    14.347357 
  470000    300.87113    1.2509986    3663.0161            0            0            0            0   -651.36387    44657.537 -0.067234084   -17.036218 -0.041707817    3663.0161    1507.3173     1051.081    948.23737    28.383839    18.841275    14.338247 0.00040154457 0.00040057745    6.8825475    6.8824672    300.87113     41.49527    35.978931    34.423473    90.016431    119.66323    90.107069  0.033036228    240.92674    28.380443    18.849439    14.339655    28.386218    18.839236     14.33669 
  480000    300.77649    1.2509986    3597.3726            0            0            0            0    904.92482    44657.537 -0.067234084   -17.036218 -0.041707817    3597.3726    1467.2679    1007.0153    958.44213    28.380647    18.846215    14.335749  0.000329368 0.00032888432    7.0171238    7.0171141    300.77649     41.49527    35.978931    34.423473    90.016431    119.66323    90.107069  0.033682194     197.6208    28.379938    18.848763    14.340163     28.38094    18.846191    14.334447 
  490000    298.81759    1.2509986    3646.4238            0            0            0            0   -694.46795    44657.537 -0.067234084   -17.036218 -0.041707817    3646.4238    1506.0877    1037.1321    936.84776    28.375975    18.848716    14.336481 0.00038177058 0.0003784203    7.0837444    7.0837303    298.81759     41.49527    35.978931    34.423473    90.016431    119.66323    90.107069  0.034001973    229.06235    28.380462    18.847424    14.339562    28.377877    18.848187    14.335519 
  500000    297.19584    1.2509986    3586.2144            0            0            0            0    539.74651    44657.537 -0.067234084   -17.036218 -0.041707817    3586.2144    1503.6105    996.90996    926.61709    28.379428    18.846889    14.346144 0.00037437971 0.00037355282    6.6652284    6.6651645    297.19584     41.49527    35.978931    34.423473    90.016431    119.66323    90.107069  0.031993096    224.62783    28.379402    18.848244    14.340098    28.380809    18.846946    14.345059 
  510000    300.85139    1.2509986    3582.7482            0            0            0            0   -809.97706    44657.537 -0.067234084   -17.036218 -0.041707817    3582.7482    1521.3016    1033.3911    880.91416    28.376856    18.857059    14.338291 0.00035115249 0.00034924329      6.54012    6.5399598    300.85139     41.49527    35.978931    34.423473    90.016431    119.66323    90.107069  0.031392576     210.6915    28.378338    18.849356    14.339084    28.375279    18.857277    14.337892 
  520000    302.47095    1.2509986    3620.4215            0            0            0            0     1694.955    44657.537 -0.067234084   -17.036218 -0.041707817    3620.4215    1512.1102     1003.286    941.92212    28.379492    18.843234    14.341145 0.00032190939 0.00032176586     6.698139    6.6981113    302.47095     41.49527    35.978931    34.423473    90.016431    119.66323    90.107069  0.032151067    193.14564    28.379861    18.849231    14.339581    28.379466    18.841955    14.341158 
  530000    295.11912    1.2509986    3574.9573            0            0            0            0    640.53107    44657.537 -0.067234084   -17.036218 -0.041707817    3574.9573    1432.6529    1056.7875    925.87603    28.378331    18.847753      14.3373 0.00035326327 0.0003511131    6.6936125     6.693605    295.11912     41.49527    35.978931    34.423473    90.016431    119.66323    90.107069   0.03212934    211.95796    28.379882    18.848683    14.338247     28.37747     18.84687    14.337607 
  540000    300.27619    1.2509986    3646.8574            0            0            0            0   -1661.0827    44657.537 -0.067234084   -17.036218 -0.041707817    3646.8574     1475.213    1045.2495    963.60937    28.377964    18.847931    14.336554 0.00035649936 0.00035491576    6.8675843    6.8675644    300.27619     41.49527    35.978931    34.423473    90.016431    119.66323    90.107069  0.032964405    213.89962    28.379494    18.850114    14.339032    28.378817    18.848876    14.334547 
  550000    298.13317    1.2509986    3654.5014            0            0            0            0   -1041.7298    44657.537 -0.067234084   -17.036218 -0.041707817    3654.5014    1497.1976    1057.6019     939.4691    28.377121    18.851759    14.345607 0.00035859194 0.00035823147    6.8668638    6.8667209    298.13317     41.49527    35.978931    34.423473    90.016431    119.66323    90.107069  0.032960946    215.15517    28.379602    18.848868    14.339057    28.377148    18.852085    14.346862 
  560000    291.28169    1.2509986    3583.1478            0            0            0            0   -1550.6514    44657.537 -0.067234084   -17.036218 -0.041707817    3583.1478     1506.646    992.30077    926.57216    28.379846    18.851163    14.340539 0.00033750357 0.0003368965     6.847157    6.8471195    291.28169     41.49527    35.978931    34.423473    90.016431    119.66323    90.107069  0.032866353    202.50214    28.379017    18.849575    14.339653    28.379767     18.85017    14.341195 
  570000    295.83054    1.2509986    3547.3394            0            0            0            0    762.33874    44657.537 -0.067234084   -17.036218 -0.041707817    3547.3394    1444.0689    1035.2554    911.64612    28.378907    18.846775    14.340886 0.00035393102 0.00035057745    7.1332351    7.1332208    295.83054     41.49527    35.978931    34.423473    90.016431    119.66323    90.107069  0.034239529    212.35861    28.379214    18.847442    14.338762    28.379023    18.846586    14.340791 
  580000    295.29411    1.2509986    3603.4709            0            0            0            0   -74.257597    44657.537 -0.067234084   -17.036218 -0.041707817    3603.4709    1512.2135    1043.9017    895.40108    28.372985    18.849056    14.342631 0.00034103528 0.00034034729    7.2531694    7.2530531    295.29411     41.49527    35.978931    34.423473    90.016431    119.66323    90.107069  0.034815213    204.62117    28.378729    18.848963    14.339675    28.371358    18.849543     14.34259 
  590000    302.09246    1.2509986    3527.3273            0            0            0            0    856.55263    44657.537 -0.067234084   -17.036218 -0.041707817    3527.3273    1456.1728    996.91491    918.10618    28.380299    18.850574    14.337211 0.00035253588 0.00035120324    7.2725613    7.2725448    302.09246     41.49527    35.978931    34.423473    90.016431    119.66323    90.107069  0.034908294    211.52153    28.378868    18.849642    14.338958    28.381036    18.849334    14.337007 
  600000    296.08508    1.2509986    3592.8475            0            0            0            0    728.39789    44657.537 -0.067234084   -17.036218 -0.041707817    3592.8475    1486.8292    1031.5805    919.75324    28.377472    18.850377    14.348078 0.00035066812 0.00035026665    7.0962119    7.0960929    296.08508     41.49527    35.978931    34.423473    90.016431    119.66323    90.107069  0.034061817    210.40087    28.379408    18.848735    14.339088    28.378271    18.849375    14.347334 
  610000    296.03976    1.2509986    3574.2708            0            0            0            0   -2016.1557    44657.537 -0.067234084   -17.036218 -0.041707817    3574.2708    1530.9354    997.15106    897.16578    28.377618    18.844697    14.338552 0.00032290867 0.00032224418    6.9906209    6.9906179    296.03976     41.49527    35.978931    34.423473    90.016431    119.66323    90.107069   0.03355498     193.7452    28.379876    18.848294    14.339424    28.378312    18.844979    14.337906 
  620000    299.16535    1.2509986     3603.313            0            0            0            0   -1156.8415    44657.537 -0.067234084   -17.036218 -0.041707817     3603.313    1505.3227    1004.3709    934.67509    28.379787    18.848811    14.339619 0.00035862154 0.00035846539    6.7694872    6.7694722    299.16535     41.49527    35.978931    34.423473    90.016431    119.66323    90.107069  0.032493539    215.17292    28.379779    18.848974    14.339314    28.381617    18.848762    14.338265 
  630000     299.6479    1.2509986    3550.6385            0            0            0            0   -45.484294    44657.537 -0.067234084   -17.036218 -0.041707817    3550.6385    1496.4516    1013.9826    885.41817    28.376588    18.848189    14.338532 0.00038563323 0.00038482604    6.9750043    6.9749926     299.6479     41.49527    35.978931    34.423473    90.016431    119.66323    90.107069  0.033480021    231.37994    28.380409    18.848756     14.33976    28.376658    18.846766    14.337494 
  640000    298.81755    1.2509986    3689.4994            0            0            0            0   -955.68247    44657.537 -0.067234084   -17.036218 -0.041707817    3689.4994    1511.7531    1069.8446     948.1562      28.3749    18.841877    14.336556 0.00035239995 0.00035147488     6.949069    6.9490236    298.81755     41.49527    35.978931    34.423473    90.016431    119.66323    90.107069  0.033355531    211.43997    28.379037    18.848985    14.340447    28.375278    18.841016    14.335032 
  650000    301.59921    1.2509986    3565.8115            0            0            0            0    955.04398    44657.537 -0.067234084   -17.036218 -0.041707817    3565.8115    1480.5741    1014.1387    917.01809    28.379534    18.848505    14.334589 0.00036465412 0.00036366958     6.969864     6.969818    301.59921     41.49527    35.978931    34.423473    90.016431    119.66323    90.107069  0.033455347    218.79247    28.380145    18.848441    14.339081    28.376912    18.851018    14.334646 
  660000    306.19364    1.2509986    3653.5036            0            0            0            0   -835.52991    44657.537 -0.067234084   -17.036218 -0.041707817    3653.5036    1511.3683    1031.6542     946.5657    28.381413    18.845757    14.337661 0.00040164046 0.00039883927    6.8185358    6.8185327    306.19364     41.49527    35.978931    34.423473    90.016431    119.66323    90.107069  0.032728972    240.98427    28.379352    18.850116    14.338396      28.3811     18.84534    14.336061 
  670000    303.52516    1.2509986      3567.41            0            0            0            0    534.93889    44657.537 -0.067234084   -17.036218 -0.041707817      3567.41    1476.5281    1021.4147    915.11662    28.375327    18.848589    14.342909 0.00036842596 0.00036701994    7.0148828    7.0148309    303.52516     41.49527    35.978931    34.423473    90.016431    119.66323    90.107069  0.033671437    221.05557    28.379169    18.848647    14.340697    28.374998    18.847404    14.342262 
  680000    304.04346    1.2509986     3612.472            0            0            0            0   -231.53195    44657.537 -0.067234084   -17.036218 -0.041707817     3612.472    1503.5201     1007.606    940.16991    28.377239    18.852001    14.342902 0.00034640933 0.00034607415     6.907322    6.9071996    304.04346     41.49527    35.978931    34.423473    90.016431    119.66323    90.107069  0.033155146     207.8456    28.379719    18.848813    14.340157    28.377059    18.853881    14.343908 
  690000    304.34123    1.2509986    3611.2464            0            0            0            0    57.912165    44657.537 -0.067234084   -17.036218 -0.041707817    3611.2464    1496.1413    983.19652    965.76549     28.38199    18.848112    14.336412 0.00034128791 0.00033965753    6.8800471    6.8800335    304.34123     41.49527    35.978931    34.423473    90.016431    119.66323    90.107069  0.033024226    204.77275    28.380067    18.848625    14.340742    28.382064    18.848367    14.336883 
  700000     292.9633    1.2509986    3568.4539            0            0            0            0    964.26435    44657.537 -0.067234084   -17.036218 -0.041707817    3568.4539    1467.3123    1034.0857    910.64323    28.379852    18.850487     14.33953 0.00037422831 0.00037406001    6.8686913    6.8686331     292.9633     41.49527    35.978931    34.423473    90.016431    119.66323    90.107069  0.032969718    224.53698    28.379169    18.848901    14.339561    28.381927    18.852004    14.340595 
  710000    303.18976    1.2509986    3574.0179            0            0            0            0   -1356.1388    44657.537 -0.067234084   -17.036218 -0.041707817    3574.0179    1499.8686     1007.865    910.76104     28.38489    18.847801    14.340584 0.00033622065 0.00033557166    6.9948662    6.9948387    303.18976     41.49527    35.978931    34.423473    90.016431    119.66323    90.107069  0.033575358    201.73239    28.379081    18.848678    14.340196    28.383585    18.847353    14.340391 
  720000    292.96764    1.2509986    3557.1133            0            0            0            0    446.53612    44657.537 -0.067234084   -17.036218 -0.041707817    3557.1133    1505.5179    1019.8624      883.721    28.377636    18.855284    14.339031 0.00036012985 0.00035917498    6.9162574    6.9161263    292.96764     41.49527    35.978931    34.423473    90.016431    119.66323    90.107069  0.033198036    216.07791    28.380223    18.848801    14.338956    28.377161    18.856272    14.340007 
  730000    293.52944    1.2509986    3535.6881            0            0            0            0    261.71711    44657.537 -0.067234084   -17.036218 -0.041707817    3535.6881    1456.3181    1027.6349    894.94697    28.370011    18.849913    14.343461 0.00035469471 0.0003510616    6.9413387    6.9411529    293.52944     41.49527    35.978931    34.423473    90.016431    119.66323    90.107069  0.033318426    212.81683    28.380203    18.847667    14.340823    28.368349    18.850309    14.342833 
  740000    299.72558    1.2509986    3617.8617            0            0            0            0   -272.52706    44657.537 -0.067234084   -17.036218 -0.041707817    3617.8617    1502.7152    1017.6889    935.97563    28.376408    18.847575    14.345877 0.00034307297 0.00034149493    7.0122196    7.0121105    299.72558     41.49527    35.978931    34.423473    90.016431    119.66323    90.107069  0.033658654    205.84378    28.378774    18.848994    14.340621    28.378861    18.848941    14.347072 
  750000    302.31069    1.2509986    3670.2134            0            0            0            0    63.758038    44657.537 -0.067234084   -17.036218 -0.041707817    3670.2134    1451.8549    1047.0277    1002.5012    28.386457    18.847113      14.3365 0.00031500979 0.00031330497    6.8885796    6.8885235    302.31069     41.49527    35.978931    34.423473    90.016431    119.66323    90.107069  0.033065182    189.00587     28.37878    18.849625    14.338786    28.386215     18.84929    14.336499 
  760000    298.40034    1.2509986    3556.2196            0            0            0            0    398.31256    44657.537 -0.067234084   -17.036218 -0.041707817    3556.2196    1493.4223    992.89583     915.9495    28.370475    18.847873    14.335567 0.00036262342 0.00036194788    6.6561987    6.6560902    298.40034     41.49527    35.978931    34.423473    90.016431    119.66323    90.107069  0.031949754    217.57405    28.379659    18.848666      14.3389    28.369908    18.847154    14.334519 
  770000     301.4786    1.2509986    3519.3908            0            0            0            0   -353.52429    44657.537 -0.067234084   -17.036218 -0.041707817    3519.3908    1422.9582    997.04157    941.45417    28.385052    18.848262    14.341559 0.00034434137 0.00034318401    6.7928204    6.7927538     301.4786     41.49527    35.978931    34.423473    90.016431    119.66323    90.107069  0.032605538    206.60482    28.379668    18.848811    14.340689    28.386301    18.847824    14.341622 
  780000    300.04592    1.2509986    3587.0446            0            0            0            0   -452.71994    44657.537 -0.067234084   -17.036218 -0.041707817    3587.0446    1511.6419    991.45007    925.66725     28.37886    18.852094    14.342507 0.00033022471 0.0003278625    6.9339215    6.9338531    300.04592     41.49527    35.978931    34.423473    90.016431    119.66323    90.107069  0.033282823    198.13483    28.380926    18.849711    14.339617    28.377589    18.852176    14.341569 
  790000    292.03834    1.2509986    3632.4476            0            0            0            0    311.76308    44657.537 -0.067234084   -17.036218 -0.041707817    3632.4476    1519.1677    1054.6096    902.16209    28.382786    18.845592    14.339804 0.00036558615 0.00036500579    6.8967988    6.8967902    292.03834     41.49527    35.978931    34.423473    90.016431    119.66323    90.107069  0.033104634    219.35169    28.379064     18.84915    14.340203    28.381896    18.845098    14.339305 
  800000    302.47951    1.2509986    3603.9308            0            0            0            0   -942.01613    44657.537 -0.067234084   -17.036218 -0.041707817    3603.9308    1489.5301    1033.6569     925.0509    28.375931    18.849313    14.341549 0.00034705931 0.00034652616    6.8039169    6.8038551    302.47951     41.49527    35.978931    34.423473    90.016431    119.66323    90.107069  0.032658801    208.23559    28.379667    18.848425     14.33922    28.376339    18.847634    14.343978 
  810000    297.84774    1.2509986    3521.5266            0            0            0            0   -784.21598    44657.537 -0.067234084   -17.036218 -0.041707817    3521.5266     1488.717    999.38134     884.6725     28.37923    18.849039    14.333795 0.00033139747 0.00033027172    6.8766574    6.8766385    297.84774     41.49527    35.978931    34.423473    90.016431    119.66323    90.107069  0.033007955    198.83848    28.378543     18.84883    14.339894    28.379351    18.848693    14.334391 
  820000    295.42808    1.2509986    3551.8986            0            0            0            0   -1116.4482    44657.537 -0.067234084   -17.036218 -0.041707817    3551.8986    1462.3736    1026.3525    909.83203    28.379849     18.84956    14.342646 0.00036265419 0.00036191183    6.7740175    6.7739614    295.42808     41.49527    35.978931    34.423473    90.016431    119.66323    90.107069  0.032515284    217.59251    28.379826    18.849498    14.340298    28.379088    18.849034    14.343814 
  830000    299.51927    1.2509986    3495.1217            0            0            0            0   -1671.0674    44657.537 -0.067234084   -17.036218 -0.041707817    3495.1217    1474.2384    994.46836    872.92908    28.377651    18.849528    14.335789 0.00035619945 0.00035437761    6.6684524    6.6684344    299.51927     41.49527    35.978931    34.423473    90.016431    119.66323    90.107069  0.032008571    213.71967    28.379778    18.850264    14.340094    28.378182     18.84909    14.335769 
  840000     295.6666    1.2509986    3593.5726            0            0            0            0    1786.7664    44657.537 -0.067234084   -17.036218 -0.041707817    3593.5726    1496.7903    992.52438    941.02347    28.381493    18.846935    14.341991 0.00032992425 0.00032970575    6.8788322    6.8788137     295.6666     41.49527    35.978931    34.423473    90.016431    119.66323    90.107069  0.033018395    197.95455    28.379858    18.849055    14.339993    28.379863    18.847562    14.341028 
  850000    299.37505    1.2509986    3558.9354            0            0            0            0    850.06591    44657.537 -0.067234084   -17.036218 -0.041707817    3558.9354     1442.385    1012.1454    935.15874    28.380776    18.842412    14.340369 0.00035996087 0.0003581354    6.8344941    6.8344551    299.37505     41.49527    35.978931    34.423473    90.016431    119.66323    90.107069  0.032805571    215.97652    28.379449    18.849339    14.338331    28.381264    18.840368    14.340543 
  860000    302.57533    1.2509986    3592.9864            0            0            0            0    485.30753    44657.537 -0.067234084   -17.036218 -0.041707817    3592.9864    1504.8999    1045.9305    897.43468    28.380019    18.845665    14.335474 0.00034852924 0.00034712172    6.7902949    6.7902917    302.57533     41.49527    35.978931    34.423473    90.016431    119.66323    90.107069  0.032593415    209.11754    28.379363    18.848889    14.338474    28.380734    18.846003    14.335812 
  870000    306.66262    1.2509986     3570.314            0            0            0            0    626.17691    44657.537 -0.067234084   -17.036218 -0.041707817     3570.314     1492.404    1016.1372    904.67969    28.373471    18.852991    14.342165 0.00037923479 0.00037781624    6.6771713      6.67706    306.66262     41.49527    35.978931    34.423473    90.016431    119.66323    90.107069  0.032050422    227.54087    28.378982     18.84973    14.338881    28.373665    18.853037    14.341305 
  880000    297.54785    1.2509986    3523.8396            0            0            0            0    570.22791    44657.537 -0.067234084   -17.036218 -0.041707817    3523.8396    1480.5623    1009.8741     884.5025    28.381194    18.847656    14.338898 0.00036638043 0.00035989366    6.6643052    6.6642937    297.54785     41.49527    35.978931    34.423473    90.016431    119.66323    90.107069  0.031988665    219.82826    28.381097    18.851024    14.339897    28.381388    18.847554    14.339437 
  890000    291.51251    1.2509986    3572.3043            0            0            0            0    2142.2893    44657.537 -0.067234084   -17.036218 -0.041707817    3572.3043     1479.037    1044.4883    894.51847    28.372805    18.849149    14.337699 0.0003654088 0.00036416795    6.9028712    6.9027799    291.51251     41.49527    35.978931    34.423473    90.016431    119.66323    90.107069  0.033133782    219.24528    28.378884    18.849039     14.33875    28.371671    18.850012    14.339366 
  900000    296.75932    1.2509986    3575.2118            0            0            0            0     56.45603    44657.537 -0.067234084   -17.036218 -0.041707817    3575.2118    1530.5559    998.15725    890.87008    28.380056    18.852023    14.339424 0.00035261601 0.00035181432    6.8974002    6.8973402    296.75932     41.49527    35.978931    34.423473    90.016431    119.66323    90.107069  0.033107521     211.5696    28.379171    18.849717    14.339242    28.381132    18.852979    14.338651 
  910000    296.88536    1.2509986    3610.6543            0            0            0            0    314.23174    44657.537 -0.067234084   -17.036218 -0.041707817    3610.6543    1517.3859    995.41698    940.77958    28.384171    18.847007    14.343823 0.00038712932 0.00038681223    6.8700833    6.8700122    296.88536     41.49527    35.978931    34.423473    90.016431    119.66323    90.107069    0.0329764    232.27759    28.379432    18.849424    14.339274    28.384968    18.845161    14.343926 
  920000    298.35461    1.2509986    3635.6619            0            0            0            0   -183.44323    44657.537 -0.067234084   -17.036218 -0.041707817    3635.6619    1491.6553    1035.3823    946.07261    28.377276    18.846406    14.336085 0.00033877975 0.00033726564    6.9413661    6.9413592    298.35461     41.49527    35.978931    34.423473    90.016431    119.66323    90.107069  0.033318557    203.26785    28.379002    18.849972    14.339103    28.378266    18.845827     14.33518 
  930000    295.17429    1.2509986    3517.5657            0            0            0            0   -665.14004    44657.537 -0.067234084   -17.036218 -0.041707817    3517.5657    1422.5714    1026.3839     916.9097     28.38331    18.851013    14.337335 0.00037478529 0.00037339436    6.9359685    6.9359191    295.17429     41.49527    35.978931    34.423473    90.016431    119.66323    90.107069  0.033292649    224.87118    28.379707    18.849852    14.338823    28.382576    18.851877    14.338145 
  940000    289.55638    1.2509986     3515.311            0            0            0            0    161.45591    44657.537 -0.067234084   -17.036218 -0.041707817     3515.311    1412.8628    1010.6078     930.1447    28.381301    18.850862    14.342708 0.00035706722 0.00035581425    6.8249155    6.8248567    289.55638     41.49527    35.978931    34.423473    90.016431    119.66323    90.107069  0.032759594    214.24033    28.379334    18.847975    14.339284    28.380411    18.851192    14.342338 
  950000     300.3904    1.2509986    3609.0062            0            0            0            0    166.92638    44657.537 -0.067234084   -17.036218 -0.041707817    3609.0062    1542.5316    1001.8165    912.53542    28.383019    18.850609    14.339427 0.00037063762 0.00036954426    6.8720421    6.8720157     300.3904     41.49527    35.978931    34.423473    90.016431    119.66323    90.107069  0.032985802    222.38257     28.37964    18.848139     14.33907     28.38224    18.849797    14.338589 
  960000    301.63311    1.2509986    3578.7526            0            0            0            0    1426.1277    44657.537 -0.067234084   -17.036218 -0.041707817    3578.7526    1507.0641     1015.616    903.74338     28.37539    18.848312    14.340579 0.00032578744 0.00032291661    6.8515161     6.851448    301.63311     41.49527    35.978931    34.423473    90.016431    119.66323    90.107069  0.032887277    195.47247    28.378892    18.849459    14.338144    28.375306    18.848679     14.34339 
  970000    292.19636    1.2509986    3569.0331            0            0            0            0    1470.3292    44657.537 -0.067234084   -17.036218 -0.041707817    3569.0331    1462.2348    1003.8035    944.59114    28.379171    18.846976     14.34134 0.00037648645 0.00037607223     6.783756    6.7837234    292.19636     41.49527    35.978931    34.423473    90.016431    119.66323    90.107069  0.032562029    225.89187    28.379213    18.848883    14.340167    28.378299    18.849264    14.341258 
  980000    303.64094    1.2509986    3604.6439            0            0            0            0   -394.62071    44657.537 -0.067234084   -17.036218 -0.041707817    3604.6439    1490.2435     1042.439    912.23123    28.379871    18.851181    14.342397 0.00036630757 0.00036586852    6.8638194     6.863747    303.64094     41.49527    35.978931    34.423473    90.016431    119.66323    90.107069  0.032946333    219.78454    28.379555     18.84835     14.33965    28.381415    18.852053     14.34242 
  990000    302.56058    1.2509986    3575.5289            0            0            0            0    1377.4989    44657.537 -0.067234084   -17.036218 -0.041707817    3575.5289    1486.3539    1029.8841    905.02113    28.379556    18.849117    14.346208 0.00033306765 0.00033281096    6.8079747    6.8078462    302.56058     41.49527    35.978931    34.423473    90.016431    119.66323    90.107069  0.032678278    199.84059    28.380036    18.848857    14.339688    28.378716    18.849609     14.34776 
 1000000    295.60534    1.2509986    3620.7416            0            0            0            0    2093.5925    44657.537 -0.067234084   -17.036218 -0.041707817    3620.7416    1484.3379     1009.657    963.01794    28.382363     18.84457    14.333703 0.00037894566 0.00037798445    6.7658238    6.7657631    295.60534     41.49527    35.978931    34.423473    90.016431    119.66323    90.107069  0.032475954     227.3674    28.379482    18.848195    14.339103    28.382928    18.842582    14.330733 
 1010000    296.46818    1.2509986     3569.224            0            0            0            0    232.34753    44657.537 -0.067234084   -17.036218 -0.041707817     3569.224    1457.6274    1010.1583    937.76025    28.381296    18.846105    14.333477 0.00038732845 0.00038485282    6.7666893    6.7666741    296.46818     41.49527    35.978931    34.423473    90.016431    119.66323    90.107069  0.032480109    232.39707    28.380185     18.84902    14.338196    28.381219    18.847451    14.334209 
 1020000    298.60489    1.2509986    3581.9917            0            0            0            0     195.9513    44657.537 -0.067234084   -17.036218 -0.041707817    3581.9917    1478.7411    1033.4459    914.34647    28.386404    18.845353    14.335102 0.0003933372 0.00039236372    6.4444499    6.4444203    298.60489     41.49527    35.978931    34.423473    90.016431    119.66323    90.107069  0.030933359    236.00232    28.379318    18.848472    14.338848    28.384307    18.844151    14.334506 
 1030000    300.17632    1.2509986    3552.2028            0            0            0            0   -200.18582    44657.537 -0.067234084   -17.036218 -0.041707817    3552.2028     1450.806    1024.9783    925.43037    28.381452    18.850174    14.341511 0.0003657772 0.00036276288    6.5865771    6.5865267    300.17632     41.49527    35.978931    34.423473    90.016431    119.66323    90.107069   0.03161557    219.46632    28.378983    18.847383    14.339463    28.382226    18.851281    14.340547 
 1040000    299.27954    1.2509986    3558.8947            0            0            0            0   -149.75372    44657.537 -0.067234084   -17.036218 -0.041707817    3558.8947    1441.9402    1032.1428    925.84257    28.382388    18.842233     14.33541 0.00035870892 0.00035764858    6.6760023     6.675979    299.27954     41.49527    35.978931    34.423473    90.016431    119.66323    90.107069  0.032044811    215.22535     28.37961    18.849169    14.338622    28.382521    18.841514    14.337791 
 1050000    303.14317    1.2509986    3571.2722            0            0            0            0   -1250.6544    44657.537 -0.067234084   -17.036218 -0.041707817    3571.2722    1518.4598    1018.2941    884.98842    28.377201    18.849648     14.33957 0.0003647541 0.00036370007    6.7622616    6.7622199    303.14317     41.49527    35.978931    34.423473    90.016431    119.66323    90.107069  0.032458856    218.85246    28.379658    18.848202    14.340259    28.375766    18.848236    14.341474 
 1060000    296.50258    1.2509986    3595.5435            0            0            0            0    459.27081    44657.537 -0.067234084   -17.036218 -0.041707817    3595.5435    1489.7279     1012.599    932.48868    28.384189    18.852425    14.343111 0.00036260866 0.00036214356    6.6388527    6.6387284    296.50258     41.49527    35.978931    34.423473    90.016431    119.66323    90.107069  0.031866493     217.5652    28.379679    18.849338    14.339051    28.384874    18.852329    14.344458 
 1070000    297.18097    1.2509986    3567.6087            0            0            0            0    1188.5561    44657.537 -0.067234084   -17.036218 -0.041707817    3567.6087    1487.6769    992.56383    931.23593    28.379821    18.847128    14.338654 0.00036525873 0.00036338289    6.6619222    6.6619191    297.18097     41.49527    35.978931    34.423473    90.016431    119.66323    90.107069  0.031977226    219.15524    28.379687    18.849219     14.33829    28.378872    18.846031    14.338641 
 1080000     291.9442    1.2509986    3585.5691            0            0            0            0    462.07542    44657.537 -0.067234084   -17.036218 -0.041707817    3585.5691    1470.8148    1067.8891    891.32367    28.379478    18.844211    14.338137 0.00035673881 0.00035433374    6.7544751    6.7544714     291.9442     41.49527    35.978931    34.423473    90.016431    119.66323    90.107069  0.032421481    214.04329    28.380564    18.847934    14.339163    28.378943    18.844188    14.338401 
 1090000    306.26392    1.2509986    3602.8779            0            0            0            0    1986.9144    44657.537 -0.067234084   -17.036218 -0.041707817    3602.8779    1510.2831    1013.8148    921.19786    28.377299    18.845459    14.341278 0.00035834088 0.00035787262    6.8570627    6.8570336    306.26392     41.49527    35.978931    34.423473    90.016431    119.66323    90.107069  0.032913901    215.00453    28.379957    18.848535    14.339357     28.37719    18.843607    14.341587 
 1100000    298.26165    1.2509986    3507.7659            0            0            0            0    285.60454    44657.537 -0.067234084   -17.036218 -0.041707817    3507.7659    1434.1081    994.85327    923.32808    28.382216    18.851545    14.345891 0.00035368935 0.00035227803    6.8653935    6.8652422    298.26165     41.49527    35.978931    34.423473    90.016431    119.66323    90.107069  0.032953889    212.21361    28.378647    18.848485    14.340191    28.385009    18.852288    14.346092 
 1110000    297.61075    1.2509986     3595.457            0            0            0            0    35.098713    44657.537 -0.067234084   -17.036218 -0.041707817     3595.457    1467.9115    1034.6841    927.88391    28.380649    18.857207     14.35013 0.0003960299 0.00039589731    6.8562816    6.8559236    297.61075     41.49527    35.978931    34.423473    90.016431    119.66323    90.107069  0.032910152    237.61794    28.379512    18.848666    14.339739    28.382755    18.857778    14.351336 
 1120000    295.79848    1.2509986    3637.8559            0            0            0            0   -423.68863    44657.537 -0.067234084   -17.036218 -0.041707817    3637.8559    1550.9541    1015.6058    917.98272    28.379607    18.846217    14.338975 0.00036870641 0.00036778739    6.8391591    6.8391549    295.79848     41.49527    35.978931    34.423473    90.016431    119.66323    90.107069  0.032827964    221.22385    28.380283    18.849334    14.339102    28.379718    18.846104    14.339207 
 1130000    305.14895    1.2509986    3578.4413            0            0            0            0    1492.5514    44657.537 -0.067234084   -17.036218 -0.041707817    3578.4413    1472.3392    1049.0991    904.33445    28.380109    18.849768    14.340067 0.00033978234 0.00033921517    6.9194053    6.9193851    305.14895     41.49527    35.978931    34.423473    90.016431    119.66323    90.107069  0.033213146     203.8694    28.378893    18.849331    14.339477    28.380596    18.849479    14.339157 
 1140000    295.31048    1.2509986    3614.2885            0            0            0            0    872.58489    44657.537 -0.067234084   -17.036218 -0.041707817    3614.2885    1517.2702    1033.6999    912.38849     28.38151    18.855908    14.337157 0.00034925202 0.0003462165    7.0175785    7.0174366    295.31048     41.49527    35.978931    34.423473    90.016431    119.66323    90.107069  0.033684377    209.55121    28.380798    18.850166    14.340045    28.380836    18.857338    14.336934 
 1150000    294.67473    1.2509986    3555.5734            0            0            0            0   -833.00037    44657.537 -0.067234084   -17.036218 -0.041707817    3555.5734    1463.7294    1028.6678    907.87002     28.38217    18.846562    14.337826 0.00037083981 0.00036623468    7.0742292    7.0742249    294.67473     41.49527    35.978931    34.423473    90.016431    119.66323    90.107069    0.0339563    222.50388    28.381001    18.848546    14.338121    28.381514    18.846548    14.336721 
 1160000    295.38829    1.2509986    3607.6444            0            0            0            0   -911.64997    44657.537 -0.067234084   -17.036218 -0.041707817    3607.6444    1462.2211    1033.9006     949.6882    28.377223    18.853109    14.337956 0.00035997786 0.0003578207    6.9369732    6.9369237    295.38829     41.49527    35.978931    34.423473    90.016431    119.66323    90.107069  0.033297472    215.98671    28.380758    18.849129    14.338801    28.377838    18.852174    14.338161 
 1170000    297.69842    1.2509986    3556.7831            0            0            0            0    2838.7701    44657.537 -0.067234084   -17.036218 -0.041707817    3556.7831    1471.8353    1012.4775    914.91289    28.382504    18.847338    14.333192 0.00035700528 0.00035636571    6.8371494    6.8371143    297.69842     41.49527    35.978931    34.423473    90.016431    119.66323    90.107069  0.032818317    214.20317     28.37922    18.849537    14.339136    28.381848    18.846982    14.331911 
 1180000    299.18275    1.2509986    3600.9643            0            0            0            0    183.69297    44657.537 -0.067234084   -17.036218 -0.041707817    3600.9643    1494.8871    1025.7484    924.88379    28.376886    18.843317    14.339412 0.0003584222 0.00035584549    6.8641745    6.8641335    299.18275     41.49527    35.978931    34.423473    90.016431    119.66323    90.107069  0.032948038    215.05332    28.377989    18.848906    14.339966    28.375889    18.841384    14.340257 
 1190000    298.65366    1.2509986    3574.3018            0            0            0            0    40.448941    44657.537 -0.067234084   -17.036218 -0.041707817    3574.3018    1490.2349    1009.8521    915.10086    28.380949    18.852989    14.333996 0.00036787778 0.00036764251    6.9291039    6.9290019    298.65366     41.49527    35.978931    34.423473    90.016431    119.66323    90.107069  0.033259699    220.72667    28.379714    18.848953    14.340093    28.378909    18.855439    14.335865 
 1200000    293.59482    1.2509986    3555.7201            0            0            0            0   -1759.0923    44657.537 -0.067234084   -17.036218 -0.041707817    3555.7201    1502.0907    988.91551    911.92458    28.380018    18.851166    14.336551 0.00036256781 0.00036244339    6.9084514    6.9084182    293.59482     41.49527    35.978931    34.423473    90.016431    119.66323    90.107069  0.033160567    217.54068    28.379717    18.849257    14.339835    28.381788    18.850662    14.335738 
 1210000     303.7467    1.2509986    3587.2277            0            0            0            0    755.97031    44657.537 -0.067234084   -17.036218 -0.041707817    3587.2277    1464.0968    1023.7837    939.56945    28.380504    18.848429    14.341249 0.00035439286 0.00035207518    6.8321061    6.8320517     303.7467     41.49527    35.978931    34.423473    90.016431    119.66323    90.107069  0.032794109    212.63571    28.380404     18.84775    14.339709    28.381249     18.85009    14.342833 
 1220000    299.20568    1.2509986    3542.7306            0            0            0            0    1781.7785    44657.537 -0.067234084   -17.036218 -0.041707817    3542.7306    1503.9171    997.11399    887.19958    28.377568    18.853618    14.338329 0.00037201656 0.0003717496    6.7604657    6.7604102    299.20568     41.49527    35.978931    34.423473    90.016431    119.66323    90.107069  0.032450235    223.20993    28.379587    18.848748     14.34008    28.378672    18.852836    14.337026 
 1230000    297.95239    1.2509986    3575.6942            0            0            0            0    54.509253    44657.537 -0.067234084   -17.036218 -0.041707817    3575.6942    1499.2469    1001.9434    919.91594    28.373512    18.850411    14.343722 0.00035577993 0.00035451449    6.5993284    6.5991707    297.95239     41.49527    35.978931    34.423473    90.016431    119.66323    90.107069  0.031676777    213.46796    28.379793    18.848182    14.338918    28.371766    18.848884    14.346287 
 1240000    294.04953    1.2509986    3570.5882            0            0            0            0    275.55491    44657.537 -0.067234084   -17.036218 -0.041707817    3570.5882     1478.901    1020.5627    918.92453    28.378424    18.856215    14.338401 0.00035816334 0.00035557959    6.8247755    6.8246151    294.04953     41.49527    35.978931    34.423473    90.016431    119.66323    90.107069  0.032758922      214.898    28.380211    18.847547    14.339556    28.379501    18.858133    14.337317 
 1250000    294.08836    1.2509986    3662.8738            0            0            0            0    829.46155    44657.537 -0.067234084   -17.036218 -0.041707817    3662.8738    1472.0175     1070.339    956.50408    28.377858    18.852453    14.334348 0.00033956493 0.00033704031    6.8628137    6.8627677    294.08836     41.49527    35.978931    34.423473    90.016431    119.66323    90.107069  0.032941506    203.73896    28.380377    18.850105     14.34045    28.378752    18.851309    14.333965 
 1260000    301.25641    1.2509986    3652.3242            0            0            0            0     638.1281    44657.537 -0.067234084   -17.036218 -0.041707817    3652.3242     1536.002     1022.842    936.77612    28.383519    18.845143    14.340904 0.00033575088 0.00033311584    6.9768776    6.9768513    301.25641     41.49527    35.978931    34.423473    90.016431    119.66323    90.107069  0.033489012    201.45053    28.380163     18.84904    14.338133     28.38348    18.844262    14.340631 
 1270000    301.35151    1.2509986    3703.1705            0            0            0            0    293.61201    44657.537 -0.067234084   -17.036218 -0.041707817    3703.1705    1523.0662    1051.8685    966.25783    28.379685    18.850279     14.34152 0.00036103385 0.00036046173    6.6462811    6.6462278    301.35151     41.49527    35.978931    34.423473    90.016431    119.66323    90.107069  0.031902149    216.62031    28.379942    18.848544    14.339187    28.379789    18.851421    14.341502 
 1280000    297.54456    1.2509986    3598.6504            0            0            0            0   -427.55624    44657.537 -0.067234084   -17.036218 -0.041707817    3598.6504    1485.6719    1000.8303    949.80314    28.383732    18.847469    14.345804 0.00036219987 0.00036090235    6.7262583    6.7261609    297.54456     41.49527    35.978931    34.423473    90.016431    119.66323    90.107069   0.03228604    217.31992    28.380428    18.848279    14.339668    28.383471     18.84766    14.346166 
 1290000    306.76726    1.2509986    3559.6932            0            0            0            0    1201.0755    44657.537 -0.067234084   -17.036218 -0.041707817    3559.6932    1487.7445    1009.2089    908.92579    28.380045     18.84641    14.349659 0.00036780753 0.00036499253    6.6235351      6.62337    306.76726     41.49527    35.978931    34.423473    90.016431    119.66323    90.107069  0.031792968    220.68452    28.380847    18.849729    14.340436     28.38076    18.845615    14.350076 
 1300000    300.25891    1.2509986    3592.5964            0            0            0            0    2012.8502    44657.537 -0.067234084   -17.036218 -0.041707817    3592.5964      1444.73    1060.0079    930.66747    28.380738    18.849999    14.331344 0.00033329806 0.00033052361    6.4017614    6.4017154    300.25891     41.49527    35.978931    34.423473    90.016431    119.66323    90.107069  0.030728454    199.97884    28.378557    18.849301    14.340939    28.382321    18.848874    14.331959 
 1310000    294.91882    1.2509986    3545.3559            0            0            0            0    2327.4568    44657.537 -0.067234084   -17.036218 -0.041707817    3545.3559    1489.5267    1015.9999    886.90498    28.381153    18.850542    14.343195 0.00034750623 0.0003460211    6.7902052    6.7901543    294.91882     41.49527    35.978931    34.423473    90.016431    119.66323    90.107069  0.032592985    208.50374    28.379889    18.848113    14.338886    28.381331    18.850139     14.34245 
 1320000    291.43331    1.2509986     3550.011            0            0            0            0   -1049.9893    44657.537 -0.067234084   -17.036218 -0.041707817     3550.011    1485.1851    995.21188    910.80614    28.383514    18.852314    14.337536 0.00034088987 0.00034041258    6.6742588    6.6741788    291.43331     41.49527    35.978931    34.423473    90.016431    119.66323    90.107069  0.032036442    204.53392    28.379767    18.849518     14.34006    28.383774    18.853361    14.338702 
 1330000    293.44212    1.2509986    3602.7025            0            0            0            0    838.08807    44657.537 -0.067234084   -17.036218 -0.041707817    3602.7025     1509.963    1028.1607    911.98356    28.379819    18.849884    14.347503 0.00033840078 0.00033732891    6.8697183    6.8695796    293.44212     41.49527    35.978931    34.423473    90.016431    119.66323    90.107069  0.032974648    203.04047    28.379948    18.848529    14.338811    28.378617    18.850791    14.347707 
 1340000     297.5445    1.2509986    3642.0913            0            0            0            0   -155.09729    44657.537 -0.067234084   -17.036218 -0.041707817    3642.0913    1500.4054    1063.2263    918.82537    28.382272    18.844789    14.339299 0.00036869049 0.00036697665    6.8847769    6.8847648     297.5445     41.49527    35.978931    34.423473    90.016431    119.66323    90.107069  0.033046929    221.21429    28.380026    18.847871    14.340073    28.381355    18.844156    14.340092 
 1350000    303.42689    1.2509986    3505.6468            0            0            0            0   -768.16258    44657.537 -0.067234084   -17.036218 -0.041707817    3505.6468    1427.8338    1004.0722    920.03919     28.37367    18.850198     14.33634 0.00034630589 0.00034576351    6.8757834    6.8757207    303.42689     41.49527    35.978931    34.423473    90.016431    119.66323    90.107069   0.03300376    207.78354    28.378881    18.848984    14.339931     28.37366    18.849961    14.335083 
 1360000    301.19106    1.2509986     3583.166            0            0            0            0   -157.58139    44657.537 -0.067234084   -17.036218 -0.041707817     3583.166    1489.2614    1011.1328    925.23203    28.379119    18.850727    14.339688 0.00039551785 0.0003953771    6.8105356    6.8104702    301.19106     41.49527    35.978931    34.423473    90.016431    119.66323    90.107069  0.032690571    237.31071    28.379357    18.849322    14.339711    28.378653    18.852855     14.34036 
 1370000     293.9361    1.2509986    3605.4232            0            0            0            0   -149.74175    44657.537 -0.067234084   -17.036218 -0.041707817    3605.4232    1468.8962    1045.9666    934.34368    28.377137    18.845761    14.337818 0.00037898248 0.00037569636    6.8172859    6.8172829     293.9361     41.49527    35.978931    34.423473    90.016431    119.66323    90.107069  0.032722972    227.38949    28.379031    18.847281    14.339733    28.378534    18.846572    14.337712 
 1380000    306.26477    1.2509986    3564.3939            0            0            0            0    1453.2578    44657.537 -0.067234084   -17.036218 -0.041707817    3564.3939    1455.4506      1043.45    914.04992    28.378398    18.852636    14.335331 0.00038727689 0.00038590095    6.6488424    6.6487779    306.26477     41.49527    35.978931    34.423473    90.016431    119.66323    90.107069  0.031914444    232.36613    28.379104    18.849183    14.338569    28.378663    18.852987    14.334653 
 1390000    297.02047    1.2509986    3663.4881            0            0            0            0   -1368.2596    44657.537 -0.067234084   -17.036218 -0.041707817    3663.4881    1506.4112    1076.4684    921.24857    28.389457    18.846917    14.346191 0.00034727994 0.00034571104    6.6989991     6.698801    297.02047     41.49527    35.978931    34.423473    90.016431    119.66323    90.107069  0.032155195    208.36797    28.379918    18.847844    14.339371    28.390292    18.847368    14.346465 
 1400000    302.78031    1.2509986    3575.3543            0            0            0            0    2627.6677    44657.537 -0.067234084   -17.036218 -0.041707817    3575.3543     1496.091    988.46353    935.50602    28.382206    18.852252    14.340372 0.00037706429 0.00037681316    6.5350201    6.5349782    302.78031     41.49527    35.978931    34.423473    90.016431    119.66323    90.107069  0.031368097    226.23858    28.379794    18.848594    14.339777    28.380885    18.851763    14.338372 
 1410000    298.10976    1.2509986      3647.62            0            0            0            0    160.61208    44657.537 -0.067234084   -17.036218 -0.041707817      3647.62    1532.8631    1035.7315    917.35132    28.376217    18.847601    14.343106 0.00033735527  0.000336857    6.6657111    6.6656736    298.10976     41.49527    35.978931    34.423473    90.016431    119.66323    90.107069  0.031995413    202.41316    28.378963    18.849394    14.339615    28.375285    18.846281    14.341307 
 1420000    294.34833    1.2509986    3631.0811            0            0            0            0    1154.1528    44657.537 -0.067234084   -17.036218 -0.041707817    3631.0811    1531.9062    1037.9531    907.21307    28.377758    18.849146    14.341362 0.00037397659 0.00037299475    6.8686294    6.8685963    294.34833     41.49527    35.978931    34.423473    90.016431    119.66323    90.107069  0.032969421    224.38595    28.378649    18.848975    14.340033    28.376091      18.8483    14.340617 
 1430000    298.85457    1.2509986    3648.5486            0            0            0            0   -762.95484    44657.537 -0.067234084   -17.036218 -0.041707817    3648.5486    1505.6927    1071.7269    909.62979    28.369979    18.848639    14.344351 0.00033964486 0.00033856777    7.0848656    7.0847049    298.85457     41.49527    35.978931    34.423473    90.016431    119.66323    90.107069  0.034007355    203.78692    28.380468    18.848528     14.33975    28.370508    18.848508    14.345321 
 1440000    294.90393    1.2509986    3569.5608            0            0            0            0    1047.6668    44657.537 -0.067234084   -17.036218 -0.041707817    3569.5608    1445.6797    1006.9041    954.31292    28.379554    18.849393    14.340253 0.00038258831 0.0003814777    6.9041963    6.9041605    294.90393     41.49527    35.978931    34.423473    90.016431    119.66323    90.107069  0.033140142    229.55298    28.378503    18.849016    14.339602    28.380072    18.851208    14.338961 
 1450000     298.5922    1.2509986    3536.5078            0            0            0            0    916.39111    44657.537 -0.067234084   -17.036218 -0.041707817    3536.5078     1489.013    968.61378    922.98763      28.3783    18.844204    14.345516 0.00034642446 0.00034526073    6.9765943    6.9765176     298.5922     41.49527    35.978931    34.423473    90.016431    119.66323    90.107069  0.033487652    207.85467    28.378812    18.849389    14.338953    28.377879    18.846117    14.345781 
 1460000    299.46673    1.2509986    3552.0459            0            0            0            0    750.07814    44657.537 -0.067234084   -17.036218 -0.041707817    3552.0459    1464.0278    1039.1591    893.44621     28.37862    18.844432     14.34235 0.00035381808 0.00035282076    7.1307692    7.1307456    299.46673     41.49527    35.978931    34.423473    90.016431    119.66323    90.107069  0.034227692    212.29085    28.378855    18.848914    14.340342    28.378406    18.843349    14.341405 
 1470000    291.18638    1.2509986    3527.4891            0            0            0            0    603.47684    44657.537 -0.067234084   -17.036218 -0.041707817    3527.4891    1458.3747    978.27616    930.15482    28.374724    18.849338    14.336184 0.00034348005 0.00034291205    6.9142798    6.9142236    291.18638     41.49527    35.978931    34.423473    90.016431    119.66323    90.107069  0.033188543    206.08803    28.379998    18.848781    14.339073    28.374064    18.850197    14.336368 
 1480000    299.63728    1.2509986    3590.1997            0            0            0            0    835.50085    44657.537 -0.067234084   -17.036218 -0.041707817    3590.1997    1482.1922    1044.2046    909.05529    28.381013    18.850479    14.341277 0.00036854669 0.00036753814     6.909424    6.9093794    299.63728     41.49527    35.978931    34.423473    90.016431    119.66323    90.107069  0.033165235    221.12801    28.378618    18.848725    14.339851    28.382015    18.850532    14.341036 
 1490000    296.43963    1.2509986    3583.5095            0            0            0            0   -2491.9946    44657.537 -0.067234084   -17.036218 -0.041707817    3583.5095    1483.5479    1029.8514    912.77879    28.380035    18.845818    14.344275 0.00036830937 0.00036745639    6.9720515    6.9720011    296.43963     41.49527    35.978931    34.423473    90.016431    119.66323    90.107069  0.033465847    220.98562    28.378858    18.848421    14.339764    28.378895    18.846849    14.344165 
 1500000    293.07892    1.2509986    3611.8934            0            0            0            0    1160.3291    44657.537 -0.067234084   -17.036218 -0.041707817    3611.8934     1497.628    1029.6917    927.01976    28.383669     18.84465     14.33784 0.00035235726  0.000350195    7.1782273    7.1782047    293.07892     41.49527    35.978931    34.423473    90.016431    119.66323    90.107069  0.034455491    211.41435    28.378961    18.848885      14.3383    28.384209    18.844712    14.335616 
 1510000    297.03675    1.2509986    3579.1103            0            0            0            0   -17.974097    44657.537 -0.067234084   -17.036218 -0.041707817    3579.1103    1432.1323    1028.9082     960.2296    28.380379    18.847444    14.342095 0.00037258239 0.00037145518    7.0828585    7.0828369    297.03675     41.49527    35.978931    34.423473    90.016431    119.66323    90.107069  0.033997721    223.54944    28.380573    18.848887     14.33936    28.380625    18.847504    14.341368 
 1520000    293.53845    1.2509986    3614.5286            0            0            0            0   -950.90396    44657.537 -0.067234084   -17.036218 -0.041707817    3614.5286    1484.7154    1040.0216    927.72695    28.379236    18.855011    14.342052 0.00034474645 0.00034430222    7.1491092    7.1490179    293.53845     41.49527    35.978931    34.423473    90.016431    119.66323    90.107069  0.034315724    206.84787    28.379474    18.848822    14.340271    28.378377    18.853625     14.34204 
[...]
 1630000    294.99371    1.2509986    3642.5755            0            0            0            0   -935.52517    44657.537 -0.067234084   -17.036218 -0.041707817    3642.5755    1496.5132    1034.8053    956.65725    28.376773     18.84879    14.340665 0.00037773342 0.00037541136    6.8379463    6.8379147    294.99371     41.49527    35.978931    34.423473    90.016431    119.66323    90.107069  0.032822142    226.64005    28.378407    18.848226    14.340256    28.377555    18.849448    14.340538 
 1640000    296.24673    1.2509986     3531.473            0            0            0            0    2336.6079    44657.537 -0.067234084   -17.036218 -0.041707817     3531.473    1437.0745     1016.198    917.84679    28.374977    18.845281    14.341971 0.00034484839 0.00034107469    6.9551608    6.9550998    296.24673     41.49527    35.978931    34.423473    90.016431    119.66323    90.107069  0.033384772    206.90903     28.37935    18.847682    14.341038    28.375975    18.846852    14.343923 
 1650000    296.65485    1.2509986    3573.6408            0            0            0            0    1310.1774    44657.537 -0.067234084   -17.036218 -0.041707817    3573.6408    1485.3902    1007.6226    922.04489     28.38553     18.85313    14.339955 0.00034395829 0.00034247783    7.1330251    7.1328987    296.65485     41.49527    35.978931    34.423473    90.016431    119.66323    90.107069   0.03423852    206.37497     28.37961    18.850223    14.339526    28.385624    18.854302    14.341093 
 1660000     299.8499    1.2509986    3635.4745            0            0            0            0    587.85331    44657.537 -0.067234084   -17.036218 -0.041707817    3635.4745    1484.1771    1035.4259    958.82434    28.377891    18.841645    14.342622 0.00032482746 0.00032323431    7.1281647    7.1281114     299.8499     41.49527    35.978931    34.423473    90.016431    119.66323    90.107069  0.034215191    194.89648    28.380117    18.848161    14.340382    28.378097    18.840714    14.342528 
 1670000    298.17999    1.2509986    3565.8166            0            0            0            0    1843.9406    44657.537 -0.067234084   -17.036218 -0.041707817    3565.8166    1457.0966    1038.2754    916.14975    28.376749    18.847725    14.337771 0.00035662022 0.00035656868    6.9934459    6.9934174    298.17999     41.49527    35.978931    34.423473    90.016431    119.66323    90.107069   0.03356854    213.97213    28.379531    18.849225    14.339563    28.375014    18.847694    14.336581 
 1680000    299.11543    1.2509986    3559.6324            0            0            0            0    965.78176    44657.537 -0.067234084   -17.036218 -0.041707817    3559.6324    1505.6357    1003.5519     897.5975    28.387253    18.852629    14.337066 0.00040133752 0.00039579014    6.9819282    6.9818352    299.11543     41.49527    35.978931    34.423473    90.016431    119.66323    90.107069  0.033513255    240.80251    28.381405    18.848961    14.341097     28.38629    18.852415    14.338965 
 1690000    299.91415    1.2509986    3630.9397            0            0            0            0     1005.605    44657.537 -0.067234084   -17.036218 -0.041707817    3630.9397    1508.9685     1037.506     927.4333    28.373752    18.851574    14.340475 0.00038231599 0.00038037654     6.885644    6.8855552    299.91415     41.49527    35.978931    34.423473    90.016431    119.66323    90.107069  0.033051091     229.3896    28.379547    18.850391    14.339837    28.374269    18.851898    14.341368 
 1700000    297.03748    1.2509986    3603.6961            0            0            0            0    535.93245    44657.537 -0.067234084   -17.036218 -0.041707817    3603.6961    1501.8134    1008.9477    933.50674    28.373682      18.8456    14.336362 0.00033976598 0.0003392944    6.8695337    6.8694911    297.03748     41.49527    35.978931    34.423473    90.016431    119.66323    90.107069  0.032973762    203.85959    28.379746     18.84959    14.339318    28.373453    18.846058    14.335927 
 1710000     303.8345    1.2509986    3636.6911            0            0            0            0    478.80476    44657.537 -0.067234084   -17.036218 -0.041707817    3636.6911    1508.4949    1063.0256       910.48    28.380641    18.845698    14.335679 0.00036573446 0.00036309111    6.9809553    6.9809454     303.8345     41.49527    35.978931    34.423473    90.016431    119.66323    90.107069  0.033508586    219.44067    28.380223    18.847616    14.339141    28.379674    18.847571    14.334904 
 1720000     298.3419    1.2509986    3636.0341            0            0            0            0     96.73066    44657.537 -0.067234084   -17.036218 -0.041707817    3636.0341    1507.4635     1001.195    965.18268    28.373101    18.850878    14.339223 0.00037628551 0.00037386261    6.8229985    6.8229477     298.3419     41.49527    35.978931    34.423473    90.016431    119.66323    90.107069  0.032750393    225.77131    28.380758    18.848648    14.340559    28.374193    18.849857    14.337261 
 1730000    300.30675    1.2509986    3597.4177            0            0            0            0    2131.8518    44657.537 -0.067234084   -17.036218 -0.041707817    3597.4177    1507.8436    984.20724    944.18079    28.385872    18.851948    14.338841 0.00037657118  0.000376128    6.7580086    6.7579349    300.30675     41.49527    35.978931    34.423473    90.016431    119.66323    90.107069  0.032438441    225.94271    28.379616     18.84841    14.339914    28.385549    18.851605    14.339047 
 1740000    299.86434    1.2509986    3586.6027            0            0            0            0   -614.33803    44657.537 -0.067234084   -17.036218 -0.041707817    3586.6027    1493.2384    978.87664    954.36976    28.379959    18.849225    14.333261 0.00038478232 0.00038342195    6.9764406    6.9763929    299.86434     41.49527    35.978931    34.423473    90.016431    119.66323    90.107069  0.033486915    230.86939    28.379109    18.848125    14.340248    28.379062    18.849067    14.331409 
 1750000    297.42631    1.2509986    3575.9017            0            0            0            0    1364.7162    44657.537 -0.067234084   -17.036218 -0.041707817    3575.9017    1463.6093     989.9687     960.3759    28.376451    18.846404    14.336922 0.00035448557 0.00035235295    7.2293292    7.2293024    297.42631     41.49527    35.978931    34.423473    90.016431    119.66323    90.107069   0.03470078    212.69134     28.37839    18.848159    14.339431      28.3747    18.845028     14.33793 
 1760000    298.91133    1.2509986    3573.2142            0            0            0            0    582.96132    44657.537 -0.067234084   -17.036218 -0.041707817    3573.2142    1440.8856    1030.3895    946.19112    28.378395    18.850295    14.342524 0.0004018163 0.00039789823     7.246434    7.2463708    298.91133     41.49527    35.978931    34.423473    90.016431    119.66323    90.107069  0.034782883    241.08978    28.380657    18.847495    14.339004     28.37795    18.850575    14.343069 
 1770000    298.86094    1.2509986    3594.1458            0            0            0            0   -1744.0889    44657.537 -0.067234084   -17.036218 -0.041707817    3594.1458    1446.0368    1055.7279    926.51812    28.380674    18.842575    14.342069 0.00034165213 0.00034117261    7.3626142    7.3625681    298.86094     41.49527    35.978931    34.423473    90.016431    119.66323    90.107069  0.035340548    204.99128    28.380055    18.848542    14.339737    28.379707    18.842269    14.343249 
 1780000     297.6685    1.2509986    3568.9488            0            0            0            0   -169.21559    44657.537 -0.067234084   -17.036218 -0.041707817    3568.9488    1466.7246    1009.1939     935.1383    28.381639    18.853707    14.331799 0.00038184024 0.00038018816    7.0792531    7.0791539     297.6685     41.49527    35.978931    34.423473    90.016431    119.66323    90.107069  0.033980415    229.10415    28.378991    18.850044    14.339118    28.380467    18.852762    14.330511 
 1790000    305.39927    1.2509986    3576.0822            0            0            0            0    1468.3457    44657.537 -0.067234084   -17.036218 -0.041707817    3576.0822    1467.0801    1023.7999    930.64499    28.382457    18.847676    14.341634 0.00036020821 0.00035901476    6.9951205    6.9950883    305.39927     41.49527    35.978931    34.423473    90.016431    119.66323    90.107069  0.033576578    216.12493    28.378845    18.849598    14.339051    28.382934    18.847717    14.341427 
 1800000    296.53114    1.2509986    3545.0186            0            0            0            0    665.44088    44657.537 -0.067234084   -17.036218 -0.041707817    3545.0186    1504.5296    995.36294     890.1683    28.385263    18.847998    14.333939 0.00038994832 0.00038817861    7.0253879    7.0253553    296.53114     41.49527    35.978931    34.423473    90.016431    119.66323    90.107069  0.033721862    233.96899    28.380257    18.849134    14.338514    28.384522    18.846954    14.334395 
 1810000    296.11902    1.2509986    3608.4962            0            0            0            0   -1067.0485    44657.537 -0.067234084   -17.036218 -0.041707817    3608.4962    1449.9736    1060.4723     937.1987    28.374605    18.845784    14.343915 0.00032623176 0.00032530101    7.0918353    7.0917457    296.11902     41.49527    35.978931    34.423473    90.016431    119.66323    90.107069  0.034040809    195.73906    28.379159    18.849855    14.339388     28.37354    18.845638    14.344346 
 1820000    298.48343    1.2509986    3574.0369            0            0            0            0   -661.01048    44657.537 -0.067234084   -17.036218 -0.041707817    3574.0369    1480.2546    993.81609    941.61474    28.379155    18.849813    14.336679 0.00040283591 0.00039919547    7.1389378    7.1389236    298.48343     41.49527    35.978931    34.423473    90.016431    119.66323    90.107069  0.034266902    241.70155    28.380586    18.848949    14.338033    28.378475    18.848991     14.33695 
 1830000    292.60073    1.2509986    3622.0199            0            0            0            0    930.75599    44657.537 -0.067234084   -17.036218 -0.041707817    3622.0199    1513.2574    1028.2083    925.36327    28.378302    18.846224    14.338123 0.00034035665 0.00033872894    7.1354477    7.1354401    292.60073     41.49527    35.978931    34.423473    90.016431    119.66323    90.107069  0.034250149    204.21399    28.380212    18.849543    14.340595    28.377299       18.846    14.338246 
 1840000     295.4296    1.2509986    3568.5058            0            0            0            0    870.46123    44657.537 -0.067234084   -17.036218 -0.041707817    3568.5058    1487.8044    988.19977    936.90142    28.374165    18.847153    14.339525 0.00037025402 0.00036707265    7.1117992    7.1117503     295.4296     41.49527    35.978931    34.423473    90.016431    119.66323    90.107069  0.034136636    222.15241     28.37888    18.847592    14.338799    28.373262    18.847475    14.338666 
 1850000    306.03526    1.2509986    3590.9928            0            0            0            0    646.39247    44657.537 -0.067234084   -17.036218 -0.041707817    3590.9928     1485.061    1025.2675    925.78466    28.376351      18.8501    14.339883 0.0003614945 0.00036046771    6.8895707    6.8895366    306.03526     41.49527    35.978931    34.423473    90.016431    119.66323    90.107069  0.033069939     216.8967    28.379235    18.848076    14.339424    28.377128    18.850193    14.339408 
 1860000    296.29885    1.2509986    3559.6237            0            0            0            0    2015.1802    44657.537 -0.067234084   -17.036218 -0.041707817    3559.6237    1449.3484    1032.7512    918.12868    28.382717    18.848115    14.337318 0.00037909695 0.00037414838    6.9085506    6.9085372    296.29885     41.49527    35.978931    34.423473    90.016431    119.66323    90.107069  0.033161043    227.45817    28.381634    18.848342    14.339212    28.383228    18.846674    14.337838 
 1870000    295.63833    1.2509986    3542.4684            0            0            0            0   -353.81785    44657.537 -0.067234084   -17.036218 -0.041707817    3542.4684    1445.5036    1033.7593    909.34367    28.378997     18.85325     14.34321 0.00037436853 0.00037315841    7.1509022    7.1507745    295.63833     41.49527    35.978931    34.423473    90.016431    119.66323    90.107069  0.034324331    224.62112     28.37882    18.849474    14.340312    28.380731    18.854473     14.34404 
 1880000    296.30165    1.2509986    3522.6505            0            0            0            0   -648.64731    44657.537 -0.067234084   -17.036218 -0.041707817    3522.6505    1512.4113    972.26826    885.21726    28.377241    18.849268    14.351331 0.00035664811 0.00035653936    7.0908369    7.0906582    296.30165     41.49527    35.978931    34.423473    90.016431    119.66323    90.107069  0.034036017    213.98887    28.379573    18.849318    14.339513     28.37899    18.847936    14.350378 
 1890000    295.48969    1.2509986    3509.9568            0            0            0            0   -334.06761    44657.537 -0.067234084   -17.036218 -0.041707817    3509.9568    1462.9466    998.41775    898.93462    28.378509     18.84888    14.344761 0.00038555701 0.00038528068    6.9621868    6.9621267    295.48969     41.49527    35.978931    34.423473    90.016431    119.66323    90.107069  0.033418497    231.33421    28.379629    18.849518    14.339763    28.378316    18.848703    14.344152 
 1900000    297.35474    1.2509986    3613.4734            0            0            0            0   -39.930849    44657.537 -0.067234084   -17.036218 -0.041707817    3613.4734    1492.2539    1027.2829    928.58909    28.385729    18.846333    14.340306 0.00034493901 0.0003438636     6.920216     6.920173    297.35474     41.49527    35.978931    34.423473    90.016431    119.66323    90.107069  0.033217037     206.9634    28.379952    18.849614    14.340385    28.385132    18.848699    14.339342 
 1910000    297.39599    1.2509986    3589.2223            0            0            0            0    319.12279    44657.537 -0.067234084   -17.036218 -0.041707817    3589.2223    1487.7925    1012.4087    926.56825    28.379409    18.849993    14.331293 0.0003613403 0.00036018667     6.861082    6.8609852    297.39599     41.49527    35.978931    34.423473    90.016431    119.66323    90.107069  0.032933194    216.80418    28.380319    18.849471    14.339036    28.380339    18.852416    14.330314 
 1920000    292.66289    1.2509986    3554.2423            0            0            0            0    1601.7714    44657.537 -0.067234084   -17.036218 -0.041707817    3554.2423    1459.1103    1035.8425     907.6866    28.378728    18.846295    14.336632 0.00037092657 0.0003695976    6.9421793    6.9421543    292.66289     41.49527    35.978931    34.423473    90.016431    119.66323    90.107069  0.033322461    222.55594    28.378616    18.849666    14.339771     28.37753    18.848234    14.333779 
 1930000    299.43905    1.2509986     3637.913            0            0            0            0   -535.94937    44657.537 -0.067234084   -17.036218 -0.041707817     3637.913    1523.2963    991.57342    958.83598    28.377754    18.846922    14.343495 0.00035920482 0.00035772295    6.8872475    6.8871733    299.43905     41.49527    35.978931    34.423473    90.016431    119.66323    90.107069  0.033058788    215.52289    28.379655    18.849569     14.33856    28.377399    18.845485    14.345532 
 1940000    290.41294    1.2509986    3573.3318            0            0            0            0   -363.28526    44657.537 -0.067234084   -17.036218 -0.041707817    3573.3318    1453.2226     1010.012    943.22939    28.376832    18.847112    14.333576 0.00033374117 0.0003312894    6.8291251    6.8290768    290.41294     41.49527    35.978931    34.423473    90.016431    119.66323    90.107069  0.032779801     200.2447     28.37946    18.850565    14.339455    28.374754    18.847967    14.333194 
 1950000    298.36668    1.2509986    3584.7369            0            0            0            0   -315.03352    44657.537 -0.067234084   -17.036218 -0.041707817    3584.7369    1467.9918     1015.096    943.87769    28.374949    18.846733    14.342398 0.0003606957 0.00035890136    6.7664132    6.7663504    298.36668     41.49527    35.978931    34.423473    90.016431    119.66323    90.107069  0.032478783    216.41742    28.378312    18.849344    14.340006    28.375394    18.846123    14.343807 
 1960000     296.2892    1.2509986    3498.7595            0            0            0            0    1364.7545    44657.537 -0.067234084   -17.036218 -0.041707817    3498.7595    1446.2583    1004.8446    892.12567    28.380944    18.851999    14.337939 0.00034216021 0.00033975381    6.8271424    6.8270943     296.2892     41.49527    35.978931    34.423473    90.016431    119.66323    90.107069  0.032770283    205.29612    28.380177    18.848038    14.338603    28.380612     18.85185    14.339866 
 1970000    302.41495    1.2509986     3578.082            0            0            0            0    640.36414    44657.537 -0.067234084   -17.036218 -0.041707817     3578.082    1506.2275    1015.4824    901.25482    28.375542    18.848421    14.340483 0.00037116063 0.0003692602    6.7743542    6.7743083    302.41495     41.49527    35.978931    34.423473    90.016431    119.66323    90.107069    0.0325169    222.69638    28.379289    18.850359    14.339773    28.374316    18.848268    14.340063 
 1980000    291.36326    1.2509986     3612.063            0            0            0            0    631.00528    44657.537 -0.067234084   -17.036218 -0.041707817     3612.063    1511.9336    994.34287    946.03618    28.377245    18.853569    14.344219 0.00035613485 0.00035577745    6.7555242    6.7554166    291.36326     41.49527    35.978931    34.423473    90.016431    119.66323    90.107069  0.032426516    213.68091      28.3796    18.848537    14.339997    28.377136    18.852571    14.344334 
 1990000    296.55555    1.2509986    3563.2809            0            0            0            0    929.82815    44657.537 -0.067234084   -17.036218 -0.041707817    3563.2809    1459.0804    1035.9454     913.3145    28.379729    18.851207    14.337984 0.00033505454 0.00033244141    6.7249909    6.7249524    296.55555     41.49527    35.978931    34.423473    90.016431    119.66323    90.107069  0.032279956    201.03272    28.381167    18.849101    14.339523    28.380808    18.851444    14.338633 
 2000000    302.60627    1.2509986    3595.3945            0            0            0            0    843.10115    44657.537 -0.067234084   -17.036218 -0.041707817    3595.3945    1505.0395    1027.1083    906.06681    28.379408     18.85213    14.341965 0.00036577583 0.00036234912     6.750612    6.7505235    302.60627     41.49527    35.978931    34.423473    90.016431    119.66323    90.107069  0.032402937     219.4655    28.379218    18.847653    14.338428    28.379865    18.852568     14.34344 
Loop time of 3933.06 on 20 procs for 2000000 steps with 4560 atoms

Pair  time (%) = 2860.77 (72.7366)
Bond  time (%) = 345.768 (8.79133)
Neigh time (%) = 76.9584 (1.95671)
Comm  time (%) = 498.935 (12.6857)
Outpt time (%) = 0.573822 (0.0145897)
Other time (%) = 150.05 (3.8151)

Nlocal:    228 ave 239 max 212 min
Histogram: 1 1 0 1 3 5 2 4 1 2
Nghost:    5967.85 ave 6028 max 5897 min
Histogram: 1 3 3 1 2 1 1 1 4 3
Neighs:    84222.4 ave 87918 max 77440 min
Histogram: 1 1 1 0 3 1 2 4 4 3

Total # of neighbors = 1684447
Ave neighs/atom = 369.396
Ave special neighs/atom = 10.6316
Neighbor list builds = 15430
Dangerous builds = 0
System init for write_data ...
