LAMMPS data file via write_data, version 15 May 2015, timestep = 8008000

2611 atoms
6 atom types
1749 bonds
4 bond types
894 angles
3 angle types
44 dihedrals
3 dihedral types
10 impropers
1 improper types

-1.4956774438057122e+01 1.4956774438057122e+01 xlo xhi
-1.4956774438057122e+01 1.4956774438057122e+01 ylo yhi
-1.4956774438057122e+01 1.4956774438057122e+01 zlo zhi

Masses

1 15.9994
2 1.00794
3 12.0107
4 1.00794
5 12.0107
6 12.0107

Bond Coeffs # harmonic

1 1000 1
2 469 1.4
3 367 1.08
4 469 0.7

Angle Coeffs # harmonic

1 100 109.47
2 35 120
3 63 120

Dihedral Coeffs # opls

1 0 7.25 0 0
2 0 7.25 0 0
3 0 7.25 0 0

Improper Coeffs # cvff

1 2.5 -1 2

Atoms # full

1710 570 2 4.0999999999999998e-01 -1.0310047768729927e+01 -8.1095028477759428e+00 -1.2581921318254729e+01 3 1 0
292 98 1 -8.1999999999999995e-01 -1.2090217612791964e+01 -8.8580932207227399e+00 -1.0290071960178764e+01 2 0 -1
294 98 2 4.0999999999999998e-01 -1.2007063277862473e+01 -8.5006229516376859e+00 -1.1220269111730378e+01 2 0 -1
293 98 2 4.0999999999999998e-01 -1.2500183458200091e+01 -8.1618767726969832e+00 -9.7008546807776046e+00 2 0 -1
111 37 2 4.0999999999999998e-01 -1.0777615961665692e+01 -1.0164163566572334e+01 -1.0053865204126970e+01 2 -1 2
756 252 2 4.0999999999999998e-01 -1.2483165503359704e+01 -8.4419590413731598e+00 -1.3384642356686662e+01 0 -1 3
754 252 1 -8.1999999999999995e-01 -1.2127421214674694e+01 -7.8108221171494723e+00 -1.2695382912771318e+01 0 -1 3
109 37 1 -8.1999999999999995e-01 -1.0103953327990849e+01 -1.0886394016305864e+01 -9.8972503599532615e+00 2 -1 2
2480 827 2 4.0999999999999998e-01 -1.4501077779365181e+01 -9.1659314713559361e+00 -1.4201528714198794e+01 0 -4 -4
1040 347 2 4.0999999999999998e-01 -1.0720807064682891e+01 -1.2000176097565209e+01 -1.3307329770985326e+01 1 2 0
755 252 2 4.0999999999999998e-01 -1.2074128963898346e+01 -6.8902523380938376e+00 -1.3082264783193478e+01 0 -1 3
2547 849 2 4.0999999999999998e-01 -1.3411134356675301e+01 -1.2055635851972045e+01 -1.0521087053660683e+01 0 2 0
2545 849 1 -8.1999999999999995e-01 -1.2898185966423673e+01 -1.2895386874408207e+01 -1.0699043550254974e+01 0 2 0
1589 530 2 4.0999999999999998e-01 -1.4193958223246094e+01 -6.6475160942444251e+00 -8.7172349290293489e+00 1 0 0
2546 849 2 4.0999999999999998e-01 -1.2774658320951774e+01 -1.3007904796049312e+01 -1.1684967982998790e+01 0 2 0
110 37 2 4.0999999999999998e-01 -1.0575921831388422e+01 -1.1752938899104834e+01 -9.7350404316144754e+00 2 -1 2
118 40 1 -8.1999999999999995e-01 -1.3451371537096451e+01 -1.4807191383991203e+01 -8.8105175643384932e+00 -1 3 -1
1709 570 2 4.0999999999999998e-01 -9.3920426783086413e+00 -9.4599591644589829e+00 -1.2573483646378619e+01 3 1 0
1629 543 2 4.0999999999999998e-01 -8.8284178843999239e+00 -1.1347552267955717e+01 -8.6865259297968933e+00 3 2 -1
1850 617 2 4.0999999999999998e-01 -1.0340550854687587e+01 -6.4964125645518944e+00 -1.1531083976793701e+01 3 -2 -3
243 81 2 4.0999999999999998e-01 -1.4854771592582241e+01 -1.0864220065183741e+01 -9.7870244768707551e+00 0 0 2
597 199 2 4.0999999999999998e-01 -1.2375748401506799e+01 -1.3280679001407709e+01 -1.4256038851038232e+01 2 -3 4
1708 570 1 -8.1999999999999995e-01 -9.3869381546448949e+00 -8.4684077101145441e+00 -1.2443999935043125e+01 3 1 0
119 40 2 4.0999999999999998e-01 -1.3052825657742130e+01 -1.4126064011390554e+01 -9.4246780261983716e+00 -1 3 -1
1588 530 1 -8.1999999999999995e-01 -1.3399123286617215e+01 -7.2472680482507652e+00 -8.6250319213938749e+00 1 0 0
583 195 1 -8.1999999999999995e-01 -1.2249533537185814e+01 -5.2335878017194126e+00 -1.3875923408849122e+01 2 0 2
1157 386 2 4.0999999999999998e-01 -7.9798006037506797e+00 -7.8258289496462989e+00 -1.3594590248217530e+01 0 2 0
1039 347 1 -8.1999999999999995e-01 -1.0163879952020839e+01 -1.1218715386587695e+01 -1.3588608502749217e+01 1 2 0
596 199 2 4.0999999999999998e-01 -1.1506546760816196e+01 -1.4239384972542139e+01 -1.3260092994713277e+01 2 -3 4
1851 617 2 4.0999999999999998e-01 -9.4474935270896161e+00 -5.2257547022132886e+00 -1.1026689281065471e+01 3 -2 -3
1863 621 2 4.0999999999999998e-01 -1.2187167818938141e+01 -1.4904634054295828e+01 -7.6700379461847987e+00 0 1 4
9 3 2 4.0999999999999998e-01 -1.2679224386211633e+01 -5.9096069184855207e+00 -9.1685188441863747e+00 0 1 -2
1041 347 2 4.0999999999999998e-01 -1.0413362950902879e+01 -1.0949181678382384e+01 -1.4518703221226668e+01 1 2 0
802 268 1 -8.1999999999999995e-01 -1.0391259768869777e+01 -1.3821677438170882e+01 -9.8756738622548763e+00 3 3 0
803 268 2 4.0999999999999998e-01 -1.0988722432795551e+01 -1.3692904562483760e+01 -1.0667142289155752e+01 3 3 0
804 268 2 4.0999999999999998e-01 -1.0484702886360285e+01 -1.4757659176111570e+01 -9.5363024756209622e+00 3 3 0
1849 617 1 -8.1999999999999995e-01 -1.0171709449679220e+01 -5.8668359720200893e+00 -1.0772735607141128e+01 3 -2 -3
1394 465 2 4.0999999999999998e-01 -9.0818038397738690e+00 -8.0524586876829041e+00 -9.1066805305805456e+00 2 -1 1
1395 465 2 4.0999999999999998e-01 -9.6166076153837565e+00 -6.6462512105043476e+00 -8.4717772234483775e+00 2 -1 1
1393 465 1 -8.1999999999999995e-01 -9.2349411521665168e+00 -7.5455666486104382e+00 -8.2584024021993905e+00 2 -1 1
2199 733 2 4.0999999999999998e-01 -8.1110138963342671e+00 -1.4179835335022856e+01 -9.7923450131408529e+00 0 -2 1
720 240 2 4.0999999999999998e-01 -8.3677943552599956e+00 -1.0999886861273749e+01 -1.0985115971098669e+01 1 0 -5
595 199 1 -8.1999999999999995e-01 -1.1928635642843702e+01 -1.3338762438795213e+01 -1.3363467914357802e+01 2 -3 4
7 3 1 -8.1999999999999995e-01 -1.2138400281745469e+01 -5.1349376512212555e+00 -9.4961820232991236e+00 0 1 -2
718 240 1 -8.1999999999999995e-01 -8.0489568306774721e+00 -1.1286715087409542e+01 -1.1888464422537263e+01 1 0 -5
1590 530 2 4.0999999999999998e-01 -1.3351297831422482e+01 -7.5957091123797884e+00 -7.6889400900926299e+00 1 0 0
1627 543 1 -8.1999999999999995e-01 -8.0375159418143021e+00 -1.1482776872515839e+01 -8.0897388675619126e+00 3 2 -1
719 240 2 4.0999999999999998e-01 -8.8349186632562855e+00 -1.1522685434529503e+01 -1.2459908534896364e+01 1 0 -5
8 3 2 4.0999999999999998e-01 -1.1257563734222671e+01 -5.4636960844739431e+00 -9.8367862419313656e+00 0 1 -2
1628 543 2 4.0999999999999998e-01 -7.5335760793764948e+00 -1.2295125628659331e+01 -8.3831676816778113e+00 3 2 -1
242 81 2 4.0999999999999998e-01 -1.4798489640104693e+01 -9.5614646379551615e+00 -1.0769977897313415e+01 0 0 2
217 73 1 -8.1999999999999995e-01 -1.2352608792567930e+01 -1.2146294233112787e+01 -7.5631374290665434e+00 -1 0 -3
2375 792 2 4.0999999999999998e-01 -1.4165642973026854e+01 -1.2114973639698958e+01 -7.7207619731458852e+00 0 1 0
219 73 2 4.0999999999999998e-01 -1.1810644904165855e+01 -1.2986307571277106e+01 -7.5880192245986988e+00 -1 0 -3
241 81 1 -8.1999999999999995e-01 -1.4956616069023640e+01 -1.0548066224814022e+01 -1.0730232206295335e+01 0 0 2
1199 400 2 4.0999999999999998e-01 -3.9629571840542965e-01 -1.2706949700213405e+01 -1.4572040606693390e+01 -3 0 1
1200 400 2 4.0999999999999998e-01 -3.0966537943881534e-01 -1.2261956503586156e+01 -1.3003279002982110e+01 -3 0 1
1935 645 2 4.0999999999999998e-01 -6.3374890512598157e+00 -5.3296422155804564e+00 -1.3311276831417214e+01 -1 -2 4
1803 601 2 4.0999999999999998e-01 -1.5184576101576610e+00 -1.2482996775121698e+01 -8.0006446716832578e+00 4 -3 -2
1156 386 1 -8.1999999999999995e-01 -7.1828072329700738e+00 -7.2228986105033872e+00 -1.3559335104936231e+01 0 2 0
1198 400 1 -8.1999999999999995e-01 -8.7311610982846588e-01 -1.2237311921974820e+01 -1.3829040582622278e+01 -3 0 1
252 84 2 4.0999999999999998e-01 -5.1015706327383938e+00 -5.4965514006431917e+00 -8.4796311820765240e+00 -3 2 -1
1129 377 1 -8.1999999999999995e-01 -6.4378800482036205e+00 -8.1902817787216335e+00 -7.4823543114521396e+00 3 -1 -2
1697 566 2 4.0999999999999998e-01 -2.1869035147790026e+00 -6.9176236809604479e+00 -1.1317076758056947e+01 0 1 -1
2568 856 2 4.0999999999999998e-01 -6.6431858948711113e+00 -1.4074761305096233e+01 -1.1160618954659082e+01 1 -1 0
1158 386 2 4.0999999999999998e-01 -6.6740096510823612e+00 -7.3920140936619898e+00 -1.2715243101014199e+01 0 2 0
1497 499 2 4.0999999999999998e-01 -6.8931380998749958e+00 -1.3978947963889013e+01 -1.4017606715844742e+01 0 0 -2
175 59 1 -8.1999999999999995e-01 -4.0623323071071678e+00 -1.0720434601722319e+01 -1.4011237250946650e+01 2 0 1
1698 566 2 4.0999999999999998e-01 -2.9050984585496327e+00 -5.4737698554658607e+00 -1.1574018200877747e+01 0 1 -1
2329 777 1 -8.1999999999999995e-01 -3.8752326808466933e+00 -6.6746203702515654e+00 -1.4300029742969921e+01 -2 0 1
1802 601 2 4.0999999999999998e-01 -2.1269518054486802e+00 -1.1390156566065215e+01 -9.0503931106849453e+00 4 -3 -2
1130 377 2 4.0999999999999998e-01 -7.3704907877939307e+00 -7.9403476798411825e+00 -7.7426167123458081e+00 3 -1 -2
519 173 2 4.0999999999999998e-01 -5.5435213931056690e+00 -6.7014588260429928e+00 -1.0727760536512921e+01 0 2 -3
261 87 2 4.0999999999999998e-01 -7.0753339100231472e-01 -8.1208836052408326e+00 -1.0228147098336947e+01 0 0 -1
2433 811 2 4.0999999999999998e-01 -4.4276652739109714e+00 -1.0901640258337133e+01 -1.0326815623808159e+01 -1 -1 -2
251 84 2 4.0999999999999998e-01 -5.5110999449439326e+00 -7.0744390037638931e+00 -8.3842732057340399e+00 -3 2 -1
2201 734 2 4.0999999999999998e-01 -1.0554773613424704e+00 -9.8915822207091146e+00 -1.3336327053419010e+01 -1 -1 4
2566 856 1 -8.1999999999999995e-01 -6.5851433851990500e+00 -1.3629100635673954e+01 -1.2053918450954757e+01 1 -1 0
2200 734 1 -8.1999999999999995e-01 -1.6759311849645755e+00 -9.1834342715348249e+00 -1.3673268938490780e+01 -1 -1 4
2202 734 2 4.0999999999999998e-01 -1.5309700322139541e+00 -8.3397945752597433e+00 -1.3156331164856187e+01 -1 -1 4
2198 733 2 4.0999999999999998e-01 -7.2310482868141390e+00 -1.4401348140543252e+01 -8.4347260273371294e+00 0 -2 1
2197 733 1 -8.1999999999999995e-01 -7.1861421281984557e+00 -1.4196521677779597e+01 -9.4124764451822820e+00 0 -2 1
880 294 1 -8.1999999999999995e-01 -2.8391403326886948e+00 -8.1234464443763965e+00 -1.0163361263790247e+01 1 -1 -1
2563 855 1 -8.1999999999999995e-01 -4.5484957249215778e+00 -1.4038611913643981e+01 -9.5632599794329529e+00 1 -1 0
1288 430 1 -8.1999999999999995e-01 -5.3318006704297307e+00 -1.0243616205844713e+01 -1.1515902199363094e+01 1 3 1
2567 856 2 4.0999999999999998e-01 -7.0980416352511941e+00 -1.2770944843692817e+01 -1.2032229909351525e+01 1 -1 0
2097 699 2 4.0999999999999998e-01 -3.7561449137672565e+00 -1.3204860653302173e+01 -1.3294866878675521e+01 2 2 -2
517 173 1 -8.1999999999999995e-01 -5.6787172806418873e+00 -7.3203480929891338e+00 -1.1501494675317437e+01 0 2 -3
176 59 2 4.0999999999999998e-01 -3.7820173288698804e+00 -1.1382130585011948e+01 -1.4706613617136002e+01 2 0 1
2564 855 2 4.0999999999999998e-01 -4.3399707224149573e+00 -1.3060665098834802e+01 -9.5734439747702087e+00 1 -1 0
518 173 2 4.0999999999999998e-01 -4.8257930531922657e+00 -7.8060246845267187e+00 -1.1692818592983691e+01 0 2 -3
1290 430 2 4.0999999999999998e-01 -6.3284246993187541e+00 -1.0182017159713364e+01 -1.1461935050279644e+01 1 3 1
881 294 2 4.0999999999999998e-01 -3.0620133996459789e+00 -9.0978145952049534e+00 -1.0133350241618446e+01 1 -1 -1
2565 855 2 4.0999999999999998e-01 -5.5314098305844404e+00 -1.4168488991299895e+01 -9.4329596411514736e+00 1 -1 0
2432 811 2 4.0999999999999998e-01 -4.2420908099632442e+00 -1.0536840873915263e+01 -8.7459866159157684e+00 -1 -1 -2
177 59 2 4.0999999999999998e-01 -3.2703603436408883e+00 -1.0180283981523569e+01 -1.3726660213615332e+01 2 0 1
250 84 1 -8.1999999999999995e-01 -5.0274702709892960e+00 -6.3877920692892616e+00 -8.9270297701775263e+00 -3 2 -1
1696 566 1 -8.1999999999999995e-01 -2.3202295109850422e+00 -6.1779025588035026e+00 -1.1976624478245114e+01 0 1 -1
2095 699 1 -8.1999999999999995e-01 -3.0021396564481453e+00 -1.3861103253908469e+01 -1.3322939726648203e+01 2 2 -2
2431 811 1 -8.1999999999999995e-01 -3.9488095328918398e+00 -1.1145240444093066e+01 -9.4834162294462914e+00 -1 -1 -2
1801 601 1 -8.1999999999999995e-01 -1.3025437559537725e+00 -1.1690109678600329e+01 -8.5704495368659686e+00 4 -3 -2
882 294 2 4.0999999999999998e-01 -3.5364296654967209e+00 -7.6065859005194705e+00 -9.6667637995830145e+00 1 -1 -1
2330 777 2 4.0999999999999998e-01 -3.4541736827554690e+00 -6.3840497312963294e+00 -1.3440818249286661e+01 -2 0 1
1289 430 2 4.0999999999999998e-01 -5.0672524155736127e+00 -1.0583655385411273e+01 -1.2418317821348095e+01 1 3 1
2096 699 2 4.0999999999999998e-01 -2.1361909807813113e+00 -1.3370005158312820e+01 -1.3417395569179911e+01 2 2 -2
906 302 2 4.0999999999999998e-01 -2.3799882758123907e+00 -1.4686553856888960e+01 -1.1485255025831368e+01 1 0 0
1543 515 1 -8.1999999999999995e-01 -3.9232688436861967e+00 -9.2755186298512609e+00 -7.4896005979544658e+00 3 -3 2
1495 499 1 -8.1999999999999995e-01 -7.3333565117839354e+00 -1.3964674189490562e+01 -1.4915365214417436e+01 0 0 -2
1598 533 2 4.0999999999999998e-01 -6.0267504534092176e+00 -1.0902163729779826e+01 -1.4806068067246573e+01 -1 -2 3
2331 777 2 4.0999999999999998e-01 -3.9646600207482727e+00 -5.8875172863612075e+00 -1.4910306605479526e+01 -2 0 1
1259 420 2 4.0999999999999998e-01 -1.2995626525588722e+01 -1.4910539595327577e+01 -2.9103661314488782e-01 0 0 5
218 73 2 4.0999999999999998e-01 -1.1779729282842229e+01 -1.1389199510771228e+01 -7.2491581063176893e+00 -1 0 -3
1906 636 1 -8.1999999999999995e-01 -1.3295326071091331e+01 -9.4090720194509139e+00 -2.9832605856565184e+00 3 0 0
1907 636 2 4.0999999999999998e-01 -1.4138901134978772e+01 -8.8723540704168986e+00 -3.0000335969216874e+00 3 0 0
1509 503 2 4.0999999999999998e-01 -7.7918768604213442e+00 -7.7490473388756618e+00 -3.2468689491797385e+00 0 -2 -2
1908 636 2 4.0999999999999998e-01 -1.2750599981862351e+01 -9.1489959048793175e+00 -2.1860151671202157e+00 3 0 0
2313 771 2 4.0999999999999998e-01 -9.2841250599405960e+00 -1.0676550663731572e+01 -7.1189278250086252e+00 0 1 0
232 78 1 -8.1999999999999995e-01 -1.2819621896302440e+01 -8.0340728361923404e+00 -5.6081181478430189e+00 -2 1 0
1982 661 2 4.0999999999999998e-01 -7.5212648151687800e+00 -1.0878837970359449e+01 -1.0671108090580006e+00 1 -2 -1
2311 771 1 -8.1999999999999995e-01 -9.9297844890741089e+00 -1.0429105106106672e+01 -6.3965284018412127e+00 0 1 0
1508 503 2 4.0999999999999998e-01 -9.2497864107223684e+00 -8.3960518330886735e+00 -3.5967571235523152e+00 0 -2 -2
13 5 1 -8.1999999999999995e-01 -1.0572099509674981e+01 -7.3134517229610339e+00 -2.5171677061740656e+00 1 0 -1
860 287 2 4.0999999999999998e-01 -1.0718358609453656e+01 -1.0780969819737924e+01 -4.5893392009317822e+00 -1 0 -2
1042 348 1 -8.1999999999999995e-01 -8.9609376203905597e+00 -1.2274202451697562e+01 -1.8470045098846324e+00 4 1 -3
2312 771 2 4.0999999999999998e-01 -1.0318125709042377e+01 -9.5283154518542261e+00 -6.5907845565302701e+00 0 1 0
14 5 2 4.0999999999999998e-01 -1.0649823394253239e+01 -7.2148707668340721e+00 -1.5250955523691676e+00 1 0 -1
1861 621 1 -8.1999999999999995e-01 -1.1579926410769087e+01 -1.4797435568654226e+01 -6.8828068814710122e+00 0 1 4
861 287 2 4.0999999999999998e-01 -1.1929345565314666e+01 -1.0685600366136063e+01 -3.4980317160218792e+00 -1 0 -2
859 287 1 -8.1999999999999995e-01 -1.1150079797776096e+01 -1.1230581133765412e+01 -3.8073974895577365e+00 -1 0 -2
1043 348 2 4.0999999999999998e-01 -9.6257173465686172e+00 -1.1536739585418230e+01 -1.7279131210386254e+00 4 1 -3
15 5 2 4.0999999999999998e-01 -1.0257758084537594e+01 -6.4511703429049891e+00 -2.9141899501557589e+00 1 0 -1
1507 503 1 -8.1999999999999995e-01 -8.2645443782582788e+00 -8.5660021156034709e+00 -3.5772273603852032e+00 0 -2 -2
2217 739 2 4.0999999999999998e-01 -1.4114492433451531e+01 -5.4017472772688979e+00 -3.9980885540921030e+00 0 1 1
234 78 2 4.0999999999999998e-01 -1.2996361375337083e+01 -8.3869306331863100e+00 -4.6893032153749097e+00 -2 1 0
2157 719 2 4.0999999999999998e-01 -9.0745246326237261e+00 -1.2386238186194060e+01 -5.1143944077946433e+00 0 4 1
1237 413 1 -8.1999999999999995e-01 -1.0642608115551059e+01 -6.2581701441539064e+00 -5.6087335191766492e+00 3 -1 0
1920 640 2 4.0999999999999998e-01 -1.1852939793785998e+01 -1.2891721072630101e+01 -3.4641574978746696e+00 0 1 0
1918 640 1 -8.1999999999999995e-01 -1.2546622561781538e+01 -1.3578319214720530e+01 -3.2465487019984547e+00 0 1 0
1209 403 2 4.0999999999999998e-01 -7.4954742376192822e+00 -9.6940480328498211e+00 -4.8128451738806142e+00 2 -2 0
233 78 2 4.0999999999999998e-01 -1.1933543870170180e+01 -7.5707965876589194e+00 -5.6225132459655800e+00 -2 1 0
699 233 2 4.0999999999999998e-01 -1.4657408367710980e+01 -9.7052211334267220e+00 -6.5189190711956186e+00 -1 2 -2
1919 640 2 4.0999999999999998e-01 -1.2326058617096738e+01 -1.4434608090471304e+01 -3.7135468502606308e+00 0 1 0
1044 348 2 4.0999999999999998e-01 -8.5725706983618100e+00 -1.2519509353203548e+01 -9.5876920648804997e-01 4 1 -3
2155 719 1 -8.1999999999999995e-01 -8.7031694037079816e+00 -1.3099429747858506e+01 -4.5199035579765034e+00 0 4 1
2156 719 2 4.0999999999999998e-01 -8.8403563991571446e+00 -1.2841105148182164e+01 -3.5636533298550397e+00 0 4 1
1260 420 2 4.0999999999999998e-01 -1.2792943994503114e+01 -1.3763738482939431e+01 -1.4357216327534221e+00 0 0 5
1071 357 2 4.0999999999999998e-01 -1.2431758201216256e+01 -5.4246037729527323e+00 -5.9671293955929627e+00 0 1 0
1239 413 2 4.0999999999999998e-01 -1.0101460813867526e+01 -6.6404955970906627e+00 -6.3577015713442968e+00 3 -1 0
1238 413 2 4.0999999999999998e-01 -1.0047267242633009e+01 -5.7302666308339045e+00 -5.0030492091762468e+00 3 -1 0
1258 420 1 -8.1999999999999995e-01 -1.3244329203140298e+01 -1.3983272556726380e+01 -5.7083866617731971e-01 0 0 5
2024 675 2 4.0999999999999998e-01 -1.4274519307104327e+01 -1.2959567457293709e+01 -3.3566545969739661e+00 -2 1 -2
2169 723 2 4.0999999999999998e-01 -8.1781150053832974e+00 -5.2201177958757619e+00 -3.0230568984735608e+00 2 0 -1
2215 739 1 -8.1999999999999995e-01 -1.4910714913369953e+01 -5.8256605572568070e+00 -4.4297060668360047e+00 0 1 1
1070 357 2 4.0999999999999998e-01 -1.4007613327165245e+01 -4.9974329122174090e+00 -5.9398828020829271e+00 0 1 0
2167 723 1 -8.1999999999999995e-01 -9.1277566430960224e+00 -5.1204252476933707e+00 -3.3200561051150501e+00 2 0 -1
1404 468 2 4.0999999999999998e-01 -4.1689708169322746e+00 -7.4451854041338406e+00 -4.2819959179728642e+00 0 -1 5
1981 661 1 -8.1999999999999995e-01 -6.7967792684129851e+00 -1.0542738106984322e+01 -4.6534349478692505e-01 1 -2 -1
2513 838 2 4.0999999999999998e-01 -3.8636730476032088e+00 -1.2069578778853923e+01 -6.2723418867470038e-01 2 -4 -1
2580 860 2 4.0999999999999998e-01 -4.6946032159675468e+00 -1.4239793088149394e+01 -1.5181986355199779e+00 1 -1 1
169 57 1 -8.1999999999999995e-01 -5.9562696194898361e+00 -1.2289433930040472e+01 -4.1849151894637551e+00 -3 1 -1
70 24 1 -8.1999999999999995e-01 -2.8857819305076067e+00 -9.0564726976510990e+00 -2.4339317032246779e+00 -2 -2 -2
2578 860 1 -8.1999999999999995e-01 -4.2594880245648845e+00 -1.3801764944261935e+01 -2.3048195474436390e+00 1 -1 1
2503 835 1 -8.1999999999999995e-01 -6.5243330668172579e+00 -7.6895334095354748e+00 -7.7628094408898640e-01 1 0 1
2020 674 1 -8.1999999999999995e-01 -6.5355306727109124e+00 -5.7381524203375616e+00 -2.6890900127073429e+00 1 2 0
1544 515 2 4.0999999999999998e-01 -4.8508442618919840e+00 -8.9042564215798858e+00 -7.4479523432844275e+00 3 -3 2
90 30 2 4.0999999999999998e-01 -2.3396081767292571e+00 -5.1505390615367794e+00 -3.7140526594534791e+00 2 2 -2
170 57 2 4.0999999999999998e-01 -5.5446219044929261e+00 -1.1998155131417379e+01 -3.3213937954403701e+00 -3 1 -1
1402 468 1 -8.1999999999999995e-01 -5.0396752648699419e+00 -7.7677221077986083e+00 -3.9107679635126065e+00 0 -1 5
658 220 1 -8.1999999999999995e-01 -2.2611923845414790e+00 -1.4193602447361439e+01 -6.4557531478180170e+00 -1 4 -1
2579 860 2 4.0999999999999998e-01 -4.4497505100338941e+00 -1.4333658286803701e+01 -3.1299595462080916e+00 1 -1 1
2505 835 2 4.0999999999999998e-01 -6.6264074927311452e+00 -8.6760077429799924e+00 -9.0440405010128266e-01 1 0 1
2504 835 2 4.0999999999999998e-01 -6.5605035547628692e+00 -7.2324955337180175e+00 -1.6649734700826784e+00 1 0 1
185 62 2 4.0999999999999998e-01 -3.9762445551889343e+00 -1.0258620897149102e+01 -2.2754005916896816e+00 0 0 2
787 263 1 -8.1999999999999995e-01 -3.4459154413498005e-01 -7.5113869137087397e+00 -5.8565877704166542e+00 1 1 -3
1418 473 2 4.0999999999999998e-01 -3.0787988236855082e+00 -5.5280015043782402e+00 -5.9066758400176980e+00 1 -1 2
659 220 2 4.0999999999999998e-01 -2.0617366681230198e+00 -1.4631192045480685e+01 -5.5789982640055609e+00 -1 4 -1
1052 351 2 4.0999999999999998e-01 -4.2407012508513287e+00 -1.1704445293327701e+01 -5.2595068018734068e+00 2 -1 1
1207 403 1 -8.1999999999999995e-01 -6.6443539403960976e+00 -9.9123742422702374e+00 -5.2902279197276894e+00 2 -2 0
186 62 2 4.0999999999999998e-01 -5.4000267803149704e+00 -1.0660057615488927e+01 -1.5838591983411821e+00 0 0 2
171 57 2 4.0999999999999998e-01 -6.8684252369441747e+00 -1.2660460581922694e+01 -4.0109102998817168e+00 -3 1 -1
71 24 2 4.0999999999999998e-01 -3.6361654970411355e+00 -8.4531324212537875e+00 -2.7038786735713529e+00 -2 -2 -2
2226 742 2 4.0999999999999998e-01 -1.5407591698059750e+00 -1.4220406381078002e+01 -1.9442819580668189e+00 1 -1 0
1051 351 1 -8.1999999999999995e-01 -3.6441691513462349e+00 -1.1992972154087916e+01 -6.0084180574234676e+00 2 -1 1
1029 343 2 4.0999999999999998e-01 -1.0108404647212570e+00 -1.0741457373044597e+01 -5.8362757550795852e+00 1 2 1
1805 602 2 4.0999999999999998e-01 -1.5954367398385880e+00 -8.5777149446901415e+00 -4.9863483442949654e+00 0 0 3
1403 468 2 4.0999999999999998e-01 -5.3083922747653549e+00 -8.6111280214298631e+00 -4.3759818612287855e+00 0 -1 5
1053 351 2 4.0999999999999998e-01 -3.5300022818233536e+00 -1.1237522246567259e+01 -6.6535751836444064e+00 2 -1 1
2021 674 2 4.0999999999999998e-01 -6.0532624853886503e+00 -6.1825513956654117e+00 -3.4440027867571832e+00 1 2 0
1806 602 2 4.0999999999999998e-01 -2.6992716856142440e+00 -9.5765365799736486e+00 -4.3151997177983024e+00 0 0 3
31 11 1 -8.1999999999999995e-01 -6.3917967255196739e+00 -1.4195809182579479e+01 -6.7071120503079857e+00 -1 1 -2
1208 403 2 4.0999999999999998e-01 -6.2591081321196711e+00 -1.0755806044070958e+01 -4.9158286274626306e+00 2 -2 0
33 11 2 4.0999999999999998e-01 -7.1946070588516244e+00 -1.3948328257184549e+01 -6.1646960435852112e+00 -1 1 -2
1131 377 2 4.0999999999999998e-01 -6.4669513675883490e+00 -8.8545155750356237e+00 -6.7354174905861903e+00 3 -1 -2
72 24 2 4.0999999999999998e-01 -2.4547616605414238e+00 -8.7016413190363568e+00 -1.6043037270707217e+00 -2 -2 -2
2224 742 1 -8.1999999999999995e-01 -9.4568085847168781e-01 -1.4458744225640034e+01 -2.7117734773584701e+00 1 -1 0
1417 473 1 -8.1999999999999995e-01 -2.7750464206329681e+00 -6.1893937694040169e+00 -5.2209199763077940e+00 1 -1 2
2469 823 2 4.0999999999999998e-01 -7.7226565053475582e-02 -6.6842527844907469e+00 -1.0138888083819744e+00 3 2 -1
2366 789 2 4.0999999999999998e-01 -6.8488007909210680e-01 -1.0600116018661716e+01 -9.8457297320517689e-01 -1 2 -5
660 220 2 4.0999999999999998e-01 -2.7994605358194189e+00 -1.3365352541183951e+01 -6.3000743094525102e+00 -1 4 -1
32 11 2 4.0999999999999998e-01 -5.6112043521915815e+00 -1.3640942042179425e+01 -6.4194240786578423e+00 -1 1 -2
184 62 1 -8.1999999999999995e-01 -4.6857783305614973e+00 -1.0960746873909786e+01 -2.2158413815114546e+00 0 0 2
1545 515 2 4.0999999999999998e-01 -3.4123981342322605e+00 -8.9877649820362837e+00 -6.6795541038413120e+00 3 -3 2
1027 343 1 -8.1999999999999995e-01 -4.9910557695502789e-02 -1.0981562686291831e+01 -5.6986912590171706e+00 1 2 1
789 263 2 4.0999999999999998e-01 -1.5050257581198601e-01 -8.2738018045492190e+00 -6.4738554176381982e+00 1 1 -3
1804 602 1 -8.1999999999999995e-01 -2.2637437257999320e+00 -9.2982303048769896e+00 -5.1712530706631750e+00 0 0 3
2512 838 1 -8.1999999999999995e-01 -3.0456178165968204e+00 -1.2133470213537343e+01 -5.5683778102396886e-02 2 -4 -1
1419 473 2 4.0999999999999998e-01 -1.9712436966550744e+00 -6.6771913529638827e+00 -5.5613917826204133e+00 1 -1 2
2467 823 1 -8.1999999999999995e-01 -6.2241270575215069e-01 -6.6628877441564249e+00 -1.7586615300592356e-01 3 2 -1
2065 689 1 -8.1999999999999995e-01 -8.8031306168015480e+00 -1.0426246056200384e+01 4.8150849495926753e+00 4 -1 1
2067 689 2 4.0999999999999998e-01 -8.3504687329332832e+00 -9.5463492013216111e+00 4.6707067505498419e+00 4 -1 1
1062 354 2 4.0999999999999998e-01 -1.1172467341490083e+01 -6.3284942344263531e+00 6.3531050431850034e-01 0 2 0
1765 589 1 -8.1999999999999995e-01 -1.0558291464187057e+01 -1.3973885828065693e+01 1.8387777932920262e+00 4 -2 2
1137 379 2 4.0999999999999998e-01 -1.3573489379633822e+01 -1.3135768159999092e+01 3.6516975023984539e+00 1 -4 -1
1754 585 2 4.0999999999999998e-01 -1.0215649399351850e+01 -1.1666585395059640e+01 5.0130783104561960e+00 1 0 -3
1135 379 1 -8.1999999999999995e-01 -1.3493775803423656e+01 -1.2139002564578734e+01 3.6433013126295659e+00 1 -4 -1
1753 585 1 -8.1999999999999995e-01 -1.1082270711937893e+01 -1.2164943701560688e+01 4.9891438274879558e+00 1 0 -3
2405 802 2 4.0999999999999998e-01 -1.0458979435562753e+01 -9.2087662561768155e+00 5.1715207685344442e+00 0 -2 3
1755 585 2 4.0999999999999998e-01 -1.1178668996764058e+01 -1.2706227180002118e+01 5.8244197868213856e+00 1 0 -3
822 274 2 4.0999999999999998e-01 -9.5241276397285901e+00 -6.3074626062152923e+00 7.3064672196508571e+00 1 -1 3
2404 802 1 -8.1999999999999995e-01 -1.0827398269067242e+01 -8.2921862250059313e+00 5.0162308746385680e+00 0 -2 3
2406 802 2 4.0999999999999998e-01 -1.1524678862396200e+01 -8.0922051242158020e+00 5.7045430726780193e+00 0 -2 3
1595 532 2 4.0999999999999998e-01 -8.8639059864785459e+00 -1.3368111292413946e+01 3.6595412199532849e+00 0 0 -1
2142 714 2 4.0999999999999998e-01 -1.4213100198315418e+01 -1.3234384160084364e+01 6.0435645895460333e-01 3 2 -2
933 311 2 4.0999999999999998e-01 -1.3716849228349632e+01 -7.5473332453368727e+00 2.0460043269446668e+00 1 -1 1
2066 689 2 4.0999999999999998e-01 -8.1677148801014940e+00 -1.1167443610407645e+01 4.5986609557066469e+00 4 -1 1
1766 589 2 4.0999999999999998e-01 -1.1487918793603420e+01 -1.4028218043726080e+01 2.2032052972337528e+00 4 -2 2
65 22 2 4.0999999999999998e-01 -1.4485382898649389e+01 -9.1856372704025926e+00 3.9747505894858097e+00 0 0 1
2186 729 2 4.0999999999999998e-01 -1.0749419431053996e+01 -5.9609610937438759e+00 3.6080074979815979e+00 2 -3 -1
1623 541 2 4.0999999999999998e-01 -9.4759710659519367e+00 -7.3141162657861818e+00 5.4605651667448196e+00 3 1 -4
1622 541 2 4.0999999999999998e-01 -7.8633546337161420e+00 -7.0854529485956128e+00 5.5776896176386419e+00 3 1 -4
66 22 2 4.0999999999999998e-01 -1.4075362983257534e+01 -1.0212749731516396e+01 2.7733096041241598e+00 0 0 1
1621 541 1 -8.1999999999999995e-01 -8.7549019748526256e+00 -6.6326294009903464e+00 5.5854707454017944e+00 3 1 -4
438 146 2 4.0999999999999998e-01 -1.0077978911162184e+01 -8.6376054886894842e+00 3.0579559979961441e+00 -2 0 -3
2389 797 1 -8.1999999999999995e-01 -1.4863988703648490e+01 -1.1982299542686107e+01 6.6759858997927157e+00 2 1 1
931 311 1 -8.1999999999999995e-01 -1.3098944267699736e+01 -7.3811802704391267e+00 1.2775298477388848e+00 1 -1 1
64 22 1 -8.1999999999999995e-01 -1.4343174841587084e+01 -9.2737171039080355e+00 2.9888575095977270e+00 0 0 1
436 146 1 -8.1999999999999995e-01 -9.6769472642037542e+00 -9.0078795703118395e+00 2.2200794748184034e+00 -2 0 -3
2001 667 2 4.0999999999999998e-01 -1.4433968830223673e+01 -5.1441944679153497e+00 3.3396802523636442e+00 4 0 -4
437 146 2 4.0999999999999998e-01 -9.1845835415103352e+00 -8.2833657908475260e+00 1.7377682397416354e+00 -2 0 -3
22 8 1 -8.1999999999999995e-01 -8.2371257923940373e+00 -6.9608283434481484e+00 1.0651504418878144e+00 2 -2 -4
1061 354 2 4.0999999999999998e-01 -9.5966997336845878e+00 -5.9088773414888252e+00 5.4920063158989407e-01 0 2 0
2141 714 2 4.0999999999999998e-01 -1.4427207737335939e+01 -1.2534978225132138e+01 2.0643311607515056e+00 3 2 -2
24 8 2 4.0999999999999998e-01 -7.8231884269220249e+00 -6.3197807267748836e+00 1.7114322508427637e+00 2 -2 -4
124 42 1 -8.1999999999999995e-01 -1.0237950453236184e+01 -1.4177926164631053e+01 7.1734996497328449e+00 -1 -1 2
1136 379 2 4.0999999999999998e-01 -1.2630850984346864e+01 -1.1870025840395900e+01 4.0710613533798483e+00 1 -4 -1
1218 406 2 4.0999999999999998e-01 -1.2092447371997441e+01 -1.0704263379670774e+01 5.4909533084728679e-01 2 1 1
1970 657 2 4.0999999999999998e-01 -1.4608174896699529e+01 -8.2363992005570559e+00 6.5868145619684828e+00 1 -2 -2
1060 354 1 -8.1999999999999995e-01 -1.0534350733973405e+01 -5.5617360745926270e+00 5.6562929661969008e-01 0 2 0
328 110 1 -8.1999999999999995e-01 -1.3731616302169812e+01 -1.4773304063257926e+01 3.5018871588206100e+00 1 -2 -1
2140 714 1 -8.1999999999999995e-01 -1.4845262028922953e+01 -1.2707513604107149e+01 1.1724631636319156e+00 3 2 -2
23 8 2 4.0999999999999998e-01 -7.5747577248753322e+00 -7.1891129180767779e+00 3.5162325390530391e-01 2 -2 -4
2390 797 2 4.0999999999999998e-01 -1.3885700219486004e+01 -1.1800737043305809e+01 6.7757507104920496e+00 2 1 1
501 167 2 4.0999999999999998e-01 -1.3776508813936296e+01 -5.8707656489096678e+00 6.6480996539942083e-01 3 -4 3
2185 729 1 -8.1999999999999995e-01 -1.1135142554160220e+01 -5.1042523871875449e+00 3.2656126802396326e+00 2 -3 -1
932 311 2 4.0999999999999998e-01 -1.2563147073135836e+01 -8.2058339352722456e+00 1.0963280766579953e+00 1 -1 1
1999 667 1 -8.1999999999999995e-01 -1.3744057162087707e+01 -5.1900385343291635e+00 4.0620974158175667e+00 4 0 -4
602 201 2 4.0999999999999998e-01 -8.0920393963711525e+00 -9.7038908038560319e+00 2.0639652698059390e+00 2 0 -1
2171 724 2 4.0999999999999998e-01 -9.1445757497779709e+00 -1.3709429410597384e+01 8.5696212240356928e-01 -1 -3 -1
2000 667 2 4.0999999999999998e-01 -1.2840941984336498e+01 -5.0097352733938880e+00 3.6724307988838181e+00 4 0 -4
2170 724 1 -8.1999999999999995e-01 -8.1800667626625803e+00 -1.3768651043312879e+01 5.9970427021980122e-01 -1 -3 -1