LAMMPS data file via write_data, version 15 May 2015, timestep = 23005000

2611 atoms
6 atom types
1749 bonds
4 bond types
894 angles
3 angle types
44 dihedrals
3 dihedral types
10 impropers
1 improper types

-1.4934855043071339e+01 1.4934855043071339e+01 xlo xhi
-1.4934855043071339e+01 1.4934855043071339e+01 ylo yhi
-1.4934855043071339e+01 1.4934855043071339e+01 zlo zhi

Masses

1 15.9994
2 1.00794
3 12.0107
4 1.00794
5 12.0107
6 12.0107

Bond Coeffs # harmonic

1 1000 1
2 469 1.4
3 367 1.08
4 469 0.7

Angle Coeffs # harmonic

1 100 109.47
2 35 120
3 63 120

Dihedral Coeffs # opls

1 0 7.25 0 0
2 0 7.25 0 0
3 0 7.25 0 0

Improper Coeffs # cvff

1 2.5 -1 2

Atoms # full

2418 806 2 4.0999999999999998e-01 -8.5234045783238344e+00 -1.0021379167940434e+01 -1.1613862207851319e+01 1 -4 -1
2426 809 2 4.0999999999999998e-01 -1.0298515030636104e+01 -6.7535603025820148e+00 -1.1320753371837057e+01 -2 -4 6
1355 452 2 4.0999999999999998e-01 -1.0347571327342747e+01 -1.0220860680208784e+01 -1.2838374057253629e+01 -4 -2 4
2425 809 1 -8.1999999999999995e-01 -9.9138589669448152e+00 -7.3243798247032998e+00 -1.0595372936953957e+01 -2 -4 6
2427 809 2 4.0999999999999998e-01 -9.8575381790946217e+00 -8.2715432843658903e+00 -1.0911096374965597e+01 -2 -4 6
2518 840 1 -8.1999999999999995e-01 -1.0815485429397203e+01 -1.4909338718917963e+01 -1.0530457823480617e+01 -1 3 1
1521 507 2 4.0999999999999998e-01 -1.1527548625037394e+01 -1.1494001760829921e+01 -9.9989933902500674e+00 -5 -3 7
1354 452 1 -8.1999999999999995e-01 -1.0371891501338153e+01 -9.8848952188336732e+00 -1.1896828658423152e+01 -4 -2 4
1519 507 1 -8.1999999999999995e-01 -1.2245304291673772e+01 -1.0852396582798505e+01 -1.0269440293821461e+01 -5 -3 7
1356 452 2 4.0999999999999998e-01 -1.1099551473913820e+01 -1.0352322963869675e+01 -1.1394838351728982e+01 -4 -2 4
745 249 1 -8.1999999999999995e-01 -1.0077287216459720e+01 -1.0722582567700632e+01 -1.4506812842505809e+01 -3 -2 2
2231 744 2 4.0999999999999998e-01 -1.3047284821838325e+01 -6.3994209701269469e+00 -1.2218176226671154e+01 -1 -6 1
2416 806 1 -8.1999999999999995e-01 -7.6108817689618764e+00 -1.0152371386142381e+01 -1.1226415289939295e+01 1 -4 -1
2230 744 1 -8.1999999999999995e-01 -1.3908120996658928e+01 -6.9078598194597145e+00 -1.2197610032739318e+01 -1 -6 1
1023 341 2 4.0999999999999998e-01 -1.4018865441604333e+01 -1.0436255853854256e+01 -1.2856679520435453e+01 1 -1 -2
1520 507 2 4.0999999999999998e-01 -1.3111392627367044e+01 -1.1125254224274949e+01 -9.8506185244024245e+00 -5 -3 7
499 167 1 -8.1999999999999995e-01 -9.0989875251474910e+00 -1.3682219347406017e+01 -1.3076310418251611e+01 1 -3 6
500 167 2 4.0999999999999998e-01 -9.7783595962084462e+00 -1.3405082451611310e+01 -1.2396883673335719e+01 1 -3 6
2232 744 2 4.0999999999999998e-01 -1.3715361092736400e+01 -7.8875182990513508e+00 -1.2142069570715577e+01 -1 -6 1
2033 678 2 4.0999999999999998e-01 -1.4278842601850345e+01 -6.1592004089426737e+00 -1.0814147573558003e+01 3 -1 -1
1022 341 2 4.0999999999999998e-01 -1.2981901320574355e+01 -9.8379497728924719e+00 -1.1746144972829356e+01 1 -1 -2
2034 678 2 4.0999999999999998e-01 -1.3719703942159647e+01 -6.0299065404438998e+00 -9.2853576157791231e+00 3 -1 -1
1442 481 2 4.0999999999999998e-01 -1.1483107492985390e+01 -7.3983973776062975e+00 -9.5066100758280356e+00 -4 3 -4
2032 678 1 -8.1999999999999995e-01 -1.4392289324115518e+01 -5.6859571123683033e+00 -9.9405672293961373e+00 3 -1 -1
1066 356 1 -8.1999999999999995e-01 -8.1691948175706131e+00 -1.1013791944000378e+01 -8.6159348620957452e+00 2 -4 4
1067 356 2 4.0999999999999998e-01 -7.9375178695131661e+00 -1.1097249790469077e+01 -9.5851265698637356e+00 2 -4 4
1784 595 2 4.0999999999999998e-01 -9.1222984113969137e+00 -8.0366017333608237e+00 -8.8107189197999034e+00 -1 0 4
485 162 2 4.0999999999999998e-01 -9.6771132567558844e+00 -1.2527970597272615e+01 -8.8875193936981809e+00 -8 2 1
486 162 2 4.0999999999999998e-01 -1.0631215340754705e+01 -1.3464822388734021e+01 -9.8248292180237211e+00 -8 2 1
484 162 1 -8.1999999999999995e-01 -1.0582215402868460e+01 -1.2612462870090251e+01 -9.3042004840042978e+00 -8 2 1
2481 827 2 4.0999999999999998e-01 -1.4817535186711732e+01 -1.2766433155817509e+01 -8.0548425350983770e+00 -2 -7 -1
501 167 2 4.0999999999999998e-01 -9.5633528791550351e+00 -1.4063212705742625e+01 -1.3875798266350884e+01 1 -3 6
237 79 2 4.0999999999999998e-01 -7.6368627027594647e+00 -6.4845481052203997e+00 -1.4568044219164047e+01 -7 0 2
1441 481 1 -8.1999999999999995e-01 -1.2302034385018720e+01 -7.2219212195584408e+00 -8.9605451545533477e+00 -4 3 -4
2220 740 2 4.0999999999999998e-01 -7.5604616116848478e+00 -1.2754721442899625e+01 -1.3457009011769756e+01 1 -2 0
514 172 1 -8.1999999999999995e-01 -1.4320079029520926e+01 -1.1477724637348015e+01 -1.4208924816085251e+01 2 -7 2
1524 508 2 4.0999999999999998e-01 -1.1589032139845038e+01 -5.1596741168290219e+00 -1.3118015742801219e+01 -5 3 4
2141 714 2 4.0999999999999998e-01 -1.1854320609410046e+01 -5.6969682636094543e+00 -8.0818219466539247e+00 -1 1 -1
1021 341 1 -8.1999999999999995e-01 -1.3894909088112879e+01 -9.7462307014190159e+00 -1.2143607335354504e+01 1 -1 -2
1783 595 1 -8.1999999999999995e-01 -9.3476342597194915e+00 -8.4994500971549893e+00 -7.9534166890967715e+00 -1 0 4
1522 508 1 -8.1999999999999995e-01 -1.1561958901850643e+01 -5.5485571841878318e+00 -1.2197141704400101e+01 -5 3 4
2409 803 2 4.0999999999999998e-01 -1.1385759001806711e+01 -1.2591019233800786e+01 -7.7156675179648948e+00 3 -3 2
417 139 2 4.0999999999999998e-01 -8.6318857154946613e+00 -6.0112453971333295e+00 -9.3689271076312295e+00 -1 -6 3
1443 481 2 4.0999999999999998e-01 -1.2758116585465865e+01 -8.0876314150357587e+00 -8.7543734272591909e+00 -4 3 -4
415 139 1 -8.1999999999999995e-01 -8.2789879979909848e+00 -5.5181283796479867e+00 -8.5737725776735658e+00 -1 -6 3
1379 460 2 4.0999999999999998e-01 -1.4281021947959799e+01 -1.3426283471216447e+01 -1.0149487248016122e+01 3 -6 -2
1378 460 1 -8.1999999999999995e-01 -1.4537835176514481e+01 -1.4113601250464804e+01 -1.0828908459110849e+01 3 -6 -2
236 79 2 4.0999999999999998e-01 -9.1597744788219320e+00 -6.9188365553238214e+00 -1.4169691483204671e+01 -7 0 2
1068 356 2 4.0999999999999998e-01 -8.4853987708714271e+00 -1.0083979940635988e+01 -8.4276887145761741e+00 2 -4 4
1641 547 2 4.0999999999999998e-01 -1.4456320546995848e+01 -1.0567644533840410e+01 -8.6348059992104993e+00 -4 1 3
1304 435 2 4.0999999999999998e-01 -7.9639681563247873e+00 -5.3649892752796493e+00 -1.2399501925567666e+01 -5 -4 7
2286 762 2 4.0999999999999998e-01 -1.4818892254877692e+01 -6.0800883797282133e+00 -1.3423235515774426e+01 -5 2 -11
235 79 1 -8.1999999999999995e-01 -8.3290100514591749e+00 -6.4656420163238852e+00 -1.3846555100237346e+01 -7 0 2
390 130 2 4.0999999999999998e-01 -1.2800917447951903e+01 -1.4716568808133523e+01 -1.3728080050595937e+01 -3 -3 -1
1380 460 2 4.0999999999999998e-01 -1.3725346202575658e+01 -1.4400458564465515e+01 -1.1336398834511455e+01 3 -6 -2
1639 547 1 -8.1999999999999995e-01 -1.4702869967827226e+01 -1.1341233383033943e+01 -9.2185402546286603e+00 -4 1 3
163 55 1 -8.1999999999999995e-01 -1.4010924493612082e+01 -9.1868428466820262e+00 -7.4799956653295370e+00 4 -1 -2
2394 798 2 4.0999999999999998e-01 -1.4760428479088567e+01 -1.4480017506786234e+01 -1.4858209455278589e+01 4 3 7
2042 681 2 4.0999999999999998e-01 -1.6614754231645925e+00 -5.9054414659326930e+00 -8.6125115310609548e+00 -2 -2 -3
1323 441 2 4.0999999999999998e-01 -3.5879789072332784e+00 -1.4684690576339197e+01 -1.4463393938688974e+01 1 0 -6
2219 740 2 4.0999999999999998e-01 -6.3347384899522066e+00 -1.2338422157146459e+01 -1.2461594792892615e+01 1 -2 0
2124 708 2 4.0999999999999998e-01 -6.3745082589437843e+00 -1.1051371104061678e+01 -7.9628114441340490e+00 -5 2 5
2102 701 2 4.0999999999999998e-01 -1.2257671095278635e+00 -1.0635674485705406e+01 -1.0835451588253573e+01 6 3 3
2041 681 1 -8.1999999999999995e-01 -1.1767776614632393e+00 -6.5522913379429966e+00 -8.0237626102301700e+00 -2 -2 -3
543 181 2 4.0999999999999998e-01 -1.4681675796522242e+00 -8.3583527178202957e+00 -1.1381393178289095e+01 2 -1 -7
1425 475 2 4.0999999999999998e-01 -6.0508023364232457e+00 -1.1098004938536699e+01 -1.4885224376675815e+01 2 4 3
1904 635 2 4.0999999999999998e-01 -7.7645672758946382e-01 -1.4478537289164530e+01 -1.2290913033082413e+01 -6 0 -8
2043 681 2 4.0999999999999998e-01 -5.1892387177989896e-01 -7.0713213768309409e+00 -8.5694806338162977e+00 -2 -2 -3
2218 740 1 -8.1999999999999995e-01 -6.6613341143382527e+00 -1.2319983537686095e+01 -1.3406564275858310e+01 1 -2 0
2122 708 1 -8.1999999999999995e-01 -5.4659750118548356e+00 -1.0801527078136804e+01 -7.6279722549643347e+00 -5 2 5
787 263 1 -8.1999999999999995e-01 -5.1237790199560109e+00 -5.9239561629233854e+00 -7.7626227895380655e+00 2 4 4
2280 760 2 4.0999999999999998e-01 -6.9202593284018779e+00 -1.4158209844367756e+01 -1.0773108351086087e+01 3 0 -4
1511 504 2 4.0999999999999998e-01 -5.8185130370424289e+00 -8.3636987497700872e+00 -1.4616340022916638e+01 2 -7 4
2339 780 2 4.0999999999999998e-01 -4.9012461405018541e+00 -5.1705794013528124e+00 -9.2055837633025277e+00 -4 1 1
903 301 2 4.0999999999999998e-01 -3.3891252255058539e+00 -1.4383587181053151e+01 -8.8075652402039193e+00 -6 -4 -3
2417 806 2 4.0999999999999998e-01 -7.1284211045720429e+00 -9.2766983955216027e+00 -1.1206402519389361e+01 1 -4 -1
1583 528 2 4.0999999999999998e-01 -4.7749159417393212e+00 -9.2908707582689125e+00 -1.2307741954723246e+01 1 2 1
1449 483 2 4.0999999999999998e-01 -6.8082987445040306e+00 -1.1610987014188051e+01 -1.0891905056799430e+01 -3 -2 2
440 147 2 4.0999999999999998e-01 -1.2862545215067946e+00 -1.3095103309259668e+01 -7.5947034239460631e+00 2 -4 1
402 134 2 4.0999999999999998e-01 -7.4028454668120780e-01 -7.3317547059224628e+00 -1.2993228729112891e+01 -3 -1 2
1510 504 1 -8.1999999999999995e-01 -5.5162745795208732e+00 -8.5687639499312773e+00 -1.3685441439204233e+01 2 -7 4
1447 483 1 -8.1999999999999995e-01 -6.2602023665124591e+00 -1.2437969412399710e+01 -1.0766755215219817e+01 -3 -2 2
1321 441 1 -8.1999999999999995e-01 -2.6423115314051984e+00 -1.4874583055940162e+01 -1.4727261374175178e+01 1 0 -6
1584 528 2 4.0999999999999998e-01 -4.4472991055376578e+00 -9.2984775693446444e+00 -1.0708004177993969e+01 1 2 1
901 301 1 -8.1999999999999995e-01 -2.9811148546115405e+00 -1.3477894638012081e+01 -8.6925846711908772e+00 -6 -4 -3
1512 504 2 4.0999999999999998e-01 -5.7614917106279009e+00 -7.8109387376983834e+00 -1.3080841181127882e+01 2 -7 4
2290 764 1 -8.1999999999999995e-01 -5.1049880639193503e+00 -1.4566920408885203e+01 -1.3648771236064292e+01 -5 1 5
603 201 2 4.0999999999999998e-01 -3.2104500665262101e+00 -1.0595334830019686e+01 -8.7938739042392697e+00 -3 -1 -3
602 201 2 4.0999999999999998e-01 -1.7416188195786564e+00 -1.0276948427925371e+01 -8.1553469622373065e+00 -3 -1 -3
732 244 2 4.0999999999999998e-01 -7.8302522197983393e-02 -5.6711225893006514e+00 -1.4589550707105429e+01 -1 3 -1
1902 634 2 4.0999999999999998e-01 -3.5382559132787197e+00 -1.1479574629757584e+01 -1.1610984675863042e+01 -2 -1 8
356 119 2 4.0999999999999998e-01 -6.6626397988068540e+00 -6.0658248565809689e+00 -1.1627151729895756e+01 -3 0 1
541 181 1 -8.1999999999999995e-01 -2.0984046849955309e+00 -8.0127702241806116e+00 -1.2076624015190962e+01 2 -1 -7
355 119 1 -8.1999999999999995e-01 -6.1690886210688891e+00 -6.9343314924709993e+00 -1.1672708544898576e+01 -3 0 1
357 119 2 4.0999999999999998e-01 -5.5178158283266008e+00 -6.9877006822257224e+00 -1.0915762407329449e+01 -3 0 1
2291 764 2 4.0999999999999998e-01 -5.7474372310679378e+00 -1.3800677798544012e+01 -1.3658929413867606e+01 -5 1 5
902 301 2 4.0999999999999998e-01 -3.1125131026418433e+00 -1.2944602285934263e+01 -9.5282315888475431e+00 -6 -4 -3
601 201 1 -8.1999999999999995e-01 -2.3337284835386782e+00 -1.0140241719267223e+01 -8.9495065182320417e+00 -3 -1 -3
2024 675 2 4.0999999999999998e-01 -4.2894196867999153e+00 -7.0600747932083250e+00 -8.8865861488051401e+00 -2 -1 0
2025 675 2 4.0999999999999998e-01 -3.2703873237315726e+00 -8.1911875445476952e+00 -9.4771018364982282e+00 -2 -1 0
542 181 2 4.0999999999999998e-01 -2.9019763103875071e+00 -8.6061795652447231e+00 -1.2122558582883151e+01 2 -1 -7
2101 701 1 -8.1999999999999995e-01 -2.6567905159524585e-01 -1.0464761748664991e+01 -1.1056792380140868e+01 6 3 3
1762 588 1 -8.1999999999999995e-01 -3.1845909183659966e+00 -5.2250911747260655e+00 -1.1963137260223837e+01 1 -3 0
1900 634 1 -8.1999999999999995e-01 -3.3187707178331625e+00 -1.2296047678435237e+01 -1.1076971568122527e+01 -2 -1 8
1901 634 2 4.0999999999999998e-01 -3.0476278323679491e+00 -1.3034876180508759e+01 -1.1693888063208387e+01 -2 -1 8
1763 588 2 4.0999999999999998e-01 -2.6805561125785715e+00 -6.0867043664081191e+00 -1.1903609028901887e+01 1 -3 0
1448 483 2 4.0999999999999998e-01 -5.3028184301812011e+00 -1.2185320409319754e+01 -1.0626910768518940e+01 -3 -2 2
1582 528 1 -8.1999999999999995e-01 -4.2990359029475620e+00 -9.7758841869012514e+00 -1.1574071648091525e+01 1 2 1
2023 675 1 -8.1999999999999995e-01 -4.1230487579749138e+00 -7.6951018045986102e+00 -9.6409291334292444e+00 -2 -1 0
789 263 2 4.0999999999999998e-01 -6.0885168799340992e+00 -5.9356964574754070e+00 -7.4997254945980609e+00 2 4 4
1723 575 1 -8.1999999999999995e-01 -6.9062200388193773e-02 -1.2419356932347220e+01 -1.4922183623136446e+01 2 0 -1
849 283 2 4.0999999999999998e-01 -9.2558446097161369e+00 -5.7340485655989717e+00 -5.4052249760775872e+00 -6 2 2
750 250 2 4.0999999999999998e-01 -1.4046901117407906e+01 -6.0998209371985208e+00 -2.4296177007705317e+00 -3 -1 -1
1964 655 2 4.0999999999999998e-01 -1.3787713256145910e+01 -6.4372210540470363e+00 -4.6802896926040649e+00 -5 -1 -1
1965 655 2 4.0999999999999998e-01 -1.2829097527378019e+01 -7.6181500712151031e+00 -4.0861395984154267e+00 -5 -1 -1
1963 655 1 -8.1999999999999995e-01 -1.3644695526168736e+01 -7.0653133606274814e+00 -3.9154250135569590e+00 -5 -1 -1
748 250 1 -8.1999999999999995e-01 -1.3842337723139627e+01 -5.7069917656607263e+00 -1.5330626148769770e+00 -3 -1 -1
605 202 2 4.0999999999999998e-01 -1.1817087234511693e+01 -5.5426578179950621e+00 -9.8437670448624814e-01 -3 -3 0
848 283 2 4.0999999999999998e-01 -8.4937950037873584e+00 -6.4431025575658314e+00 -6.6634278890258365e+00 -6 2 2
1013 338 2 4.0999999999999998e-01 -9.7750611950050335e+00 -1.3280106098228945e+01 -2.6286231927668844e+00 -1 0 -2
1014 338 2 4.0999999999999998e-01 -1.1356149534076367e+01 -1.3607756663111857e+01 -2.3849912786612197e+00 -1 0 -2
2407 803 1 -8.1999999999999995e-01 -1.1597232675537963e+01 -1.2838481927066793e+01 -6.7701448665146522e+00 3 -3 2
847 283 1 -8.1999999999999995e-01 -9.3525817406893843e+00 -6.3898744092818838e+00 -6.1538946806236936e+00 -6 2 2
2108 703 2 4.0999999999999998e-01 -8.2499939612502313e+00 -1.1175660556835242e+01 -4.8261858017325689e+00 -7 -6 7
1696 566 1 -8.1999999999999995e-01 -9.6508360669668640e+00 -1.0919009251403770e+01 -5.8003510489680767e+00 -1 5 3
2012 671 2 4.0999999999999998e-01 -1.1965391293123295e+01 -1.0109211949787198e+01 -1.1067116737368270e+00 1 1 0
1012 338 1 -8.1999999999999995e-01 -1.0426482965165228e+01 -1.3968201254886818e+01 -2.3090192110520977e+00 -1 0 -2
1697 566 2 4.0999999999999998e-01 -1.0183258614036934e+01 -1.1749326539960242e+01 -5.9648848171710380e+00 -1 5 3
2011 671 1 -8.1999999999999995e-01 -1.1966732459068169e+01 -9.8580840714892766e+00 -1.3877315257328604e-01 1 1 0
2324 775 2 4.0999999999999998e-01 -1.3087927964478986e+01 -1.2730975685120665e+01 -3.6446088601295727e+00 0 0 -2
164 55 2 4.0999999999999998e-01 -1.4827328014058173e+01 -8.7011046809758739e+00 -7.1677206181094011e+00 4 -1 -2
2050 684 1 -8.1999999999999995e-01 -1.0725605834417184e+01 -1.0602170304253146e+01 -2.5050577164840462e+00 -2 -5 -1
2051 684 2 4.0999999999999998e-01 -1.0188499303174121e+01 -9.8870904713817573e+00 -2.0576771273226377e+00 -2 -5 -1
562 188 1 -8.1999999999999995e-01 -1.1450383651624840e+01 -8.5744387738610293e+00 -5.0627546761178959e+00 0 -4 0
563 188 2 4.0999999999999998e-01 -1.1119761160400770e+01 -9.5132698308190697e+00 -4.9665414465429034e+00 0 -4 0
2052 684 2 4.0999999999999998e-01 -1.0506667126470106e+01 -1.0622407378146695e+01 -3.4805720897207308e+00 -2 -5 -1
2323 775 1 -8.1999999999999995e-01 -1.3093108376474115e+01 -1.3317778960167646e+01 -2.8349132149559857e+00 0 0 -2
1502 501 2 4.0999999999999998e-01 -1.0416378706691468e+01 -1.4255962441779609e+01 -4.5361316294865794e-01 3 4 0
564 188 2 4.0999999999999998e-01 -1.0714288349541675e+01 -7.9962569429399570e+00 -5.4146658330064135e+00 0 -4 0
2325 775 2 4.0999999999999998e-01 -1.3855513879097861e+01 -1.3060056993255547e+01 -2.2413736313909638e+00 0 0 -2
165 55 2 4.0999999999999998e-01 -1.3267974273489500e+01 -9.0448125787309159e+00 -6.8259128344196132e+00 4 -1 -2
1698 566 2 4.0999999999999998e-01 -9.6037897910657239e+00 -1.0380989281304473e+01 -6.6419525911396367e+00 -1 5 3
2088 696 2 4.0999999999999998e-01 -9.4792686112162716e+00 -6.6252615136823696e+00 -2.5948342107043416e+00 -4 1 7
559 187 1 -8.1999999999999995e-01 -1.4229865970009651e+01 -5.4315449773152356e+00 -6.3801544378778168e+00 -3 -3 4
2086 696 1 -8.1999999999999995e-01 -9.4099726563836619e+00 -7.6054088118031800e+00 -2.7805256390185384e+00 -4 1 7
2087 696 2 4.0999999999999998e-01 -8.5855876536776190e+00 -7.7855232891621764e+00 -3.3171075125191987e+00 -4 1 7
854 285 2 4.0999999999999998e-01 -8.9183524503429474e+00 -5.3405203772938528e+00 -4.8932625872313551e-01 -6 -1 -1
2142 714 2 4.0999999999999998e-01 -1.0914683584983482e+01 -5.4823626305975743e+00 -6.7636495697162555e+00 -1 1 -1
1632 544 2 4.0999999999999998e-01 -1.4817598611152601e+01 -1.1288405709008732e+01 -1.6065810429924987e+00 -2 -6 -1
2057 686 2 4.0999999999999998e-01 -1.4921759756058917e+01 -8.8550987812288149e+00 -3.3031010794644722e+00 2 1 5
2408 803 2 4.0999999999999998e-01 -1.2501349337263566e+01 -1.3263956704822649e+01 -6.7312056608250526e+00 3 -3 2
1785 595 2 4.0999999999999998e-01 -9.6015965350445569e+00 -7.8203342195129641e+00 -7.2647391653679643e+00 -1 0 4
560 187 2 4.0999999999999998e-01 -1.3309395117874919e+01 -5.3699470252570087e+00 -6.7660444488858289e+00 -3 -3 4
604 202 1 -8.1999999999999995e-01 -1.1061591198122079e+01 -5.0937264986255446e+00 -5.0724113245960112e-01 -3 -3 0
2140 714 1 -8.1999999999999995e-01 -1.1690434530163854e+01 -5.1210098334489658e+00 -7.2809566368640901e+00 -1 1 -1
1790 597 2 4.0999999999999998e-01 -1.4178572232578771e+01 -6.4181028765669446e+00 -2.3549927090691369e-03 1 -8 0
2479 827 1 -8.1999999999999995e-01 -1.4714512349904600e+01 -1.3543206578935779e+01 -7.4335686220494068e+00 -2 -7 -1
855 285 2 4.0999999999999998e-01 -7.3211435367975630e+00 -5.0847903225135891e+00 -7.1310625758542834e-01 -6 -1 -1
2107 703 1 -8.1999999999999995e-01 -7.3278024316266084e+00 -1.1390692769204577e+01 -4.5047889536351526e+00 -7 -6 7
2109 703 2 4.0999999999999998e-01 -6.6618133082743913e+00 -1.1128076378071151e+01 -5.2029745419858155e+00 -7 -6 7
249 83 2 4.0999999999999998e-01 -6.5222499667334475e+00 -1.4618896778383007e+01 -6.0675350359556646e-01 2 -3 3
2253 751 2 4.0999999999999998e-01 -4.2603708416837893e+00 -4.9870952085465188e+00 -5.1142524192679950e+00 0 1 -1
504 168 2 4.0999999999999998e-01 -4.4755637900428269e-01 -5.9263702498369693e+00 -2.7582271952323669e+00 -5 2 -2
167 56 2 4.0999999999999998e-01 -7.3606702974444076e+00 -1.1616370637263046e+01 -2.4991294043140737e+00 1 3 -2
1622 541 2 4.0999999999999998e-01 -6.2983222656485651e+00 -8.6122023187957470e+00 -4.8959304894264672e+00 -2 0 -1
1367 456 2 4.0999999999999998e-01 -5.4691350397539864e+00 -5.4982626755869788e+00 -2.9229871289791252e+00 -7 -6 3
2255 752 2 4.0999999999999998e-01 -1.9209919771761079e+00 -1.3789172424261452e+01 -1.0375517788481421e+00 0 -1 1
1692 564 2 4.0999999999999998e-01 -4.6004624904817977e+00 -9.7211752180493782e+00 -6.1984497790104687e+00 1 5 2
503 168 2 4.0999999999999998e-01 -7.8313925386644634e-01 -5.4684196362589343e+00 -4.2893108258124659e+00 -5 2 -2
168 56 2 4.0999999999999998e-01 -6.9873349196076298e+00 -1.0728802124422970e+01 -1.1802683133580860e+00 1 3 -2
788 263 2 4.0999999999999998e-01 -4.5541216024733995e+00 -5.9703820553388951e+00 -6.9420699049368499e+00 2 4 4
2551 851 1 -8.1999999999999995e-01 -3.0411478719354523e+00 -1.4466192937063340e+01 -4.6802617452024666e+00 1 1 -2
1071 357 2 4.0999999999999998e-01 -4.1096532787398274e+00 -1.0908303626103656e+01 -4.3265969505603454e+00 -4 -4 -4
2316 772 2 4.0999999999999998e-01 -2.4865702296204422e+00 -5.8485972810429097e+00 -5.1410237817555782e-01 -1 -1 0
1072 358 1 -8.1999999999999995e-01 -1.2358901372060167e+00 -1.1394862093868676e+01 -3.1931109079419517e+00 0 3 0
1368 456 2 4.0999999999999998e-01 -5.5859766246381728e+00 -5.9924870762520204e+00 -1.3710070765583744e+00 -7 -6 3
898 300 1 -8.1999999999999995e-01 -2.7899240495391968e+00 -7.7340249885707442e+00 -4.6061960599857272e+00 1 0 0
441 147 2 4.0999999999999998e-01 -1.7167420669218778e+00 -1.3735070160149551e+01 -6.1553721768735716e+00 2 -4 1
899 300 2 4.0999999999999998e-01 -1.8221086982603847e+00 -7.9511626926646306e+00 -4.7333046022563572e+00 1 0 0
1069 357 1 -8.1999999999999995e-01 -4.0400024326806516e+00 -1.1666426899517450e+01 -3.6782376274132442e+00 -4 -4 -4
1070 357 2 4.0999999999999998e-01 -4.7213318535347550e+00 -1.1550574405800873e+01 -2.9555064163259654e+00 -4 -4 -4
248 83 2 4.0999999999999998e-01 -6.5832842343491347e+00 -1.3446411972966899e+01 -1.7417010785420750e+00 2 -3 3
1366 456 1 -8.1999999999999995e-01 -5.5710880872965109e+00 -6.2929834863324210e+00 -2.3246591183824634e+00 -7 -6 3
851 284 2 4.0999999999999998e-01 -4.1518446669646671e+00 -6.8527013037337152e+00 -1.7004897070714424e+00 -11 1 -1
1691 564 2 4.0999999999999998e-01 -3.8628714529328700e+00 -9.0023982825166833e+00 -4.9312201367136161e+00 1 5 2
1073 358 2 4.0999999999999998e-01 -2.1902492536259590e+00 -1.1683325676074961e+01 -3.2703082133405186e+00 0 3 0
439 147 1 -8.1999999999999995e-01 -1.0704300821201027e+00 -1.3128917384939058e+01 -6.6188712536531593e+00 2 -4 1
502 168 1 -8.1999999999999995e-01 -1.1163026642404432e+00 -5.4716947010544210e+00 -3.3464622527989345e+00 -5 2 -2
247 83 1 -8.1999999999999995e-01 -6.3600267992976072e+00 -1.4405958976254077e+01 -1.5702435877843453e+00 2 -3 3
308 103 2 4.0999999999999998e-01 -2.8459994493987395e-01 -6.1515560105667664e+00 -6.4128467298261871e+00 -8 -3 -3
1074 358 2 4.0999999999999998e-01 -1.1443349717182407e+00 -1.0454587260662944e+01 -3.5209414326491313e+00 0 3 0
2251 751 1 -8.1999999999999995e-01 -3.6818301785535716e+00 -5.4219983333971413e+00 -5.8042683440675393e+00 0 1 -1
2254 752 1 -8.1999999999999995e-01 -1.5585486977599174e+00 -1.4311714955189320e+01 -1.8092746345409534e+00 0 -1 1
850 284 1 -8.1999999999999995e-01 -3.1893394611755479e+00 -6.9450319416444541e+00 -1.4454783798204680e+00 -11 1 -1
1623 541 2 4.0999999999999998e-01 -6.2597076287928655e+00 -7.4573847726186440e+00 -3.7420426723257609e+00 -2 0 -1
900 300 2 4.0999999999999998e-01 -2.9572566923076771e+00 -6.7861518664865432e+00 -4.8773202528519963e+00 1 0 0
1690 564 1 -8.1999999999999995e-01 -4.6886273145763209e+00 -9.4794155135771305e+00 -5.2321417647200334e+00 1 5 2
703 235 1 -8.1999999999999995e-01 -1.1786217933727698e+00 -1.0307779483863541e+01 -6.4085741455080232e+00 -1 0 -6
852 284 2 4.0999999999999998e-01 -2.6311531848915930e+00 -7.0186289845669894e+00 -2.2719065520705932e+00 -11 1 -1
2552 851 2 4.0999999999999998e-01 -2.9500693798306710e+00 -1.3559733314949822e+01 -4.2679419415514790e+00 1 1 -2
705 235 2 4.0999999999999998e-01 -7.1646688197268915e-01 -9.8246455191355775e+00 -5.6649570384198427e+00 -1 0 -6
704 235 2 4.0999999999999998e-01 -1.3374061450742190e+00 -1.1258047879359806e+01 -6.1407131777269228e+00 -1 0 -6
1621 541 1 -8.1999999999999995e-01 -6.8423667051114077e+00 -7.9365458396060324e+00 -4.3984609451299512e+00 -2 0 -1
158 53 2 4.0999999999999998e-01 -6.4024332475551837e+00 -1.3117049713068095e+01 -5.1731415655441619e+00 1 -1 -1
157 53 1 -8.1999999999999995e-01 -5.8685747566874316e+00 -1.3491292627869820e+01 -5.9313693204831655e+00 1 -1 -1
166 56 1 -8.1999999999999995e-01 -7.0367790077714956e+00 -1.1655068925368917e+01 -1.5538417090664041e+00 1 3 -2
159 53 2 4.0999999999999998e-01 -5.1500189552796485e+00 -1.4086298828323663e+01 -5.5713454837592256e+00 1 -1 -1
2314 772 1 -8.1999999999999995e-01 -2.2637275171304001e+00 -5.0106063362540727e+00 -1.6021767465572267e-02 -1 -1 0
1412 471 2 4.0999999999999998e-01 -5.5945423937497853e+00 -1.4591727686296149e+01 -7.2820000192894971e+00 1 2 4
2123 708 2 4.0999999999999998e-01 -5.0341457858908747e+00 -1.1599978757560772e+01 -7.2084840169679305e+00 -5 2 5
643 215 1 -8.1999999999999995e-01 -9.9299167997634044e+00 -1.0972345064230366e+01 6.8522288379997516e+00 0 10 0
645 215 2 4.0999999999999998e-01 -1.0793526510165249e+01 -1.1295129233315865e+01 6.4649813480284894e+00 0 10 0
611 204 2 4.0999999999999998e-01 -8.8121266882391396e+00 -1.0267947031763253e+01 3.3469287266524237e+00 -6 -2 -4
610 204 1 -8.1999999999999995e-01 -9.2793407140223056e+00 -9.5768678694619211e+00 3.8983746845705856e+00 -6 -2 -4
328 110 1 -8.1999999999999995e-01 -1.0928403716950356e+01 -5.5086805633427467e+00 3.5491384341272880e+00 -2 -5 -6
329 110 2 4.0999999999999998e-01 -1.1414847298501764e+01 -6.3420268345323638e+00 3.2866912356705615e+00 -2 -5 -6
558 186 2 4.0999999999999998e-01 -1.4364189589873677e+01 -1.0336579526262394e+01 2.2513515988900448e+00 -4 -4 -1
612 204 2 4.0999999999999998e-01 -9.0283208476766728e+00 -9.6917929011270143e+00 4.8594955198344838e+00 -6 -2 -4
2379 793 2 4.0999999999999998e-01 -1.3294417383314443e+01 -1.1884978181943806e+01 7.2311712329997473e+00 -4 1 -3
449 150 2 4.0999999999999998e-01 -1.2701270020651666e+01 -8.5982520478106110e+00 2.4289934020095405e+00 0 0 4
1363 455 1 -8.1999999999999995e-01 -1.1980972653833987e+01 -1.0542666818123827e+01 4.4006700232956053e+00 -5 -4 0
1365 455 2 4.0999999999999998e-01 -1.2626169062301235e+01 -9.9335966804596598e+00 4.8618935434078718e+00 -5 -4 0
1045 349 1 -8.1999999999999995e-01 -8.4855238876360239e+00 -1.1638772456924960e+01 1.9930953422287931e+00 -2 -2 -2
1364 455 2 4.0999999999999998e-01 -1.1076449676347726e+01 -1.0116734726365024e+01 4.3808716419962703e+00 -5 -4 0
1046 349 2 4.0999999999999998e-01 -9.0625791193709837e+00 -1.1350307458995626e+01 1.2290487834052701e+00 -2 -2 -2
632 211 2 4.0999999999999998e-01 -8.1654495998681895e+00 -1.4844743501629459e+01 7.0937558722503926e+00 -10 4 1
695 232 2 4.0999999999999998e-01 -8.1118963999991891e+00 -6.0501711899347548e+00 4.2256501989920618e+00 -3 -5 5
170 57 2 4.0999999999999998e-01 -9.6128748719363699e+00 -1.4347329513320391e+01 2.0133776609489100e+00 -7 2 -2
376 126 1 -8.1999999999999995e-01 -7.5793553734793067e+00 -1.2228121775710759e+01 6.6590249254496729e+00 3 0 1
2269 757 1 -8.1999999999999995e-01 -1.2155964548967750e+01 -1.3435982800250352e+01 6.6680683767762385e+00 -3 2 2
694 232 1 -8.1999999999999995e-01 -8.5136509356277266e+00 -6.6166991922285412e+00 3.5061980892446289e+00 -3 -5 5
377 126 2 4.0999999999999998e-01 -8.5334928348186843e+00 -1.2009072929642173e+01 6.4550363802635626e+00 3 0 1
2271 757 2 4.0999999999999998e-01 -1.1930874468572588e+01 -1.3962106490927820e+01 5.8480071996149778e+00 -3 2 2
556 186 1 -8.1999999999999995e-01 -1.4247543703931651e+01 -9.6172466900377920e+00 1.5665698750394146e+00 -4 -4 -1
626 209 2 4.0999999999999998e-01 -1.4866975047142867e+01 -5.0964873684061764e+00 4.3851191880672555e+00 -2 0 6
115 39 1 -8.1999999999999995e-01 -1.0850904366677682e+01 -1.4724232568436239e+01 4.7225706098713633e+00 -1 -2 7
450 150 2 4.0999999999999998e-01 -1.2866087044216524e+01 -7.4186042666392931e+00 3.5460512350748363e+00 0 0 4
448 150 1 -8.1999999999999995e-01 -1.2293109806683253e+01 -7.7657883342376746e+00 2.8036683819069115e+00 0 0 4
2377 793 1 -8.1999999999999995e-01 -1.3759161651216441e+01 -1.1002885242797394e+01 7.3079618378901490e+00 -4 1 -3
330 110 2 4.0999999999999998e-01 -9.9507507508484494e+00 -5.6240875844973353e+00 3.3735028124957633e+00 -2 -5 -6
223 75 1 -8.1999999999999995e-01 -1.3519318525008801e+01 -6.2637148115052455e+00 5.3254518436401721e+00 -5 -2 0
1791 597 2 4.0999999999999998e-01 -1.3495083271123070e+01 -6.8147965996456339e+00 1.4266407119551179e+00 1 -8 0
2526 842 2 4.0999999999999998e-01 -1.1824834233771305e+01 -1.1556115145681366e+01 1.2849253595435375e+00 -7 4 -7
1789 597 1 -8.1999999999999995e-01 -1.4350714165104007e+01 -6.5692479988236450e+00 9.7103820146871378e-01 1 -8 0
2524 842 1 -8.1999999999999995e-01 -1.2237191563193685e+01 -1.2302438102281535e+01 1.8073575337670444e+00 -7 4 -7
117 39 2 4.0999999999999998e-01 -1.0182026090528199e+01 -1.4321350791444614e+01 4.0978625840736473e+00 -1 -2 7
1916 639 2 4.0999999999999998e-01 -9.7487919113120221e+00 -9.1153792348912486e+00 2.3462346061109667e+00 2 -2 4
709 237 1 -8.1999999999999995e-01 -1.4743636988589040e+01 -1.1293196003949808e+01 3.5696928359997155e+00 -9 0 0
224 75 2 4.0999999999999998e-01 -1.3309726613940445e+01 -7.0418533167243211e+00 5.9175191333480921e+00 -5 -2 0
1917 639 2 4.0999999999999998e-01 -9.4154769595144696e+00 -7.7219404448881592e+00 1.5627926705873332e+00 2 -2 4
225 75 2 4.0999999999999998e-01 -1.2847792409005351e+01 -5.5385844234853803e+00 5.4778020082516914e+00 -5 -2 0
1915 639 1 -8.1999999999999995e-01 -9.7956385315526866e+00 -8.6418425042101141e+00 1.4667231727601919e+00 2 -2 4
169 57 1 -8.1999999999999995e-01 -9.1175770439479429e+00 -1.4027584816989956e+01 2.8210999978226443e+00 -7 2 -2
2525 842 2 4.0999999999999998e-01 -1.2619897356673016e+01 -1.1942095692083225e+01 2.6580405574271975e+00 -7 4 -7
2013 671 2 4.0999999999999998e-01 -1.1134088438580923e+01 -9.3468432008092002e+00 7.4085189245803207e-02 1 1 0
557 186 2 4.0999999999999998e-01 -1.3622241933524098e+01 -9.9341582502791574e+00 8.5345224865376146e-01 -4 -4 -1
171 57 2 4.0999999999999998e-01 -8.8403856480541556e+00 -1.3076168569231049e+01 2.6871446937548118e+00 -7 2 -2
1503 501 2 4.0999999999999998e-01 -1.1110643084049274e+01 -1.3716730259743455e+01 9.2253268893181506e-01 3 4 0