2611
Atoms. Timestep: 23000000
O 1.40849 -0.822153 -4.79984
H 1.98258 -0.0470853 -4.53579
H 1.74736 -1.21141 -5.65638
O 12.4971 -5.73968 -14.5077
H 12.798 -5.35085 -13.6369
H 12.7695 -5.13379 14.5886
O -4.55481 6.52212 -6.2656
H -5.50707 6.31342 -6.48843
H -4.42782 7.51373 -6.24115
O -2.83564 4.69202 -7.24034
H -2.2803 4.26771 -6.5251
H -3.4104 5.40435 -6.83752
O 14.3575 13.0395 3.0961
H 14.4887 13.8476 2.52182
H -14.6007 12.6119 3.27717
O 9.10651 6.41636 -10.5994
H 9.87248 5.7738 -10.6203
H 8.31828 5.98132 -10.1641
O -2.97545 9.84766 13.4751
H -3.31732 9.00272 13.8865
H -3.18867 10.6198 14.0737
O 12.8835 14.71 5.41598
H 13.1408 13.9098 4.87419
H 13.7079 -14.6419 5.69608
O 11.8686 7.04191 4.71193
H 11.8982 6.06737 4.48966
H 12.2716 7.56713 3.96244
O 2.66532 2.82031 -2.42011
H 3.06387 2.12306 -3.01594
H 2.99816 2.69045 -1.4861
O -8.45431 7.40216 11.5466
H -9.09205 8.01343 11.0779
H -7.86929 7.93562 12.1575
O 8.39226 -9.50642 -10.091
H 8.50298 -10.489 -10.2401
H 9.07286 -9.19084 -9.42982
O 5.98345 0.160014 12.5935
H 6.07071 -0.589754 13.2495
H 5.02461 0.436608 12.5291
O -0.141352 12.1794 2.03187
H 0.690657 11.6567 1.84582
H -0.933136 11.5696 1.99549
O 14.7396 -0.0480157 -0.451552
H 14.8297 -0.91801 -0.936343
H -14.6806 0.679611 -0.991078
O 11.0118 4.09931 10.3853
H 11.9785 3.88265 10.2496
H 10.6872 4.66465 9.62698
O -13.4015 10.8881 3.55663
H -13.5059 10.8953 2.56211
H -12.9369 10.0481 3.83692
O 7.04427 2.16648 2.52223
H 7.92648 1.71693 2.38209
H 6.85913 2.78316 1.75708
O 3.52175 -6.74314 4.95541
H 2.75242 -7.26366 4.585
H 3.92599 -6.18473 4.23098
O 3.57678 9.28944 -3.33391
H 4.41787 9.73298 -3.02431
H 3.10231 8.8901 -2.54942
O -3.72818 2.14563 -6.21239
H -2.77786 1.88918 -6.38888
H -3.7516 2.95004 -5.61876
O -9.68505 -0.837479 14.6971
H -8.88668 -0.534467 14.1767
H -9.4114 -1.55129 -14.502
O 0.263138 -12.2786 -9.19441
H 0.363187 -12.1501 -8.20775
H 1.14978 -12.5162 -9.5912
O 3.68949 -2.18856 -2.27661
H 3.42928 -3.02014 -2.76731
H 2.86912 -1.66047 -2.05724
O -1.89031 1.21951 10.7979
H -2.38306 0.654166 11.4594
H -2.24093 2.1554 10.8327
O 8.76235 -3.65021 2.68968
H 8.11648 -2.95908 2.36531
H 8.74087 -4.44018 2.07689
O 12.2972 12.6586 -0.10822
H 11.3875 12.4622 0.257797
H 12.4796 13.6394 -0.0393191
O 11.4941 0.762662 3.50813
H 10.6601 0.622238 2.97451
H 11.5432 0.0786902 4.236
O 2.6273 -6.03576 -13.6012
H 1.9127 -6.69098 -13.8463
H 3.17971 -5.82764 -14.4084
O -3.23705 3.24315 -13.3757
H -3.62419 2.98806 -12.4896
H -2.78941 4.13415 -13.2998
O 14.0493 0.720941 6.77154
H 13.9461 1.1214 5.86104
H 14.1426 1.45126 7.44826
O 4.05527 -9.90244 3.30816
H 3.90358 -10.6706 3.93018
H 4.90446 -9.43587 3.55558
O -7.89167 1.77661 6.83792
H -8.76782 1.64737 6.37351
H -7.95716 1.43307 7.77479
O -4.13189 -2.06282 -9.00517
H -3.52294 -2.74772 -9.40532
H -3.64303 -1.55658 -8.2947
O 12.4065 -4.01124 9.26613
H 12.9846 -3.26865 8.92785
H 11.4445 -3.762 9.1547
O 12.1561 4.58941 3.56144
H 12.4565 3.80517 3.01853
H 12.0355 4.309 4.51372
O -6.30636 9.1796 12.4661
H -6.18706 9.33635 11.4856
H -5.93903 9.95798 12.9752
O -11.1989 -3.72286 3.88537
H -11.175 -4.61728 3.43875
H -12.0731 -3.60929 4.35745
O -9.89355 -13.0365 3.23956
H -9.62889 -13.1975 2.28874
H -10.6524 -13.6412 3.48128
O 10.1651 8.1893 -1.28561
H 10.6579 8.80403 -1.90149
H 10.6807 8.08596 -0.435021
O -5.74245 13.6629 0.6777
H -6.10464 12.8383 1.11234
H -4.85991 13.4567 0.255054
O 3.56282 -0.946837 -7.1188
H 4.46276 -0.616972 -7.40395
H 3.55441 -1.0773 -6.12737
O -7.05355 13.1273 10.7981
H -6.49761 13.2623 9.97792
H -7.7659 13.8281 10.837
O 7.1396 -9.10946 -2.44463
H 7.11311 -8.1098 -2.44397
H 7.94725 -9.42116 -2.94519
O -9.34332 10.2123 3.7686
H -9.81342 10.1148 2.89137
H -9.10994 11.1734 3.91668
O 0.946335 4.7086 0.198865
H 1.08296 3.9257 0.805849
H 1.76347 5.28498 0.209212
O -14.7624 0.766476 -6.88004
H 14.67 1.34269 -7.58627
H -14.0179 0.230933 -7.27871
O -5.07156 -2.9602 5.73952
H -4.52852 -3.7441 5.43848
H -4.50179 -2.13839 5.73457
O 13.4652 2.11045 -4.25865
H 13.9057 2.94312 -3.92303
H 13.8563 1.31597 -3.79407
O -1.67161 10.3731 4.43361
H -1.42786 9.93924 3.56623
H -2.57208 10.0511 4.72595
O 2.86756 2.5532 2.64853
H 1.8991 2.38144 2.8291
H 3.42121 1.86492 3.11732
O -12.5036 -4.44444 7.12428
H -12.874 -4.20372 6.22711
H -11.5691 -4.78442 7.01881
O -5.8698 -14.0628 -1.14104
H -6.78821 -13.8076 -1.44341
H -5.90368 -14.3603 -0.186926
O 14.0941 14.8434 -1.98927
H 14.2919 14.5631 -2.92857
H 14.6774 14.3314 -1.35873
O 13.8678 -8.68358 -4.80731
H 13.6409 -7.86224 -5.33074
H 13.1582 -8.8489 -4.12237
O -4.11292 -12.4382 -2.26582
H -4.79752 -13.0349 -1.84715
H -4.2373 -11.5034 -1.93307
O -2.00768 -11.4819 1.04528
H -2.56143 -10.9074 0.442453
H -2.09601 -12.4385 0.767745
O 3.46924 -2.2765 -9.42392
H 2.83826 -2.03815 -10.1622
H 3.43756 -1.56971 -8.71719
O -6.30791 4.02066 7.62772
H -5.31564 3.91254 7.56658
H -6.75249 3.15636 7.39245
O 4.37917 10.0732 -7.62707
H 4.44864 11.0697 -7.58009
H 5.25655 9.69121 -7.91747
O 6.82552 -9.56614 8.51705
H 6.39844 -9.86854 7.66488
H 6.7215 -8.5758 8.60889
O -5.07802 12.1981 4.35189
H -4.69573 11.2877 4.19332
H -5.28973 12.6282 3.47427
O 2.70293 -13.4391 -6.64752
H 3.33967 -14.1795 -6.86298
H 1.76513 -13.7511 -6.79997
O -0.729188 -11.845 7.70185
H -1.20082 -12.656 7.35579
H -0.220026 -11.4126 6.95768
O -12.4293 12.6609 5.40194
H -12.7615 12.0233 4.70684
H -12.3576 12.1886 6.28044
O -8.44757 6.72687 3.31593
H -9.40194 7.02451 3.34092
H -8.24442 6.33368 2.41918
O 5.1902 -7.91623 -12.9032
H 5.98098 -7.43015 -13.2752
H 4.34955 -7.49336 -13.2416
O 3.98658 -2.69017 -13.4944
H 3.58868 -3.45627 -13.9991
H 3.88781 -2.85085 -12.5123
O 1.33304 -9.05784 -0.184969
H 1.99075 -9.51447 -0.784079
H 1.82386 -8.51324 0.495133
O -3.06063 9.4632 -12.0434
H -2.62077 9.69659 -11.1762
H -3.10903 10.2772 -12.6223
O 2.81581 -6.94611 -8.14716
H 2.85426 -7.22375 -9.10709
H 2.37628 -7.66561 -7.60943
O -1.66008 4.65608 11.376
H -1.71717 5.11985 12.2602
H -2.37781 5.00156 10.7715
O 1.08884 9.77207 -13.3739
H 0.569343 10.6254 -13.4193
H 0.94497 9.24917 -14.2141
O -8.99151 9.52632 -7.38442
H -8.27289 9.25665 -8.02542
H -9.81294 8.98257 -7.55656
O -12.0467 -7.37098 6.69798
H -12.1751 -7.94059 7.50982
H -11.1472 -6.93556 6.73518
O -4.89211 9.01623 -3.7392
H -5.00865 9.21269 -2.76563
H -5.21401 9.79525 -4.2773
O -2.7943 -12.0255 9.65188
H -2.98362 -11.2924 10.3051
H -2.15793 -11.6949 8.95493
O 12.8745 1.42017 -13.9901
H 12.8909 2.22817 -14.5791
H 12.3355 0.700035 -14.4271
O -7.7996 -7.78155 -11.64
H -8.7213 -7.64929 -11.2753
H -7.48385 -6.93264 -12.0639
O 1.21099 1.58425 -11.4328
H 0.851422 1.93764 -12.2964
H 0.988889 2.22054 -10.694
O -9.95922 -5.08349 10.4414
H -9.03518 -4.85792 10.1327
H -10.0765 -6.0766 10.4443
O -12.9461 7.17074 13.8709
H -13.8597 7.45695 13.5821
H -12.7468 7.55273 14.7733
O -8.06528 -13.5331 -2.55053
H -8.95593 -13.3935 -2.11779
H -8.14369 -14.239 -3.25446
O -14.5216 -14.4387 1.90158
H -14.688 -13.5794 2.38525
H -13.7785 -14.3127 1.24431
O 5.39847 -2.99856 -6.10941
H 4.53566 -3.43634 -6.36224
H 5.93382 -2.816 -6.93409
O -3.95809 -10.8182 3.53123
H -3.39832 -11.034 2.73114
H -3.64023 -11.3527 4.31436
O 10.8068 -11.6048 11.3586
H 11.7891 -11.772 11.4422
H 10.5812 -11.4144 10.4032
O 0.580787 -0.968455 7.75732
H 1.10671 -1.81128 7.87169
H 0.657444 -0.412796 8.58521
O -12.5196 8.12615 1.7827
H -11.6876 8.36906 1.28397
H -12.3833 8.29223 2.75936
O -1.84148 4.00819 -4.80513
H -2.37106 4.70511 -4.32152
H -0.972056 3.86289 -4.3329
O -5.61795 -5.35096 12.1449
H -6.22906 -5.72513 11.4474
H -5.77312 -4.3668 12.2308
O -1.23985 1.26775 -7.61999
H -0.44514 1.65631 -7.15364
H -1.28176 1.61848 -8.55554
O 1.16864 0.853352 5.39966
H 1.87979 1.52543 5.60605
H 1.13295 0.17095 6.12978
O 1.74322 11.0094 -2.15798
H 1.50317 11.9673 -2.00012
H 2.2147 10.9242 -3.03574
O -6.26727 10.663 -13.1134
H -6.59847 10.9198 -12.2054
H -6.81967 11.1192 -13.8111
O -6.61077 9.20597 -8.80411
H -6.19089 9.92952 -9.35201
H -7.15426 8.61173 -9.39699
O 7.30716 11.6172 -6.7671
H 7.53878 10.6444 -6.77305
H 7.87488 12.0909 -6.09381
O -9.13765 12.9565 3.27589
H -8.3075 13.512 3.22837
H -9.73477 13.183 2.50636
O -10.2568 12.5198 0.859807
H -9.61931 12.8526 0.16489
H -11.15 12.9489 0.725565
O -8.13922 2.95166 12.0468
H -7.30129 3.19329 11.5574
H -8.81736 3.67638 11.9247
O 3.68949 6.95686 6.84356
H 3.96656 7.75491 7.3787
H 4.49 6.3882 6.65426
O 13.4268 -1.57396 8.56034
H 13.109 -0.861384 9.18584
H 13.656 -1.16438 7.67731
O -0.654803 -4.84685 -8.32642
H -1.57055 -4.94693 -7.93731
H -0.572063 -3.94818 -8.75719
O -3.13272 5.30035 9.1095
H -3.79243 6.05188 9.11167
H -3.33264 4.68354 8.34819
O 12.0966 9.99507 -2.0248
H 12.1103 10.4625 -1.14086
H 12.0472 10.6721 -2.75913
O -8.18942 1.54651 9.58382
H -8.71299 0.714142 9.402
H -8.2163 1.75008 10.5625
O -8.01965 0.578671 13.1767
H -7.04558 0.371837 13.0849
H -8.21046 1.47211 12.7701
O 1.38136 5.18135 -7.48902
H 0.951392 4.27859 -7.50281
H 0.949989 5.74526 -6.78479
O -3.76168 11.5207 -13.5816
H -3.65335 12.5145 -13.5558
H -4.66983 11.2755 -13.2423
O -11.2707 -6.72496 3.52978
H -11.901 -7.2119 4.13442
H -11.112 -7.26896 2.70581
O -12.4766 0.708081 -9.71843
H -12.9392 -0.0737715 -10.1364
H -11.5087 0.695927 -9.96958
O -3.48994 12.1394 8.80898
H -3.60052 12.5506 9.71379
H -3.44754 12.8609 8.11785
O 14.2928 -3.2929 -3.92598
H 13.4157 -3.65326 -4.24346
H 14.4922 -2.43541 -4.40029
O 10.6109 -11.1259 2.32713
H 10.5466 -12.0625 2.6715
H 11.3925 -10.6679 2.75073
O 0.968785 4.23687 -10.5475
H 0.652188 5.14831 -10.2847
H 1.85912 4.0595 -10.1282
O 12.3681 11.2476 4.34359
H 11.8822 10.6462 3.70943
H 13.113 11.7086 3.86125
O -0.0885562 8.34169 14.2757
H -0.155629 9.10239 13.63
H -0.72445 7.61855 14.006
O 11.1635 -14.6135 9.32199
H 10.4481 -14.3853 9.98237
H 12.0207 -14.7888 9.80641
O -8.08508 -9.6043 -9.52983
H -7.82132 -8.89203 -10.1803
H -7.68778 -9.40194 -8.63472
O 6.11946 -5.8692 -1.6158
H 7.02678 -5.64028 -1.2631
H 6.11637 -5.77859 -2.61169
O 10.7162 4.15096 -10.2923
H 9.91526 3.66321 -10.6396
H 11.5117 3.92979 -10.8565
O 1.48897 -11.7619 1.72014
H 1.43675 -10.8399 1.33655
H 0.576614 -12.057 2.00394
O -2.23008 9.59303 -4.40724
H -2.11624 10.0675 -5.28012
H -3.19475 9.36504 -4.27513
O -5.91374 0.394346 -2.70087
H -5.77012 0.544709 -1.72272
H -6.74673 -0.141979 -2.83689
O -9.44263 1.88195 -9.73279
H -9.66448 1.0129 -10.175
H -9.7352 2.63807 -10.3182
O -9.6312 -12.1031 5.74848
H -9.70349 -11.12 5.91682
H -9.70717 -12.2797 4.76713
O 11.8646 11.8978 9.25595
H 10.8808 11.9858 9.09978
H 12.2723 11.359 8.5187
O -11.6427 12.3345 -7.72059
H -11.1696 12.0984 -6.8718
H -11.3623 11.7045 -8.44482
O 3.40283 -7.80824 -2.614
H 4.24156 -7.89389 -3.1518
H 3.59335 -7.29133 -1.77942
O -13.1062 14.8645 -11.7039
H -13.1059 13.8696 -11.6037
H -12.4739 -14.7176 -12.4331
O 5.70301 -11.6062 -5.39039
H 6.1804 -12.4235 -5.06768
H 5.42089 -11.7383 -6.34064
O -1.69593 7.00363 -10.9252
H -0.935028 6.89149 -10.2861
H -1.72882 7.95183 -11.2412
O -7.73813 -1.6403 -2.62116
H -7.2283 -2.50014 -2.6491
H -8.63055 -1.76774 -3.05402
O 0.13574 -7.44766 -14.5176
H -0.432725 -7.96665 14.6879
H -0.315495 -7.40776 -13.626
O 0.365928 12.6094 -9.2218
H 0.754056 13.33 -9.79635
H 0.937654 11.7911 -9.28171
O 8.91001 -9.34927 -13.2273
H 9.49982 -10.1455 -13.362
H 8.17409 -9.58327 -12.5919
O 4.26364 12.503 -10.4426
H 3.68858 11.9319 -11.0284
H 5.1615 12.6184 -10.8675
O -4.81638 1.60574 0.263599
H -4.47877 2.46989 -0.109616
H -4.6199 1.56639 1.24333
O -8.15448 -6.96537 -8.32692
H -8.24225 -6.55189 -7.42064
H -8.99273 -6.80624 -8.8485
O -13.88 6.46021 -1.70993
H -14.2999 7.10749 -1.07376
H -13.714 6.91363 -2.58564
O -0.864529 -2.49484 -9.90698
H -0.149053 -1.96033 -10.3569
H -1.2198 -1.98397 -9.12416
O 5.34006 -1.01634 -3.83393
H 4.74533 -1.2819 -3.07512
H 5.40613 -1.7718 -4.48581
O 4.26135 12.0228 14.1216
H 4.59091 12.461 13.2854
H 3.86698 12.7141 14.7271
O 3.11662 -4.08012 3.36436
H 3.41964 -3.72259 4.24774
H 2.11984 -4.16039 3.36144
O 1.33781 13.0195 5.00962
H 2.0661 12.3349 4.98057
H 1.30619 13.5097 4.13855
O -6.43566 -2.81172 12.2429
H -7.12689 -2.67312 11.5337
H -6.03317 -1.93102 12.4928
O -2.69461 -14.7611 -7.055
H -3.51372 -14.415 -7.51248
H -2.8064 -14.6796 -6.0646
O -3.17138 -5.45989 13.3065
H -2.46534 -5.60077 12.6125
H -4.07409 -5.5737 12.8916
O 3.87184 2.59039 -0.0664937
H 4.81233 2.318 -0.269747
H 3.70668 2.51031 0.916529
O -14.2741 -7.20165 2.17777
H -14.1633 -8.19459 2.13511
H -14.3385 -6.91419 3.13341
O -12.9329 9.59261 -5.32726
H -12.0007 9.82902 -5.05319
H -13.381 10.3985 -5.71422
O 7.586 -13.4715 13.8752
H 6.90119 -13.7783 13.2142
H 8.11336 -12.7177 13.4833
O -2.31573 12.5934 -9.08024
H -2.57047 12.982 -9.96576
H -1.31957 12.5327 -9.01702
O -9.0339 -11.2861 9.32225
H -8.62174 -11.3703 10.2295
H -9.93555 -11.7186 9.32432
O -2.91822 5.74428 -0.96082
H -3.5187 5.92666 -0.182237
H -2.05001 6.22335 -0.831552
O -14.8701 -4.7478 13.532
H -13.9731 -5.0293 13.8727
H 14.5579 -4.10718 14.1776
O 8.67833 14.1862 -14.4339
H 8.2721 -14.9051 14.8917
H 8.07821 13.3876 -14.48
O 0.966977 -8.67725 10.7419
H 0.138408 -8.75989 11.2956
H 1.04376 -9.46958 10.1366
O -14.1624 1.84005 14.6361
H 14.785 2.27596 14.7158
H -14.2002 1.12522 13.9378
O 11.1929 1.11972 -9.4683
H 10.6275 1.8513 -9.84923
H 12.1436 1.42579 -9.41649
O 5.66319 -6.09453 10.9558
H 4.67297 -6.17746 11.068
H 5.92291 -5.12945 10.9905
O -11.2266 -12.2379 -7.5389
H -10.5931 -12.4062 -6.78364
H -11.9946 -12.8754 -7.47802
O 6.49275 3.73978 -5.34754
H 7.13364 3.64735 -6.1096
H 6.84856 4.40555 -4.69166
O -1.63234 13.6124 4.86138
H -2.20653 12.8645 5.19464
H -0.709028 13.2709 4.68565
O 8.91581 8.89357 5.95088
H 8.8158 9.87536 6.11246
H 9.80913 8.59045 6.28272
O -5.76899 -6.90512 -3.63406
H -5.08032 -6.1886 -3.5229
H -6.43422 -6.62366 -4.32562
O -8.87569 -11.4095 -13.7217
H -9.0201 -11.8756 -12.8488
H -8.77132 -12.0882 -14.4487
O 1.18134 -4.92765 -5.58825
H 1.61581 -4.85388 -6.48592
H 0.386008 -5.53054 -5.65142
O 14.8081 5.97659 -11.7106
H -14.1466 5.83553 -11.2753
H 14.4266 6.85189 -11.4133
O 11.7052 -0.483045 -0.415029
H 12.6275 -0.0965399 -0.415945
H 11.5079 -0.87255 0.484631
O 10.2918 -1.53941 -13.0784
H 10.6505 -1.23438 -13.9607
H 9.7118 -0.823917 -12.689
O 13.3528 -13.0801 -11.8565
H 13.2565 -14.0655 -11.9975
H 12.7797 -12.7959 -11.0878
O 0.103035 -5.0419 -12.0456
H -0.758106 -5.27353 -11.5931
H 0.838293 -5.01328 -11.3684
O -10.8229 4.98383 1.5441
H -11.3872 4.25333 1.15942
H -10.5005 5.5788 0.807824
O 6.17225 -10.2975 -12.1808
H 5.76541 -9.38954 -12.2817
H 5.57176 -10.8718 -11.6244
O 13.3872 9.10799 -13.0639
H 14.2824 9.55252 -13.0309
H 12.6753 9.77547 -12.8455
O 5.16032 -4.07472 -10.69
H 5.02455 -3.22881 -10.1742
H 6.13798 -4.27714 -10.7469
O 1.78769 -8.38614 3.82652
H 0.938855 -8.68823 3.39265
H 2.55485 -8.91315 3.46081
O -1.94307 7.24389 6.28883
H -1.38678 7.50615 7.07736
H -2.03771 8.02591 5.67279
O -9.08636 9.53448 -11.9731
H -8.46265 8.81793 -11.6608
H -8.98181 9.66063 -12.9596
O -0.792104 -8.39059 -11.8939
H -1.16878 -9.29164 -11.6789
H -0.262742 -8.05592 -11.1143
O 2.95598 2.61931 10.7203
H 2.77173 3.50885 11.1384
H 2.5692 1.89576 11.2921
O -10.4318 -7.47811 -10.4803
H -10.883 -6.68501 -10.8895
H -11.0658 -8.25132 -10.4653
O -3.72264 -2.81483 -5.21654
H -4.51994 -2.27401 -4.9485
H -2.88982 -2.35922 -4.90212
O 2.4041 8.17568 -11.5731
H 1.86002 7.40894 -11.2323
H 1.92977 8.60554 -12.3413
O -11.1632 -8.36913 1.35116
H -10.5215 -9.12916 1.45421
H -11.3983 -8.26007 0.38533
O 14.7933 -4.88486 -8.09997
H 14.321 -4.30952 -8.76772
H -14.5699 -5.62162 -8.57557
O -11.5454 -5.50617 -7.0512
H -10.9022 -5.8536 -6.36882
H -12.4329 -5.3433 -6.6202
O -9.35987 9.55332 -14.8023
H -8.92701 9.70671 14.1533
H -9.48101 8.57157 -14.6556
O 8.43738 -6.51068 12.9318
H 8.7312 -7.14936 12.2206
H 7.77761 -6.96165 13.5329
O -8.56082 -2.59697 -10.709
H -9.22891 -2.85638 -10.0116
H -7.85581 -2.01977 -10.2969
O 2.63759 4.9382 12.1486
H 2.40912 4.34788 12.9228
H 2.75532 5.87801 12.4694
O -8.25003 -14.1199 10.4312
H -8.41269 -14.1373 9.44467
H -7.32419 -13.7872 10.6106
O 11.7856 4.00557 6.15655
H 11.554 4.61179 6.9174
H 10.9578 3.54914 5.83021
O -12.694 7.20853 -4.20255
H -11.9404 7.38728 -3.57005
H -13.0066 8.07091 -4.6008
O 13.2181 -6.59122 -6.48764
H 12.8741 -5.95433 -5.79767
H 13.5781 -6.07689 -7.26605
O 3.13646 -4.42428 -3.76113
H 3.84273 -4.8414 -4.33317
H 2.25679 -4.46477 -4.235
O -5.92317 -4.37297 0.804026
H -5.53889 -5.23079 1.14534
H -6.31615 -3.85746 1.5655
O -2.92162 12.7272 13.5511
H -2.14918 12.1065 13.6856
H -3.00645 13.3306 14.344
O 4.92012 -14.2297 -12.1195
H 5.54001 14.8303 -12.0829
H 5.27816 -13.5513 -12.761
O -2.56675 -11.2722 -7.46761
H -1.73143 -11.8207 -7.42985
H -3.24952 -11.6617 -6.84946
O -12.8941 -5.65805 0.369778
H -13.2019 -6.06172 -0.491817
H -13.3466 -6.11799 1.13378
O -9.17555 11.3677 11.352
H -9.21993 11.0517 10.4043
H -8.29328 11.8093 11.5152
O -9.79094 -9.28984 5.29234
H -9.57441 -9.12035 4.33087
H -9.29178 -8.64034 5.86593
O -10.1761 -0.21235 -11.1588
H -10.2332 -1.20628 -11.0647
H -10.499 0.0556046 -12.0665
O 12.0708 -10.0704 13.9806
H 11.7439 -9.1399 13.8152
H 12.5756 -10.3936 13.1802
O 10.7627 -8.1841 5.95934
H 9.90229 -7.70886 6.14318
H 11.2428 -7.72675 5.21071
O -6.29246 -12.5885 4.41282
H -7.10251 -12.0096 4.50582
H -5.56616 -12.2435 5.00738
O -13.8049 -3.34714 4.808
H -14.54 -4.02271 4.75018
H -14.0933 -2.50156 4.35872
O 12.7719 -5.25165 11.8078
H 13.6195 -5.10134 12.3166
H 12.9663 -5.2449 10.8269
O -8.61982 -14.0107 7.53965
H -8.91423 -14.7901 6.98671
H -8.57573 -13.1928 6.96597
O 5.14211 12.8977 11.6103
H 5.91786 12.2771 11.4957
H 4.53843 12.8269 10.8162
O 8.72748 10.248 -9.76428
H 8.04264 10.477 -10.4561
H 9.49083 10.8911 -9.82519
O 9.44049 -12.083 -10.4517
H 9.46742 -12.8095 -11.1383
H 10.3647 -11.9135 -10.1094
O -12.4253 -10.2377 5.6828
H -11.6462 -9.73006 5.31499
H -13.2128 -10.1246 5.077
O 5.63121 0.397827 -8.79904
H 4.83852 0.593468 -9.37643
H 6.27202 -0.184826 -9.29894
O -1.68743 -1.52849 -7.48384
H -1.65567 -0.529625 -7.44809
H -1.51293 -1.90037 -6.57209
O 3.61411 -13.5108 10.4957
H 2.77828 -12.9886 10.3262
H 3.66582 -14.275 9.85274
O 14.5119 4.98991 -3.80701
H -14.8951 5.5526 -4.50881
H -14.9014 5.167 -2.92201
O 2.40634 -13.343 -10.7417
H 3.23166 -13.37 -10.1776
H 2.21406 -14.2585 -11.0951
O -14.5737 11.0648 -11.9298
H -13.7607 11.5931 -12.1745
H -14.7052 11.0953 -10.9389
O -4.10528 -14.0629 13.0411
H -3.41803 -13.3538 12.8834
H -4.26698 -14.1578 14.0234
O 10.6642 -10.5673 -0.424445
H 10.3209 -9.62847 -0.451101
H 10.7041 -10.8808 0.524316
O -11.1572 -5.74914 -3.20269
H -11.4866 -4.83241 -3.42887
H -10.7648 -5.74481 -2.28288
O -14.1425 4.49694 13.1194
H -13.7532 5.04324 13.861
H 14.83 4.10563 13.4156
O 13.6233 10.5619 1.18256
H 13.156 11.4272 1.0012
H 14.6097 10.6869 1.07515
O 8.2272 -0.928024 11.5358
H 7.32413 -0.531892 11.7019
H 8.93313 -0.28005 11.8219
O -6.42796 -3.76197 -1.94575
H -5.62334 -3.94535 -2.51053
H -6.16827 -3.77868 -0.980188
O -2.09254 -1.47342 6.93181
H -1.11968 -1.56508 7.14436
H -2.60571 -1.32379 7.77696
O 1.47351 -1.1093 -11.447
H 1.11623 -1.32759 -12.3551
H 1.63457 -0.124621 -11.38
O 0.672369 -11.4156 5.26418
H 0.468472 -10.6108 4.70685
H 1.6458 -11.633 5.19217
O -8.48154 -5.76492 4.2873
H -9.46221 -5.89114 4.13771
H -8.13615 -6.49962 4.87121
O -9.37873 -12.8392 0.501453
H -9.7769 -12.4194 -0.314147
H -8.59013 -12.3025 0.801469
O 4.33322 -10.9382 -7.78081
H 3.3476 -10.8253 -7.65501
H 4.51445 -11.2814 -8.70242
O -0.560352 -12.4378 -6.19968
H -0.177618 -13.3408 -6.39491
H -0.19777 -12.103 -5.32991
O 0.134773 6.96754 -5.59971
H 0.0578509 7.37525 -4.68983
H -0.570335 7.34982 -6.19696
O 14.2233 -12.385 3.46155
H 14.4407 -12.475 4.43346
H 13.9358 -11.4465 3.26987
O 11.9412 5.59078 -4.42793
H 12.9033 5.52439 -4.1637
H 11.3696 5.59401 -3.60735
O 9.22411 -6.2553 -2.47991
H 9.13535 -6.27768 -3.47572
H 10.1631 -6.01433 -2.23429
O -2.07527 3.45458 -9.47243
H -1.2339 3.93307 -9.72377
H -2.37828 3.76422 -8.57114
O 9.25465 -9.6411 -4.88309
H 8.50313 -9.71778 -5.53835
H 9.76816 -10.499 -4.86295
O 5.97827 -2.3644 13.7241
H 6.87693 -2.74209 13.501
H 5.4983 -2.98826 14.3409
O 3.65336 -10.9123 -11.1858
H 3.23547 -11.4264 -10.4367
H 2.95036 -10.6631 -11.8519
O 0.248655 -5.26799 13.336
H 1.07664 -4.84874 13.7084
H -0.130455 -5.908 14.0043
O 6.78047 4.00258 0.718975
H 5.92685 4.21494 0.243304
H 7.33429 4.83166 0.795969
O -14.2655 8.37276 9.7726
H -13.6618 7.83448 10.3608
H -14.4685 7.85569 8.94108
O -3.97261 -12.2384 6.25574
H -3.15119 -12.7856 6.41635
H -4.6222 -12.3854 7.00169
O 0.710509 3.66595 -4.0805
H 1.39429 4.3471 -4.34223
H 1.14249 2.95734 -3.52257
O -11.3935 -10.4932 -13.7712
H -10.472 -10.881 -13.793
H -11.9579 -10.9353 -14.4683
O -13.5171 -7.44557 -3.30381
H -13.8068 -7.9278 -4.1306
H -12.7339 -6.86118 -3.51593
O -9.80455 -5.43331 7.23373
H -9.72261 -5.15117 8.18961
H -9.23724 -4.84102 6.66157
O -4.11767 8.6006 1.56207
H -4.16151 7.65501 1.23963
H -4.57274 8.67151 2.44972
O 4.8912 12.835 -7.78829
H 4.78278 12.8196 -8.78228
H 5.85701 12.7188 -7.55649
O -5.12079 3.60066 -4.0269
H -5.28041 2.88301 -3.34902
H -5.02847 4.48211 -3.5637
O 8.69192 6.57811 3.77774
H 9.08934 5.73043 3.42628
H 9.3311 7.00604 4.41676
O -6.64196 -1.1411 -9.4459
H -5.77007 -1.62067 -9.34664
H -6.48274 -0.240135 -9.84956
O -11.2195 5.62402 7.41212
H -11.0945 4.67054 7.68645
H -10.68 5.80799 6.59049
O -4.22049 9.01267 -7.33736
H -5.17768 8.99402 -7.62628
H -3.94627 9.95653 -7.1531
O 1.49332 -3.20669 6.17619
H 2.22866 -2.77737 5.6518
H 0.660935 -3.23352 5.62263
O 9.09352 -3.22425 -9.86882
H 9.06016 -3.87177 -9.10748
H 10.0083 -2.82451 -9.92656
O -0.418161 2.70457 12.9163
H -0.934816 1.85148 12.9893
H -0.943376 3.36774 12.3831
O -11.8797 14.8593 3.32262
H -12.4486 14.5572 2.55762
H -12.0558 14.2795 4.11817
O -5.21839 -7.20915 -8.98355
H -4.72482 -6.6839 -9.67675
H -6.20009 -7.1662 -9.16914
O 6.6767 -0.910611 6.04921
H 7.11945 -1.44384 5.32833
H 7.15815 -1.05459 6.91379
O 13.28 11.134 -7.3393
H 12.6486 10.3599 -7.38637
H 12.856 11.8791 -6.82448
O -2.09386 6.43528 13.8468
H -1.82868 6.0101 14.7122
H -3.09085 6.4395 13.7692
O -12.184 8.61824 4.45337
H -11.3506 8.25616 4.87104
H -12.9783 8.13466 4.82104
O 14.8565 10.3908 11.413
H -14.863 10.174 12.3813
H -14.9216 9.55206 10.8725
O -0.848537 11.6428 9.50315
H -0.375293 11.2992 8.69198
H -1.78091 11.9082 9.25767
O -14.1566 -1.20855 3.60547
H -13.4974 -0.508814 3.33004
H 14.7635 -0.8269 3.57429
O 2.82603 -5.28783 -10.8824
H 2.72094 -5.48106 -11.8579
H 3.7056 -4.83907 -10.7244
O 5.42341 10.3505 5.26346
H 5.48012 10.2254 6.25399
H 6.07907 9.74468 4.81285
O -3.57457 13.8546 11.0398
H -3.97042 14.697 11.4054
H -3.27055 13.274 11.7951
O 0.19599 8.0712 0.796668
H -0.137618 7.44971 1.50552
H 0.109378 7.63335 -0.098211
O -9.69102 6.85109 -14.6206
H -8.75613 6.49974 -14.57
H -10.2576 6.21654 14.6975
O 9.68291 4.15836 2.68356
H 10.6375 4.39873 2.85941
H 9.60623 3.73748 1.77968
O 4.85917 -11.0697 -3.00142
H 5.19811 -10.2627 -2.5179
H 5.36236 -11.1806 -3.85848
O -13.6304 12.2716 9.8492
H -14.2104 11.5186 10.1601
H -12.9529 12.4832 10.5536
O 8.7328 -2.66924 -6.12937
H 8.58773 -3.38165 -6.81599
H 9.11616 -1.85651 -6.56817
O -6.89496 11.3544 -10.6753
H -7.79347 10.9468 -10.8381
H -6.98483 12.349 -10.6223
O -10.3192 1.54993 4.81628
H -10.9208 2.27453 5.15255
H -10.7373 1.11224 4.02026
O -7.83362 12.1244 14.8822
H -8.56896 12.782 -14.7979
H -7.29516 12.4165 14.0917
O -9.82614 -6.63889 -5.27463
H -9.49154 -7.57906 -5.33895
H -10.2105 -6.48341 -4.36461
O -2.18508 -6.47594 -3.16868
H -1.48096 -6.69724 -2.49396
H -1.87479 -6.75408 -4.07774
O -10.2758 -5.0797 -0.406176
H -10.5073 -4.14731 -0.683782
H -10.9984 -5.44119 0.183062
O 0.467802 -4.99791 7.96082
H 0.923389 -4.3512 7.34907
H 0.849772 -4.91198 8.881
O 4.28354 -9.97721 0.554989
H 3.95179 -10.1398 1.48425
H 4.83061 -10.7586 0.254831
O 9.91484 -5.1751 0.414325
H 9.26454 -4.68035 -0.162172
H 10.8369 -4.82228 0.255184
O 3.2114 13.3214 1.17065
H 2.77565 14.0773 0.682064
H 2.52068 12.6414 1.41694
O -8.61748 13.0958 -1.03024
H -7.97555 13.5319 -0.399594
H -8.11406 12.7047 -1.8007
O 11.0184 -4.9115 -11.3323
H 10.0985 -4.51955 -11.3182
H 10.9598 -5.89285 -11.5154
O 10.2391 9.77181 3.13725
H 9.70181 9.61916 3.96674
H 9.81611 10.4979 2.59506
O 0.120427 -14.7145 8.59614
H 1.08229 14.8677 8.676
H -0.291128 -14.6756 9.50671
O 4.21325 6.72659 -0.00721456
H 4.52695 6.94223 0.917509
H 4.1211 7.57189 -0.533528
O 10.8624 -7.5002 13.8694
H 9.963 -7.11674 13.6595
H 11.3665 -6.86608 14.4558
O 11.0191 -1.88876 1.96809
H 10.2746 -2.33137 2.46803
H 11.6805 -1.51423 2.61787
O -1.39414 5.30511 -13.4699
H -0.503183 4.85274 -13.4301
H -1.46679 5.96463 -12.7217
O -3.12951 -8.19621 3.75942
H -2.82976 -7.73517 2.92419
H -3.36582 -9.14505 3.54993
O 5.9478 -11.7272 10.1105
H 6.22742 -10.9776 9.51046
H 5.01366 -12.0039 9.88498
O -0.841606 -7.22021 -5.63149
H -0.268221 -7.59836 -4.90468
H -0.658764 -7.70522 -6.48669
O -4.76358 -13.6718 -8.41512
H -4.44146 -13.3451 -9.30368
H -5.67805 -13.308 -8.23777
O 11.5138 -0.647169 10.6815
H 11.0077 -1.38974 10.2427
H 12.2168 -1.03112 11.28
O -5.19116 10.6324 7.33557
H -6.0866 11.002 7.08733
H -4.72304 11.2733 7.94394
O 13.959 5.61392 -14.2452
H 13.2217 6.28345 -14.1547
H 14.5084 5.60817 -13.4097
O 13.2668 8.60484 2.99657
H 14.0112 8.87887 3.60552
H 13.0303 9.36784 2.39497
O -10.0803 12.0575 -5.21011
H -9.968 12.0439 -4.21652
H -9.26341 12.4503 -5.63253
O -10.0014 -7.81115 10.2309
H -9.15158 -8.08253 9.77894
H -10.7703 -8.29544 9.81341
O 0.285915 -4.02044 3.79898
H -0.510774 -3.62195 3.34454
H 0.0967849 -4.97571 4.02637
O 10.1953 0.891038 12.35
H 11.0137 0.661508 11.8232
H 10.2856 1.81563 12.7201
O -14.297 -14.424 6.58753
H -14.2577 14.8751 5.7498
H -13.4057 -14.0017 6.75271
O -12.5302 -5.78363 14.6015
H -12.0747 -5.05404 -14.7322
H -11.9481 -6.59664 14.591
O 11.1043 -13.7873 3.40907
H 10.3985 -14.4219 3.72398
H 11.8153 -13.7063 4.10755
O 10.6434 14.462 13.6518
H 10.1306 14.5655 14.504
H 10.9406 13.5121 13.5548
O 5.54335 10.9406 -1.93253
H 5.41701 11.4512 -1.08207
H 5.97535 11.5306 -2.61459
O 14.7807 9.87728 14.1904
H 14.3542 9.0191 13.9048
H 14.1665 10.3643 14.8113
O -13.4385 -6.86708 11.683
H -13.8501 -6.34918 12.433
H -12.4666 -7.0095 11.8703
O 11.3992 -12.6048 7.20795
H 11.1694 -13.2114 7.96901
H 10.7411 -11.8528 7.17065
O 6.91046 -14.6514 -4.08936
H 6.99512 14.2095 -3.92632
H 6.10425 -14.3025 -3.61155
O 13.155 2.73372 1.62826
H 13.1388 1.83629 1.18737
H 13.7334 3.35461 1.0992
O -11.1236 1.33386 -2.9295
H -11.7334 2.04571 -2.58113
H -10.4089 1.14792 -2.25521
O 8.12254 6.33421 0.449878
H 8.80484 6.84895 0.969038
H 7.85147 6.8595 -0.356733
O -4.00623 -4.6167 -3.18601
H -3.23361 -5.24568 -3.09966
H -3.9023 -4.07349 -4.01917
O 6.57977 8.7619 -8.64622
H 7.44653 9.23792 -8.79504
H 6.66489 7.81232 -8.94803
O 10.6202 4.07783 -13.3554
H 11.369 3.71805 -12.7988
H 10.8545 4.99558 -13.6762
O -1.61659 -14.0572 10.8745
H -2.07514 -13.3466 10.3409
H -2.27391 -14.7728 11.1111
O 0.976461 8.93516 9.83216
H 0.122473 8.42744 9.71838
H 1.3635 9.14204 8.9336
O -6.89793 4.70773 -6.32202
H -6.49675 4.07024 -5.66424
H -7.86547 4.84241 -6.10813
O -11.0128 -13.905 -3.66294
H -10.6918 -13.5115 -4.52441
H -11.7212 -13.3176 -3.27164
O 0.724654 4.79953 9.85013
H 1.56643 4.89041 10.3823
H -0.0426517 4.62521 10.4673
O 10.0769 -8.62599 -7.83415
H 10.1532 -9.5718 -7.51849
H 10.9859 -8.27552 -8.05962
O 3.17205 -11.5414 12.8822
H 3.24848 -12.5018 12.6142
H 4.03804 -11.2359 13.2781
O -1.93342 10.0784 1.56329
H -1.26597 9.40076 1.25463
H -2.82517 9.64034 1.67672
O 6.08059 -6.22564 -8.78229
H 5.20081 -5.76743 -8.90898
H 5.92855 -7.14391 -8.41667
O -11.4478 8.65202 7.72628
H -11.519 7.79161 8.23092
H -10.8206 8.53589 6.95616
O 6.95536 5.68444 -9.08102
H 6.07125 5.96627 -8.70828
H 7.2091 4.79498 -8.70088
O -14.5068 11.038 -9.13394
H -14.0064 11.8836 -8.94833
H 14.7617 10.8118 -8.34793
O 9.89565 -13.8616 -12.717
H 10.1748 -13.1536 -13.3657
H 9.40854 -14.5865 -13.2041
O -12.9553 -11.6659 -3.37692
H -12.6245 -10.9816 -4.02684
H -13.9087 -11.4721 -3.14534
O 7.62307 -3.48693 -3.59949
H 7.91385 -2.95146 -4.39242
H 7.72629 -4.46133 -3.7993
O -7.56914 -3.01992 6.59096
H -6.59029 -3.01756 6.38637
H -8.0727 -2.63942 5.81529
O 12.0603 -11.7918 -9.7166
H 12.8351 -12.187 -9.22304
H 12.3462 -10.9427 -10.1609
O 7.96267 0.211392 -13.3209
H 7.31771 0.922187 -13.6017
H 7.46132 -0.625122 -13.0998
O 7.33597 11.0927 2.50593
H 7.82132 11.5535 3.24897
H 7.1248 10.1538 2.77759
O -4.56958 -4.84929 -10.1582
H -4.22265 -4.18784 -10.8231
H -3.92866 -4.92108 -9.39395
O 2.01086 -14.2252 -4.03042
H 2.03123 -13.7519 -4.91107
H 1.21917 -14.8353 -3.99816
O 3.61948 14.5814 -14.3795
H 2.84072 -14.6387 -14.3123
H 4.29118 14.8098 -13.6747
O 11.1504 -1.61954 -10.4383
H 11.2007 -0.639092 -10.248
H 11.0437 -1.76306 -11.4222
O 6.23421 -7.83057 0.835572
H 5.56621 -8.55879 0.988835
H 6.6054 -7.90809 -0.0897527
O -9.42072 -10.3801 2.27341
H -9.63301 -11.3527 2.17823
H -8.44196 -10.2367 2.12688
O 8.40696 -2.15298 7.77271
H 9.10181 -2.4019 8.44743
H 8.39953 -2.82987 7.03664
O -7.46727 3.13499 1.19821
H -7.53133 3.12508 2.19612
H -6.74102 2.51338 0.904636
O 3.69433 3.40071 -5.9734
H 4.66589 3.6354 -5.94145
H 3.1842 4.00956 -5.36587
O 12.1859 -3.62633 0.152501
H 11.6834 -3.00235 0.750962
H 13.0297 -3.18628 -0.154783
O 11.6352 12.0697 -3.71575
H 11.4275 12.8881 -3.1799
H 12.3548 12.2787 -4.37793
O 5.11203 -5.30312 14.8391
H 5.29796 -6.18309 14.4019
H 5.74629 -5.16854 -14.2434
O -6.97399 -12.2055 -7.90289
H -7.14788 -11.9765 -8.86068
H -6.64569 -11.3934 -7.42035
O -5.06539 -12.9704 1.73627
H -4.22265 -13.4843 1.57595
H -5.23652 -12.9092 2.71962
O -1.5989 -12.8511 -2.61341
H -2.45795 -12.5482 -2.20074
H -1.17498 -12.0869 -3.09958
O -6.65069 1.44643 -9.99411
H -7.63712 1.59777 -9.93028
H -6.20672 1.78839 -9.16587
O 4.81265 -6.21297 2.51748
H 5.13741 -6.67445 1.69189
H 4.6426 -5.24851 2.31521
O 2.50503 -11.2669 -4.58454
H 3.13739 -11.257 -3.80991
H 2.85672 -11.8775 -5.29414
O 6.88795 -8.16721 14.7733
H 6.11645 -8.79873 14.6958
H 7.62657 -8.60466 -14.5576
O 8.69662 2.90988 9.46278
H 8.49351 1.97676 9.75949
H 9.54399 3.21977 9.89402
O 8.31638 -4.81075 -7.72837
H 7.53132 -5.42721 -7.78895
H 9.1422 -5.29301 -8.02073
O -1.80874 -7.37849 8.01831
H -1.92734 -6.43426 8.32555
H -0.931557 -7.46781 7.54651