2611
Atoms. Timestep: 8000000
O 0.820545 -10.8032 6.05054
H 1.18798 -9.87976 5.93964
H 0.795073 -11.0373 7.02241
O -0.795547 13.5196 -11.6393
H -0.57904 13.4488 -10.6656
H -1.3242 14.3524 -11.8035
O -8.88325 -3.99061 -14.2512
H -8.91115 -4.40343 14.8105
H -8.78227 -4.70864 -13.5626
O -7.61022 -11.8566 11.4006
H -6.71598 -11.4254 11.5206
H -8.28548 -11.3876 11.9698
O -10.7801 -5.45152 -1.2116
H -11.2255 -6.1025 -0.596941
H -9.79437 -5.45489 -1.04315
O -3.74845 -1.15893 7.25373
H -3.05247 -0.509318 6.9478
H -4.51989 -0.659716 7.64825
O -4.21248 8.2403 -8.20182
H -4.87325 8.86585 -8.61663
H -4.67111 7.68085 -7.51142
O -10.867 -3.03716 -0.260614
H -10.9798 -3.98615 -0.555031
H -10.6008 -3.01655 0.70308
O -1.37516 10.1042 -0.749051
H -1.0148 10.3181 0.158906
H -1.74822 9.17642 -0.749558
O 8.53275 -7.39151 9.5994
H 8.69652 -6.50145 9.17401
H 7.89936 -7.91972 9.03389
O -5.10196 12.1623 -7.38716
H -5.86133 12.6222 -6.92685
H -4.37051 11.986 -6.72847
O -5.02184 4.82778 4.28442
H -4.68567 5.1638 5.16423
H -5.06785 3.82905 4.3046
O -1.09576 4.01028 8.29647
H -1.83255 3.3464 8.16852
H -1.10257 4.33779 9.24129
O -13.8984 0.334004 8.06867
H -13.9934 -0.23088 8.88834
H -14.5727 0.0490062 7.38744
O -5.66158 -3.18513 10.0946
H -4.7331 -3.39608 9.78904
H -6.14285 -4.03491 10.3097
O -8.03003 -14.174 14.7896
H -7.06509 -13.998 14.5949
H -8.1622 14.8223 14.9642
O 4.14871 4.41372 10.3409
H 4.23945 4.65036 11.3082
H 5.04023 4.14063 9.97947
O -2.06116 3.86436 5.73
H -1.8975 4.37729 4.88733
H -1.20733 3.78803 6.24491
O 13.9543 -11.1436 0.598006
H 14.2568 -11.9692 1.07421
H 14.708 -10.7792 0.0510494
O -2.6041 9.44634 9.10254
H -3.3598 9.0283 9.60666
H -2.01522 9.94558 9.73813
O -11.906 8.30319 5.25838
H -12.4449 9.05144 5.64533
H -11.9607 8.33443 4.26038
O -14.6845 -7.42416 4.83337
H 14.8667 -6.5709 5.14115
H -14.8258 -8.13357 5.52383
O 11.1988 -0.926884 -2.94947
H 10.4927 -0.372211 -2.50933
H 11.2363 -0.706641 -3.92418
O -4.44607 -7.50693 0.138693
H -3.98647 -8.38661 0.260734
H -4.90623 -7.25053 0.988689
O -0.538924 11.0079 1.84596
H 0.265098 10.5027 2.15949
H -0.317225 11.9809 1.78221
O 1.43884 -3.04575 7.62523
H 1.13212 -3.69045 8.32541
H 1.27173 -2.11047 7.93716
O -1.87904 8.55559 -6.89719
H -1.99812 9.53373 -6.72674
H -2.66238 8.20943 -7.41345
O -4.63557 0.390379 -2.59981
H -5.55428 0.741034 -2.78144
H -4.1812 0.977367 -1.92976
O -11.2725 12.9038 -12.3024
H -11.7136 13.4155 -11.5651
H -10.5291 12.3509 -11.926
O -3.80838 -4.1149 -1.55701
H -2.84851 -4.39182 -1.51291
H -3.89822 -3.31778 -2.1541
O 9.7266 3.45403 7.23217
H 10.0684 3.56021 8.16592
H 10.4632 3.12119 6.64345
O -6.79267 0.0523825 -7.39172
H -7.06543 -0.0341389 -6.43354
H -5.81748 0.267756 -7.44252
O -1.77805 11.1787 -6.33161
H -2.52691 11.5339 -5.7721
H -0.908046 11.3416 -5.86624
O 13.0321 -6.28402 14.0536
H 13.4352 -5.3782 13.9233
H 12.3277 -6.43812 13.3608
O -6.50039 2.26405 4.22819
H -6.65723 2.16212 3.24585
H -6.08421 1.42887 4.5877
O 5.02112 -13.3643 10.9921
H 5.85278 -12.8291 10.8443
H 4.99505 -14.1256 10.3442
O -13.1635 -9.51943 -10.6503
H -13.8674 -9.28046 -9.98143
H -13.4488 -10.3319 -11.1586
O 1.60563 13.9248 -12.7584
H 0.759612 13.7636 -12.2502
H 1.42652 13.8421 -13.7387
O 5.26152 -5.28666 -9.8376
H 5.91817 -5.70053 -10.4681
H 5.51939 -5.5057 -8.89659
O -12.5967 13.9661 -10.1776
H -13.0768 14.7415 -10.588
H -13.2547 13.3771 -9.7085
O -8.48931 -6.66649 7.21448
H -8.4759 -6.71339 6.21568
H -8.5587 -5.71137 7.50241
O -10.4851 -14.9267 6.66422
H -11.1745 -14.8387 7.38324
H -9.59474 -14.6421 7.01954
O -4.16247 -12.6255 7.21947
H -3.82668 -12.5048 6.28531
H -4.61441 -11.7865 7.52226
O 1.97533 11.0782 -13.0314
H 1.57245 10.1924 -12.8011
H 1.25455 11.7696 -13.0802
O 3.4212 -9.32118 -12.4858
H 3.96457 -10.1005 -12.1737
H 2.84774 -9.60152 -13.2555
O 12.1321 -12.8068 -0.53155
H 12.2288 -13.5461 0.13491
H 12.6038 -11.9915 -0.195739
O 6.98212 8.67529 -13.9693
H 7.6058 9.37872 -14.3102
H 6.078 9.07552 -13.8198
O 10.0209 -5.90191 -11.5716
H 9.83984 -5.45084 -12.4455
H 9.23461 -6.46526 -11.318
O -12.2667 -7.58097 7.3303
H -11.8914 -7.19813 6.48619
H -11.5224 -7.9404 7.89313
O 14.5099 12.6828 -4.04641
H 13.7212 13.1437 -3.63962
H 14.5931 11.7632 -3.66256
O 11.2441 2.62973 13.4418
H 12.0587 2.37525 13.9631
H 11.4004 2.44988 12.4706
O 13.7731 11.7945 2.33058
H 12.7863 11.7784 2.49174
H 14.1061 10.8597 2.2077
O -11.2817 -0.00848194 0.262364
H -11.1573 -0.988097 0.104736
H -10.3878 0.431551 0.347919
O 2.41579 3.11693 -5.55909
H 1.57728 3.48531 -5.96055
H 2.898 2.56678 -6.24084
O -13.1075 9.06408 -12.0478
H -12.7768 8.13001 -11.9133
H -14.1065 9.06057 -12.0939
O -6.65274 1.20624 -9.98057
H -7.10811 2.05945 -9.7263
H -6.60507 0.603635 -9.18397
O -4.75027 -9.82115 -6.48209
H -5.58327 -9.88999 -5.93312
H -3.95296 -9.97666 -5.89891
O 11.5665 -11.4648 4.25068
H 11.1278 -11.5808 5.14178
H 11.021 -10.8427 3.6891
O -2.6945 -10.1593 14.2069
H -2.46399 -10.2666 13.2397
H -2.12053 -9.44614 14.6092
O 9.22592 12.4003 -12.4474
H 8.68189 12.898 -11.7719
H 8.78889 12.4699 -13.3442
O 12.8217 -13.7726 5.11847
H 12.554 -13.0902 4.43835
H 13.8143 -13.8917 5.09838
O -7.18318 -9.31798 -4.6555
H -6.44439 -9.36533 -3.98325
H -7.65747 -8.44194 -4.56836
O 13.8705 4.90894 -6.40186
H 14.6142 4.26891 -6.59504
H 13.7948 5.04352 -5.41387
O 5.31313 -2.71882 0.779343
H 4.99487 -1.77488 0.867013
H 6.12849 -2.84939 1.34335
O 11.6995 -6.28441 6.53315
H 11.3773 -6.05228 7.45092
H 10.9224 -6.31245 5.9043
O -4.37489 14.7439 -8.82877
H -3.61928 -14.8931 -8.26596
H -4.8094 13.9661 -8.3746
O 2.49429 -6.39583 0.129205
H 2.26416 -6.36302 -0.843391
H 1.68949 -6.67513 0.652909
O -11.2073 0.770546 6.5272
H -11.8892 0.784524 7.25853
H -10.5121 1.46667 6.70631
O -4.16804 6.36853 -4.06096
H -4.44494 7.13423 -3.48044
H -3.16993 6.33091 -4.1094
O 5.41774 -9.0941 5.34986
H 4.91161 -8.41574 4.81728
H 4.80794 -9.84765 5.5954
O 2.66564 -3.90251 -10.16
H 2.22606 -4.56352 -10.7681
H 3.61773 -4.16915 -10.0103
O 6.7229 4.60626 3.10444
H 6.52002 3.68765 3.44352
H 7.53691 4.57523 2.52443
O -8.91221 -10.7497 -6.24361
H -8.33227 -10.34 -5.53946
H -8.44523 -11.5389 -6.64242
O 3.16331 -7.34149 -10.7867
H 3.22065 -8.04237 -11.4976
H 4.05862 -7.2302 -10.3553
O -3.25319 10.1687 4.53895
H -4.11996 10.3067 4.05973
H -3.03902 10.9813 5.08103
O 4.72572 10.9923 -13.0051
H 3.73721 11.0023 -13.1558
H 5.07835 11.9272 -13.044
O 11.1821 -11.2517 8.6917
H 11.5328 -10.3286 8.84927
H 11.7904 -11.9176 9.12346
O -11.4059 -7.45402 -9.42627
H -11.6859 -8.16849 -10.0675
H -10.5416 -7.71309 -8.99519
O -8.99569 -1.19679 14.9211
H -9.18295 -1.97066 -14.446
H -8.76543 -0.392987 -14.5025
O -11.8319 7.67439 -14.8952
H -11.5504 7.04901 -14.1674
H -11.5084 8.59706 -14.6854
O -13.427 -13.6293 -6.98361
H -13.6793 -14.5891 -6.8605
H -13.7932 -13.0886 -6.2263
O 9.55014 10.9776 -4.19308
H 8.63042 11.2424 -4.48291
H 10.2176 11.6141 -4.57962
O 7.09967 -13.4565 0.937271
H 7.30985 -14.3887 0.642754
H 7.85627 -12.8507 0.69126
O -7.64068 -5.82806 -9.33943
H -7.06909 -6.06553 -8.55402
H -7.13719 -5.21029 -9.94344
O 8.41609 1.90079 10.5301
H 8.00726 1.64763 9.65334
H 9.30226 1.44788 10.6278
O 3.60596 8.23787 4.52514
H 2.75511 8.04784 5.01495
H 3.49684 9.06693 3.97675
O 0.167077 -9.09625 -12.6359
H -0.175981 -8.64723 -11.8109
H -0.0591786 -10.0698 -12.6042
O -8.71952 14.395 9.87348
H -8.1001 14.672 9.13892
H -9.19808 -14.7732 10.2268
O 2.4915 11.8614 11.4939
H 1.79268 12.573 11.4218
H 2.42582 11.4191 12.3884
O -12.3712 3.17396 -11.1137
H -11.8454 3.92292 -10.7105
H -11.951 2.89952 -11.9786
O -7.21973 -7.34167 9.81011
H -7.77717 -6.53308 9.99835
H -6.43146 -7.08073 9.25288
O 0.450781 12.9385 3.98542
H 0.084978 12.0083 4.01739
H 0.870775 13.1619 4.86501
O 8.43504 -12.6514 -4.53709
H 9.15514 -12.886 -3.88411
H 8.84444 -12.452 -5.42739
O -14.2033 6.07606 3.07325
H -14.2555 5.08721 3.21265
H -13.2545 6.33808 2.8966
O 12.7128 13.9087 -11.7348
H 12.2628 13.5409 -12.5485
H 13.6439 14.1899 -11.9672
O 0.667748 -13.8983 -0.111679
H 1.19753 -13.7808 0.728268
H 0.641824 -13.0335 -0.613104
O -5.68218 10.2229 3.06561
H -6.14559 10.0476 3.93424
H -5.90015 9.49257 2.41824
O -10.805 -10.8661 -10.4633
H -11.0032 -11.4039 -9.6439
H -11.6077 -10.3217 -10.7069
O 3.8454 -1.2781 14.3735
H 3.62468 -0.317777 14.2031
H 3.00053 -1.79476 14.5122
O 7.43438 -7.39 0.708588
H 8.24804 -7.21875 0.153058
H 6.62269 -7.37368 0.12475
O -10.1785 14.3453 0.053186
H -9.31932 14.8381 -0.0839508
H -10.2788 14.113 1.02065
O 6.82134 11.2886 8.18596
H 6.20148 12.0668 8.08461
H 7.67624 11.4784 7.70315
O -10.987 10.1633 14.859
H -11.2505 10.9979 14.3752
H -9.99142 10.0702 14.845
O 10.7744 6.20673 11.1921
H 10.1846 5.51693 11.6118
H 10.2365 7.02385 10.9849
O -0.484868 10.5152 13.639
H 0.45841 10.8277 13.7511
H -0.620966 9.67256 14.16
O 11.1137 -12.472 -11.6044
H 11.7282 -12.2041 -12.3464
H 11.6486 -12.6634 -10.7814
O -10.6717 3.903 -2.68474
H -10.9389 4.825 -2.40457
H -11.4828 3.3941 -2.97318
O 10.6083 14.4254 -10.0787
H 9.7902 14.5726 -10.6346
H 11.393 14.263 -10.6769
O -10.1363 1.39038 3.60955
H -9.18727 1.61092 3.38433
H -10.4883 2.06076 4.26275
O -14.3871 -9.90398 6.46678
H -13.6076 -10.5106 6.31025
H -14.1662 -9.25964 7.19893
O -12.1185 -2.61515 6.21485
H -12.9419 -2.67728 6.77896
H -12.2122 -1.85587 5.57088
O 9.17547 4.12537 -12.5309
H 9.42454 4.339 -11.5862
H 8.18239 4.03099 -12.6005
O -6.11519 14.6236 5.66007
H -6.4006 13.9672 4.96176
H -5.53115 -14.6517 5.2437
O 4.91278 13.5997 -4.72318
H 5.71647 13.8723 -4.19422
H 4.67184 14.3294 -5.36314
O 1.48508 2.96588 11.8666
H 1.27676 3.32036 10.9551
H 1.87159 2.04708 11.7867
O 4.36293 2.03366 6.82678
H 3.89427 1.7847 7.67434
H 5.3332 2.18603 7.0148
O 12.9967 -11.3315 -7.25847
H 12.8881 -11.9927 -6.5162
H 13.8629 -10.8444 -7.14686
O -7.02025 4.54531 -9.65143
H -6.71678 4.15372 -8.78278
H -7.11345 5.53635 -9.55581
O 6.95177 6.68513 -3.30616
H 6.98724 6.19099 -4.17481
H 7.88215 6.87073 -2.99005
O 3.1829 11.6338 -5.55103
H 3.60934 11.212 -6.35114
H 3.65705 12.4864 -5.33124
O 0.717653 10.4578 9.87865
H 1.54372 10.9056 10.2208
H 0.969855 9.62593 9.38434
O -13.341 14.1 -2.86489
H -13.252 14.0027 -1.87363
H -14.0893 13.5221 -3.19066
O 1.00722 5.50836 -7.85929
H 0.852349 6.13415 -8.62374
H 0.313551 5.66334 -7.15588
O -1.6955 -1.50324 -9.48219
H -2.27398 -1.19497 -10.2374
H -2.16227 -1.33396 -8.61418
O -3.15906 -5.01056 12.8394
H -3.2963 -4.02044 12.8109
H -3.07109 -5.30769 13.7902
O -4.71522 12.415 -0.830219
H -5.03687 11.8531 -1.59232
H -3.97957 13.0146 -1.1454
O 13.8162 7.44708 4.10137
H 13.9131 7.8578 5.00796
H 14.65 6.94493 3.87214
O 1.2466 -1.73323 -9.89875
H 2.01625 -2.36757 -9.82633
H 0.686672 -1.79283 -9.07236
O 0.0147227 -3.29464 -12.2193
H 0.387586 -2.75942 -11.4613
H 0.45454 -4.19244 -12.2414
O -13.7768 9.84482 13.6849
H -14.5618 9.24835 13.5173
H -13.0228 9.30586 14.0603
O -3.74366 7.43445 -14.139
H -4.11358 7.31128 -13.2181
H -4.00077 6.65383 -14.7086
O -4.76667 13.7496 8.03019
H -5.10166 14.4161 7.3642
H -5.50846 13.1279 8.28158
O 6.26752 -14.9076 3.45603
H 6.5793 -14.2352 2.78475
H 5.96528 14.2368 2.98312
O 1.71724 -7.36182 -4.53269
H 1.82653 -6.63055 -3.85944
H 2.57703 -7.49136 -5.02663
O 5.02545 5.7073 4.87008
H 4.8355 6.66633 4.65993
H 5.90081 5.44425 4.46447
O -11.2794 -7.1259 10.6761
H -10.661 -7.43883 9.95534
H -11.4195 -7.86227 11.338
O 10.0031 -9.22366 -4.77589
H 9.62583 -9.58267 -3.92223
H 10.6931 -8.52981 -4.5696
O 11.4543 -14.3585 14.223
H 10.8236 14.9134 14.5576
H 11.122 -13.4546 14.4919
O -13.7908 11.7916 -14.4969
H -13.231 11.4891 -13.7255
H -13.9674 11.0172 14.8676
O -12.7226 -4.84203 14.0775
H -12.4345 -4.04729 14.6117
H -12.866 -5.62033 14.6888
O -3.24061 -0.485487 -11.4938
H -3.85498 0.0977529 -10.9624
H -3.50969 -0.463181 -12.4567
O 3.81982 -4.77999 1.92032
H 3.40617 -5.31062 1.18052
H 4.43966 -4.09681 1.53426
O 0.280747 7.15858 -1.97314
H 0.808431 7.96204 -1.6975
H 0.853454 6.34218 -1.89904
O 7.43195 13.0169 -2.18696
H 7.26208 12.3726 -1.44128
H 7.52092 12.515 -3.0473
O 2.5241 -7.77187 11.2968
H 1.7317 -8.32883 11.5456
H 2.82161 -8.0097 10.3722
O -8.12767 -6.08064 -0.914915
H -7.33044 -5.74777 -1.4185
H -8.13421 -7.08057 -0.924343
O -0.871775 12.2715 -2.46018
H -0.357072 11.8545 -3.20934
H -1.0451 11.5861 -1.75293
O 4.72495 14.8305 9.00728
H 5.15003 14.5504 8.14656
H 3.73078 14.7588 8.92685
O 2.10233 -8.27697 -8.37842
H 2.44947 -8.07786 -9.29485
H 1.4351 -7.57988 -8.11601
O -8.44087 10.7782 0.227345
H -7.8209 10.0048 0.359409
H -7.93326 11.551 -0.153545
O -8.94821 2.29206 6.5836
H -8.36207 2.42649 7.38257
H -8.57862 1.55368 6.01952
O 0.763807 14.0127 14.3725
H 1.25761 13.3105 13.8596
H -0.208844 13.7822 14.4014
O -2.99701 -0.220923 -5.36178
H -3.57019 -0.654686 -4.66658
H -2.86108 0.741903 -5.1284
O 6.18677 -7.63488 7.44632
H 5.38891 -7.47748 8.02824
H 5.93463 -8.24062 6.69168
O -2.79681 14.8513 0.808048
H -2.10182 14.432 1.39215
H -3.03574 -14.2193 1.16882
O -8.78842 1.40919 -11.666
H -8.0892 1.26899 -10.965
H -9.55941 0.795709 -11.4951
O 3.37756 12.1942 -2.47027
H 3.88086 12.3022 -3.32759
H 2.61349 12.8389 -2.4488
O 7.71627 10.4978 11.7961
H 7.89356 11.3486 11.3014
H 6.73144 10.3263 11.8219
O 9.50765 -3.91753 11.486
H 10.2452 -4.51092 11.8084
H 9.01226 -3.54518 12.2708
O -1.43871 7.27964 -4.06385
H -0.626872 7.28586 -3.48002
H -1.52081 8.16054 -4.52996
O -5.36329 5.26294 0.666538
H -4.59875 5.77792 1.05416
H -5.8543 4.7927 1.39986
O 5.61495 -9.93095 -5.85947
H 5.74283 -10.2609 -4.92416
H 6.35186 -9.29652 -6.09281
O 13.932 -0.465204 14.5337
H 14.3918 -0.944998 13.7865
H 14.1873 -0.883501 -14.5667
O 6.75762 4.43891 9.40136
H 7.29126 4.12339 8.61672
H 7.37484 4.66547 10.1548
O 0.705154 11.1236 -4.3974
H 1.51783 11.4535 -4.87768
H 0.876162 10.2029 -4.04658
O -12.5274 5.74642 -5.04826
H -13.3078 5.39425 -4.53159
H -12.004 6.37567 -4.4738
O -12.3502 -7.49085 -0.215608
H -13.287 -7.68959 -0.503624
H -11.7969 -8.32095 -0.285013
O 2.64341 14.9853 -10.2376
H 2.23242 14.234 -10.7539
H 1.92788 -14.3516 -9.94671
O -8.71178 -7.35873 4.44339
H -8.55503 -6.75831 3.65924
H -8.3839 -8.27889 4.22942
O -11.5592 2.76779 -14.173
H -11.3222 2.02608 -14.8004
H -10.816 3.43655 -14.1517
O 6.43751 2.26515 4.28945
H 6.71909 2.0494 5.22441
H 5.51432 1.91535 4.13028
O -9.5305 2.863 -0.178635
H -9.59388 3.25997 -1.09426
H -10.4087 2.96218 0.289173
O -5.12785 -7.80595 -12.4695
H -6.09956 -7.97165 -12.3013
H -4.67875 -7.55691 -11.6115
O 14.574 8.45043 6.89714
H -14.7738 9.18263 6.62471
H -14.9559 7.87396 7.58429
O -7.1814 7.44427 -9.82692
H -7.91719 7.90082 -10.3271
H -7.28884 7.61417 -8.84735
O -6.35279 -2.31054 0.56243
H -5.56605 -2.86164 0.840483
H -6.77737 -1.90376 1.37128
O -7.42986 13.1684 -1.20563
H -7.79569 14.0983 -1.16828
H -6.45847 13.1826 -0.968569
O -7.57045 2.31059 1.56421
H -8.3102 2.62235 0.96792
H -6.96363 1.70247 1.05242
O -9.47204 7.40367 -3.4664
H -9.25287 8.30144 -3.08436
H -8.78182 7.15272 -4.14508
O -4.7344 7.52462 9.74869
H -4.6752 7.09722 10.6508
H -4.92251 6.82452 9.05988
O 14.5961 -4.0897 13.9803
H -14.3933 -4.2189 14.1131
H 14.4389 -3.2672 13.4337
O -0.75292 -10.2208 1.49566
H -0.493197 -10.4037 0.547472
H -0.00353179 -10.484 2.10322
O 8.77729 13.6388 4.39446
H 7.84865 14.0095 4.38109
H 9.38373 14.276 4.87006
O 1.06658 14.4104 -2.35935
H 1.02965 -14.8776 -1.63095
H 0.423495 13.6721 -2.15608
O -0.414814 -11.7432 -12.0696
H -0.618516 -12.1196 -12.9733
H 0.279262 -12.3073 -11.6223
O -1.32269 8.25869 -14.9179
H -1.22559 7.39089 14.5668
H -2.24704 8.32874 -14.5429
O 7.67391 -0.4148 -5.20829
H 7.8161 0.545431 -5.44854
H 6.86583 -0.496286 -4.62489
O -5.27203 -3.36646 6.49799
H -4.86757 -2.54495 6.89986
H -4.91709 -3.49388 5.57184
O -12.5933 -14.0343 3.89106
H -12.335 -14.1315 4.85222
H -12.1812 -14.7738 3.35878
O 12.1826 9.13884 7.71747
H 11.5193 8.39219 7.76691
H 13.0207 8.81178 7.28076
O -1.54196 10.9757 10.9541
H -1.62644 10.7281 11.9193
H -0.642879 10.6975 10.6161
O 14.5807 13.4866 0.204624
H 14.5514 13.0812 1.11828
H -14.4412 13.555 -0.0993691
O -11.6122 12.9655 14.2148
H -12.4962 12.6279 14.538
H -11.2224 13.5848 14.8963
O 9.00386 -13.3745 9.85016
H 9.33567 -13.4992 8.9151
H 9.76149 -13.4952 10.4916
O -8.49825 -4.64903 12.8367
H -9.06393 -4.86748 12.0415
H -7.80071 -5.35591 12.9538
O -4.41886 -7.33173 9.17199
H -4.75678 -6.9055 8.33287
H -3.48279 -7.65313 9.02898
O -13.8605 -1.61872 -8.73642
H -13.8974 -2.39632 -8.10876
H -13.1368 -1.76831 -9.41014
O 10.3815 -0.0262584 5.4917
H 10.8029 0.875751 5.58534
H 10.6519 -0.431468 4.61841
O -12.1856 -12.4677 -14.9524
H -11.3237 -11.9607 -14.959
H -12.0072 -13.4255 -14.7274
O 6.72075 -8.09481 11.4821
H 6.18894 -7.24914 11.4375
H 7.43172 -8.07894 10.7791
O -7.76357 -9.00999 -0.204453
H -6.97194 -8.84966 -0.794026
H -7.66891 -9.89742 0.246642
O 1.5669 -10.9338 2.54669
H 2.20948 -10.2876 2.95844
H 1.89994 -11.8669 2.68186
O -7.43989 -1.80848 3.06742
H -7.51231 -1.02103 3.67951
H -7.04991 -2.583 3.56543
O 9.79492 -7.27632 -0.682488
H 10.542 -7.32098 -0.0193116
H 9.98134 -6.55206 -1.34632
O -13.7964 3.59629 -6.80427
H -12.9843 3.97922 -6.36404
H -13.6959 2.60457 -6.88412
O 4.24357 -13.328 13.6612
H 4.5901 -13.438 12.7296
H 4.91119 -13.6925 14.3103
O -4.23659 7.03241 2.48647
H -3.98951 6.28662 3.10512
H -3.49393 7.70143 2.45762
O 7.58485 -6.0365 5.51358
H 8.05674 -6.1166 4.63559
H 7.5809 -6.92513 5.97216
O 0.679058 -10.987 -0.999344
H 1.67817 -11.0266 -0.98568
H 0.367534 -10.7467 -1.91868
O 11.4558 -10.0654 1.31224
H 11.6233 -9.07965 1.32731
H 12.3257 -10.5525 1.38961
O 4.96514 -14.3994 -1.37233
H 4.99988 -13.9962 -0.457924
H 4.63892 -13.7163 -2.02572
O 10.0145 13.7641 8.15858
H 9.66978 14.1085 9.03181
H 10.3875 14.523 7.6248
O 9.09217 10.021 14.2431
H 8.77115 9.9967 13.2964
H 10.008 10.4213 14.2744
O -7.54258 5.8664 -1.35289
H -6.66072 5.65193 -0.933002
H -7.98367 6.60498 -0.843067
O -1.65191 -5.66762 4.88829
H -1.04142 -5.06354 4.37606
H -1.38032 -5.67783 5.85064
O -1.52312 -6.97899 11.9422
H -1.25534 -7.05298 12.9029
H -2.19103 -6.24206 11.8382
O -14.8772 12.7883 -9.32352
H 14.5888 12.3421 -8.58548
H 14.8311 13.7516 -9.37363
O 12.8269 -4.57052 0.517038
H 13.8034 -4.7784 0.460029
H 12.5731 -3.95468 -0.228825
O -7.71988 -0.259232 -3.16153
H -7.76405 -0.757576 -2.29568
H -8.53935 -0.454141 -3.70046
O -1.86466 -13.4185 -7.7918
H -1.39364 -13.305 -6.91702
H -2.48166 -12.6458 -7.94085
O -4.14262 -0.314657 -7.66841
H -3.61117 -0.188692 -6.83075
H -4.30154 -1.29042 -7.81875
O 2.67799 -1.2421 -1.37616
H 2.88794 -1.13293 -0.404572
H 2.96982 -0.425446 -1.87404
O -8.3913 10.7714 14.9074
H -7.92592 10.0968 -14.4917
H -8.25576 11.6849 -14.681
O 11.2557 6.60421 3.52053
H 12.1708 6.88408 3.81081
H 10.7483 6.25521 4.30838
O 11.4082 9.50837 -2.10375
H 11.0561 9.8578 -1.2355
H 10.6926 9.56343 -2.80005
O 13.9136 -0.308162 6.37435
H 13.901 -0.802755 5.50533
H 13.5625 0.61789 6.23594
O 4.83523 6.16981 -7.3391
H 4.65641 6.99225 -7.87909
H 4.45592 5.37313 -7.80964
O 0.160358 13.544 11.3338
H -0.388447 13.3455 10.5218
H -0.397018 14.0397 11.9998
O -1.77156 -10.9401 11.485
H -1.85026 -10.8668 10.4909
H -2.38516 -11.6571 11.816
O -10.0646 -0.292117 -4.76048
H -10.7272 0.300704 -5.21813
H -10.5157 -0.783438 -4.01545
O -13.7554 2.72195 9.13472
H -12.9997 3.21753 8.70664
H -13.7738 1.78232 8.79307
O 14.3906 -1.93102 12.4345
H 13.5027 -2.17929 12.0471
H 14.7841 -1.17648 11.9093
O -12.0882 -10.4644 -6.55167
H -11.1251 -10.616 -6.32964
H -12.4175 -11.2087 -7.13273
O 11.6016 -7.7285 -13.9228
H 11.0109 -6.97505 -13.634
H 12.2688 -7.39295 -14.5878
O 2.20594 11.4929 -8.61809
H 1.66908 10.8391 -8.08486
H 3.17364 11.2448 -8.57298
O 3.53263 3.65845 2.69711
H 3.21394 2.9017 3.26785
H 4.21704 4.18834 3.19788
O -6.10993 0.182232 8.0125
H -6.84367 -0.16547 8.5962
H -5.9471 1.14667 8.22066
O 10.8463 -2.36652 9.49908
H 10.389 -2.74671 10.303
H 11.4583 -1.62803 9.78187
O 3.08547 7.55712 0.599402
H 3.12013 7.82507 -0.363395
H 2.76648 8.32924 1.14899
O -6.61889 -13.0651 -12.4602
H -6.31856 -12.5717 -13.2765
H -7.59697 -13.2612 -12.5302
O 4.67035 9.61189 7.7079
H 4.75879 9.03617 8.52073
H 5.33236 10.3599 7.7556
O -6.10961 -3.60789 -14.7674
H -6.19896 -2.64644 14.9446
H -7.00436 -3.96532 -14.4998
O 10.603 1.09748 -10.003
H 11.2518 0.427266 -10.3634
H 9.78513 0.625837 -9.67342
O 6.52548 13.2254 12.567
H 5.9326 12.6715 11.9824
H 7.2618 13.6195 12.017
O 1.90772 -11.1105 -8.05963
H 2.51404 -11.5796 -7.41751
H 2.12984 -10.1356 -8.07628
O 12.512 7.95195 -10.6209
H 12.563 8.52063 -9.79992
H 11.5534 7.79292 -10.8571
O 14.5595 -4.7825 -13.2362
H 14.5787 -4.72427 -14.2343
H 14.7198 -5.72847 -12.9544
O 11.985 11.8127 -9.19882
H 12.5872 11.644 -9.97918
H 11.1545 12.2732 -9.5121
O 5.082 -4.25147 -1.88199
H 5.13543 -3.64116 -1.09164
H 5.04334 -3.70817 -2.72063
O -4.81024 9.99605 -12.3447
H -4.04048 10.5516 -12.6591
H -4.62359 9.65987 -11.4216
O -4.55555 -1.10514 11.6073
H -3.64379 -1.31482 11.9605
H -4.79048 -1.75482 10.8843
O -13.0061 -7.08372 -13.7211
H -12.8587 -6.5067 -12.9178
H -13.7033 -7.77027 -13.5149
O 9.14763 -8.53773 3.06617
H 10.0816 -8.50052 2.71083
H 8.51826 -8.77234 2.32534
O -12.0546 10.6592 -9.65292
H -12.5299 10.1145 -10.3438
H -12.2368 11.6297 -9.81016
O 4.59291 2.89586 -3.99841
H 5.35853 2.36129 -4.35626
H 3.78475 2.74255 -4.56705
O -6.88991 -9.68684 3.51247
H -7.5278 -10.2908 3.03461
H -5.9642 -10.0589 3.44444
O -10.0488 10.3186 -2.28201
H -9.73796 10.0987 -1.35735
H -9.66049 11.1958 -2.56444
O -3.68495 11.7428 -4.66197
H -3.5864 12.3032 -3.83967
H -4.2532 10.9461 -4.4562
O 9.26126 11.1699 -7.63923
H 9.5255 10.4873 -6.9579
H 9.29569 10.7612 -8.55124
O -1.80404 2.08198 12.6546
H -1.907 2.39187 13.5998
H -2.64707 1.63396 12.357
O 14.957 2.98982 -0.682532
H -14.6672 2.05297 -0.718006
H 14.1544 3.02498 -0.0871674
O 11.5083 6.99459 -4.10917
H 10.8868 6.44055 -4.663
H 11.8591 7.75247 -4.65919
O -2.54698 -5.94626 -5.89835
H -2.03603 -5.08936 -5.96639
H -1.91022 -6.7033 -5.75202
O -2.91717 1.22787 5.91863
H -3.35594 0.770655 5.14505
H -2.63474 2.14752 5.64575
O 4.89784 7.45147 -10.0363
H 5.77645 7.16967 -10.4218
H 4.16791 6.8883 -10.4237
O 7.2597 -3.11641 -12.1726
H 7.36219 -4.06915 -11.8867
H 7.05063 -3.08237 -13.1499
O -6.52955 12.3467 -12.1759
H -6.01979 11.5805 -12.5672
H -5.92361 13.1365 -12.0811
O -9.95595 -13.1628 -11.8076
H -10.3954 -12.2915 -11.5895
H -9.73316 -13.645 -10.9604
O 1.68358 -7.80145 14.845
H 1.21745 -8.19578 -14.3352
H 1.94184 -8.53171 14.2125
O 4.23667 8.27928 10.1038
H 4.26127 7.62756 9.34577
H 4.9505 8.04856 10.765
O -0.117112 -4.18737 -3.82285
H 0.41033 -3.34695 -3.69847
H -1.00495 -3.96698 -4.22677
O -2.25263 -1.5102 13.3586
H -1.68023 -1.90684 12.6409
H -2.2635 -2.11975 14.1513
O 0.532553 0.545335 13.7588
H -0.307376 0.904626 13.3521
H 0.303331 -0.165461 14.4238
O 14.4223 -5.44751 9.75908
H -14.8576 -4.8098 9.42115
H 14.6714 -5.75372 10.6779
O -6.95276 12.2004 8.50655
H -7.94784 12.1143 8.55528
H -6.53734 11.2915 8.54318
O 9.40797 5.67321 5.53332
H 8.57349 5.92427 5.04281
H 9.35615 4.71361 5.80981
O 5.32849 -1.28385 12.1185
H 5.08022 -1.95263 11.4178
H 4.80813 -1.4664 12.9527
O 11.5271 -0.969141 13.1474
H 11 -1.7472 13.4892
H 12.361 -0.86745 13.6897
O -10.289 10.1783 -5.24908
H -10.1834 10.6008 -4.34889
H -11.1412 9.65568 -5.27408
O -7.32783 -8.41997 12.2769
H -6.82379 -7.73616 12.8045
H -7.39156 -8.12492 11.3236
O 4.11855 -10.5573 10.1495
H 4.54146 -11.4333 10.3812
H 4.23755 -9.91834 10.9095
O -1.6556 -2.87272 -6.15867
H -0.872944 -2.5513 -6.69169
H -2.23231 -2.09431 -5.91077
O 14.8122 -7.74206 -0.276462
H 14.0149 -7.97376 -0.833775
H 14.6778 -8.08081 0.654751
O -2.87116 3.97026 -7.1369
H -3.36404 4.25489 -7.95912
H -1.98219 4.42716 -7.10626
O 1.97515 -5.62175 12.908
H 2.07883 -6.47713 12.4005
H 1.92444 -5.81909 13.887
O -5.10064 10.0887 14.3169
H -4.67686 10.9822 14.4654
H -4.56844 9.38497 14.7876
O -13.8738 -12.0919 -2.56944
H -13.5316 -11.3447 -3.13922
H -14.3195 -11.7147 -1.75759
O -14.7959 -7.80565 8.44724
H -13.8633 -7.60087 8.15005
H 14.7815 -6.99851 8.88619
O 4.17471 -5.21626 14.6425
H 3.37306 -5.24788 14.0456
H 4.39534 -6.14068 14.9536
O -11.9151 5.7397 0.980937
H -12.046 4.82372 1.36019
H -11.8337 5.68003 -0.0139493
O 4.81541 -7.85288 -14.5258
H 5.23617 -8.54142 14.8557
H 4.25951 -8.30619 -13.829
O -5.40277 5.47699 14.5383
H -6.34275 5.7508 14.7419
H -5.18695 4.63413 -14.9408
O 13.2627 4.78428 7.74937
H 12.8628 5.69593 7.6549
H 12.7816 4.28206 8.46788
O -3.41259 -7.57732 -10.4131
H -2.86434 -8.36374 -10.6976
H -3.63994 -7.66294 -9.4431
O -2.09241 2.50607 -4.99222
H -2.08505 3.10084 -4.18838
H -2.62036 2.93936 -5.72263
O 1.05857 -11.6051 8.73033
H 2.00956 -11.3969 8.9589
H 0.714023 -12.3112 9.34887
O 13.7749 -0.487066 2.009
H 14.3582 0.325158 2.01476
H 13.8959 -0.990429 2.86455
O 11.4011 -1.97569 -11.0736
H 11.117 -1.68767 -11.9881
H 12.3825 -1.81802 -10.9644
O 11.1259 3.73266 9.62558
H 11.4424 3.00634 10.2357
H 10.9358 4.55684 10.159
O 3.84352 14.8683 -7.12083
H 3.66772 14.8627 -8.10523
H 3.5803 -14.2173 -6.74029
O -3.18056 12.503 6.01921
H -2.35541 12.1713 6.47649
H -3.82816 12.8394 6.7029
O -1.97896 -14.0879 -11.4977
H -1.37626 -13.8096 -10.7499
H -2.47268 -13.2895 -11.8425
O 0.910929 9.21887 -7.84557
H 0.00989061 9.04528 -7.44811
H 1.02302 8.66621 -8.6714
O 13.1466 9.57185 -5.21817
H 12.2473 10.0035 -5.28723
H 13.4992 9.38744 -6.13561
O -7.75897 -13.9878 -0.725769
H -7.27109 -13.6058 -1.51067
H -7.09874 -14.3309 -0.057712
O -13.7611 7.80983 -3.48572
H -13.3574 8.41625 -4.17073
H -14.565 8.24877 -3.08432
O -7.92942 3.64818 13.108
H -7.80062 4.36965 12.4276
H -8.64156 3.92264 13.7541
O 2.50337 10.1308 1.69711
H 3.43708 9.92377 1.40501
H 2.52735 10.6148 2.57181
O 8.22354 12.5925 -14.9119
H 8.50008 11.632 -14.882
H 7.38883 12.6823 14.5168
O 13.2261 6.93437 11.788
H 12.2972 6.64482 11.5572
H 13.8649 6.18937 11.5959
O -11.0832 -9.99841 -0.121261
H -10.5971 -10.125 -0.98595
H -10.5726 -10.4409 0.615987
O -10.9401 -14.8315 -13.6887
H -10.7173 -14.1646 -12.9777
H -10.8724 14.2167 -13.3121
O -11.1634 -3.60721 -3.30336
H -11.1559 -4.34471 -2.62807
H -11.7505 -2.86514 -2.98004
O -9.41073 3.52202 -7.90876
H -9.60096 3.41704 -6.93266
H -8.48951 3.89134 -8.03098
O 5.92585 2.6347 13.6029
H 5.58384 3.50616 13.2513
H 5.16361 1.99639 13.7102
O -14.7533 1.87893 2.07088
H -14.2263 2.45635 2.69447
H 14.5173 2.42997 1.61895
O 1.40386 -3.00933 14.8821
H 1.02968 -2.37589 -14.4127
H 0.932577 -3.88853 14.9519
O 8.53788 4.3055 11.5755
H 8.31201 3.36812 11.3104
H 8.49465 4.38996 12.571
O 10.3228 -14.1311 6.20811
H 11.2163 -14.0244 5.77193
H 9.96128 -13.2312 6.45185
O 10.6039 -5.75519 3.48983
H 11.1977 -4.95472 3.40839
H 9.66834 -5.50262 3.24319
O -6.70159 -0.433515 5.48124
H -7.22756 -1.27132 5.62761
H -6.37756 -0.0854231 6.36091
O -2.27163 11.3514 -12.6916
H -1.32508 11.0833 -12.871
H -2.28316 12.1963 -12.1568
O 2.44063 0.337383 11.4893
H 3.08672 -0.415403 11.6152
H 1.6251 0.173034 12.0441
O -13.3314 7.63186 9.91505
H -12.5754 7.70919 10.565
H -13.7082 6.70623 9.9506
O -0.84544 -0.680797 -13.8654
H -0.988807 -1.56292 -13.4168
H -1.73072 -0.264926 -14.0736
O 13.7666 9.3921 12.1612
H 13.5788 8.41492 12.0621
H 13.2223 9.76136 12.9145
O 14.0609 -14.9367 14.4193
H 14.6474 -14.2004 14.0818
H 13.1049 -14.7164 14.2259
O -2.51855 -3.51834 -13.9041
H -1.79366 -4.12885 -14.2231
H -2.73766 -3.73027 -12.9517
O -13.962 10.8473 -6.81303
H -14.8205 11.3031 -7.04807
H -13.2098 11.2737 -7.31552
O -1.81614 -8.21745 9.07203
H -1.45327 -8.23025 10.0038
H -1.97342 -9.15529 8.76267
O 5.97822 -10.4745 0.478224
H 6.33215 -9.65026 0.0361778
H 6.66855 -11.1968 0.438099
O -7.61849 6.07847 11.6278
H -7.98149 7.00755 11.5569
H -6.6671 6.11476 11.9336
O 5.66666 10.0598 -10.4157
H 5.30569 9.14995 -10.211
H 5.09337 10.4977 -11.1082
O -8.97 -10.2698 13.0947
H -9.74786 -9.67387 12.8954
H -8.133 -9.72398 13.1326
O -5.15988 -9.08016 -2.94332
H -4.30102 -9.48397 -2.62826
H -5.11852 -8.08636 -2.84023
O 10.2701 3.76389 -10.1688
H 11.1785 4.17698 -10.234
H 10.3565 2.76765 -10.1649
O 3.28336 4.65415 6.88406
H 4.13565 4.79566 6.38052
H 3.18996 3.68587 7.11578
O -8.63465 4.26501 4.00859
H -7.95092 3.5587 4.19198
H -8.17964 5.09101 3.67594
O -14.4001 6.08762 -14.3877
H -13.6604 6.67607 -14.7141
H 14.6913 6.51522 -14.5914
O -5.38224 -10.449 11.8258
H -5.71341 -9.78493 11.1554
H -4.82221 -9.98132 12.5096
O 12.9557 3.54599 1.54211
H 12.1743 3.466 0.923229
H 12.9116 4.42157 2.02315
O -9.94858 -8.62955 8.65646
H -9.56954 -9.52765 8.87947
H -9.22463 -8.04308 8.29325
O -0.729086 -8.57085 -5.35888
H -0.736146 -8.64506 -6.35609
H 0.0371742 -7.9955 -5.07288
O -7.55366 13.003 11.9896
H -8.15549 13.1583 11.2063
H -7.72064 12.0903 12.3624
O 11.6239 2.67802 -4.20046
H 12.2083 1.88321 -4.03679
H 10.8988 2.43185 -4.84362
O -6.54462 9.65837 8.42516
H -5.87242 9.10257 8.91425
H -7.41173 9.16306 8.37255
O -9.61039 -11.849 -14.6889
H -9.14701 -12.7322 -14.7618
H -9.57465 -11.38 14.4007
O -8.63573 -14.1467 -5.453
H -9.34428 -14.0396 -6.15045
H -9.01054 -13.9069 -4.55747
O -3.73773 3.02339 -1.16188
H -4.25658 3.16751 -2.0045
H -4.08504 3.6319 -0.448383
O -0.52991 -7.44599 -10.0425
H -0.80974 -6.56162 -9.66891
H -0.517555 -8.1279 -9.3112
O -3.52879 -11.3651 -8.59419
H -3.79633 -10.9311 -7.7339
H -4.33429 -11.4756 -9.17637
O 3.85847 2.10078 -7.94761
H 3.03131 2.36239 -8.44496
H 4.0985 1.15662 -8.17327
O 5.16142 -6.93802 -0.545919
H 4.44568 -6.89283 0.150962
H 5.18166 -6.07996 -1.05906
O -12.5567 -5.9425 2.25447
H -12.4132 -6.58972 3.00313
H -12.659 -6.44395 1.39536
O -12.1363 6.41156 -12.312
H -12.846 6.00412 -12.8868
H -11.7307 5.70506 -11.7321
O -3.80746 1.65736 -9.53893
H -3.7854 1.0331 -8.75803
H -4.73534 1.69442 -9.90991
O -14.1362 -3.89036 -7.29778
H -13.7614 -4.81079 -7.18687
H -14.9484 -3.78976 -6.72318
O 7.18471 11.5282 -5.21707
H 7.44578 11.5443 -6.18225
H 6.18774 11.5444 -5.14114
O 1.77086 5.5772 9.15056
H 2.5446 5.35542 9.74396
H 1.97495 5.28894 8.21502
O -13.873 -2.22901 0.291946
H -12.9243 -2.41046 0.0333141
H -14.1622 -2.89038 0.984032
O -12.422 -11.6541 8.82794
H -11.5261 -11.8543 9.22439
H -12.3133 -11.412 7.86382
O -11.363 12.7206 5.60298
H -11.1742 13.6189 5.99974
H -10.7222 12.5449 4.85566
O -13.0034 -2.27402 9.37223
H -12.1818 -1.72605 9.52899
H -12.743 -3.22478 9.20433
O 13.8375 -4.93526 -4.02876
H 14.3122 -4.43238 -3.30639
H 13.189 -4.32754 -4.48711
O 9.72626 -11.5207 6.66929
H 10.1778 -11.255 7.5211