LAMMPS data file via write_data, version 15 May 2015, timestep = 590000

4560 atoms
7 atom types
5040 bonds
3 bond types
7200 angles
2 angle types
10560 dihedrals
3 dihedral types
2400 impropers
1 improper types

-1.0763502675555259e-01 4.1387635026745990e+01 xlo xhi
-4.0433884491974936e-02 3.5938433884472119e+01 ylo yhi
-3.5711112484589691e-01 2.9555111124838550e+01 zlo zhi
-6.7234083837551181e-02 -1.7036217651000683e+01 -4.1707816797290791e-02 xy xz yz

Masses

1 12.0107
2 1.008
3 12.0107
4 12.0107
5 12.0107
6 12.0107
7 12.0107

Pair Coeffs # lj/cut/coul/long

1 0.01502 3.55
2 0.00644 2.42
3 0.01502 3.55
4 0.01502 3.55
5 0.01502 3.55
6 0 0
7 0.01502 3.55

Bond Coeffs # harmonic

1 469 1.4
2 367 1.08
3 469 0.7

Angle Coeffs # harmonic

1 35 120
2 63 120

Dihedral Coeffs # opls

1 0 7.25 0 0
2 0 7.25 0 0
3 0 7.25 0 0

Improper Coeffs # cvff

1 2.5 -1 2

Atoms # full

219 13 3 0.0000000000000000e+00 -3.1613304957971411e-01 3.0935130204110184e+00 3.1428903551575273e+00 1 0 0
220 13 4 -1.1500000000000000e-01 3.0367618652664530e-01 4.0997582894554112e+00 2.3783714736397790e+00 1 0 0
224 13 2 1.1500000000000000e-01 5.3522346600198056e-01 5.0004387622476072e+00 2.8849143333371052e+00 1 0 0
580 33 4 -1.1500000000000000e-01 2.6775035856826119e+00 6.7645756466303242e+00 3.9926288048475422e+00 1 0 0
228 13 3 0.0000000000000000e+00 -6.1318872171073324e-01 1.8445889809912792e+00 2.5635323200525502e+00 1 0 0
989 53 4 -1.1500000000000000e-01 -1.3637163707631128e+00 7.0288091187671018e+00 3.5123523568024244e+00 1 0 0
600 34 2 1.1500000000000000e-01 4.2197866736867162e-01 6.0538158634027956e+00 7.1030026045401593e+00 1 0 0
245 14 4 -1.1500000000000000e-01 -4.9319651447062354e+00 1.4050051870813418e+00 9.0477327262680589e+00 1 0 0
227 13 4 -1.1500000000000000e-01 -1.8642993841751099e-01 1.5412310648016376e+00 1.2599420620545148e+00 1 0 0
4390 233 1 -1.1500000000000000e-01 2.3298012792264573e+00 7.3125958279692849e-01 5.4779246417908345e+00 1 1 0
733 13 6 0.0000000000000000e+00 -4.3086457767441422e-01 2.4361231567241104e+00 2.9152423081375201e+00 1 0 0
2116 114 5 -1.1500000000000000e-01 -5.2522019345422688e-01 1.7930629758216764e+01 8.6239734062838913e+00 1 0 0
230 13 1 -1.1500000000000000e-01 7.7846100486210712e-01 3.8591959312661097e+00 1.0671646651527362e+00 1 0 0
217 13 7 -1.1500000000000000e-01 -1.1600197078038064e+00 2.3727240244734276e+00 5.3467843950289700e+00 1 0 0
218 13 5 -1.1500000000000000e-01 -5.8251483565930728e-01 3.3672182272433364e+00 4.4881001994738741e+00 1 0 0
221 13 1 -1.1500000000000000e-01 -1.4863234099762084e+00 1.1735754191540742e+00 4.6812439374424972e+00 1 0 0
222 13 2 1.1500000000000000e-01 -1.2310440175437645e+00 2.4700349740515550e+00 6.4264070948758949e+00 1 0 0
223 13 2 1.1500000000000000e-01 -2.8777625612648361e-01 4.3495314806450196e+00 4.7430572793919374e+00 1 0 0
248 14 1 -1.1500000000000000e-01 -3.7688764129866099e+00 3.4277798660738239e+00 8.6703240301300983e+00 1 0 0
4380 233 4 -1.1500000000000000e-01 2.5550444819571796e+00 1.1018377336347680e+00 4.1464229202304272e+00 1 1 0
244 14 1 -1.1500000000000000e-01 -4.3645912494048602e+00 2.2713012558104309e+00 8.1762856120006369e+00 1 0 0
603 34 2 1.1500000000000000e-01 1.2450480022793950e+00 3.6687215279832386e+00 7.6156707666716139e+00 1 0 0
4396 234 5 -1.1500000000000000e-01 -7.6356309448855342e-01 2.0431317813022387e-01 9.2468928255592537e+00 1 1 0
4394 233 2 1.1500000000000000e-01 1.7403482625089159e+00 1.3490493972699782e+00 6.1157582414700595e+00 1 1 0
579 33 3 0.0000000000000000e+00 3.3671401294799521e+00 5.8412726526969410e+00 3.2394624215335708e+00 1 0 0
252 14 2 1.1500000000000000e-01 -3.3638371323474350e+00 4.1750056454063040e+00 7.9570015688867795e+00 1 0 0
581 33 1 -1.1500000000000000e-01 4.6932559830563250e+00 4.0729339016735446e+00 1.5051822776321542e+00 1 0 0
596 34 5 -1.1500000000000000e-01 -5.3858387153483989e-01 6.3397966707591022e+00 8.8766928551422950e+00 1 0 0
577 33 7 -1.1500000000000000e-01 4.0172001252375020e+00 5.2062070561782869e+00 1.0140881496899623e+00 1 0 0
588 33 3 0.0000000000000000e+00 3.9141789493662453e+00 4.6682279577917472e+00 3.7613127620277584e+00 1 0 0
589 33 4 -1.1500000000000000e-01 4.5307845361708665e+00 3.7146415671033663e+00 2.8618805438254613e+00 1 0 0
593 33 2 1.1500000000000000e-01 4.9864898988053143e+00 2.8357775815809751e+00 3.1318689628080523e+00 1 0 0
753 33 6 0.0000000000000000e+00 3.6320380865477384e+00 5.2014130015930382e+00 3.2942665534108038e+00 1 0 0
4383 233 2 1.1500000000000000e-01 2.9557117446230778e+00 1.3742333094258334e+00 1.4970160490429278e+00 1 1 0
4379 233 3 0.0000000000000000e+00 3.2827528958901957e+00 2.3945054593132675e-01 3.2913810728960686e+00 1 1 0
578 33 5 -1.1500000000000000e-01 3.4876385690122795e+00 6.1289472983323936e+00 1.8317957245489653e+00 1 0 0
226 13 1 -1.1500000000000000e-01 4.2485590848408228e-01 2.6326344273604878e+00 5.2932182653137194e-01 1 0 0
4384 233 2 1.1500000000000000e-01 2.0680771384220176e+00 1.9527314237944007e+00 3.7212073248326609e+00 1 1 0
586 33 1 -1.1500000000000000e-01 3.0199717409571565e+00 5.3659447532772191e+00 5.9417129183634572e+00 1 0 0
587 33 4 -1.1500000000000000e-01 3.8040787858813450e+00 4.4192113738163616e+00 5.1445580616575715e+00 1 0 0
585 33 2 1.1500000000000000e-01 5.1901451633767319e+00 3.3604703163601188e+00 8.1317848456949715e-01 1 0 0
591 33 2 1.1500000000000000e-01 2.9293184698973649e+00 5.0954713359549100e+00 7.0225974816286438e+00 1 0 0
592 33 2 1.1500000000000000e-01 4.1875509617710822e+00 3.5028150672943896e+00 5.5263748802116801e+00 1 0 0
590 33 1 -1.1500000000000000e-01 2.5558671456119102e+00 6.5751102250728222e+00 5.3773511444218158e+00 1 0 0
1765 94 4 -1.1500000000000000e-01 -5.2066400144210601e+00 1.3758748640153327e+01 8.6065877459951849e+00 1 0 0
234 13 2 1.1500000000000000e-01 1.2539894728600458e+00 4.6405547474109863e+00 4.7865505198937930e-01 1 0 0
229 13 4 -1.1500000000000000e-01 -1.2130060185445166e+00 8.5380197648443212e-01 3.3530591391012288e+00 1 0 0
1027 55 2 1.1500000000000000e-01 -8.4038318167340815e+00 8.2733458552961885e+00 1.4185589286931314e+01 1 0 0
985 53 2 1.1500000000000000e-01 -1.6355591438528891e+00 6.4333934428498321e+00 5.4999924782292480e+00 1 0 0
599 34 1 -1.1500000000000000e-01 6.7933469511391564e-01 4.3137055792627743e+00 8.3811243728043934e+00 1 0 0
4401 234 2 1.1500000000000000e-01 -1.0322330599785561e+00 1.2144557880518008e+00 8.9643653292878014e+00 1 1 0
225 13 2 1.1500000000000000e-01 -1.9146752873546580e+00 3.4749228739126370e-01 5.2508802460574620e+00 1 0 0
595 34 7 -1.1500000000000000e-01 2.8682964856274396e-01 5.6167460244764102e+00 8.0706400333635937e+00 1 0 0
981 53 1 -1.1500000000000000e-01 -1.2796536471094517e+00 7.2210771675150580e+00 4.9123546963777089e+00 1 0 0
4378 233 5 -1.1500000000000000e-01 3.4365768174148341e+00 5.1174387646099584e-01 1.9131316350299272e+00 1 1 0
582 33 2 1.1500000000000000e-01 4.0586034744317860e+00 5.3590143269035089e+00 -2.1606438315800225e-02 1 0 0
583 33 2 1.1500000000000000e-01 2.9054910611266838e+00 7.0305239923392451e+00 1.4944914298795759e+00 1 0 0
1342 73 2 1.1500000000000000e-01 4.6672540714404684e+00 1.1758312483149991e+01 -1.6787504933787500e-01 1 0 0
232 13 2 1.1500000000000000e-01 -2.8643414218730801e-01 5.9187553795723202e-01 6.7468940211858808e-01 1 0 0
235 14 7 -1.1500000000000000e-01 -5.4538992728688331e+00 2.3338476401076473e+00 1.3104384267611136e+01 1 0 0
236 14 5 -1.1500000000000000e-01 -4.5834050637377644e+00 3.1443895677951827e+00 1.2332773967980758e+01 1 0 0
597 34 3 0.0000000000000000e+00 -7.1117005782913179e-01 5.8484091618080907e+00 1.0181645042337129e+01 1 0 0
734 14 6 0.0000000000000000e+00 -4.6292836498344814e+00 2.3329219288586693e+00 1.0499345046974152e+01 1 0 0
239 14 1 -1.1500000000000000e-01 -6.0392377531566845e+00 1.2078726522754919e+00 1.2576231995773421e+01 1 0 0
240 14 2 1.1500000000000000e-01 -5.7219976892944882e+00 2.5637069764854732e+00 1.4089042804352587e+01 1 0 0
243 14 2 1.1500000000000000e-01 -6.6753228636046753e+00 5.4838724476146483e-01 1.3160795458990632e+01 1 0 0
237 14 3 0.0000000000000000e+00 -4.3818785596827396e+00 2.8497266579656713e+00 1.0926799853118073e+01 1 0 0
4402 234 2 1.1500000000000000e-01 -1.8201137090825767e+00 1.7624274867028933e+00 1.1009555807574648e+01 1 1 0
1758 94 4 -1.1500000000000000e-01 -3.8320705548558962e+00 1.5951181581456570e+01 9.7519777521384334e+00 1 0 0
242 14 2 1.1500000000000000e-01 -3.1095667365257982e+00 4.5785330361104899e+00 1.0316038459319900e+01 1 0 0
4408 234 1 -1.1500000000000000e-01 -1.7886945690327680e+00 3.9904087977063601e-01 1.2730009841635212e+01 1 1 0
238 14 4 -1.1500000000000000e-01 -3.7124383579254272e+00 3.7375645620660389e+00 1.0011597243461598e+01 1 0 0
246 14 3 0.0000000000000000e+00 -4.9925673129015884e+00 1.7243196778385925e+00 1.0370816377668262e+01 1 0 0
604 34 1 -1.1500000000000000e-01 -8.4062645865612851e-01 5.0356761564817152e+00 1.2826641036611624e+01 1 0 0
605 34 4 -1.1500000000000000e-01 -3.5844779746302802e-01 4.1054048212471281e+00 1.1883381294000046e+01 1 0 0
606 34 3 0.0000000000000000e+00 -2.2189939118831425e-01 4.5838825982544078e+00 1.0547151574799146e+01 1 0 0
607 34 4 -1.1500000000000000e-01 4.1501333715566346e-01 3.7244837051792605e+00 9.6330289553129251e+00 1 0 0
611 34 2 1.1500000000000000e-01 8.7364940499376953e-01 2.7614105338003512e+00 9.8403111197106821e+00 1 0 0
610 34 2 1.1500000000000000e-01 -8.4580749277948009e-02 3.1287630441696956e+00 1.2139041418669665e+01 1 0 0
241 14 2 1.1500000000000000e-01 -4.1570924208752356e+00 4.0429833028146316e+00 1.2705389356998854e+01 1 0 0
1011 54 2 1.1500000000000000e-01 -6.2368437226579276e+00 6.2495948637454957e+00 1.0832359526871446e+01 1 0 0
598 34 4 -1.1500000000000000e-01 -1.1663355586911095e+00 6.7786627707106248e+00 1.1192416564688511e+01 1 0 0
754 34 6 0.0000000000000000e+00 -4.4594719753643819e-01 5.2716588276963412e+00 1.0499157194836291e+01 1 0 0
609 34 2 1.1500000000000000e-01 -1.0186019865459786e+00 4.8036287488913620e+00 1.3831445481385508e+01 1 0 0
4398 234 4 -1.1500000000000000e-01 -1.6075450154227013e+00 7.6204577023925246e-01 1.1403924238249440e+01 1 1 0
4412 234 2 1.1500000000000000e-01 -2.2441957443721261e+00 1.0831679522889481e+00 1.3413815495290024e+01 1 1 0
247 14 4 -1.1500000000000000e-01 -5.7537353304015593e+00 8.9108789948698897e-01 1.1243302775471790e+01 1 0 0
608 34 1 -1.1500000000000000e-01 -1.3688700920750083e+00 6.3168387752307726e+00 1.2514857661795878e+01 1 0 0
612 34 2 1.1500000000000000e-01 -1.9010095274077177e+00 6.9153423089843997e+00 1.3216424924806701e+01 1 0 0
979 53 3 0.0000000000000000e+00 -1.1663945168823586e-01 9.1294502676916203e+00 3.3095097826396387e+00 1 0 0
980 53 4 -1.1500000000000000e-01 5.5844966286704412e-01 1.0006535688696966e+01 2.5147373921525884e+00 1 0 0
984 53 2 1.1500000000000000e-01 9.5957860801871964e-01 1.0921512257298280e+01 2.8782188934756561e+00 1 0 0
1361 74 2 1.1500000000000000e-01 -1.1986880014848000e+00 1.3170947861400712e+01 8.4046039178667229e+00 1 0 0
990 53 1 -1.1500000000000000e-01 6.0641848540021448e-01 9.9105527911675164e+00 1.1548509040971553e+00 1 0 0
2253 93 6 0.0000000000000000e+00 -3.7144903461701673e-01 1.4270142444701408e+01 3.0039186985715274e+00 1 0 0
1493 53 6 0.0000000000000000e+00 -5.5921341788640566e-01 8.6650104654457554e+00 2.9569658535310706e+00 1 0 0
986 53 1 -1.1500000000000000e-01 -7.5361085272305450e-02 8.8425842403249924e+00 5.7783884437631983e-01 1 0 0
1005 54 4 -1.1500000000000000e-01 -4.5195382890570501e+00 7.2071551421655347e+00 8.8985138616732691e+00 1 0 0
994 53 2 1.1500000000000000e-01 1.0768214798245572e+00 1.0647749678811049e+01 5.5305669420638637e-01 1 0 0
594 33 2 1.1500000000000000e-01 2.1222787428109759e+00 7.3049513834548323e+00 6.0658291291529549e+00 1 0 0
1741 93 1 -1.1500000000000000e-01 -1.5894562116177202e+00 1.3461148812103380e+01 4.9254356993373216e+00 1 0 0
977 53 7 -1.1500000000000000e-01 -7.0508937748288236e-01 8.3098991616436351e+00 5.4987474344068330e+00 1 0 0
978 53 5 -1.1500000000000000e-01 -1.4713347189116543e-01 9.2850237534465379e+00 4.7147661293702274e+00 1 0 0
982 53 2 1.1500000000000000e-01 -7.1397012558757478e-01 8.3550505595266973e+00 6.5945902642598293e+00 1 0 0
983 53 2 1.1500000000000000e-01 3.7123642111332034e-01 1.0136767742598652e+01 5.0957894549327438e+00 1 0 0
1012 54 2 1.1500000000000000e-01 -2.3292686151911406e+00 9.4962449315913631e+00 7.7637636141582451e+00 1 0 0
1004 54 1 -1.1500000000000000e-01 -3.7052085623024551e+00 7.8705874628431864e+00 7.9656048057296438e+00 1 0 0
1363 74 2 1.1500000000000000e-01 9.7536917272865065e-01 9.6334551713998486e+00 7.5937070763901806e+00 1 0 0
1745 93 2 1.1500000000000000e-01 -2.1304019425511704e+00 1.2951387482911853e+01 5.7125744251191897e+00 1 0 0
1008 54 1 -1.1500000000000000e-01 -3.1114501399325833e+00 9.0576935091554951e+00 8.3545500721957620e+00 1 0 0
1338 73 5 -1.1500000000000000e-01 3.6542649153164559e+00 1.2282031410751086e+01 1.6484853885368285e+00 1 0 0
1339 73 3 0.0000000000000000e+00 3.4833002720138282e+00 1.1911047267846445e+01 3.0240899209375396e+00 1 0 0
1340 73 4 -1.1500000000000000e-01 2.8428801260932186e+00 1.2799213809592693e+01 3.9167957494584051e+00 1 0 0
1341 73 1 -1.1500000000000000e-01 4.8753425875131269e+00 1.0177098652825206e+01 1.2919240746069334e+00 1 0 0
1337 73 7 -1.1500000000000000e-01 4.4300709468700630e+00 1.1421492139190191e+01 8.2968393769434323e-01 1 0 0
1343 73 2 1.1500000000000000e-01 3.4153267259271631e+00 1.3209292230766664e+01 1.2848003174393310e+00 1 0 0
988 53 3 0.0000000000000000e+00 -7.0622745150267119e-01 8.0074588308142260e+00 2.7372967839891165e+00 1 0 0
1348 73 3 0.0000000000000000e+00 3.9495950694786699e+00 1.0671565421135792e+01 3.4942724854226799e+00 1 0 0
1349 73 4 -1.1500000000000000e-01 4.6474510894055419e+00 9.8121876163529951e+00 2.5941227986610675e+00 1 0 0
1353 73 2 1.1500000000000000e-01 4.9590766881277322e+00 8.8180970159076200e+00 2.9506339090151705e+00 1 0 0
1513 73 6 0.0000000000000000e+00 3.7057973466102938e+00 1.1280805382949236e+01 3.2377351925013702e+00 1 0 0
1356 74 5 -1.1500000000000000e-01 -6.5002988352952240e-01 1.2334576354921023e+01 8.8465223800467374e+00 1 0 0
1354 73 2 1.1500000000000000e-01 2.2166856499592100e+00 1.3107160421428228e+01 6.0044035854143010e+00 1 0 0
1346 73 1 -1.1500000000000000e-01 3.0668277208478840e+00 1.1155250412783355e+01 5.6883065060753140e+00 1 0 0
1347 73 4 -1.1500000000000000e-01 3.6197541311226202e+00 1.0239073371894760e+01 4.7742557977467364e+00 1 0 0
1350 73 1 -1.1500000000000000e-01 2.6184715566021346e+00 1.2440927218651842e+01 5.2911864710115557e+00 1 0 0
1351 73 2 1.1500000000000000e-01 2.9407224728262129e+00 1.0793188479743533e+01 6.6890858726344558e+00 1 0 0
1352 73 2 1.1500000000000000e-01 3.9536126679752757e+00 9.3012937784168201e+00 5.1241055374608822e+00 1 0 0
1345 73 2 1.1500000000000000e-01 5.3228856912788665e+00 9.4521523906539571e+00 5.7843526863053363e-01 1 0 0
1355 74 7 -1.1500000000000000e-01 2.3092452201720626e-02 1.1544321309487797e+01 7.9704070637362427e+00 1 0 0
1359 74 1 -1.1500000000000000e-01 5.3394169631282384e-01 1.0264898763392740e+01 8.3855958001088968e+00 1 0 0
1360 74 2 1.1500000000000000e-01 1.2906017445415241e-01 1.1717813146619148e+01 6.9600643971706466e+00 1 0 0
1747 93 4 -1.1500000000000000e-01 -6.1868153096796363e-01 1.3193440797870879e+01 1.3078674544850943e+00 1 0 0
1748 93 3 0.0000000000000000e+00 -6.9284701207897625e-01 1.3751969241952574e+01 2.6627393146826872e+00 1 0 0
601 34 2 1.1500000000000000e-01 -9.0885071561518771e-01 7.2949143186856027e+00 8.5551576444720325e+00 1 0 0
1762 94 2 1.1500000000000000e-01 -3.2319834495989084e+00 1.6622525751895690e+01 1.0305896514889797e+01 1 0 0
1746 93 1 -1.1500000000000000e-01 2.1867068319613281e-01 1.3867051164367270e+01 3.8598037819805642e-01 1 0 0
584 33 2 1.1500000000000000e-01 2.2591912518873536e+00 7.7243388307871523e+00 3.6277029484874848e+00 1 0 0
993 53 2 1.1500000000000000e-01 -1.7217880477495164e+00 6.1109940446100106e+00 3.0975708876091863e+00 1 0 0
1749 93 4 -1.1500000000000000e-01 -1.4818249955667691e+00 1.3035396897734406e+01 3.5836819119541143e+00 1 0 0
251 14 2 1.1500000000000000e-01 -6.2122420981501483e+00 1.1756384529390143e-02 1.0716610749377470e+01 1 0 0
1344 73 2 1.1500000000000000e-01 2.5596354476326391e+00 1.3849681655673310e+01 3.6079705706147536e+00 1 0 0
1009 54 2 1.1500000000000000e-01 -3.4083235798794687e+00 7.4751106393132236e+00 7.0250397908171607e+00 1 0 0
987 53 4 -1.1500000000000000e-01 -8.0672004155937260e-01 7.9699197297163016e+00 1.3373497083361221e+00 1 0 0
995 54 7 -1.1500000000000000e-01 -5.2786257776974441e+00 8.8520267267908288e+00 1.2741384004784567e+01 1 0 0
996 54 5 -1.1500000000000000e-01 -4.5228221458120093e+00 9.5673774044315252e+00 1.1751660310722787e+01 1 0 0
997 54 3 0.0000000000000000e+00 -4.1698000742488253e+00 8.9493195196608184e+00 1.0517778222545356e+01 1 0 0
1001 54 2 1.1500000000000000e-01 -4.0375035118123730e+00 1.0544577165963673e+01 1.1987289604052176e+01 1 0 0
1371 74 2 1.1500000000000000e-01 1.1072836244273976e+00 9.2031063012793499e+00 1.0105194301309458e+01 1 0 0
1357 74 3 0.0000000000000000e+00 -6.5721437024092921e-01 1.2108199155988057e+01 1.0204787451966503e+01 1 0 0
1767 94 4 -1.1500000000000000e-01 -6.0157776297778121e+00 1.3055407327433770e+01 1.0869667248950833e+01 1 0 0
998 54 4 -1.1500000000000000e-01 -3.2460783623555316e+00 9.6029939422772834e+00 9.6245179788656277e+00 1 0 0
1494 54 6 0.0000000000000000e+00 -4.5613340017327975e+00 8.4254872201454383e+00 1.0304275105887648e+01 1 0 0
1362 74 2 1.1500000000000000e-01 -1.8718399752033958e+00 1.3940098718976111e+01 1.0909784918836207e+01 1 0 0
1003 54 2 1.1500000000000000e-01 -6.4412066641008572e+00 7.1209300948220573e+00 1.3024896500901566e+01 1 0 0
999 54 1 -1.1500000000000000e-01 -5.8425520736961412e+00 7.6422481565438982e+00 1.2348090477383348e+01 1 0 0
1372 74 2 1.1500000000000000e-01 -1.7763376674520206e+00 1.3221555879012120e+01 1.3247355211202413e+01 1 0 0
1514 74 6 0.0000000000000000e+00 -2.6330067220590259e-01 1.1646028830593357e+01 1.0521880582142192e+01 1 0 0
602 34 2 1.1500000000000000e-01 -1.4483881837949868e+00 7.7181474979452833e+00 1.0860171042008062e+01 1 0 0
1358 74 4 -1.1500000000000000e-01 -1.3035074069007084e+00 1.3049422487756406e+01 1.1127174143452082e+01 1 0 0
1364 74 1 -1.1500000000000000e-01 -6.7463776237448236e-01 1.1458643199521529e+01 1.2929333122573476e+01 1 0 0
1365 74 4 -1.1500000000000000e-01 -1.1366363149945968e-01 1.0580348817629492e+01 1.2020679950156662e+01 1 0 0
1366 74 3 0.0000000000000000e+00 -5.3124709159154904e-02 1.0961532481344179e+01 1.0671306433408558e+01 1 0 0
1759 94 1 -1.1500000000000000e-01 -5.9586291398533966e+00 1.3242533131110161e+01 1.2296732963321746e+01 1 0 0
1368 74 1 -1.1500000000000000e-01 -1.2606455264522696e+00 1.2642934776723902e+01 1.2472438294047238e+01 1 0 0
1369 74 2 1.1500000000000000e-01 -6.0189292386347493e-01 1.1227447142052458e+01 1.4022625202432428e+01 1 0 0
1370 74 2 1.1500000000000000e-01 3.9186997747101149e-01 9.7199237109521359e+00 1.2325970283447560e+01 1 0 0
1378 75 2 1.1500000000000000e-01 -4.1532272772021948e+00 1.1530253099094502e+01 1.3928687225980340e+01 1 0 0
1000 54 2 1.1500000000000000e-01 -5.4311666207333609e+00 9.3090766767311699e+00 1.3778650963431177e+01 1 0 0
1766 94 3 0.0000000000000000e+00 -5.3204084763425019e+00 1.4002031407595524e+01 1.0016796830327056e+01 1 0 0
1006 54 3 0.0000000000000000e+00 -4.8073509753705732e+00 7.7741968201502827e+00 1.0172794008082885e+01 1 0 0
1763 94 2 1.1500000000000000e-01 -6.4708664054656140e+00 1.2544372401727943e+01 1.2974519524330550e+01 1 0 0
1367 74 4 -1.1500000000000000e-01 5.6497206178293169e-01 1.0068517673717567e+01 9.7658522376780574e+00 1 0 0
1002 54 2 1.1500000000000000e-01 -2.7388135780094127e+00 1.0496622859170326e+01 9.9136261932329255e+00 1 0 0
1755 94 7 -1.1500000000000000e-01 -5.2689586472850802e+00 1.4297047876081532e+01 1.2880194722727806e+01 1 0 0
1007 54 4 -1.1500000000000000e-01 -5.7004634037365189e+00 7.1547802789930124e+00 1.1068348205697287e+01 1 0 0
1737 93 7 -1.1500000000000000e-01 -8.5385863172481224e-01 1.4596403769795783e+01 5.2756847733095746e+00 1 0 0
1740 93 4 -1.1500000000000000e-01 6.8981570317934637e-01 1.5606686627413072e+01 2.0312038279104119e+00 1 0 0
1744 93 2 1.1500000000000000e-01 1.2694275163654833e+00 1.6552513956201437e+01 2.3346199958459435e+00 1 0 0
1768 94 1 -1.1500000000000000e-01 -3.8490909610130908e+00 1.5727439043726253e+01 8.3626678667536929e+00 1 0 0
1750 93 1 -1.1500000000000000e-01 7.3410724568045160e-01 1.5185956398666059e+01 6.4690194658316491e-01 1 0 0
2112 113 2 1.1500000000000000e-01 4.1083202214610006e+00 1.5589475858548964e+01 5.6298391431088151e+00 1 0 0
2119 114 1 -1.1500000000000000e-01 6.7259004128154221e-01 1.5794089649997519e+01 8.1864706007057837e+00 1 0 0
2131 114 2 1.1500000000000000e-01 9.9074672776709516e-01 1.4550508328088036e+01 9.8942367639875961e+00 1 0 0
1743 93 2 1.1500000000000000e-01 3.2592560985491925e-01 1.6345106510415789e+01 4.5957905830128416e+00 1 0 0
2127 114 4 -1.1500000000000000e-01 6.2522323186441753e-01 1.5495443767767778e+01 9.5531496882070837e+00 1 0 0
1772 94 2 1.1500000000000000e-01 -3.2550654988797518e+00 1.6475414063355913e+01 7.7587107040320689e+00 1 0 0
1739 93 3 0.0000000000000000e+00 -5.1783482021262373e-02 1.4951644671485045e+01 3.0054194588987824e+00 1 0 0
1754 93 2 1.1500000000000000e-01 1.2210475683924462e+00 1.5827510141241925e+01 -1.4508127357346373e-01 1 0 0
2097 113 7 -1.1500000000000000e-01 4.2964512050302801e+00 1.7217693024026264e+01 1.0495365537514230e+00 1 0 0
1756 94 5 -1.1500000000000000e-01 -4.6313001612243063e+00 1.5141286173871933e+01 1.2006068083787916e+01 1 0 0
2101 113 1 -1.1500000000000000e-01 4.7842838997343211e+00 1.6020109452640192e+01 1.6661509838610806e+00 1 0 0
2113 113 2 1.1500000000000000e-01 4.8519518144615583e+00 1.4918455405044423e+01 3.5012552248161364e+00 1 0 0
1738 93 5 -1.1500000000000000e-01 -1.2733798377769334e-01 1.5360995536426634e+01 4.3223489853237442e+00 1 0 0
2108 113 3 0.0000000000000000e+00 3.9108303894014718e+00 1.6840119663463099e+01 3.8269822729058927e+00 1 0 0
2109 113 4 -1.1500000000000000e-01 4.5424435617457988e+00 1.5866771889905324e+01 3.0347869704290527e+00 1 0 0
2273 113 6 0.0000000000000000e+00 3.6407172733902016e+00 1.7339459018892846e+01 3.3855823168540695e+00 1 0 0
2106 113 1 -1.1500000000000000e-01 2.8338693693591872e+00 1.7365946796856509e+01 5.9085143565592579e+00 1 0 0
2107 113 4 -1.1500000000000000e-01 3.5877822788908191e+00 1.6490791578080596e+01 5.1515476771437534e+00 1 0 0
2111 113 2 1.1500000000000000e-01 2.6100602630186991e+00 1.7132099374764159e+01 6.9148197106995655e+00 1 0 0
2115 114 7 -1.1500000000000000e-01 9.7564253578058313e-02 1.7018146101854708e+01 7.7411005245639934e+00 1 0 0
2102 113 2 1.1500000000000000e-01 4.4544602622483920e+00 1.7221600997441168e+01 -6.8021495509940799e-02 1 0 0
2120 114 2 1.1500000000000000e-01 -1.5644292032705120e-02 1.7282435826678466e+01 6.6856408854719813e+00 1 0 0
2123 114 2 1.1500000000000000e-01 1.0533853167284803e+00 1.5111725680818296e+01 7.4496444682360776e+00 1 0 0
1760 94 2 1.1500000000000000e-01 -5.2797139276139244e+00 1.4385831935056304e+01 1.4008709138250371e+01 1 0 0
2105 113 2 1.1500000000000000e-01 5.1633812241157342e+00 1.5138626437360529e+01 1.1088350527851532e+00 1 0 0
1742 93 2 1.1500000000000000e-01 -8.3464687392935177e-01 1.4899770435483418e+01 6.3047107648444234e+00 1 0 0
1764 94 1 -1.1500000000000000e-01 -4.4536020001963648e+00 1.4584301706737900e+01 7.7878986062418214e+00 1 0 0
2117 114 3 0.0000000000000000e+00 -4.4460525135972517e-01 1.7650835260347751e+01 9.9637811201690614e+00 1 0 0
1761 94 2 1.1500000000000000e-01 -4.2086912527951075e+00 1.6046695907555343e+01 1.2418043024196386e+01 1 0 0
2274 114 6 0.0000000000000000e+00 -2.8238510421398377e-01 1.7028773257845916e+01 1.0313516822374257e+01 1 0 0
2254 94 6 0.0000000000000000e+00 -5.0396651868731022e+00 1.4611664860181676e+01 1.0281982910031882e+01 1 0 0
2130 114 2 1.1500000000000000e-01 7.1779000328548825e-01 1.5424009445194761e+01 1.2158897447386373e+01 1 0 0
2124 114 1 -1.1500000000000000e-01 -4.5699775794900788e-01 1.7159610506169315e+01 1.2792836090870805e+01 1 0 0
2125 114 4 -1.1500000000000000e-01 1.6432017661384624e-01 1.6270847058773317e+01 1.1822874565741676e+01 1 0 0
2126 114 3 0.0000000000000000e+00 1.2843292595668121e-01 1.6472359992926194e+01 1.0455342060173459e+01 1 0 0
1064 57 2 1.1500000000000000e-01 7.1977673905376189e+00 6.3792283375749914e+00 9.3327081485953478e-01 1 0 0
1757 94 3 0.0000000000000000e+00 -4.6080859891422667e+00 1.5070875557100536e+01 1.0585374072445040e+01 1 0 0
2138 115 2 1.1500000000000000e-01 -3.7699393559046355e+00 1.7177046675772512e+01 1.4231588788883780e+01 1 0 0
1010 54 2 1.1500000000000000e-01 -4.8996801382491313e+00 6.1851944501645528e+00 8.7258727173680075e+00 1 0 0
2129 114 2 1.1500000000000000e-01 -3.3828459310047521e-01 1.6963253974798175e+01 1.3831739102856274e+01 1 0 0
1753 93 2 1.1500000000000000e-01 -2.0413431320400259e+00 1.2177609327641619e+01 3.2619155117249887e+00 1 0 0
2513 133 2 1.1500000000000000e-01 -1.6298694368907971e+00 1.7877291284778671e+01 3.0458011359808825e+00 1 0 0
4416 235 4 -1.1500000000000000e-01 -5.8560036353571165e+00 8.6374675033105064e-01 1.9047717708879379e+01 1 1 0
4420 235 2 1.1500000000000000e-01 -6.1931039514975375e+00 1.8293087985023497e+00 1.8743206429815423e+01 1 1 0
255 15 3 0.0000000000000000e+00 -8.7511066923303424e+00 3.1147086551264542e+00 1.8140369682765598e+01 1 0 0
256 15 4 -1.1500000000000000e-01 -8.0254978753403083e+00 3.8901613021203501e+00 1.7198991225093177e+01 1 0 0
260 15 2 1.1500000000000000e-01 -7.6044775190774825e+00 4.8116244399909815e+00 1.7419382711111520e+01 1 0 0
269 15 2 1.1500000000000000e-01 -1.0530679936896760e+01 1.6813464355913399e-01 1.8433741010667870e+01 1 0 0
4414 235 5 -1.1500000000000000e-01 -4.8859943662191361e+00 3.1118045588062188e-01 1.6858391597380727e+01 1 1 0
264 15 3 0.0000000000000000e+00 -9.3132087993798187e+00 1.8644792892708988e+00 1.7831329306592846e+01 1 0 0
262 15 1 -1.1500000000000000e-01 -8.4215238218674209e+00 2.0992928704775564e+00 1.5598166856726991e+01 1 0 0
266 15 1 -1.1500000000000000e-01 -7.9355999283109320e+00 3.3890483035504420e+00 1.5937757333016076e+01 1 0 0
263 15 4 -1.1500000000000000e-01 -9.1515541277273567e+00 1.3883105650301764e+00 1.6550582195210939e+01 1 0 0
735 15 6 0.0000000000000000e+00 -8.9176098733550990e+00 2.4056723858542890e+00 1.8043146269506998e+01 1 0 0
265 15 4 -1.1500000000000000e-01 -1.0065437642023159e+01 1.1203459964134823e+00 1.8719929868818102e+01 1 0 0
2256 96 6 0.0000000000000000e+00 -1.3118066864180140e+01 1.4321084774600505e+01 2.5053631530205628e+01 1 0 0
613 35 7 -1.1500000000000000e-01 -4.4896847820648258e+00 5.6903695074111349e+00 1.6120430994276457e+01 1 0 0
618 35 2 1.1500000000000000e-01 -4.3898324786616127e+00 6.1960543583530230e+00 1.5135591662776768e+01 1 0 0
615 35 3 0.0000000000000000e+00 -5.2750748129700469e+00 5.7706638036076372e+00 1.8400694027627701e+01 1 0 0
617 35 1 -1.1500000000000000e-01 -3.8742450996578679e+00 4.4262017239702791e+00 1.6388447114149884e+01 1 0 0
621 35 2 1.1500000000000000e-01 -3.3104165092476983e+00 3.9384288281018427e+00 1.5559657434270923e+01 1 0 0
624 35 3 0.0000000000000000e+00 -4.7533340359029568e+00 4.4922068745354782e+00 1.8691739979631915e+01 1 0 0
625 35 4 -1.1500000000000000e-01 -4.0272838486547213e+00 3.7975681193518169e+00 1.7644352462958832e+01 1 0 0
629 35 2 1.1500000000000000e-01 -3.4848831118263579e+00 2.8845472750023919e+00 1.7820784027208827e+01 1 0 0
755 35 6 0.0000000000000000e+00 -4.9404232305945790e+00 5.1129074898139546e+00 1.8431807305051574e+01 1 0 0
270 15 2 1.1500000000000000e-01 -7.3786405458008293e+00 3.9880284815426408e+00 1.5259397616294985e+01 1 0 0
614 35 5 -1.1500000000000000e-01 -5.1975538688175771e+00 6.3268278628309318e+00 1.7114262616031990e+01 1 0 0
4419 235 2 1.1500000000000000e-01 -5.2545889764338218e+00 1.2482739608193005e+00 1.6440030156195355e+01 1 1 0
1025 55 4 -1.1500000000000000e-01 -9.8187112507007352e+00 6.7486524898348765e+00 1.8333074543905163e+01 1 0 0
616 35 4 -1.1500000000000000e-01 -5.9505548313513197e+00 6.5268012445375856e+00 1.9385058322041711e+01 1 0 0
1029 55 2 1.1500000000000000e-01 -1.0324003679148293e+01 5.9041943278578790e+00 1.7865381488449170e+01 1 0 0
1047 56 2 1.1500000000000000e-01 -1.4701862382858444e+01 6.0715415609734498e+00 2.5951796659545099e+01 1 0 0
254 15 5 -1.1500000000000000e-01 -8.9695727504251934e+00 3.5742833675839050e+00 1.9509968060392964e+01 1 0 0
280 16 1 -1.1500000000000000e-01 -1.2794143766662240e+01 2.4198788603335437e+00 2.3106072192669409e+01 1 0 0
991 53 2 1.1500000000000000e-01 -1.6991275769079095e+01 8.6472539692852610e+00 2.9468657482292556e+01 1 0 -1
258 15 2 1.1500000000000000e-01 -9.8640662978119096e+00 3.2013048524902725e+00 2.1469326251195767e+01 1 0 0
634 36 4 -1.1500000000000000e-01 -1.0202008709768492e+01 6.3874766695308818e+00 2.6152490065245878e+01 1 0 0
4433 236 3 0.0000000000000000e+00 -9.5650616301494082e+00 6.1213569100562942e-02 2.5630563888438267e+01 1 1 0
257 15 1 -1.1500000000000000e-01 -1.0304173251573179e+01 1.6005238971086408e+00 2.0037436097870831e+01 1 0 0
284 16 1 -1.1500000000000000e-01 -1.2263051577457407e+01 3.6408155512444771e+00 2.3593062969662103e+01 1 0 0
279 16 2 1.1500000000000000e-01 -1.4661458922258271e+01 5.9220471782121920e-01 2.8350209247987316e+01 1 0 0
1860 99 2 1.1500000000000000e-01 -1.1451007248302698e+00 1.2735038930734817e+01 1.5837640252307335e+01 1 0 0
288 16 2 1.1500000000000000e-01 -1.1759221630575851e+01 4.3996675997653618e+00 2.2969108089626499e+01 1 0 0
271 16 7 -1.1500000000000000e-01 -1.3743554209081186e+01 2.5901887731538222e+00 2.8103895748718692e+01 1 0 0
272 16 5 -1.1500000000000000e-01 -1.3198242909986597e+01 3.4117368294955335e+00 2.7145100840632924e+01 1 0 0
273 16 3 0.0000000000000000e+00 -1.2969021164311588e+01 3.0441326547802965e+00 2.5839456153292961e+01 1 0 0