LAMMPS (15 May 2015)
Reading data file ...
  triclinic box = (-0.107635 -0.0404339 -0.357111) to (41.3876 35.9384 29.5551) with tilt (-0.0672341 -17.0362 -0.0417078)
  5 by 2 by 2 MPI processor grid
  reading atoms ...
  4560 atoms
  reading velocities ...
  4560 velocities
  scanning bonds ...
  3 = max bonds/atom
  scanning angles ...
  3 = max angles/atom
  scanning dihedrals ...
  8 = max dihedrals/atom
  scanning impropers ...
  1 = max impropers/atom
  reading bonds ...
  5040 bonds
  reading angles ...
  7200 angles
  reading dihedrals ...
  10560 dihedrals
  reading impropers ...
  2400 impropers
Finding 1-2 1-3 1-4 neighbors ...
 Special bond factors lj:   0          0          0         
 Special bond factors coul: 0          0          0         
  4 = max # of 1-2 neighbors
  8 = max # of 1-3 neighbors
  20 = max # of 1-4 neighbors
  16 = max # of special neighbors
4560 atoms in group all
720 atoms in group C
480 atoms in group S
1920 atoms in group H
720 atoms in group Si
240 atoms in group Na
240 atoms in group Ba
240 atoms in group O
4560 atoms in group naphthalene
1200 atoms in group fixed
960 atoms in group CO
Setting atom values ...
  720 settings made for charge
Setting atom values ...
  720 settings made for charge
Setting atom values ...
  1920 settings made for charge
Setting atom values ...
  480 settings made for charge
Setting atom values ...
  240 settings made for charge
Setting atom values ...
  240 settings made for charge
Setting atom values ...
  240 settings made for charge
Finding 1-2 1-3 1-4 neighbors ...
 Special bond factors lj:   0          0          0.5       
 Special bond factors coul: 0          0          0.5       
  4 = max # of 1-2 neighbors
  8 = max # of 1-3 neighbors
  20 = max # of 1-4 neighbors
  16 = max # of special neighbors
PPPM initialization ...
  G vector (1/distance) = 0.253736
  grid = 20 18 24
  stencil order = 5
  estimated absolute RMS force accuracy = 0.00131269
  estimated relative force accuracy = 3.95312e-06
  using double precision FFTs
  3d grid and FFT values/proc = 3344 720
Neighbor list info ...
  6 neighbor list requests
  update every 1 steps, delay 0 steps, check yes
  master list distance cutoff = 12
Setting up run ...
Memory usage per processor = 14.3555 Mbytes
Step Temp Density PotEng E_vdwl E_tail E_coul E_long Press Volume Xy Xz Yz E_mol E_bond E_angle E_dihed 14[1] 14[2] 14[3] msd[4] msd2[4] msd3[4] msd4[4] naphthal Cella Cellb Cellc CellAlpha CellBeta CellGamma 27[1] 27[2] 27[3] 
       0          298    1.2509986    3009.3254   -251.64119   -45.377495    2133.4636   -2371.3301    -12396.37    44657.537 -0.067234084   -17.036218 -0.041707817     3498.833    1521.0094     935.4334    889.67826    28.379601    18.846571    14.337846 2.3535127e-29 2.7422013e-29 2.2534249e-29 2.2900766e-29          298     41.49527    35.978931    34.423473    90.016431    119.66323    90.107069    28.379761    18.846182    14.337739 
   10000     297.7611    1.2509986    3151.2303   -213.41533   -45.377495    2134.9722   -2371.8639   -8210.1813    44657.537 -0.067234084   -17.036218 -0.041707817    3601.5373    1491.0155    1027.3048    924.62929    28.379305    18.845992    14.337622 0.00031134211 0.00031107802 0.00031758797 0.00031744921     297.7611     41.49527    35.978931    34.423473    90.016431    119.66323    90.107069    28.379945    18.845803    14.337445 
   20000     300.1471    1.2509986    2987.0272   -219.00424   -45.377495    2134.7243   -2371.7616    -7508.784    44657.537 -0.067234084   -17.036218 -0.041707817    3443.0687     1469.354    972.54491    853.05958    28.380424    18.844965    14.336654 0.00032559603 0.00032538267 0.00033539809 0.00033510997     300.1471     41.49527    35.978931    34.423473    90.016431    119.66323    90.107069    28.379357    18.846082    14.337539 
   30000    300.01085    1.2509986    3111.0009   -216.53401   -45.377495    2134.3498   -2371.7894   -6674.5727    44657.537 -0.067234084   -17.036218 -0.041707817    3564.9745    1502.7265    1001.4434    899.64828    28.376731    18.846021    14.337638 0.00031636982 0.00031620672 0.00031722878 0.00031711721    300.01085     41.49527    35.978931    34.423473    90.016431    119.66323    90.107069    28.379705    18.846204     14.33734 
   40000    301.35424    1.2509986    3046.6186   -217.64175   -45.377495    2140.3379   -2371.3364   -6940.5064    44657.537 -0.067234084   -17.036218 -0.041707817    3495.2589    1485.8069    932.20114    922.08398    28.381451    18.846254    14.338193 0.00032394942 0.0003235802 0.00032503193 0.00032450412    301.35424     41.49527    35.978931    34.423473    90.016431    119.66323    90.107069    28.379416    18.846661    14.337594 
   50000    301.42762    1.2509986    3091.4293   -215.17306   -45.377495    2130.6842   -2371.8668   -7027.2047    44657.537 -0.067234084   -17.036218 -0.041707817    3547.7849    1530.1996    932.80033    921.71849    28.379773    18.846136    14.338106 0.00033682905 0.00033643134 0.00034393806 0.0003434642    301.42762     41.49527    35.978931    34.423473    90.016431    119.66323    90.107069    28.379206    18.846028    14.337997 
   60000    296.28403    1.2509986    2998.6423   -219.13676   -45.377495    2132.7241   -2371.8474   -7532.8333    44657.537 -0.067234084   -17.036218 -0.041707817    3456.9024    1476.7762    940.49697    885.88008    28.378133     18.84708    14.337752 0.00033659411 0.00033626741 0.00033488198 0.00033459576    296.28403     41.49527    35.978931    34.423473    90.016431    119.66323    90.107069    28.380193    18.846372    14.338061 
   70000    297.11667    1.2509986    3079.0151   -216.05392   -45.377495    2137.2996   -2371.7881   -7598.8799    44657.537 -0.067234084   -17.036218 -0.041707817    3529.5575    1528.7203    948.64037    892.11296    28.381254    18.845856    14.337835 0.00033370672 0.00033364428 0.0003368021 0.00033642309    297.11667     41.49527    35.978931    34.423473    90.016431    119.66323    90.107069    28.379865    18.845976    14.337644 
   80000    301.07458    1.2509986    3047.6583   -220.51276   -45.377495    2136.2507   -2371.7058   -7450.2906    44657.537 -0.067234084   -17.036218 -0.041707817    3503.6261     1509.807    959.72989    881.95302    28.381666    18.845545    14.337734 0.0003373734 0.00033715106 0.0003493504 0.00034920351    301.07458     41.49527    35.978931    34.423473    90.016431    119.66323    90.107069    28.379391    18.846091    14.338016 
   90000    301.51703    1.2509986    3107.7059   -212.44948   -45.377495    2138.5146   -2371.0893   -6910.6586    44657.537 -0.067234084   -17.036218 -0.041707817      3552.73    1503.1029    994.20737    902.85028    28.377664    18.845525    14.337411 0.00033735172 0.00033707935 0.00033536839 0.00033489619    301.51703     41.49527    35.978931    34.423473    90.016431    119.66323    90.107069    28.379387    18.846108    14.337382 
  100000    301.69474    1.2509986    3012.3627   -215.28179   -45.377495    2137.5079   -2371.4774   -6854.8455    44657.537 -0.067234084   -17.036218 -0.041707817    3461.6141    1479.5695    935.79818    893.59949    28.379975    18.845267      14.3378 0.0003443054 0.0003441047 0.00034854238 0.00034820184    301.69474     41.49527    35.978931    34.423473    90.016431    119.66323    90.107069    28.379886    18.845771    14.337612 
  110000    298.00712    1.2509986    2982.6224   -223.54468   -45.377495    2133.3179   -2371.6193   -6978.5569    44657.537 -0.067234084   -17.036218 -0.041707817    3444.4685    1468.7025    937.81366    883.56865    28.377128    18.846581    14.336379 0.00035142214 0.00035119859 0.00035100125 0.00035064987    298.00712     41.49527    35.978931    34.423473    90.016431    119.66323    90.107069    28.379896    18.845733    14.337801 
  120000    297.93557    1.2509986    3042.7678   -216.46984   -45.377495    2139.9711   -2371.5372   -6369.3368    44657.537 -0.067234084   -17.036218 -0.041707817    3490.8038    1501.0765    980.07213    862.82695    28.381286    18.845123    14.338253 0.00033045038 0.00033042483 0.00033441813 0.00033437484    297.93557     41.49527    35.978931    34.423473    90.016431    119.66323    90.107069    28.379855     18.84631    14.337723 
  130000    299.15788    1.2509986    3075.2971   -213.12348   -45.377495    2138.0136   -2372.0034   -5689.2339    44657.537 -0.067234084   -17.036218 -0.041707817    3522.4104    1490.1375    996.76593    883.16739    28.379724    18.843899    14.336935 0.0003421168 0.00034152815 0.00034301558 0.00034232643    299.15788     41.49527    35.978931    34.423473    90.016431    119.66323    90.107069    28.379952    18.846177    14.336996 
  140000    295.93658    1.2509986    3046.2033   -216.17456   -45.377495    2134.1111   -2371.9069   -7152.7552    44657.537 -0.067234084   -17.036218 -0.041707817    3500.1737    1472.1442    983.67789    891.22269    28.378699     18.84642    14.337652 0.00034069767 0.00034046563 0.00034063446 0.00034023697    295.93658     41.49527    35.978931    34.423473    90.016431    119.66323    90.107069    28.379704    18.846555    14.338038 
  150000    298.05342    1.2509986    3043.2427   -216.41637   -45.377495    2133.5432   -2372.2215   -5769.7167    44657.537 -0.067234084   -17.036218 -0.041707817    3498.3374     1530.351    944.78667    870.24533    28.378521     18.84551    14.336382 0.00034805716 0.00034760831 0.00034925064 0.0003487754    298.05342     41.49527    35.978931    34.423473    90.016431    119.66323    90.107069    28.380304      18.8458    14.337651 
  160000    294.15618    1.2509986    3083.9517   -219.94362   -45.377495     2131.596   -2371.9527   -7432.0023    44657.537 -0.067234084   -17.036218 -0.041707817     3544.252    1479.4067    1000.1086    912.74537    28.380164    18.845164     14.33716 0.00035060187 0.0003505241 0.00034732352 0.00034726222    294.15618     41.49527    35.978931    34.423473    90.016431    119.66323    90.107069    28.379947    18.846344     14.33787 
  170000    295.71522    1.2509986    3051.2445   -219.02561   -45.377495    2139.5895   -2371.2787   -7036.1433    44657.537 -0.067234084   -17.036218 -0.041707817    3501.9594    1489.1384    965.55069    891.29793    28.380238    18.845017    14.337589 0.00035182372 0.00035167541 0.00035040676 0.00035009605    295.71522     41.49527    35.978931    34.423473    90.016431    119.66323    90.107069    28.379516    18.845924    14.337592 
  180000    301.10945    1.2509986     3109.444   -219.71049   -45.377495     2137.362   -2371.7377   -7617.0627    44657.537 -0.067234084   -17.036218 -0.041707817    3563.5302    1525.5685    975.77217    905.88291    28.377891    18.844953     14.33704 0.00033912819 0.00033909815 0.00033682573 0.00033676206    301.10945     41.49527    35.978931    34.423473    90.016431    119.66323    90.107069     28.37993    18.846153    14.337764 
  190000    301.96398    1.2509986    3061.6933   -220.41073   -45.377495    2131.4896   -2371.7083   -8059.8954    44657.537 -0.067234084   -17.036218 -0.041707817    3522.3227    1502.7463    981.66098    887.39041    28.379089    18.845771     14.33739 0.00034491644 0.00034466597 0.00034256356 0.00034208657    301.96398     41.49527    35.978931    34.423473    90.016431    119.66323    90.107069    28.379931    18.846492    14.338094 
  200000    301.22041    1.2509986    2994.6103    -218.1966   -45.377495    2133.4016   -2371.8511   -6887.6203    44657.537 -0.067234084   -17.036218 -0.041707817    3451.2565    1455.6661    999.42285    851.23289    28.381428    18.845772    14.337518 0.00034352818 0.00034337827 0.00034992996 0.0003496499    301.22041     41.49527    35.978931    34.423473    90.016431    119.66323    90.107069    28.380109    18.846033    14.337661 
Loop time of 522.623 on 20 procs for 200000 steps with 4560 atoms

Pair  time (%) = 325.68 (62.3165)
Bond  time (%) = 34.3861 (6.57953)
Kspce time (%) = 117.566 (22.4954)
Neigh time (%) = 6.29144 (1.20382)
Comm  time (%) = 23.55 (4.50611)
Outpt time (%) = 0.0625405 (0.0119667)
Other time (%) = 15.0865 (2.88668)

Nlocal:    228 ave 238 max 223 min
Histogram: 4 1 5 1 5 2 1 0 0 1
Nghost:    5778.15 ave 5833 max 5742 min
Histogram: 2 3 5 2 3 1 0 1 1 2
Neighs:    84327.2 ave 88436 max 81305 min
Histogram: 1 3 2 4 3 3 2 0 1 1

Total # of neighbors = 1686545
Ave neighs/atom = 369.856
Ave special neighs/atom = 10.6316
Neighbor list builds = 1321
Dangerous builds = 0
System init for write_data ...
PPPM initialization ...
  G vector (1/distance) = 0.253736
  grid = 20 18 24
  stencil order = 5
  estimated absolute RMS force accuracy = 0.00131269
  estimated relative force accuracy = 3.95312e-06
  using double precision FFTs
  3d grid and FFT values/proc = 3344 720
