LAMMPS data file via write_data, version 15 May 2015, timestep = 1009000

2593 atoms
6 atom types
1728 bonds
4 bond types
864 angles
3 angle types
0 dihedrals
3 dihedral types
0 impropers
1 improper types

-1.4914578725248287e+01 1.4914578725248287e+01 xlo xhi
-1.4914578725248287e+01 1.4914578725248287e+01 ylo yhi
-1.4914578725248287e+01 1.4914578725248287e+01 zlo zhi

Masses

1 15.9994
2 1.00794
3 12.0107
4 1.00794
5 12.0107
6 12.0107

Bond Coeffs # harmonic

1 1000 1
2 469 1.4
3 367 1.08
4 469 0.7

Angle Coeffs # harmonic

1 100 109.47
2 35 120
3 63 120

Dihedral Coeffs # opls

1 0 7.25 0 0
2 0 7.25 0 0
3 0 7.25 0 0

Improper Coeffs # cvff

1 2.5 -1 2

Atoms # full

1144 382 1 -8.1999999999999995e-01 -6.7930823244511966e+00 -1.3507748452867169e+01 -1.3251885673914595e+01 0 0 2
2004 668 2 4.0999999999999998e-01 -8.0972671662952198e+00 -9.5435446139163567e+00 -1.4626364634796692e+01 -1 1 1
1028 343 2 4.0999999999999998e-01 -9.8509687285623571e+00 -1.1733844283488990e+01 -1.1318804411215503e+01 0 2 0
970 324 1 -8.1999999999999995e-01 -6.9280496275172059e+00 -1.4814975937872184e+01 -9.3158612283567166e+00 0 1 0
1010 337 2 4.0999999999999998e-01 -9.1384975849278440e+00 -1.4139275380668817e+01 -1.3682493445459714e+01 1 0 1
450 150 2 4.0999999999999998e-01 -1.3969215299373655e+01 -1.2047383877075513e+01 -1.0355172464686763e+01 0 1 0
2025 675 2 4.0999999999999998e-01 -1.0873148265351187e+01 -9.9365304296714463e+00 -1.1460983807900204e+01 1 -1 0
448 150 1 -8.1999999999999995e-01 -1.4450920803132252e+01 -1.1172672497519624e+01 -1.0408648625303332e+01 0 1 0
2023 675 1 -8.1999999999999995e-01 -1.0563868266309624e+01 -1.0138175230320860e+01 -1.0531626439943061e+01 1 -1 0
449 150 2 4.0999999999999998e-01 -1.3858794784738718e+01 -1.0444429044223401e+01 -1.0063586073576163e+01 0 1 0
1664 555 2 4.0999999999999998e-01 -1.1455969765036235e+01 -1.0477482204123771e+01 -1.3946393410669067e+01 0 1 1
315 105 2 4.0999999999999998e-01 -5.3405675487385889e+00 -6.7474143662097781e+00 -1.4701549304381446e+01 0 -1 1
2024 675 2 4.0999999999999998e-01 -1.1346820509598256e+01 -1.0125482354897045e+01 -9.9096581678752322e+00 1 -1 0
2475 825 2 4.0999999999999998e-01 -8.9143911573478913e+00 -1.1580829110381156e+01 -1.3696276712193303e+01 2 -1 1
31 11 1 -8.1999999999999995e-01 -7.7994398615868237e+00 -8.2475834723725487e+00 -8.4663644354121921e+00 0 0 2
2241 747 2 4.0999999999999998e-01 -8.8863462645460594e+00 -9.6024559364740956e+00 -1.0679722599310049e+01 0 -2 -3
32 11 2 4.0999999999999998e-01 -7.7009912070807358e+00 -8.7470941207198649e+00 -9.3270716215075282e+00 0 0 2
2239 747 1 -8.1999999999999995e-01 -7.8910319690828201e+00 -9.6578402499128462e+00 -1.0759105324280709e+01 0 -2 -3
2240 747 2 4.0999999999999998e-01 -7.5970926064654538e+00 -1.0602512379744725e+01 -1.0613454665036352e+01 0 -2 -3
2203 735 1 -8.1999999999999995e-01 -1.2606420687845711e+01 -7.4807623559849317e+00 -7.8981085291553379e+00 2 -1 1
1146 382 2 4.0999999999999998e-01 -5.9819654811474017e+00 -1.2959620457640057e+01 -1.3047765394060793e+01 0 0 2
2474 825 2 4.0999999999999998e-01 -7.6353755304988979e+00 -1.2445007477331124e+01 -1.4229187851070657e+01 2 -1 1
33 11 2 4.0999999999999998e-01 -8.7306366644161972e+00 -8.3608672727869777e+00 -8.1198688104982626e+00 0 0 2
143 48 2 4.0999999999999998e-01 -1.2528448021432638e+01 -9.0795461502579933e+00 -8.6869444493595935e+00 -1 0 0
155 52 2 4.0999999999999998e-01 -8.2316503580312101e+00 -1.1880373009577918e+01 -9.3635549023496374e+00 0 1 -1
154 52 1 -8.1999999999999995e-01 -7.4481437863760025e+00 -1.2132999176776828e+01 -9.9312848595536352e+00 0 1 -1
156 52 2 4.0999999999999998e-01 -7.2711699014986264e+00 -1.3112809923421535e+01 -9.8381662630449185e+00 0 1 -1
1027 343 1 -8.1999999999999995e-01 -9.5597898967387973e+00 -1.2585135421381658e+01 -1.1755311156129910e+01 0 2 0
1415 472 2 4.0999999999999998e-01 -8.2198286913179039e+00 -7.3023217738629054e+00 -1.1043157046858004e+01 1 2 1
1665 555 2 4.0999999999999998e-01 -1.1030249263451084e+01 -8.9241390136462737e+00 -1.3677011592577678e+01 0 1 1
2332 778 1 -8.1999999999999995e-01 -9.9258397922739139e+00 -1.2976908698675004e+01 -8.5078117673602272e+00 1 1 -2
1264 422 1 -8.1999999999999995e-01 -1.2763943253388703e+01 -1.2990445310493696e+01 -1.3660410919584166e+01 0 2 -1
1029 343 2 4.0999999999999998e-01 -8.6414400701821155e+00 -1.2824279078714769e+01 -1.1439932377202741e+01 0 2 0
1663 555 1 -8.1999999999999995e-01 -1.1100827464539408e+01 -9.8340532039116582e+00 -1.3268239304122236e+01 0 1 1
365 122 2 4.0999999999999998e-01 -1.4122080405216385e+01 -1.4181206282500918e+01 -1.2885425472519882e+01 2 1 1
1145 382 2 4.0999999999999998e-01 -6.5915682430137981e+00 -1.4473948914021069e+01 -1.3091048320437361e+01 0 0 2
513 171 2 4.0999999999999998e-01 -8.4120831758434171e+00 -4.7380272282862084e+00 -1.4229708723176671e+01 -1 -2 -1
142 48 1 -8.1999999999999995e-01 -1.2546894827845920e+01 -1.0036240535530677e+01 -8.9774878037392352e+00 -1 0 0
197 66 2 4.0999999999999998e-01 -5.6636987126694187e+00 -7.9759387353560713e+00 -1.2855452895805112e+01 0 0 0
1009 337 1 -8.1999999999999995e-01 -9.3672217998326914e+00 -1.4673441850278294e+01 -1.4496355435570658e+01 1 0 1
1697 566 2 4.0999999999999998e-01 -1.4120583856696298e+01 -1.1129571301719704e+01 -1.2875166954413061e+01 -1 -1 1
196 66 1 -8.1999999999999995e-01 -6.2386077990988280e+00 -7.3770501260401051e+00 -1.3412975878011327e+01 0 0 0
1134 378 2 4.0999999999999998e-01 -1.3380549991279796e+01 -7.4382372039533600e+00 -1.3918477274685507e+01 0 1 0
1047 349 2 4.0999999999999998e-01 -8.9016708005625311e+00 -2.0917582288717185e+00 -1.4844119964968790e+01 1 -1 0
144 48 2 4.0999999999999998e-01 -1.2674283383412693e+01 -1.0624679267639987e+01 -8.1790318394130068e+00 -1 0 0
551 184 2 4.0999999999999998e-01 -1.2822614019685711e+01 -8.7074141967427288e-01 -1.3851422482128841e+01 0 1 1
2229 743 2 4.0999999999999998e-01 -1.1951848009541568e+01 -3.2912339442576855e+00 -1.4708773335996895e+01 -1 -2 -1
467 156 2 4.0999999999999998e-01 -1.1388173932570904e+01 -1.2897322180521765e+01 -9.8737726818635405e+00 1 1 0
1046 349 2 4.0999999999999998e-01 -8.2215777342715448e+00 -1.1311771364641547e+00 -1.3712114231693587e+01 1 -1 0
266 89 2 4.0999999999999998e-01 -5.4593325394249383e+00 -1.2065793069360396e+01 -7.4807955156529502e+00 -3 -1 1
1403 468 2 4.0999999999999998e-01 -5.2761107173297788e+00 -9.5729348741655613e+00 -1.1032836822620226e+01 1 2 -1
2333 778 2 4.0999999999999998e-01 -1.0045369707882998e+01 -1.3955713897516619e+01 -8.6741634823403331e+00 1 1 -2
2214 738 2 4.0999999999999998e-01 -5.8481896689700825e+00 -1.6637555164130209e+00 -1.3776445743705008e+01 0 1 3
972 324 2 4.0999999999999998e-01 -5.9930577860368910e+00 -1.4522596744851610e+01 -9.5166711050303867e+00 0 1 0
2584 862 1 -8.1999999999999995e-01 -1.2649357821183752e+01 -2.2138157609939135e-01 -7.5890322277637168e+00 0 1 0
2473 825 1 -8.1999999999999995e-01 -8.1964622706914625e+00 -1.1633097086666460e+01 -1.4390442428325727e+01 2 -1 1
265 89 1 -8.1999999999999995e-01 -5.8507070288778138e+00 -1.1198250901223131e+01 -7.7877425612167883e+00 -3 -1 1
466 156 1 -8.1999999999999995e-01 -1.2176624967281798e+01 -1.3066636273014609e+01 -1.0465125023322036e+01 1 1 0
468 156 2 4.0999999999999998e-01 -1.1859861768097160e+01 -1.3360135077951925e+01 -1.1367089225195665e+01 1 1 0
861 287 2 4.0999999999999998e-01 -7.8879245488949179e+00 -1.0135971011033948e+00 -7.8931675202310272e+00 0 0 0
198 66 2 4.0999999999999998e-01 -6.8416338183124470e+00 -7.9324496803937503e+00 -1.3985610917159292e+01 0 0 0
1266 422 2 4.0999999999999998e-01 -1.2838745136882959e+01 -1.2229031656492221e+01 -1.4304362667112441e+01 0 2 -1
2375 792 2 4.0999999999999998e-01 -8.7715736484037699e+00 -7.2132793694143533e+00 -1.4435929226418715e+01 1 2 1
1133 378 2 4.0999999999999998e-01 -1.4321894878056680e+01 -7.0007287767130979e+00 -1.2657867976770087e+01 0 1 0
493 165 1 -8.1999999999999995e-01 -1.1884321070502388e+01 -6.6074502150069776e+00 -1.0482081202207283e+01 -2 -1 0
2334 778 2 4.0999999999999998e-01 -1.0129083316872011e+01 -1.2774360348285473e+01 -7.5498523906895292e+00 1 1 -2
2586 862 2 4.0999999999999998e-01 -1.2592531957244660e+01 -5.4924608560641985e-01 -8.5320569316200281e+00 0 1 0
138 46 2 4.0999999999999998e-01 -1.3530242963800884e+01 -9.5348585643090544e-01 -1.1203147538834646e+01 0 -1 0
2227 743 1 -8.1999999999999995e-01 -1.2781679341539904e+01 -2.8953355118368851e+00 -1.4315499513057267e+01 -1 -2 -1
136 46 1 -8.1999999999999995e-01 -1.2789960300087280e+01 -7.3907112976722544e-01 -1.0565944414878775e+01 0 -1 0
1045 349 1 -8.1999999999999995e-01 -8.9408647916070354e+00 -1.1946975253642318e+00 -1.4403931539344560e+01 1 -1 0
494 165 2 4.0999999999999998e-01 -1.2349457982311984e+01 -6.5982002513902103e+00 -1.1367282839572010e+01 -2 -1 0
2205 735 2 4.0999999999999998e-01 -1.2260132041354442e+01 -7.1390964806026895e+00 -8.7718181610876815e+00 2 -1 1
495 165 2 4.0999999999999998e-01 -1.0937173808384692e+01 -6.9032519060703965e+00 -1.0606312183910493e+01 -2 -1 0
1132 378 1 -8.1999999999999995e-01 -1.3383351482214355e+01 -7.0411707808547117e+00 -1.3000680830543425e+01 0 1 0
1746 582 2 4.0999999999999998e-01 -1.0239973468544356e+01 -2.1091833117086587e+00 -1.1597657033935159e+01 3 -2 0
1265 422 2 4.0999999999999998e-01 -1.1953838458972839e+01 -1.3534158418653497e+01 -1.3879787728067800e+01 0 2 -1
1416 472 2 4.0999999999999998e-01 -8.9046125014989119e+00 -5.8819439316715467e+00 -1.0618566117228589e+01 1 2 1
130 44 1 -8.1999999999999995e-01 -7.4013850694512611e+00 -4.6059362074970345e-01 -1.1066430298171021e+01 -1 0 0
132 44 2 4.0999999999999998e-01 -7.2585508782404728e+00 -1.1545998797537003e+00 -1.1772102759421800e+01 -1 0 0
744 248 2 4.0999999999999998e-01 -7.6555339965634017e+00 -3.8401700999727115e+00 -1.2264509937515520e+01 -2 1 1
1380 460 2 4.0999999999999998e-01 -9.3195382437351455e+00 -1.7653745953110977e-01 -1.1500010257304419e+01 0 2 -1
649 217 1 -8.1999999999999995e-01 -7.1231511675582126e+00 -3.6343964707673688e+00 -8.2842580095979095e+00 0 0 0
2374 792 1 -8.1999999999999995e-01 -9.3753830029845453e+00 -6.5189560273948270e+00 -1.4044330862743909e+01 1 2 1
742 248 1 -8.1999999999999995e-01 -8.0324504293315684e+00 -4.1742760659527889e+00 -1.1400607667968615e+01 -2 1 1
1418 473 2 4.0999999999999998e-01 -1.2721090991522825e+01 -5.4077674355564618e+00 -1.2500982673839903e+01 0 1 -1
2213 738 2 4.0999999999999998e-01 -5.8696999554268103e+00 -3.2358083386663736e+00 -1.3335008554344952e+01 0 1 3
1419 473 2 4.0999999999999998e-01 -1.2722894702410450e+01 -3.8528430002980212e+00 -1.2999867709845816e+01 0 1 -1
651 217 2 4.0999999999999998e-01 -7.2861501248450775e+00 -3.5675996622237118e+00 -9.2686306185599783e+00 0 0 0
1391 464 2 4.0999999999999998e-01 -1.2148998517117910e+01 -5.1200729229952788e+00 -9.0586658478673137e+00 -1 -1 0
1417 473 1 -8.1999999999999995e-01 -1.2533988971369217e+01 -4.4633341012140768e+00 -1.2230689469364904e+01 0 1 -1
1392 464 2 4.0999999999999998e-01 -1.0986054234371899e+01 -3.9842579388619939e+00 -9.2141153026673628e+00 -1 -1 0
56 19 2 4.0999999999999998e-01 -1.4109164227050593e+01 -3.7811209895693274e+00 -1.1110297659280912e+01 1 -1 -1
137 46 2 4.0999999999999998e-01 -1.1925004267173108e+01 -6.8732523531636680e-01 -1.1065137107071809e+01 0 -1 0
1390 464 1 -8.1999999999999995e-01 -1.1551040707873016e+01 -4.4905100490885506e+00 -8.5625640723556771e+00 -1 -1 0
2376 792 2 4.0999999999999998e-01 -9.2987379520587368e+00 -6.5345164554949129e+00 -1.3047383870412609e+01 1 2 1
1414 472 1 -8.1999999999999995e-01 -9.0705783468034920e+00 -6.7768323787117417e+00 -1.1032872654301894e+01 1 2 1
743 248 2 4.0999999999999998e-01 -8.8481574092693513e+00 -3.6454390168055362e+00 -1.1166143505414521e+01 -2 1 1
1378 460 1 -8.1999999999999995e-01 -1.0233698335208192e+01 -3.9137174811941833e-01 -1.1843779756189663e+01 0 2 -1
650 217 2 4.0999999999999998e-01 -7.8299369765162750e+00 -4.2059744709355744e+00 -7.8673979288190496e+00 0 0 0
1977 659 2 4.0999999999999998e-01 -1.4126587203427494e+01 -3.0548025484424883e+00 -8.0461891586705203e+00 0 0 0
2212 738 1 -8.1999999999999995e-01 -6.2079065353716398e+00 -2.3210099103624433e+00 -1.3114146453925670e+01 0 1 3
1745 582 2 4.0999999999999998e-01 -1.1123544899951721e+01 -3.4670691225001065e+00 -1.1802906364094147e+01 3 -2 0
131 44 2 4.0999999999999998e-01 -6.5218099446523929e+00 -5.9502653457752075e-02 -1.0810513213517233e+01 -1 0 0
1744 582 1 -8.1999999999999995e-01 -1.0393986366658073e+01 -3.0406983290101337e+00 -1.1268142657982413e+01 3 -2 0
267 89 2 4.0999999999999998e-01 -6.4417533651251215e+00 -1.1360264845729704e+01 -8.5779549464940885e+00 -3 -1 1
2204 735 2 4.0999999999999998e-01 -1.3406598846147491e+01 -6.9467988108388070e+00 -7.6249463243736697e+00 2 -1 1
2002 668 1 -8.1999999999999995e-01 -8.0319406209007056e+00 -8.5840175129699414e+00 -1.4900335636368112e+01 -1 1 1
379 127 1 -8.1999999999999995e-01 -1.3103106595675664e+01 -1.1588984239876796e+01 -6.4791811361065417e+00 0 2 0
1854 618 2 4.0999999999999998e-01 -1.3895259077014257e+01 -1.3142093655050772e+01 -7.1866963358855038e+00 1 0 1
2591 864 2 4.0999999999999998e-01 -9.1093007838473259e+00 -1.2677589185698142e+01 -1.3631187068488231e+00 1 0 1
380 127 2 4.0999999999999998e-01 -1.3467325433381330e+01 -1.1439154976403152e+01 -5.5599881429058851e+00 0 2 0
381 127 2 4.0999999999999998e-01 -1.2117051985872131e+01 -1.1746543187686747e+01 -6.4254092679656338e+00 0 2 0
2510 837 2 4.0999999999999998e-01 -9.5846809380324807e+00 -1.1753539711646642e+01 -5.2681360799570243e+00 3 1 3
2509 837 1 -8.1999999999999995e-01 -1.0241729393326914e+01 -1.2390986536194077e+01 -5.6705894475477869e+00 3 1 3
2330 777 2 4.0999999999999998e-01 -5.6741276969972780e+00 -4.7195437440136914e+00 -7.2749488789085017e+00 1 -1 -1
1157 386 2 4.0999999999999998e-01 -1.2952260039026211e+01 -1.2878071826613345e+01 -3.5893756893781692e+00 -1 -1 -1
1804 602 1 -8.1999999999999995e-01 -1.0318411004898394e+01 -1.4418797432959073e+01 -3.5707444970146440e+00 1 3 -2
1156 386 1 -8.1999999999999995e-01 -1.3003321950893639e+01 -1.3838862386389014e+01 -3.8619449344080401e+00 -1 -1 -1
1677 559 2 4.0999999999999998e-01 -1.2367849210023712e+01 -1.0577350182627846e+01 -3.1479320466368534e+00 2 2 0
1064 355 2 4.0999999999999998e-01 -6.9780647297898133e+00 -7.4179879070217787e+00 -7.0331411989586705e+00 0 0 0
1676 559 2 4.0999999999999998e-01 -1.3980595293180532e+01 -1.0667942362221496e+01 -3.3877709981639192e+00 2 2 0
1223 408 2 4.0999999999999998e-01 -8.7069456587353216e+00 -9.6374618014342595e+00 -6.4135284775627532e+00 0 1 0
1675 559 1 -8.1999999999999995e-01 -1.3105756438300741e+01 -1.1128803406078255e+01 -3.5370492378664409e+00 2 2 0
1694 565 2 4.0999999999999998e-01 -5.9776707814115966e+00 -1.1289059596129700e+00 -9.4812915372322060e-01 0 2 -1
1222 408 1 -8.1999999999999995e-01 -7.8500915696060867e+00 -9.7217370843747126e+00 -5.9048845483710295e+00 0 1 0
610 204 1 -8.1999999999999995e-01 -7.7553003614785547e+00 -1.0046667218259799e+01 -3.0206706148578792e+00 -1 0 0
1224 408 2 4.0999999999999998e-01 -7.0804911224474392e+00 -9.7046277147490940e+00 -6.5431965769304892e+00 0 1 0
2511 837 2 4.0999999999999998e-01 -1.0235632042108385e+01 -1.3246774484617827e+01 -5.1532793597981570e+00 3 1 3
611 204 2 4.0999999999999998e-01 -7.9690815046702301e+00 -1.0024886536151719e+01 -3.9973195529806915e+00 -1 0 0
1771 591 1 -8.1999999999999995e-01 -1.4385348131986643e+01 -1.1604574080263486e+01 -2.3644738893521300e-01 0 0 -1
1806 602 2 4.0999999999999998e-01 -1.0268811199251628e+01 -1.3539086022257603e+01 -3.0978094157363980e+00 1 3 -2
1158 386 2 4.0999999999999998e-01 -1.2102735128005451e+01 -1.4261954457687144e+01 -3.7621636357924544e+00 -1 -1 -1
859 287 1 -8.1999999999999995e-01 -7.7311021239445274e+00 -4.3138231713411912e-01 -7.0953877624841706e+00 0 0 0
88 30 1 -8.1999999999999995e-01 -5.5807182689653256e+00 -1.3468279990777118e+01 -1.0684984393492858e+00 0 0 1
354 118 2 4.0999999999999998e-01 -8.6222249332684502e+00 -5.3141927298609914e-01 -5.6239016700529287e+00 -1 2 -2
2592 864 2 4.0999999999999998e-01 -1.0523540424696607e+01 -1.1904088418303886e+01 -1.6244655486899440e+00 1 0 1
2590 864 1 -8.1999999999999995e-01 -9.6568805867569161e+00 -1.2183052610717706e+01 -2.0381074167206030e+00 1 0 1
1076 359 2 4.0999999999999998e-01 -5.0937250959492530e+00 -1.1349949156926991e+01 -3.8998367272466155e+00 0 -1 1
1612 538 1 -8.1999999999999995e-01 -8.0794705134327174e+00 -1.3296477373277842e+01 -1.2228597590428869e-01 0 2 -2
1420 474 1 -8.1999999999999995e-01 -1.0414723018711459e+01 -7.5922488493677163e+00 -4.1521238434449259e+00 0 0 -2
1075 359 1 -8.1999999999999995e-01 -5.7024754915861848e+00 -1.1963675433008390e+01 -3.3970614972392461e+00 0 -1 1
1407 469 2 4.0999999999999998e-01 -1.4199712891209694e+01 -8.8068142814417900e+00 -7.6354013510475305e-01 0 2 -1
717 239 2 4.0999999999999998e-01 -7.1218798117752629e+00 -8.4981306607449092e+00 -2.0510997360358960e+00 0 1 1
1489 497 1 -8.1999999999999995e-01 -1.0657274424340443e+01 -9.0938753956502314e+00 -6.3386572539593455e+00 1 -1 0
1065 355 2 4.0999999999999998e-01 -7.7002906757323135e+00 -5.9871684985601519e+00 -6.7203711721622224e+00 0 0 0
2255 752 2 4.0999999999999998e-01 -1.2640764160325235e+01 -1.1212737132540083e+01 -7.9135492271656105e-01 3 -2 -2
1305 435 2 4.0999999999999998e-01 -1.1139083872820356e+01 -8.9159884942666441e+00 -6.6736505104960742e-01 1 0 -2
715 239 1 -8.1999999999999995e-01 -6.3766994624319473e+00 -7.9322426488303481e+00 -1.6982586910781201e+00 0 1 1
2254 752 1 -8.1999999999999995e-01 -1.1755640764899004e+01 -1.0839349958989867e+01 -5.1358069079364199e-01 3 -2 -2
1304 435 2 4.0999999999999998e-01 -1.0917559627043056e+01 -7.4249126394289258e+00 -3.9432585736117076e-02 1 0 -2
1562 521 2 4.0999999999999998e-01 -1.3645096205021646e+01 -4.4514936793444395e+00 -1.4449301996680450e+00 0 -1 0
1773 591 2 4.0999999999999998e-01 -1.4275847294657643e+01 -1.2597931721198041e+01 -2.0080913022168367e-01 0 0 -1
1852 618 1 -8.1999999999999995e-01 -1.4599400400425992e+01 -1.3839453134373896e+01 -7.3204673006909582e+00 1 0 1
1077 359 2 4.0999999999999998e-01 -6.5859832278631725e+00 -1.1516399527928627e+01 -3.2578557932930732e+00 0 -1 1
1405 469 1 -8.1999999999999995e-01 -1.4184154685201138e+01 -8.8709282623593495e+00 -1.7613714174240833e+00 0 2 -1
612 204 2 4.0999999999999998e-01 -8.5467167658138870e+00 -1.0388320844767053e+01 -2.5137655065708930e+00 -1 0 0
1303 435 1 -8.1999999999999995e-01 -1.0743961408952099e+01 -8.0118982922528108e+00 -8.3021153894270228e-01 1 0 -2
1491 497 2 4.0999999999999998e-01 -1.1291609123354629e+01 -8.7040866289621839e+00 -7.0062679916015647e+00 1 -1 0
1422 474 2 4.0999999999999998e-01 -1.0344402348317988e+01 -7.6963266273460187e+00 -3.1600337581519948e+00 0 0 -2
955 319 1 -8.1999999999999995e-01 -1.1518671976902230e+01 -3.7054887010553674e+00 -3.0610968261759108e+00 0 -2 -1
90 30 2 4.0999999999999998e-01 -5.5383080203143500e+00 -1.3033044761454322e+01 -1.9678268392796827e+00 0 0 1
1626 542 2 4.0999999999999998e-01 -8.7417482151669290e+00 -5.4332592492225498e+00 -2.6616915919411035e+00 0 0 -1
1411 471 1 -8.1999999999999995e-01 -5.9946057563668997e+00 -5.6366670200993720e+00 -4.0468230221109422e+00 0 -1 -1
860 287 2 4.0999999999999998e-01 -6.8612170059796203e+00 -6.7831095519105666e-01 -6.6683677859604700e+00 0 0 0
1063 355 1 -8.1999999999999995e-01 -6.9070365363550366e+00 -6.5623296451927278e+00 -6.5204776913892442e+00 0 0 0
716 239 2 4.0999999999999998e-01 -5.5741686862277167e+00 -8.0333997144350011e+00 -2.2862480269151000e+00 0 1 1
1490 497 2 4.0999999999999998e-01 -1.0724024486821744e+01 -8.5863150406107458e+00 -5.4796190531741100e+00 1 -1 0
615 205 2 4.0999999999999998e-01 -1.4581980067149024e+01 -4.5477676635752040e+00 -5.0827465112237391e+00 1 -2 3
2397 799 2 4.0999999999999998e-01 -9.1894998911612440e+00 -5.0788120313216503e+00 -5.9404442322524549e+00 1 1 1
2414 805 2 4.0999999999999998e-01 -1.2207511093801060e+01 -1.3159064731757137e+00 -5.7907428903592812e+00 2 -1 0
2396 799 2 4.0999999999999998e-01 -9.9289720297404145e+00 -4.8233951300785343e+00 -7.3738397567262801e+00 1 1 1
1421 474 2 4.0999999999999998e-01 -1.0088888799787874e+01 -6.6843689229947820e+00 -4.4159533511642941e+00 0 0 -2
353 118 2 4.0999999999999998e-01 -8.5732340402680425e+00 -1.0348960001435223e+00 -4.0712295940142607e+00 -1 2 -2
605 202 2 4.0999999999999998e-01 -7.7160449178839841e+00 -5.6569074144189990e-01 -2.0453231237834348e+00 1 -1 1
1412 471 2 4.0999999999999998e-01 -5.9551030799064133e+00 -5.8432067894436557e+00 -5.0244736731678490e+00 0 -1 -1
1625 542 2 4.0999999999999998e-01 -9.9002402377565559e+00 -4.5170535004239039e+00 -3.3582135416229750e+00 0 0 -1
1413 471 2 4.0999999999999998e-01 -6.9446593266836230e+00 -5.6722941698055980e+00 -3.7367443549556274e+00 0 -1 -1
613 205 1 -8.1999999999999995e-01 -1.4691143343676806e+01 -3.5558437481824505e+00 -5.1474786277954152e+00 1 -2 3
805 269 1 -8.1999999999999995e-01 -5.2694195985208783e+00 -2.7848629436058587e+00 -3.7716775259363757e+00 -1 2 -1
697 233 1 -8.1999999999999995e-01 -1.4776930109209221e+01 -1.0482822933502600e+00 -4.3983445848360621e+00 -2 0 0
2338 780 1 -8.1999999999999995e-01 -1.4837750934597240e+01 -1.2145110861271498e+00 -1.6225659610441419e+00 1 2 -1
1613 538 2 4.0999999999999998e-01 -7.1176957245989945e+00 -1.3465010598030329e+01 -3.3816957367680267e-01 0 2 -2
1334 445 2 4.0999999999999998e-01 -1.2491003319349700e+01 -3.4584696723508301e-01 -5.8548647628413875e-01 -1 -1 -1
2295 765 2 4.0999999999999998e-01 -1.4430053807502505e+01 -6.1009804362982631e+00 -2.7636631660767694e+00 0 -1 -1
1199 400 2 4.0999999999999998e-01 -5.0967874765471581e+00 -9.7533157325817008e+00 -7.4256629470694344e+00 0 2 -1
352 118 1 -8.1999999999999995e-01 -9.1698748107094943e+00 -7.1660744597216208e-01 -4.8079330100001147e+00 -1 2 -2
957 319 2 4.0999999999999998e-01 -1.2177981686586147e+01 -4.4518952822464701e+00 -3.1516939489285569e+00 0 -2 -1
1624 542 1 -8.1999999999999995e-01 -9.1697785339139699e+00 -5.1783793870430461e+00 -3.5287822606323527e+00 0 0 -1
892 298 1 -8.1999999999999995e-01 -1.0534903606161485e+01 -3.5506018687050371e+00 -7.2659286080466146e-01 -1 -2 -2
2340 780 2 4.0999999999999998e-01 -1.4305464859210554e+01 -2.0469538353009682e+00 -1.4685188109450458e+00 1 2 -1
806 269 2 4.0999999999999998e-01 -5.6800198344491690e+00 -3.6267782763544556e+00 -4.1218286771932942e+00 -1 2 -1
2415 805 2 4.0999999999999998e-01 -1.0719406870239244e+01 -1.4013916285710177e+00 -5.1237213495059493e+00 2 -1 0
2283 761 2 4.0999999999999998e-01 -7.2040516628831126e+00 -6.3630798080456596e+00 -1.2666470035570132e+00 0 -1 -1
807 269 2 4.0999999999999998e-01 -5.9819715981416746e+00 -2.2068807647002142e+00 -3.3739010318323164e+00 -1 2 -1
1673 558 2 4.0999999999999998e-01 -5.0353912718174225e+00 -1.1173813274347971e+01 -1.1156091495310250e-01 -1 -1 0
2413 805 1 -8.1999999999999995e-01 -1.1663619015159989e+01 -1.7240358509341789e+00 -5.0575091392716445e+00 2 -1 0
2294 765 2 4.0999999999999998e-01 -1.2942690530576057e+01 -6.6671933659756686e+00 -2.3978317836331478e+00 0 -1 -1
894 298 2 4.0999999999999998e-01 -1.0825190613005788e+01 -3.8074857167614073e+00 -1.6484193292401113e+00 -1 -2 -2
699 233 2 4.0999999999999998e-01 -1.4617148266940587e+01 -2.0275212151548185e+00 -4.5231678969414109e+00 -2 0 0
956 319 2 4.0999999999999998e-01 -1.1760222547580199e+01 -2.9688803579578433e+00 -3.6928256794558560e+00 0 -2 -1
604 202 1 -8.1999999999999995e-01 -7.8022178987517847e+00 -1.4725920185414907e+00 -2.4577842115700097e+00 1 -1 1
606 202 2 4.0999999999999998e-01 -8.1438633605669573e+00 -2.1182673693912069e+00 -1.7748481754312273e+00 1 -1 1
2293 765 1 -8.1999999999999995e-01 -1.3514479704170679e+01 -5.8484815351721746e+00 -2.4506325517580851e+00 0 -1 -1
2395 799 1 -8.1999999999999995e-01 -9.0727247193399876e+00 -5.0935147391447639e+00 -6.9335037973665035e+00 1 1 1
2281 761 1 -8.1999999999999995e-01 -7.9391774488471221e+00 -5.8130721407955175e+00 -8.7028662802565826e-01 0 -1 -1
1561 521 1 -8.1999999999999995e-01 -1.4023906004043216e+01 -3.6880270856032684e+00 -9.2182233177169692e-01 0 -1 0
1693 565 1 -8.1999999999999995e-01 -5.2107393810786942e+00 -1.5843165159983830e+00 -4.9598164714210213e-01 0 2 -1
1655 552 2 4.0999999999999998e-01 -6.0349502719619341e+00 -8.0043074520800239e+00 -1.5200520620259894e-02 -2 1 -1
893 298 2 4.0999999999999998e-01 -1.1151948116412202e+01 -3.9623374335566393e+00 -5.5958966506912233e-02 -1 -2 -2
2282 761 2 4.0999999999999998e-01 -7.6323356629596306e+00 -5.4223596613370759e+00 -2.4088871375784748e-03 0 -1 -1
102 34 2 4.0999999999999998e-01 -9.1476999602681346e+00 -2.9488768134590124e+00 -1.6487916513044709e-02 0 0 1
547 183 1 -8.1999999999999995e-01 -5.7122816059291672e+00 -1.1433732120974017e+01 3.0746092647767327e+00 1 -2 2
2099 700 2 4.0999999999999998e-01 -1.3665573004041565e+01 -1.1092872625137041e+01 5.3670806751440736e+00 -2 1 -1
1846 616 1 -8.1999999999999995e-01 -1.3193368218064268e+01 -1.2654189263379415e+01 5.8920717264182585e+00 1 0 -1
866 289 2 4.0999999999999998e-01 -7.2411547221840733e+00 -8.6396676861611859e+00 6.6625590895055815e+00 -1 1 1
2028 676 2 4.0999999999999998e-01 -1.0461556786528362e+01 -1.3615843312564792e+01 4.3061933068232641e+00 -1 -1 -2
1019 340 2 4.0999999999999998e-01 -1.0512861234705539e+01 -7.2005853372645019e+00 5.1658464835411095e+00 0 0 1
1282 428 1 -8.1999999999999995e-01 -7.6024162083716993e+00 -1.0986061693255692e+01 1.1551353392895756e+00 0 1 -1
244 82 1 -8.1999999999999995e-01 -1.1459809636655717e+01 -9.0214332574726690e+00 4.3943267228181675e+00 0 0 -2
1283 428 2 4.0999999999999998e-01 -7.7332132067034562e+00 -1.0025851892961334e+01 9.0833744936336025e-01 0 1 -1
518 173 2 4.0999999999999998e-01 -8.8810821006541243e+00 -1.0797241344719964e+01 4.1654693348827152e+00 2 1 -2
519 173 2 4.0999999999999998e-01 -8.9343801276083248e+00 -1.1023883702878564e+01 2.5491549669834299e+00 2 1 -2
517 173 1 -8.1999999999999995e-01 -9.4712297985305298e+00 -1.0784791484751871e+01 3.3582577178150785e+00 2 1 -2
1559 520 2 4.0999999999999998e-01 -9.0259817038050318e+00 -8.1512727591994505e-01 5.9251503833161436e+00 -1 1 -1
553 185 1 -8.1999999999999995e-01 -7.5007033555372802e+00 -1.1533914928225840e+01 5.1262698269254976e+00 1 1 0
555 185 2 4.0999999999999998e-01 -6.7562291945525779e+00 -1.1810360857863621e+01 5.7340163293828574e+00 1 1 0
1284 428 2 4.0999999999999998e-01 -6.8301435539680249e+00 -1.1066005530172221e+01 1.7853922586068869e+00 0 1 -1
554 185 2 4.0999999999999998e-01 -7.1291496538609929e+00 -1.1306437056997979e+01 4.2261467366903780e+00 1 1 0
1587 529 2 4.0999999999999998e-01 -1.1924403385160515e+01 -1.1675832049643226e+01 2.8888730693706286e+00 2 0 -2
1586 529 2 4.0999999999999998e-01 -1.3214456981482318e+01 -1.0682685470240649e+01 3.0157635476575422e+00 2 0 -2
510 170 2 4.0999999999999998e-01 -1.1327097893821531e+01 -7.6181285458549244e+00 2.9578804727401575e+00 -1 0 0
2250 750 2 4.0999999999999998e-01 -8.6073619490565996e+00 -1.4333847777500095e+01 1.1373409210591525e+00 1 -1 -1
508 170 1 -8.1999999999999995e-01 -1.0781991220262185e+01 -7.3079286599603446e+00 2.1790001127967251e+00 -1 0 0
245 82 2 4.0999999999999998e-01 -1.1020247484949056e+01 -9.5009426740469820e+00 3.6348033582623884e+00 0 0 -2
2027 676 2 4.0999999999999998e-01 -1.0566834479932044e+01 -1.1994956104844816e+01 4.1379052435030310e+00 -1 -1 -2
1848 616 2 4.0999999999999998e-01 -1.3393408174483806e+01 -1.3536525878004509e+01 6.3180835011020591e+00 1 0 -1
865 289 1 -8.1999999999999995e-01 -7.8692647547580803e+00 -9.3752819324513297e+00 6.9162702453227425e+00 -1 1 1
2026 676 1 -8.1999999999999995e-01 -1.1052988037754922e+01 -1.2861145325421269e+01 4.0221863749410112e+00 -1 -1 -2
1585 529 1 -8.1999999999999995e-01 -1.2465153032650246e+01 -1.0976056917773153e+01 2.4220492199660839e+00 2 0 -2
867 289 2 4.0999999999999998e-01 -7.6292365426331132e+00 -1.0206378366952265e+01 6.4145879862590114e+00 -1 1 1
1465 489 1 -8.1999999999999995e-01 -5.8069217637626274e+00 -4.4727146552592245e-01 1.8907350980906230e+00 1 0 0
2098 700 1 -8.1999999999999995e-01 -1.4133349360537149e+01 -1.0420324609323824e+01 4.7935962729800536e+00 -2 1 -1
1847 616 2 4.0999999999999998e-01 -1.2619797612436031e+01 -1.2795998640079556e+01 5.0852713921169901e+00 1 0 -1
1827 609 2 4.0999999999999998e-01 -1.3743396414719427e+01 -9.7942317059446147e+00 7.1703161178124297e-01 0 -1 -2
246 82 2 4.0999999999999998e-01 -1.2447852806206011e+01 -9.1707414684875328e+00 4.3556289712646894e+00 0 0 -2
1435 479 1 -8.1999999999999995e-01 -5.9985381549243844e+00 -7.6146486212059026e+00 5.4526628294836677e+00 -1 0 1
1575 525 2 4.0999999999999998e-01 -1.4665920789190915e+01 -8.2269305749352739e+00 5.0147012522121770e+00 -1 -1 -2
2307 769 2 4.0999999999999998e-01 -8.6607032602249596e+00 -1.4812261145548312e+01 3.6402805118033470e+00 -3 0 -2
2276 759 2 4.0999999999999998e-01 -1.0897831031643229e+01 -9.7122628456432150e+00 6.0734601772240460e+00 1 0 0
1467 489 2 4.0999999999999998e-01 -5.6436235275857118e+00 -1.2706635435362124e-01 2.8239136994173961e+00 1 0 0
1614 538 2 4.0999999999999998e-01 -8.1716235787281342e+00 -1.2400122784896126e+01 3.1139152328683473e-01 0 2 -2
1437 479 2 4.0999999999999998e-01 -5.4199300914598663e+00 -8.2188681846591933e+00 4.9048021744935824e+00 -1 0 1
509 170 2 4.0999999999999998e-01 -9.8831547410232226e+00 -7.7454104990771961e+00 2.2058784954311825e+00 -1 0 0
1826 609 2 4.0999999999999998e-01 -1.4708310093607892e+01 -8.6980255101907709e+00 1.4477525983810544e+00 0 -1 -2
2275 759 1 -8.1999999999999995e-01 -1.0629467056491182e+01 -9.9749437747444212e+00 7.0002823636589007e+00 1 0 0
1440 480 2 4.0999999999999998e-01 -1.2947644199558086e+01 -7.6870433107916227e+00 7.0730670422871782e+00 0 0 2
1333 445 1 -8.1999999999999995e-01 -1.2490968134593716e+01 -1.2200151134860526e-01 3.8914839315389038e-01 -1 -1 -1
2256 752 2 4.0999999999999998e-01 -1.1656971223434272e+01 -1.0918517828997384e+01 4.7839546699146496e-01 3 -2 -2
2305 769 1 -8.1999999999999995e-01 -8.4464990923596144e+00 -1.4886191934973372e+01 4.6142778098261630e+00 -3 0 -2