LAMMPS data file via write_data, version 15 May 2015, timestep = 18500000

2593 atoms
6 atom types
1728 bonds
4 bond types
864 angles
3 angle types
0 dihedrals
3 dihedral types
0 impropers
1 improper types

-1.4977661923910775e+01 1.4977661923910775e+01 xlo xhi
-1.4977661923910775e+01 1.4977661923910775e+01 ylo yhi
-1.4977661923910775e+01 1.4977661923910775e+01 zlo zhi

Masses

1 15.9994
2 1.00794
3 12.0107
4 1.00794
5 12.0107
6 12.0107

Bond Coeffs # harmonic

1 1000 1
2 469 1.4
3 367 1.08
4 469 0.7

Angle Coeffs # harmonic

1 100 109.47
2 35 120
3 63 120

Dihedral Coeffs # opls

1 0 7.25 0 0
2 0 7.25 0 0
3 0 7.25 0 0

Improper Coeffs # cvff

1 2.5 -1 2

Atoms # full

122 41 2 4.0999999999999998e-01 -8.2985186920259828e+00 -1.1693223313181882e+01 -1.2561915611447546e+01 -7 2 0
121 41 1 -8.1999999999999995e-01 -7.5675183514295146e+00 -1.2161803974104537e+01 -1.3058030962412698e+01 -7 2 0
2551 851 1 -8.1999999999999995e-01 -1.4824394423762895e+01 -7.9789680900853455e+00 -1.0132204397739276e+01 -7 1 -1
2225 742 2 4.0999999999999998e-01 -9.9026554052164499e+00 -1.4578151070459937e+01 -1.3136037948208829e+01 -12 -2 5
2435 812 2 4.0999999999999998e-01 -8.8705501412498275e+00 -1.1182999404915503e+01 -1.0243750339147343e+01 -9 2 0
2589 863 2 4.0999999999999998e-01 -1.4251986932128212e+01 -9.7832966610520735e+00 -9.8139554026237068e+00 -6 2 -1
1063 355 1 -8.1999999999999995e-01 -1.2469661361426986e+01 -9.9745362655569529e+00 -1.2321234837228694e+01 -8 0 3
2178 726 2 4.0999999999999998e-01 -1.0800217734934566e+01 -1.0948723534208131e+01 -1.1917606377539769e+01 -9 -4 1
2176 726 1 -8.1999999999999995e-01 -1.0010270434077160e+01 -1.1547289574849858e+01 -1.1784333233647684e+01 -9 -4 1
103 35 1 -8.1999999999999995e-01 -1.3728105894673002e+01 -1.2876198764125798e+01 -1.3956255053867091e+01 -3 -1 0
1065 355 2 4.0999999999999998e-01 -1.2451336117160885e+01 -8.9755549287157343e+00 -1.2363190228347577e+01 -8 0 3
2177 726 2 4.0999999999999998e-01 -1.0200680840162114e+01 -1.2444299071874479e+01 -1.2183303963076076e+01 -9 -4 1
104 35 2 4.0999999999999998e-01 -1.2930876223079583e+01 -1.3371104783428745e+01 -1.4302018889379809e+01 -3 -1 0
105 35 2 4.0999999999999998e-01 -1.3637219561461308e+01 -1.2746074525885650e+01 -1.2968901458470460e+01 -3 -1 0
1064 355 2 4.0999999999999998e-01 -1.2986778180848930e+01 -1.0264906755797561e+01 -1.1516042341472534e+01 -8 0 3
2224 742 1 -8.1999999999999995e-01 -1.0538694820399733e+01 -1.3935046811199074e+01 -1.2709504809358979e+01 -12 -2 5
148 50 1 -8.1999999999999995e-01 -1.2409259546781479e+01 -7.0610345315681640e+00 -1.1842064311629807e+01 -11 -6 -6
1181 394 2 4.0999999999999998e-01 -1.4160307063091675e+01 -1.2566320554701958e+01 -1.0902792580616506e+01 -5 1 3
661 221 1 -8.1999999999999995e-01 -1.2294409336411261e+01 -6.9191524607803601e+00 -8.7169735491829670e+00 -1 -2 -1
663 221 2 4.0999999999999998e-01 -1.2604604137732879e+01 -7.7826559864611387e+00 -8.3192291310158559e+00 -1 -2 -1
149 50 2 4.0999999999999998e-01 -1.1501926042727257e+01 -6.8403326826775395e+00 -1.1484158786260734e+01 -11 -6 -6
468 156 2 4.0999999999999998e-01 -1.1238262737318468e+01 -6.9751618650567195e+00 -1.3831044139573843e+01 -5 0 1
1407 469 2 4.0999999999999998e-01 -9.2218712861052055e+00 -6.2626410271971906e+00 -1.2156510607383270e+01 -4 -3 1
1405 469 1 -8.1999999999999995e-01 -9.9090729924237912e+00 -5.8748230379713213e+00 -1.2770848296276192e+01 -4 -3 1
156 52 2 4.0999999999999998e-01 -8.6933161861503621e+00 -5.1775513506488853e+00 -7.9423434221443951e+00 -5 -2 -3
1951 651 1 -8.1999999999999995e-01 -7.5836886286706182e+00 -6.7720607741780263e+00 -1.1362787585108213e+01 -8 2 -3
536 179 2 4.0999999999999998e-01 -1.4284118079454862e+01 -9.9650677561175733e+00 -1.3195822275287629e+01 -7 2 -5
150 50 2 4.0999999999999998e-01 -1.2859695264963630e+01 -6.2224634830994869e+00 -1.2148603098541464e+01 -11 -6 -6
2226 742 2 4.0999999999999998e-01 -1.0720355084116672e+01 -1.4220529690932768e+01 -1.1768463443608184e+01 -12 -2 5
2434 812 1 -8.1999999999999995e-01 -8.5502799467261283e+00 -1.1853041336329103e+01 -9.5740260838829663e+00 -9 2 0
1180 394 1 -8.1999999999999995e-01 -1.4689948307658383e+01 -1.3227054113421019e+01 -1.1434742846637143e+01 -5 1 3
467 156 2 4.0999999999999998e-01 -1.1064630532209978e+01 -8.3348500726028902e+00 -1.4718673390922275e+01 -5 0 1
2053 685 1 -8.1999999999999995e-01 -8.4271810421439142e+00 -7.6892968271673823e+00 -1.4491843124218317e+01 -5 -1 0
2588 863 2 4.0999999999999998e-01 -1.3639324924829587e+01 -1.1211490977887040e+01 -9.3122661160241798e+00 -6 2 -1
851 284 2 4.0999999999999998e-01 -1.2112165415632221e+01 -1.3891739246926381e+01 -9.6259027899992109e+00 -7 2 -4
850 284 1 -8.1999999999999995e-01 -1.1357676081637484e+01 -1.4297341020844019e+01 -1.0141938454102808e+01 -7 2 -4
2436 812 2 4.0999999999999998e-01 -9.2564434615246007e+00 -1.1994587814274794e+01 -8.8802267925312108e+00 -9 2 0
466 156 1 -8.1999999999999995e-01 -1.1473887651030106e+01 -7.4227394149122787e+00 -1.4693723110049431e+01 -5 0 1
2587 863 1 -8.1999999999999995e-01 -1.3932754532852739e+01 -1.0683766937858696e+01 -1.0109427446450230e+01 -6 2 -1
889 297 1 -8.1999999999999995e-01 -1.2599880797220136e+01 -1.2118339441770717e+01 -8.1291112858901400e+00 -6 -3 8
2088 696 2 4.0999999999999998e-01 -1.0933793769069958e+01 -5.6733069921786221e+00 -8.8772988587527593e+00 -8 -3 9
891 297 2 4.0999999999999998e-01 -1.1620524817163634e+01 -1.2192356344678560e+01 -7.9408478448092614e+00 -6 -3 8
662 221 2 4.0999999999999998e-01 -1.3031979935909236e+01 -6.2456159969998986e+00 -8.6680039399399700e+00 -1 -2 -1
2054 685 2 4.0999999999999998e-01 -9.0709041002467963e+00 -7.0416849686861260e+00 -1.4084069586745620e+01 -5 -1 0
1628 543 2 4.0999999999999998e-01 -8.4180711604662264e+00 -1.1528883069428378e+01 -1.4528878443465295e+01 -9 -3 2
2553 851 2 4.0999999999999998e-01 -1.3843932295891857e+01 -7.8677773836328617e+00 -1.0294655645239834e+01 -7 1 -1
2055 685 2 4.0999999999999998e-01 -7.5042813234759986e+00 -7.4966073806742735e+00 -1.4158396507048176e+01 -5 -1 0
852 284 2 4.0999999999999998e-01 -1.0683972396846343e+01 -1.4674535503682270e+01 -9.5064013155321376e+00 -7 2 -4
825 275 2 4.0999999999999998e-01 -7.6430788539545045e+00 -9.9034352573120366e+00 -8.3385864461844221e+00 -4 -3 -3
938 313 2 4.0999999999999998e-01 -1.4717693062535165e+01 -1.4218563848458867e+01 -1.4686364481271310e+01 -10 -6 -1
362 121 2 4.0999999999999998e-01 -1.4406612506273213e+01 -5.5246768453759802e+00 -1.2440593591365044e+01 -13 -2 -6
413 138 2 4.0999999999999998e-01 -1.1971526439982728e+01 -1.0703424511112267e+01 -1.4146633435103489e+01 -9 4 -2
978 326 2 4.0999999999999998e-01 -1.5239659129555410e+00 -1.4780357026667266e+01 -8.5912896177498794e+00 -7 4 1
2484 828 2 4.0999999999999998e-01 -7.2441703978460898e+00 -1.3737666969769922e+01 -1.1993254143945776e+01 -2 0 0
2483 828 2 4.0999999999999998e-01 -7.4754545806900259e+00 -1.4729439987922239e+01 -1.0716665028167380e+01 -2 0 0
2173 725 1 -8.1999999999999995e-01 -7.4052667537320893e-01 -1.0392610735681654e+01 -1.4350456437527679e+01 -11 -2 0
1952 651 2 4.0999999999999998e-01 -6.7837811097140754e+00 -6.2177961974221727e+00 -1.1132573549339764e+01 -8 2 -3
1953 651 2 4.0999999999999998e-01 -7.3758486054259125e+00 -7.7378661170737830e+00 -1.1207602761732961e+01 -8 2 -3
504 168 2 4.0999999999999998e-01 -7.4126250428831781e+00 -1.3099619105258068e+01 -9.1221125982771163e+00 -11 -3 -1
823 275 1 -8.1999999999999995e-01 -6.6975572980255809e+00 -9.6517867723689310e+00 -8.1318939552871861e+00 -4 -3 -3
838 280 1 -8.1999999999999995e-01 -5.7134755393957093e+00 -7.1491083778662885e+00 -8.0202501864920563e+00 -5 3 0
1599 533 2 4.0999999999999998e-01 -1.8935687868492224e+00 -1.2688929688684436e+01 -8.5171025235350886e+00 -3 -1 7
530 177 2 4.0999999999999998e-01 -3.1223238230779629e+00 -8.3656067914028984e+00 -1.4658861123996532e+01 -8 -3 1
502 168 1 -8.1999999999999995e-01 -7.0026846056116838e+00 -1.3999860760744346e+01 -8.9752331064328210e+00 -11 -3 -1
2482 828 1 -8.1999999999999995e-01 -7.3053822854115520e+00 -1.4692207516657701e+01 -1.1701423338103625e+01 -2 0 0
529 177 1 -8.1999999999999995e-01 -4.0650516841284094e+00 -8.5444558007492333e+00 -1.4940529337910469e+01 -8 -3 1
1137 379 2 4.0999999999999998e-01 -4.2228259331145672e+00 -1.2853477372365083e+01 -1.4014605662171453e+01 -2 1 -3
1136 379 2 4.0999999999999998e-01 -2.9590120232219554e+00 -1.2300043998212338e+01 -1.4888259925247345e+01 -2 1 -3
503 168 2 4.0999999999999998e-01 -6.0412693805938815e+00 -1.3891088504347188e+01 -8.7224305834925175e+00 -11 -3 -1
1135 379 1 -8.1999999999999995e-01 -3.2257296455834723e+00 -1.2840092990352026e+01 -1.4089968889810498e+01 -2 1 -3
714 238 2 4.0999999999999998e-01 -1.9913414191588750e+00 -9.1562087506863339e+00 -8.2381470347500461e+00 -9 7 3
291 97 2 4.0999999999999998e-01 -1.3698277116026585e+00 -5.6870258337781383e+00 -8.7019938410306956e+00 -7 3 -2
289 97 1 -8.1999999999999995e-01 -4.2997873256774533e-01 -5.7420960086326360e+00 -9.0392043679901626e+00 -7 3 -2
448 150 1 -8.1999999999999995e-01 -2.6814680602949181e+00 -1.0039728508657049e+01 -9.5418315994928271e+00 3 -3 -2
1932 644 2 4.0999999999999998e-01 -5.3356687854414133e+00 -5.9460031450614572e+00 -9.6501849341626311e+00 -8 -8 -6
1930 644 1 -8.1999999999999995e-01 -5.1809038799416314e+00 -5.6312834059924377e+00 -1.0586699256386726e+01 -8 -8 -6
1598 533 2 4.0999999999999998e-01 -5.0114509225441317e-01 -1.2693567009258786e+01 -9.3702851536588234e+00 -3 -1 7
123 41 2 4.0999999999999998e-01 -6.7398001559827865e+00 -1.1600893347379776e+01 -1.3040097140458055e+01 -7 2 0
449 150 2 4.0999999999999998e-01 -3.6331511613278771e+00 -9.8177094022338220e+00 -9.7541204444135090e+00 3 -3 -2
840 280 2 4.0999999999999998e-01 -6.0189311167448718e+00 -8.0976221425804162e+00 -8.1043828994143166e+00 -5 3 0
2416 806 1 -8.1999999999999995e-01 -1.4168258798467708e+00 -7.6184350805504728e+00 -1.3686108931645483e+01 -5 -2 5
2417 806 2 4.0999999999999998e-01 -6.9106177757977072e-01 -6.9440451943676447e+00 -1.3822213722410325e+01 -5 -2 5
1931 644 2 4.0999999999999998e-01 -4.5010644146214727e+00 -6.2175784636711100e+00 -1.1027308112650037e+01 -8 -8 -6
2418 806 2 4.0999999999999998e-01 -1.0146745866424638e+00 -8.5313569636000004e+00 -1.3616053670414946e+01 -5 -2 5
745 249 1 -8.1999999999999995e-01 -3.1715811151615654e+00 -7.2654453826378864e+00 -1.1449480476909319e+01 -2 5 -3
747 249 2 4.0999999999999998e-01 -2.6902904080659535e+00 -7.1789453648423436e+00 -1.2321797376799216e+01 -2 5 -3
290 97 2 4.0999999999999998e-01 -4.1785840496297766e-01 -5.5635267503521764e+00 -1.0023087432733998e+01 -7 3 -2
746 249 2 4.0999999999999998e-01 -2.5736498236427945e+00 -7.7083592948208262e+00 -1.0781374793588490e+01 -2 5 -3
2383 795 1 -8.1999999999999995e-01 -6.4022414937172680e+00 -9.1537570187730815e+00 -1.0786142920781366e+01 -2 4 5
450 150 2 4.0999999999999998e-01 -2.5224911042530600e+00 -1.1013790918410049e+01 -9.7030411227474325e+00 3 -3 -2
2390 797 2 4.0999999999999998e-01 -5.1314795503908996e+00 -5.5348658628757530e+00 -1.3708785125055236e+01 -11 -1 0
1335 445 2 4.0999999999999998e-01 -2.9288912665830953e+00 -1.3080208884808689e+01 -1.0257229657616023e+01 -5 -7 0
456 152 2 4.0999999999999998e-01 -3.5270666397839712e+00 -1.1105856182759645e+01 -1.2285531993822936e+01 -5 -3 3
2389 797 1 -8.1999999999999995e-01 -5.7649987871488797e+00 -6.3069393214151503e+00 -1.3657640995915154e+01 -11 -1 0
1334 445 2 4.0999999999999998e-01 -4.3367440808767537e+00 -1.3903578482597965e+01 -1.0174774991877591e+01 -5 -7 0
1597 533 1 -8.1999999999999995e-01 -1.3803928774929499e+00 -1.3151809135513151e+01 -9.2399115395580189e+00 -3 -1 7
2391 797 2 4.0999999999999998e-01 -6.3779743094374854e+00 -6.1840009104423999e+00 -1.2877123915096082e+01 -11 -1 0
531 177 2 4.0999999999999998e-01 -4.6738732255257496e+00 -7.8787745331116010e+00 -1.4508945568356816e+01 -8 -3 1
2384 795 2 4.0999999999999998e-01 -6.3417681926901466e+00 -9.4077127932855724e+00 -9.8207884736087898e+00 -2 4 5
2385 795 2 4.0999999999999998e-01 -5.7806790889825717e+00 -9.7261933554439537e+00 -1.1320966804736884e+01 -2 4 5
454 152 1 -8.1999999999999995e-01 -4.4731803926734806e+00 -1.1022413427907546e+01 -1.1972537032414007e+01 -5 -3 3
1333 445 1 -8.1999999999999995e-01 -3.9244352996349470e+00 -1.3002850076036527e+01 -1.0311704150170852e+01 -5 -7 0
455 152 2 4.0999999999999998e-01 -4.6375115764638224e+00 -1.1672819881355657e+01 -1.1230899322667041e+01 -5 -3 3
824 275 2 4.0999999999999998e-01 -6.1797501994220951e+00 -1.0472151320264885e+01 -7.8891232657738657e+00 -4 -3 -3
1110 370 2 4.0999999999999998e-01 -3.8915809333732163e+00 -6.7331303023211539e+00 -7.7910696533991910e+00 -9 -6 4
1108 370 1 -8.1999999999999995e-01 -2.9480282957905821e+00 -6.4031565980302272e+00 -7.7613113634266035e+00 -9 -6 4
839 280 2 4.0999999999999998e-01 -6.5093650953196445e+00 -6.5449867984479919e+00 -7.9795475047626372e+00 -5 3 0
1605 535 2 4.0999999999999998e-01 -1.6524923985895690e-01 -9.1003914959871821e+00 -9.5656998822403843e+00 -8 -4 0
1046 349 2 4.0999999999999998e-01 -9.8425043944630524e+00 -1.2374388402446161e+01 -6.2570437193566804e+00 -7 -2 -4
1737 579 2 4.0999999999999998e-01 -1.1968158755413569e+01 -6.5370351461924709e+00 -6.8146314178535050e+00 -4 -3 3
1047 349 2 4.0999999999999998e-01 -1.0360857089975887e+01 -1.0910494193761167e+01 -6.7621279508235386e+00 -7 -2 -4
176 59 2 4.0999999999999998e-01 -7.5877105575115804e+00 -8.0755897210226983e+00 -1.9688075645281007e+00 -12 -5 0
1045 349 1 -8.1999999999999995e-01 -1.0041434861358665e+01 -1.1810551528578998e+01 -7.0586511303420485e+00 -7 -2 -4
281 94 2 4.0999999999999998e-01 -8.8465129798543174e+00 -1.2470459688456399e+01 -4.9005897279553086e+00 -7 -3 -1
280 94 1 -8.1999999999999995e-01 -9.1930360897506134e+00 -1.3379263261088141e+01 -5.1330926445856822e+00 -7 -3 -1
282 94 2 4.0999999999999998e-01 -8.4559395891873130e+00 -1.4049432496012662e+01 -5.0457902391959983e+00 -7 -3 -1
1086 362 2 4.0999999999999998e-01 -1.1486353679522393e+01 -1.1536231355766210e+01 -3.7315818600473243e+00 -7 -5 -1
158 53 2 4.0999999999999998e-01 -1.2898900879648437e+01 -1.4900964229683130e+01 -3.5470839712514248e+00 -9 1 -3
2233 745 1 -8.1999999999999995e-01 -1.2591100996241231e+01 -9.1020141940837185e+00 -3.1482696716037299e+00 -3 -1 1
157 53 1 -8.1999999999999995e-01 -1.2777185791302559e+01 -1.3969353206898086e+01 -3.8896421509608494e+00 -9 1 -3
2235 745 2 4.0999999999999998e-01 -1.3451064117914326e+01 -9.6061817148464357e+00 -3.0686560665540465e+00 -3 -1 1
420 140 2 4.0999999999999998e-01 -9.9090346374907181e+00 -1.4467557819866032e+01 -7.5551234002259271e-01 -11 3 0
1736 579 2 4.0999999999999998e-01 -1.1368527833544970e+01 -5.4044276365434083e+00 -5.8024906876534104e+00 -4 -3 3
2230 744 1 -8.1999999999999995e-01 -1.3750319821876644e+01 -1.3622287200466094e+01 -6.3833887802545064e+00 -2 0 1
1084 362 1 -8.1999999999999995e-01 -1.1017651384175029e+01 -1.2077695288116349e+01 -3.0335884930095727e+00 -7 -5 -1
1184 395 2 4.0999999999999998e-01 -1.1907595745050067e+01 -9.5676542655202894e+00 -4.6353685759520307e+00 -7 1 1
1183 395 1 -8.1999999999999995e-01 -1.1429643263596105e+01 -9.7559708418689866e+00 -5.4933651251686477e+00 -7 1 1
653 218 2 4.0999999999999998e-01 -1.4733431150902076e+01 -1.1263255527610902e+01 -2.3134625901014765e+00 -2 0 -3
1185 395 2 4.0999999999999998e-01 -1.0562835166374203e+01 -9.2574960949059761e+00 -5.5084131217197889e+00 -7 1 1
326 109 2 4.0999999999999998e-01 -9.4000626350868011e+00 -7.7142899289370446e+00 -5.1157168906052348e+00 -5 -6 4
2232 744 2 4.0999999999999998e-01 -1.3418127465396807e+01 -1.4333004110185698e+01 -7.0035415804007641e+00 -2 0 1
325 109 1 -8.1999999999999995e-01 -9.1849137560965968e+00 -8.4931507264716330e+00 -5.7049083464751504e+00 -5 -6 4
1735 579 1 -8.1999999999999995e-01 -1.2063912706599012e+01 -6.1145097718627142e+00 -5.9133194548134451e+00 -4 -3 3
438 146 2 4.0999999999999998e-01 -1.2382445212291714e+01 -1.2273681821770257e+01 -1.2342829092612639e-01 -5 2 2
2234 745 2 4.0999999999999998e-01 -1.2782207188332338e+01 -8.1212388529349404e+00 -3.1884933372252267e+00 -3 -1 1
2241 747 2 4.0999999999999998e-01 -1.3112579215823882e+01 -9.2148174765700901e+00 -6.6760618244083059e+00 -3 -1 -7
159 53 2 4.0999999999999998e-01 -1.3225994057111668e+01 -1.3879865732035094e+01 -4.7788119389967374e+00 -9 1 -3
1890 630 2 4.0999999999999998e-01 -1.1748172202762348e+01 -9.4266477234473243e+00 -1.6845723423714816e+00 -4 -5 1
1085 362 2 4.0999999999999998e-01 -1.1432047963218595e+01 -1.2986399849167965e+01 -2.9826839374799032e+00 -7 -5 -1
2240 747 2 4.0999999999999998e-01 -1.4434335025666474e+01 -8.4588371927759773e+00 -6.0859421408598511e+00 -3 -1 -7
1888 630 1 -8.1999999999999995e-01 -1.1317312172829064e+01 -9.9809553723266085e+00 -9.7241894745460833e-01 -4 -5 1
327 109 2 4.0999999999999998e-01 -8.3087938387044815e+00 -8.3346436126312895e+00 -6.1602644200531778e+00 -5 -6 4
1477 493 1 -8.1999999999999995e-01 -8.3011168484948392e+00 -6.2262448852146406e+00 -4.3629186644647291e+00 -5 -3 -1
177 59 2 4.0999999999999998e-01 -7.5079176183108034e+00 -7.4715511703972632e+00 -3.4839169221309447e+00 -12 -5 0
87 29 2 4.0999999999999998e-01 -9.6187115899439881e+00 -1.4019916150575190e+01 -3.1586922754277023e+00 -9 -1 4
1478 493 2 4.0999999999999998e-01 -8.2122785526132347e+00 -5.8903821729998995e+00 -5.3006626431496660e+00 -5 -3 -1
85 29 1 -8.1999999999999995e-01 -9.5060383082041380e+00 -1.4719594119735969e+01 -2.4531320430688481e+00 -9 -1 4
1878 626 2 4.0999999999999998e-01 -1.4496859458182657e+01 -6.7501390409762703e+00 -4.1000537621797655e+00 -8 -1 -3
2472 824 2 4.0999999999999998e-01 -8.7753229640339256e+00 -1.0022912968579639e+01 -4.7574926792917527e+00 -7 5 1
1479 493 2 4.0999999999999998e-01 -8.4997357567383816e+00 -5.4599724904239988e+00 -3.7518238103333967e+00 -5 -3 -1
2470 824 1 -8.1999999999999995e-01 -8.5052139718548432e+00 -1.0932395803496149e+01 -4.4413568259050749e+00 -7 5 1
1876 626 1 -8.1999999999999995e-01 -1.3554439373074668e+01 -6.5932797557263711e+00 -3.8045891730627996e+00 -8 -1 -3
2231 744 2 4.0999999999999998e-01 -1.4730096662879074e+01 -1.3747548674671725e+01 -6.2271623998634116e+00 -2 0 1
1889 630 2 4.0999999999999998e-01 -1.0760249960346247e+01 -1.0694748204077083e+01 -1.3969672579582344e+00 -4 -5 1
1835 612 2 4.0999999999999998e-01 -1.4014788513505678e+01 -1.3039037061952074e+01 -9.0034390000892728e-01 -9 2 0
1877 626 2 4.0999999999999998e-01 -1.2973762701151529e+01 -6.4479938931896523e+00 -4.6056924303820939e+00 -8 -1 -3
679 227 1 -8.1999999999999995e-01 -7.8024774599063944e+00 -1.1073188704723236e+01 -1.5481895951184086e+00 -3 -7 0
721 241 1 -8.1999999999999995e-01 -7.8579033115007224e+00 -7.1949509737995010e+00 -1.3485620426980383e-01 -3 -3 2
1834 612 1 -8.1999999999999995e-01 -1.4798344254213289e+01 -1.2619393051680399e+01 -1.3586004630023965e+00 -9 2 0
2239 747 1 -8.1999999999999995e-01 -1.3826288250397077e+01 -8.5432873440126773e+00 -6.8753767857637822e+00 -3 -1 -7
154 52 1 -8.1999999999999995e-01 -7.8906621074041841e+00 -5.3691005461411301e+00 -7.3774406751150936e+00 -5 -2 -3
890 297 2 4.0999999999999998e-01 -1.3116926260200140e+01 -1.2461123088652780e+01 -7.3447496927209350e+00 -6 -3 8
2471 824 2 4.0999999999999998e-01 -8.0681275094059863e+00 -1.0857528717255146e+01 -3.5450253793108111e+00 -7 5 1
681 227 2 4.0999999999999998e-01 -8.2303200624472943e+00 -1.1969724967327043e+01 -1.6632252478039931e+00 -3 -7 0
713 238 2 4.0999999999999998e-01 -2.1014159877961625e+00 -9.1965776967691895e+00 -6.6093315694825314e+00 -9 7 3
1271 424 2 4.0999999999999998e-01 -2.2513114810751134e-02 -8.7930833908267587e+00 -6.8771021899193290e+00 -11 3 0
680 227 2 4.0999999999999998e-01 -6.8192571851210388e+00 -1.1149302141670631e+01 -1.7141547338390684e+00 -3 -7 0
1814 605 2 4.0999999999999998e-01 -6.1492066666921072e+00 -1.4430528862605117e+01 -6.1066262319208775e+00 -4 1 -2
1156 386 1 -8.1999999999999995e-01 -8.8345306537755519e-01 -9.9167435164092446e+00 -3.6729332281387297e+00 -7 -1 -5
712 238 1 -8.1999999999999995e-01 -1.6980277856057402e+00 -8.7172684947746166e+00 -7.3888188594467410e+00 -9 7 3
115 39 1 -8.1999999999999995e-01 -1.6796834557403120e+00 -1.4602181386903553e+01 -2.8782871145799831e+00 -8 -6 -2
817 273 1 -8.1999999999999995e-01 -2.4285379486663512e+00 -1.2497395201609738e+01 -4.5241204915292776e-01 -4 -1 3
1324 442 1 -8.1999999999999995e-01 -2.3726839575753367e-01 -1.3257205700667370e+01 -5.0086642625875317e+00 -1 0 1
175 59 1 -8.1999999999999995e-01 -7.1026121425719051e+00 -8.1225362611887384e+00 -2.8420402476946869e+00 -12 -5 0
2378 793 2 4.0999999999999998e-01 -6.0463355670543404e+00 -9.5622112254399703e+00 -4.0155617424042269e+00 -9 -1 1
1699 567 1 -8.1999999999999995e-01 -6.1975254549504086e+00 -5.0178168950932704e+00 -9.3954058701364396e-01 -7 0 0
1815 605 2 4.0999999999999998e-01 -4.5791658312954304e+00 -1.4840675631775552e+01 -6.2897580299675013e+00 -4 1 -2
668 223 2 4.0999999999999998e-01 -1.2406703129233190e+00 -8.9464295791570052e+00 -5.2957231442929142e-01 -9 -5 -3
1521 507 2 4.0999999999999998e-01 -6.7940815738896969e+00 -1.4157468022856666e+01 -9.5956141385934934e-01 -8 3 3
2171 724 2 4.0999999999999998e-01 -5.3080586272944945e+00 -7.7500761909023144e+00 -2.4098439435618584e+00 -7 -5 -3
2146 716 1 -8.1999999999999995e-01 -1.2359102223744891e+00 -6.1068321243305004e+00 -2.1892311170647858e+00 -2 1 0
1519 507 1 -8.1999999999999995e-01 -6.4283596458633561e+00 -1.4434930397204939e+01 -1.8479992962141516e+00 -8 3 3
2512 838 1 -8.1999999999999995e-01 -2.4889780589663708e+00 -1.2215319275174577e+01 -6.5867843104591817e+00 -1 1 -1
2148 716 2 4.0999999999999998e-01 -2.2353825807198184e+00 -6.1176450447024084e+00 -2.1576423188094136e+00 -2 1 0
1386 462 2 4.0999999999999998e-01 -3.5075523954107659e+00 -8.2493493126655189e+00 -8.1269778357017586e-01 -5 -5 -1
1158 386 2 4.0999999999999998e-01 -8.2098185132788792e-01 -9.5475596338246120e+00 -2.7456466615408015e+00 -7 -1 -5
337 113 1 -8.1999999999999995e-01 -5.2992528609346206e+00 -1.1684240039080477e+01 -1.8041496987487591e+00 -11 0 3
2147 716 2 4.0999999999999998e-01 -8.7962647793871263e-01 -6.9321915163596302e+00 -1.7511631646420565e+00 -2 1 0
1813 605 1 -8.1999999999999995e-01 -5.2801197657903902e+00 -1.4167573615904747e+01 -6.5256754720988663e+00 -4 1 -2
2172 724 2 4.0999999999999998e-01 -4.4483646136542117e+00 -6.3663206746860315e+00 -2.2961218035752715e+00 -7 -5 -3
116 39 2 4.0999999999999998e-01 -1.1588948705711157e+00 -1.4080527582610062e+01 -3.5540950206027926e+00 -8 -6 -2
1571 524 2 4.0999999999999998e-01 -5.3468990297266927e+00 -1.2579689563296135e+01 -6.8236493485215952e+00 -4 -3 0
1325 442 2 4.0999999999999998e-01 -1.0850240938304356e+00 -1.3070626409259193e+01 -5.5052105559433802e+00 -1 0 1
1430 477 2 4.0999999999999998e-01 -3.8198379980015122e+00 -1.0174381045368644e+01 -4.8682108833777065e+00 -7 2 2
1570 524 1 -8.1999999999999995e-01 -5.1594393191978565e+00 -1.1639389438705907e+01 -7.1078224142554802e+00 -4 -3 0
818 273 2 4.0999999999999998e-01 -2.0551934247283974e+00 -1.2544375193985484e+01 -1.3789467228699905e+00 -4 -1 3
2379 793 2 4.0999999999999998e-01 -5.3475741940780015e+00 -1.0916260254821371e+01 -3.4281354595244906e+00 -9 -1 1
1572 524 2 4.0999999999999998e-01 -5.0767054069988617e+00 -1.1056981561506310e+01 -6.2991098995377008e+00 -4 -3 0
338 113 2 4.0999999999999998e-01 -5.2512143337653363e+00 -1.2677772729215537e+01 -1.7009758178564720e+00 -11 0 3
339 113 2 4.0999999999999998e-01 -4.5938185079272600e+00 -1.1255975384581625e+01 -1.2393386442688712e+00 -11 0 3
2377 793 1 -8.1999999999999995e-01 -5.3322270754593273e+00 -1.0245177432102654e+01 -4.1693993063833350e+00 -9 -1 1
2170 724 1 -8.1999999999999995e-01 -4.4438129563597588e+00 -7.3482952140259510e+00 -2.1070053053674851e+00 -7 -5 -3
1700 567 2 4.0999999999999998e-01 -6.3672715333306069e+00 -5.9513169192817372e+00 -6.2359165731367305e-01 -7 0 0
2513 838 2 4.0999999999999998e-01 -2.4352716467392597e+00 -1.1260615120809197e+01 -6.2940124141517515e+00 -1 1 -1
1429 477 1 -8.1999999999999995e-01 -2.9491401145635461e+00 -9.9093762991260945e+00 -5.2825989186549407e+00 -7 2 2
2514 838 2 4.0999999999999998e-01 -3.4427415427702126e+00 -1.2455251788607946e+01 -6.7679675725122230e+00 -1 1 -1
1431 477 2 4.0999999999999998e-01 -2.2544142784109322e+00 -9.8183683163205835e+00 -4.5690631317100685e+00 -7 2 2
667 223 1 -8.1999999999999995e-01 -4.5396183602712981e-01 -8.9101260990597861e+00 -1.1458770908659588e+00 -9 -5 -3
1109 370 2 4.0999999999999998e-01 -2.3839351035352720e+00 -7.0520438082032531e+00 -7.2506215974622990e+00 -9 -6 4
722 241 2 4.0999999999999998e-01 -7.8588883540261278e+00 -8.0587596924583167e+00 3.6902204694376906e-01 -3 -3 2
215 72 2 4.0999999999999998e-01 -9.5623056928525330e+00 -1.1903093547299122e+01 2.4345614286788315e+00 -6 -1 2
300 100 2 4.0999999999999998e-01 -9.8467663744937468e+00 -1.0414354283013381e+01 4.4533522034759105e+00 -9 -2 4
298 100 1 -8.1999999999999995e-01 -9.8657098480111962e+00 -1.0108971214940787e+01 5.4054247322422651e+00 -9 -2 4
214 72 1 -8.1999999999999995e-01 -9.6493793212817511e+00 -1.0961381181818936e+01 2.7596087531792275e+00 -6 -1 2
216 72 2 4.0999999999999998e-01 -1.0405704847042157e+01 -1.0512925116548171e+01 2.2832489596316083e+00 -6 -1 2
2009 670 2 4.0999999999999998e-01 -8.0175291656920997e+00 -1.0578652075881237e+01 1.9674505877228210e+00 -7 1 0
245 82 2 4.0999999999999998e-01 -1.2398601813848499e+01 -9.2795097083303890e+00 4.6663257682608847e+00 -5 -1 -2
299 100 2 4.0999999999999998e-01 -9.7782256190812014e+00 -9.1133052083395079e+00 5.4379126828142486e+00 -9 -2 4
2429 810 2 4.0999999999999998e-01 -8.5063394765875202e+00 -5.5119827211533625e+00 3.9040297497128176e+00 -6 0 1
982 328 1 -8.1999999999999995e-01 -1.0060857274035717e+01 -1.2762529259271997e+01 6.3291908665825449e+00 -2 -2 0
1756 586 1 -8.1999999999999995e-01 -1.0109030099704743e+01 -6.4421200149211888e+00 5.0578396508261516e+00 -6 -2 -2
1758 586 2 4.0999999999999998e-01 -9.5738853953000351e+00 -7.1268507678578530e+00 5.5526362880119837e+00 -6 -2 -2
48 16 2 4.0999999999999998e-01 -1.0954675619128107e+01 -6.8927970554229354e+00 3.4767913210575276e+00 -8 -5 5
244 82 1 -8.1999999999999995e-01 -1.3069577734636063e+01 -8.7178814019384028e+00 4.1821514969150559e+00 -5 -1 -2
984 328 2 4.0999999999999998e-01 -9.8910179447866913e+00 -1.3404583025175100e+01 5.5815403160067074e+00 -2 -2 0
1757 586 2 4.0999999999999998e-01 -1.0547139312320043e+01 -5.8252140828158954e+00 5.7117105544942479e+00 -6 -2 -2
46 16 1 -8.1999999999999995e-01 -1.1119200105620767e+01 -7.0629407917962439e+00 2.5051727811106996e+00 -8 -5 5
2187 729 2 4.0999999999999998e-01 -1.3291570025879379e+01 -1.3258962766801925e+01 4.5010740969533014e+00 -2 -5 0
2404 802 1 -8.1999999999999995e-01 -1.2538849699672440e+01 -6.1556143687866847e+00 6.3373872589238278e+00 -3 -4 -3
2405 802 2 4.0999999999999998e-01 -1.2864783642847453e+01 -5.2101913949641840e+00 6.3358878270439245e+00 -3 -4 -3
2406 802 2 4.0999999999999998e-01 -1.3203569967021618e+01 -6.7380940011925539e+00 5.8694938711017901e+00 -3 -4 -3
2185 729 1 -8.1999999999999995e-01 -1.3928603861686749e+01 -1.2510107358730790e+01 4.6840036969608274e+00 -2 -5 0
437 146 2 4.0999999999999998e-01 -1.1548438658254302e+01 -1.3512529646799312e+01 5.3723424599539804e-01 -5 2 2
1013 338 2 4.0999999999999998e-01 -1.1400283995005314e+01 -9.7591219205165949e+00 5.3034088370793775e-01 -7 0 2
983 328 2 4.0999999999999998e-01 -9.9411229616315921e+00 -1.1826437178375144e+01 5.9983508794140494e+00 -2 -2 0
184 62 1 -8.1999999999999995e-01 -1.4741382037527227e+01 -9.0655667670603286e+00 1.0416147437612775e+00 -7 -7 3
47 16 2 4.0999999999999998e-01 -1.0488536329825381e+01 -6.5117662990376513e+00 1.9587940867055931e+00 -8 -5 5
494 165 2 4.0999999999999998e-01 -1.3878291224660030e+01 -1.3997849286457344e+01 1.0112157845652963e+00 -11 -5 -1
274 92 1 -8.1999999999999995e-01 -9.0886221748811380e+00 -1.3983782558553711e+01 4.1083063198085750e+00 -2 -3 3
1014 338 2 4.0999999999999998e-01 -1.1220633447571458e+01 -8.7424826848614021e+00 1.7956298621281928e+00 -7 0 2
1012 338 1 -8.1999999999999995e-01 -1.1542138176870843e+01 -9.6465210783055575e+00 1.5138337421282291e+00 -7 0 2
246 82 2 4.0999999999999998e-01 -1.2678492287985936e+01 -8.4025879022553056e+00 3.3174538942135445e+00 -5 -1 -2
1768 590 1 -8.1999999999999995e-01 -8.5698991959741289e+00 -8.0977379246302430e+00 6.8091494718167258e+00 -3 -6 7
723 241 2 4.0999999999999998e-01 -8.6084998650395015e+00 -6.6191173495684978e+00 1.8930458671244921e-01 -3 -3 2
185 62 2 4.0999999999999998e-01 -1.3750176819507908e+01 -9.1980084185113906e+00 1.0360298115514137e+00 -7 -7 3
828 276 2 4.0999999999999998e-01 -1.4816879265141282e+01 -5.8984832454585661e+00 1.6771255087151093e+00 -8 -5 -4
436 146 1 -8.1999999999999995e-01 -1.2461690822203906e+01 -1.3159928433689332e+01 3.3302197020714708e-01 -5 2 2
2010 670 2 4.0999999999999998e-01 -7.8967301802038072e+00 -1.0677136349145343e+01 3.4187551235740266e-01 -7 1 0
732 244 2 4.0999999999999998e-01 -1.4925228745276652e+01 -8.7058154125534255e+00 4.9695043329679347e+00 -2 3 -2
276 92 2 4.0999999999999998e-01 -8.2110115031624478e+00 -1.3540842262570658e+01 3.9248310035595093e+00 -2 -3 3
493 165 1 -8.1999999999999995e-01 -1.4705874111368153e+01 -1.4557640096314634e+01 1.0536491663755729e+00 -11 -5 -1
481 161 1 -8.1999999999999995e-01 -9.7584971211657905e+00 -5.3553133143126903e+00 1.0610757862561098e+00 -8 -1 1
411 137 2 4.0999999999999998e-01 -1.2644560453246733e+01 -5.1378406287637315e+00 1.0054712963126313e+00 0 0 6
2008 670 1 -8.1999999999999995e-01 -7.5546761083655385e+00 -1.0213924249315406e+01 1.1594899264316272e+00 -7 1 0
418 140 1 -8.1999999999999995e-01 -1.0005348020712727e+01 -1.4344601771197945e+01 2.3224538747031254e-01 -11 3 0
2186 729 2 4.0999999999999998e-01 -1.3938238677507872e+01 -1.1882923321376264e+01 3.9051538275121249e+00 -2 -5 0
1302 434 2 4.0999999999999998e-01 -1.0832062908945982e+01 -1.4186800811761641e+01 3.9121977545929827e+00 -2 -2 -3
1769 590 2 4.0999999999999998e-01 -8.3682590911444592e+00 -9.0555192175172152e+00 7.0142251261877160e+00 -3 -6 7