2593
Atoms. Timestep: 18495000
O -4.47853 -10.8416 12.9864
H -5.41734 -11.1633 13.1095
H -4.20057 -10.3105 13.7868
O -8.04186 11.1197 1.84107
H -8.34021 11.5649 0.996844
H -7.75481 11.8142 2.50076
O 10.1225 -8.48677 2.58994
H 10.0611 -7.80591 1.86011
H 9.67122 -8.13701 3.41092
O 13.4749 -11.4419 10.9131
H 13.4744 -10.7994 11.6793
H 12.932 -12.2468 11.1527
O 0.0540659 9.56474 11.7978
H 0.499038 10.2946 12.3168
H 0.600923 8.72988 11.8607
O -1.20072 6.52742 -5.46033
H -2.17105 6.36243 -5.63706
H -0.957062 7.44646 -5.77016
O 4.73812 -8.51331 -2.42976
H 5.1189 -8.92267 -1.60065
H 3.78138 -8.78728 -2.52764
O -5.2861 -13.546 10.5255
H -4.72753 -14.318 10.829
H -5.47704 -12.9468 11.303
O -2.74248 -14.7437 0.91734
H -3.04116 -14.878 1.8622
H -2.73919 14.3001 0.440698
O -5.37688 5.21349 9.45797
H -4.5656 4.95809 8.93205
H -5.85292 4.38709 9.75874
O 8.44637 -4.68517 14.947
H 9.33515 -5.09263 -14.7661
H 8.16631 -4.95282 14.0251
O 9.20742 -12.7913 1.7679
H 8.92799 -13.5889 2.3024
H 8.92501 -11.9571 2.24156
O -1.47902 -0.54838 -10.0534
H -0.620859 -0.123644 -9.76507
H -1.54742 -1.46396 -9.65718
O -12.0442 5.38517 -12.5926
H -12.0813 5.72386 -13.5327
H -11.2073 4.85339 -12.4627
O 8.24657 -13.0971 -10.2342
H 8.12513 -13.9362 -9.70392
H 8.93033 -12.5181 -9.78999
O -11.7586 -8.45961 1.64546
H -11.9919 -7.99312 0.792274
H -12.0915 -7.92278 2.4207
O -12.9284 -2.45636 -10.7725
H -12.1875 -2.27203 -11.4184
H -12.9771 -1.71679 -10.1012
O -12.7037 -0.369295 -4.76188
H -12.8974 -0.227221 -3.79115
H -12.9733 -1.2961 -5.02337
O -4.31562 5.28759 3.34172
H -4.47009 4.46978 2.78735
H -4.31192 6.09468 2.7513
O -6.0359 -2.21679 -6.82426
H -5.93159 -1.43287 -6.21224
H -6.07804 -1.8973 -7.77091
O -5.05111 0.802302 13.6422
H -5.46916 0.501565 14.4994
H -5.44597 0.288545 12.8806
O 7.29921 0.717417 0.137756
H 7.96766 0.79605 0.877343
H 7.52449 1.36978 -0.585889
O 12.4086 -5.15863 -3.63218
H 13.0369 -4.43993 -3.93014
H 12.0229 -5.61719 -4.4328
O 2.77997 -11.4201 10.7461
H 3.14959 -12.3115 11.0082
H 1.95188 -11.2341 11.275
O 8.64184 8.85594 -11.4505
H 8.77792 9.06299 -10.4817
H 9.44617 9.14544 -11.9694
O 4.82409 -0.131045 7.25312
H 5.36283 -0.53647 6.51462
H 4.13036 0.475806 6.86523
O 3.52471 11.1432 -0.403696
H 4.12094 10.6279 -1.01925
H 3.5665 12.1151 -0.635425
O 4.91194 -0.751631 -11.6069
H 4.16992 -1.19677 -11.1057
H 4.52747 -0.119943 -12.2801
O -13.5914 14.3144 -0.483348
H -14.3253 14.1127 -1.13192
H -12.9431 14.9509 -0.901084
O 5.28351 11.4285 -8.80413
H 5.77756 11.1594 -7.97737
H 5.39223 12.4114 -8.95241
O -10.2698 3.46459 -3.90324
H -10.882 3.96211 -3.28872
H -9.74432 4.11652 -4.44995
O 11.978 -2.83349 4.9082
H 12.8668 -2.72772 4.46224
H 11.6026 -1.93148 5.1213
O 7.29725 -8.01921 -2.08263
H 6.42074 -8.24832 -2.50597
H 7.39324 -8.52057 -1.22273
O -8.48281 3.08622 5.62934
H -9.08709 3.88215 5.66592
H -8.99537 2.29348 5.29942
O -13.933 -10.7274 -13.1666
H -14.1299 -10.2164 -12.3299
H -12.9957 -10.5389 -13.4596
O -14.6846 13.28 -6.53337
H -14.8647 12.6964 -5.74149
H -13.7143 13.5209 -6.55603
O 4.65506 0.697224 0.763672
H 5.55294 0.832319 0.344697
H 4.75307 0.14388 1.59084
O -9.26786 0.891832 9.75372
H -10.0972 0.336883 9.68848
H -8.5247 0.439871 9.26033
O -2.52966 14.5456 -2.58814
H -1.63154 14.3436 -2.97876
H -2.89194 13.7261 -2.1441
O -5.21549 4.80925 -0.481886
H -5.97968 4.73252 -1.12229
H -4.92901 3.8955 -0.19379
O -8.83795 -10.3635 -11.869
H -9.59597 -10.8615 -11.4478
H -8.38427 -9.80049 -11.1782
O 2.5083 -8.00173 2.56953
H 1.53729 -8.1587 2.38927
H 2.96089 -7.71026 1.7268
O -4.94086 10.598 9.43866
H -4.88803 9.66783 9.80197
H -4.13296 11.1136 9.72394
O -1.22253 -5.30041 -4.0768
H -2.17007 -5.59962 -3.9644
H -1.12642 -4.36402 -3.73925
O 11.3793 -8.07903 -0.313211
H 11.2305 -9.00551 0.0324489
H 11.3638 -8.0898 -1.31303
O -10.4136 6.5724 -7.53272
H -11.3594 6.37509 -7.27503
H -10.2125 7.53499 -7.35111
O 5.83787 14.7213 -4.12769
H 4.86167 14.8626 -3.96319
H 6.15422 13.9332 -3.59962
O -3.86294 6.09042 -6.28042
H -4.08722 6.58171 -7.12204
H -3.8271 5.10865 -6.46704
O -2.11535 -5.6286 -14.3801
H -1.99896 -5.71821 14.5537
H -1.37795 -6.11577 -13.9123
O -13.6902 -5.64588 -10.8529
H -12.8406 -5.69546 -11.3781
H -14.4572 -5.91959 -11.4333
O 8.87022 -4.58437 2.77647
H 8.75093 -5.26238 3.50178
H 9.01554 -5.05141 1.90426
O -7.17182 -4.02906 -5.30481
H -6.54157 -3.46717 -5.84059
H -7.68284 -4.63264 -5.91681
O -11.837 -13.7927 -1.63043
H -10.8705 -13.8661 -1.38468
H -11.9232 -13.711 -2.62335
O 2.8289 10.4834 -9.60609
H 2.82202 9.80468 -10.3405
H 3.76825 10.7815 -9.43652
O 9.04809 -12.4088 -7.05706
H 8.90808 -12.5525 -6.0774
H 8.87892 -11.449 -7.28071
O -11.3103 1.70958 -5.94113
H -10.8218 2.30975 -5.30772
H -11.7183 0.95063 -5.43363
O 1.26719 11.3912 13.1735
H 1.44504 11.4892 14.1527
H 2.10038 11.5989 12.661
O 2.81639 -5.26288 -4.67791
H 3.14114 -6.19689 -4.82673
H 2.06065 -5.06912 -5.30346
O -7.92135 -7.73219 -2.74727
H -8.72234 -8.20354 -2.37815
H -7.52543 -7.14499 -2.04128
O -10.6636 9.47631 -7.98641
H -11.092 10.3798 -7.9964
H -10.7583 9.05254 -8.88722
O 3.66895 5.40124 -1.18693
H 3.36921 4.59325 -1.6942
H 4.44646 5.16058 -0.605946
O 14.1289 -9.00532 2.0363
H 13.8603 -9.67294 2.73069
H 13.509 -8.22134 2.07033
O -5.24062 8.58198 -12.356
H -5.16239 8.96469 -13.2765
H -5.19404 7.58426 -12.4047
O -13.3739 8.38426 0.966877
H -13.3122 8.96956 1.77533
H -14.0627 7.67568 1.1202
O 3.67658 -13.601 12.029
H 2.95555 -13.9743 12.6127
H 4.37604 -13.1689 12.5983
O -11.2736 1.95787 -1.63819
H -11.0603 2.55133 -2.41429
H -10.9494 2.38415 -0.793688
O -10.7644 4.47286 -9.41128
H -10.6715 5.35933 -8.95793
H -11.7323 4.22858 -9.47048
O 8.51289 7.29054 -14.6609
H 8.31893 6.39272 -14.2655
H 7.79865 7.93563 -14.3894
O -3.26977 -14.3877 14.1273
H -3.06789 14.6606 14.568
H -2.42979 -13.8502 14.0529
O 10.3386 9.79852 -2.65372
H 10.1076 8.82656 -2.61005
H 10.985 9.95423 -3.40071
O -9.62737 10.369 13.3179
H -10.2468 10.7333 14.0134
H -10.0988 10.3347 12.4367
O -11.525 -11.2997 4.32995
H -11.0084 -10.7049 4.94587
H -11.617 -12.2064 4.74153
O 11.9877 1.12305 -10.4749
H 11.1715 0.779943 -10.01
H 12.1336 2.08118 -10.2285
O -1.92976 -11.9463 12.2802
H -2.00445 -12.5355 11.4758
H -2.84041 -11.6331 12.5497
O 4.86545 -9.62654 -12.0603
H 4.89071 -9.14617 -12.937
H 3.95655 -10.0199 -11.9218
O 4.93329 -7.18274 1.01293
H 5.57317 -7.81669 0.578585
H 4.08091 -7.1594 0.490534
O 13.6751 6.03165 11.3199
H 13.2932 6.72448 11.9317
H 13.361 5.12598 11.6048
O 7.4564 -13.1541 -4.79929
H 6.99299 -14.0252 -4.63654
H 6.77938 -12.4533 -5.02389
O 0.824663 -1.90497 13.8059
H 1.50801 -1.28542 13.4196
H 0.41439 -1.48559 14.6157
O 13.8143 0.206331 -1.16975
H 13.3758 0.545117 -0.337334
H 14.8058 0.308528 -1.08941
O 10.7632 -13.5376 6.4322
H 11.5229 -13.1387 6.94578
H 9.95609 -12.9544 6.52411
O -14.5133 -11.2133 3.75993
H -14.6578 -12.1629 3.48153
H -13.5436 -11.0674 3.95602
O -1.81984 6.6516 -13.5282
H -2.55564 6.15028 -13.0729
H -1.44151 6.09173 -14.2654
O -14.2876 3.82352 -1.01751
H -13.9664 3.37676 -0.182484
H -13.5345 4.33333 -1.43351
O -3.81741 1.22932 -0.521706
H -4.00186 0.251587 -0.421677
H -3.02454 1.35975 -1.11697
O 2.74231 -0.653435 4.6372
H 1.80187 -0.321286 4.70961
H 2.73789 -1.59775 4.3082
O 1.49036 -6.36923 4.51409
H 0.572104 -6.74091 4.37752
H 2.12709 -6.81412 3.88428
O 3.17553 -2.8353 -13.2718
H 2.71152 -3.59089 -13.7342
H 2.67696 -2.59821 -12.438
O -5.43478 -10.9036 7.24832
H -6.07521 -10.9526 6.48187
H -5.09252 -11.82 7.45582
O -1.60804 1.8373 12.5962
H -1.02244 2.01822 11.8061
H -2.53368 2.16503 12.4071
O -13.3798 -9.75925 11.9663
H -13.6167 -10.0962 11.0551
H -13.6234 -8.79201 12.0378
O -11.2571 -13.5574 5.94226
H -10.5607 -13.7974 5.26596
H -10.97 -13.8786 6.84472
O -1.65515 -8.01127 7.89925
H -1.75988 -7.5292 8.7691
H -1.73983 -8.99596 8.05159
O -9.65409 -11.5826 -4.0603
H -8.9202 -10.904 -4.09043
H -10.415 -11.2762 -4.63222
O 7.8072 1.41403 -8.20191
H 7.64985 2.33608 -7.84827
H 6.95016 1.04366 -8.56011
O 1.23065 3.96955 -2.10336
H 0.792822 4.40036 -1.31424
H 1.30759 2.98508 -1.94559
O -0.029191 -5.2613 -10.2411
H -0.253964 -4.91808 -11.153
H 0.0614157 -6.25669 -10.2725
O 3.42874 2.72699 1.75942
H 2.52762 2.54417 2.15255
H 3.73165 1.93083 1.23563
O 10.7618 -2.70565 -2.68575
H 10.0133 -2.9047 -2.05313
H 10.9459 -3.51159 -3.2484
O -9.93953 -10.3384 2.05448
H -10.4091 -9.50522 1.76242
H -10.5144 -10.8342 2.70541
O 7.46974 -3.38678 -9.75606
H 7.29964 -2.58561 -10.3298
H 8.39305 -3.73009 -9.92824
O -6.5541 13.1633 12.6665
H -5.77525 13.5589 12.1797
H -7.22857 12.8349 12.0053
O 11.5239 1.38012 -13.7026
H 11.8889 0.450161 -13.6582
H 10.6846 1.43491 -13.1618
O -4.23057 9.93818 -8.58663
H -4.48149 9.26659 -9.28377
H -4.59377 9.65034 -7.7005
O -2.57074 12.3743 -10.2805
H -3.34931 12.0847 -10.8373
H -2.90213 12.8521 -9.46693
O 5.86951 -5.14738 -13.8388
H 5.18863 -4.9547 -14.5454
H 6.75094 -4.76158 -14.1112
O -11.6435 7.6689 -10.6725
H -11.9565 7.00288 -11.3496
H -11.3173 8.49079 -11.1395
O 7.6418 3.20085 11.5414
H 6.67812 3.45047 11.4465
H 7.9525 2.74742 10.706
O -9.11646 -6.98072 -5.66459
H -8.65724 -7.33998 -4.85216
H -9.74325 -6.24894 -5.39696
O -3.83044 5.68447 -11.6609
H -3.36597 6.32081 -11.045
H -3.5371 4.75024 -11.4581
O -5.16879 -3.62352 -12.0398
H -4.32171 -3.84831 -11.5582
H -5.83989 -4.34968 -11.8904
O -13.8558 -13.5876 -12.7852
H -14.0702 -13.8724 -11.851
H -13.8938 -12.5902 -12.8467
O -4.71559 -10.7844 -2.89631
H -5.03735 -10.2884 -2.08981
H -4.48587 -11.7234 -2.64044
O 4.05027 10.5006 -13.2911
H 3.17023 10.7246 -13.7098
H 4.36862 11.2778 -12.7484
O -4.82861 -6.0825 10.2662
H -4.4292 -6.99635 10.3394
H -4.8746 -5.66525 11.1739
O -0.838533 -4.2381 0.279841
H -1.32718 -3.74722 -0.441452
H -0.268598 -3.59613 0.792723
O -2.17849 2.15249 3.97339
H -2.60289 2.0682 4.87493
H -1.66358 1.32016 3.76826
O 8.07644 -1.78446 -14.1467
H 8.45363 -0.927382 -14.4976
H 8.07047 -2.46912 -14.8755
O 8.05944 11.8119 14.8916
H 7.96646 11.4824 13.9521
H 8.71663 11.2395 -14.5409
O -8.58232 11.0439 -6.15561
H -7.92294 10.6296 -6.78296
H -9.30473 11.4937 -6.68071
O 13.214 -4.03424 -11.9172
H 13.431 -3.14907 -12.3288
H 12.3819 -3.95182 -11.3688
O 4.07959 -5.32985 13.7701
H 4.14901 -5.88914 12.944
H 3.12358 -5.27931 14.059
O -10.3718 1.11093 5.04643
H -10.3964 0.62141 5.91807
H -11.1118 1.78305 5.02066
O 1.91445 5.21815 8.08559
H 1.32825 5.84468 8.59923
H 2.61624 5.74017 7.60084
O 6.3778 -1.07007 5.24059
H 6.75152 -1.75021 4.60993
H 7.11698 -0.487935 5.57932
O -2.15713 -3.63859 7.88881
H -1.67697 -4.29652 7.30867
H -3.11846 -3.90261 7.9671
O -7.21112 7.78042 -10.3251
H -6.86867 8.17224 -11.1791
H -7.65491 6.90457 -10.5147
O 5.95856 3.87391 5.18631
H 4.96685 3.99789 5.15262
H 6.2902 3.5935 4.28555
O -2.12527 -14.5998 7.50417
H -1.15506 -14.7527 7.31632
H -2.67047 -14.9355 6.73603
O -14.651 0.178789 3.12265
H -14.4605 1.13747 3.33387
H -14.0413 -0.129175 2.39233
O 4.00878 -12.987 -10.1378
H 4.61051 -12.6804 -10.8753
H 3.50204 -13.796 -10.4357
O 3.04171 1.49562 -3.0033
H 2.56335 1.13979 -3.80614
H 3.26316 0.741004 -2.38564
O 11.642 14.1677 -4.00028
H 11.0354 14.9191 -3.74061
H 11.9133 14.2737 -4.95693
O 6.42334 -9.36404 0.364199
H 6.88111 -9.24343 1.24504
H 5.54162 -9.81411 0.505656
O 10.5525 -1.52043 -6.91949
H 11.4197 -2.00115 -7.04915
H 9.80251 -2.18182 -6.91308
O 2.14668 3.37412 -9.3434
H 1.60836 3.13089 -10.1503
H 1.57247 3.3082 -8.52735
O -12.4544 -6.75303 -0.405931
H -13.0919 -6.44906 -1.11386
H -11.5909 -6.25744 -0.499887
O -11.3872 -10.0707 -14.3201
H -11.2384 -9.10696 -14.0984
H -10.5116 -10.5013 -14.539
O 8.07041 3.33156 -1.43953
H 8.77639 3.26851 -0.734118
H 8.27161 2.6807 -2.17158
O -13.4114 -13.7615 1.51031
H -12.4962 -13.362 1.56406
H -13.3916 -14.5601 0.908866
O 10.147 -2.09035 11.3393
H 10.8738 -2.3778 10.7155
H 9.79468 -2.88709 11.8303
O 2.29993 -9.56022 -3.14016
H 2.34811 -9.75199 -4.12041
H 1.35424 -9.35714 -2.88634
O -3.64366 -1.49571 2.46964
H -3.34964 -2.43905 2.62342
H -3.62017 -1.29471 1.49033
O -8.59035 4.9526 -5.50432
H -7.99745 5.39138 -4.82908
H -9.22932 5.62667 -5.87491
O -11.0216 -3.38233 8.83867
H -10.75 -2.63257 9.44207
H -10.7995 -4.25589 9.27177
O 14.0138 -12.5662 1.01051
H 14.8066 -13.1005 1.30342
H 14.3187 -11.677 0.669351
O -9.76097 -0.173641 -0.57076
H -10.5971 0.274938 -0.886542
H -9.99541 -1.03076 -0.112084
O -0.247631 -14.7619 4.67488
H -0.490948 14.4318 4.03532
H 0.0626847 14.759 5.53633
O 12.4699 -12.2326 -7.08972
H 12.7375 -13.1764 -7.2836
H 11.4729 -12.1718 -7.04215
O -2.4741 -9.72772 -9.06231
H -1.83812 -10.4662 -8.83828
H -3.35066 -10.1171 -9.34519
O 14.3019 9.89738 7.5585
H 14.156 9.27816 8.33004
H 14.4229 10.8302 7.89801
O -5.23068 -10.684 -10.0164
H -5.21559 -11.426 -9.34616
H -4.76256 -10.978 -10.8497
O -7.35966 0.262089 -5.99596
H -7.72849 0.852257 -5.27787
H -7.53752 0.673733 -6.88978
O -8.45305 -7.94679 14.1505
H -7.64445 -7.91284 13.5631
H -8.6263 -8.89271 14.4247
O 12.4977 13.6557 9.78323
H 12.1351 13.3246 8.91208
H 13.3475 14.1574 9.62146
O -11.5377 -7.12804 -14.3896
H -11.4006 -6.22516 -14.7971
H -11.3511 -7.08266 -13.4082
O 1.01474 3.64174 4.6594
H 1.79265 4.24179 4.47287
H 0.165365 4.11439 4.42455
O -8.30586 9.00229 9.90845
H -7.50193 8.56306 10.3094
H -8.01429 9.66619 9.21981
O 5.16117 4.39251 -11.8375
H 5.70789 3.5663 -11.9734
H 4.95112 4.49703 -10.8654
O -6.14797 7.62464 10.4491
H -5.9036 6.74098 10.0499
H -5.46587 7.88103 11.134
O -10.3446 -4.90663 -0.674176
H -10.7331 -4.03909 -0.984704
H -9.66509 -4.73152 0.0383044
O 14.6455 -6.89106 9.15558
H -14.7023 -6.34046 8.55058
H 14.5048 -6.40297 10.017
O 2.38176 -10.3289 -6.13334
H 2.97257 -10.6905 -6.85461
H 1.71266 -9.70253 -6.53327
O -2.27441 11.6965 5.43637
H -3.11026 12.2355 5.33246
H -2.46345 10.7411 5.20917
O 12.1678 -12.8181 -0.935747
H 12.5363 -12.5976 -0.032657
H 12.2471 -13.8018 -1.09709
O -12.3408 9.21336 3.46057
H -11.5376 8.66443 3.69205
H -12.99 9.19123 4.22083
O 4.09991 5.6035 11.8038
H 4.07859 6.1861 12.6163
H 4.78644 5.94884 11.164
O -10.3343 -11.1512 -7.59984
H -10.8973 -10.9805 -6.79124
H -9.82138 -10.3241 -7.82952
O 11.4038 14.1616 -6.84742
H 10.451 14.3139 -7.1102
H 11.6554 13.2134 -7.0409
O -11.4645 -11.9246 13.0769
H -11.989 -11.3154 12.4822
H -11.6988 -11.7414 14.0316
O -8.00318 1.26327 0.851583
H -8.56355 0.595229 0.361976
H -7.67362 0.860077 1.70529
O -8.47848 -1.81406 11.175
H -9.44296 -1.58056 11.0515
H -8.33695 -2.77741 10.9471
O 1.19662 -8.15515 8.15569
H 0.230695 -8.22906 7.90767
H 1.75231 -8.12034 7.32503
O 12.8815 -12.6464 7.92449
H 13.8069 -12.5379 7.56153
H 12.7301 -11.9812 8.65559
O -5.29398 2.44551 -13.6486
H -5.58022 1.5249 -13.9142
H -4.40482 2.64929 -14.0583
O 11.8912 8.91185 6.17057
H 12.6292 9.27391 6.74002
H 11.3439 8.26729 6.70439
O -4.49185 -9.36916 -14.7874
H -3.57966 -9.1992 -14.4146
H -5.07907 -8.58077 -14.6041
O 14.3528 -13.4412 -2.99323
H 14.9337 -12.9891 -2.31634
H 13.5579 -13.8407 -2.53664
O -14.671 -9.41593 -10.8439
H 14.5438 -9.71828 -10.2059
H -13.7823 -9.42763 -10.3854
O 3.62307 -14.6369 -7.71679
H 4.443 -14.244 -8.13311
H 3.88923 14.6034 -7.03622
O 11.3842 13.0829 7.38153
H 11.0737 12.1323 7.37513
H 11.8523 13.2864 6.52162
O 4.53729 4.66621 -9.29497
H 5.1401 4.44022 -8.52976
H 3.77866 4.01539 -9.32514
O -13.8593 8.16177 -8.59434
H -14.6489 7.68461 -8.98009
H -13.0762 8.06041 -9.20791
O 5.75709 0.645761 9.78229
H 5.37487 0.621935 8.85853
H 5.70559 -0.266805 10.188
O 9.30513 -6.23368 0.708092
H 8.61237 -6.159 -0.00919944
H 10.0507 -6.82014 0.391628
O -4.96122 6.93702 1.24394
H -5.26279 6.09548 0.795765
H -3.98386 7.07036 1.07962
O -8.04996 -14.3168 10.5275
H -7.33696 -13.7109 10.1747
H -7.71534 14.6638 10.53
O -9.19449 1.2452 -11.6594
H -8.53261 0.585124 -11.3042
H -8.72888 2.10563 -11.8664
O 12.3135 -14.9305 4.73628
H 11.7734 -14.4727 5.4425
H 11.9481 -14.6988 3.83472
O -1.2762 13.6091 11.4591
H -1.09912 13.3855 12.4176
H -2.06721 13.0895 11.1363
O 0.717375 14.9079 7.50467
H 0.854331 14.5934 8.44397
H 1.54289 -14.5497 7.18529
O 9.94002 -4.94015 11.6101
H 9.20792 -5.47897 12.0269
H 10.251 -5.39112 10.7735
O 7.81792 11.8561 12.1494
H 8.78432 12.005 11.9398
H 7.25378 12.373 11.5054
O -2.64884 9.44386 2.60263
H -2.24341 8.69079 2.08444
H -2.5708 9.25491 3.58151
O 7.40484 -1.35507 -11.5081
H 6.47139 -1.01825 -11.6314
H 7.84677 -1.44675 -12.4004
O 6.0782 -1.67733 11.0931
H 6.91823 -1.26007 11.4398
H 5.59986 -2.13566 11.8422
O 1.43519 1.43179 3.19669
H 1.27057 2.24275 3.75814
H 0.624445 0.84655 3.21064
O -9.55922 5.95845 2.30932
H -9.17433 6.79411 2.70114
H -8.88754 5.22036 2.373
O -7.1111 -10.7524 4.93321
H -7.72014 -11.2586 5.54386
H -7.17483 -11.1312 4.00991
O -10.5088 12.818 10.2036
H -10.8317 12.6129 9.27964
H -11.2935 12.956 10.8079
O 11.7377 -7.7432 14.8276
H 12.0011 -8.50708 -14.5062
H 12.5214 -7.46508 14.2721
O -9.04762 3.04675 14.4442
H -8.9335 2.40185 13.6885
H -9.98949 3.00612 14.7777
O 5.72785 10.5018 1.23484
H 4.86069 10.757 0.80717
H 6.13808 9.74269 0.729431
O -10.5229 -5.8025 10.2926
H -9.64575 -5.4418 10.6096
H -10.8529 -6.49131 10.938
O 0.453348 -10.6307 12.6472
H 0.305578 -9.81536 12.0873
H -0.406239 -11.1337 12.7368
O -12.1699 10.3156 -1.09171
H -12.5539 10.1507 -2.00022
H -12.6459 9.74725 -0.420551
O 12.791 10.1727 13.8185
H 12.0377 10.7283 14.1705
H 13.0779 10.5259 12.9281
O 1.9367 3.7683 -4.93603
H 1.84397 3.79078 -3.94059
H 2.04076 4.70066 -5.28223
O 8.85252 -3.06142 -0.945135
H 8.09111 -2.48542 -0.647697
H 8.51205 -3.97471 -1.1687
O -10.8975 14.3097 14.4536
H -10.6951 14.4836 13.4899
H -10.1475 14.6532 -14.9041
O -13.6547 10.0047 -3.30301
H -13.2672 9.42999 -4.02381
H -14.5439 10.3546 -3.59765
O -12.1743 -3.9617 12.5333
H -11.2414 -4.02546 12.1788
H -12.1489 -3.91389 13.5318
O 6.28949 -11.5364 -2.03778
H 7.0631 -11.3131 -1.44476
H 6.59116 -11.5422 -2.99117
O -2.62352 3.24607 -14.016
H -2.7614 3.57297 -14.951
H -1.71508 2.83559 -13.937
O -13.3926 9.22441 -6.18565
H -13.4132 8.71592 -7.04646
H -12.5585 9.77449 -6.1434
O -11.2474 -1.08992 11.0392
H -11.5656 -1.53081 11.8785
H -12.0218 -0.66194 10.5733
O -3.43322 2.98165 -11.4115
H -3.80587 2.05951 -11.3076
H -3.32894 3.19142 -12.3837
O -13.4397 -10.7933 -4.0266
H -13.7975 -10.9835 -3.11238
H -14.0387 -11.2076 -4.71183
O 8.08705 -5.54659 -1.58766
H 7.70782 -5.06563 -2.37815
H 7.81715 -6.50886 -1.62201
O -0.228485 3.28379 7.89773
H 0.644082 3.77217 7.90773
H -0.0628531 2.30836 7.75244
O -12.9752 -6.12498 -8.2689
H -13.6957 -6.47702 -7.67142
H -13.2899 -6.14477 -9.21789
O 0.822434 13.7037 -13.7518
H 1.47147 14.4603 -13.8316
H 0.0490431 13.9865 -13.1844
O -2.96426 -8.08122 -0.78789
H -2.62004 -9.00366 -0.962871
H -3.73372 -8.12786 -0.150901
O -9.86164 -14.5034 8.22054
H -9.62018 14.4603 8.07432
H -10.19 -14.3813 9.15717
O -0.250163 -13.3569 13.8426
H 0.250139 -14.0676 13.348
H -0.731472 -12.7723 13.1896
O -4.67001 -4.48651 8.02711
H -4.42587 -5.10738 8.77204
H -5.66167 -4.4939 7.89852
O -9.0264 -14.0957 4.37671
H -9.32795 -13.9832 3.42993
H -8.02769 -14.0622 4.41465
O -7.42722 4.0762 2.70594
H -6.76763 3.76305 2.02266
H -7.16253 3.7323 3.60687
O 13.0264 6.27747 -14.6679
H 13.0937 5.29894 -14.8627
H 12.6519 6.75101 14.4578
O -10.4476 -0.196681 -14.4466
H -9.80132 0.500531 -14.1364
H -11.3443 0.221268 -14.5923
O -4.85285 -12.4104 3.09456
H -4.62108 -11.6696 3.72497
H -5.84391 -12.4395 2.96439
O -5.81584 -1.31836 -11.276
H -5.7034 -2.26288 -11.5846
H -6.77889 -1.14835 -11.0672
O 9.77715 6.84791 13.009
H 9.18086 6.69962 12.2201
H 9.22091 6.93599 13.8354
O 11.0107 7.40012 -9.76153
H 11.6554 8.00275 -9.29126
H 11.5145 6.76476 -10.3468
O 14.7505 0.781145 6.60808
H -14.3698 0.198223 6.73465
H 14.1394 0.682022 7.39337
O 9.05076 -2.09691 8.34029
H 8.96913 -2.86637 8.97374
H 9.49068 -1.3282 8.80456
O 3.639 12.0629 12.4168
H 4.36035 11.372 12.4661
H 3.87725 12.7448 11.7253
O -2.62549 -8.49456 -6.37612
H -2.37476 -9.2853 -5.81768
H -2.76821 -8.78624 -7.32192
O 8.35658 -3.37771 -6.92195
H 7.80938 -3.46957 -7.75389
H 8.43438 -4.26844 -6.47412
O -14.5481 -4.25559 11.0739
H -13.6869 -3.98857 11.5064
H 14.8229 -4.77743 11.7244
O -9.7594 -9.05239 -1.2223
H -9.74926 -9.99063 -0.876477
H -9.45204 -8.42886 -0.503452
O 2.36201 -3.04979 3.44686
H 1.55339 -3.53482 3.77984
H 3.17362 -3.61545 3.59283
O -13.0635 -0.20431 -9.35977
H -12.9146 0.518434 -10.0347
H -14.0289 -0.223528 -9.09949
O 14.5115 -9.08669 5.37192
H 14.5441 -9.95996 4.88577
H -14.5867 -8.9838 5.92802
O 10.0215 2.82515 0.347444
H 10.5087 3.58293 0.781461
H 10.2748 1.96685 0.793714
O -13.7155 3.88847 -5.79728
H -13.2043 3.0637 -6.03904
H -13.1717 4.69629 -6.02455
O 5.73309 5.6945 9.31089
H 5.83944 6.40981 8.62023
H 5.1932 4.9429 8.93193
O -5.97555 8.38837 3.71902
H -6.15793 8.04139 4.63898
H -5.1709 7.92891 3.34293
O -3.42899 -7.91366 -11.3013
H -3.43753 -8.10896 -10.3206
H -2.79343 -8.53511 -11.7594
O 11.3063 -5.16362 -14.4278
H 11.7496 -4.80929 14.6717
H 11.4197 -6.15641 -14.3892
O -8.61712 14.8733 0.51512
H -7.65671 -14.7784 0.451632
H -8.80343 14.1488 -0.148534
O 2.13836 6.28579 -5.70942
H 1.30754 6.60686 -6.16401
H 2.52686 7.02736 -5.16248
O 14.0928 -9.52297 9.14281
H 14.2324 -8.61297 9.5332
H 13.6878 -10.123 9.83263
O 14.1021 2.94319 9.4855
H 13.2426 3.40681 9.70075
H 13.9075 2.07886 9.02175
O -13.5176 4.30078 -10.3474
H -13.5435 3.30361 -10.4179
H -13.2987 4.69257 -11.241
O 9.52567 -11.5934 -14.802
H 10.2794 -11.0266 -14.4694
H 9.41619 -12.3871 -14.2036
O -8.53895 -3.62869 -9.22829
H -9.49825 -3.75549 -8.97599
H -8.15553 -4.50152 -9.5302
O -7.7857 -4.5725 10.2131
H -7.26537 -5.08953 10.8928
H -7.36267 -4.68415 9.3139
O 3.35662 -10.392 0.765549
H 2.94184 -10.9103 0.0176642
H 2.67596 -10.2376 1.48168
O 0.262269 -5.85241 -6.07219
H 0.0804766 -4.97484 -6.51583
H -0.339594 -5.95664 -5.28042
O -10.9554 -1.19487 3.41095
H -10.875 -0.371891 3.9733
H -11.2807 -1.95369 3.97522
O -4.77991 1.1907 -8.59749
H -5.76225 1.03465 -8.70076
H -4.30881 0.915637 -9.43558
O 2.54712 -6.55308 -12.4871
H 3.17554 -6.25718 -13.2064
H 2.90423 -6.27219 -11.5962
O -2.01045 8.38161 -2.32093
H -2.57312 8.95717 -2.91434
H -2.48938 7.52307 -2.13784
O -6.17307 4.78996 -8.9509
H -7.15798 4.65702 -8.8401
H -5.76245 3.95316 -9.31304
O 7.21673 -1.36304 -5.04561
H 7.17623 -1.84892 -5.9187
H 8.08637 -0.874281 -4.97619
O 11.7896 -10.614 -13.7835
H 12.1996 -11.5228 -13.7064
H 12.0381 -10.0673 -12.9839
O 9.09471 0.574461 -14.9528
H 10.0441 0.880257 -14.8816
H 8.48314 1.32511 -14.7028
O 3.83332 -0.665417 -14.6797
H 3.13202 -0.0342696 -14.3483
H 3.78841 -1.51735 -14.158
O 11.705 13.0758 14.1671
H 12.6706 13.1188 14.4234
H 11.1435 13.0146 -14.9305
O -4.96984 0.282375 4.48085
H -4.37276 0.517643 5.24775
H -4.45558 -0.251442 3.8096
O 3.50244 2.24131 5.66337
H 3.73366 1.44258 5.10788
H 2.72004 2.71406 5.25797
O -4.26754 -13.4088 -2.55035
H -3.34772 -13.7918 -2.46533
H -4.87198 -14.084 -2.97313
O 14.917 -4.02866 14.8823
H -14.4954 -3.33587 14.373
H 13.9367 -3.85172 14.7946
O -7.05625 -7.50946 -7.60885
H -6.57323 -8.29577 -7.22361
H -7.83193 -7.27499 -7.02291
O -14.2524 -6.83443 1.78856
H -14.6928 -7.71807 1.94736
H -13.8471 -6.82351 0.874458
O -5.98414 12.4206 -5.54509
H -5.98869 11.4668 -5.24483
H -5.38426 12.9547 -4.94938
O 5.32342 -10.8165 7.43033
H 4.95475 -11.2688 6.61828
H 5.83189 -11.4797 7.97944
O 6.77175 8.05347 0.602764
H 7.62948 8.15063 1.1076
H 6.69949 7.12267 0.244435
O -5.32352 -5.30221 -7.88752
H -5.47641 -4.36338 -7.57896
H -6.14321 -5.84793 -7.71348
O -3.82218 -14.4448 5.08289
H -3.92149 -13.4789 4.84367
H -3.96925 14.9163 4.26882
O -6.65716 -0.959825 -1.37139
H -7.38965 -0.28 -1.33552
H -7.00591 -1.80446 -1.77754
O -11.2156 11.5402 -14.592
H -10.9379 12.4237 14.9538
H -11.3343 11.6226 -13.6025
O -12.2729 -13.1874 -7.19394
H -11.3626 -12.7736 -7.18356
H -12.4735 -13.5743 -6.29389
O 12.6692 -9.846 13.1839
H 11.8832 -10.3727 13.5078
H 13.3043 -9.69505 13.9415
O -8.01818 4.44077 -1.54044
H -8.79302 4.86333 -1.07027
H -7.81481 3.55671 -1.11964
O 14.7571 -3.56002 6.34669
H 14.4942 -4.50708 6.16249
H 14.9398 -3.09076 5.48273
O 6.06987 -12.4715 -11.9855
H 5.9672 -11.4945 -12.1724
H 6.88805 -12.6204 -11.4301
O 8.10678 10.7292 -1.18564
H 8.26061 10.9083 -0.213914
H 8.92761 10.3188 -1.58295
O 8.98381 12.9728 -4.70419
H 9.79413 13.437 -4.34654
H 8.35477 12.7738 -3.95271
O -3.93236 13.6339 2.82889
H -3.26979 13.0831 2.3213
H -4.60789 13.0328 3.25594
O 1.55994 7.42748 12.1432
H 1.96717 7.08771 12.991
H 1.00992 6.70481 11.7246
O 12.9715 5.72531 -11.2857
H 12.8974 4.81473 -10.8791
H 12.442 5.75585 -12.1335
O -1.34978 -5.70864 12.9608
H -0.518741 -6.23922 13.1277
H -1.10498 -4.75989 12.761
O -4.22852 -13.07 7.99421
H -4.58608 -13.2521 8.91016
H -3.36235 -13.5546 7.87206
O 9.70068 9.63461 -14.3934
H 10.6092 9.58959 -13.9779
H 9.38445 8.70969 -14.6044
O -13.6277 -10.8204 -7.57387
H -13.33 -11.7747 -7.54871
H -14.1916 -10.6259 -6.77126
O 9.98395 14.8623 10.3826
H 9.9675 13.9339 10.7539
H 10.65 14.9119 9.63836
O 4.16112 3.61084 7.8797
H 4.13635 2.84459 7.23763
H 3.23514 3.9641 8.01296
O -13.6551 -9.65644 7.47605
H -13.373 -8.6977 7.44087
H -14.4234 -9.75482 8.1085
O 1.63509 14.7374 13.1037
H 1.64723 13.7775 12.8237
H 2.03557 14.8236 14.016
O -0.492023 3.63482 -7.55219
H -0.897898 3.44883 -6.65738
H -0.614217 4.60099 -7.77929
O -8.25558 11.9715 -10.486
H -8.16237 12.1444 -11.4665
H -8.14494 12.8294 -9.98425
O -7.67706 6.39641 -3.44851
H -8.16976 7.17437 -3.05862
H -7.94833 5.55866 -2.97459
O 7.368 -8.45761 6.77278
H 8.26082 -8.8067 7.0574
H 6.68241 -9.17947 6.86695
O 4.83493 13.1114 -12.3495
H 5.64282 12.5239 -12.3962
H 5.05932 14.0162 -12.7115
O 10.3448 -2.88741 -12.9264
H 9.50276 -2.54635 -13.3442
H 10.4689 -3.85057 -13.1649
O -11.9777 5.35969 -2.23318
H -12.5579 5.85568 -2.87928
H -11.8084 5.93144 -1.43044
O 2.81019 -11.7715 -1.39413
H 2.84703 -10.9558 -1.9715
H 3.67009 -12.2756 -1.47418
O -5.62171 9.70839 -5.71351
H -5.81115 8.92122 -5.1266
H -6.29411 9.74235 -6.45291
O 14.4195 -2.93647 -4.67174
H 14.2338 -2.49903 -5.5516
H -14.5644 -3.28028 -4.66202
O -0.395266 -1.35119 -13.5646
H -1.03372 -0.944318 -14.2179
H 0.050122 -0.626724 -13.0385
O -11.2049 -13.967 -12.0471
H -11.0041 -13.1711 -11.4759
H -12.1186 -13.8718 -12.4422
O 9.23121 -9.76253 8.14142
H 10.108 -9.58113 7.69615
H 9.21733 -9.32542 9.04072
O -6.74486 -11.452 -0.134528
H -6.52556 -10.4834 -0.251973
H -7.47317 -11.7083 -0.77004
O -5.28183 11.1003 -11.1245
H -6.20527 11.4304 -10.9288
H -5.33271 10.1848 -11.5236
O 1.45279 12.5718 -6.06949
H 0.873037 12.0837 -5.4171
H 0.901023 13.2362 -6.57362
O -7.51779 6.54788 -13.7829
H -8.20199 6.60343 -14.5101
H -7.95578 6.24835 -12.9353
O 14.5619 8.66748 -14.4912
H 14.0014 9.28751 14.8827
H 14.0693 7.80851 -14.3514
O -6.95802 -8.04335 7.22897
H -6.94162 -8.29879 8.19565
H -6.53545 -8.76857 6.68537
O -12.1509 7.16584 11.2883
H -12.7295 7.59537 11.9816
H -12.5543 6.29386 11.011
O 8.80764 14.7477 -7.85605
H 8.11786 14.0725 -7.59458
H 8.56973 -14.2866 -7.46394
O 4.6685 3.19379 -4.98095
H 3.71945 3.40791 -5.21215
H 4.71643 2.86985 -4.03609
O -0.477551 -7.20945 -0.827604
H -1.44707 -7.39277 -0.99013
H -0.376327 -6.31782 -0.386315
O -2.28268 7.54717 -10.43
H -2.24255 8.09205 -11.2676
H -1.54797 7.8295 -9.81321
O 1.06533 -14.2259 -8.66458
H 0.900521 14.7485 -8.93486
H 2.04681 -14.0366 -8.69405
O -8.94687 7.97722 -1.23685
H -8.22794 8.43183 -0.71104
H -9.70281 7.73573 -0.628379
O -10.4533 -9.97054 7.23713
H -9.99469 -9.76058 8.10063
H -11.3916 -9.62606 7.26569
O -6.47649 -6.18857 3.62582
H -7.21153 -6.78775 3.94317
H -6.72929 -5.78884 2.74474
O 7.59245 -13.7754 13.3145
H 6.63444 -13.5718 13.5165
H 7.82341 -13.4252 12.4068
O 4.60444 13.7274 7.82259
H 4.24261 13.9279 8.733
H 4.72428 12.7397 7.72167
O -9.03909 -14.3795 -13.4538
H -9.89024 -14.3209 -12.9321
H -8.38464 -13.7113 -13.0999
O 13.1244 -5.36751 -7.31957
H 13.6481 -4.55319 -7.56985
H 12.1918 -5.2851 -7.67101
O 2.88824 11.1872 9.48824
H 2.73141 10.3842 10.0632
H 3.83572 11.1883 9.16845
O -7.21496 9.89256 -8.27774
H -7.78686 10.4375 -8.89094
H -7.01575 9.01019 -8.70404
O 3.68548 14.1446 10.4333
H 3.87415 14.9386 11.0113
H 2.70323 14.0885 10.2544
O -10.3288 13.9253 -4.39639
H -10.3052 14.614 -3.6717
H -9.45859 13.9299 -4.88901
O -14.0053 -10.388 0.780711
H -14.5326 -9.63019 1.16499
H -13.8301 -11.0673 1.49335
O -13.7757 13.6697 12.1662
H -13.8261 14.1516 13.041
H -13.3488 14.2625 11.4833
O 9.44984 -7.70141 -4.49522
H 10.341 -8.04679 -4.20095
H 8.78798 -7.81237 -3.75385
O -7.91921 12.7928 -13.0182
H -8.41528 13.6178 -13.289
H -7.86908 12.1642 -13.7943
O 3.42631 -0.939956 -1.71976
H 2.46667 -1.21864 -1.75735
H 4.00831 -1.75248 -1.68689
O -7.37327 11.3158 14.518
H -8.06308 10.7874 14.0231
H -7.04502 12.0613 13.9379
O 4.657 7.63788 2.41403
H 4.86904 7.98741 3.32665
H 5.37331 7.91818 1.77503
O -14.0789 -12.0687 -1.39849
H -13.2049 -12.5529 -1.3582
H -14.0389 -11.2594 -0.812509
O -1.40197 -6.24793 9.79457
H -0.629196 -5.62669 9.66466
H -2.13387 -5.77205 10.2823
O -14.7824 12.937 -9.31171
H 14.9051 12.9368 -8.33981
H 14.871 12.0649 -9.72017
O -3.64835 12.1967 -1.37138
H -4.46928 12.6246 -0.993244
H -3.90506 11.5903 -2.12393
O -11.4629 -9.87797 -5.48277
H -12.3286 -10.191 -5.09231
H -11.3368 -8.90721 -5.27853
O 10.0491 7.0062 -3.05643
H 10.8419 6.42576 -3.24223
H 9.75218 6.8723 -2.11095
O 5.08612 10.9026 -4.87816
H 5.17324 10.1338 -5.5116
H 4.32261 10.7357 -4.25432
O 7.0058 2.61961 -14.1164
H 6.85632 2.30239 -13.1799
H 7.03646 3.61906 -14.1288
O 14.2736 -6.43384 5.39307
H 14.2655 -7.43358 5.37192
H 13.337 -6.09132 5.31877
O 6.90958 9.01129 -6.73425
H 7.3967 9.63279 -6.1207
H 6.74615 8.14219 -6.26739
O -12.1515 -9.25858 -9.46344
H -12.6483 -9.74377 -8.74389
H -11.5716 -8.55538 -9.05209
O -11.2718 12.8258 0.116238
H -11.9927 13.5167 0.062986
H -11.5779 11.989 -0.337808
O -12.6382 -13.9927 10.0456
H -11.9481 -14.1539 10.7511
H -12.4619 -13.1143 9.60142
O 5.82104 8.82203 -14.2731
H 5.1904 9.56265 -14.0413
H 5.93643 8.22234 -13.4812
O -12.905 9.41071 -13.1455
H -13.7409 9.38241 -13.6937
H -12.7269 10.3517 -12.8575
O 11.0818 -5.93762 9.42883
H 11.52 -6.78583 9.72644
H 10.8811 -5.99155 8.45067
O 5.3571 -4.66679 -5.43554
H 4.39873 -4.63296 -5.152
H 5.52916 -5.52012 -5.92769
O -8.81073 -12.9149 -1.813
H -8.15448 -13.5548 -2.21285
H -9.12349 -12.2757 -2.51561
O -4.31351 -5.63987 13.1012
H -4.49164 -5.05833 13.8949
H -3.45081 -5.36732 12.6752
O -1.22635 4.65189 3.31232