2593
Atoms. Timestep: 1000000
O -5.33357 -7.11377 -5.31515
H -5.85375 -6.25998 -5.29326
H -4.82684 -7.17339 -6.17521
O 2.11437 -7.38928 -1.87541
H 1.81241 -8.19971 -1.37338
H 2.25134 -7.62502 -2.83754
O 12.6141 10.7707 0.0470593
H 11.7384 10.3148 -0.112405
H 12.5811 11.6968 -0.328874
O -9.695 10.7835 -2.47838
H -9.554 9.92532 -1.98468
H -10.5018 11.2488 -2.11422
O 2.05458 6.08532 -7.47285
H 3.00609 5.78987 -7.38713
H 1.86966 6.81044 -6.80952
O -0.947614 -7.77513 -11.965
H -1.76806 -7.52141 -11.4526
H -1.06902 -7.536 -12.9284
O -13.4185 -7.35263 -3.13904
H -14.4153 -7.39341 -3.20885
H -13.0108 -7.91995 -3.85452
O -3.17393 -6.93828 -10.9872
H -3.32216 -6.27411 -10.2545
H -3.84793 -7.67322 -10.9123
O -13.4533 4.32169 5.00915
H -14.3614 4.43885 4.60726
H -13.5448 4.08398 5.97617
O -1.10521 -7.45929 -1.97236
H -1.12821 -6.4855 -1.74604
H -1.67327 -7.96576 -1.32366
O -6.77736 -13.2058 -9.6413
H -5.82864 -13.1136 -9.94368
H -6.83323 -13.0254 -8.65927
O 4.19877 13.2431 -4.70379
H 3.51481 13.9479 -4.51525
H 4.85049 13.2001 -3.94654
O 1.79105 -11.3383 -14.6016
H 1.77425 -10.5286 -14.0149
H 2.56061 -11.9219 -14.3424
O -0.0459447 -12.3997 10.7587
H -0.632326 -11.739 10.29
H 0.601838 -11.9133 11.345
O 7.57751 -0.68278 -7.70151
H 8.43984 -1.15745 -7.87782
H 7.44278 -0.591837 -6.7148
O -2.78617 0.344601 12.9027
H -1.92592 -0.124566 13.1024
H -2.59252 1.26073 12.5517
O 10.9573 5.89438 -9.47483
H 11.0043 6.34676 -8.58424
H 11.8563 5.52414 -9.70856
O 9.18297 -1.1083 13.0922
H 8.81101 -0.343846 13.6187
H 8.87126 -1.04304 12.1442
O -13.7876 -1.83149 -9.46297
H -13.2589 -1.65578 -10.2934
H -13.2653 -2.43025 -8.85574
O 13.1068 0.104905 -11.5464
H 12.7972 -0.538126 -12.2469
H 12.3222 0.41902 -11.012
O 3.93635 -7.23195 12.9706
H 4.30627 -6.33897 12.7141
H 4.62492 -7.93799 12.805
O -10.9225 -12.5373 13.6482
H -10.4953 -13.3278 14.0871
H -11.5789 -12.1211 14.2774
O 0.629586 -3.46339 11.2464
H -0.31205 -3.19507 11.043
H 1.14979 -2.66016 11.5366
O 5.3967 -3.3241 10.334
H 5.21642 -2.35762 10.5168
H 5.64765 -3.44038 9.373
O 9.67212 3.23508 -6.81018
H 9.34117 2.79749 -7.64625
H 10.5751 3.63138 -6.97636
O -14.3733 -11.2025 -1.87317
H -13.444 -11.5578 -1.77278
H 14.9105 -11.9653 -1.92545
O -14.4749 -6.62362 13.2151
H -14.0511 -6.66281 12.3102
H -14.5705 -7.55023 13.5788
O -0.45012 10.1626 0.629231
H -1.33164 10.2879 1.08447
H 0.210916 10.8166 0.997081
O -0.00542695 11.3914 -1.91501
H -0.412382 10.8232 -1.19978
H 0.72838 10.884 -2.36668
O -5.95556 -11.0684 -3.28268
H -6.51478 -11.704 -2.75036
H -6.26441 -11.0688 -4.2338
O -4.28694 14.9032 6.77962
H -4.58079 -14.8332 7.71598
H -4.26008 13.9141 6.63496
O 11.2316 12.7327 7.24371
H 11.5921 12.0762 7.90628
H 11.2109 13.6441 7.65492
O 11.7766 13.49 -1.16096
H 12.4807 13.95 -1.70197
H 10.9723 14.0799 -1.08996
O -6.3649 -1.96356 0.683054
H -6.59097 -1.00889 0.489342
H -7.12088 -2.55053 0.393278
O 14.5808 0.326528 8.57302
H 14.4599 -0.48777 9.14075
H 13.7743 0.912133 8.65407
O -14.7191 -14.8238 7.31014
H -14.5528 14.1191 7.27572
H -13.8874 -14.3557 7.60866
O 14.684 4.88432 -7.58194
H -14.3365 4.9166 -7.99982
H 14.222 5.76032 -7.72047
O 8.2851 1.50664 13.6991
H 8.25456 2.29776 13.0882
H 8.38681 1.81868 14.6437
O 12.0301 -5.42061 10.5699
H 11.2731 -4.79014 10.742
H 11.6665 -6.31085 10.2955
O -4.53495 5.30667 1.00564
H -4.4358 6.12072 0.433362
H -5.14174 4.65309 0.553256
O 9.53944 10.1923 -11.1611
H 8.61716 10.5706 -11.2404
H 10.1352 10.8578 -10.7116
O -2.01642 -14.2766 -8.97987
H -1.47191 14.8242 -9.11576
H -2.90859 -14.523 -8.60128
O 11.4626 4.98609 -2.44091
H 10.5124 5.08156 -2.73765
H 11.9354 4.33939 -3.03949
O -3.64268 0.380474 -10.9174
H -3.64636 1.37845 -10.981
H -3.88941 0.104747 -9.98841
O -5.16112 9.45396 9.44572
H -4.5128 8.70049 9.33625
H -4.67858 10.2627 9.7821
O -13.5869 2.03549 -8.4986
H -13.2951 2.39582 -9.38461
H -14.4548 1.5503 -8.60556
O 0.0648755 4.41661 -0.989999
H 0.441368 5.1616 -1.5407
H -0.881488 4.24505 -1.26382
O -10.0661 -9.56594 -6.67324
H -10.2166 -10.1907 -7.43941
H -9.87725 -8.6485 -7.02343
O -2.65348 8.10832 9.68243
H -2.13112 8.40445 10.4821
H -2.71023 7.10998 9.67238
O -2.4037 13.7898 9.20439
H -3.33819 14.1075 9.36515
H -1.82378 14.5682 8.96396
O -1.5999 4.32682 -13.4818
H -1.52999 4.64065 -14.4287
H -1.26995 3.385 -13.4176
O -7.49962 14.0694 -6.78944
H -7.68409 13.399 -7.50811
H -7.38435 13.5978 -5.91522
O 6.34713 13.8797 7.44172
H 5.40694 13.7402 7.75252
H 6.91316 13.1096 7.73593
O -11.2463 -13.6029 1.18962
H -10.9253 -14.5327 1.00957
H -11.2176 -13.425 2.17327
O 1.22807 12.6718 -13.6935
H 1.06219 12.9948 -14.6253
H 1.22558 11.6719 -13.6819
O -13.0722 0.167333 -14.3957
H -13.7263 -0.588717 -14.3729
H -12.5719 0.149236 14.6671
O -2.8502 11.3879 2.10351
H -3.39062 11.0487 2.8735
H -2.14393 12.0105 2.4406
O 9.19769 -13.2102 -6.72955
H 8.83743 -12.9054 -7.6112
H 8.83371 -14.1169 -6.51627
O 4.44471 7.13947 12.3743
H 4.88378 6.56904 11.6802
H 3.51679 6.80623 12.5414
O 5.40322 3.57542 12.4968
H 5.93283 3.95898 11.7402
H 5.75973 3.92401 13.3636
O -13.0323 13.1471 -13.4346
H -12.8076 12.1879 -13.2629
H -12.3123 13.7306 -13.059
O 3.29043 5.55539 4.09572
H 4.21387 5.91113 3.95175
H 2.82144 5.47971 3.21576
O 8.41361 6.03574 12.971
H 8.88984 6.66639 13.5838
H 7.59924 5.67808 13.428
O -13.324 -3.26294 3.00927
H -13.8528 -3.62635 3.77629
H -12.4775 -3.7861 2.91044
O -9.1201 12.3271 12.7868
H -8.68595 12.7149 11.9737
H -8.95495 11.3412 12.8147
O -4.97866 -9.17174 -13.587
H -5.40541 -9.82789 -14.2093
H -4.25662 -8.67579 -14.0693
O 5.57086 0.203331 -9.33302
H 6.32038 0.0543847 -8.688
H 5.93488 0.243237 -10.2636
O 8.87544 -13.3241 10.8531
H 9.6686 -13.8775 10.5989
H 8.68576 -12.6611 10.1289
O 9.54927 6.00389 -13.7094
H 9.3786 5.65387 -12.7883
H 10.0232 6.88243 -13.6496
O 1.45936 0.601346 8.17839
H 0.901579 -0.184086 7.91008
H 1.1693 0.923919 9.07941
O 9.93517 -3.4196 10.7091
H 9.28058 -3.79452 11.3656
H 9.6634 -3.67886 9.78235
O -14.0943 -4.71509 5.69816
H -13.6269 -5.58852 5.56162
H -13.693 -4.2412 6.48197
O 10.0966 -9.69382 -14.7928
H 10.9049 -9.21584 -14.449
H 10.2494 -9.96614 14.1856
O -3.52905 -6.25431 8.06523
H -3.28438 -6.45729 9.01336
H -3.1981 -6.98761 7.47129
O 12.7671 6.09361 11.3607
H 12.6402 6.21234 10.3759
H 13.175 5.19805 11.5386
O -12.8498 -7.24189 6.04163
H -12.1661 -7.97156 6.05251
H -13.528 -7.40986 6.75711
O 1.89609 0.263625 -12.9995
H 2.65289 -0.107352 -13.5376
H 1.04272 -0.178863 -13.2751
O -7.75439 3.87213 1.62923
H -7.87116 4.86509 1.60911
H -7.31863 3.5705 0.781199
O 14.4485 -9.35319 14.0259
H 14.2955 -10.2914 13.7154
H 13.8048 -9.13571 14.7596
O -0.119148 -5.85052 5.63906
H -0.344511 -6.43197 4.85731
H -0.0793534 -6.40779 6.46845
O -0.137532 6.96595 1.90158
H -0.414956 7.59393 1.17446
H -0.937243 6.71159 2.44543
O -10.6834 -11.7418 6.45983
H -10.0676 -11.7019 7.24668
H -11.0745 -12.6594 6.38879
O -7.58849 5.25895 -5.88307
H -7.04066 4.80987 -5.17722
H -8.55902 5.1681 -5.65983
O 6.51902 4.53692 10.1408
H 5.63593 4.67819 9.69335
H 7.24583 4.54545 9.45401
O 6.51256 -5.05521 2.05574
H 6.70865 -4.09535 2.25633
H 5.65454 -5.12073 1.54631
O -9.50745 3.33206 6.96427
H -8.53115 3.18518 7.12325
H -9.93481 2.46906 6.69482
O 2.72415 3.66149 12.5583
H 3.72129 3.61276 12.5004
H 2.4467 3.68197 13.5189
O 11.6754 -1.01767 4.47035
H 11.6865 -0.220271 5.07372
H 12.1974 -1.76034 4.88982
O -6.09557 -9.71364 -8.20358
H -5.82922 -10.0272 -9.11502
H -6.66972 -10.4065 -7.76727
O 5.40151 -2.71651 5.9076
H 5.73186 -3.39442 6.56436
H 4.40174 -2.7291 5.88998
O 9.86839 -2.91298 14.8151
H 9.69931 -2.19261 14.1424
H 9.00813 -3.37375 -14.895
O 11.5852 -12.9154 -1.57663
H 11.4199 -13.4145 -0.72598
H 12.2307 -13.4273 -2.14338
O -5.36748 8.96727 -9.91544
H -4.69198 8.67985 -9.23639
H -6.23801 9.15543 -9.4607
O -4.78937 -5.11579 4.09079
H -5.70808 -4.8195 4.35195
H -4.57846 -4.77819 3.17343
O 8.56344 -6.81461 -1.96908
H 8.47663 -6.19899 -1.18582
H 8.33831 -6.31985 -2.80845
O 14.6579 -7.4333 -8.36998
H -14.5826 -6.73232 -8.55797
H 13.767 -6.99886 -8.23722
O 8.74335 9.38869 -3.38994
H 8.69657 9.42213 -4.3883
H 7.97284 8.85737 -3.03777
O -2.08858 7.26099 -1.49322
H -1.72777 8.19058 -1.56868
H -2.12592 6.84322 -2.40101
O 6.44382 1.19129 -11.8057
H 6.82975 2.04266 -11.4504
H 7.11815 0.73707 -12.3879
O 0.793363 9.9988 13.8125
H 0.76326 9.99236 14.8121
H 1.70955 10.2597 13.5083
O 1.15793 -6.19717 -6.28159
H 1.32383 -5.83701 -7.19962
H 1.42813 -7.15936 -6.24717
O -7.54196 10.131 4.15885
H -7.30753 9.23575 4.53784
H -8.47931 10.1106 3.81104
O 11.6268 8.95237 -6.2721
H 11.9526 9.80697 -5.86768
H 11.1142 9.15285 -7.10704
O 12.0561 -10.1663 -5.09443
H 12.2278 -9.18349 -5.16212
H 11.3778 -10.3377 -4.37993
O -4.0877 -6.92127 14.2062
H -4.60638 -6.59654 -14.9313
H -4.70726 -7.05227 13.4322
O -4.44753 -10.4926 -10.3961
H -4.85478 -11.1288 -11.0513
H -3.49907 -10.7565 -10.2206
O -13.4102 10.3801 -0.31852
H -14.1694 10.4174 0.331268
H -12.7395 11.0852 -0.0884022
O 12.6821 -3.3467 14.8815
H 12.8362 -3.99296 14.1341
H 11.7442 -3.00255 14.8365
O -11.4517 5.88195 -11.1262
H -11.7518 6.4912 -11.8602
H -10.4523 5.85334 -11.1045
O -1.14464 -2.77242 -2.93518
H -0.465708 -3.15674 -3.56077
H -2.05876 -3.06776 -3.213
O 1.42414 1.89668 -1.85884
H 1.28439 1.93302 -2.84837
H 0.969639 2.67695 -1.42915
O 6.85247 9.62593 10.6337
H 6.90626 9.76779 11.6221
H 6.95897 8.65262 10.4304
O 10.939 -14.6837 8.2625
H 10.7477 -13.8535 7.7389
H 11.8109 -14.5822 8.74155
O 3.19828 -12.663 8.65438
H 3.50371 -11.779 9.00812
H 3.25518 -13.3497 9.37913
O -4.59677 12.0089 6.33142
H -4.69871 11.7667 5.36657
H -5.06086 11.3272 6.89705
O -10.5036 8.08614 -8.71032
H -10.0923 8.02796 -9.61995
H -10.3717 7.21966 -8.22882
O 6.66274 -7.1528 -10.0653
H 6.33886 -6.92951 -9.14589
H 6.76913 -8.14354 -10.1497
O -5.01343 -0.449452 -2.78615
H -5.00153 -1.42044 -2.54728
H -4.88131 -0.347102 -3.77209
O -2.30297 3.87775 4.73142
H -1.33771 4.07521 4.56027
H -2.69858 3.42901 3.93008
O 3.84782 8.82827 2.21721
H 2.98592 8.65429 2.69353
H 4.57544 8.2845 2.63543
O -1.32145 12.9902 3.95777
H -0.340919 12.8554 3.81485
H -1.61825 12.4609 4.75264
O 14.2682 -13.599 -12.9455
H -14.7365 -13.5086 -12.5733
H 14.1667 -12.9947 -13.7357
O -7.62456 12.4831 -0.814301
H -8.47243 12.0267 -1.08411
H -7.67933 12.7457 0.149074
O 3.37622 7.60566 -0.448615
H 3.49879 6.98604 -1.2239
H 4.21472 8.13175 -0.306577
O -1.30639 -7.99895 -4.94202
H -1.37825 -8.05438 -3.94614
H -1.68836 -7.1297 -5.2559
O 4.31795 13.8529 -7.48457
H 4.12058 13.8947 -6.50513
H 5.2595 14.1476 -7.64775
O -12.2682 -8.88962 -4.96489
H -11.3443 -8.98702 -5.33485
H -12.9176 -9.36135 -5.5614
O -7.91968 -2.88729 13.8678
H -8.03902 -2.1284 14.508
H -7.17129 -2.67788 13.2385
O 6.80096 14.2022 -8.27184
H 6.77071 13.9167 -9.22974
H 7.75302 14.3161 -7.98787
O -0.725084 -7.47783 3.5531
H -0.708797 -6.76434 2.85261
H -1.63629 -7.88816 3.5898
O 4.56076 3.05019 -5.35173
H 4.51947 2.47313 -6.1674
H 3.72022 2.93857 -4.82158
O 8.59424 5.70363 -11.1076
H 8.05608 6.53769 -10.9861
H 9.41536 5.75099 -10.5387
O 7.2181 7.31523 1.15769
H 8.08263 7.25121 1.6562
H 6.45612 7.22054 1.79835
O 6.06238 11.814 2.94173
H 6.9417 12.2016 3.2185
H 5.42121 11.8617 3.70765
O -2.67799 -8.27218 6.38309
H -3.10193 -9.15564 6.18365
H -2.94243 -7.60976 5.68217
O 1.38764 -8.64663 2.30669
H 2.08002 -7.94986 2.11927
H 0.575379 -8.21293 2.69677
O -1.51711 -13.1262 -6.39994
H -1.49237 -12.1393 -6.55949
H -1.7369 -13.5966 -7.25458
O 13.536 -6.38458 4.51168
H 13.0052 -5.72738 3.9766
H 14.2454 -5.90116 5.02459
O -11.3899 12.4947 -9.43798
H -10.9981 12.1127 -8.60098
H -11.9986 11.8219 -9.85835
O -0.535204 4.14063 1.88374
H -0.323149 4.3973 0.940779
H 0.160057 4.51708 2.49604
O 8.53683 12.6767 3.62243
H 9.07492 12.7121 2.78028
H 9.0812 12.2564 4.34838
O -11.2115 5.58088 -7.00912
H -10.5882 4.82431 -7.20685
H -11.9874 5.24297 -6.47635
O 2.32129 -11.4711 -6.98382
H 2.19912 -12.1299 -6.24142
H 3.24878 -11.5492 -7.34945
O 14.2339 -4.82824 -1.8529
H 13.6306 -5.57178 -1.56453
H 14.6545 -4.40918 -1.04824
O 1.61516 11.07 5.70055
H 0.982347 11.7418 6.0856
H 1.67001 10.2775 6.30786
O 10.8793 0.570653 -6.11515
H 10.518 0.74943 -7.03032
H 11.818 0.910245 -6.05516
O 6.68662 4.33275 -3.86501
H 5.9776 3.88162 -4.40704
H 7.44339 3.69741 -3.7112
O 8.60053 -3.75447 -6.24498
H 8.958 -2.98205 -5.72001
H 7.60375 -3.69113 -6.29437
O -4.16923 0.430025 -13.6537
H -4.11416 0.521957 -12.6594
H -3.32044 0.760405 -14.0665
O -12.8334 -13.3544 -12.1783
H -12.3591 -13.7485 -11.3911
H -13.368 -12.5624 -11.8832
O -9.00478 8.28943 -1.44508
H -8.35931 7.66265 -1.88159
H -8.51768 8.86596 -0.789058
O -14.4851 8.10429 2.26697
H -13.5178 8.08611 2.01426
H -14.8288 9.04122 2.20307
O -8.43448 11.8874 6.96034
H -9.30522 11.5377 6.61459
H -7.68873 11.3069 6.63348
O 4.80756 2.23899 -13.8463
H 5.33491 2.93233 -14.3374
H 5.24115 2.053 -12.9646
O -14.1962 2.23426 -5.63149
H -13.468 1.71644 -5.18256
H -13.9707 2.35718 -6.59796
O -11.661 -14.5038 -10.1947
H -11.4121 -14.0881 -9.31988
H -11.7365 14.4337 -10.0833
O -13.0636 12.7514 4.43373
H -13.9054 12.95 3.93168
H -12.5363 13.5935 4.5467
O 11.5167 11.9613 -9.87081
H 11.809 12.7576 -9.34116
H 12.2871 11.3333 -9.98113
O -10.6583 -0.677677 2.60066
H -10.7222 -0.891771 1.62593
H -9.71546 -0.804598 2.90871
O -9.27148 2.14729 3.08071
H -10.193 2.3978 3.37731
H -8.88206 2.89164 2.5382
O -11.7385 12.6318 -5.44863
H -11.5848 13.6162 -5.53552
H -11.0844 12.1404 -6.02367
O 8.92543 2.79685 -3.99777
H 9.02513 2.80004 -4.9928
H 9.82456 2.69115 -3.57303
O 1.67824 3.28326 -6.9612
H 1.57858 4.25868 -7.15776
H 2.50476 2.93661 -7.40472
O -3.17338 2.86903 -11.0626
H -2.30755 3.34254 -10.9009
H -3.82632 3.50141 -11.4795
O -10.8851 -8.86243 -9.65159
H -10.4272 -8.69763 -10.5252
H -10.6908 -8.10713 -9.02568
O 5.58608 10.8696 -13.0864
H 4.72385 11.2619 -12.766
H 5.3959 10.1053 -13.7026
O 9.27308 -13.0371 -11.197
H 9.61286 -13.7985 -11.7491
H 8.44653 -13.3207 -10.7108
O 2.77354 -4.65655 -3.25152
H 2.71836 -4.92001 -2.28842
H 3.65053 -4.95418 -3.62878
O 8.56849 1.49102 -1.54659
H 8.47873 1.8849 -2.46137
H 8.95154 0.569926 -1.61639
O -8.61595 -6.99372 4.16843
H -8.33899 -7.52216 3.36589
H -8.04628 -7.25022 4.94926
O -8.49006 -6.71926 -14.5835
H -8.98649 -5.95225 -14.1769
H -8.52722 -7.50509 -13.9661
O 5.29186 -6.4542 -2.94933
H 5.28266 -6.55976 -1.95495
H 4.86864 -7.25484 -3.37344
O -7.62281 -11.1763 3.4409
H -8.37547 -10.5182 3.46235
H -7.55699 -11.6364 4.32634
O 9.50176 13.6583 -7.66999
H 9.67441 13.8593 -6.70573
H 10.2895 13.9433 -8.21611
O 14.0047 5.49547 -14.6502
H 13.0622 5.67593 -14.9315
H 14.6056 6.20091 14.9024
O 13.3069 0.947234 -6.67949
H 13.9601 1.55321 -6.22551
H 13.6652 0.681474 -7.57449
O -1.85703 10.6789 -14.3959
H -2.20138 11.5413 -14.0247
H -1.3887 10.8523 14.6662
O 6.13978 5.29599 -0.672896
H 6.31469 6.1523 -0.186949
H 5.30934 4.87156 -0.311999
O -14.7042 9.79482 -8.3654
H -14.7641 10.1894 -7.4485
H 14.5498 9.06225 -8.4577
O 12.3798 -7.44029 -5.38608
H 12.2708 -7.19663 -6.34981
H 12.0419 -6.69348 -4.81322
O 1.72894 11.8475 -6.31154
H 2.61044 12.2361 -6.04321
H 0.989974 12.4099 -5.94056
O -3.07758 -1.22805 -5.74488
H -3.09865 -2.08525 -5.23031
H -2.28033 -1.22116 -6.34851
O -5.08521 -9.83085 2.89814
H -4.42838 -10.4616 2.48489
H -5.94456 -10.3116 3.07258
O -14.2 1.43627 -12.3828
H -13.7919 0.898801 -13.1208
H 14.8107 1.09064 -12.1869
O -7.2038 -12.2398 6.35052
H -7.84135 -12.6927 6.97371
H -6.7691 -12.923 5.76378
O -7.71936 -2.03106 2.93968
H -7.46933 -2.91155 3.34247
H -7.17406 -1.87436 2.1162
O 0.694 14.4174 -11.4085
H 0.989893 -14.562 -11.5172
H 0.207277 14.1237 -12.2312
O 3.34124 -5.32654 -11.9995
H 3.6829 -5.1031 -12.9123
H 3.55783 -4.57986 -11.3705
O 11.6767 -1.68369 -0.35551
H 10.7082 -1.93257 -0.343623
H 11.8369 -0.936849 0.289931
O 3.82677 1.74851 -7.98754
H 3.24882 0.982192 -7.70692
H 4.48296 1.4369 -8.6748
O 14.3783 0.324242 -9.21517
H 13.8343 0.624744 -9.99861
H 14.7995 -0.559071 -9.421
O 13.8869 -3.1207 0.475588
H 14.7391 -2.66774 0.737444
H 13.2657 -2.45177 0.0674193
O -3.46232 11.6939 -0.583591
H -3.16086 11.9355 0.338776
H -3.60207 12.5277 -1.1177
O 2.61347 -13.0012 -4.48062
H 1.89782 -12.4039 -4.11867
H 2.34652 -13.9564 -4.35282
O 12.6825 -8.42043 -13.806
H 12.7687 -8.72786 -12.8583
H 12.3712 -7.47024 -13.8212
O 2.21819 -10.893 12.3886
H 2.09675 -10.9019 13.3811
H 1.84459 -10.0441 12.0147
O -0.639032 -11.4998 -0.243958
H -0.824517 -11.4134 0.734888
H -1.46976 -11.7952 -0.715808
O -13.9309 3.79654 -13.9389
H -14.3062 3.01922 -13.434
H -14.6793 4.36729 -14.2767
O 9.96256 14.7185 -12.63
H 10.9264 14.4769 -12.7425
H 9.46947 14.5261 -13.4785
O 7.48251 -7.65904 1.73756
H 7.46923 -8.04359 0.814545
H 6.97421 -6.79791 1.74724
O -4.05676 -12.8612 -5.29174
H -3.13403 -13.0921 -5.60038
H -4.00746 -12.1297 -4.61168
O -4.83891 -3.42028 -2.08783
H -4.29627 -3.77795 -1.32782
H -5.80753 -3.60544 -1.92197
O -6.59536 -11.0593 14.8356
H -7.0576 -11.8959 -14.7991
H -6.31987 -11.1491 13.8785
O -7.09498 -9.55698 -0.518635
H -7.28305 -8.94418 -1.28618
H -6.50293 -10.3025 -0.824671
O -14.3766 -3.52887 -5.67844
H 14.603 -3.29478 -5.46651
H -13.9679 -4.00249 -4.89826
O 6.38575 1.24467 8.20346
H 6.99473 0.591371 7.75361
H 5.46 1.14267 7.83931
O -11.5766 -14.5845 -5.05709
H -12.3995 -14.0628 -5.28196
H -10.7852 -13.9732 -5.05254
O -3.74155 5.67653 6.05572
H -4.5485 5.54689 5.47949
H -3.05405 4.98748 5.82643
O -10.7012 -2.94001 9.5953
H -10.6312 -3.21033 10.5555
H -10.1304 -2.13505 9.4332
O 6.68245 5.21118 4.60227
H 7.64473 5.27657 4.33814
H 6.59337 4.59933 5.38822
O -6.16509 -8.78454 9.69234
H -5.85064 -9.17338 8.82635
H -7.14882 -8.93647 9.78826
O 1.31807 -13.3772 5.49294
H 1.53733 -12.6506 4.84177
H 0.967882 -12.973 6.33793
O 12.1478 -4.14217 7.99947
H 12.0502 -4.65771 8.85077
H 11.995 -4.7515 7.2214
O 0.126889 0.90515 10.8404
H -0.642451 0.431577 10.4116
H -0.218869 1.58741 11.4846
O 3.12775 11.4856 12.4096
H 3.439 12.3503 12.8038
H 3.54892 11.3579 11.5117
O 7.33138 -0.989627 6.81412
H 8.15836 -1.38611 6.41546
H 6.53287 -1.50984 6.51117
O -7.84781 -2.91085 -10.5004
H -8.69942 -2.88562 -9.97678
H -7.94038 -2.33851 -11.3151
O -7.90361 9.66828 -8.54933
H -7.77308 9.14099 -7.70972
H -8.56842 9.20399 -9.13455
O 7.14141 -0.668074 -4.96314
H 7.86117 -0.246697 -4.41141
H 6.25044 -0.321686 -4.66951
O 8.14853 -9.40684 -10.6554
H 8.94484 -8.81573 -10.5269
H 8.34611 -10.0826 -11.3656
O 13.1136 -8.94382 4.00533
H 13.4365 -8.01651 4.19473
H 12.3429 -8.90502 3.36929
O -1.24081 5.90774 -3.99922
H -0.399697 5.78912 -3.47151
H -1.05129 6.46499 -4.80766
O -10.5844 11.286 -14.4735
H -10.588 10.7219 14.6293
H -9.78641 11.8886 -14.4849
O 10.9964 9.62726 12.1284
H 10.6646 10.2807 12.8088
H 11.2415 10.1144 11.2902
O -4.68145 14.5623 -4.51144
H -5.65691 14.5334 -4.29315
H -4.47496 -14.5205 -5.00356
O -7.74296 -5.56324 12.7641
H -7.98121 -5.97908 13.6418
H -7.65563 -4.57347 12.877
O 4.78245 -1.47292 1.19003
H 4.70523 -0.501719 0.964581
H 3.8969 -1.81308 1.50643
O 7.41835 -5.71814 -4.27089
H 6.59325 -5.94771 -3.75463
H 7.29773 -4.83001 -4.71439
O 6.95914 10.8723 -10.8728
H 6.43191 11.1232 -10.061
H 6.36936 10.9142 -11.6793
O 2.12888 -8.7011 -6.56073
H 2.73868 -8.43105 -7.30588
H 1.87072 -9.66073 -6.67245
O 13.0423 6.99679 5.82941
H 13.1365 6.18209 5.25723
H 12.3679 6.82375 6.54727
O 13.5642 2.8504 3.63482
H 12.8596 3.15999 2.99628
H 13.7657 1.88546 3.4666
O -12.1919 -1.90876 -3.31731
H -12.428 -2.72279 -3.84797
H -12.5899 -1.98002 -2.40272
O 1.10855 11.6334 9.85549
H 2.10249 11.5347 9.80678
H 0.786134 11.3224 10.7496
O -14.448 8.03524 4.92424
H 14.6168 7.75107 5.34075
H -14.4049 7.69854 3.98361
O 13.6211 5.58666 -11.1372
H 13.2034 6.14363 -11.855
H 14.4021 6.0753 -10.7482
O -7.42585 0.346531 7.65493
H -6.91407 -0.187755 6.98215
H -8.19811 0.796025 7.20594
O 14.1284 0.131348 2.90579
H 14.522 -0.477174 2.21671
H 14.3543 -0.208628 3.81872
O -4.44223 -8.7241 -2.38478
H -4.77427 -7.86976 -2.78462
H -4.98933 -9.48754 -2.72808
O -10.9371 3.66648 -14.2399
H -11.9186 3.63202 -14.0519
H -10.6525 2.81622 -14.6827
O 11.7495 1.12835 5.9408
H 12.0881 2.03008 5.67202
H 11.6355 1.0975 6.93381
O -10.5434 -6.79015 12.3332
H -9.60718 -6.79251 12.6846
H -11.1025 -6.16549 12.8784
O -5.9156 3.93325 -14.0139
H -6.78337 3.82338 -13.5292
H -5.25306 4.38148 -13.4137
O -14.4571 8.73113 -5.51389
H -13.5212 9.07936 -5.46067
H -14.581 8.00362 -4.83905
O 5.35101 -7.72231 3.6623
H 6.31091 -7.77646 3.38722
H 4.95511 -8.64055 3.67325
O 11.1783 -5.38533 -12.2242
H 10.3843 -5.61105 -11.6597
H 10.9525 -5.52546 -13.1883
O -2.96517 -13.0278 5.39996
H -3.52647 -13.7606 5.7846
H -2.41164 -13.3905 4.65022
O -8.16538 -1.13416 -12.7126
H -9.12917 -0.879849 -12.793
H -7.66434 -0.797916 -13.5101
O -0.570089 8.80561 11.672
H -0.220491 9.19922 12.5222
H 0.193275 8.461 11.1256
O 14.6753 10.549 1.72038
H 14.3265 11.2507 2.34155
H 13.9246 10.1942 1.16303
O -4.80837 7.476 -0.855842
H -3.81865 7.35496 -0.932164
H -5.0634 8.37263 -1.21781
O 8.10877 9.93474 7.02048
H 8.39825 9.02693 7.32396
H 7.16468 9.89157 6.6936
O 4.89055 9.44114 -5.66941
H 5.78635 9.21361 -6.05122
H 4.97458 9.58143 -4.68286
O 2.04082 0.408834 0.159339
H 1.85948 0.979261 -0.641751
H 1.91017 -0.553261 -0.0800774
O 5.1417 -12.7027 -5.5182
H 4.24773 -12.846 -5.09361
H 5.10044 -12.9709 -6.48068
O -5.38423 5.80165 -7.37462
H -6.19481 5.61886 -6.81823
H -5.49358 5.37596 -8.27286
O 2.00461 -13.2285 -11.2667
H 1.80663 -12.5744 -10.5366
H 2.94473 -13.1008 -11.5827
O -1.65929 1.01253 4.73156
H -2.00311 1.43691 3.89388
H -2.3101 1.16711 5.47491
O -13.1815 12.4026 11.432
H -13.0421 12.4794 10.4448
H -12.8254 13.2208 11.8836
O 9.79344 11.3546 5.43591
H 9.222 10.7336 5.97248
H 10.3935 11.8687 6.04875
O -11.7525 -0.514064 13.2747
H -11.2142 -1.30774 12.9913
H -12.5216 -0.39176 12.6474
O 4.13068 -5.54869 5.22627
H 4.01327 -6.21644 5.96135
H 4.6357 -5.96851 4.47213
O 2.20299 10.8557 -3.54385
H 2.99366 10.2517 -3.4436
H 2.33385 11.4467 -4.33982
O -10.5841 7.13554 -4.8389
H -10.3896 6.4639 -4.124
H -10.7836 6.66129 -5.6964
O 13.2955 6.5832 1.37765
H 14.1962 6.89348 1.68172
H 12.5882 7.00992 1.94123
O -5.82389 -9.95675 7.17069
H -6.32476 -10.8143 7.05323
H -5.03337 -9.94591 6.55834
O 4.04002 -7.44713 9.38814
H 3.46802 -6.91573 10.013
H 4.85345 -6.91707 9.14856
O 13.3329 12.1858 -14.6166
H 13.9271 12.1561 14.5081
H 13.6877 11.5661 -13.9166
O -3.42789 -3.80402 -4.36562
H -3.96196 -4.18894 -5.11836
H -3.99149 -3.77014 -3.54026
O 12.452 3.94481 -5.87929
H 13.2088 3.85944 -6.52743
H 12.0331 4.84796 -5.97315
O -11.3391 1.61346 -1.70631
H -11.7456 1.3605 -2.58428
H -11.6952 2.50229 -1.41789
O -14.6692 -12.8363 14.1084
H 14.311 -12.5193 14.0913
H -14.3146 -12.8774 13.1743
O 8.69522 14.1646 14.8541
H 8.5019 13.2687 -14.6742
H 7.83502 14.6409 14.6719
O 8.55182 7.2791 8.10192
H 8.79679 6.33777 7.86974
H 8.81028 7.46673 9.04955
O 10.4628 -10.8654 -3.11044
H 10.0022 -10.3622 -2.37924
H 10.9131 -11.672 -2.72752
O 13.6622 -5.14588 -11.2315
H 13.7334 -4.52511 -10.4507
H 12.7107 -5.1914 -11.5355
O 6.73223 -14.0423 13.6989
H 7.15884 -13.7052 12.8596
H 6.14358 -14.8216 13.4838
O 8.00723 -11.6385 4.32903
H 8.22334 -12.5503 4.67819
H 7.98017 -11.662 3.32967
O 13.6713 10.8465 -10.6069
H 14.2464 10.5026 -9.8646
H 14.0925 11.6616 -11.0046
O -10.3535 13.0207 2.09325
H -10.5113 12.8991 3.07323
H -9.44812 13.4198 1.9484
O -11.8271 1.62715 10.6331
H -11.3362 1.83301 11.4797
H -12.5988 1.02362 10.8336
O -6.09596 14.7919 13.2702
H -6.13573 14.6263 14.2556
H -6.97888 -14.7887 12.9548
O -0.486541 5.39152 12.6354
H -0.82158 6.32516 12.7622
H 0.415864 5.30113 13.0567
O 8.32345 -7.31812 -6.04267
H 8.12853 -6.70255 -5.27906
H 8.49411 -8.23933 -5.69299
O 1.87252 -4.00683 4.52243
H 1.03394 -4.32031 4.96799
H 2.61738 -4.64093 4.7301
O 7.14078 2.95157 0.339409
H 7.61829 2.32974 -0.281337
H 6.94786 3.81139 -0.133359
O -9.13632 0.451636 -8.55681
H -9.62368 -0.416697 -8.64896
H -8.16594 0.311774 -8.75387
O -10.247 -13.1066 3.79337
H -10.0165 -12.1562 4.00217
H -10.5316 -13.5724 4.63128
O -9.06788 -8.06082 8.24177
H -8.35996 -7.86932 7.56192
H -9.3077 -7.2161 8.72026
O 2.01094 2.47113 -10.1512
H 2.73909 2.21006 -9.51739
H 2.40639 2.67886 -11.0459
O -1.25868 5.4339 9.77154
H -0.808407 5.45933 8.879
H -0.575518 5.54776 10.4929
O 0.499616 -2.08841 -14.1732
H -0.412826 -2.2854 -13.8145
H 0.978552 -2.94708 -14.3557
O 11.0698 5.42033 7.00379
H 10.6436 5.34887 6.10196
H 11.8094 4.7513 7.07688
O -8.0805 12.2685 -13.7276
H -7.5446 13.1057 -13.6186
H -7.46605 11.4798 -13.7485
O -5.84235 -11.6949 12.2727
H -6.24238 -11.4151 11.4
H -4.88713 -11.4015 12.3109
O -13.8782 -0.117179 11.6488
H -14.2667 -0.933326 12.0765
H -14.6073 0.542013 11.465
O -2.01216 -2.90934 -13.2502
H -2.81697 -3.28233 -13.7119
H -1.48694 -3.65549 -12.8411
O -7.54127 -3.81376 -1.16586
H -8.06694 -4.32658 -0.487105
H -8.11949 -3.62013 -1.95844
O -13.6179 7.10718 11.6039
H -13.6773 6.5932 10.7481
H -12.9246 7.82234 11.5157
O -9.08816 -12.3141 8.45778
H -9.26415 -13.1839 8.91877
H -8.98033 -11.5911 9.14013
O 1.76792 5.03953 10.4633
H 1.96788 4.49498 11.2778
H 1.20858 4.50214 9.83213
O -4.26062 12.1575 13.0971
H -4.90588 12.9028 12.929
H -4.68877 11.4726 13.6867
O 8.88123 -9.57307 -1.34069
H 7.91067 -9.81038 -1.29947
H 8.97842 -8.58212 -1.43343
O -0.599025 -6.14149 1.36587
H -0.0358513 -5.32966 1.52006
H -1.01928 -6.08848 0.460004
O 1.72538 -5.54408 -9.09865
H 0.895432 -4.98823 -9.14588
H 2.49911 -5.01853 -9.45242
O -12.6232 -11.3416 -14.6068
H -12.6613 -11.1856 -13.6198
H -13.4528 -11.8158 -14.9016
O 10.2241 -9.73427 9.09769
H 9.83262 -10.4689 8.54353
H 11.2126 -9.86452 9.17357
O 9.1905 -2.01618 4.94741
H 9.43953 -2.60037 5.71988
H 9.99336 -1.50174 4.64613
O -2.57975 10.2972 -4.46419
H -3.40828 10.8064 -4.69731
H -2.38823 10.4011 -3.4882
O -11.4397 12.283 -0.279236
H -10.9733 12.5902 0.550224
H -11.7345 13.0778 -0.809724
O 6.7969 -13.4085 7.96727
H 6.15341 -13.1587 7.2437
H 6.76378 -14.3968 8.11623
O -3.74214 1.58729 -5.1825
H -3.85941 1.97796 -6.09554
H -3.07891 0.839929 -5.2224
O -3.75634 -0.244775 0.189322
H -3.37335 0.441847 -0.428647
H -4.34383 -0.867578 -0.327392
O 5.2875 -2.577 13.7616
H 5.30552 -3.17003 12.9566
H 5.71664 -1.70132 13.5402
O -4.53611 10.6416 -14.541
H -4.87955 10.7322 -13.6062
H -3.54413 10.5167 -14.521
O 0.987087 8.63899 -1.39446
H 1.94127 8.60896 -1.09673
H 0.407936 8.92079 -0.629487
O 4.93744 -4.58918 -14.1037
H 5.79111 -4.07396 -14.18
H 4.98705 -5.40383 -14.6816
O 8.6893 5.99825 -2.80143
H 8.78813 6.34886 -1.87013
H 7.83247 5.48809 -2.87634
O -8.36967 -3.52961 -4.14106
H -8.33869 -2.62598 -4.56828
H -9.23517 -3.63754 -3.65189
O -12.9284 12.439 8.71749
H -12.0888 11.9418 8.49844
H -13.6474 12.1791 8.07294
O -7.42252 10.3014 -3.93533
H -8.36407 10.4146 -3.61802
H -7.4014 9.6443 -4.68883
O 9.051 -5.47874 8.80583
H 9.46496 -6.18765 9.37688
H 9.22799 -5.68109 7.84263
O 0.550463 13.582 13.6739
H -0.0567894 12.847 13.372
H 0.179649 14.4628 13.3795
O -4.79313 13.541 -11.0792
H -4.65044 13.1803 -10.1575
H -4.5157 14.5013 -11.1079
O 7.05996 1.07895 3.86751
H 7.51783 0.318326 3.40727
H 6.11322 0.826388 4.06727
O -5.32953 5.2606 3.81732
H -5.37775 5.27287 2.81856
H -5.69218 4.39312 4.1579
O 2.40469 -1.59161 -3.29605
H 3.0668 -2.33067 -3.42017
H 2.21185 -1.47703 -2.32153
O 0.567279 -3.94168 -4.9059
H 0.822872 -4.63577 -5.57891
H 1.01838 -4.13924 -4.03556
O 13.1033 -2.78032 5.5903
H 13.0094 -3.22065 6.48323
H 13.8618 -2.12923 5.61781
O 1.66599 -3.63666 1.83369
H 1.15046 -2.8151 1.59021
H 1.84886 -3.63625 2.81683
O -14.5077 7.18527 -3.28517
H 14.5208 7.0654 -2.86587
H -13.8744 7.56682 -2.61185
O -4.52296 -4.33357 12.5133
H -4.64357 -3.99526 13.4466
H -4.66602 -3.58469 11.8662
O -8.30888 0.177743 4.39916
H -8.64563 0.855816 3.74583
H -8.10622 -0.67575 3.91906
O 7.48049 11.7807 8.98992
H 7.23026 11.3207 9.84186
H 7.70881 11.0971 8.29665
O 12.9078 4.40467 -0.111167
H 12.4817 4.79193 -0.928789
H 13.0283 5.12306 0.573972
O 14.5828 -14.9088 12.17
H -14.884 14.8432 13.0393
H 13.6828 14.5837 12.1761
O -9.73384 -13.2614 -12.3182
H -9.44029 -14.0945 -11.8494
H -10.7313 -13.253 -12.3896
O -4.6768 -3.18851 -14.7012
H -5.02916 -4.05921 -14.3581
H -4.7657 -2.48992 -13.9912
O 1.00406 10.9145 -9.32263
H 1.18548 10.4939 -8.43369
H 1.71649 11.5864 -9.52509
O -10.8602 -8.98538 6.08146
H -10.7678 -9.96384 6.26607
H -10.1782 -8.48047 6.61048
O 3.44932 14.3744 13.2753
H 2.52418 14.1596 13.5883
H 4.0876 14.2926 14.0408
O 3.22615 -3.33057 -10.1059
H 3.3788 -2.47076 -10.5932
H 3.85459 -3.39028 -9.33036
O -7.97409 14.8731 -11.0267
H -7.49024 -14.2665 -10.6477
H -7.9246 14.1104 -10.3818
O -2.37985 13.0382 -12.8584
H -2.92671 13.6753 -13.4017
H -2.83137 12.8756 -11.9811
O 13.4071 1.10251 11.8237
H 12.914 1.88137 12.2113
H 13.007 0.2517 12.1644
O 7.3779 12.7264 0.0339948
H 7.52305 11.957 0.65602
H 6.74776 13.3799 0.453471
O -8.34807 4.55857 11.4112
H -7.89383 4.72758 12.2859
H -8.20543 5.34091 10.8049
O 10.0379 -7.66069 -9.85866
H 9.77179 -7.05674 -9.10739
H 10.9471 -7.40396 -10.1866
O -10.3946 -3.10874 12.7016
H -11.0043 -3.65841 13.2727
H -9.52313 -2.97787 13.1742
O 14.4464 -12.8195 5.36205
H 14.697 -13.5886 5.94998
H -14.6842 -12.2329 5.22231
O -6.08619 12.993 8.73427
H -6.86176 12.9389 8.10532
H -6.16183 12.2689 9.41979
O 4.52024 -0.101139 -4.1277
H 3.65089 -0.57969 -4.00427
H 4.54683 0.70095 -3.53107
O -2.28737 -13.4813 -1.59918
H -1.45782 -14.0391 -1.62619
H -2.21931 -12.7497 -2.2775
O -4.72452 10.5487 3.81607
H -4.56736 9.69685 4.31569
H -5.67437 10.5824 3.50517
O -6.7093 -3.76141 -8.2237
H -6.51074 -4.70313 -8.49529
H -6.98627 -3.23418 -9.02702
O 4.06588 -8.57404 -8.5475
H 4.94934 -9.01972 -8.69199
H 3.67197 -8.32055 -9.43101
O 2.04095 14.3729 2.95612
H 1.68415 14.7949 2.12265
H 2.28964 13.4227 2.76851
O 4.86488 7.95074 -9.12581
H 4.32543 7.38375 -9.74833
H 4.40524 8.00249 -8.2392
O -2.48661 -11.2809 -3.36117
H -3.04229 -10.4997 -3.07675
H -1.60027 -10.9568 -3.69182
O 6.35408 -2.10739 3.25542
H 5.90436 -1.4282 2.67536
H 5.99418 -2.04161 4.18609
O -5.86103 -4.59321 -11.4045
H -4.9478 -4.50501 -11.0067
H -6.47758 -3.93465 -10.973
O 4.08017 11.9919 4.94018
H 3.11858 11.7232 4.99626
H 4.20963 12.8665 5.40742
O -7.23092 10.8944 10.3433
H -7.87451 10.3432 10.8742
H -6.54167 10.2981 9.9318
O 13.7369 -14.8139 -5.8813
H 12.9841 -14.1826 -6.06799
H 13.971 14.6185 -6.71743
O -5.76724 -4.50466 9.80457
H -4.96489 -4.83027 9.30435