LAMMPS Description

10 atoms
9 bonds
3 atom types
1 bond types
2 extra bond per atom

-15.0 15.0 xlo xhi
-15.0 15.0 ylo yhi
-15.0 15.0 zlo zhi

Masses

1 1
2 1
3 1

Atoms

1  1 2 0.0 0.0 0.0
2  1 1 0.0 0.0 1.0
3  1 1 0.0 0.0 2.0
4  1 1 0.0 0.0 3.0
5  1 1 0.0 0.0 4.0
6  1 1 0.0 0.0 5.0
7  1 1 0.0 0.0 6.0
8  1 1 0.0 0.0 7.0
9  1 1 0.0 0.0 8.0
10 1 2 0.0 0.0 9.0


Bonds

1 1 1 2
2 1 2 3
3 1 3 4
4 1 4 5
5 1 5 6
6 1 6 7
7 1 7 8
8 1 8 9
9 1 9 10
