LAMMPS data file via write_data, version 15 May 2015, timestep = 23005000

2611 atoms
6 atom types
1749 bonds
4 bond types
894 angles
3 angle types
44 dihedrals
3 dihedral types
10 impropers
1 improper types

-1.4905045469403412e+01 1.4905045469403412e+01 xlo xhi
-1.4905045469403412e+01 1.4905045469403412e+01 ylo yhi
-1.4905045469403412e+01 1.4905045469403412e+01 zlo zhi

Masses

1 15.9994
2 1.00794
3 12.0107
4 1.00794
5 12.0107
6 12.0107

Bond Coeffs # harmonic

1 1000 1
2 469 1.4
3 367 1.08
4 469 0.7

Angle Coeffs # harmonic

1 100 109.47
2 35 120
3 63 120

Dihedral Coeffs # opls

1 0 7.25 0 0
2 0 7.25 0 0
3 0 7.25 0 0

Improper Coeffs # cvff

1 2.5 -1 2

Atoms # full

861 287 2 4.0999999999999998e-01 -1.4299098247398470e+01 -9.6138679506744413e+00 -1.2877790527420393e+01 5 5 -6
908 303 2 4.0999999999999998e-01 -9.2720857824274461e+00 -1.0463975365760087e+01 -1.1494725639174668e+01 -3 5 -7
907 303 1 -8.1999999999999995e-01 -1.0194496920080482e+01 -1.0300907495191076e+01 -1.1844880289802648e+01 -3 5 -7
1850 617 2 4.0999999999999998e-01 -1.3138803202030692e+01 -7.2219847188406998e+00 -1.1452660500455670e+01 -7 8 -2
2054 685 2 4.0999999999999998e-01 -1.1100725979468805e+01 -6.4789582456998787e+00 -1.1293250728681013e+01 -7 1 -6
1849 617 1 -8.1999999999999995e-01 -1.3837635723810008e+01 -7.9208262586182885e+00 -1.1605288564097833e+01 -7 8 -2
484 162 1 -8.1999999999999995e-01 -1.4427634488279825e+01 -5.0689366483867939e+00 -9.3209298615366762e+00 -8 0 -1
2187 729 2 4.0999999999999998e-01 -1.0817855543932847e+01 -1.2661164676115225e+01 -1.0721581327035448e+01 -3 1 -2
2243 748 2 4.0999999999999998e-01 -9.2468530689300437e+00 -1.4324632669496740e+01 -1.4284686484042886e+01 -4 3 2
909 303 2 4.0999999999999998e-01 -1.0823956753409535e+01 -1.0970405696943732e+01 -1.1450426164614118e+01 -3 5 -7
2156 719 2 4.0999999999999998e-01 -1.0782731923900972e+01 -7.5032047472912851e+00 -8.2780105666920960e+00 -1 0 -4
841 281 1 -8.1999999999999995e-01 -9.5638511624730143e+00 -1.3363416970258772e+01 -1.1432791863236396e+01 -5 4 -1
842 281 2 4.0999999999999998e-01 -8.7942512364451417e+00 -1.3914525734430477e+01 -1.1110244558639186e+01 -5 4 -1
2186 729 2 4.0999999999999998e-01 -1.1927204105733402e+01 -1.2610661862055478e+01 -9.5242791928262953e+00 -3 1 -2
1851 617 2 4.0999999999999998e-01 -1.3631720585883826e+01 -8.7253769703209016e+00 -1.1048207979749343e+01 -7 8 -2
2185 729 1 -8.1999999999999995e-01 -1.1606307873241590e+01 -1.2163931708776499e+01 -1.0359443412056319e+01 -3 1 -2
2053 685 1 -8.1999999999999995e-01 -1.1911162130184085e+01 -5.9681912962127477e+00 -1.1580221232157959e+01 -7 1 -6
843 281 2 4.0999999999999998e-01 -9.4325149563397162e+00 -1.3140540805933412e+01 -1.2398772578742722e+01 -5 4 -1
114 38 2 4.0999999999999998e-01 -9.9563902745801620e+00 -9.1504588863810419e+00 -1.3193207594195622e+01 6 1 0
113 38 2 4.0999999999999998e-01 -9.2146874580988758e+00 -7.6979090976597560e+00 -1.3275144225205379e+01 6 1 0
112 38 1 -8.1999999999999995e-01 -9.5874871996402362e+00 -8.4557091668161402e+00 -1.3810682266792355e+01 6 1 0
860 287 2 4.0999999999999998e-01 -1.4605244577450289e+01 -1.1079005774981864e+01 -1.3530770693695162e+01 5 5 -6
2055 685 2 4.0999999999999998e-01 -1.1996043009402253e+01 -5.1394568327833401e+00 -1.1027016014747144e+01 -7 1 -6
1824 608 2 4.0999999999999998e-01 -1.4879026938490190e+01 -1.1773248527997261e+01 -1.0543818617472720e+01 4 4 -1
885 295 2 4.0999999999999998e-01 -1.2940422154377112e+01 -5.8040174855200686e+00 -1.3776842759466179e+01 1 2 -1
1769 590 2 4.0999999999999998e-01 -8.5752237424138116e+00 -6.2208650216488035e+00 -8.8905531144261154e+00 -3 0 3
2242 748 1 -8.1999999999999995e-01 -9.6159967696977340e+00 -1.3396537587755690e+01 -1.4235554371268446e+01 -4 3 2
2459 820 2 4.0999999999999998e-01 -1.2632057489770602e+01 -1.0694850527961282e+01 -9.7946674419198416e+00 -2 -3 -2
2302 768 1 -8.1999999999999995e-01 -8.7864035659642585e+00 -1.3652428523399420e+01 -8.4572694104061021e+00 1 0 0
2460 820 2 4.0999999999999998e-01 -1.2538769503930920e+01 -9.1803712061890757e+00 -9.1910223722322009e+00 -2 -3 -2
94 32 1 -8.1999999999999995e-01 -8.7365607119213440e+00 -6.6546968802346367e+00 -1.1811898666575191e+01 1 7 -1
95 32 2 4.0999999999999998e-01 -8.0187250185827388e+00 -7.1081880936305017e+00 -1.1283600166947114e+01 1 7 -1
2458 820 1 -8.1999999999999995e-01 -1.3104899256199520e+01 -9.8173546548790380e+00 -9.7142726761748808e+00 -2 -3 -2
1823 608 2 4.0999999999999998e-01 -1.3648452442541972e+01 -1.2735451468948078e+01 -1.1019832748168637e+01 4 4 -1
2303 768 2 4.0999999999999998e-01 -9.1148816214617607e+00 -1.2734363472284143e+01 -8.6793056710394794e+00 1 0 0
388 130 1 -8.1999999999999995e-01 -1.0048654494726428e+01 -1.0439072679267666e+01 -7.6650312433096444e+00 2 10 -6
883 295 1 -8.1999999999999995e-01 -1.3681867337013450e+01 -5.4123535255814055e+00 -1.4321727890279695e+01 1 2 -1
390 130 2 4.0999999999999998e-01 -1.0613026685863627e+01 -9.6166579772223937e+00 -7.7368627759039423e+00 2 10 -6
2304 768 2 4.0999999999999998e-01 -7.7864776149493311e+00 -1.3654440410557706e+01 -8.4436394789996374e+00 1 0 0
1822 608 1 -8.1999999999999995e-01 -1.4544460187149165e+01 -1.2715085698296081e+01 -1.0576214617085903e+01 4 4 -1
1581 527 2 4.0999999999999998e-01 -1.4651111301535307e+01 -1.4043934264930668e+01 -9.2930180379126988e+00 -8 2 -7
2526 842 2 4.0999999999999998e-01 -1.2446593558147375e+01 -1.4460872906422681e+01 -8.1446941429658892e+00 -4 3 -1
96 32 2 4.0999999999999998e-01 -8.7029970997355637e+00 -5.6696357800759252e+00 -1.1642872586500420e+01 1 7 -1
929 310 2 4.0999999999999998e-01 -1.3650519594573227e+01 -9.7997472444381515e+00 -7.6966498337560081e+00 -1 4 -2
1768 590 1 -8.1999999999999995e-01 -9.4197755183356264e+00 -6.3405094688404482e+00 -8.3685769024118564e+00 -3 0 3
859 287 1 -8.1999999999999995e-01 -1.4538545868745054e+01 -1.0563673428113573e+01 -1.2676355462003270e+01 5 5 -6
854 285 2 4.0999999999999998e-01 -1.0070623429802113e+01 -6.5994560345390649e+00 -1.4672111560539507e+01 3 8 -3
486 162 2 4.0999999999999998e-01 -1.4655095773197672e+01 -5.8518996864262469e+00 -8.7419031208227960e+00 -8 0 -1
2524 842 1 -8.1999999999999995e-01 -1.2105362243756241e+01 -1.3522792534311728e+01 -8.2047614750202094e+00 -4 3 -1
2155 719 1 -8.1999999999999995e-01 -1.1500271830148481e+01 -8.1300946611255149e+00 -7.9743870292725241e+00 -1 0 -4
1770 590 2 4.0999999999999998e-01 -9.4969496163495730e+00 -5.6119996042672540e+00 -7.6878719715688186e+00 -3 0 3
2244 748 2 4.0999999999999998e-01 -1.0567525038800486e+01 -1.3399565010066295e+01 -1.4543168566444837e+01 -4 3 2
302 101 2 4.0999999999999998e-01 -3.7839721373346364e+00 -1.3807933069597205e+01 -9.6075417231679836e+00 -2 0 -1
1447 483 1 -8.1999999999999995e-01 -7.2828211769099163e+00 -1.0929258375129574e+01 -1.0592052472099745e+01 -2 -2 -2
1448 483 2 4.0999999999999998e-01 -7.1540330165992172e+00 -1.1740641688133358e+01 -1.0021866148810840e+01 -2 -2 -2
1449 483 2 4.0999999999999998e-01 -6.9038314111310264e+00 -1.0130220051260858e+01 -1.0125205356943697e+01 -2 -2 -2
773 258 2 4.0999999999999998e-01 -4.7993102629723214e+00 -1.4808837587100424e+01 -1.1967653448347722e+01 2 5 -2
303 101 2 4.0999999999999998e-01 -3.1557101016562061e+00 -1.3950737036167780e+01 -8.1069979849978164e+00 -2 0 -1
2096 699 2 4.0999999999999998e-01 -2.5229281878517575e+00 -7.6683740094265334e+00 -1.3833317254104191e+01 -3 5 -2
754 252 1 -8.1999999999999995e-01 -5.7455181092706145e+00 -6.9284243917187194e+00 -1.4441948340392731e+01 -2 -2 -2
2095 699 1 -8.1999999999999995e-01 -3.2295829908542153e+00 -7.5437087193551520e+00 -1.4529836652371095e+01 -3 5 -2
301 101 1 -8.1999999999999995e-01 -3.6606262677644938e+00 -1.3350188228841613e+01 -8.7270321466210810e+00 -2 0 -1
170 57 2 4.0999999999999998e-01 -4.8222325998546225e+00 -5.7525525115344536e+00 -1.1728043116680581e+01 -1 -1 -3
1684 562 1 -8.1999999999999995e-01 -1.0142432183476373e+00 -6.8861439157455457e+00 -1.3100832682309701e+01 -7 6 1
755 252 2 4.0999999999999998e-01 -6.2976952998149613e+00 -7.6470713013928426e+00 -1.4864664042516349e+01 -2 -2 -2
1796 599 2 4.0999999999999998e-01 -1.9787272808154732e-01 -1.2457044765278493e+01 -1.2780189339192813e+01 -4 4 -4
1501 501 1 -8.1999999999999995e-01 -1.4725460378399724e-01 -5.5106204039003952e+00 -1.1115518115162544e+01 -4 3 4
1525 509 1 -8.1999999999999995e-01 -6.9070016039595092e+00 -5.4980627710226013e+00 -9.4048960403213506e+00 5 -2 -1
1686 562 2 4.0999999999999998e-01 -1.1389856962613187e+00 -6.1202246514149063e+00 -1.3731585165914568e+01 -7 6 1
343 115 1 -8.1999999999999995e-01 -1.8933390631213172e+00 -1.1352227715310335e+01 -1.0574627864098977e+01 -5 2 0
877 293 1 -8.1999999999999995e-01 -2.2458394746024695e+00 -5.0886711070942798e+00 -9.2200159301698648e+00 -6 0 -3
169 57 1 -8.1999999999999995e-01 -5.5020682499794020e+00 -6.4828876918210980e+00 -1.1794943682703817e+01 -1 -1 -3
1195 399 1 -8.1999999999999995e-01 -2.2515368793273431e+00 -7.9880795418995429e+00 -1.0238725913838397e+01 6 5 1
2566 856 1 -8.1999999999999995e-01 -1.7755852276680510e+00 -1.2240376973011870e+01 -1.4648394863132713e+01 -9 0 -4
1527 509 2 4.0999999999999998e-01 -6.2012131128675030e+00 -5.7214545608432434e+00 -1.0077205688849897e+01 5 -2 -1
1846 616 1 -8.1999999999999995e-01 -6.2423989068546870e+00 -1.2651735056013351e+01 -8.7949187372897839e+00 -1 5 -5
1540 514 1 -8.1999999999999995e-01 -3.4546375358048564e-01 -8.7318932751457794e+00 -8.4852945518463940e+00 -2 5 -2
2568 856 2 4.0999999999999998e-01 -1.6896912681796667e+00 -1.3123692084027487e+01 -1.4187506288013477e+01 -9 0 -4
171 57 2 4.0999999999999998e-01 -5.6357961853274112e+00 -6.7268207260259789e+00 -1.2755493108290644e+01 -1 -1 -3
1848 616 2 4.0999999999999998e-01 -6.4667006826283373e+00 -1.2140829908388422e+01 -7.9650353851429463e+00 -1 5 -5
1889 630 2 4.0999999999999998e-01 -3.5117547800523159e+00 -1.0012976903830229e+01 -7.7197584857025987e+00 -1 8 -7
1847 616 2 4.0999999999999998e-01 -5.2649681207598338e+00 -1.2862958770523155e+01 -8.8023564087625861e+00 -1 5 -5
1196 399 2 4.0999999999999998e-01 -2.0139502097919291e+00 -7.9346679542026717e+00 -1.1208644208737418e+01 6 5 1
2490 830 2 4.0999999999999998e-01 -6.2959778536765487e+00 -1.0603095470721083e+01 -1.4135307837419601e+01 1 4 -1
345 115 2 4.0999999999999998e-01 -9.8707544242547840e-01 -1.0964840720009891e+01 -1.0405337448591688e+01 -5 2 0
1685 562 2 4.0999999999999998e-01 -8.1771566373707394e-01 -6.5353116358483501e+00 -1.2185226203405024e+01 -7 6 1
879 293 2 4.0999999999999998e-01 -1.6933066536420043e+00 -5.7258878324612148e+00 -9.7573277114912429e+00 -6 0 -3
1542 514 2 4.0999999999999998e-01 -9.6442518846505365e-01 -8.2272489308489778e+00 -9.0871770162292727e+00 -2 5 -2
160 54 1 -8.1999999999999995e-01 -5.1007770337330491e+00 -8.3327681121534489e+00 -9.6532156694932265e+00 -1 5 -4
1197 399 2 4.0999999999999998e-01 -3.2451208271942900e+00 -8.0464832417821910e+00 -1.0141660608331611e+01 6 5 1
162 54 2 4.0999999999999998e-01 -5.6334337485946726e+00 -7.8068476320839837e+00 -1.0316334166009705e+01 -1 5 -4
772 258 1 -8.1999999999999995e-01 -4.8752147127152714e+00 -1.4313618323568933e+01 -1.2833123206337937e+01 2 5 -2
774 258 2 4.0999999999999998e-01 -4.6612762122848803e+00 -1.3348111761724329e+01 -1.2684566455930122e+01 2 5 -2
597 199 2 4.0999999999999998e-01 -3.3013523206829021e+00 -1.1493051911212161e+01 -1.1853478216774826e+01 5 -1 -6
2567 856 2 4.0999999999999998e-01 -2.4915548103237413e+00 -1.1701211344700662e+01 -1.4204852741679979e+01 -9 0 -4
161 54 2 4.0999999999999998e-01 -5.4146950755799104e+00 -8.1182868017197762e+00 -8.7282860727368323e+00 -1 5 -4
595 199 1 -8.1999999999999995e-01 -3.6524598207043599e+00 -1.1978605187416084e+01 -1.2654104738072270e+01 5 -1 -6
596 199 2 4.0999999999999998e-01 -4.4934944261831440e+00 -1.1538378163266454e+01 -1.2968592639615295e+01 5 -1 -6
2489 830 2 4.0999999999999998e-01 -6.4911002490977907e+00 -1.0613414610917456e+01 -1.2514024900186271e+01 1 4 -1
2488 830 1 -8.1999999999999995e-01 -5.8994560937814065e+00 -1.0901379221055667e+01 -1.3267068909949874e+01 1 4 -1
344 115 2 4.0999999999999998e-01 -1.8725704615065109e+00 -1.2336927233342767e+01 -1.0401488516714462e+01 -5 2 0
878 293 2 4.0999999999999998e-01 -3.0829687848935183e+00 -5.5453709959075486e+00 -8.9188823840352374e+00 -6 0 -3
756 252 2 4.0999999999999998e-01 -4.7779415849619014e+00 -7.1746081063484146e+00 -1.4498789035970812e+01 -2 -2 -2
1890 630 2 4.0999999999999998e-01 -3.3161926261165924e+00 -1.1632389181102624e+01 -7.6423189788008603e+00 -1 8 -7
833 278 2 4.0999999999999998e-01 -5.4200294752882296e+00 -5.2022717571198704e+00 -1.4753827327499209e+01 -1 5 1
1231 411 1 -8.1999999999999995e-01 -1.0364634284105438e+00 -1.4889496431580675e+01 -1.4015228491246727e+01 -8 3 -1
2553 851 2 4.0999999999999998e-01 -8.0707958264262238e+00 -1.3704382252458048e+01 -1.2234131467600768e+00 1 7 -4
231 77 2 4.0999999999999998e-01 -9.7681166983591883e+00 -1.1262239150318786e+01 -8.3841599201367245e-01 -4 4 -4
648 216 2 4.0999999999999998e-01 -9.0230047155702806e+00 -1.4451942365894549e+01 -6.8372542496716537e+00 0 4 -4
2584 862 1 -8.1999999999999995e-01 -8.4320599213278236e+00 -8.1305576796760306e+00 -6.2872315355811992e+00 4 0 -4
2585 862 2 4.0999999999999998e-01 -9.3505464859239780e+00 -7.9621898137357592e+00 -5.9293539281957788e+00 4 0 -4
296 99 2 4.0999999999999998e-01 -1.3569752863580810e+01 -1.3925710217630943e+01 -1.3339065293751435e+00 -5 4 0
1422 474 2 4.0999999999999998e-01 -1.1653066823857584e+01 -1.2429975608283220e+01 -5.2000569931509251e+00 -4 4 1
1420 474 1 -8.1999999999999995e-01 -1.0949771074399173e+01 -1.2342548213864879e+01 -5.9055873979869844e+00 -4 4 1
1421 474 2 4.0999999999999998e-01 -1.0054542835296498e+01 -1.2237130823924849e+01 -5.4725804688965436e+00 -4 4 1
2542 848 1 -8.1999999999999995e-01 -1.2645755086798305e+01 -1.1923714311639076e+01 -3.4708509351127450e+00 4 2 -5
2544 848 2 4.0999999999999998e-01 -1.2727577618317572e+01 -1.2248683317399736e+01 -2.5286503768040358e+00 4 2 -5
1074 358 2 4.0999999999999998e-01 -1.0948654979761203e+01 -1.2549704608178565e+01 -2.5328790274719175e+00 -6 4 -9
1072 358 1 -8.1999999999999995e-01 -9.9917550913575823e+00 -1.2400446814736181e+01 -2.2836674767421972e+00 -6 4 -9
2442 814 2 4.0999999999999998e-01 -1.4330246771981731e+01 -9.4944426219415732e+00 -4.7888763425013110e+00 6 4 -1
1073 358 2 4.0999999999999998e-01 -9.4792648298821192e+00 -1.2105978462480000e+01 -3.0903172235765428e+00 -6 4 -9
2093 698 2 4.0999999999999998e-01 -1.2489621859878707e+01 -7.9521126769280466e+00 -1.4421316961376984e+00 -2 -1 -6
2094 698 2 4.0999999999999998e-01 -1.3078832166562544e+01 -7.8001647928995590e+00 -2.9575460557276312e+00 -2 -1 -6
2440 814 1 -8.1999999999999995e-01 -1.4509397446496363e+01 -9.6170626936237458e+00 -3.8127047199432074e+00 6 4 -1
2092 698 1 -8.1999999999999995e-01 -1.2246211670352761e+01 -7.8315477449982964e+00 -2.4045543187234060e+00 -2 -1 -6
35 12 2 4.0999999999999998e-01 -1.0436363744303232e+01 -8.3295951070002694e+00 -2.1139155064632433e+00 -3 4 -4
1759 587 1 -8.1999999999999995e-01 -8.5120135202818794e+00 -1.2054393782612291e+01 -4.6487695100764412e+00 -4 4 -1
1760 587 2 4.0999999999999998e-01 -8.1340172333880343e+00 -1.1131267479227560e+01 -4.5780708495340594e+00 -4 4 -1
34 12 1 -8.1999999999999995e-01 -9.5409896848754663e+00 -7.9247846117951957e+00 -2.2995912077036849e+00 -3 4 -4
36 12 2 4.0999999999999998e-01 -9.5985903853284782e+00 -6.9308577075115068e+00 -2.2056062185294145e+00 -3 4 -4
2543 848 2 4.0999999999999998e-01 -1.3299436956967734e+01 -1.1182972089561046e+01 -3.6259079668559497e+00 4 2 -5
798 266 2 4.0999999999999998e-01 -1.4382561408867353e+01 -6.3166513981600207e+00 -4.8636322392936293e+00 -4 10 1
389 130 2 4.0999999999999998e-01 -1.0518661703470263e+01 -1.1117602192070841e+01 -7.1004671179838494e+00 2 10 -6
1395 465 2 4.0999999999999998e-01 -1.1474443857474849e+01 -8.1335734393973933e+00 -4.3641118513933623e+00 0 1 0
1393 465 1 -8.1999999999999995e-01 -1.1402557448088530e+01 -7.7410941987183026e+00 -5.2810819114744909e+00 0 1 0
297 99 2 4.0999999999999998e-01 -1.1975041378931657e+01 -1.3954493489841857e+01 -9.8347192909293746e-01 -5 4 0
1276 426 1 -8.1999999999999995e-01 -1.4319205729314032e+01 -1.0580165883492178e+01 -5.0462904998043356e-01 -3 1 -3
295 99 1 -8.1999999999999995e-01 -1.2741623387859271e+01 -1.3371152442309203e+01 -1.2519993259130597e+00 -5 4 0
2157 719 2 4.0999999999999998e-01 -1.1703654266260642e+01 -7.9618509791506309e+00 -7.0098294190074348e+00 -1 0 -4
229 77 1 -8.1999999999999995e-01 -9.6791315767214918e+00 -1.0596629435466681e+01 -9.7411882018279883e-02 -4 4 -4
928 310 1 -8.1999999999999995e-01 -1.4174135687102529e+01 -9.7625318237602130e+00 -6.8454842996652108e+00 -1 4 -2
1880 627 2 4.0999999999999998e-01 -7.5376233220007407e+00 -1.0326853636609361e+01 -6.9518149884435010e+00 -3 9 -5
1394 465 2 4.0999999999999998e-01 -1.1610629247568278e+01 -6.7637178336650390e+00 -5.2425688855998551e+00 0 1 0
1278 426 2 4.0999999999999998e-01 -1.4194988476197192e+01 -1.1537780598260609e+01 -7.6460179603443379e-01 -3 1 -3
2586 862 2 4.0999999999999998e-01 -8.2680989420100151e+00 -7.5385580311070965e+00 -7.0763417126128525e+00 4 0 -4
790 264 1 -8.1999999999999995e-01 -1.3592236213779961e+01 -1.4526376531542894e+01 -4.9243150274756289e+00 -3 -1 0
791 264 2 4.0999999999999998e-01 -1.3232066844084798e+01 -1.3690660543703693e+01 -4.5097087048318052e+00 -3 -1 0
1761 587 2 4.0999999999999998e-01 -7.7655551485792627e+00 -1.2719525766203885e+01 -4.6697711306583827e+00 -4 4 -1
1229 410 2 4.0999999999999998e-01 -8.4098268640073499e+00 -8.7782120021873737e+00 -3.4038392236579362e+00 -5 5 -4
1462 488 1 -8.1999999999999995e-01 -1.2705052336741330e+01 -5.1802617055235878e+00 -4.8542878328211305e+00 -1 3 -6
2072 691 2 4.0999999999999998e-01 -1.0361024232528006e+01 -5.4314488578303557e+00 -1.4637270198388066e+00 0 4 1
1230 410 2 4.0999999999999998e-01 -7.6123080768469435e+00 -8.7912425791110493e+00 -4.8288063544857973e+00 -5 5 -4
1228 410 1 -8.1999999999999995e-01 -7.7028387252221062e+00 -9.2398537071585451e+00 -3.9396529105512901e+00 -5 5 -4
2071 691 1 -8.1999999999999995e-01 -9.4942438248698888e+00 -5.2449948728760170e+00 -1.9262939298423785e+00 0 4 1
2040 680 2 4.0999999999999998e-01 -8.3394121578375504e+00 -9.3102608600378041e+00 -2.4030807770403939e-01 -2 1 1
2219 740 2 4.0999999999999998e-01 -1.4619827272093758e+01 -8.0836292708948179e+00 -7.3181121908954250e+00 0 4 -1
2525 842 2 4.0999999999999998e-01 -1.1487109838156110e+01 -1.3343355232698528e+01 -7.4395112577989551e+00 -4 3 -1
2513 838 2 4.0999999999999998e-01 -1.6452615262276868e+00 -1.4332427858274912e+01 -6.2968072692862567e+00 -6 -1 -3
2551 851 1 -8.1999999999999995e-01 -7.2240084988595283e+00 -1.3680588067279855e+01 -1.7548514988657420e+00 1 7 -4
2552 851 2 4.0999999999999998e-01 -7.0299928381503882e+00 -1.2739171463706457e+01 -2.0307760119843685e+00 1 7 -4
2239 747 1 -8.1999999999999995e-01 -1.3310052010593054e-01 -1.4726832138460832e+01 -5.5546825922958316e+00 -1 7 -5
1094 365 2 4.0999999999999998e-01 -7.3791076013840264e+00 -1.4795120708020059e+01 -3.1938659712801449e+00 -9 0 -7
2167 723 1 -8.1999999999999995e-01 -6.0375297976888262e+00 -5.7519202167229260e+00 -4.6111478321002828e+00 1 -2 -2
1888 630 1 -8.1999999999999995e-01 -3.1340695833059069e+00 -1.0764891932697445e+01 -7.1793703578639336e+00 -1 8 -7
1101 367 2 4.0999999999999998e-01 -1.5365343024425382e+00 -1.0843239899377686e+01 -6.4318910392068371e+00 -5 6 -8
2039 680 2 4.0999999999999998e-01 -7.1711239745425379e+00 -8.5878647976992113e+00 -1.1234749350679110e+00 -2 1 1
2169 723 2 4.0999999999999998e-01 -6.8503921963745036e+00 -5.1900116832148591e+00 -4.4576709070143110e+00 1 -2 -2
1106 369 2 4.0999999999999998e-01 -1.0206680185798369e+00 -1.3794629754888417e+01 -1.5663608057905876e-01 -2 8 3
1551 517 2 4.0999999999999998e-01 -3.1789520836810752e+00 -5.1297331813927354e+00 -6.4953431688900007e+00 7 7 -8
2364 788 2 4.0999999999999998e-01 -4.0834584638881566e-01 -6.3327370439470965e+00 -3.8004728981603275e+00 0 -2 -2
2406 802 2 4.0999999999999998e-01 -3.0616092938533797e+00 -1.0408917838867275e+01 -1.3573435641121758e+00 -4 9 5
369 123 2 4.0999999999999998e-01 -4.2275353685186587e+00 -1.2076310943689421e+01 -1.0291165195575509e+00 -2 -1 0
1099 367 1 -8.1999999999999995e-01 -8.4506697945115938e-01 -1.1230991119467747e+01 -5.8223308786795318e+00 -5 6 -8
1347 449 2 4.0999999999999998e-01 -3.8251437957726058e+00 -8.7199989015818637e+00 -4.8655407498651631e+00 -3 9 -4
2015 672 2 4.0999999999999998e-01 -5.5716588446827426e+00 -1.3801486147210934e+01 -2.3813046432838370e-01 -2 10 -8
1345 449 1 -8.1999999999999995e-01 -3.6104030619613408e+00 -8.6758286168897119e+00 -5.8412338255911394e+00 -3 9 -4
2168 723 2 4.0999999999999998e-01 -5.6467602755452528e+00 -6.0203323364070478e+00 -3.7306390123308137e+00 1 -2 -2
1881 627 2 4.0999999999999998e-01 -6.1466172929394158e+00 -1.0200801040717273e+01 -6.1056762914401563e+00 -3 9 -5
1663 555 1 -8.1999999999999995e-01 -5.0594716719627932e+00 -9.5286592563069732e+00 -3.0682993131038128e+00 -3 4 -6
367 123 1 -8.1999999999999995e-01 -4.3632269135400126e+00 -1.1824958218624740e+01 -1.9874750857071355e+00 -2 -1 0
1879 627 1 -8.1999999999999995e-01 -6.6631601102848794e+00 -1.0767086102668012e+01 -6.7479740820619245e+00 -3 9 -5
537 179 2 4.0999999999999998e-01 -1.5038129231005772e+00 -9.8544117021996929e+00 -2.6336697375876259e+00 -2 8 -6
549 183 2 4.0999999999999998e-01 -4.6196026265938706e+00 -7.7676260994862822e+00 -2.3394138790892711e+00 -1 5 1
990 330 2 4.0999999999999998e-01 -4.5912951026145841e+00 -5.8626075171496517e+00 -7.6645808045147312e-01 0 9 1
1664 555 2 4.0999999999999998e-01 -6.0432032795663861e+00 -9.4492794643749285e+00 -3.2295836378557805e+00 -3 4 -6
368 123 2 4.0999999999999998e-01 -3.8651341405145896e+00 -1.2464155870724678e+01 -2.5734540585913201e+00 -2 -1 0
2405 802 2 4.0999999999999998e-01 -2.1222103251990934e+00 -1.0294534359440997e+01 -2.6485338375621836e-02 -4 9 5
1550 517 2 4.0999999999999998e-01 -4.5001334854738797e+00 -5.1377580610401878e+00 -5.5355761221055975e+00 7 7 -8
548 183 2 4.0999999999999998e-01 -3.6091447994000827e+00 -6.8245542927050735e+00 -1.4697427087593393e+00 -1 5 1
2388 796 2 4.0999999999999998e-01 -6.3184756712082493e+00 -7.2692989434957829e+00 -6.2644080551895485e+00 0 3 -4
1346 449 2 4.0999999999999998e-01 -3.4172447368613650e+00 -9.5959402713208384e+00 -6.1820066873851012e+00 -3 9 -4
1127 376 2 4.0999999999999998e-01 -5.4551307629989356e+00 -1.2792920777478400e+01 -5.6891713994961961e+00 -1 5 -6
1128 376 2 4.0999999999999998e-01 -5.2778048802406072e+00 -1.3619927445522020e+01 -4.2922630843733511e+00 -1 5 -6
1131 377 2 4.0999999999999998e-01 -3.1498465779996110e+00 -1.4275430677012896e+01 -4.8091494944649860e+00 -5 2 -5
182 61 2 4.0999999999999998e-01 -1.2747954099416887e+00 -7.0501901804309046e+00 -6.7593546675054696e+00 -5 4 -3
1129 377 1 -8.1999999999999995e-01 -3.5598428104254385e+00 -1.4123898601822331e+01 -3.9097147767071991e+00 -5 2 -5
183 61 2 4.0999999999999998e-01 -2.8407395318734228e+00 -7.2304811783220568e+00 -6.3326796597702657e+00 -5 4 -3
2404 802 1 -8.1999999999999995e-01 -2.1974823816217537e+00 -1.0059092072727511e+01 -9.9547587515846558e-01 -4 9 5
1258 420 1 -8.1999999999999995e-01 -3.8153974497913445e-01 -1.4676306168832740e+01 -2.2553348912792952e+00 4 7 0
2387 796 2 4.0999999999999998e-01 -4.8623695949540782e+00 -7.8796687639252481e+00 -6.6814710325051951e+00 0 3 -4
1665 555 2 4.0999999999999998e-01 -4.8546765760015091e+00 -1.0434051226720957e+01 -2.6963235215352448e+00 -3 4 -6
2038 680 1 -8.1999999999999995e-01 -7.3548056674034292e+00 -9.1547762640017414e+00 -3.2040986085518952e-01 -2 1 1
547 183 1 -8.1999999999999995e-01 -4.3866853229799485e+00 -6.8253927690956413e+00 -2.0986079941027391e+00 -1 5 1
535 179 1 -8.1999999999999995e-01 -1.0122819881133616e+00 -9.6834112899523550e+00 -3.4876005057867960e+00 -2 8 -6
2386 796 1 -8.1999999999999995e-01 -5.7141881992587304e+00 -7.4888632217275362e+00 -7.0303518545784707e+00 0 3 -4
1126 376 1 -8.1999999999999995e-01 -5.9367795124266927e+00 -1.3294066527863917e+01 -4.9702075266499062e+00 -1 5 -6
181 61 1 -8.1999999999999995e-01 -2.1584306970937703e+00 -6.5883658282359541e+00 -6.6822281388644829e+00 -5 4 -3
536 179 2 4.0999999999999998e-01 -1.0066880331694215e+00 -1.0516029264614106e+01 -4.0414576244448490e+00 -2 8 -6
2363 788 2 4.0999999999999998e-01 -1.0277306413518872e-01 -7.9340261682807247e+00 -3.7043683184229543e+00 0 -2 -2
1130 377 2 4.0999999999999998e-01 -3.3360805323442602e+00 -1.4890611259674706e+01 -3.3079475026496308e+00 -5 2 -5
1260 420 2 4.0999999999999998e-01 -5.5547671183405356e-01 -1.4532683416541390e+01 -3.2295833557147695e+00 4 7 0
1100 367 2 4.0999999999999998e-01 -1.2033372229340777e-01 -1.1653695320833258e+01 -6.3665041065950643e+00 -5 6 -8
2512 838 1 -8.1999999999999995e-01 -2.5665992508408344e+00 -1.4574730492589993e+01 -6.6008925376805028e+00 -6 -1 -3
1868 623 2 4.0999999999999998e-01 -9.1241684040334015e+00 -1.1124673905876584e+01 1.4417638466163645e+00 -2 2 -4
1887 629 2 4.0999999999999998e-01 -9.4900673030123777e+00 -1.4297275909311221e+01 6.0194485009804488e-01 -2 4 -5
1618 540 1 -8.1999999999999995e-01 -1.4662168358599716e+01 -6.6595784411692929e+00 7.2038491147058075e+00 2 7 -5
45 15 2 4.0999999999999998e-01 -1.4188547050700771e+01 -1.2760197666658916e+01 5.3901818539765891e+00 0 7 0
1885 629 1 -8.1999999999999995e-01 -8.6435360503409662e+00 -1.3838410184939402e+01 8.7188706709217989e-01 -2 4 -5
1886 629 2 4.0999999999999998e-01 -8.8482869140214362e+00 -1.3134228434457325e+01 1.5517744404595817e+00 -2 4 -5
806 269 2 4.0999999999999998e-01 -1.1927692535069466e+01 -1.3154725691353580e+01 2.9718318726478472e+00 4 10 -2
1869 623 2 4.0999999999999998e-01 -8.5395757743819054e+00 -1.0754520071781824e+01 2.9209444473313440e+00 -2 2 -4
1221 407 2 4.0999999999999998e-01 -1.2727492970619759e+01 -8.2833039224728005e+00 1.2097893715205252e+00 -2 4 1
1867 623 1 -8.1999999999999995e-01 -8.8579388473772802e+00 -1.1496615968765019e+01 2.3310459514581225e+00 -2 2 -4
1335 445 2 4.0999999999999998e-01 -9.7318390103906651e+00 -1.0437258413504281e+01 4.8724464283466347e+00 -3 5 0
328 110 1 -8.1999999999999995e-01 -1.4146086935090050e+01 -1.0253188817102464e+01 2.9830339900136877e+00 -10 1 1
330 110 2 4.0999999999999998e-01 -1.3812562341601785e+01 -1.0862590946106675e+01 3.7023614886060976e+00 -10 1 1
43 15 1 -8.1999999999999995e-01 -1.4487163348384151e+01 -1.1805803129689025e+01 5.3891358057316268e+00 0 7 0
807 269 2 4.0999999999999998e-01 -1.2436318421940090e+01 -1.4091319971390950e+01 4.2090984269167393e+00 4 10 -2
1262 421 2 4.0999999999999998e-01 -9.7233427226070788e+00 -6.3199319637676936e+00 5.8034377148200278e-01 0 1 -2
674 225 2 4.0999999999999998e-01 -1.2911651316532792e+01 -8.8312666443703591e+00 3.3572299284307867e+00 1 -1 -6
673 225 1 -8.1999999999999995e-01 -1.2569763910624491e+01 -7.9735156244012346e+00 2.9732797028941427e+00 1 -1 -6
426 142 2 4.0999999999999998e-01 -1.1705233693168996e+01 -1.0460733120537448e+01 5.8718255693032191e+00 -7 8 -3
424 142 1 -8.1999999999999995e-01 -1.2551697419545967e+01 -1.0019129704404886e+01 6.1693608138900018e+00 -7 8 -3
425 142 2 4.0999999999999998e-01 -1.3307962999199574e+01 -1.0670199879203899e+01 6.1044629683734826e+00 -7 8 -3
1201 401 1 -8.1999999999999995e-01 -1.2226559562227349e+01 -1.1593864803367426e+01 1.7051141867082968e+00 -2 1 -6
1805 602 2 4.0999999999999998e-01 -1.0020398247944147e+01 -6.6252336214804899e+00 4.6423830238322132e+00 -1 1 -4
1806 602 2 4.0999999999999998e-01 -1.0514564716661987e+01 -7.1097185301573758e+00 3.1632577666715314e+00 -1 1 -4
1804 602 1 -8.1999999999999995e-01 -9.7484345839045403e+00 -6.7364944956387909e+00 3.6865072736456135e+00 -1 1 -4
675 225 2 4.0999999999999998e-01 -1.3080772568188159e+01 -7.2070410888862586e+00 3.3624180804733363e+00 1 -1 -6
1951 651 1 -8.1999999999999995e-01 -8.6048556024539113e+00 -1.4522634120656031e+01 5.1901870957359755e+00 -8 2 -2
1719 573 2 4.0999999999999998e-01 -8.6231747199197510e+00 -6.1344590007957294e+00 2.5823124062627798e+00 -3 5 -2
1717 573 1 -8.1999999999999995e-01 -8.1386451797775532e+00 -5.8730389198633492e+00 1.7474876586341992e+00 -3 5 -2
1202 401 2 4.0999999999999998e-01 -1.2798682810765534e+01 -1.2123488940054015e+01 1.0788436680410811e+00 -2 1 -6
145 49 1 -8.1999999999999995e-01 -1.4104121497949919e+01 -5.9766216820716895e+00 4.1243098462980186e+00 2 -3 -2
1333 445 1 -8.1999999999999995e-01 -1.0307198692894707e+01 -1.1170795941846420e+01 5.2342828173394231e+00 -3 5 0
1219 407 1 -8.1999999999999995e-01 -1.2739567286927128e+01 -8.4675377447177134e+00 2.2695987626633851e-01 -2 4 1
2267 756 2 4.0999999999999998e-01 -1.4597086852860469e+01 -5.7167497237816498e+00 1.8203749934715923e+00 2 6 -5
2178 726 2 4.0999999999999998e-01 -1.1198911547781336e+01 -8.6879773828757862e+00 6.6589615456310760e+00 -3 7 -4
2176 726 1 -8.1999999999999995e-01 -1.0570233212237227e+01 -7.9106381249872690e+00 6.6823858898487103e+00 -3 7 -4
824 275 2 4.0999999999999998e-01 -8.3838830727060234e+00 -6.8820453078612278e+00 6.8801351867606684e+00 -3 5 -1
1203 401 2 4.0999999999999998e-01 -1.2730877655524125e+01 -1.0788660650961827e+01 2.0171255455927053e+00 -2 1 -6
2517 839 2 4.0999999999999998e-01 -1.2699816197355407e+01 -1.4518188373878898e+01 6.3258268531844450e+00 -4 7 1
1334 445 2 4.0999999999999998e-01 -1.0105596634182657e+01 -1.2022205549922463e+01 4.7500309149920277e+00 -3 5 0
147 49 2 4.0999999999999998e-01 -1.4890506749487599e+01 -6.5295447035120144e+00 4.3998382960072462e+00 2 -3 -2
1952 651 2 4.0999999999999998e-01 -9.3978079072012370e+00 -1.4359472218418018e+01 5.7772531666083609e+00 -8 2 -2
1946 649 2 4.0999999999999998e-01 -1.3431856422644621e+01 -1.4621849602891093e+01 2.2879414836616405e+00 -2 4 -4
2263 755 1 -8.1999999999999995e-01 -8.3398869154425412e+00 -9.4434273038291376e+00 3.9986817490066997e+00 -1 1 -1
1945 649 1 -8.1999999999999995e-01 -1.4254302909915621e+01 -1.4880061031224971e+01 1.7810388348588653e+00 -2 4 -4