LAMMPS data file via write_data, version 15 May 2015, timestep = 8008000

2611 atoms
6 atom types
1749 bonds
4 bond types
894 angles
3 angle types
44 dihedrals
3 dihedral types
10 impropers
1 improper types

-1.4912335518801488e+01 1.4912335518801488e+01 xlo xhi
-1.4912335518801488e+01 1.4912335518801488e+01 ylo yhi
-1.4912335518801488e+01 1.4912335518801488e+01 zlo zhi

Masses

1 15.9994
2 1.00794
3 12.0107
4 1.00794
5 12.0107
6 12.0107

Bond Coeffs # harmonic

1 1000 1
2 469 1.4
3 367 1.08
4 469 0.7

Angle Coeffs # harmonic

1 100 109.47
2 35 120
3 63 120

Dihedral Coeffs # opls

1 0 7.25 0 0
2 0 7.25 0 0
3 0 7.25 0 0

Improper Coeffs # cvff

1 2.5 -1 2

Atoms # full

1646 549 2 4.0999999999999998e-01 -1.1800403412177602e+01 -1.2630060138885876e+01 -9.4118055366204132e+00 -1 0 -2
269 90 2 4.0999999999999998e-01 -1.1634267237296239e+01 -1.0708156114886066e+01 -1.3969138398431296e+01 -2 1 0
268 90 1 -8.1999999999999995e-01 -1.2334093170787289e+01 -1.1065731596148909e+01 -1.4587451863450381e+01 -2 1 0
1645 549 1 -8.1999999999999995e-01 -1.1521413267733488e+01 -1.2690202730580950e+01 -1.0370176772116729e+01 -1 0 -2
1647 549 2 4.0999999999999998e-01 -1.2284646745443697e+01 -1.2420107988638096e+01 -1.0957076747786026e+01 -1 0 -2
2402 801 2 4.0999999999999998e-01 -1.1095582666721064e+01 -1.3803688035958771e+01 -1.4007777160325075e+01 2 3 0
2401 801 1 -8.1999999999999995e-01 -1.0258797783661153e+01 -1.3257478405382290e+01 -1.4044845468146269e+01 2 3 0
282 94 2 4.0999999999999998e-01 -8.5179151776997006e+00 -1.4464787379397906e+01 -1.0509037633600865e+01 1 3 -1
280 94 1 -8.1999999999999995e-01 -9.1488545492244562e+00 -1.4196759992078574e+01 -1.1237051882486382e+01 1 3 -1
2055 685 2 4.0999999999999998e-01 -1.1015713175484001e+01 -8.3368675099530076e+00 -1.1563548319692938e+01 -2 5 1
281 94 2 4.0999999999999998e-01 -9.8642875357341850e+00 -1.3609503495858785e+01 -1.0858616361087435e+01 1 3 -1
2054 685 2 4.0999999999999998e-01 -1.0862207572315022e+01 -6.8066425829076085e+00 -1.1014656618448425e+01 -2 5 1
2053 685 1 -8.1999999999999995e-01 -1.0741707542599894e+01 -7.4061948728176823e+00 -1.1805823394649725e+01 -2 5 1
633 211 2 4.0999999999999998e-01 -1.4066150757667296e+01 -9.7718396655124309e+00 -9.7536617942030688e+00 1 5 -1
2403 801 2 4.0999999999999998e-01 -9.8285358105001084e+00 -1.3245193794768817e+01 -1.3142265072406110e+01 2 3 0
631 211 1 -8.1999999999999995e-01 -1.3704471052302161e+01 -8.8423641815051717e+00 -9.6816146893682067e+00 1 5 -1
1711 571 1 -8.1999999999999995e-01 -9.7803725807113651e+00 -6.3172066526000705e+00 -9.0988833690563204e+00 3 3 -1
1383 461 2 4.0999999999999998e-01 -7.7162390108831529e+00 -1.0716877094406783e+01 -8.3966485122529129e+00 0 4 2
1381 461 1 -8.1999999999999995e-01 -8.4535789080593169e+00 -1.0220208433803521e+01 -7.9388513878680476e+00 0 4 2
1195 399 1 -8.1999999999999995e-01 -1.0121202061424118e+01 -9.9163317703391343e+00 -1.3332970952620292e+01 3 3 -1
632 211 2 4.0999999999999998e-01 -1.2731344691596640e+01 -8.8800481863961842e+00 -9.4546062313918533e+00 1 5 -1
928 310 1 -8.1999999999999995e-01 -7.9287191695638235e+00 -7.0601554297985398e+00 -1.1384416776628798e+01 0 3 2
821 274 2 4.0999999999999998e-01 -7.7593442504713863e+00 -1.1697077551411532e+01 -1.1397217514496084e+01 -2 3 0
820 274 1 -8.1999999999999995e-01 -7.6534012842560655e+00 -1.1099588050672358e+01 -1.2192019675122568e+01 -2 3 0
1289 430 2 4.0999999999999998e-01 -1.4837701296267909e+01 -8.1209483859675125e+00 -1.0733325304044847e+01 -2 6 -1
2301 767 2 4.0999999999999998e-01 -1.0010607138129270e+01 -5.6915061935158029e+00 -1.2760566812003793e+01 0 6 -2
1196 399 2 4.0999999999999998e-01 -9.2290671491038392e+00 -1.0304406435033400e+01 -1.3101840274182472e+01 3 3 -1
1712 571 2 4.0999999999999998e-01 -9.4086688394207627e+00 -6.8044512663826442e+00 -8.3087206687451882e+00 3 3 -1
1713 571 2 4.0999999999999998e-01 -1.0777029063241109e+01 -6.2780327470618520e+00 -9.0276842586519344e+00 3 3 -1
1708 570 1 -8.1999999999999995e-01 -1.4488309149252119e+01 -1.1735229291445158e+01 -9.6951974175721567e+00 4 2 -3
930 310 2 4.0999999999999998e-01 -8.7066736673627059e+00 -7.5752592908739880e+00 -1.1744115103762464e+01 0 3 2
2304 768 2 4.0999999999999998e-01 -1.4053153658873452e+01 -1.0484666792154250e+01 -1.3492193185792487e+01 0 3 0
1344 448 2 4.0999999999999998e-01 -1.3946297520441739e+01 -7.6903969037531779e+00 -1.4304968149877178e+01 0 1 -3
2535 845 2 4.0999999999999998e-01 -7.4774088480694223e+00 -5.8429217498603876e+00 -8.4706658137347404e+00 -1 2 1
1342 448 1 -8.1999999999999995e-01 -1.4586591913272255e+01 -7.0914386137292347e+00 -1.3824135642573584e+01 0 1 -3
2406 802 2 4.0999999999999998e-01 -1.2212515886445544e+01 -1.4630247975492185e+01 -8.1131348282463875e+00 1 4 -2
1343 448 2 4.0999999999999998e-01 -1.4588887173677215e+01 -6.1899947096071468e+00 -1.4256942320648882e+01 0 1 -3
929 310 2 4.0999999999999998e-01 -8.2329614790031407e+00 -6.4825741921980526e+00 -1.0626944232305046e+01 0 3 2
764 255 2 4.0999999999999998e-01 -7.9954699813541010e+00 -1.4755306166634742e+01 -1.2357131047036514e+01 1 0 1
2273 758 2 4.0999999999999998e-01 -1.4662285909029833e+01 -5.0832001493724945e+00 -1.0232462091647978e+01 -1 3 -5
2404 802 1 -8.1999999999999995e-01 -1.2351825452925207e+01 -1.3716154654578247e+01 -7.7324062172028816e+00 1 4 -2
1086 362 2 4.0999999999999998e-01 -8.4786175435260631e+00 -5.9145067565625684e+00 -1.3829407514750772e+01 -3 3 -4
1613 538 2 4.0999999999999998e-01 -1.4544217210743813e+01 -8.1685465101570660e+00 -8.0781665285350321e+00 2 5 -1
1710 570 2 4.0999999999999998e-01 -1.4501819935972355e+01 -1.1965691429664799e+01 -8.7222468656646868e+00 4 2 -3
393 131 2 4.0999999999999998e-01 -1.0282366747969773e+01 -9.7894363896089853e+00 -8.6688542648484983e+00 1 3 0
1084 362 1 -8.1999999999999995e-01 -7.9576685884899341e+00 -6.6218531861149774e+00 -1.4307111567937385e+01 -3 3 -4
1197 399 2 4.0999999999999998e-01 -1.0007203059828962e+01 -9.2137474477277319e+00 -1.4035329519605959e+01 3 3 -1
391 131 1 -8.1999999999999995e-01 -1.1115319639785071e+01 -9.5315984344145050e+00 -8.1793268118826461e+00 1 3 0
1089 363 2 4.0999999999999998e-01 -7.7188535550770654e+00 -8.3400352740261674e+00 -7.5826523995493780e+00 5 4 -2
270 90 2 4.0999999999999998e-01 -1.2211920777197925e+01 -1.2052454211454405e+01 -1.4694130693861997e+01 -2 1 0
822 274 2 4.0999999999999998e-01 -6.7236301231441438e+00 -1.0732043779294077e+01 -1.2211122212732553e+01 -2 3 0
824 275 2 4.0999999999999998e-01 -6.4439561342623080e+00 -1.4352488950255756e+01 -9.5909530053517500e+00 -2 2 -1
1217 406 2 4.0999999999999998e-01 -3.7981561516052214e+00 -7.8537981991077155e+00 -1.4021802169740043e+01 -2 2 -1
1023 341 2 4.0999999999999998e-01 -5.1238334898779367e+00 -9.4585515392576376e+00 -1.4295785414858308e+01 -3 3 -2
583 195 1 -8.1999999999999995e-01 -2.9279411511053013e+00 -1.2318185175362402e+01 -1.4645337240964384e+01 -6 3 -2
1443 481 2 4.0999999999999998e-01 -2.3949992003840670e-01 -5.0972248765360302e+00 -1.2017508371855095e+01 -1 4 0
1021 341 1 -8.1999999999999995e-01 -5.7495705436126023e+00 -9.5523682618390104e+00 -1.3521460356405376e+01 -3 3 -2
621 207 2 4.0999999999999998e-01 -3.4485529554996042e-01 -8.3960787855212118e+00 -8.2838549769420773e+00 -2 2 1
765 255 2 4.0999999999999998e-01 -6.7171049631398549e+00 -1.4425597982336475e+01 -1.3318125286658109e+01 1 0 1
1216 406 1 -8.1999999999999995e-01 -3.9080411873963730e+00 -6.8598911134763263e+00 -1.4020358241415677e+01 -2 2 -1
823 275 1 -8.1999999999999995e-01 -7.3433395726704411e+00 -1.4318551350247878e+01 -9.1551941826589989e+00 -2 2 -1
63 21 2 4.0999999999999998e-01 -6.7512610639048951e+00 -1.0305266380641594e+01 -1.4768918224903443e+01 -1 3 -2
638 213 2 4.0999999999999998e-01 -6.8432125819856591e+00 -1.2747313462298703e+01 -8.6349310747161674e+00 -3 1 -2
917 306 2 4.0999999999999998e-01 -6.9145375546339594e-02 -1.0164969662793959e+01 -1.4544234951542226e+01 -4 1 0
1880 627 2 4.0999999999999998e-01 -2.5546103805877731e+00 -5.8128601672420395e+00 -1.3847611061355103e+01 2 4 -1
1307 436 2 4.0999999999999998e-01 -5.6780102095560139e+00 -1.1042470416065868e+01 -1.0420341719389494e+01 0 2 -1
2586 862 2 4.0999999999999998e-01 -5.0297816645255846e+00 -1.3709287659498477e+01 -1.1216172491222597e+01 2 1 -2
639 213 2 4.0999999999999998e-01 -5.3664836743108069e+00 -1.2054581971870071e+01 -8.5585813115264280e+00 -3 1 -2
1930 644 1 -8.1999999999999995e-01 -2.3961626767886415e+00 -5.9570401914648041e+00 -7.6210024230953328e+00 0 2 -2
291 97 2 4.0999999999999998e-01 -6.3132029882514651e-01 -1.4073088594238085e+01 -1.2680033649169133e+01 0 2 -1
1907 636 2 4.0999999999999998e-01 -2.3146135036397357e+00 -9.6357779281801506e+00 -1.0719149798755875e+01 -2 9 -1
501 167 2 4.0999999999999998e-01 -6.3000527337350416e+00 -6.1956780198185513e+00 -1.1509229571479359e+01 2 2 1
918 306 2 4.0999999999999998e-01 -9.9199355807157374e-01 -9.7605487876802428e+00 -1.3259233149003030e+01 -4 1 0
1118 373 2 4.0999999999999998e-01 -4.8165790235945796e+00 -1.2871877046881490e+01 -1.3669918051533601e+01 -6 4 -1
1119 373 2 4.0999999999999998e-01 -5.3329896090557227e+00 -1.2039176379943157e+01 -1.2363639199960346e+01 -6 4 -1
499 167 1 -8.1999999999999995e-01 -5.3580503558624688e+00 -6.0964582250776598e+00 -1.1829721442508905e+01 2 2 1
2534 845 2 4.0999999999999998e-01 -6.0658277165858134e+00 -6.1069471376487048e+00 -9.2479455129705848e+00 -1 2 1
1218 406 2 4.0999999999999998e-01 -4.6114694806709604e+00 -6.6032916141265243e+00 -1.3357581225592099e+01 -2 2 -1
289 97 1 -8.1999999999999995e-01 -1.3454263325886782e+00 -1.4409696446303718e+01 -1.2066294486445656e+01 0 2 -1
1906 636 1 -8.1999999999999995e-01 -2.8497256914390992e+00 -9.5680313623036675e+00 -9.8771323574837311e+00 -2 9 -1
6 2 2 4.0999999999999998e-01 -5.7495101092510730e+00 -7.9454050749786260e+00 -1.0621462607033566e+01 2 3 -3
2533 845 1 -8.1999999999999995e-01 -6.7712836049412317e+00 -5.4280882014658278e+00 -9.0444500888991861e+00 -1 2 1
1879 627 1 -8.1999999999999995e-01 -1.6646088848430320e+00 -5.4749651156809573e+00 -1.3541584387265621e+01 2 4 -1
2455 819 1 -8.1999999999999995e-01 -1.4451364590238676e+00 -8.5055412057433983e+00 -1.2238707820028097e+01 4 1 1
2456 819 2 4.0999999999999998e-01 -1.9923050744141051e+00 -7.7147596381486290e+00 -1.2512931841635647e+01 4 1 1
294 98 2 4.0999999999999998e-01 -2.0437960471100851e+00 -1.4064074964120477e+01 -8.8526926482414439e+00 1 1 2
637 213 1 -8.1999999999999995e-01 -6.3243244906006115e+00 -1.1909943570229441e+01 -8.8066715940096856e+00 -3 1 -2
1908 636 2 4.0999999999999998e-01 -2.3137602200473211e+00 -9.0935849957642798e+00 -9.1788704500884322e+00 -2 9 -1
293 98 2 4.0999999999999998e-01 -1.8176374407730709e+00 -1.3903885827444469e+01 -1.0461924270448906e+01 1 1 2
1306 436 1 -8.1999999999999995e-01 -5.0321180627575046e+00 -1.0772099201905204e+01 -1.1134239878889701e+01 0 2 -1
1085 362 2 4.0999999999999998e-01 -7.2086461284137640e+00 -6.9354890750331952e+00 -1.3723565623234759e+01 -3 3 -4
1117 373 1 -8.1999999999999995e-01 -5.3924424125011203e+00 -1.2909040566094095e+01 -1.2853261268231954e+01 -6 4 -1
620 207 2 4.0999999999999998e-01 -2.1487816920514824e-01 -9.9710771799336761e+00 -7.8728554473656169e+00 -2 2 1
2585 862 2 4.0999999999999998e-01 -4.0302980301522240e+00 -1.4093828446975026e+01 -9.9834537625544826e+00 2 1 -2
500 167 2 4.0999999999999998e-01 -4.9485870129671525e+00 -5.2840711968512082e+00 -1.1414637155764423e+01 2 2 1
5 2 2 4.0999999999999998e-01 -4.5625324223437325e+00 -8.4577787179659900e+00 -9.6239699045045981e+00 2 3 -3
2333 778 2 4.0999999999999998e-01 -3.4623154332265003e+00 -1.0836469059516217e+01 -8.9229876309170422e+00 0 3 -1
619 207 1 -8.1999999999999995e-01 -7.8746435564131723e-01 -9.1541005013973020e+00 -7.8048681686077837e+00 -2 2 1
584 195 2 4.0999999999999998e-01 -2.2199241970901031e+00 -1.1748739945599972e+01 -1.4227758458137480e+01 -6 3 -2
292 98 1 -8.1999999999999995e-01 -2.3773994468835689e+00 -1.3619160480194836e+01 -9.6837689897947143e+00 1 1 2
2334 778 2 4.0999999999999998e-01 -2.9379933303886911e+00 -1.2360278627794361e+01 -8.6593110662586064e+00 0 3 -1
2332 778 1 -8.1999999999999995e-01 -3.6130046129685063e+00 -1.1671760250952484e+01 -8.3943010669752329e+00 0 3 -1
4 2 1 -8.1999999999999995e-01 -5.4060977162962924e+00 -7.9240253020520175e+00 -9.6825597469247349e+00 2 3 -3
1308 436 2 4.0999999999999998e-01 -4.1745357007065742e+00 -1.0476635908532112e+01 -1.0713309876351477e+01 0 2 -1
2584 862 1 -8.1999999999999995e-01 -4.8774064317927017e+00 -1.4339282337097350e+01 -1.0454715772778055e+01 2 1 -2
916 306 1 -8.1999999999999995e-01 -6.0244470296292363e-01 -1.0521942148923417e+01 -1.3777364328589604e+01 -4 1 0
2268 756 2 4.0999999999999998e-01 -3.2566182423749002e+00 -1.4146218387963883e+01 -1.4611941454761189e+01 3 4 -1
1022 341 2 4.0999999999999998e-01 -5.2259010672153998e+00 -9.7408179661107557e+00 -1.2690686719506134e+01 -3 3 -2
2457 819 2 4.0999999999999998e-01 -6.0444326554521766e-01 -8.1921846325243557e+00 -1.1797152926146786e+01 4 1 1
290 97 2 4.0999999999999998e-01 -2.1329087190561680e+00 -1.4710219112256457e+01 -1.2604332672107313e+01 0 2 -1
1932 644 2 4.0999999999999998e-01 -1.4128642753229794e+00 -5.8427440378491866e+00 -7.4796209684958255e+00 0 2 -2
1067 356 2 4.0999999999999998e-01 -1.4170362845795539e+01 -6.4939251605510631e+00 -5.1710209509219141e-01 -1 3 1
961 321 1 -8.1999999999999995e-01 -1.1252986336848085e+01 -5.6879206897399825e+00 -5.4806523815030772e-01 0 4 1
1716 572 2 4.0999999999999998e-01 -8.5553984402008396e+00 -1.3228360734010399e+01 -3.5688644518895742e+00 0 1 -2
975 325 2 4.0999999999999998e-01 -8.1736023529018045e+00 -6.5347459763730456e+00 -5.7098728852012446e+00 -1 3 -3
1714 572 1 -8.1999999999999995e-01 -9.2947385448881867e+00 -1.3900241377740214e+01 -3.6122309683715343e+00 0 1 -2
1715 572 2 4.0999999999999998e-01 -8.9115169809291004e+00 -1.4821887297896653e+01 -3.5519143013456134e+00 0 1 -2
17 6 2 4.0999999999999998e-01 -9.8989845129445051e+00 -1.3368096056821942e+01 -5.3328683493261781e+00 0 1 -3
16 6 1 -8.1999999999999995e-01 -1.0032938150080222e+01 -1.2904639920618635e+01 -6.2087637880846973e+00 0 1 -3
970 324 1 -8.1999999999999995e-01 -1.3098397835605841e+01 -9.6860582241920827e+00 -3.0227583734153605e+00 -1 0 1
392 131 2 4.0999999999999998e-01 -1.1020188182669695e+01 -9.7676447581368251e+00 -7.2122900939810144e+00 1 3 0
971 324 2 4.0999999999999998e-01 -1.3843292795726684e+01 -1.0185263578033450e+01 -3.4653117283170651e+00 -1 0 1
1493 498 2 4.0999999999999998e-01 -1.2006056629961835e+01 -1.1222997317743797e+01 -2.5775854889220184e-01 1 5 0
1492 498 1 -8.1999999999999995e-01 -1.2367634662061583e+01 -1.0307348329160291e+01 -4.3318971182055854e-01 1 5 0
465 155 2 4.0999999999999998e-01 -1.3223829069604161e+01 -7.6664404861719362e+00 -2.7483028320746694e+00 0 4 -3
730 244 1 -8.1999999999999995e-01 -1.1093208301371178e+01 -1.0353876466251805e+01 -5.3350726738607417e+00 1 4 -4
463 155 1 -8.1999999999999995e-01 -1.3302813925465768e+01 -6.8256468778651325e+00 -2.2128073325212636e+00 0 4 -3
464 155 2 4.0999999999999998e-01 -1.4076308042724687e+01 -6.2881107402855623e+00 -2.5485002319490668e+00 0 4 -3
2326 776 1 -8.1999999999999995e-01 -1.0548305330181696e+01 -8.1300797687803765e+00 -4.1343471651185304e-01 2 2 -4
1099 367 1 -8.1999999999999995e-01 -1.3491021639395099e+01 -7.8457716253983776e+00 -5.3698773947523524e+00 1 3 -3
1087 363 1 -8.1999999999999995e-01 -7.5581424384327569e+00 -7.4914723770834968e+00 -7.0786275579062403e+00 5 4 -2
732 244 2 4.0999999999999998e-01 -1.1628147008952810e+01 -1.0313594194384851e+01 -4.4911852303801538e+00 1 4 -4
2328 776 2 4.0999999999999998e-01 -1.1331567947951919e+01 -8.7507618172870369e+00 -4.4780884864021431e-01 2 2 -4
731 244 2 4.0999999999999998e-01 -1.0812506185641016e+01 -1.1298107466420586e+01 -5.5070092612403023e+00 1 4 -4
79 27 1 -8.1999999999999995e-01 -1.3320110038499219e+01 -1.3038015855150627e+01 -2.5684626918012299e+00 -2 2 -2
18 6 2 4.0999999999999998e-01 -1.0871961050088911e+01 -1.3239028378434071e+01 -6.6378942900357956e+00 0 1 -3
80 27 2 4.0999999999999998e-01 -1.2371589919127757e+01 -1.2738404475238196e+01 -2.4661363499759226e+00 -2 2 -2
972 324 2 4.0999999999999998e-01 -1.3076821692017257e+01 -9.9136250476829559e+00 -2.0492720550939154e+00 -1 0 1
81 27 2 4.0999999999999998e-01 -1.3932579921407825e+01 -1.2261000331358380e+01 -2.4233573590508204e+00 -2 2 -2
2327 776 2 4.0999999999999998e-01 -1.0869918852438669e+01 -7.1957411741757662e+00 -2.6012366232647999e-01 2 2 -4
556 186 1 -8.1999999999999995e-01 -1.0778693453274887e+01 -1.2769335788152404e+01 -1.6554382217158778e+00 -2 2 -5
165 55 2 4.0999999999999998e-01 -9.6516498322555044e+00 -9.7694438844309275e+00 -4.1964707309189695e+00 0 5 -1
1315 439 1 -8.1999999999999995e-01 -8.9062413355890513e+00 -1.0664286118535596e+01 -1.1040941997561706e+00 2 4 -3
557 186 2 4.0999999999999998e-01 -1.0169715684556380e+01 -1.1979671689798959e+01 -1.5812438988453383e+00 -2 2 -5
987 329 2 4.0999999999999998e-01 -1.1971316029470987e+01 -5.4558786361917431e+00 -6.6469499726497503e+00 0 4 -2
986 329 2 4.0999999999999998e-01 -1.2924207963920205e+01 -6.7708755336229434e+00 -6.8178734016172324e+00 0 4 -2
1101 367 2 4.0999999999999998e-01 -1.2947952313171673e+01 -8.5468266309597318e+00 -4.9077890011487071e+00 1 3 -3
558 186 2 4.0999999999999998e-01 -1.0402379802331657e+01 -1.3419606313874976e+01 -2.3153354933670549e+00 -2 2 -5
2427 809 2 4.0999999999999998e-01 -8.9810606463354770e+00 -8.0503707537922118e+00 -1.5936702986339668e-01 -3 4 2
973 325 1 -8.1999999999999995e-01 -8.6228346000032818e+00 -6.4435419794272253e+00 -4.8211657729067898e+00 -1 3 -3
1316 439 2 4.0999999999999998e-01 -8.8598104226805923e+00 -1.0118101224017789e+01 -1.9404280473155104e+00 2 4 -3
1317 439 2 4.0999999999999998e-01 -9.2562319577249248e+00 -1.0099947990557837e+01 -3.5645988465768319e-01 2 4 -3
963 321 2 4.0999999999999998e-01 -1.1892287210702678e+01 -5.9786025161013541e+00 -1.2599122534931375e+00 0 4 1
985 329 1 -8.1999999999999995e-01 -1.2411461194081555e+01 -6.0650518927493309e+00 -7.3065773451158620e+00 0 4 -2
2426 809 2 4.0999999999999998e-01 -7.7886547635536916e+00 -7.5377113739753918e+00 -1.1502168429971089e+00 -3 4 2
245 82 2 4.0999999999999998e-01 -8.2316733888902114e+00 -1.3890794972705379e+01 -6.6052623017822807e+00 -2 0 -2
244 82 1 -8.1999999999999995e-01 -7.5006229051425599e+00 -1.4350614195419652e+01 -6.1012193023435781e+00 -2 0 -2
104 35 2 4.0999999999999998e-01 -1.3096758852011856e+01 -1.4213785501463722e+01 -3.8130068255415335e+00 -3 8 -2
2425 809 1 -8.1999999999999995e-01 -7.9980601910186380e+00 -8.0844662697218688e+00 -3.3957725603799283e-01 -3 4 2
163 55 1 -8.1999999999999995e-01 -8.9085057163601071e+00 -9.4281832052695584e+00 -3.6209657382931066e+00 0 5 -1
164 55 2 4.0999999999999998e-01 -9.0116970776433867e+00 -8.4417570189738562e+00 -3.4935179063463710e+00 0 5 -1
1847 616 2 4.0999999999999998e-01 -7.7323122801717519e+00 -1.2075535628731387e+01 -1.5706629459343695e+00 1 2 -4
1350 450 2 4.0999999999999998e-01 -7.5897784156234298e+00 -6.2699615756587228e+00 -3.3377712620854840e+00 2 0 -1
2405 802 2 4.0999999999999998e-01 -1.3229842470881177e+01 -1.3684232759647672e+01 -7.2549178525204718e+00 1 4 -2
1100 367 2 4.0999999999999998e-01 -1.4127297801631325e+01 -8.2824183311126056e+00 -6.0058177646772872e+00 1 3 -3
974 325 2 4.0999999999999998e-01 -9.5579749116028196e+00 -6.1146542106230708e+00 -4.9525946466065616e+00 -1 3 -3
1348 450 1 -8.1999999999999995e-01 -7.5197095681181354e+00 -6.2004639968597548e+00 -2.3426890619519067e+00 2 0 -1
1349 450 2 4.0999999999999998e-01 -7.7081251524378827e+00 -5.2599254955420900e+00 -2.0601735230890732e+00 2 0 -1
1382 461 2 4.0999999999999998e-01 -8.7332398992771729e+00 -1.0719930955208671e+01 -7.1190982457331913e+00 0 4 2
234 78 2 4.0999999999999998e-01 -4.2234284993120976e+00 -1.0279869828011122e+01 -2.9782352236625442e-01 4 3 -2
2041 681 1 -8.1999999999999995e-01 -1.6660963751044040e+00 -1.4306782918325844e+01 -2.0027493612952387e+00 1 8 -1
2341 781 1 -8.1999999999999995e-01 -3.0324927357701981e+00 -1.2043091824568140e+01 -2.7031503934709562e+00 -1 2 -6
1846 616 1 -8.1999999999999995e-01 -7.2095117966489761e+00 -1.2725912717817646e+01 -2.1216777965667806e+00 1 2 -4
1734 578 2 4.0999999999999998e-01 -3.9381712663154769e+00 -1.2848291808913437e+01 -5.2886971278908383e+00 -1 1 -1
2223 741 2 4.0999999999999998e-01 -6.7483573573515336e+00 -9.3981625042527561e+00 -2.3927939137382204e-01 4 1 -3
2042 681 2 4.0999999999999998e-01 -6.9741007309405845e-01 -1.4060592019387876e+01 -2.0338139338102525e+00 1 8 -1
233 78 2 4.0999999999999998e-01 -2.6423173276816261e+00 -9.8752398649094140e+00 -3.5070916719387135e-01 4 3 -2
2202 734 2 4.0999999999999998e-01 -5.5520420708963645e+00 -8.8272807697710540e+00 -5.3882072601665669e+00 -4 1 -2
2043 681 2 4.0999999999999998e-01 -2.2165562923192059e+00 -1.3534753941377666e+01 -2.3203863501806641e+00 1 8 -1
2244 748 2 4.0999999999999998e-01 -5.1866011420649780e+00 -6.1322596021252291e+00 -5.6056800629610510e+00 1 1 -1
191 64 2 4.0999999999999998e-01 -2.8576120925204904e+00 -5.3714648855151896e+00 -2.6624489370044930e+00 -1 4 0
1731 577 2 4.0999999999999998e-01 -1.5114482604483026e+00 -6.9157529293000515e+00 -3.3385673602469765e+00 1 5 -4
2342 781 2 4.0999999999999998e-01 -3.2475162386900553e+00 -1.1316446009851839e+01 -2.0507097518818949e+00 -1 2 -6
978 326 2 4.0999999999999998e-01 -1.2824182758285456e+00 -1.2228028646689991e+01 -4.1671248268334971e+00 -2 4 0
1332 444 2 4.0999999999999998e-01 -6.9311476299642631e+00 -5.9048395227802555e+00 -4.0343395106750179e-01 0 1 -3
169 57 1 -8.1999999999999995e-01 -2.7925157098609876e+00 -9.3646335408033767e+00 -5.4368985612109473e+00 -2 -1 0
1730 577 2 4.0999999999999998e-01 -2.3747348859366060e+00 -8.1580311214326358e+00 -3.9533158525547467e+00 1 5 -4
748 250 1 -8.1999999999999995e-01 -1.9748098382428196e+00 -7.7596022059284291e+00 -2.9839034883040760e-01 1 3 1
171 57 2 4.0999999999999998e-01 -3.2134197373895592e+00 -1.0270180836628320e+01 -5.3844455794828718e+00 -2 -1 0
1729 577 1 -8.1999999999999995e-01 -2.3492071082025152e+00 -7.4535017658188201e+00 -3.2441510607203998e+00 1 5 -4
2250 750 2 4.0999999999999998e-01 -7.2014507003166894e+00 -9.7656409783732787e+00 -3.7960585215892788e+00 1 5 -2
2248 750 1 -8.1999999999999995e-01 -6.2596080196075814e+00 -9.8687496858577965e+00 -4.1157904227237179e+00 1 5 -2
1378 460 1 -8.1999999999999995e-01 -5.5930523638018954e+00 -1.3432692497227926e+01 -4.6511912352857454e+00 0 0 -4
749 250 2 4.0999999999999998e-01 -2.2578487359598149e+00 -7.7277121150534587e+00 -1.2569309195428602e+00 1 3 1
913 305 1 -8.1999999999999995e-01 -4.5469478314442853e+00 -8.6014797977583584e+00 -2.3096794372314644e+00 0 5 -1
2201 734 2 4.0999999999999998e-01 -4.1711170142562288e+00 -8.0562803267542016e+00 -5.7944573228686593e+00 -4 1 -2
2343 781 2 4.0999999999999998e-01 -3.2540315183565003e+00 -1.1736255534543909e+01 -3.6287313134191592e+00 -1 2 -6
915 305 2 4.0999999999999998e-01 -5.1916918138121400e+00 -8.7813222348954145e+00 -3.0525723925334418e+00 0 5 -1
1733 578 2 4.0999999999999998e-01 -3.2846834343867393e+00 -1.2208820193109615e+01 -6.6416436889227022e+00 -1 1 -1
170 57 2 4.0999999999999998e-01 -2.0763763395860479e+00 -9.3698709379502620e+00 -6.1347846908261303e+00 -2 -1 0
2249 750 2 4.0999999999999998e-01 -5.9782132658437170e+00 -1.0823644538413465e+01 -4.0213412450106976e+00 1 5 -2
1380 460 2 4.0999999999999998e-01 -6.2346713518574859e+00 -1.3685225507633781e+01 -5.3754012615581619e+00 0 0 -4
914 305 2 4.0999999999999998e-01 -3.7886234370475353e+00 -8.0475695835378751e+00 -2.6532717600245466e+00 0 5 -1
2200 734 1 -8.1999999999999995e-01 -5.1690129984578341e+00 -7.9928117611366201e+00 -5.7842859471519521e+00 -4 1 -2
1848 616 2 4.0999999999999998e-01 -6.8345527493217446e+00 -1.3438893947871003e+01 -1.5292324706660292e+00 1 2 -4
977 326 2 4.0999999999999998e-01 -6.6151690067835389e-01 -1.2943157395237099e+01 -5.4973529449221559e+00 -2 4 0
1732 578 1 -8.1999999999999995e-01 -3.2735450987132175e+00 -1.2189935052516175e+01 -5.6419200338084305e+00 -1 1 -1
1379 460 2 4.0999999999999998e-01 -6.0963449259051838e+00 -1.3265093869080484e+01 -3.8035266577817151e+00 0 0 -4
976 326 1 -8.1999999999999995e-01 -4.5823220278082388e-01 -1.2624254875822418e+01 -4.5716617988598376e+00 -2 4 0
232 78 1 -8.1999999999999995e-01 -3.2888359738574060e+00 -1.0635258977750087e+01 -2.8503801899394787e-01 4 3 -2
736 246 1 -8.1999999999999995e-01 -3.7213207705868001e-02 -6.3356525601037834e+00 -2.6180972764303778e+00 1 4 -3
2242 748 1 -8.1999999999999995e-01 -4.8716335825040620e+00 -5.2062374864674137e+00 -5.3978181091942172e+00 1 1 -1
1088 363 2 4.0999999999999998e-01 -6.8420462922329097e+00 -7.6394643804319147e+00 -6.3965478896082466e+00 5 4 -2
1931 644 2 4.0999999999999998e-01 -2.8713964294837915e+00 -5.8672091602978611e+00 -6.7457816725254922e+00 0 2 -2
1894 632 1 -8.1999999999999995e-01 -1.4353644917565379e+01 -9.4352623747655571e+00 1.6427948402614483e+00 3 3 -3
994 332 1 -8.1999999999999995e-01 -1.1481384521577844e+01 -1.1990370156916374e+01 2.9238486935115766e+00 4 4 -1
1720 574 1 -8.1999999999999995e-01 -1.4212095732867411e+01 -1.0638724882983190e+01 5.1281678222459171e+00 0 3 -3
1203 401 2 4.0999999999999998e-01 -1.4484122868830976e+01 -1.4411360786524137e+01 2.9164328144993696e+00 1 2 -1
1722 574 2 4.0999999999999998e-01 -1.4911679019546206e+01 -1.0516013262150729e+01 4.4242834701238607e+00 0 3 -3
1721 574 2 4.0999999999999998e-01 -1.3480873861939855e+01 -9.9704881618820345e+00 4.9914111432566308e+00 0 3 -3
37 13 1 -8.1999999999999995e-01 -8.2629600454654266e+00 -1.2234754354695179e+01 2.4341200584303984e+00 -1 3 0
2198 733 2 4.0999999999999998e-01 -8.2688352846899456e+00 -9.4985729685923772e+00 3.1766462348059399e+00 2 5 -5
1135 379 1 -8.1999999999999995e-01 -1.1770957976444166e+01 -9.0255553843969700e+00 2.3226900464414086e+00 0 1 1
2197 733 1 -8.1999999999999995e-01 -8.4106234619034730e+00 -9.5990044602037656e+00 2.1918935960815062e+00 2 5 -5
2199 733 2 4.0999999999999998e-01 -8.0508736564249350e+00 -8.7943728699586572e+00 1.7195842347798198e+00 2 5 -5
587 196 2 4.0999999999999998e-01 -1.3659812766769573e+01 -8.0556510753001191e+00 4.6011248626317176e+00 1 2 -4
586 196 1 -8.1999999999999995e-01 -1.2720881521367517e+01 -8.3693872567491567e+00 4.7422127400225556e+00 1 2 -4
588 196 2 4.0999999999999998e-01 -1.2305512774286639e+01 -8.5859164575773690e+00 3.8587471941682097e+00 1 2 -4
1137 379 2 4.0999999999999998e-01 -1.1336140025080518e+01 -9.9202711949056237e+00 2.2209794804837166e+00 0 1 1
1136 379 2 4.0999999999999998e-01 -1.1073276417692727e+01 -8.3100388649593846e+00 2.2879815847175031e+00 0 1 1
812 271 2 4.0999999999999998e-01 -1.0094555496078378e+01 -1.4377040501071139e+01 1.8556279419665955e+00 -4 5 1
2119 707 1 -8.1999999999999995e-01 -1.0440131115301121e+01 -6.2681323191414311e+00 3.3642516058421279e+00 3 4 2
34 12 1 -8.1999999999999995e-01 -1.4221453709950191e+01 -1.2055322080707128e+01 2.0799055384222989e+00 1 3 -1
1255 419 1 -8.1999999999999995e-01 -1.0423252822509422e+01 -5.5579563086620460e+00 6.3129371383496924e+00 -1 4 -4
39 13 2 4.0999999999999998e-01 -8.3276274568959998e+00 -1.1275685101458208e+01 2.1585621223452449e+00 -1 3 0
2121 707 2 4.0999999999999998e-01 -9.4922404625665244e+00 -6.2590975533072015e+00 3.0458968294524134e+00 3 4 2
2120 707 2 4.0999999999999998e-01 -1.0456094397221285e+01 -6.3378546135604434e+00 4.3616542479657134e+00 3 4 2
692 231 2 4.0999999999999998e-01 -1.4336082123840450e+01 -1.3793192122577643e+01 5.3490159926163052e+00 0 -1 -5
623 208 2 4.0999999999999998e-01 -1.4391725266227827e+01 -1.3958286778060138e+01 2.4135025606779870e-01 1 1 0
36 12 2 4.0999999999999998e-01 -1.4177279157984879e+01 -1.1077969500934657e+01 1.8731239350936484e+00 1 3 -1
995 332 2 4.0999999999999998e-01 -1.1403998202442651e+01 -1.1952367849848342e+01 3.9200892668812699e+00 4 4 -1
811 271 1 -8.1999999999999995e-01 -1.0583586505995729e+01 -1.3941005480954258e+01 1.1002141468125153e+00 -4 5 1
996 332 2 4.0999999999999998e-01 -1.1306231300724686e+01 -1.2923948125952039e+01 2.6113080742208936e+00 4 4 -1
1516 506 1 -8.1999999999999995e-01 -1.0320959894653207e+01 -9.3670369374340403e+00 5.8773659988564653e+00 0 3 -3
622 208 1 -8.1999999999999995e-01 -1.4037868737852371e+01 -1.4726329929707379e+01 7.7503874100227677e-01 1 1 0
691 231 1 -8.1999999999999995e-01 -1.4190927177888748e+01 -1.3182518128316993e+01 6.1274344926979332e+00 0 -1 -5
1158 386 2 4.0999999999999998e-01 -8.5261470144503200e+00 -9.6112070932123430e+00 5.4479686659588182e+00 0 3 -3
1096 366 1 -8.1999999999999995e-01 -1.0603848294735092e+01 -1.2085160565951707e+01 5.9386328460880478e+00 0 1 -1
1097 366 2 4.0999999999999998e-01 -1.0799609196167474e+01 -1.2895442119314996e+01 5.3863199825579784e+00 0 1 -1
1098 366 2 4.0999999999999998e-01 -1.0048382049327076e+01 -1.2346161378175058e+01 6.7281035048063202e+00 0 1 -1
1896 632 2 4.0999999999999998e-01 -1.3478415804951400e+01 -9.1269503819110529e+00 2.0154150311048653e+00 3 3 -3
35 12 2 4.0999999999999998e-01 -1.3350587918470520e+01 -1.2352956260943582e+01 2.4709742816028957e+00 1 3 -1
693 231 2 4.0999999999999998e-01 -1.4067605903155654e+01 -1.2246394150579182e+01 5.7982053727311182e+00 0 -1 -5
1517 506 2 4.0999999999999998e-01 -1.1189271482012577e+01 -9.0264927988493469e+00 5.5168210406111911e+00 0 3 -3
1518 506 2 4.0999999999999998e-01 -1.0342698888873155e+01 -1.0366219725687980e+01 5.9103706348620477e+00 0 3 -3
2434 812 1 -8.1999999999999995e-01 -8.0359150685744876e+00 -1.4465407835125010e+01 6.6611772759158434e+00 0 4 1
1156 386 1 -8.1999999999999995e-01 -7.6688446456945183e+00 -9.3443868827804977e+00 5.0077780691714615e+00 0 3 -3
1205 402 2 4.0999999999999998e-01 -1.0507323979763282e+01 -8.4213177037670217e+00 7.3842859669728043e+00 3 1 -3
59 20 2 4.0999999999999998e-01 -1.3448832038216119e+01 -5.2224172778132534e+00 6.9533924657848551e+00 1 1 -3
1256 419 2 4.0999999999999998e-01 -9.6353210881460143e+00 -5.0164388590711475e+00 6.6059395829126579e+00 -1 4 -4