2611
Atoms. Timestep: 23000000
O -5.54471 10.0744 0.844338
H -5.68644 10.1956 -0.138066
H -4.82926 10.6989 1.15742
O -6.92534 -5.74424 10.5727
H -6.05112 -5.82262 11.0517
H -7.67421 -5.82423 11.2304
O 6.99303 -0.738141 -11.2786
H 6.19473 -1.2963 -11.0526
H 7.5815 -0.656988 -10.4742
O 14.7536 1.76492 1.80177
H 14.2626 1.30625 1.06115
H 14.1443 2.41838 2.2509
O -4.8479 4.73595 -1.94891
H -3.85841 4.7719 -2.08856
H -5.21106 5.66613 -1.89615
O 11.3426 9.92412 -7.73092
H 12.1371 10.2668 -7.2296
H 10.543 10.4825 -7.51017
O -0.522196 9.29432 7.56845
H -0.27318 8.35525 7.8052
H 0.0515228 9.93118 8.08338
O -11.686 9.31104 3.03034
H -12.5663 9.46242 2.58093
H -11.7655 8.54668 3.67014
O -3.363 -3.058 9.58803
H -2.81783 -3.678 9.02386
H -3.49699 -2.19505 9.10093
O 0.173295 7.95933 -14.0318
H 0.0161293 8.93095 -14.2083
H 0.269557 7.81066 -13.0477
O -3.78259 -7.72292 4.10019
H -4.30319 -7.75067 4.95348
H -2.8282 -7.50052 4.29913
O -9.96506 -7.41973 -1.93975
H -10.4537 -8.28566 -1.83326
H -10.5837 -6.73264 -2.32066
O 2.19312 -10.9121 -2.52716
H 3.01904 -10.9408 -3.09012
H 2.16536 -10.0509 -2.01975
O 3.77368 11.6995 -12.3078
H 3.34903 12.6007 -12.3936
H 3.85368 11.2812 -13.2125
O -12.0575 -10.117 4.51909
H -12.7508 -9.55071 4.07341
H -11.6121 -10.697 3.83713
O -9.04583 -10.8207 -14.5506
H -9.37756 -11.3024 -13.7396
H -9.23736 -11.3683 14.5366
O 14.6544 -5.21383 -2.82912
H -14.7296 -4.69826 -2.14639
H -14.6781 -5.36047 -3.63809
O 10.2338 -1.14704 -10.8338
H 10.0776 -1.42789 -9.88694
H 11.1135 -0.676438 -10.9011
O 9.67681 -9.91059 6.10691
H 9.76625 -8.94489 6.35045
H 8.715 -10.1232 5.93486
O 13.6825 7.73198 7.12904
H 14.6607 7.80262 6.93414
H 13.4808 6.82457 7.49757
O 7.0631 -10.2989 5.70245
H 6.65961 -10.8406 6.43982
H 6.34622 -9.77392 5.24383
O -9.35777 11.4765 -8.54344
H -8.69819 12.1089 -8.94953
H -8.87037 10.7749 -8.02379
O 8.29772 8.90478 -10.3059
H 8.15007 9.28515 -11.2188
H 7.80239 9.45314 -9.63219
O -10.9624 5.64578 -4.92083
H -11.1102 4.66124 -5.01426
H -11.7612 6.13712 -5.26793
O 2.18431 -8.9986 -11.4364
H 2.34699 -9.97905 -11.3262
H 2.93762 -8.59175 -11.953
O 8.07265 3.85411 -4.54582
H 8.28784 4.4178 -3.74842
H 8.7686 3.99355 -5.25016
O 11.3208 4.05485 7.62181
H 11.1799 3.55763 8.47786
H 10.5263 4.63339 7.43775
O -1.73212 -0.959538 14.1746
H -1.13092 -0.308206 14.6374
H -2.53002 -1.14276 14.7488
O 13.2364 -3.83479 10.2748
H 14.0367 -3.87698 10.8729
H 12.6446 -3.0819 10.5626
O -9.35183 -2.00596 0.232981
H -8.79741 -1.61664 -0.502502
H -8.75251 -2.35152 0.954987
O -3.18435 7.72685 7.51245
H -3.94511 7.87868 6.88151
H -2.48589 7.16902 7.06427
O -6.95763 -6.61203 -10.7652
H -6.69587 -5.77455 -11.2448
H -6.39467 -6.71648 -9.94542
O -7.32076 -2.97613 -6.49034
H -7.56992 -3.0782 -5.52732
H -8.10176 -3.22163 -7.0645
O 8.63436 -4.35597 9.4854
H 8.83474 -3.47238 9.90849
H 7.91035 -4.81532 9.99989
O -4.9229 12.909 -5.42492
H -4.0961 13.4557 -5.55693
H -5.06291 12.747 -4.44817
O 12.6833 -11.1117 9.87246
H 12.6722 -10.2839 10.4333
H 11.9425 -11.07 9.20206
O -11.0627 -11.9542 13.3895
H -11.1654 -11.0754 12.9236
H -11.7337 -12.6026 13.0297
O -9.02233 -8.25303 -11.9266
H -8.26351 -7.67846 -11.6201
H -9.17515 -8.98529 -11.263
O 8.57842 11.8094 9.52279
H 8.76849 12.0689 10.4696
H 8.55197 10.8125 9.44934
O 0.62796 9.32051 -2.24893
H 1.36424 9.25302 -1.5757
H 0.155153 10.1948 -2.13925
O 7.92248 0.967212 -13.0679
H 8.2963 0.484949 -13.8601
H 7.8365 0.331551 -12.3008
O 0.575856 5.92795 -5.98361
H 0.751169 5.35984 -6.78761
H 1.38739 5.93837 -5.39949
O 9.42038 14.3225 5.37296
H 9.72798 14.1368 6.3061
H 10.0572 13.9075 4.72325
O -9.83474 10.0741 10.5591
H -8.98128 9.59478 10.3547
H -10.5695 9.40756 10.6846
O 13.7284 -13.9472 -12.2382
H 14.047 -14.3102 -13.1138
H 14.3557 -14.2293 -11.5124
O 0.197981 10.71 14.8078
H 0.833327 10.5329 14.0562
H -0.65919 11.0718 14.4414
O 7.37026 9.30385 -13.1485
H 8.20479 9.14915 -13.6772
H 6.57383 9.19386 -13.7431
O 3.96736 4.63006 -0.0419431
H 3.79495 4.86438 0.914752
H 3.96129 3.63576 -0.147872
O -13.6358 -4.3709 6.08594
H -12.9774 -3.62178 6.01409
H -14.355 -4.12148 6.73438
O -4.54278 9.03465 14.7888
H -5.54017 8.97339 14.7521
H -4.24306 9.02343 -14.159
O 1.54182 -11.7535 4.89337
H 1.66224 -11.7167 3.90139
H 2.43758 -11.774 5.33732
O 5.24732 3.9587 -4.53228
H 6.23926 4 -4.65162
H 4.86663 3.26521 -5.14386
O 9.32006 -3.45258 13.1054
H 10.2897 -3.69466 13.1374
H 8.77523 -4.27786 12.9572
O -5.55407 -7.34064 -7.21903
H -5.73904 -7.7428 -6.3224
H -6.22479 -6.6233 -7.40735
O -14.9232 14.6277 -14.2657
H 14.6411 -14.8848 14.7789
H -14.6345 13.6828 -14.4196
O 5.09619 -9.92256 -1.28892
H 4.98261 -10.5352 -2.07099
H 4.86782 -8.98803 -1.5617
O -4.09019 -4.87045 -14.1118
H -4.29621 -4.9241 -13.1348
H -3.17619 -5.23931 -14.2804
O -1.42363 7.6445 1.17234
H -2.38336 7.64751 1.45305
H -1.33728 7.19138 0.285145
O 5.71953 -14.4133 -11.1642
H 6.24429 -14.5897 -10.3315
H 4.74633 -14.362 -10.9403
O 1.64797 5.44269 10.4953
H 1.44048 4.47713 10.3387
H 2.31256 5.75515 9.81666
O -2.6459 -6.5588 -6.17614
H -1.685 -6.6849 -6.42245
H -3.2189 -6.70842 -6.98186
O -10.4138 11.6114 8.36208
H -10.1501 10.8639 8.9717
H -11.3885 11.8044 8.47369
O -0.462448 12.9913 3.8821
H -0.568358 13.9359 3.5715
H -1.35709 12.5451 3.90338
O 5.62721 -8.99878 9.0986
H 6.44874 -8.82154 9.64042
H 4.82203 -8.95464 9.68991
O -3.90282 6.3745 -7.46062
H -3.30339 6.35842 -8.26082
H -4.78746 6.76536 -7.71466
O -9.97507 5.3422 3.76843
H -9.13459 5.14696 4.27377
H -10.4395 4.48406 3.54979
O 7.21946 -14.6357 -8.84379
H 8.06654 -14.8822 -8.37302
H 6.43621 -14.9092 -8.28557
O 11.3384 -3.70241 6.39865
H 10.434 -4.12754 6.43346
H 11.4548 -3.10127 7.18921
O -7.50867 -14.5823 -13.0012
H -6.86329 -14.4022 -12.259
H -7.48185 14.3482 -13.2378
O -11.9504 3.47003 10.4636
H -11.386 3.14052 11.2205
H -11.4095 3.47602 9.62261
O -13.5829 7.52625 6.71431
H -13.4156 6.96499 5.90381
H -13.3827 6.99294 7.53614
O -6.37557 -14.5316 -7.14343
H -5.94252 14.7868 -7.83057
H -5.68907 -13.928 -6.73811
O 5.78343 8.56974 8.37461
H 6.76848 8.70491 8.48097
H 5.30908 8.92843 9.1785
O -8.70353 0.626586 -10.2598
H -9.3921 0.917223 -10.9241
H -8.37749 1.42152 -9.74822
O -8.86309 2.23471 14.0713
H -8.92141 2.27447 13.0738
H -9.77932 2.11767 14.4543
O 8.35495 -10.4484 11.2011
H 8.86194 -11.1937 11.6339
H 7.45713 -10.3614 11.6326
O -8.04793 -9.19771 -0.0170834
H -7.52128 -9.71619 0.656504
H -8.20148 -9.76338 -0.827227
O 9.0352 11.274 -7.12474
H 8.62354 11.2339 -8.03514
H 9.09147 12.2266 -6.82605
O 4.63415 -13.9765 2.41758
H 5.50939 -13.519 2.26099
H 4.6382 -14.4032 3.32192
O 10.3331 7.8615 10.0185
H 9.99081 7.0379 10.4706
H 11.3215 7.78403 9.88852
O 8.7956 3.02808 -8.04493
H 9.40996 3.0309 -7.25598
H 9.184 2.45665 -8.76778
O 4.02603 -7.51892 -1.91475
H 3.23531 -6.98378 -1.61764
H 4.33109 -7.19399 -2.80988
O -6.1218 13.3169 -2.90212
H -5.46423 13.8088 -2.33152
H -6.30855 12.4211 -2.49886
O -9.23513 1.86582 4.63707
H -8.9034 1.7264 5.57003
H -9.79258 1.08291 4.36105
O -3.36484 9.03878 -2.01984
H -2.65753 8.42947 -1.66157
H -3.08135 9.39026 -2.91202
O -9.68821 8.94052 -11.5343
H -9.88725 7.98514 -11.3163
H -10.3203 9.53458 -11.0368
O -8.75475 5.41542 11.294
H -8.94455 4.8596 10.4847
H -8.47576 6.3328 11.0103
O -5.84477 7.1677 -1.88879
H -5.27424 7.97669 -1.74762
H -6.80597 7.41099 -1.75917
O -3.19636 3.39925 5.03966
H -3.60959 3.59927 4.15133
H -3.83091 3.65731 5.76812
O 1.91012 12.687 5.80507
H 1.92486 11.9907 6.52267
H 1.14359 12.5125 5.18711
O -6.19559 2.35771 14.5813
H -7.18787 2.36262 14.7048
H -5.9762 2.59866 13.6359
O 7.63114 11.4227 -9.39747
H 7.94574 11.7662 -10.2823
H 6.69924 11.7431 -9.22777
O 11.2903 -12.7305 -12.3069
H 10.8452 -12.4272 -11.4644
H 12.091 -13.2848 -12.0799
O -2.992 -11.4921 5.75184
H -2.09327 -11.3007 6.14624
H -2.93513 -12.3043 5.17137
O 2.69275 -13.2063 -1.11212
H 2.2941 -12.5296 -1.73097
H 3.66128 -13.0006 -0.972469
O 14.2557 8.81509 -10.9335
H 13.2599 8.86507 -11.0087
H 14.5981 9.64151 -10.4866
O 14.4067 -10.8035 2.14944
H 14.6682 -11.7406 2.38044
H 13.5921 -10.8181 1.56967
O 0.62007 12.1336 -9.37328
H 0.373991 11.1729 -9.50069
H 0.324115 12.6619 -10.1691
O 13.9044 14.6418 -1.08874
H 14.6366 14.1373 -0.631238
H 13.5119 -14.5939 -0.454538
O -5.76973 13.7812 1.47541
H -6.75473 13.7559 1.30504
H -5.27944 13.7198 0.606071
O -3.15466 -14.1678 -9.86858
H -2.88639 14.838 -10.2226
H -3.54852 -14.2745 -8.95568
O 7.36903 -0.612765 3.89086
H 6.5054 -0.513302 4.38497
H 8.02991 0.0528009 4.2375
O 14.0522 -12.7406 -5.73161
H 14.7828 -12.7663 -6.41391
H 14.3542 -13.2103 -4.90209
O 7.39762 -10.5116 2.351
H 6.43662 -10.3532 2.12456
H 7.50412 -10.5492 3.34455
O 4.18379 1.94298 -0.453345
H 4.7442 1.99847 -1.27963
H 4.30195 1.04473 -0.0301833
O 7.04468 -14.6163 4.56664
H 6.45172 -14.6005 5.37165
H 7.89482 14.8079 4.78818
O -6.34309 -9.97168 -14.2211
H -7.32248 -10.1691 -14.2627
H -5.85459 -10.5741 -14.8523
O -9.62449 5.95565 13.7852
H -9.57929 5.1503 14.3762
H -9.31297 5.71285 12.8666
O 9.3436 12.3472 12.0076
H 9.92208 13.1529 12.1343
H 8.98858 12.0491 12.8936
O -13.6022 -8.59477 2.95012
H -14.5838 -8.75602 2.84892
H -13.1103 -9.06047 2.21452
O -7.69771 -14.1103 4.60021
H -8.1971 14.9439 4.42045
H -8.33551 -13.3402 4.59543
O 10.1994 -4.47051 -7.13472
H 9.31788 -4.31194 -6.69008
H 10.0481 -4.81273 -8.06204
O -4.9221 -7.85802 14.7627
H -5.64453 -8.36653 -14.6705
H -4.87373 -6.93036 -14.7688
O -11.2668 10.4522 -6.42325
H -11.0375 10.935 -5.57813
H -11.5242 11.115 -7.12639
O -1.50288 -11.3407 -8.37381
H -0.584333 -11.4511 -8.75325
H -1.89813 -10.4828 -8.70197
O 0.305523 -8.21269 2.7341
H 1.25439 -8.14941 2.425
H 0.28663 -8.39047 3.71794
O 12.0013 -5.58223 -14.7742
H 11.9294 -6.42594 14.5956
H 12.9059 -5.53101 -14.3511
O 8.494 -1.03455 6.97719
H 9.03019 -0.622049 6.24083
H 8.13519 -1.9173 6.67401
O -3.29845 10.5935 -9.3663
H -2.92104 9.77077 -8.94127
H -4.17169 10.3734 -9.80096
O -2.65855 13.1915 7.26882
H -2.92935 14.083 7.63205
H -1.66155 13.1157 7.28069
O 5.86343 -11.3362 7.7094
H 5.76837 -10.4012 8.05088
H 5.89536 -11.9712 8.48114
O -13.3029 14.5201 6.97737
H -13.7401 -14.6021 7.42571
H -13.8154 14.279 6.15329
O -4.70206 -11.9 -2.72797
H -4.83151 -12.216 -3.66779
H -5.18671 -12.5102 -2.10138
O -3.11714 -7.61028 7.53406
H -2.62539 -7.77173 6.67849
H -3.79104 -6.88394 7.39921
O 7.78374 -14.1408 10.7771
H 8.00028 -13.41 11.4242
H 8.62196 -14.4437 10.3237
O 4.76996 -1.58875 -2.5868
H 4.46383 -2.54027 -2.55891
H 5.10157 -1.31869 -1.68292
O -8.50467 13.7547 1.18753
H -9.10077 13.1522 1.71822
H -8.98554 14.6086 0.988748
O 1.98523 2.281 -5.01284
H 2.89265 2.13551 -5.40695
H 2.07641 2.52568 -4.04759
O 6.53501 -9.84893 -5.52387
H 6.02999 -9.04503 -5.83789
H 6.98128 -9.643 -4.65305
O -9.72489 -9.47755 -6.11876
H -10.6973 -9.57033 -6.33237
H -9.57523 -8.63135 -5.60745
O 11.5171 -14.7926 2.8496
H 10.5999 -14.557 2.52851
H 11.749 -14.2263 3.64046
O 13.1654 4.2356 -2.90243
H 12.5173 3.54117 -3.21491
H 14.0298 4.12991 -3.39385
O -0.667609 5.9344 3.08793
H -1.10314 6.42906 2.33592
H -1.36614 5.63006 3.73549
O 13.0769 5.86683 -6.42116
H 12.8655 6.44431 -7.20964
H 13.7815 5.20355 -6.67324
O 9.95273 13.6087 8.12957
H 9.42388 12.95 8.66463
H 9.50233 14.501 8.16001
O -0.472562 -14.1061 3.26114
H -0.311517 -13.1267 3.13956
H 0.253488 -14.6222 2.80683
O 7.19898 -1.0218 -5.19156
H 7.34946 -0.0501523 -5.37366
H 6.22977 -1.17928 -5.00255
O -13.4106 5.1639 1.72774
H -12.8068 5.18675 0.931041
H -14.3252 4.87542 1.44458
O -9.70685 -8.21905 14.0211
H -8.99813 -7.72798 14.5276
H -9.84272 -9.12199 14.4287
O 6.67404 1.29619 -7.19774
H 6.86202 0.500334 -7.77322
H 7.25681 2.05767 -7.48132
O 4.9378 8.95152 3.53899
H 4.20813 9.57355 3.25517
H 5.00742 8.95255 4.53651
O -12.1437 -9.4428 7.07624
H -11.9867 -9.43509 6.08872
H -11.9539 -10.356 7.43678
O -7.73573 8.08144 13.544
H -8.50526 7.50151 13.8112
H -7.69327 8.87775 14.1473
O -9.472 13.7795 4.50431
H -10.0534 14.2428 5.17312
H -10.0429 13.2532 3.87431
O 9.46687 5.85751 7.58134
H 10.1269 6.51471 7.21763
H 8.53873 6.17708 7.39069
O 11.339 -2.35993 3.91813
H 10.8446 -2.79057 4.67309
H 12.3162 -2.33794 4.1292
O 6.72072 -2.13247 13.3462
H 6.18536 -2.56009 14.0745
H 7.64753 -2.50786 13.3494
O 2.82313 -7.92578 4.12458
H 2.05629 -8.31769 4.63278
H 3.62636 -8.51222 4.22855
O 14.4052 1.13787 -3.06785
H 13.768 0.936722 -3.81171
H 14.7777 2.05807 -3.18775
O 1.90847 11.1106 8.79023
H 2.70148 11.5931 9.16199
H 2.21119 10.4561 8.09754
O -6.77086 14.2397 11.0343
H -6.60788 14.2882 10.0489
H -5.95029 13.8968 11.4914
O -9.41555 -3.28882 -8.17483
H -9.38039 -3.99421 -8.88271
H -9.66631 -2.41368 -8.58852
O 5.73958 2.14609 -2.583
H 6.22246 1.28168 -2.7227
H 5.4673 2.52264 -3.46842
O 4.82074 -9.82691 -14.2665
H 3.95466 -9.59436 -14.7089
H 5.06981 -9.10479 -13.6212
O 11.0074 6.32637 -0.69148
H 11.905 6.75396 -0.798491
H 10.8448 6.13042 0.275492
O 12.7472 0.121469 -5.5078
H 12.9994 -0.599905 -6.15273
H 11.808 -0.0230748 -5.19658
O 0.199029 -4.89254 4.93034
H -0.361855 -4.15202 4.5603
H 0.787362 -5.25751 4.20885
O -8.45176 11.8185 6.36694
H -9.21116 11.5355 6.95266
H -8.70011 12.6564 5.88088
O 2.73042 10.5294 3.40186
H 1.73593 10.553 3.30029
H 3.14585 11.1804 2.76665
O -1.22995 0.413721 -8.75883
H -0.278048 0.308463 -8.47125
H -1.81722 0.474 -7.95175
O 1.57539 -1.18127 7.63699
H 0.576007 -1.18557 7.67048
H 1.87759 -0.838823 6.74744
O -11.7943 -5.30815 -10.5508
H -10.8246 -5.2116 -10.3267
H -12.3234 -5.40208 -9.7075
O 9.82081 -8.59307 9.99309
H 9.34947 -9.24413 10.5879
H 10.696 -8.33891 10.4045
O -5.28892 -0.792484 -13.4495
H -5.22774 0.182789 -13.6617
H -4.77213 -1.31424 -14.1282
O 1.80418 2.9524 8.66161
H 0.997761 2.36122 8.67049
H 2.61028 2.42045 8.9207
O 9.36886 4.46159 -1.86917
H 9.8429 5.28044 -1.54566
H 8.3866 4.56038 -1.71012
O -6.27308 -1.14365 -8.5062
H -5.87174 -0.318873 -8.108
H -6.51487 -1.78261 -7.77602
O -4.80003 -8.63733 1.57578
H -4.6488 -8.15732 2.43985
H -4.40444 -9.55409 1.63012
O -10.6709 1.72389 -11.8701
H -11.1843 0.91002 -12.1421
H -10.4651 2.27399 -12.6794
O 6.07942 -11.0057 -8.45758
H 6.82251 -11.5802 -8.11465
H 6.01848 -10.1746 -7.90492
O 10.1315 5.21335 1.62549
H 10.1662 4.58738 2.4045
H 9.2196 5.18565 1.21608
O -12.5018 -1.76625 13.1718
H -12.9617 -2.26494 13.9064
H -11.6718 -2.25603 12.9052
O 9.79663 -7.36116 3.76045
H 9.94963 -7.46499 2.77775
H 10.6742 -7.23546 4.22295
O 12.9919 -1.22496 13.2919
H 13.3019 -0.98189 14.211
H 12.5833 -0.423563 12.8551
O 2.05588 14.9078 1.86216
H 2.54555 -14.1247 1.93012
H 2.63947 14.1692 2.19951
O -1.30189 -7.15593 5.18409
H -0.849624 -6.27883 5.02268
H -0.612379 -7.86108 5.34912
O -2.30344 -2.15351 -9.44044
H -1.85275 -1.29643 -9.19105
H -3.24381 -1.96545 -9.7237
O -10.9053 1.20765 8.26234
H -10.2094 0.660659 7.79726
H -10.8421 1.05845 9.24907
O 0.154634 -7.6623 -2.90866
H -0.178051 -7.72484 -3.84956
H -0.623506 -7.61264 -2.28261
O 8.94888 8.03703 -1.21005
H 8.95718 7.80665 -2.18306
H 9.71298 7.58169 -0.753202
O -10.0519 14.2568 8.58631
H -9.50956 14.5626 9.36883
H -10.2242 13.2749 8.66349
O 4.14658 10.3798 -5.7578
H 3.75656 9.79066 -5.05022
H 4.44309 9.82 -6.53149
O -3.91687 -6.86869 -3.85807
H -3.40614 -6.87693 -4.71772
H -3.93084 -7.79009 -3.46985
O 12.3634 -13.0366 4.82013
H 13.2527 -12.5793 4.82449
H 11.6676 -12.409 4.47121
O 6.79154 4.79622 -1.75534
H 6.07515 4.12204 -1.93468
H 6.64692 5.2045 -0.854072
O 4.81108 12.9987 3.45125
H 4.20697 12.2865 3.80862
H 5.36326 12.6245 2.7063
O -7.23845 2.08419 2.06621
H -8.13019 2.13096 2.51622
H -6.57266 1.67159 2.68782
O -9.96041 7.13292 0.743837
H -10.4826 6.46315 0.216011
H -10.0104 6.9035 1.71583
O 4.98826 -7.44349 6.63717
H 5.61314 -7.6167 5.87598
H 5.28075 -7.97051 7.43504
O -10.5871 -0.518768 11.0857
H -10.2805 -1.24439 11.7016
H -10.6513 -0.877145 10.1544
O -2.09962 8.72919 -7.47148
H -2.78345 8.05437 -7.19419
H -1.90829 9.34366 -6.70616
O 4.7589 -12.748 -14.078
H 5.72514 -12.9034 -13.8727
H 4.58383 -11.765 -14.1334
O -8.0981 -1.92913 8.81267
H -9.02205 -2.27336 8.97916
H -7.53544 -2.65894 8.42448
O -5.37921 8.72986 -10.1211
H -4.80916 8.05126 -10.5842
H -5.2748 8.63326 -9.1313
O 11.6766 -11.3378 -5.08174
H 12.3386 -11.963 -5.49487
H 11.1227 -10.9166 -5.79992
O -4.64366 -6.65168 12.0204
H -3.64837 -6.62938 11.9266
H -4.90074 -7.36049 12.6772
O -9.51419 -2.30859 4.67142
H -10.1638 -3.01381 4.38756
H -8.60825 -2.7163 4.78521
O 5.65767 -3.63076 -7.54656
H 6.05197 -4.1642 -8.2948
H 4.66024 -3.64601 -7.61589
O -2.40863 -11.5058 -12.4186
H -3.3619 -11.3779 -12.1451
H -2.06554 -10.664 -12.835
O 11.9962 -2.61389 -3.15915
H 12.3257 -2.89131 -4.06158
H 11.2618 -3.22746 -2.86935
O -8.60968 -0.937689 13.9912
H -8.95517 -1.49637 14.7451
H -8.04991 -0.194078 14.3567
O 4.20923 -3.40072 11.2705
H 3.58821 -3.70536 10.5484
H 4.3808 -2.42064 11.1711
O 11.7721 -7.39123 -7.83966
H 11.7885 -7.45808 -8.83723
H 10.8303 -7.26074 -7.52985
O 9.38973 3.0781 3.57963
H 9.95445 2.29315 3.32499
H 9.6158 3.36317 4.51104
O -13.1036 1.6716 6.72742
H -12.2529 1.89349 7.20384
H -12.8918 1.27991 5.83209
O 2.71428 -7.23964 8.65625
H 3.03431 -7.57753 7.7712
H 2.34943 -6.31497 8.54787
O 4.85526 -8.35881 -7.44738
H 4.24177 -8.97126 -7.94581
H 4.32706 -7.81861 -6.79234
O -7.25296 -12.4168 13.1039
H -6.26203 -12.3521 13.2213
H -7.46505 -12.5677 12.1384
O 7.76045 3.5884 8.72193
H 8.25301 3.10364 9.44463
H 8.20365 4.46785 8.54862
O -10.0512 -4.89305 9.30856
H -10.443 -5.70367 8.87345
H -9.30983 -5.16859 9.92036
O 12.1067 6.8455 13.1612
H 12.5821 6.67405 12.2984
H 11.5494 7.67145 13.0763
O -12.2105 14.2262 11.3394
H -11.2583 14.5305 11.3647
H -12.7706 14.8369 11.899
O -3.74744 10.8886 7.21791
H -3.02193 10.2285 7.41234
H -3.34576 11.7934 7.07666
O 10.7188 14.7855 12.3807
H 11.7047 14.9507 12.3579
H 10.2529 -14.3044 12.7325
O 13.0666 6.08282 1.79967
H 13.7013 6.66874 2.30329
H 12.137 6.23119 2.13697
O -9.85099 11.9454 -4.62119
H -9.94746 11.9188 -3.62626
H -8.88961 12.0831 -4.85927
O -12.0043 11.7162 -0.845503
H -12.317 10.7692 -0.918187
H -11.0526 11.7769 -1.14616
O 10.1573 -11.4181 -2.96989
H 10.1772 -10.4195 -3.01815
H 10.3995 -11.7998 -3.86182
O 3.85941 -0.364514 -4.72952
H 4.14362 -0.831494 -3.89223
H 3.00588 -0.765829 -5.06166
O 3.67179 2.88096 -14.6871
H 4.09968 3.58755 -14.1236
H 4.15595 2.01524 -14.5607
O 7.54087 -12.5162 -12.6799
H 8.30574 -12.6959 -12.0614
H 6.78863 -13.1407 -12.47
O -13.1854 -3.7927 9.3421
H -12.5173 -3.11409 9.03717
H -13.5383 -3.53257 10.2408
O -8.39642 8.40174 -1.44522
H -9.03133 8.41905 -0.672894
H -8.81993 7.92295 -2.21417
O -4.08164 4.86006 10.7337
H -3.82894 5.82606 10.6801
H -3.60707 4.35104 10.0157
O -12.6638 -6.79852 4.53374
H -12.9214 -7.41293 3.78805
H -13.4545 -6.64324 5.12586
O 11.8756 13.0541 -14.5577
H 11.9967 13.9012 14.8266
H 12.6086 12.968 -13.883
O 9.88219 8.32916 -14.6917
H 10.6769 8.13312 -14.1174
H 10.1664 8.37555 14.2524
O -0.962824 12.2867 -4.95394
H -0.38632 12.2405 -5.76966
H -0.425507 12.6336 -4.18528
O -5.03187 1.167 -6.38873
H -5.18102 1.75082 -5.59074
H -4.46913 0.382801 -6.12748
O -1.15477 -2.79086 3.81121
H -1.67008 -2.93776 2.96695
H -0.954905 -1.81654 3.91445
O 1.72478 2.66523 -1.88979
H 2.63492 2.37732 -1.59206
H 1.1139 1.87376 -1.90711
O -12.1851 -2.91632 -0.173807
H -11.3074 -2.68082 -0.591003
H -12.6854 -2.07872 0.0452151
O -8.63575 7.8718 4.34636
H -8.96111 7.02236 3.93103
H -9.26359 8.14906 5.07357
O -3.31968 -13.861 4.04798
H -4.10973 -13.7362 3.44785
H -2.72606 -14.5734 3.67374
O -2.47723 13.0616 -10.6026
H -2.30474 12.4896 -9.80081
H -3.28962 12.7285 -11.0811
O 13.2683 10.0426 13.7821
H 12.713 9.21131 13.8054
H 12.7357 10.8094 14.1402
O -6.30526 11.3663 -9.10911
H -6.90185 10.5808 -9.27302
H -6.71794 12.1866 -9.50505
O -6.03582 7.54132 6.11132
H -6.58799 7.16339 5.36824
H -6.36647 8.45693 6.33984
O -12.8629 -12.3723 6.26569
H -12.82 -11.6364 5.59006
H -12.0461 -12.9439 6.18827
O 14.3851 -10.9063 5.11402
H 13.6294 -10.5695 5.67555
H 14.2835 -10.5657 4.17939
O 2.84136 6.68913 8.13778
H 3.54149 6.83374 7.43863
H 2.84356 7.45899 8.77591
O 2.67292 -9.7635 -8.49806
H 2.09694 -9.30391 -7.82211
H 2.49224 -9.38192 -9.40451
O -12.7713 12.9261 -11.1082
H -12.1584 12.4805 -11.7606
H -13.0622 13.8099 -11.4744
O -7.7263 -5.95316 -1.40323
H -7.03837 -6.39341 -0.826315
H -8.58569 -6.46089 -1.34361
O -9.4813 3.13331 -0.431974
H -9.75918 2.28146 0.0119128
H -8.70003 2.95763 -1.03084
O -4.20265 0.489906 8.25103
H -4.95883 0.331142 8.88576
H -4.33129 -0.0700836 7.43264
O -6.03927 13.1001 14.1466
H -5.15804 13.4705 14.4402
H -6.64482 13.8507 13.8823
O -14.6597 -12.1239 10.6967
H -14.0228 -12.3101 9.94859
H 14.3243 -11.9821 10.3257
O -1.8688 4.94967 -9.16304
H -2.03348 4.76406 -10.1317
H -2.07692 4.13168 -8.62687
O 4.94433 12.0679 -9.4725
H 4.44901 11.9212 -10.3287
H 4.32602 12.4631 -8.79325
O -5.75084 -11.1672 6.95651
H -4.98871 -11.3045 6.32391
H -6.1849 -12.0467 7.15137
O -3.18212 -8.66375 -10.9184
H -3.89631 -9.28213 -11.2462
H -2.35243 -8.79558 -11.4608
O 3.24238 -3.67476 3.39959
H 3.63148 -3.37215 4.2696
H 2.37002 -3.21099 3.24534
O 1.69392 -12.6854 13.1684
H 0.719011 -12.8916 13.0851
H 2.12227 -12.7299 12.2659
O -8.51365 -14.5256 14.1477
H -8.10378 -14.5498 -14.8422
H -8.22667 -13.6922 13.6753
O -1.25847 -6.99122 1.19347
H -0.672805 -7.28524 1.94875
H -2.0125 -6.44049 1.55129
O 8.65059 8.60966 -5.34524
H 8.77054 9.48824 -5.80742
H 7.78148 8.20184 -5.62494
O -5.88613 -13.9947 -10.8409
H -4.98617 -14.3594 -10.6022
H -6.06347 -13.1685 -10.3062
O -0.077487 -3.9843 -3.50033
H -0.279415 -4.68645 -2.8176
H -0.933351 -3.62658 -3.87373
O 14.7475 7.66242 3.28459
H -14.6113 7.14443 3.94551
H -14.7882 8.58969 3.20642
O 12.1652 -7.37072 -10.5447
H 13.004 -6.91881 -10.8481
H 12.2423 -8.35552 -10.7001
O 0.272346 -9.66549 -0.0586467
H 1.15272 -9.29249 0.234135
H -0.0659466 -9.14513 -0.842664
O -9.71096 11.4451 2.53014
H -10.3717 10.741 2.2702
H -8.92106 11.0156 2.96771
O -14.5933 -14.2675 -3.71988
H 14.8082 -14.786 -3.02642
H -13.9277 -14.8649 -4.16708
O -2.1575 -11.1333 13.1936
H -2.31919 -10.9945 12.2166
H -1.67918 -12.0004 13.3323
O -13.5966 -5.44553 -5.1423
H -14.3331 -5.61113 -5.79799
H -12.9064 -4.85383 -5.55878
O 5.51053 2.06085 -11.5133
H 5.23002 1.50444 -12.2954
H 6.50894 2.09547 -11.4699
O 11.425 9.43808 1.30317
H 10.7318 9.61004 0.60334
H 12.335 9.57284 0.911115
O -11.1838 -11.6554 2.41655
H -10.9278 -10.838 1.90052
H -11.7084 -12.2704 1.82799
O 12.9725 -8.34489 9.93053
H 13.8151 -8.65448 9.48991
H 12.644 -7.51661 9.47675
O -4.41987 9.21942 4.39982
H -4.76363 8.44459 4.93026
H -5.02193 10.0069 4.53157
O 4.33033 -10.7753 1.32759
H 3.49597 -11.3184 1.2343
H 4.86846 -10.844 0.487604
O -9.84689 12.6401 14.0456
H -10.5101 12.397 13.3378
H -9.34805 13.4608 13.7672
O 6.15289 7.53178 13.2829
H 6.31165 7.18878 12.3571
H 5.64028 8.38913 13.2373
O -7.95146 -7.45897 7.85088
H -8.69608 -7.91195 8.34103
H -7.68301 -6.63131 8.34364
O 13.1799 -8.40089 3.33569
H 13.062 -8.52075 4.32141
H 13.1045 -7.43047 3.10658
O -7.66057 13.5525 -10.0087
H -8.53953 14.0271 -10.0541
H -6.91838 14.2155 -10.1061
O -3.92378 -2.43421 14.8855
H -3.88065 -3.35913 -14.6386
H -3.57232 -2.43964 13.9494
O 5.2722 4.89317 -13.4994
H 5.95824 5.59133 -13.7039
H 5.09175 4.88119 -12.5159
O 4.06975 -6.94908 -12.062
H 3.77506 -6.64012 -11.1578
H 4.99233 -6.60999 -12.2458
O -11.5207 -13.0958 -9.76948
H -11.7995 -13.1887 -8.81367
H -10.9217 -13.8571 -10.0174
O 0.158548 6.46532 12.682
H 0.578554 6.20995 13.5528
H 0.424663 5.80708 11.9779
O 14.1169 -2.88229 7.35796
H 13.421 -3.14397 8.02665
H 14.5364 -2.01775 7.63447
O -7.48186 10.697 14.3055
H -6.7454 11.3414 14.5111
H -8.22458 11.1775 13.8392
O -8.62974 -4.76813 14.467
H -7.64413 -4.61059 14.5273
H -9.10899 -4.10592 -14.8588
O 0.585202 14.2352 -3.04912
H 0.491724 14.7848 -3.87923
H 1.55481 14.0849 -2.85633
O 13.8381 -10.1443 -10.7165
H 13.5763 -10.3725 -11.6542
H 14.6391 -9.54594 -10.7303
O 11.608 -10.5126 12.9581
H 11.0923 -10.8445 13.7479
H 12.4934 -10.9756 12.9196
O 4.72898 8.55651 -1.38677
H 5.26183 8.02613 -2.04606
H 4.89728 8.2079 -0.464794
O -2.13901 -8.45387 14.1836
H -3.0688 -8.20282 14.4526
H -2.09591 -9.43806 14.0121
O 13.7054 5.62062 -14.9027
H 13.535 5.97402 -13.983
H 13.1032 6.08221 14.3477
O 8.51207 9.06381 8.3528
H 9.10806 8.50204 8.92649
H 9.03778 9.43154 7.5858
O -1.56178 -4.83744 -9.5019
H -1.81679 -3.88051 -9.64027
H -2.38776 -5.38926 -9.38727
O 2.04874 0.611624 11.6741
H 2.32492 0.51927 10.7175
H 1.44926 1.40585 11.7727
O -14.1955 -7.08048 14.5011
H -14.5528 -7.02634 13.5688
H -14.071 -8.03957 14.7552
O 3.67108 14.8241 5.22489
H 2.72228 14.6956 5.51331
H 3.99822 13.993 4.77535
O 14.3322 0.827616 4.46736
H 14.2827 1.66948 5.00468
H 14.6717 1.03695 3.55041
O 5.708 -2.37879 -13.9668
H 6.23134 -2.68617 -13.1721
H 4.74177 -2.6003 -13.8356
O -2.37167 -0.269921 11.5822
H -3.1634 -0.824859 11.327
H -2.01389 -0.58409 12.4615
O -4.70042 -4.09465 2.85584
H -5.39329 -3.70869 3.46483
H -5.08276 -4.88228 2.37276
O -1.11972 -8.65761 -12.6604
H -1.36935 -7.91998 -13.2877
H -0.253059 -9.06312 -12.9508
O -3.57229 9.40755 -12.6285
H -3.69935 8.52949 -12.1672
H -2.6108 9.67671 -12.5738
O -9.70437 -10.6609 -10.8139
H -9.41852 -10.9455 -9.89893
H -9.86652 -11.4697 -11.3791
O 12.4363 -3.86024 -5.87522
H 11.6983 -3.96016 -6.5425
H 12.6231 -4.74569 -5.44981
O -7.67993 -1.44417 -12.4803
H -6.84854 -1.20555 -12.982
H -8.03426 -0.631999 -12.0169
O -10.6115 3.85612 -7.69303
H -10.3539 4.81085 -7.84145
H -9.78771 3.30597 -7.55665
O 0.328526 13.5993 8.50738
H 1.20645 13.9675 8.20145
H 0.44564 12.6461 8.78568
O -12.682 6.39155 -14.2931
H -11.9291 7.04398 -14.2077
H -13.2838 6.6732 14.8613
O 14.6295 -13.1824 7.79258
H -14.5419 -12.8742 7.18301
H 14.1595 -12.3883 8.17772
O 14.4347 -9.20427 -5.36709
H 13.8588 -8.48761 -5.76029
H 14.0633 -10.1006 -5.60914
O -8.89036 6.95587 -3.94405
H -9.73124 6.43517 -4.09131
H -8.13292 6.50673 -4.41782
O 2.40444 -11.6972 -11.4782
H 1.55342 -11.8802 -11.9703
H 2.77724 -12.5558 -11.1264
O 8.76816 12.8984 -0.711636
H 8.74058 11.9155 -0.529779
H 9.68394 13.1546 -1.02084
O 13.8423 -2.06322 4.7779
H 13.9139 -2.46887 5.68906
H 13.9528 -1.07166 4.84489
O 8.13495 -2.17266 -1.37193
H 8.81498 -2.82713 -1.70225
H 8.38953 -1.86091 -0.456557
O 3.51036 9.52417 12.503
H 3.40028 8.93922 11.6995
H 2.63665 9.95892 12.721
O 3.6985 -3.0552 -11.4651
H 3.24028 -3.92288 -11.6577
H 3.0143 -2.35487 -11.2619
O 2.77728 -0.939679 13.5835
H 2.59186 -0.366617 12.7853
H 2.59229 -0.41969 14.4174
O 12.5393 0.22231 -11.1023
H 13.4463 0.0539772 -11.4881
H 12.1492 1.04543 -11.5149
O 3.83398 12.6443 9.8684
H 4.2738 13.1786 9.14657
H 3.67509 13.2276 10.665
O 12.9225 7.37579 10.3838
H 13.6942 7.56612 10.9906
H 13.2535 6.9241 9.5553
O -8.71272 4.93522 -12.4303
H -7.81159 5.33693 -12.2676
H -9.07049 4.56156 -11.5746
O 3.39093 -8.64155 10.7827
H 3.53288 -7.94463 11.4856
H 3.10629 -8.20242 9.9306
O 10.0924 -7.70831 7.30971
H 9.94441 -8.03378 8.24355
H 9.87629 -6.73335 7.25836
O -0.481548 2.53917 5.24546
H -1.40896 2.76691 4.94892
H -0.462792 2.4486 6.24113
O 0.124678 -14.6844 -0.167371
H 0.189109 -14.8038 -1.15807
H 1.0414 -14.707 0.231382
O -14.041 -0.78554 11.1731
H -13.3825 -1.38545 11.6273
H -14.6336 -0.361902 11.8581
O 8.61201 -12.7445 13.051
H 7.65961 -12.7495 13.3556
H 9.19911 -12.4318 13.7976
O -10.0455 -2.74653 -14.0982
H -10.9965 -2.79115 -13.7926
H -9.45303 -2.55119 -13.3167
O -4.3228 -5.72055 -0.98086
H -4.68345 -6.1834 -0.17117
H -4.08041 -6.40026 -1.67306
O 14.1765 4.66868 -0.266961
H 13.589 4.73269 -1.07356
H 13.7109 5.07753 0.517848
O 14.8012 -7.1648 6.16261
H -14.4825 -6.47437 6.53854
H 14.7607 -7.94862 6.78219
O -0.204244 3.15711 14.8475
H 0.413112 3.81858 -14.6285
H -0.00658447 2.24226 -14.7022
O 9.96002 -7.44442 0.723124
H 9.01542 -7.46598 0.395772
H 10.4312 -6.65518 0.329488
O -4.8636 9.75779 -6.34017
H -4.17557 9.84162 -5.61942
H -4.9964 10.6464 -6.77915
O -2.65992 -2.72943 1.44041
H -2.5431 -2.90754 0.463414
H -3.30559 -3.38926 1.82463
O -14.6204 11.6782 4.29325
H -14.6886 12.6622 4.45725
H 14.3653 11.2773 4.28542
O 3.86675 6.07239 14.0464
H 4.56497 6.67692 13.6631
H 3.68385 5.32638 13.4062
O 11.128 9.07479 -4.04709
H 11.5855 8.20737 -3.85167
H 10.3015 8.90238 -4.58287
O 1.55224 7.69283 4.13351
H 1.30981 8.48703 3.5764
H 0.749386 7.10761 4.24683
O 9.29644 -0.636645 14.8551
H 8.73743 -0.89891 14.0686
H 9.93499 0.0838173 14.5848
O 1.63361 -6.98573 -14.6247
H 1.53997 -6.01862 -14.3884
H 2.38464 -7.38591 -14.0996
O -13.4082 -14.3262 -11.6121
H -13.2742 -13.9953 -12.5461
H -13.0372 -13.6594 -10.9658
O 0.512335 -7.80242 12.7656
H 0.770458 -7.68421 13.7244
H 1.31633 -7.67216 12.1855
O 1.94374 9.69395 0.153723
H 2.53955 10.4837 0.299116
H 1.16351 9.74583 0.776976
O -5.69527 -4.57895 13.4205
H -5.36745 -5.27403 12.7807
H -4.92509 -4.22373 13.9501
O 1.70099 2.05355 -11.7441
H 1.74266 3.02455 -11.9792
H 2.18202 1.89866 -10.8812
O -14.1795 13.1563 0.33225
H -14.0129 13.0262 1.30961
H -13.4109 12.7857 -0.189068
O -4.66752 10.756 9.8992
H -4.50512 10.9502 8.93182
H -5.19408 9.91031 9.98557
O 6.58232 -4.93971 11.7166
H 6.44488 -5.06974 12.6985
H 5.74283 -4.58291 11.3069
O -6.63665 13.7102 8.42354
H -6.10173 13.5577 7.59257
H -7.45586 13.1371 8.40239
O 7.0642 6.16995 0.894464
H 7.58905 6.80505 1.4611
H 6.13973 6.52732 0.76203
O 3.30567 4.49038 -8.05493
H 3.66263 4.53704 -7.12203
H 2.55421 5.14209 -8.15724
O -4.67682 -12.7237 10.0931
H -4.20476 -13.0612 9.27879
H -4.13711 -11.994 10.5129
O 1.41207 9.04568 -7.10452
H 1.415 9.43075 -6.18169
H 1.47855 8.04943 -7.05018
O 11.0638 -2.03228 8.51126
H 10.4563 -1.81319 9.27467
H 11.2326 -1.20715 7.97221
O 12.2433 -13.9859 14.6571
H 12.8552 -13.2436 14.3842
H 11.7755 -13.7375 -14.3965
O -9.7025 -11.0277 -1.79734
H -9.23251 -10.889 -2.66898
H -10.6613 -10.7593 -1.88925
O 3.11571 -9.86471 13.4287
H 3.32666 -9.89173 12.4516
H 2.47041 -10.5956 13.6507
O -9.51811 2.14549 11.3891
H -9.70307 1.167 11.48
H -8.56244 2.2812 11.128
O 14.676 10.3493 -13.6198
H 14.5276 9.78378 -14.431
H 14.8728 9.7614 -12.8352
O 9.91074 2.72006 10.7485
H 10.8259 2.63491 11.1424
H 9.23064 2.71476 11.4816
O -12.2908 13.2365 3.03303
H -12.0307 12.4404 3.5792
H -12.8213 13.869 3.59743
O 7.83344 -9.23432 -2.86177
H 8.78768 -8.95837 -2.74698
H 7.60947 -9.94499 -2.19492
O -9.32026 12.6532 -1.56358
H -8.81257 12.8366 -2.40531
H -8.74192 12.8585 -0.774086
O 0.0988727 13.0962 12.5898
H 0.803277 13.7522 12.319