2611
Atoms. Timestep: 8000000
O 6.23263 1.38943 -6.19259
H 6.085 0.432597 -6.44302
H 6.24104 1.47575 -5.19633
O -1.01738 -5.19601 -11.4402
H -0.668143 -4.39715 -10.9504
H -0.612065 -5.23035 -12.3537
O 4.32428 8.64052 -4.18103
H 4.04236 7.77017 -4.58483
H 5.26133 8.56209 -3.84071
O -6.67278 10.2112 -12.0581
H -7.25799 10.1296 -11.2513
H -6.31395 9.31028 -12.3022
O -5.45151 9.61333 -4.30012
H -5.66462 8.67088 -4.55785
H -5.83129 9.80542 -3.39518
O -8.16254 -8.57163 -6.11949
H -8.26513 -9.4853 -5.72614
H -8.33366 -8.61142 -7.10396
O -1.51283 -14.3332 -11.5222
H -2.27555 14.9026 -11.4464
H -1.20369 -14.0733 -10.6074
O 12.0841 8.06638 -9.25524
H 12.3143 7.24099 -8.73969
H 12.9062 8.62217 -9.37905
O -2.1123 0.260779 -3.15334
H -1.31406 -0.264876 -2.85914
H -2.70646 -0.319263 -3.71063
O 14.4799 -3.09903 2.54493
H 14.371 -3.03795 1.55272
H 14.2999 -4.03652 2.8429
O -2.24374 10.1934 -12.1942
H -1.66062 9.40678 -11.9909
H -2.10309 10.4762 -13.143
O -13.5009 -13.1501 -0.189085
H -13.5895 -13.1851 0.806395
H -13.5477 -14.0774 -0.560701
O -9.15447 -10.5306 -0.498544
H -8.65718 -11.3922 -0.600242
H -8.96978 -10.1438 0.404954
O -12.3407 3.33498 5.80655
H -13.3234 3.43679 5.65137
H -12.0348 4.02072 6.46701
O -14.2059 12.4461 4.08578
H 14.8059 12.2725 4.55416
H -13.7485 13.2278 4.50979
O 5.87426 -1.04707 -1.62972
H 5.9363 -0.954106 -0.635964
H 5.90723 -0.141151 -2.05195
O 6.24252 -6.27312 -7.55486
H 5.33524 -6.11409 -7.16551
H 6.51904 -5.47628 -8.0921
O 11.9077 -13.0267 -13.0528
H 11.8156 -12.2701 -12.4053
H 12.5604 -12.776 -13.7677
O -2.37877 -2.10604 -12.8122
H -2.37658 -2.91232 -13.4038
H -1.43993 -1.78925 -12.677
O -11.8722 -4.29818 7.34959
H -12.7249 -3.89162 7.67763
H -11.1652 -3.59285 7.29704
O -7.07356 -11.9233 12.754
H -7.98339 -11.8704 12.3424
H -7.15841 -12.169 13.7197
O 14.8477 8.84772 -9.6596
H -14.7775 9.30101 -10.5144
H -14.2406 8.82759 -9.04661
O 13.007 -10.9706 14.3266
H 12.1115 -10.5591 14.1571
H 13.4789 -10.4582 -14.834
O 9.33503 13.9577 11.5708
H 9.32777 14.7438 12.1889
H 9.69259 14.2374 10.6798
O -1.72872 5.69734 -0.962329
H -1.63215 5.10667 -1.76347
H -1.09911 5.39429 -0.246928
O 11.2347 -3.85486 0.987205
H 10.6679 -4.64702 0.760634
H 11.4565 -3.87166 1.96216
O -11.0803 -14.7719 -5.05238
H -10.654 14.7908 -4.20456
H -11.1198 14.351 -5.70668
O -7.75582 14.3363 10.8775
H -7.75117 14.5423 9.89891
H -7.0206 13.6913 11.0859
O 6.04146 -14.053 8.06896
H 5.56885 -13.7557 7.23933
H 6.25842 14.8515 7.99822
O 1.72804 1.82117 -13.2061
H 1.82838 2.22147 -12.2952
H 0.823318 2.04299 -13.5699
O 6.77451 -9.90646 -3.49511
H 6.74344 -8.94758 -3.77729
H 7.29199 -10.4353 -4.16787
O -12.899 10.5159 -5.84286
H -12.1093 11.1176 -5.72212
H -13.7283 10.9914 -5.54917
O -12.9471 -12.7453 2.87869
H -13.6006 -12.0853 2.50813
H -13.4276 -13.3956 3.46726
O -6.14514 -12.3724 2.73726
H -6.89119 -11.8624 3.16541
H -6.12361 -12.1722 1.75772
O -7.50963 12.7226 -7.79865
H -7.88394 11.8099 -7.96265
H -7.82437 13.3456 -8.51482
O -13.0441 12.1107 6.80241
H -12.7197 12.8416 6.20191
H -12.6245 12.2098 7.70474
O -9.59462 -11.3395 6.20098
H -10.589 -11.3961 6.11163
H -9.36092 -10.6722 6.90816
O 12.9917 9.13056 -13.4047
H 12.8378 8.28429 -12.8946
H 12.964 9.90814 -12.7765
O 9.78184 -9.90874 -6.09934
H 9.57636 -8.9997 -6.46193
H 10.3694 -9.82171 -5.29484
O 5.55202 -9.66553 -0.786961
H 6.36754 -9.935 -0.274755
H 5.571 -10.091 -1.69178
O 4.92455 -11.769 -3.28406
H 5.39459 -12.6288 -3.08418
H 5.59658 -11.0722 -3.53472
O -1.1686 11.5243 -4.427
H -0.944441 10.5499 -4.40839
H -1.00338 11.9216 -3.5243
O 0.780181 -10.6427 11.9274
H 0.796478 -10.7305 10.9314
H 0.200958 -9.86911 12.1844
O -5.30322 2.04251 -4.90909
H -5.74896 1.97075 -4.01678
H -4.62916 2.78087 -4.88655
O 3.94204 -9.80039 3.98509
H 3.05938 -10.1705 3.69526
H 4.34603 -9.27615 3.23541
O 14.7763 10.5239 11.7444
H -14.3631 10.8116 12.3539
H -14.714 10.1876 10.8861
O -13.9328 -8.90285 5.95748
H -14.9317 -8.94043 5.92786
H -13.6351 -8.67767 6.88522
O -0.6897 -3.40976 5.31124
H -0.0786317 -3.20516 4.54653
H -1.38752 -4.06194 5.01502
O -0.202526 -13.9514 -8.86854
H -0.984197 -14.2763 -8.33606
H 0.644567 -14.1683 -8.38331
O 1.52609 13.709 -10.6899
H 0.681282 13.287 -11.0189
H 1.34158 14.2081 -9.84318
O 2.68742 4.95631 -3.99182
H 1.79181 4.67476 -4.33631
H 2.56868 5.50686 -3.16548
O -0.150833 14.7821 11.075
H -0.811684 14.0336 11.0194
H -0.501469 -14.304 10.5753
O 12.3376 8.25453 5.9
H 12.3882 7.25624 5.92995
H 12.496 8.62393 6.81569
O -1.48688 -11.0957 4.87644
H -1.61513 -10.8076 5.82545
H -1.90854 -10.4261 4.26498
O -5.62954 -7.26216 -6.53358
H -5.6095 -6.33359 -6.16292
H -6.45961 -7.72652 -6.22469
O 1.59232 1.76156 10.2887
H 0.797494 2.35616 10.1672
H 1.28847 0.854088 10.5789
O 1.17768 -6.29692 -3.61499
H 2.02574 -6.82323 -3.55304
H 0.882908 -6.25089 -4.56947
O -1.71454 -14.7644 -4.8299
H -1.08553 -14.0116 -5.02425
H -2.63276 -14.5205 -5.14208
O -12.9892 -4.56937 -14.8652
H -12.5536 -4.14522 14.219
H -12.6706 -5.51291 -14.7746
O 3.04244 5.21554 -6.8296
H 2.48683 6.04125 -6.92741
H 3.12522 4.98233 -5.86067
O -2.3767 2.80247 -2.85688
H -2.07966 1.84873 -2.90363
H -2.98848 2.92311 -2.07508
O 7.10309 -4.41943 -3.95704
H 6.28208 -4.69481 -4.4572
H 7.20782 -3.42628 -4.00932
O 14.1356 14.2391 -5.98936
H 13.2599 14.556 -5.62486
H 14.2957 14.6578 -6.88327
O -2.11232 -3.36106 -5.13118
H -2.5951 -4.15756 -4.76709
H -1.15274 -3.59546 -5.28709
O 14.069 6.20681 7.83006
H 13.3482 5.6611 7.40254
H 13.6853 7.0726 8.1514
O 7.6905 6.643 2.71007
H 8.34376 5.91515 2.91871
H 7.85691 7.42318 3.31312
O 3.92949 1.01624 9.09846
H 3.74712 0.553236 8.23104
H 3.06326 1.25533 9.53724
O 11.6828 4.97339 7.15534
H 10.9275 5.47398 7.57855
H 11.3692 4.06313 6.88486
O 11.8754 -11.9972 -3.23786
H 11.5458 -11.0532 -3.25724
H 12.7052 -12.0492 -2.68213
O 1.16739 -14.0246 5.48265
H 1.35455 -13.2898 4.83058
H 0.18145 -14.1849 5.53016
O -1.97147 12.6725 11.4483
H -1.35778 12.1686 12.0562
H -2.23589 12.0873 10.6817
O -10.9329 -11.8554 -11.3288
H -10.7937 -10.9268 -10.9848
H -10.4189 -11.9768 -12.178
O 8.52538 -5.08469 -10.481
H 9.00014 -4.50201 -11.1407
H 7.89863 -5.69484 -10.9657
O -7.81826 -4.20419 -9.50255
H -8.15005 -5.14653 -9.54682
H -8.17347 -3.76415 -8.67778
O -2.03421 -3.20438 -8.90526
H -2.13636 -2.33341 -8.4246
H -1.09712 -3.29044 -9.24365
O 2.529 -0.858553 -14.1175
H 2.34414 -0.0380528 -13.5765
H 3.28525 -1.36643 -13.7049
O 13.3743 13.7007 8.95845
H 13.8444 13.5376 9.82584
H 12.4213 13.946 9.13684
O 0.527784 -9.77075 -3.33551
H 0.306631 -8.99381 -2.74602
H -0.0743358 -10.5382 -3.11533
O 1.25216 8.32287 5.98442
H 1.05924 8.05438 6.92821
H 0.532311 7.97337 5.38466
O 11.0059 -5.94873 12.0002
H 11.975 -6.17026 11.8917
H 10.6251 -6.4803 12.7568
O -4.47923 8.25571 -12.5657
H -3.61773 8.58125 -12.176
H -4.58042 8.61172 -13.4947
O -4.60481 -11.7676 -7.80854
H -4.4399 -11.5249 -8.76453
H -4.48297 -10.9587 -7.23341
O -1.41832 9.27667 -8.96009
H -1.90026 10.15 -9.0312
H -0.908173 9.24651 -8.1005
O -3.95508 -14.0285 -6.07091
H -3.98866 -13.2818 -6.73531
H -3.95363 -14.9043 -6.55357
O 12.3847 14.3172 12.2221
H 11.5827 14.1639 11.6447
H 13.2079 14.0302 11.7322
O 4.47482 -10.2249 10.8317
H 3.95439 -9.95956 10.02
H 5.0313 -11.0291 10.6226
O 14.0914 -4.97363 9.6695
H 13.878 -5.52521 10.4759
H 13.2455 -4.74999 9.18531
O 1.8381 -6.04192 10.0958
H 1.26097 -5.41719 9.56978
H 1.40597 -6.23247 10.9773
O 7.30211 -5.22633 6.78044
H 7.2955 -6.18288 7.07201
H 6.55024 -4.73772 7.22316
O -12.6181 -8.66886 -13.0793
H -11.7082 -8.30969 -12.8719
H -12.5304 -9.52884 -13.5821
O 8.84382 -9.3485 -1.52132
H 8.20087 -9.50617 -2.27086
H 9.2217 -8.42555 -1.5949
O -13.8003 -0.160791 5.72786
H -13.9195 0.596231 6.37032
H -13.1692 0.113962 5.00239
O 3.88787 -13.2658 -14.6214
H 3.70767 -13.7688 -13.7761
H 4.49571 -12.4956 -14.4278
O -9.79022 -11.9223 -13.9725
H -8.92423 -11.5105 -14.2563
H -9.66745 -12.9075 -13.8528
O 5.82565 -11.5501 -13.7261
H 6.25182 -10.775 -13.2596
H 5.71456 -12.3068 -13.0819
O -13.9195 -13.5177 13.5169
H -13.2936 -12.9832 14.0849
H -14.8603 -13.3562 13.8149
O 3.03901 -9.47431 -12.4691
H 2.34406 -10.1879 -12.5578
H 3.62115 -9.47305 -13.2823
O 1.45537 -11.9766 -12.037
H 0.627798 -12.2791 -12.51
H 1.27404 -11.9129 -11.0557
O 11.9771 -3.23534 -10.2062
H 11.6339 -2.54578 -9.56845
H 11.4033 -3.24686 -11.0252
O 14.1368 -1.21258 7.31276
H 13.6222 -0.367261 7.16873
H -14.8599 -1.15019 6.8445
O -4.50157 -13.0043 -2.33365
H -5.01099 -13.528 -3.01653
H -3.57252 -13.367 -2.26045
O 13.3788 -14.1108 -0.618616
H 13.2259 -13.1576 -0.879495
H 13.2065 -14.2202 0.360357
O 14.6085 13.9184 6.48793
H 14.0027 14.1066 7.26096
H -14.4064 13.5424 6.8248
O -8.7607 1.37575 -10.3147
H -8.95005 0.557044 -10.8568
H -7.77266 1.52233 -10.2663
O 3.26695 -4.8284 12.9303
H 4.06719 -4.26775 13.1432
H 2.71313 -4.3688 12.2359
O -5.80919 11.3215 -0.374572
H -5.80963 12.084 -1.02151
H -6.0524 10.4779 -0.853482
O 12.4719 13.7887 -2.33716
H 12.7263 14.5218 -1.70648
H 13.289 13.2739 -2.5969
O 5.39253 -14.7894 12.3259
H 5.9753 -14.6609 13.1283
H 4.60873 -14.1707 12.3807
O -10.8262 1.72391 -8.39843
H -11.6095 1.12701 -8.57226
H -10.1492 1.60551 -9.12486
O 0.145292 -12.4736 13.9964
H 0.639344 -12.0016 13.2662
H 0.740778 -13.1618 14.4109
O 2.6235 -4.32339 -12.1309
H 1.94628 -4.43803 -12.8577
H 2.80984 -5.20936 -11.7061
O 6.28215 9.19432 -6.40809
H 6.7317 10.0871 -6.43754
H 6.47367 8.75345 -5.53116
O -12.6648 11.6579 2.06254
H -13.1248 11.8798 2.92232
H -12.1596 12.4579 1.7387
O 5.03548 0.0377688 13.8587
H 4.4352 -0.713538 14.133
H 5.96754 -0.305575 13.7428
O 14.4953 -11.3709 -1.27551
H 14.8582 -10.5015 -1.61085
H -14.6282 -11.9509 -0.968635
O 3.42204 8.45167 -7.06957
H 3.45202 8.19416 -8.0354
H 4.3371 8.37059 -6.67442
O -11.4517 1.1284 4.36132
H -10.8423 1.546 3.68728
H -11.8388 1.8405 4.94707
O -3.73762 7.86289 5.13607
H -4.02477 7.86988 6.09395
H -4.24992 8.55639 4.62945
O 3.23995 13.5939 14.355
H 3.64169 14.4895 14.1636
H 2.50036 13.4148 13.7061
O 3.64994 -12.6758 12.4766
H 3.32077 -12.4409 13.3912
H 3.97671 -11.8497 12.0176
O 8.01387 -11.2531 11.5541
H 7.26932 -11.7158 11.073
H 8.65499 -10.8717 10.8881
O 6.05133 -12.856 10.5327
H 6.05604 -13.2558 9.61607
H 5.74169 -13.5401 11.1931
O 11.8108 6.14405 2.1874
H 11.915 7.1369 2.24605
H 12.7029 5.70772 2.30447
O 11.2829 -10.5638 7.25704
H 11.2279 -11.5587 7.17266
H 10.5066 -10.1459 6.78504
O 7.88407 3.96734 -12.174
H 7.64981 2.99593 -12.2131
H 8.85395 4.08517 -12.3873
O -5.72841 5.02119 8.45304
H -5.45111 5.12564 7.49793
H -6.39648 5.72813 8.68538
O -14.1019 2.87407 -10.4809
H -13.5632 2.18806 -10.9701
H -14.3329 3.62213 -11.1031
O 14.069 -1.00041 -0.951895
H 13.5295 -1.43164 -1.67508
H 13.6363 -0.140599 -0.680811
O 13.083 -9.9215 3.29888
H 12.158 -10.2978 3.35066
H 13.2713 -9.38521 4.12169
O 11.6265 -9.11043 -4.03357
H 12.5923 -9.21491 -3.79648
H 11.2201 -8.39286 -3.46785
O -9.56006 -6.13552 -5.73503
H -10.1828 -6.09055 -6.5162
H -8.99228 -6.95547 -5.80816
O 9.78536 9.5211 -5.15898
H 9.16444 9.3171 -4.40208
H 9.44507 10.3138 -5.66488
O 6.80386 -7.2697 -3.84977
H 6.92736 -6.73031 -3.01679
H 5.90628 -7.07288 -4.24432
O -3.7708 -10.4583 -0.626303
H -2.84954 -10.6507 -0.96437
H -3.74715 -9.65239 -0.0346462
O -9.95555 -14.7006 12.3321
H -10.1221 14.7682 13.2293
H -9.09057 14.8353 11.965
O 1.17306 -7.58744 -14.9269
H 0.444188 -7.78512 14.2957
H 2.05164 -7.87434 14.5694
O 14.5625 13.7665 1.88095
H 14.8846 13.1996 2.63916
H -14.5915 13.8505 1.19644
O 13.085 -13.6625 14.0076
H 13.0517 -12.6812 13.8179
H 12.5726 -14.1554 13.3043
O 2.07189 -7.83916 0.151159
H 2.84213 -7.68389 -0.467439
H 1.21626 -7.79677 -0.364735
O 14.8206 -1.26912 -9.85773
H 14.2499 -1.7601 -9.19949
H -14.7923 -1.88883 -10.5964
O -9.38657 12.6254 8.80782
H -10.0523 11.8955 8.65217
H -9.44745 12.9353 9.75666
O 2.03421 -13.5435 -0.526305
H 2.37531 -12.651 -0.821419
H 1.78487 -14.0868 -1.32802
O -14.5783 9.24875 -3.1885
H -14.5946 8.77216 -4.0675
H 14.4312 9.10393 -2.71466
O 10.4581 10.306 -10.0461
H 10.9637 9.55991 -9.61275
H 9.63928 9.94065 -10.4889
O 7.75255 -0.881986 13.3461
H 8.37288 -1.61542 13.068
H 7.91113 -0.0767458 12.7747
O 4.56117 -13.6789 5.74736
H 4.28663 -14.5468 5.33329
H 3.88569 -13.4085 6.43338
O 10.305 -14.6841 -11.6108
H 10.7419 -14.8484 -10.7264
H 10.9212 -14.1542 -12.1936
O 3.3716 6.17679 8.72598
H 3.72225 5.24834 8.60328
H 3.49362 6.69386 7.87875
O -8.23203 -13.2331 -4.13438
H -7.29939 -13.564 -4.27843
H -8.80162 -13.9802 -3.79184
O -11.4259 2.80868 -13.1765
H -10.7454 3.33175 -12.6633
H -12.0316 2.33333 -12.5384
O -0.00588321 4.50832 1.12102
H 0.798473 4.10402 1.55645
H -0.707458 4.68149 1.81229
O 7.58287 -2.82898 3.74122
H 8.15042 -2.04231 3.9843
H 8.14369 -3.65694 3.74004
O 3.67855 7.63514 -9.67429
H 2.79027 7.82904 -10.0907
H 4.40522 8.0136 -10.2477
O 9.15499 0.485138 -9.2045
H 8.60648 -0.181282 -9.70955
H 9.66628 1.05323 -9.84939
O -10.6911 -5.77954 -3.32943
H -10.2779 -6.19467 -4.13996
H -10.3684 -6.25427 -2.51054
O 4.34995 3.48258 8.23018
H 4.36289 2.53867 8.56022
H 4.0101 3.50227 7.28988
O 13.7788 4.83626 -4.55698
H 14.6566 5.2611 -4.33563
H 13.1034 5.0855 -3.86288
O -8.58897 5.21774 14.51
H -8.69933 5.16441 -14.3756
H -7.62331 5.10564 14.2755
O 10.4595 14.2997 -8.02626
H 9.82179 13.5464 -7.86553
H 11.0507 14.4122 -7.22752
O -9.73741 6.63203 10.2362
H -9.4583 5.69552 10.0238
H -10.7315 6.66851 10.3384
O 6.71233 3.95986 9.03106
H 6.81194 4.90482 8.71931
H 5.81093 3.61551 8.76847
O 1.10394 -10.401 4.14457
H 0.270106 -10.4893 4.68951
H 1.39696 -11.3054 3.83457
O 5.03298 8.68665 -0.465146
H 5.21327 9.27084 -1.25652
H 4.72058 9.24933 0.300257
O -12.4233 9.62689 -8.54621
H -11.5361 9.18612 -8.68232
H -12.5688 9.78893 -7.57018
O 6.28812 -1.59234 6.3255
H 6.97793 -1.04671 5.84959
H 6.12322 -2.43783 5.81755
O -9.6619 9.44397 14.3873
H -8.91455 9.09135 13.8241
H -10.1737 8.67924 14.7789
O -4.8422 -6.95542 14.5183
H -5.78719 -7.27648 14.4554
H -4.38172 -7.42067 -14.6038
O -2.72149 11.264 9.27481
H -3.32679 11.3237 8.48102
H -2.57429 10.3032 9.51018
O -10.0046 -2.3096 7.03537
H -10.3551 -1.54804 7.58057
H -10.3177 -2.21482 6.09035
O 14.1894 -3.47918 14.808
H -14.7139 -3.65903 -14.938
H 13.791 -3.15462 -14.2122
O 8.01101 -11.3831 3.30434
H 9.00817 -11.3402 3.24206
H 7.62592 -10.4803 3.11285
O -9.85142 1.7394 10.3956
H -9.7512 0.772315 10.6296
H -9.46016 2.30103 11.1247
O -3.10378 2.48336 -12.8405
H -2.49986 3.16027 -13.2613
H -3.99374 2.50159 -13.2962
O -0.709566 -5.75717 12.253
H -0.437528 -4.79794 12.3299
H -1.67968 -5.84761 12.4782
O -5.62828 13.2557 3.89222
H -4.90873 12.6898 4.29479
H -5.35139 14.2162 3.91954
O -14.243 -5.59885 -0.520285
H -14.1799 -4.62623 -0.296497
H -13.5687 -6.10834 0.0142608
O 6.42902 4.18092 -9.901
H 6.90835 3.62152 -9.2247
H 7.01915 4.32125 -10.696
O -0.971815 -6.91852 4.78808
H -0.743497 -6.62039 5.71492
H -0.130046 -7.09454 4.2777
O -7.99282 6.59301 3.85248
H -8.84423 6.11127 4.06
H -8.19693 7.54182 3.61137
O 4.14795 6.77755 11.2647
H 3.98878 6.47943 10.3235
H 5.06334 6.49657 11.553
O -4.8292 13.3596 11.6756
H -3.90168 13.231 11.3245
H -5.00544 14.3359 11.8018
O -10.2427 11.6806 -0.80318
H -9.83508 10.9236 -0.292416
H -9.81289 11.7446 -1.70386
O 12.3448 8.57709 -2.1369
H 12.4539 7.58931 -2.02549
H 11.3958 8.78272 -2.37607
O 2.782 0.617878 -5.27297
H 2.76674 1.17812 -4.44475
H 3.03052 1.18769 -6.0563
O -11.9503 5.26512 -11.0187
H -12.7775 4.95093 -11.4847
H -11.8444 6.25007 -11.1554
O -11.6729 -11.431 -1.42655
H -10.843 -11.2477 -0.89952
H -12.1969 -12.1572 -0.981364
O 10.3436 -1.07027 7.21762
H 9.86092 -0.999249 8.09057
H 9.7226 -1.43114 6.52178
O -2.51024 8.56359 9.52897
H -2.49922 7.91725 10.292
H -3.35644 8.45022 9.00828
O 9.26965 -5.23935 4.11641
H 9.73413 -6.02727 4.52077
H 9.23607 -5.34608 3.12267
O -11.0245 0.443503 8.07476
H -11.9796 0.712132 8.20046
H -10.5069 0.655136 8.90379
O 0.691423 -14.7805 -13.962
H 0.871977 14.3772 -14.6316
H -0.0272347 14.7973 -13.3348
O -12.8151 3.61136 -8.26778
H -13.3549 3.25815 -9.03186
H -12.0147 3.02839 -8.12752
O 7.10025 -3.43412 -0.449182
H 6.738 -2.93905 -1.23895
H 7.38239 -2.78054 0.253162
O 7.79632 2.57131 -8.16047
H 7.2523 2.00327 -7.54287
H 8.32941 1.98469 -8.77017
O -2.98238 -9.74453 12.8778
H -3.83814 -9.25401 13.0425
H -3.10995 -10.3953 12.1294
O -10.4383 -6.85272 4.65555
H -11.2058 -6.21676 4.73666
H -9.83508 -6.74978 5.4465
O -13.9365 14.1231 -0.705248
H -13.1743 13.5148 -0.484068
H -14.5828 13.645 -1.30012
O -13.226 -1.64549 -4.58363
H -13.6583 -2.49026 -4.26816
H -12.3373 -1.85754 -4.99026
O 6.66934 -9.99457 13.689
H 6.92761 -10.6108 14.4331
H 6.74639 -10.4758 12.8158
O -5.63537 -12.0437 0.175582
H -5.85148 -12.4857 -0.695052
H -4.97388 -11.3097 0.0216232
O -9.37614 -1.14947 10.383
H -10.1835 -1.71892 10.5375
H -8.5806 -1.7347 10.2259
O -9.48159 -12.1765 11.3876
H -9.73324 -13.1255 11.578
H -10.2503 -11.709 10.951
O 13.5463 -2.82962 -12.5046
H 13.0958 -2.87835 -11.6131
H 14.5138 -3.06088 -12.4022
O 11.5497 1.3858 -4.2232
H 12.2306 1.43301 -4.95414
H 10.638 1.53292 -4.60689
O 8.55645 6.65142 6.2038
H 8.57736 7.40285 5.54429
H 8.21383 5.82506 5.75683
O 6.79312 1.55001 -3.15728
H 7.53717 0.927421 -2.91476
H 6.97668 2.45464 -2.77258
O 0.511504 -7.7902 -7.44677
H 0.844901 -7.42846 -8.31742
H 1.28111 -8.14802 -6.91788
O -11.4383 13.6224 0.791504
H -11.2299 14.5053 0.370691
H -11.1899 12.8862 0.162004
O -7.62613 -14.6076 0.913089
H -7.58979 14.3725 1.35155
H -7.19896 -13.9279 1.50947
O 14.354 -8.97888 -3.73339
H 14.8009 -8.77142 -2.86315
H 14.9174 -8.63943 -4.48666
O -10.0076 -4.90532 -11.7854
H -10.6377 -4.33055 -11.2632
H -9.39425 -5.3838 -11.157
O 10.5144 -10.8093 -9.38387
H 9.73961 -11.2258 -9.85956
H 10.1948 -10.3783 -8.53996
O -3.94783 -8.67836 -10.1876
H -4.56438 -9.40632 -10.4876
H -3.32052 -9.0367 -9.49613
O 12.4259 -12.2864 10.8167
H 12.4116 -11.4148 10.3265
H 12.91 -12.9689 10.269
O 1.31834 11.8966 2.69454
H 1.56373 10.9997 3.06247
H 0.944399 11.7881 1.77343
O 8.1904 11.3267 11.6946
H 7.21583 11.4329 11.892
H 8.63014 12.2248 11.6936
O 13.4036 -6.87002 -6.42969
H 13.3989 -6.95036 -7.42647
H 14.3475 -6.87182 -6.09953
O 5.12417 -8.02285 14.4189
H 4.38002 -7.83181 13.7787
H 5.60208 -8.85444 14.1358
O 10.2409 13.0582 -1.30536
H 9.5574 13.5267 -1.8652
H 11.1534 13.387 -1.54883
O 3.89595 2.43801 -3.26672
H 3.70699 3.41301 -3.38391
H 4.85602 2.25658 -3.4798
O 14.0974 -9.72373 12.0122
H 14.8455 -10.1749 11.5256
H 13.411 -10.403 12.2718
O -0.0194476 8.7921 -0.928001
H 0.711884 8.88457 -1.60376
H 0.235083 8.09837 -0.254202
O -0.349688 3.73769 10.1592
H 0.230048 4.55234 10.1764
H -1.21556 3.95422 9.7082
O -13.1101 0.73866 -12.2234
H -12.4816 -0.0388754 -12.2015
H -13.9318 0.488757 -12.7356
O 9.74605 6.26522 9.53269
H 9.88822 6.97343 10.2243
H 8.79737 6.29272 9.21756
O 7.14054 12.9237 6.70469
H 8.13454 12.9563 6.80932
H 6.72094 12.6832 7.57999
O 4.37548 -8.58178 1.51115
H 5.05016 -8.97797 0.888333
H 3.52632 -8.4044 1.01364
O 11.6796 -10.7701 -11.8268
H 11.5681 -10.615 -10.8452
H 11.0358 -10.194 -12.3305
O 12.427 -8.58731 0.709334
H 13.1393 -8.75648 1.39055
H 12.7652 -7.93854 0.0275619
O -3.69385 -1.37079 14.2285
H -4.23178 -2.20985 14.3101
H -4.11348 -0.650725 14.7812
O -12.6157 -13.2217 8.00827
H -12.2232 -12.394 7.60707
H -11.9021 -13.7283 8.4922
O -9.70135 11.8826 -11.3921
H -10.6694 12.1263 -11.4518
H -9.34504 11.7054 -12.3096
O 8.95791 -12.3802 -10.8782
H 8.37295 -12.1633 -11.6597
H 9.50183 -13.1936 -11.0845
O -3.97047 13.391 -7.016
H -4.63367 13.2135 -7.74314
H -3.69323 12.5253 -6.59917
O 0.935196 6.87065 -7.59802
H 0.752016 6.63992 -8.55367
H 0.861292 7.86019 -7.47397
O 6.99486 1.9442 0.723572
H 6.80361 2.27954 1.64608
H 6.20546 2.119 0.135055
O -4.7786 14.6918 6.71487
H -4.60971 -14.7605 5.82593
H -3.91596 14.6085 7.21383
O 8.73002 -0.27359 -2.04371
H 8.43105 -0.566838 -1.1356
H 9.70639 -0.0587122 -2.01994
O 6.90205 -11.7265 5.77581
H 7.50879 -11.8569 4.99164
H 6.16391 -12.4003 5.74181
O -14.8904 13.2975 11.4771
H -14.0258 13.6042 11.8752
H 14.9103 12.3051 11.5727
O -14.3927 7.07048 -14.1117
H -13.9714 6.92557 14.8711
H -14.9216 7.9191 -14.1257
O -14.4382 2.74135 -2.64921
H -14.0961 1.83024 -2.87907
H -14.7273 3.20933 -3.48435
O 3.91457 -5.4953 -0.805435
H 3.66296 -6.35215 -1.25548
H 3.37542 -5.38663 0.0297621
O -7.29853 -0.87799 -1.58573
H -7.75135 -0.401488 -2.33936
H -7.64025 -1.81624 -1.53135
O -10.8503 -1.66872 4.66447
H -11.7733 -2.0264 4.52279
H -10.8206 -0.706312 4.3944
O 1.56104 -2.08736 -3.69198
H 2.4864 -2.14138 -3.31668
H 1.59499 -1.6819 -4.60549
O -11.483 10.3312 5.08709
H -12.0451 11.1148 5.35178
H -10.6433 10.6554 4.65148
O -12.772 6.25462 13.5904
H -12.8367 5.27255 13.7676
H -12.7209 6.41274 12.6043
O 12.7033 0.965369 13.4108
H 11.9088 1.57024 13.3563
H 13.5355 1.49164 13.2361
O -0.155272 -7.65713 -1.6045
H 0.211967 -7.17945 -2.40263
H -1.08816 -7.96099 -1.79797
O -6.56999 7.86127 -8.15354
H -6.30794 8.81108 -7.98256
H -6.34164 7.30366 -7.35543
O 6.1193 8.79194 -11.1643
H 5.66456 9.6671 -10.9989
H 6.46848 8.42917 -10.3003
O -10.8182 6.54209 -6.07276
H -10.6983 5.57468 -6.29587
H -10.8591 6.65255 -5.07969
O 5.22196 -3.30868 2.48264
H 6.13623 -3.2738 2.88631
H 5.0603 -4.21906 2.10169
O -6.83824 -12.0882 -14.1513
H -7.24736 -11.9302 -13.2526
H -5.9614 -11.6106 -14.207
O -9.42787 3.01302 12.8296
H -9.71983 2.35742 13.526
H -9.20915 3.88639 13.2648
O -11.6904 2.34323 -0.205303
H -12.4594 2.33072 -0.844495
H -11.6525 1.47396 0.287622
O 2.3216 -0.134103 3.80963
H 2.13468 -1.11515 3.75803
H 2.74083 0.170772 2.95444
O -10.8891 -5.35368 10.4342
H -11.152 -4.39004 10.482
H -11.1446 -5.72506 9.54154
O 11.6618 -2.78748 3.55457
H 12.6269 -2.84485 3.29904
H 11.5615 -2.99649 4.52736
O -14.2114 -11.6488 10.8368
H -14.1182 -12.1463 11.6993
H -14.2262 -12.2988 10.077
O -3.80239 -11.4272 11.0049
H -4.27394 -10.8711 10.3204
H -4.35285 -12.2353 11.2146
O -5.62012 7.78657 12.1543
H -6.6201 7.79114 12.162
H -5.28632 8.62125 11.7162
O -9.89111 3.82888 -6.55694
H -8.92665 3.759 -6.30205
H -10.3152 2.92455 -6.50803
O -9.17335 -0.93987 -8.03493
H -9.45383 0.0200065 -8.03915
H -9.05898 -1.24957 -7.09097
O 10.3083 -1.45742 -11.6507
H 10.6496 -0.528085 -11.7918
H 9.31591 -1.47026 -11.7731
O 8.00389 -11.7187 -5.17245
H 8.67889 -11.1234 -5.60832
H 7.65602 -12.3747 -5.84235
O 10.0979 -3.50926 -1.5435
H 9.27622 -3.11344 -1.13344
H 10.8263 -3.54817 -0.859336
O -2.90088 6.4694 -10.5212
H -3.74934 6.97031 -10.3502
H -3.00945 5.51972 -10.2273
O -2.95679 6.83943 11.5606
H -2.61638 6.07527 12.1086
H -3.88244 7.07542 11.8565
O -10.2303 -13.9339 0.109462
H -9.3121 -14.2671 0.324102
H -10.5322 -13.3044 0.825368
O -8.96859 11.8218 -14.3459
H -9.17497 10.94 -14.77
H -7.97869 11.9634 -14.3362
O -5.66813 -14.7909 -4.11286
H -6.0823 14.298 -4.56636
H -4.99119 -14.3748 -4.72008
O -7.17906 -7.08493 -13.5532
H -7.8548 -7.69518 -13.1397
H -7.62549 -6.23588 -13.8359
O -6.44311 14.5187 -12.7997
H -6.25131 13.6039 -13.1552
H -5.89208 -14.6873 -13.2944
O 7.7115 14.1765 -12.5267
H 8.5254 14.5995 -12.1284
H 7.72822 13.192 -12.3522
O -1.51923 11.3769 -14.5015
H -1.73727 12.352 -14.4597
H -0.715249 11.2396 14.798
O 0.392252 8.62816 8.6753
H 0.782646 9.08868 9.47252
H -0.566554 8.89343 8.57347
O 10.2161 -12.1272 -0.355334
H 10.6468 -12.7198 -1.03606
H 9.93013 -11.2732 -0.790016
O 2.29964 -12.5161 3.1967
H 3.18522 -12.8767 2.90374
H 1.60944 -12.7236 2.50343
O -0.025075 0.968105 -5.36782
H 0.816273 0.448461 -5.51666
H -0.672478 0.412055 -4.84655
O 0.423109 -2.92931 -10.1429
H 0.326952 -2.25444 -10.8746
H 1.29875 -2.79534 -9.67889
O -11.9991 0.185019 1.55944
H -11.7555 -0.67794 1.1167
H -11.8916 0.0936732 2.54947
O -11.3232 7.89426 -12.0158
H -11.1925 7.72051 -12.9919
H -12.0692 8.54836 -11.8907
O 2.62454 7.15047 13.8369
H 3.16553 7.04748 13.0022
H 2.61767 6.28537 14.3385
O 5.55269 -3.14314 12.9812
H 5.65582 -3.50849 12.0561
H 5.85378 -2.18967 12.9986
O -12.2451 8.69581 -0.599237
H -12.9433 9.40472 -0.499795
H -11.8554 8.73843 -1.51926
O 3.81249 7.24484 5.75213
H 2.83224 7.42357 5.66722
H 4.28702 8.0935 5.98589
O -3.85753 2.87274 -0.612143
H -4.65632 2.30758 -0.818513
H -3.72881 2.91887 0.378488
O 13.036 8.66576 8.57287
H 13.7433 9.34007 8.36056
H 12.1627 9.132 8.7144
O 6.92955 -14.7727 14.8618
H 6.85695 -13.8356 -14.6747
H 7.20573 14.4992 -14.2704
O 2.24733 8.89116 -2.6395
H 2.29975 9.73005 -2.09769
H 3.04747 8.82916 -3.23614
O 12.8271 11.3805 4.30792
H 12.7255 10.3886 4.23127
H 12.776 11.7921 3.39796
O -9.20034 -14.2472 5.96868
H -9.18626 -13.259 6.1214
H -9.57053 -14.4388 5.05966
O -4.66425 -0.861433 -11.6921
H -5.28421 -1.48629 -11.2175
H -3.7693 -1.29526 -11.7966
O -5.04087 5.48601 -0.943793
H -4.37387 4.76256 -0.765495
H -4.56075 6.3405 -1.14223
O 3.76216 -13.7594 -8.86828
H 3.53534 -13.5596 -9.82152
H 3.18786 -14.509 -8.53909
O -3.44794 -8.26118 9.48314
H -4.26133 -8.66872 9.06799
H -3.70987 -7.76171 10.309
O -9.31269 -4.46217 13.4583
H -8.78862 -4.66667 14.2851
H -8.98707 -5.03599 12.7068
O -14.4732 4.80371 -12.4847
H 14.6635 4.2917 -12.9185
H -14.3056 5.64604 -12.997
O 8.89739 -3.99016 11.9278
H 8.03146 -4.16018 11.4574
H 9.46983 -4.80865 11.8785
O 14.2327 -11.675 5.17661
H 14.0801 -12.6633 5.18188
H 14.009 -11.308 4.27369
O -10.7795 6.52096 -3.3219
H -9.99821 6.30454 -2.7364
H -11.0372 7.47862 -3.19336
O -12.1303 13.0393 -11.0528
H -12.2521 13.7001 -11.7934
H -12.8732 13.1397 -10.3909
O -2.5987 -3.28702 -1.40462
H -1.96566 -3.61065 -2.10788
H -2.12065 -2.66116 -0.788333
O -0.315824 -8.30146 12.8285
H -1.19321 -8.74639 12.6489
H -0.338061 -7.366 12.4757
O -3.90001 5.66446 -14.6507
H -3.10369 6.25873 -14.7637
H -3.92364 5.31309 -13.7148
O -12.5889 -0.230871 13.0226
H -11.8609 0.325793 13.4229
H -12.4874 -1.17903 13.3238
O 4.59652 4.96973 4.30753
H 3.82455 4.43833 3.95862
H 4.25561 5.78606 4.77383
O -4.46647 -4.19074 14.2791
H -3.47535 -4.06703 14.3283
H -4.69161 -5.1498 14.4511
O -2.81609 -0.902699 -6.40525
H -2.14746 -0.665296 -7.10997
H -2.49754 -1.70493 -5.90027
O -9.44623 0.391313 -0.245728
H -9.91915 1.17027 0.166126
H -8.89726 0.706098 -1.02007
O 9.37129 -7.90675 11.3013
H 9.36582 -8.22124 12.2506
H 9.97575 -7.11465 11.2161
O 9.54459 7.66447 -11.3167
H 9.33051 7.05051 -12.0765
H 9.18477 7.2805 -10.4664
O 10.7877 14.5653 9.41348
H 10.2648 -14.5285 9.07946
H 10.3778 13.7205 9.06942
O -6.13621 1.59154 -2.31244
H -6.86688 2.06151 -1.81716
H -5.99188 0.686047 -1.91333
O -11.0466 4.2088 3.61733
H -11.5168 4.97646 3.18189
H -11.4693 4.01818 4.50333
O -1.3702 -14.3644 2.46583
H -0.834865 -13.6095 2.08687
H -1.16863 -14.4595 3.4407
O 8.35278 -1.25941 -13.6776
H 7.54212 -1.32829 -14.259
H 9.03014 -1.93508 -13.9686
O -7.37622 3.90954 3.40091
H -7.55116 4.86835 3.62478
H -8.05445 3.59301 2.73768
O -11.1807 -3.05365 -2.74956
H -10.6772 -3.90248 -2.91086
H -11.3168 -2.5767 -3.61792
O 6.63912 2.99035 11.737
H 6.63695 3.31328 10.7906
H 5.71117 3.03614 12.107
O -4.40516 -6.00019 5.7661
H -5.21785 -5.48448 5.49475
H -4.59926 -6.97982 5.71402
O -11.5894 -9.22963 -6.34421
H -11.5868 -9.67055 -5.44664
H -10.9055 -9.66349 -6.93071
O -5.02592 -5.87458 -12.4168
H -5.34217 -4.98762 -12.0801
H -5.77961 -6.34481 -12.876
O 1.51909 14.5318 -7.70465
H 0.814001 14.2695 -7.0458
H 2.07354 13.7323 -7.93556
O 0.957843 -1.56099 -6.34793
H 1.35278 -1.78911 -7.23789
H 0.427815 -2.33845 -6.00931
O -11.7272 7.25364 5.33212
H -12.397 6.91876 4.6693
H -11.5862 8.2344 5.19698
O -11.8419 -3.08529 -10.0829
H -11.9311 -3.47808 -9.16762
H -11.6134 -2.11458 -10.0083
O 0.970456 9.49199 -6.77724
H 0.749907 9.77807 -5.84473
H 1.91223 9.1572 -6.80925
O -1.66236 4.90803 3.36307
H -2.59918 4.70384 3.64721
H -1.26774 5.58877 3.98026
O -10.3258 -12.0727 2.04774
H -11.2386 -12.0203 2.45289
H -9.63819 -11.8907 2.75066
O 13.3139 2.11308 -6.03309
H 13.3691 2.84088 -5.34949
H 13.0748 2.5069 -6.92066
O -0.333943 5.75052 7.18692
H 0.0557494 6.18772 7.9975
H 0.0272287 4.82178 7.10299
O -8.50146 7.41854 12.438
H -8.95356 7.1394 11.5908
H -8.61342 6.70255 13.1271
O 7.10456 -7.68367 7.79057
H 6.2411 -8.01978 7.41438
H 7.19474 -7.9858 8.73958
O 13.5375 7.98466 11.5461
H 14.0387 8.82519 11.7519
H 13.1782 8.03064 10.6139
O 10.939 -4.89479 -5.93635
H 10.6184 -5.19994 -5.03962
H 11.6466 -5.5191 -6.26751
O 10.6308 -4.03814 -12.6976
H 10.6128 -3.07807 -12.4183
H 10.6424 -4.09472 -13.696
O -1.2142 12.8989 5.63173
H -0.807493 13.199 4.76884
H -2.12187 12.5171 5.45742
O -5.76578 -9.35969 13.1009
H -6.29631 -10.1926 12.9432
H -6.17557 -8.60216 12.5927
O 5.33404 -9.57825 6.29191
H 4.7815 -9.50329 5.46177
H 6.04215 -10.2719 6.15949
O 8.80741 8.68332 10.7142
H 8.10943 8.11045 11.144
H 8.5919 9.64686 10.873
O -5.44943 2.86958 12.2123
H -5.31461 3.72915 12.7053
H -6.02888 3.03085 11.4134
O -7.89048 2.98782 -1.00528
H -8.63841 3.26206 -1.60979
H -7.82184 3.6344 -0.245492
O 14.23 -8.07213 14.158
H 14.1453 -8.66747 13.359
H 14.0318 -8.59595 -14.8916
O -12.7233 14.5028 -13.4872
H -13.5433 14.0366 -13.8194
H -12.9561 -14.4395 -13.2226
O 0.74121 6.28852 9.6706
H 0.473753 7.22779 9.45545
H 1.73873 6.21782 9.67121
O -6.03629 -2.6564 -13.639
H -5.39505 -3.12466 -14.247
H -5.53393 -2.02869 -13.0443
O 8.38588 1.2302 11.701
H 9.26638 1.62797 11.959
H 7.66763 1.91923 11.798
O 6.35494 -10.3374 -8.4549
H 6.8343 -9.91504 -7.68555
H 6.17385 -11.2988 -8.2476
O 13.0911 9.9189 0.378665
H 12.2993 10.4885 0.599491
H 12.8557 9.29564 -0.367129
O -14.026 -3.14778 8.57825
H -14.5762 -2.32777 8.42061
H -14.5916 -3.85106 9.00894
O 13.6155 -5.97851 5.84662
H 13.0453 -5.40022 6.43009
H 14.2001 -5.40221 5.27546
O -6.27475 -3.55775 6.59864
H -5.9681 -4.00201 7.44046
H -5.48706 -3.1682 6.12132
O -13.4041 -5.41297 -3.15394
H -12.4733 -5.05845 -3.06512
H -13.793 -5.56011 -2.24443
O 7.55871 -1.35033 -11.1025
H 7.52227 -1.26682 -12.0983
H 6.62919 -1.34911 -10.7337
O 14.3973 3.19993 11.7028
H 14.6045 4.00354 11.1448
H -14.8395 2.46552 11.4807
O -11.5748 -7.83382 0.0311064
H -11.0798 -7.21669 0.642833
H -11.8746 -8.63969 0.541751
O 1.18662 9.90514 10.9389
H 2.14963 9.63949 10.8931
H 0.651041 9.15243 11.3218
O 14.9034 -11.0028 7.87032
H 14.494 -11.7343 8.41567
H 14.403 -10.9088 7.0096
O -4.75294 -3.59136 11.3129
H -5.01221 -3.50156 12.2746
H -4.65103 -2.68228 10.9089
O -6.15545 -7.69236 -9.18685
H -6.01116 -7.40341 -8.24042
H -5.27689 -7.93285 -9.59957
O 2.32723 -2.92139 3.69196
H 3.28604 -3.14491 3.51649
H 1.76196 -3.7311 3.5342
O 5.80954 -13.7479 -12.2014