LAMMPS data file via write_data, version 15 May 2015, timestep = 1009000

2593 atoms
6 atom types
1728 bonds
4 bond types
864 angles
3 angle types
0 dihedrals
3 dihedral types
0 impropers
1 improper types

-1.4929951545586100e+01 1.4929951545586100e+01 xlo xhi
-1.4929951545586100e+01 1.4929951545586100e+01 ylo yhi
-1.4929951545586100e+01 1.4929951545586100e+01 zlo zhi

Masses

1 15.9994
2 1.00794
3 12.0107
4 1.00794
5 12.0107
6 12.0107

Bond Coeffs # harmonic

1 1000 1
2 469 1.4
3 367 1.08
4 469 0.7

Angle Coeffs # harmonic

1 100 109.47
2 35 120
3 63 120

Dihedral Coeffs # opls

1 0 7.25 0 0
2 0 7.25 0 0
3 0 7.25 0 0

Improper Coeffs # cvff

1 2.5 -1 2

Atoms # full

2448 816 2 4.0999999999999998e-01 -1.2098949370937287e+01 -1.0283774900035079e+01 -1.1836343166299976e+01 2 0 1
2446 816 1 -8.1999999999999995e-01 -1.1198854853915943e+01 -1.0710199122992073e+01 -1.1747282427783269e+01 2 0 1
952 318 1 -8.1999999999999995e-01 -6.8099903787564475e+00 -1.2375804290080774e+01 -1.3615473974619871e+01 2 -1 0
392 131 2 4.0999999999999998e-01 -8.1726423167231914e+00 -9.3090988311604619e+00 -1.2984933967964315e+01 1 1 1
391 131 1 -8.1999999999999995e-01 -7.4990399267717249e+00 -9.7395838431709709e+00 -1.3585668534211740e+01 1 1 1
393 131 2 4.0999999999999998e-01 -6.7630679844100410e+00 -9.0910912459420921e+00 -1.3779942310481392e+01 1 1 1
751 251 1 -8.1999999999999995e-01 -1.0005565275885180e+01 -8.3481455385124299e+00 -1.2545766966622148e+01 1 -2 1
1938 646 2 4.0999999999999998e-01 -5.1351007595325253e+00 -6.4898932839017949e+00 -1.1556675746631276e+01 0 0 0
953 318 2 4.0999999999999998e-01 -7.0402782025372739e+00 -1.1415432565656191e+01 -1.3772296293659357e+01 2 -1 0
1230 410 2 4.0999999999999998e-01 -1.4744431000405225e+01 -9.3892476816001746e-01 -1.0697701685489648e+01 1 0 0
373 125 1 -8.1999999999999995e-01 -8.8891623972743297e+00 -1.2724038019585469e+01 -1.0556158577530081e+01 1 1 -2
1755 585 2 4.0999999999999998e-01 -5.8770130915093812e+00 -1.2468487674830653e+01 -1.2296343949781598e+01 1 -2 4
954 318 2 4.0999999999999998e-01 -7.4444077618678008e+00 -1.2958000669630890e+01 -1.4123904402077052e+01 2 -1 0
137 46 2 4.0999999999999998e-01 -6.5041257925334293e+00 -5.3703681024659637e+00 -1.4638331022259482e+01 -1 0 0
2447 816 2 4.0999999999999998e-01 -1.0496083312289844e+01 -1.0075480469861535e+01 -1.2068505013082785e+01 2 0 1
1356 452 2 4.0999999999999998e-01 -1.1261161475316840e+01 -1.0653872918086753e+01 -9.2215519859643145e+00 -2 1 2
976 326 1 -8.1999999999999995e-01 -1.3788000308745989e+01 -9.6884193696902692e+00 -1.1723953864280832e+01 1 0 1
1354 452 1 -8.1999999999999995e-01 -1.0507776627028461e+01 -1.1118935510808116e+01 -8.7567212661666041e+00 -2 1 2
2273 758 2 4.0999999999999998e-01 -1.1565948494174471e+01 -1.2975376435424739e+01 -1.3157667705073454e+01 1 1 0
375 125 2 4.0999999999999998e-01 -9.4768861112898595e+00 -1.3259378288153716e+01 -1.1162731873561366e+01 1 1 -2
435 145 2 4.0999999999999998e-01 -1.1527720434299054e+01 -1.2306807009019641e+01 -1.1458069639214727e+01 -1 -1 0
433 145 1 -8.1999999999999995e-01 -1.1768179047048715e+01 -1.3266323594979763e+01 -1.1604517971753078e+01 -1 -1 0
2272 758 1 -8.1999999999999995e-01 -1.1151658189896247e+01 -1.3066160754401960e+01 -1.4063240070050748e+01 1 1 0
191 64 2 4.0999999999999998e-01 -7.6282509005344865e+00 -1.3571079481866830e+01 -9.3950618338617815e+00 2 -1 0
1117 373 1 -8.1999999999999995e-01 -1.3464920918802578e+01 -4.6148354026012424e+00 -8.2399927793243819e+00 -1 1 0
374 125 2 4.0999999999999998e-01 -9.4558399564133637e+00 -1.2194702329146647e+01 -9.9247951181704757e+00 1 1 -2
1316 439 2 4.0999999999999998e-01 -1.4787910797600903e+01 -1.3505231676145360e+01 -1.0152446672078380e+01 0 0 0
2427 809 2 4.0999999999999998e-01 -6.1489478960403918e+00 -4.4923296041366783e+00 -7.6874590429779461e+00 -1 1 2
1825 609 1 -8.1999999999999995e-01 -6.5907248790171078e+00 -1.0908406843398732e+01 -9.8802124765841661e+00 1 -1 -2
192 64 2 4.0999999999999998e-01 -6.9503366561230049e+00 -1.3623774396240631e+01 -7.9104336282753351e+00 2 -1 0
190 64 1 -8.1999999999999995e-01 -7.1732815028080932e+00 -1.4158277036297559e+01 -8.7256281409462737e+00 2 -1 0
434 145 2 4.0999999999999998e-01 -1.2746687355971613e+01 -1.3393238056612088e+01 -1.1442179579557212e+01 -1 -1 0
752 251 2 4.0999999999999998e-01 -9.8724654802610612e+00 -7.6970171217515784e+00 -1.3292932188939387e+01 1 -2 1
753 251 2 4.0999999999999998e-01 -1.0732102556566588e+01 -8.0192658379130837e+00 -1.1942508031964030e+01 1 -2 1
977 326 2 4.0999999999999998e-01 -1.3841938537943106e+01 -9.4411354487795709e+00 -1.0756544484503998e+01 1 0 1
2274 758 2 4.0999999999999998e-01 -1.1212892043185548e+01 -1.4017896224747080e+01 -1.4363888617290121e+01 1 1 0
1754 585 2 4.0999999999999998e-01 -5.5927088877560784e+00 -1.2102218925884900e+01 -1.0730622505906144e+01 1 -2 4
1073 358 2 4.0999999999999998e-01 -6.3851666387182657e+00 -1.2734815505817920e-01 -8.0066645310042190e+00 -1 -1 1
2480 827 2 4.0999999999999998e-01 -1.4865297345353515e+01 -6.3583072308044368e+00 -1.2986898983324728e+01 1 -1 -1
791 264 2 4.0999999999999998e-01 -1.3077553750573816e+01 -7.2525545383673471e+00 -1.4286357634928159e+01 0 3 1
1582 528 1 -8.1999999999999995e-01 -7.0886237897027158e+00 -2.1770186572654691e+00 -7.6594337459205368e+00 -1 0 0
978 326 2 4.0999999999999998e-01 -1.4602503211180906e+01 -1.0208494370765457e+01 -1.1980949199057005e+01 1 0 1
1826 609 2 4.0999999999999998e-01 -7.3461241630892173e+00 -1.1056379866595137e+01 -1.0518503525654857e+01 1 -1 -2
59 20 2 4.0999999999999998e-01 -9.3037047854341388e+00 -8.7398278144698160e-01 -1.1167657849039081e+01 -1 0 0
1992 664 2 4.0999999999999998e-01 -1.0303813348619581e+01 -1.5693459192581241e+00 -1.3259654930949456e+01 1 0 1
1827 609 2 4.0999999999999998e-01 -6.9041452427565151e+00 -1.1082593557395697e+01 -8.9467424807270728e+00 1 -1 -2
1315 439 1 -8.1999999999999995e-01 -1.4224566909927535e+01 -1.2787181655852420e+01 -1.0561087550471900e+01 0 0 0
1991 664 2 4.0999999999999998e-01 -1.0951580435379602e+01 -1.2933339698048787e+00 -1.4732977863296995e+01 1 0 1
1118 373 2 4.0999999999999998e-01 -1.4392400030206117e+01 -4.9853256919554099e+00 -8.1904047751073783e+00 -1 1 0
58 20 1 -8.1999999999999995e-01 -9.7337873146766789e+00 -1.7379734633327288e+00 -1.1429361212440831e+01 -1 0 0
1990 664 1 -8.1999999999999995e-01 -1.0268933420938117e+01 -1.8204669088640646e+00 -1.4226950735010501e+01 1 0 1
1852 618 1 -8.1999999999999995e-01 -5.9866695518831321e+00 -3.6223213230551448e+00 -1.4385847045038146e+01 1 -2 2
1584 528 2 4.0999999999999998e-01 -8.0498162482217257e+00 -2.4524360693666143e+00 -7.6733569549675584e+00 -1 0 0
1245 415 2 4.0999999999999998e-01 -5.0748553481017282e+00 -1.1683368525616963e+01 -1.4152046278024613e+01 -1 1 2
792 264 2 4.0999999999999998e-01 -1.2742147384835594e+01 -7.1897424908581735e+00 -1.2689478619587257e+01 0 3 1
1936 646 1 -8.1999999999999995e-01 -5.7828797635786096e+00 -7.0695851727389423e+00 -1.1062429595421111e+01 0 0 0
1719 573 2 4.0999999999999998e-01 -1.1860985148614649e+01 -1.4167004565617862e+01 -7.8283066165481010e+00 0 2 2
138 46 2 4.0999999999999998e-01 -6.1261594906713022e+00 -6.9234447429085595e+00 -1.4304325348279599e+01 -1 0 0
790 264 1 -8.1999999999999995e-01 -1.3107787176459194e+01 -6.6791761764999134e+00 -1.3467661867442271e+01 0 3 1
1433 478 2 4.0999999999999998e-01 -5.0852077752388123e+00 -8.9706966757092523e+00 -1.4849889614487955e+01 1 0 1
1177 393 1 -8.1999999999999995e-01 -1.4117049309581443e+01 -8.4482444819266185e+00 -9.2961719327064145e+00 1 0 -1
1436 479 2 4.0999999999999998e-01 -1.3558235528932487e+01 -3.3641259680479987e+00 -1.1467716935868580e+01 -1 0 1
136 46 1 -8.1999999999999995e-01 -6.8030824117391173e+00 -6.3205243402397606e+00 -1.4726465103628383e+01 -1 0 0
423 141 2 4.0999999999999998e-01 -8.3657503698254452e+00 -5.8858830728657630e+00 -8.6671912415527714e+00 0 0 1
817 273 1 -8.1999999999999995e-01 -1.4027853504929560e+01 -2.1865643973478637e+00 -1.4859349935837356e+01 0 0 1
1317 439 2 4.0999999999999998e-01 -1.4483704399192973e+01 -1.1901072820924048e+01 -1.0176902143746469e+01 0 0 0
421 141 1 -8.1999999999999995e-01 -8.8138991076232429e+00 -6.2252137322543213e+00 -7.8401743012474236e+00 0 0 1
1178 393 2 4.0999999999999998e-01 -1.4927813810856785e+01 -7.9123296325415531e+00 -9.0608089444227531e+00 1 0 -1
1213 405 1 -8.1999999999999995e-01 -1.1870197261219854e+01 -7.3245730208843529e+00 -1.0445744756766690e+01 0 0 1
2065 689 1 -8.1999999999999995e-01 -1.1762480530480666e+01 -1.3533018590333850e+00 -9.8569220505036821e+00 1 0 2
1671 557 2 4.0999999999999998e-01 -7.3732832079057600e+00 -4.5758754913383388e+00 -1.0561477260295383e+01 -1 1 0
1183 395 1 -8.1999999999999995e-01 -5.8911795237783569e+00 -2.5945198399650824e+00 -1.0137187131431123e+01 -1 2 0
2498 833 2 4.0999999999999998e-01 -8.4392649823936452e+00 -6.5512795824541783e+00 -1.4594995812196117e+01 0 0 0
1670 557 2 4.0999999999999998e-01 -6.9488871926327214e+00 -6.1320285356930722e+00 -1.0307034666292811e+01 -1 1 0
1179 393 2 4.0999999999999998e-01 -1.3828172128674238e+01 -8.9821211451406882e+00 -8.5015240513129307e+00 1 0 -1
2154 718 2 4.0999999999999998e-01 -9.6107049165277640e+00 -5.6092026163466127e+00 -1.3031464348681775e+01 -1 2 1
903 301 2 4.0999999999999998e-01 -1.1653329777899547e+01 -3.8604086877960668e+00 -1.2653435244883774e+01 2 0 0
2152 718 1 -8.1999999999999995e-01 -9.9436332887487779e+00 -5.0083639922106116e+00 -1.2304765498929804e+01 -1 2 1
1437 479 2 4.0999999999999998e-01 -1.3446367528379115e+01 -2.2438048538060382e+00 -1.0284994903563321e+01 -1 0 1
1435 479 1 -8.1999999999999995e-01 -1.4076810742563554e+01 -2.8068219740169411e+00 -1.0819309995650823e+01 -1 0 1
1854 618 2 4.0999999999999998e-01 -5.1303476871089018e+00 -3.2882954199622230e+00 -1.3992046143516925e+01 1 -2 2
1185 395 2 4.0999999999999998e-01 -6.2228072281987998e+00 -2.4553491252780049e+00 -9.2041307900090388e+00 -1 2 0
1184 395 2 4.0999999999999998e-01 -6.6695234593615798e+00 -2.6541436389789084e+00 -1.0762139334250394e+01 -1 2 0
901 301 1 -8.1999999999999995e-01 -1.2618742996937748e+01 -3.9011528856074893e+00 -1.2910839196001593e+01 2 0 0
1214 405 2 4.0999999999999998e-01 -1.1190847879558039e+01 -7.2024302603214716e+00 -9.7222082286289471e+00 0 0 1
51 17 2 4.0999999999999998e-01 -7.1581621250938126e+00 -3.6037740617344838e+00 -1.2945028838857409e+01 1 -1 0
1215 405 2 4.0999999999999998e-01 -1.2744968963582165e+01 -7.5897345511783723e+00 -1.0040277870927245e+01 0 0 1
818 273 2 4.0999999999999998e-01 -1.3546147058267948e+01 -2.6765261983493112e+00 -1.4132826800161180e+01 0 0 1
1119 373 2 4.0999999999999998e-01 -1.3397974856728359e+01 -3.9865657984304637e+00 -9.0150637826978262e+00 -1 1 0
2153 718 2 4.0999999999999998e-01 -1.0408010172231206e+01 -5.5543250965416266e+00 -1.1607470643653711e+01 -1 2 1
902 301 2 4.0999999999999998e-01 -1.2761234899205698e+01 -4.6552881571123805e+00 -1.3551866173343221e+01 2 0 0
2008 670 1 -8.1999999999999995e-01 -9.7044472844865854e+00 -2.6084519723327837e+00 -7.4936161895011644e+00 0 2 1
60 20 2 4.0999999999999998e-01 -9.0267143041470170e+00 -2.4025630259416939e+00 -1.1670831781591778e+01 -1 0 0
50 17 2 4.0999999999999998e-01 -8.5298135657399836e+00 -4.0542713358432394e+00 -1.2182080723788570e+01 1 -1 0
2010 670 2 4.0999999999999998e-01 -9.9978194162298077e+00 -3.1040964506761277e+00 -8.3110566543263271e+00 0 2 1
49 17 1 -8.1999999999999995e-01 -7.7038792804569045e+00 -3.4946567419999077e+00 -1.2114230565505638e+01 1 -1 0
1937 646 2 4.0999999999999998e-01 -5.2980086400608251e+00 -7.8502492909057331e+00 -1.0668217603275330e+01 0 0 0
2497 833 1 -8.1999999999999995e-01 -9.4322768558072916e+00 -6.4752366372524417e+00 -1.4505082117548280e+01 0 0 0
1669 557 1 -8.1999999999999995e-01 -7.5701793717613972e+00 -5.3993240832766958e+00 -1.0029402184421985e+01 -1 1 0
1355 452 2 4.0999999999999998e-01 -1.0160187719926752e+01 -1.0537399201895891e+01 -8.0212370637669039e+00 -2 1 2
2066 689 2 4.0999999999999998e-01 -1.1819393487176416e+01 -3.7115966661117206e-01 -9.6777652144770911e+00 1 0 2
1706 569 2 4.0999999999999998e-01 -1.0903122546576089e+01 -1.4749725069107171e+01 -1.0943928339253628e+01 0 3 2
2067 689 2 4.0999999999999998e-01 -1.1041473573409945e+01 -1.5285938945901556e+00 -1.0527266227762636e+01 1 0 2
1044 348 2 4.0999999999999998e-01 -5.5976169984232040e+00 -5.4252127270146211e-01 -1.0721831410604839e+01 0 0 0
422 141 2 4.0999999999999998e-01 -9.4640131301593193e+00 -5.5414392914781754e+00 -7.5088982428331175e+00 0 0 1
224 75 2 4.0999999999999998e-01 -5.3519642607127835e+00 -9.6868450223271658e+00 -9.9339263906422346e+00 -1 1 1
1753 585 1 -8.1999999999999995e-01 -5.2933674568640772e+00 -1.2657320769973280e+01 -1.1506635516138312e+01 1 -2 4
1718 573 2 4.0999999999999998e-01 -1.0928264351636130e+01 -1.2827995782535430e+01 -7.7687020446203823e+00 0 2 2
1432 478 1 -8.1999999999999995e-01 -5.2104493198384674e+00 -8.3112421698724539e+00 -1.4108692043353553e+01 1 0 1
2561 854 2 4.0999999999999998e-01 -8.9070902789660984e+00 -1.4267334281896355e+01 -1.4466021035603655e+01 2 0 1
1127 376 2 4.0999999999999998e-01 -9.5855564231199040e+00 -6.7205809918959147e-01 -7.5714366061944034e+00 0 -1 3
1853 618 2 4.0999999999999998e-01 -6.4419531510769605e+00 -2.8776475428970461e+00 -1.4873819766965099e+01 1 -2 2
569 190 2 4.0999999999999998e-01 -7.0896684269814072e+00 -1.1262719329444817e+01 -6.4105727750490633e+00 0 -2 1
1682 561 2 4.0999999999999998e-01 -9.7518628578233688e+00 -8.7102261925367888e+00 -6.0278936680057207e+00 2 0 0
1681 561 1 -8.1999999999999995e-01 -9.4317805398812489e+00 -8.9425108582368456e+00 -6.9463329324642977e+00 2 0 0
568 190 1 -8.1999999999999995e-01 -6.7209235073093581e+00 -1.1804193708962416e+01 -7.1660674778328062e+00 0 -2 1
397 133 1 -8.1999999999999995e-01 -9.4086315526279698e+00 -8.2358303352382656e+00 -4.1059043667898187e+00 0 1 -1
1689 563 2 4.0999999999999998e-01 -1.2448907873565229e+01 -7.1854887354697592e+00 -4.7151204707676957e+00 0 0 1
399 133 2 4.0999999999999998e-01 -9.6813466534095163e+00 -9.1913025813796452e+00 -3.9934819815399365e+00 0 1 -1
603 201 2 4.0999999999999998e-01 -1.2339035766269060e+01 -1.3583601367939425e+01 -1.4164862337469231e-01 0 1 0
398 133 2 4.0999999999999998e-01 -8.5470750886386959e+00 -8.0762182803405782e+00 -3.6240496121733194e+00 0 1 -1
1687 563 1 -8.1999999999999995e-01 -1.1568765780213289e+01 -6.7172722262697171e+00 -4.7929841447946195e+00 0 0 1
1688 563 2 4.0999999999999998e-01 -1.0865606358133256e+01 -7.2486655829392150e+00 -4.3206204289227657e+00 0 0 1
2178 726 2 4.0999999999999998e-01 -6.2550296425719338e+00 -7.3921606942210900e+00 -2.7864779126760677e+00 -1 -1 0
343 115 1 -8.1999999999999995e-01 -5.7935373251548441e+00 -1.0305270659071413e+01 -4.6581317736255361e+00 0 -1 1
2235 745 2 4.0999999999999998e-01 -1.1593141789223202e+01 -1.0778524323099855e+01 -3.9338581874478322e+00 0 1 -1
345 115 2 4.0999999999999998e-01 -6.2955032354365006e+00 -9.6296890649740234e+00 -4.1181694784543943e+00 0 -1 1
2009 670 2 4.0999999999999998e-01 -1.0435843321937883e+01 -2.6273010078085424e+00 -6.8119680942472751e+00 0 2 1
2176 726 1 -8.1999999999999995e-01 -7.0018354065815469e+00 -7.9162552345974389e+00 -2.3771545716264431e+00 -1 -1 0
2234 745 2 4.0999999999999998e-01 -1.2141799582660495e+01 -1.1655732009365146e+01 -5.1971659703724136e+00 0 1 -1
1879 627 1 -8.1999999999999995e-01 -1.1266820418489610e+01 -1.4527877755457496e+01 -4.6250201722896467e+00 2 2 0
2177 726 2 4.0999999999999998e-01 -7.3662658943303025e+00 -7.4183307240386105e+00 -1.5902612266440581e+00 -1 -1 0
2233 745 1 -8.1999999999999995e-01 -1.2243498697974998e+01 -1.0798054207945249e+01 -4.6931961101695432e+00 0 1 -1
1326 442 2 4.0999999999999998e-01 -9.1913893580774815e+00 -1.8851578494994747e-01 -3.6285657457810743e+00 0 -1 3
739 247 1 -8.1999999999999995e-01 -1.2375279502693200e+01 -5.8984695089523775e-01 -5.8914584188020349e+00 -1 4 1
1288 430 1 -8.1999999999999995e-01 -1.4779514640952453e+01 -3.6982266664315642e+00 -9.4120529750544790e-01 0 1 -1
570 190 2 4.0999999999999998e-01 -5.7219213080863121e+00 -1.1800551652598973e+01 -7.1222394789833183e+00 0 -2 1
2213 738 2 4.0999999999999998e-01 -5.7511620782787869e+00 -1.1947865446826171e+01 -3.7202114096747554e+00 0 1 2
1306 436 1 -8.1999999999999995e-01 -1.0050330022948170e+01 -1.0857683253456578e+01 -2.7917668707879724e+00 3 -1 0
1307 436 2 4.0999999999999998e-01 -9.7069652941937292e+00 -1.1754180763830544e+01 -3.0716461635017644e+00 3 -1 0
2212 738 1 -8.1999999999999995e-01 -5.7683849611148261e+00 -1.2818913011053596e+01 -3.2293763538895934e+00 0 1 2
1717 573 1 -8.1999999999999995e-01 -1.1516123494057107e+01 -1.3437850629764997e+01 -7.2372528597151051e+00 0 2 2
1013 338 2 4.0999999999999998e-01 -1.3395736708287082e+01 -1.0413810447839500e+01 -7.2011971292984533e+00 1 3 1
741 247 2 4.0999999999999998e-01 -1.1526777152275582e+01 -3.5039385141568857e-01 -6.3633117143460449e+00 -1 4 1
602 201 2 4.0999999999999998e-01 -1.2045929988709100e+01 -1.3881989490349580e+01 -1.7201031926827817e+00 0 1 0
960 320 2 4.0999999999999998e-01 -5.0198214909493633e+00 -4.9837675544576054e+00 -5.5635199020325565e+00 -1 -2 0
2426 809 2 4.0999999999999998e-01 -6.8015839753099865e+00 -5.8680449528121699e+00 -7.0975957857655541e+00 -1 1 2
1583 528 2 4.0999999999999998e-01 -6.7907059453886056e+00 -2.0544550850028731e+00 -6.7127750322643251e+00 -1 0 0
1386 462 2 4.0999999999999998e-01 -1.4519876324237343e+01 -1.2734276732702977e+01 -6.9693306590435569e+00 -1 0 -2
2506 836 1 -8.1999999999999995e-01 -1.4159649842650021e+01 -9.8985749085142594e+00 -2.8676979283795756e+00 0 2 0
2507 836 2 4.0999999999999998e-01 -1.3750468081265065e+01 -1.0069211329409695e+01 -3.7640198749939575e+00 0 2 0
2214 738 2 4.0999999999999998e-01 -5.1138087150441134e+00 -1.2788846529759507e+01 -2.4740185093962417e+00 0 1 2
1880 627 2 4.0999999999999998e-01 -1.1227872668918451e+01 -1.4313417966383808e+01 -5.6009451721982089e+00 2 2 0
1308 436 2 4.0999999999999998e-01 -9.5096482653235448e+00 -1.0519246891118481e+01 -2.0216606280613796e+00 3 -1 0
674 225 2 4.0999999999999998e-01 -5.7453810181336955e+00 -1.4569094189546409e+01 -2.7400823282633109e+00 2 1 1
2546 849 2 4.0999999999999998e-01 -1.1075487754575782e+01 -1.8264172294042655e+00 -5.1286055940505548e-01 2 0 0
1658 553 2 4.0999999999999998e-01 -1.4645572425421895e+01 -7.9439631270742685e+00 -2.6686051928270587e+00 1 1 2
2425 809 1 -8.1999999999999995e-01 -5.9727675087604819e+00 -5.3101645958745802e+00 -7.1396945550134241e+00 -1 1 2
1024 342 1 -8.1999999999999995e-01 -8.9313553171728497e+00 -1.3669739327998094e+01 -3.3125869511965647e+00 2 2 1
1729 577 1 -8.1999999999999995e-01 -1.4515115625692490e+01 -7.4193085105243828e+00 -5.5507119862131216e+00 1 1 0
1014 338 2 4.0999999999999998e-01 -1.2080390488229213e+01 -9.7174352699958675e+00 -6.5293406088525803e+00 1 3 1
601 201 1 -8.1999999999999995e-01 -1.1785738726184594e+01 -1.3323065371346569e+01 -9.3280152374305914e-01 0 1 0
740 247 2 4.0999999999999998e-01 -1.3071942075949142e+01 -8.3882590323696427e-01 -6.5642215999417193e+00 -1 4 1
1989 663 2 4.0999999999999998e-01 -1.3357397590284727e+01 -9.6819360846594957e+00 -8.4261474586132401e-01 1 0 -2
1699 567 1 -8.1999999999999995e-01 -1.1167031061423364e+01 -4.9758598254514279e+00 -6.9052504190677251e+00 2 2 1
1026 342 2 4.0999999999999998e-01 -9.6914095571180425e+00 -1.3972301240081173e+01 -3.8876637952023092e+00 2 2 1
335 112 2 4.0999999999999998e-01 -1.4882202711946183e+01 -3.9424787870263547e+00 -6.7828814024505899e+00 0 -1 1
1012 338 1 -8.1999999999999995e-01 -1.2866742914809477e+01 -9.5683142073349927e+00 -7.1288006333282841e+00 1 3 1
1125 375 2 4.0999999999999998e-01 -5.2441658609843191e+00 -2.1295398545649302e+00 -2.9415399509381324e+00 -1 1 0
311 104 2 4.0999999999999998e-01 -1.3941589434527152e+01 -4.9900658996271314e+00 -5.2632271620472633e+00 1 1 2
2171 724 2 4.0999999999999998e-01 -7.5321308323509157e+00 -3.0824867187396592e+00 -3.8929846335869733e-01 0 -1 0
700 234 1 -8.1999999999999995e-01 -9.0559753543619550e+00 -1.8428714703586255e+00 -3.2488727457254623e+00 -2 2 1
1587 529 2 4.0999999999999998e-01 -1.1781826662164008e+01 -1.7120670671914571e+00 -4.8901207429920159e+00 1 0 0
310 104 1 -8.1999999999999995e-01 -1.3298083995204822e+01 -4.7467875206936032e+00 -4.5375165306278387e+00 1 1 2
1659 553 2 4.0999999999999998e-01 -1.4405133144330403e+01 -6.4434914750459864e+00 -3.2663000366055588e+00 1 1 2
1657 553 1 -8.1999999999999995e-01 -1.4432136124884520e+01 -6.9958341647850038e+00 -2.4331566326321639e+00 1 1 2
16 6 1 -8.1999999999999995e-01 -1.4874208320281770e+01 -1.8222487574918187e+00 -7.3812620994860900e+00 1 1 1
2311 771 1 -8.1999999999999995e-01 -8.0983909362370774e+00 -6.1087109580458083e+00 -1.8858764715521481e-01 2 0 0
1475 492 2 4.0999999999999998e-01 -5.7920528044356043e+00 -9.6493737312885841e-01 -4.4272089812366460e+00 0 -1 0
1124 375 2 4.0999999999999998e-01 -6.3102471619814295e+00 -3.1317153552893782e+00 -2.2165708262130863e+00 -1 1 0
1683 561 2 4.0999999999999998e-01 -9.0081516978912788e+00 -8.1391482231071262e+00 -7.3647664774510453e+00 2 0 0
1123 375 1 -8.1999999999999995e-01 -5.5574789332210717e+00 -3.0766451075618573e+00 -2.8725028395511192e+00 -1 1 0
1701 567 2 4.0999999999999998e-01 -1.1238518456825210e+01 -5.8255787708455742e+00 -6.3829412938392061e+00 2 2 1
2514 838 2 4.0999999999999998e-01 -1.3855627328490895e+01 -6.5132291994112954e+00 -8.1995694502430183e-01 0 0 0
2547 849 2 4.0999999999999998e-01 -1.1631009921778361e+01 -2.1571937180160017e+00 -2.0123428975156266e+00 2 0 0
312 104 2 4.0999999999999998e-01 -1.2468054488907210e+01 -5.2967478057089838e+00 -4.6298976929771420e+00 1 1 2
1476 492 2 4.0999999999999998e-01 -7.4140946551955480e+00 -1.1363400858915540e+00 -4.5050973141436668e+00 0 -1 0
1384 462 1 -8.1999999999999995e-01 -1.3878009067485655e+01 -1.2049974166041554e+01 -7.3152727920183427e+00 -1 0 -2
1730 577 2 4.0999999999999998e-01 -1.3996900401627574e+01 -8.1710633570135158e+00 -5.9584584588278648e+00 1 1 0
1025 342 2 4.0999999999999998e-01 -8.0676795059500179e+00 -1.3828827315714912e+01 -3.7908072243681659e+00 2 2 1
1474 492 1 -8.1999999999999995e-01 -6.5609334949068110e+00 -1.1962802496159330e+00 -5.0232312142763345e+00 0 -1 0
2545 849 1 -8.1999999999999995e-01 -1.1626868515042981e+01 -1.4835339838521460e+00 -1.2733537604682432e+00 2 0 0
2016 672 2 4.0999999999999998e-01 -1.3024656550718049e+01 -3.2928387886152244e-01 -2.2217257609305268e+00 1 1 1
1289 430 2 4.0999999999999998e-01 -1.4701451418291585e+01 -4.5342106947680918e+00 -1.4843225734325163e+00 0 1 -1
1585 529 1 -8.1999999999999995e-01 -1.1601567650385201e+01 -2.3627441737675650e+00 -4.1525127373784585e+00 1 0 0
702 234 2 4.0999999999999998e-01 -9.9347693231746277e+00 -2.2679143224189016e+00 -3.4656659147840561e+00 -2 2 1
2172 724 2 4.0999999999999998e-01 -8.2796429913111531e+00 -4.2847483576188914e+00 -1.2030906856063268e+00 0 -1 0
701 234 2 4.0999999999999998e-01 -8.5113068258275391e+00 -2.4692590088822151e+00 -2.6912757675967782e+00 -2 2 1
2170 724 1 -8.1999999999999995e-01 -8.0209325439632018e+00 -3.3191705811553334e+00 -1.2289372115531467e+00 0 -1 0
1586 529 2 4.0999999999999998e-01 -1.2302751971304390e+01 -3.0756592053098952e+00 -4.1581927445882449e+00 1 0 0
1032 344 2 4.0999999999999998e-01 -1.4228925379354227e+01 -1.4470454444904853e+01 -5.4581141326603770e+00 1 0 0
1700 567 2 4.0999999999999998e-01 -1.2011209678397487e+01 -4.8295642605832985e+00 -7.4209049936359053e+00 2 2 1
2512 838 1 -8.1999999999999995e-01 -1.3241960768811749e+01 -6.4654580388970775e+00 -3.1876461841767068e-02 0 0 0
1385 462 2 4.0999999999999998e-01 -1.2972615418736575e+01 -1.2462591475593630e+01 -7.4150167609983813e+00 -1 0 -2
1761 587 2 4.0999999999999998e-01 -1.0652644231920370e+01 -8.7930081861376426e+00 1.8901346353027790e+00 -1 0 -1
1412 471 2 4.0999999999999998e-01 -1.4033896787350246e+01 -8.9587106526663405e+00 2.0779263076102836e+00 -1 -1 0
1187 396 2 4.0999999999999998e-01 -7.5918368168553751e+00 -9.9391318674947904e+00 3.1863956405139682e+00 -1 1 1
1186 396 1 -8.1999999999999995e-01 -6.7967975922343005e+00 -1.0260813830149615e+01 3.7005676708633359e+00 -1 1 1
1411 471 1 -8.1999999999999995e-01 -1.4233331160964200e+01 -8.2236754005871369e+00 2.7259144590014373e+00 -1 -1 0
1188 396 2 4.0999999999999998e-01 -7.0586277586230555e+00 -1.1045090619063819e+01 4.2629682509972717e+00 -1 1 1
233 78 2 4.0999999999999998e-01 -1.2798905094102498e+01 -1.1405520667084355e+01 3.5228067234171654e+00 0 2 -2
1759 587 1 -8.1999999999999995e-01 -1.0494987521728344e+01 -9.7141768632721970e+00 1.5344210376021898e+00 -1 0 -1
1988 663 2 4.0999999999999998e-01 -1.2162819579681470e+01 -9.8869858814601628e+00 2.5164449570059055e-01 1 0 -2
1080 360 2 4.0999999999999998e-01 -4.9769888362983217e+00 -1.6208785918406825e+00 6.7284306002829481e+00 -1 -1 0
2517 839 2 4.0999999999999998e-01 -1.0394209862961290e+01 -1.3361139670616547e+01 1.4890100913027204e+00 0 0 0
1769 590 2 4.0999999999999998e-01 -1.0494634975786052e+01 -1.0971086759989610e+01 4.4121766673373770e+00 0 0 2
1770 590 2 4.0999999999999998e-01 -1.1006197956505098e+01 -1.0483574786403697e+01 2.9400691127698373e+00 0 0 2
1768 590 1 -8.1999999999999995e-01 -1.1291170465694330e+01 -1.0873901809153363e+01 3.8154976205694275e+00 0 0 2
2328 776 2 4.0999999999999998e-01 -1.2353069508076203e+01 -1.1641081498168971e+01 6.2914654123489697e+00 2 -1 -2
2327 776 2 4.0999999999999998e-01 -1.1607909571374272e+01 -1.2895933893743246e+01 5.5589714557852936e+00 2 -1 -2
2516 839 2 4.0999999999999998e-01 -9.4916070641574173e+00 -1.3305428840105943e+01 1.2935211414263392e-01 0 0 0
67 23 1 -8.1999999999999995e-01 -1.3372014843789774e+01 -9.8137034559998249e+00 6.3957090812067037e+00 -1 1 2
2515 839 1 -8.1999999999999995e-01 -9.5091257602715835e+00 -1.3095530849744303e+01 1.1068875332012134e+00 0 0 0
1987 663 1 -8.1999999999999995e-01 -1.3090991335868765e+01 -9.5424910122703928e+00 1.1107406678674181e-01 1 0 -2
1848 616 2 4.0999999999999998e-01 -5.3220674295831092e+00 -8.7764940400934570e+00 5.8186772935418709e+00 2 1 0
2313 771 2 4.0999999999999998e-01 -9.0347302705624237e+00 -5.8203887082234438e+00 1.1608446559742802e-02 2 0 0
957 319 2 4.0999999999999998e-01 -1.0240801826899064e+01 -8.5831326392656742e+00 6.0285381578513970e+00 0 0 -1
955 319 1 -8.1999999999999995e-01 -9.5481840527102939e+00 -8.8951959068146849e+00 5.3782791950153381e+00 0 0 -1
956 319 2 4.0999999999999998e-01 -8.6660445502203967e+00 -8.9730999962676119e+00 5.8427147926029086e+00 0 0 -1
1840 614 1 -8.1999999999999995e-01 -7.1405721987129374e+00 -4.6931523640701442e+00 5.0351948900938126e+00 1 -2 0
1467 489 2 4.0999999999999998e-01 -6.6691955648673211e+00 -1.2192200237062153e+01 6.5871734994366093e+00 1 2 -1
803 268 2 4.0999999999999998e-01 -9.1630877096401804e+00 -1.3087919748647952e+01 3.0323864318072147e+00 -1 1 -2
1760 587 2 4.0999999999999998e-01 -9.5371678077769761e+00 -9.8070979412939003e+00 1.2626001206026061e+00 -1 0 -1
1413 471 2 4.0999999999999998e-01 -1.4860706465715298e+01 -8.5597119008165823e+00 3.4283525346885924e+00 -1 -1 0
232 78 1 -8.1999999999999995e-01 -1.3579332041663834e+01 -1.1991658071518488e+01 3.3052836277382909e+00 0 2 -2
736 246 1 -8.1999999999999995e-01 -1.1169270162691166e+01 -1.4417116497870971e+01 4.5770132029347756e+00 1 0 -1
234 78 2 4.0999999999999998e-01 -1.4254593880491456e+01 -1.1468324815021580e+01 2.7855882419616513e+00 0 2 -2
286 96 1 -8.1999999999999995e-01 -6.5868017123143776e+00 -1.2828303427133525e+01 5.3567062488883188e-01 0 2 1
2326 776 1 -8.1999999999999995e-01 -1.2108455868897758e+01 -1.2607063463463223e+01 6.3750271146195630e+00 2 -1 -2
68 23 2 4.0999999999999998e-01 -1.2809113059467494e+01 -9.1298569107185799e+00 6.8598588763142416e+00 -1 1 2
1847 616 2 4.0999999999999998e-01 -5.3993674098367759e+00 -9.2192584905641297e+00 4.2488207405720964e+00 2 1 0
1248 416 2 4.0999999999999998e-01 -5.0714282308606382e+00 -1.1984550474490424e+01 1.4213451084240525e+00 0 1 0
1465 489 1 -8.1999999999999995e-01 -6.4351133538100065e+00 -1.2502899420202851e+01 5.6659726070391727e+00 1 2 -1
804 268 2 4.0999999999999998e-01 -9.4707054480056492e+00 -1.3562130234090601e+01 4.5643658955946798e+00 -1 1 -2
1466 489 2 4.0999999999999998e-01 -7.2448161415120600e+00 -1.2897203325112832e+01 5.2314091890810346e+00 1 2 -1
644 215 2 4.0999999999999998e-01 -1.2432024164549206e+01 -2.8944891748380233e+00 1.2711712822557750e+00 0 0 1
266 89 2 4.0999999999999998e-01 -1.4250853277333523e+01 -1.0672165673206706e+01 7.7823716154461486e-01 -2 0 0
802 268 1 -8.1999999999999995e-01 -8.8341163903886226e+00 -1.3063176402443339e+01 3.9763701226103123e+00 -1 1 -2
63 21 2 4.0999999999999998e-01 -1.2663096682310677e+01 -1.3202961234870701e+01 2.4949157126779049e+00 2 0 0
69 23 2 4.0999999999999998e-01 -1.4000018796288417e+01 -9.3566693128684015e+00 5.7658913665206022e+00 -1 1 2
298 100 1 -8.1999999999999995e-01 -7.9640906116678529e+00 -8.3924612093142592e-01 3.1056471847825158e+00 -2 3 3
1065 355 2 4.0999999999999998e-01 -1.4752490045304334e+01 -1.2723057655789557e+01 4.2829404086186180e+00 0 -1 -1
288 96 2 4.0999999999999998e-01 -7.5771642571046431e+00 -1.2801823650616488e+01 6.7139235035292799e-01 0 2 1
635 212 2 4.0999999999999998e-01 -6.5889840269515467e+00 -9.9928097492549206e+00 7.0729172877256090e+00 -1 1 2
634 212 1 -8.1999999999999995e-01 -7.1263299898651784e+00 -9.1744630093100419e+00 6.8691833283332677e+00 -1 1 2
1842 614 2 4.0999999999999998e-01 -7.8844942011792867e+00 -5.2194882844686905e+00 5.4468866500429520e+00 1 -2 0
942 314 2 4.0999999999999998e-01 -1.0023735250686034e+01 -4.5887498189777958e+00 5.4766858107282275e+00 0 1 1
287 96 2 4.0999999999999998e-01 -6.2126469059589624e+00 -1.3647623047138854e+01 9.7002428797661544e-01 0 2 1
794 265 2 4.0999999999999998e-01 -5.1749954847621495e+00 -2.9925659150126549e+00 1.0215194345174385e+00 -1 3 0
2297 766 2 4.0999999999999998e-01 -1.2820426878064101e+01 -4.5599873683468015e+00 6.9073622625346722e+00 1 1 0
2312 771 2 4.0999999999999998e-01 -7.5234242474984443e+00 -5.9554763778060273e+00 6.1507399055244605e-01 2 0 0