LAMMPS data file via write_data, version 15 May 2015, timestep = 18500000

2593 atoms
6 atom types
1728 bonds
4 bond types
864 angles
3 angle types
0 dihedrals
3 dihedral types
0 impropers
1 improper types

-1.4976542009704090e+01 1.4976542009704090e+01 xlo xhi
-1.4976542009704090e+01 1.4976542009704090e+01 ylo yhi
-1.4976542009704090e+01 1.4976542009704090e+01 zlo zhi

Masses

1 15.9994
2 1.00794
3 12.0107
4 1.00794
5 12.0107
6 12.0107

Bond Coeffs # harmonic

1 1000 1
2 469 1.4
3 367 1.08
4 469 0.7

Angle Coeffs # harmonic

1 100 109.47
2 35 120
3 63 120

Dihedral Coeffs # opls

1 0 7.25 0 0
2 0 7.25 0 0
3 0 7.25 0 0

Improper Coeffs # cvff

1 2.5 -1 2

Atoms # full

1242 414 2 4.0999999999999998e-01 -1.3622382831308528e+01 -6.9690820405488267e+00 -1.4098173293425152e+01 -5 3 -6
2200 734 1 -8.1999999999999995e-01 -8.5248535603179327e+00 -1.2568038270960603e+01 -1.0542244304723873e+01 -2 -5 -7
2202 734 2 4.0999999999999998e-01 -7.7658093612701835e+00 -1.3039225120260836e+01 -1.0092918416063295e+01 -2 -5 -7
1115 372 2 4.0999999999999998e-01 -9.0060028445330893e+00 -1.4188555686360889e+01 -1.3280663177514231e+01 -5 -6 6
2395 799 1 -8.1999999999999995e-01 -1.0982344214724755e+01 -1.3449609756810540e+01 -9.6171089922109800e+00 0 -3 -3
847 283 1 -8.1999999999999995e-01 -1.3565893865819929e+01 -1.0214264324190488e+01 -1.0712665166426905e+01 -6 -4 -4
2027 676 2 4.0999999999999998e-01 -1.0642575873540757e+01 -7.9551207514015099e+00 -1.2660492928525970e+01 -5 -8 -2
2028 676 2 4.0999999999999998e-01 -9.0740715610003413e+00 -7.5240968678429176e+00 -1.2516283929592232e+01 -5 -8 -2
2026 676 1 -8.1999999999999995e-01 -9.9890274795031129e+00 -7.2052821575021770e+00 -1.2763815275361427e+01 -5 -8 -2
521 174 2 4.0999999999999998e-01 -1.1380054721360860e+01 -8.9885578771936459e+00 -1.0080305931364737e+01 -2 -3 -1
1364 455 2 4.0999999999999998e-01 -1.1045367931631235e+01 -5.5318511588499160e+00 -1.2551154902755316e+01 -7 -1 1
1856 619 2 4.0999999999999998e-01 -1.2452695652432659e+01 -1.2594982143006082e+01 -1.2467135422817991e+01 -4 0 -1
1122 374 2 4.0999999999999998e-01 -1.3680464386393377e+01 -1.1924461875062788e+01 -1.1027541359303683e+01 -9 -8 -3
522 174 2 4.0999999999999998e-01 -1.1268983130283933e+01 -8.4707122457981541e+00 -8.5355462071359760e+00 -2 -3 -1
520 174 1 -8.1999999999999995e-01 -1.1897612374476804e+01 -8.6619273856938293e+00 -9.2894168633197012e+00 -2 -3 -1
1576 526 1 -8.1999999999999995e-01 -1.1355294342263768e+01 -9.6062932002938251e+00 -1.2033759298457133e+01 -3 -2 5
848 283 2 4.0999999999999998e-01 -1.3067920178515774e+01 -9.6531759193977003e+00 -1.0051408067682472e+01 -6 -4 -4
821 274 2 4.0999999999999998e-01 -1.4897436048246394e+01 -7.3351239738903651e+00 -1.1839893165619641e+01 -7 -2 -2
710 237 2 4.0999999999999998e-01 -1.1313851071051861e+01 -1.1535742640101642e+01 -1.4273332000043611e+01 -6 -5 -2
1116 372 2 4.0999999999999998e-01 -1.0604196585191268e+01 -1.4110744705483429e+01 -1.2954310935738606e+01 -5 -6 6
1240 414 1 -8.1999999999999995e-01 -1.3671182262675984e+01 -6.3559507505693169e+00 -1.3309663602972364e+01 -5 3 -6
1114 372 1 -8.1999999999999995e-01 -9.8164512879869825e+00 -1.4721246847910530e+01 -1.3036793625515800e+01 -5 -6 6
2396 799 2 4.0999999999999998e-01 -1.1657600272418279e+01 -1.3266375945100728e+01 -1.0331611279090600e+01 0 -3 -3
1120 374 1 -8.1999999999999995e-01 -1.3452992152140412e+01 -1.2890835357244653e+01 -1.0907384650652006e+01 -9 -8 -3
1973 658 2 4.0999999999999998e-01 -1.2469899761436778e+01 -1.3130197234893307e+01 -8.1326295584715602e+00 -1 -3 2
849 283 2 4.0999999999999998e-01 -1.4539280444703277e+01 -9.9879574527535269e+00 -1.0675750794782932e+01 -6 -4 -4
1577 526 2 4.0999999999999998e-01 -1.2222546755586819e+01 -9.9781106278004685e+00 -1.1702573540437875e+01 -3 -2 5
2397 799 2 4.0999999999999998e-01 -1.0111396478720284e+01 -1.3025188605054577e+01 -9.8648500578297629e+00 0 -3 -3
1857 619 2 4.0999999999999998e-01 -1.2514084242689096e+01 -1.3700849395491637e+01 -1.3667165682184395e+01 -4 0 -1
1777 593 1 -8.1999999999999995e-01 -1.2790754306902592e+01 -8.6459593549520974e+00 -1.4922278452193993e+01 -1 -3 -3
1365 455 2 4.0999999999999998e-01 -1.2624615913902858e+01 -5.1498484470550743e+00 -1.2714963556039180e+01 -7 -1 1
2201 734 2 4.0999999999999998e-01 -8.2100178484613693e+00 -1.2179085379386239e+01 -1.1408069353998760e+01 -2 -5 -7
1779 593 2 4.0999999999999998e-01 -1.1922297141258904e+01 -9.0273899110737936e+00 -1.4605494965210440e+01 -1 -3 -3
1578 526 2 4.0999999999999998e-01 -1.1108023564556524e+01 -1.0052623400205263e+01 -1.2893820605918949e+01 -3 -2 5
1855 619 1 -8.1999999999999995e-01 -1.1976686522462474e+01 -1.2957770828079738e+01 -1.3268296197685501e+01 -4 0 -1
709 237 1 -8.1999999999999995e-01 -1.0976705568184634e+01 -1.0720863320627945e+01 -1.4744886375799625e+01 -6 -5 -2
1121 374 2 4.0999999999999998e-01 -1.4280046152492760e+01 -1.3401111249700676e+01 -1.0671462836666516e+01 -9 -8 -3
2100 700 2 4.0999999999999998e-01 -9.0702235158929589e+00 -6.5434907525021302e+00 -1.4289033496050484e+01 -6 -3 -4
1067 356 2 4.0999999999999998e-01 -1.2251769397002864e+01 -5.2602954815217355e+00 -1.0527456566362281e+01 -5 -1 -3
2294 765 2 4.0999999999999998e-01 -1.2071350946456743e+01 -5.7811651307607814e+00 -8.1255785884380494e+00 -7 -1 -4
1241 414 2 4.0999999999999998e-01 -1.4566225483089472e+01 -5.9103946920908168e+00 -1.3288774934576413e+01 -5 3 -6
1527 509 2 4.0999999999999998e-01 -7.5006609870752827e+00 -6.3862961578140016e+00 -1.1271471342628780e+01 -5 -2 -2
1972 658 1 -8.1999999999999995e-01 -1.2723708049729783e+01 -1.2321525566134916e+01 -7.6018844276278674e+00 -1 -3 2
954 318 2 4.0999999999999998e-01 -9.1992157803734038e+00 -9.4433855391107819e+00 -1.4546665563880463e+01 -4 -5 -3
952 318 1 -8.1999999999999995e-01 -8.2797896425830189e+00 -9.1038298386796654e+00 -1.4745201200870433e+01 -4 -5 -3
822 274 2 4.0999999999999998e-01 -1.4790165900797966e+01 -6.3526510522721438e+00 -1.0539884058144491e+01 -7 -2 -2
1361 454 2 4.0999999999999998e-01 -1.4501995403650035e+01 -1.4539912313398359e+01 -1.4338022074343602e+01 -7 -7 2
1525 509 1 -8.1999999999999995e-01 -7.6128487676996102e+00 -5.5394863567315458e+00 -1.0751484846089685e+01 -5 -2 -2
1360 454 1 -8.1999999999999995e-01 -1.3562352332911184e+01 -1.4722885638625970e+01 -1.4627246178540586e+01 -7 -7 2
1974 658 2 4.0999999999999998e-01 -1.3717954722243723e+01 -1.2288431216241191e+01 -7.4997217288719131e+00 -1 -3 2
1732 578 1 -8.1999999999999995e-01 -7.0826614524730873e+00 -1.4691803480308266e+01 -9.5730494498894778e+00 -7 -3 -2
1206 402 2 4.0999999999999998e-01 -1.6495523980506377e-01 -1.4066078424727404e+01 -1.3405025162514848e+01 -4 2 -3
1173 391 2 4.0999999999999998e-01 -3.6164573625541365e+00 -5.4695900309620864e+00 -8.0887647888408090e+00 -3 1 -5
1734 578 2 4.0999999999999998e-01 -7.1996116034727713e+00 -1.4924462226977687e+01 -8.6075177457161587e+00 -7 -3 -2
615 205 2 4.0999999999999998e-01 -3.5077263725940764e+00 -1.4669670135967404e+01 -1.4161566414084179e+01 -7 -7 -4
1214 405 2 4.0999999999999998e-01 -3.7739642264072337e-01 -8.2966577673454012e+00 -1.3025524441154641e+01 -7 1 0
1172 391 2 4.0999999999999998e-01 -4.9514651559689948e+00 -5.2612754637063954e+00 -9.0059031663084284e+00 -3 1 -5
1733 578 2 4.0999999999999998e-01 -6.1409708547053032e+00 -1.4395587204932561e+01 -9.7328419364948502e+00 -7 -3 -2
208 70 1 -8.1999999999999995e-01 -1.4278189523431983e-01 -1.0935094630871081e+01 -1.3380609758654128e+01 -10 -6 -3
2243 748 2 4.0999999999999998e-01 -4.7470856550827545e+00 -1.0576689286636071e+01 -1.3699044119761661e+01 -5 -6 -1
210 70 2 4.0999999999999998e-01 -1.5151196925676302e-01 -1.0771408593515027e+01 -1.4367113548860708e+01 -10 -6 -3
2242 748 1 -8.1999999999999995e-01 -5.1187299836859541e+00 -1.0851813571957319e+01 -1.4585749280026469e+01 -5 -6 -1
2492 831 2 4.0999999999999998e-01 -6.8720949415424393e+00 -6.1884449056229123e+00 -9.4419021531122258e+00 -2 -5 -3
1171 391 1 -8.1999999999999995e-01 -3.9518360753487158e+00 -5.2334434964218328e+00 -9.0008036787323391e+00 -3 1 -5
2493 831 2 4.0999999999999998e-01 -7.0508653336451470e+00 -6.7901292958666648e+00 -7.9343211211285061e+00 -2 -5 -3
1087 363 1 -8.1999999999999995e-01 -4.4464675895801236e+00 -5.3452904265864483e+00 -1.4499613535932703e+01 -7 1 0
1088 363 2 4.0999999999999998e-01 -5.1904747454490927e+00 -5.1056755172734754e+00 -1.3875837152531872e+01 -7 1 0
2367 789 2 4.0999999999999998e-01 -4.2073933112556716e-01 -1.2866990709531365e+01 -8.8023600919743235e+00 -3 2 -6
2450 817 2 4.0999999999999998e-01 -4.3487232357257817e+00 -1.1860302009631427e+01 -9.2724298674903327e+00 -2 4 -5
2451 817 2 4.0999999999999998e-01 -5.9211373435323456e+00 -1.2052971579382724e+01 -8.8759757708417624e+00 -2 4 -5
2302 768 1 -8.1999999999999995e-01 -2.8611146064833655e+00 -7.4392092417623372e+00 -1.3389104465712954e+01 -5 3 -1
288 96 2 4.0999999999999998e-01 -4.3351383377499779e+00 -1.4237848504705893e+01 -1.2020267115476370e+01 -7 4 -4
209 70 2 4.0999999999999998e-01 -3.7635559185221545e-01 -1.1890383533410288e+01 -1.3199156309718031e+01 -10 -6 -3
108 36 2 4.0999999999999998e-01 -4.3304755823585808e+00 -8.6910086176097252e+00 -1.1116657521990696e+01 -4 4 0
1569 523 2 4.0999999999999998e-01 -6.6125457845073452e+00 -1.0750323183714791e+01 -7.6985278617991835e+00 -6 0 -4
2303 768 2 4.0999999999999998e-01 -2.7288002121241117e+00 -7.0728832304714402e+00 -1.2468041454135488e+01 -5 3 -1
1288 430 1 -8.1999999999999995e-01 -7.1770233226956561e+00 -7.5895148269499053e+00 -1.2288063209190197e+01 1 1 -4
1970 657 2 4.0999999999999998e-01 -3.2911245155268940e+00 -6.2069273252569435e+00 -1.0128963078193848e+01 1 -4 -3
712 238 1 -8.1999999999999995e-01 -5.8108701240433884e+00 -9.1137437419289160e+00 -7.7264019084746760e+00 -9 -1 -7
2183 728 2 4.0999999999999998e-01 -2.4357022312021783e+00 -9.8431717564913477e+00 -8.6288502729496024e+00 -1 4 -7
1289 430 2 4.0999999999999998e-01 -7.4324272253961121e+00 -7.9069407745939166e+00 -1.3201336725055519e+01 1 1 -4
1290 430 2 4.0999999999999998e-01 -6.5067334821686735e+00 -8.2173331301361294e+00 -1.1892317540304948e+01 1 1 -4
286 96 1 -8.1999999999999995e-01 -5.2101091351369462e+00 -1.3874304948658036e+01 -1.1700390424446411e+01 -7 4 -4
2304 768 2 4.0999999999999998e-01 -2.9045739629739042e+00 -8.4374374819043378e+00 -1.3347745288707911e+01 -5 3 -1
613 205 1 -8.1999999999999995e-01 -3.0904001311736575e+00 -1.4852772405973077e+01 -1.3271414009885245e+01 -7 -7 -4
683 228 2 4.0999999999999998e-01 -6.7994637964558553e+00 -1.2396637834926036e+01 -1.4127097705499947e+01 -11 -4 0
287 96 2 4.0999999999999998e-01 -5.0457066151647325e+00 -1.3163750388526294e+01 -1.1016180707868156e+01 -7 4 -4
1567 523 1 -8.1999999999999995e-01 -7.0388558796544380e+00 -1.1633338507313379e+01 -7.5020525268989475e+00 -6 0 -4
655 219 1 -8.1999999999999995e-01 -1.1430811880485123e+00 -1.3210712816771734e+01 -1.2326800130502940e+01 -6 -6 -4
1969 657 1 -8.1999999999999995e-01 -2.7006433554000004e+00 -6.8705899810831887e+00 -1.0588248193924510e+01 1 -4 -3
1487 496 2 4.0999999999999998e-01 -9.4674487937122542e-01 -5.9911791641657590e+00 -1.0543076236625144e+01 -2 -5 -7
2184 728 2 4.0999999999999998e-01 -1.4866872630456296e+00 -9.9673632088407071e+00 -9.9520020453417661e+00 -1 4 -7
107 36 2 4.0999999999999998e-01 -5.3377975718926223e+00 -9.3560414857938685e+00 -1.0016740607557765e+01 -4 4 0
2449 817 1 -8.1999999999999995e-01 -5.2183201771359240e+00 -1.2265318553232575e+01 -9.5549571333412313e+00 -2 4 -5
657 219 2 4.0999999999999998e-01 -1.0994744592775128e+00 -1.3196778582616206e+01 -1.1327819049746052e+01 -6 -6 -4
106 36 1 -8.1999999999999995e-01 -5.2612299674038514e+00 -9.0191664753176433e+00 -1.0955202927334875e+01 -4 4 0
2491 831 1 -8.1999999999999995e-01 -6.3885850926672809e+00 -6.5444881319550365e+00 -8.6422082518955250e+00 -2 -5 -3
684 228 2 4.0999999999999998e-01 -6.6171090093340084e+00 -1.3535653627930291e+01 -1.2971168087749042e+01 -11 -4 0
714 238 2 4.0999999999999998e-01 -5.9272495197086226e+00 -8.1413533070438149e+00 -7.9288163684116864e+00 -9 -1 -7
682 228 1 -8.1999999999999995e-01 -7.2746347285482349e+00 -1.3076725081056020e+01 -1.3568749405911221e+01 -11 -4 0
229 77 1 -8.1999999999999995e-01 -3.1058205927477260e+00 -1.0095845419179767e+01 -1.2606703931677300e+01 -5 2 -8
230 77 2 4.0999999999999998e-01 -2.5324467289432704e+00 -1.0565877211219945e+01 -1.3277801124360275e+01 -5 2 -8
2365 789 1 -8.1999999999999995e-01 -2.7094237554706346e-01 -1.3278529065322166e+01 -9.7013906718565259e+00 -3 2 -6
2182 728 1 -8.1999999999999995e-01 -2.4104394177121957e+00 -9.7667944292818518e+00 -9.6256387128409244e+00 -1 4 -7
1971 657 2 4.0999999999999998e-01 -2.7174478841456917e+00 -7.7352748825649833e+00 -1.0086156028431656e+01 1 -4 -3
656 219 2 4.0999999999999998e-01 -1.8452596940734161e+00 -1.3859236150873093e+01 -1.2620776117912946e+01 -6 -6 -4
1089 363 2 4.0999999999999998e-01 -3.9960002660772034e+00 -6.1777599061318202e+00 -1.4176917483046353e+01 -7 1 0
231 77 2 4.0999999999999998e-01 -2.9593838269079846e+00 -1.0498297061237370e+01 -1.1703018229355148e+01 -5 2 -8
1948 650 1 -8.1999999999999995e-01 -1.0486822517565521e+01 -1.4272803794763467e+01 -3.4073820842341167e+00 -6 0 -1
222 74 2 4.0999999999999998e-01 -1.0373033447434331e+01 -1.0820262595436937e+01 -1.9858615194913991e+00 -3 -3 0
2233 745 1 -8.1999999999999995e-01 -1.1311849076855580e+01 -8.3357657911263807e+00 -6.9239785485380523e-01 -4 -2 -4
2235 745 2 4.0999999999999998e-01 -1.2187001739965492e+01 -8.3974911745955154e+00 -1.1723527349884861e+00 -4 -2 -4
814 272 1 -8.1999999999999995e-01 -1.4687948305427373e+01 -6.0960853849873384e+00 -7.0373473806639586e+00 -6 4 -3
2406 802 2 4.0999999999999998e-01 -1.2792345911531541e+01 -1.1907627843587322e+01 -5.3694596338165290e+00 -10 -2 -4
221 74 2 4.0999999999999998e-01 -8.9010025258822729e+00 -1.0471533211389030e+01 -2.6009195893490702e+00 -3 -3 0
2234 745 2 4.0999999999999998e-01 -1.0596927955401366e+01 -8.7620846301317918e+00 -1.2466532104070751e+00 -4 -2 -4
1950 650 2 4.0999999999999998e-01 -1.0351339140124866e+01 -1.4153393034541942e+01 -4.3909695460632303e+00 -6 0 -1
1431 477 2 4.0999999999999998e-01 -1.4232950437787856e+01 -7.2725008088221603e+00 -2.9329433056170391e+00 -8 -4 2
1541 514 2 4.0999999999999998e-01 -1.2305446381010217e+01 -1.1732881904270759e+01 -3.2499482577221066e+00 -7 -1 -7
2404 802 1 -8.1999999999999995e-01 -1.3278841390000714e+01 -1.1327537520978638e+01 -4.7161018741239236e+00 -10 -2 -4
354 118 2 4.0999999999999998e-01 -9.7840563854960081e+00 -1.2561795319793742e+01 -6.5983075532674924e+00 -7 -3 0
1540 514 1 -8.1999999999999995e-01 -1.2067934073440782e+01 -1.2285176655677326e+01 -2.4508128966541065e+00 -7 -1 -7
2405 802 2 4.0999999999999998e-01 -1.3443053654915303e+01 -1.0429898007896014e+01 -5.1251697848963556e+00 -10 -2 -4
220 74 1 -8.1999999999999995e-01 -9.7024267985733399e+00 -1.0093968375862559e+01 -2.1369984230095440e+00 -3 -3 0
1542 514 2 4.0999999999999998e-01 -1.1494351964506986e+01 -1.3053438866196386e+01 -2.7351291392742620e+00 -7 -1 -7
2582 861 2 4.0999999999999998e-01 -1.2197406281736011e+01 -8.4708006462276408e+00 -3.9609352836255116e+00 -2 4 -3
86 29 2 4.0999999999999998e-01 -1.2073042199391015e+01 -1.2516724283105452e+01 -6.5701999560110380e-01 -12 -7 -7
2583 861 2 4.0999999999999998e-01 -1.0864990968190281e+01 -9.3796196805824472e+00 -3.7050035287891614e+00 -2 4 -3
2581 861 1 -8.1999999999999995e-01 -1.1275607811286640e+01 -8.6786969010530139e+00 -4.2882358838297829e+00 -2 4 -3
943 315 1 -8.1999999999999995e-01 -9.9422674072957040e+00 -1.4313238730093977e+01 -5.9050844766262891e+00 -11 -5 -1
1430 477 2 4.0999999999999998e-01 -1.4602283699048208e+01 -8.7278308833062255e+00 -3.5751199793746835e+00 -8 -4 2
1992 664 2 4.0999999999999998e-01 -8.8788446541382307e+00 -1.4183431782013010e+01 -2.5003436284617688e+00 -9 -4 0
1269 423 2 4.0999999999999998e-01 -1.1047992770282331e+01 -6.8099647931203435e+00 -4.1114021128148952e+00 -3 2 3
1429 477 1 -8.1999999999999995e-01 -1.3861402100119697e+01 -8.1528333124104773e+00 -3.2279440080214101e+00 -8 -4 2
752 251 2 4.0999999999999998e-01 -1.0125352655153909e+01 -4.9994352750931892e+00 -2.5871897437756370e+00 -6 -9 -6
1267 423 1 -8.1999999999999995e-01 -1.1215742227676348e+01 -6.0737433798111073e+00 -3.4557367648014363e+00 -3 2 3
1573 525 1 -8.1999999999999995e-01 -8.1564547772070792e+00 -6.8105523160138173e+00 -6.8244683124754975e+00 -14 -2 2
1575 525 2 4.0999999999999998e-01 -8.5372581402572685e+00 -5.9726693438174543e+00 -6.4333163436403726e+00 -14 -2 2
1268 423 2 4.0999999999999998e-01 -1.2198897944093474e+01 -5.9896985545870827e+00 -3.2932553610777653e+00 -3 2 3
1574 525 2 4.0999999999999998e-01 -8.8202233800849434e+00 -7.5528815739259922e+00 -6.7327216702933299e+00 -14 -2 2
1835 612 2 4.0999999999999998e-01 -1.4615885451155338e+01 -1.2558429090071698e+01 -4.2266136750332031e+00 -3 -5 -10
1709 570 2 4.0999999999999998e-01 -1.0965048434881659e+01 -8.6981901544197715e+00 -6.1324925472476686e+00 -12 1 -6
52 18 1 -8.1999999999999995e-01 -1.4516984040616347e+01 -1.1109461138785438e+01 -1.4533105624204055e+00 -8 -7 -1
945 315 2 4.0999999999999998e-01 -9.0141173677511546e+00 -1.4671968315321802e+01 -6.0046309016400361e+00 -11 -5 -1
352 118 1 -8.1999999999999995e-01 -9.9817045599407628e+00 -1.1640400043198392e+01 -6.9330087052041343e+00 -7 -3 0
1708 570 1 -8.1999999999999995e-01 -1.0360250659185805e+01 -8.6719101593031418e+00 -6.9284749109050328e+00 -12 1 -6
815 272 2 4.0999999999999998e-01 -1.3707940141662096e+01 -6.1783006840116013e+00 -7.2186857700692801e+00 -6 4 -3
1144 382 1 -8.1999999999999995e-01 -1.3289753885384126e+01 -9.1854874297271962e+00 -6.5868575460731975e+00 -7 0 -5
1990 664 1 -8.1999999999999995e-01 -8.0382983641423706e+00 -1.4492549523371173e+01 -2.0553862175413080e+00 -9 -4 0
1710 570 2 4.0999999999999998e-01 -1.0043759445518301e+01 -9.5972617118048191e+00 -7.1373211657586531e+00 -12 1 -6
906 302 2 4.0999999999999998e-01 -8.4487579209062709e+00 -6.2344389479097906e+00 -3.5314921313187675e-01 -5 -4 -2
1568 523 2 4.0999999999999998e-01 -8.0232555264238421e+00 -1.1508038231924500e+01 -7.3782943405657653e+00 -6 0 -4
53 18 2 4.0999999999999998e-01 -1.3960326424656987e+01 -1.1908239621363803e+01 -1.6816615281667175e+00 -8 -7 -1
70 24 1 -8.1999999999999995e-01 -1.2889791386985266e+01 -5.3557582195239934e+00 -4.5442964537452113e-01 -6 -7 -3
71 24 2 4.0999999999999998e-01 -1.2682037864171045e+01 -6.1411295026019825e+00 -1.0376014133355689e+00 -6 -7 -3
2295 765 2 4.0999999999999998e-01 -1.1244006597774884e+01 -5.5715978641270816e+00 -6.7333262933577789e+00 -7 -1 -4
493 165 1 -8.1999999999999995e-01 -1.3987125666764006e+01 -5.4360451731887096e+00 -3.0224612072907622e+00 -7 0 -2
353 118 2 4.0999999999999998e-01 -1.0863148951281742e+01 -1.1639291656809863e+01 -7.4053575945326431e+00 -7 -3 0
1146 382 2 4.0999999999999998e-01 -1.3060764334137525e+01 -8.2120356340961465e+00 -6.5906365805242846e+00 -7 0 -5
2293 765 1 -8.1999999999999995e-01 -1.1961525830575319e+01 -6.1020505239765317e+00 -7.1848182861336802e+00 -7 -1 -4
816 272 2 4.0999999999999998e-01 -1.4853261524017872e+01 -5.3017920940689152e+00 -6.4526862703598535e+00 -6 4 -3
495 165 2 4.0999999999999998e-01 -1.4287866557064069e+01 -5.0667206324637686e+00 -3.9017866286977547e+00 -7 0 -2
1145 382 2 4.0999999999999998e-01 -1.2935839599283719e+01 -9.6143906040221125e+00 -7.4180287932923266e+00 -7 0 -5
279 93 2 4.0999999999999998e-01 -8.9201245385813479e+00 -1.1358959262516514e+01 -2.6838071976159839e-02 -8 -1 -2
1941 647 2 4.0999999999999998e-01 -1.4301601729497726e-01 -1.4090796195088744e+01 -3.9047496444311296e+00 -4 -3 0
713 238 2 4.0999999999999998e-01 -5.4845648287281552e+00 -9.2220080871848644e+00 -6.7873265249823689e+00 -9 -1 -7
1336 446 1 -8.1999999999999995e-01 -2.4521296629029230e+00 -1.4928926516011476e+01 -6.4976172862166717e+00 -4 -2 -2
1991 664 2 4.0999999999999998e-01 -7.4821462581952556e+00 -1.3699713685334414e+01 -1.8060569814039109e+00 -9 -4 0
261 87 2 4.0999999999999998e-01 -1.1830586956741520e+00 -5.7499770799506660e+00 -7.0922029563351199e+00 -1 -4 -6
1337 446 2 4.0999999999999998e-01 -2.5902307080196305e+00 -1.3963280852045132e+01 -6.7178796287103708e+00 -4 -2 -2
259 87 1 -8.1999999999999995e-01 -2.1252066254615514e+00 -6.0792875454619786e+00 -7.1552175232787043e+00 -1 -4 -6
2168 723 2 4.0999999999999998e-01 -6.2430587405258411e+00 -1.0821409395723194e+01 -2.7524335766045187e+00 -11 1 -9
2167 723 1 -8.1999999999999995e-01 -7.1766698741553263e+00 -1.0566150182117802e+01 -3.0039726271307323e+00 -11 1 -9
1837 613 1 -8.1999999999999995e-01 -2.3884073044260852e+00 -1.0098894636320203e+01 -6.8206525827806708e+00 -10 -4 -3
2054 685 2 4.0999999999999998e-01 -4.1132916437092977e+00 -5.9422190427658688e+00 -3.0510147796739471e+00 -7 -1 -4
1913 638 2 4.0999999999999998e-01 -4.4916017248787519e+00 -8.1344212078934390e+00 -1.9325427822255818e+00 -8 4 -5
2075 692 2 4.0999999999999998e-01 -6.5181128575223308e+00 -1.2869084535848957e+01 -6.4457047358330968e+00 -9 1 -4
688 230 1 -8.1999999999999995e-01 -6.5574729849323532e-01 -5.8238807369215291e+00 -3.4926745265140298e+00 -8 -1 -5
868 290 1 -8.1999999999999995e-01 -4.5069239626449153e+00 -6.2205986439069694e+00 -2.7369123502964499e-02 -2 -4 -8
1378 460 1 -8.1999999999999995e-01 -4.6093454551523685e+00 -1.0098541893069633e+01 -5.1310947505412567e+00 0 -5 -1
862 288 1 -8.1999999999999995e-01 -1.3912167492667091e+00 -8.9527113351273382e+00 -2.1650632661156628e+00 -6 -1 -2
260 87 2 4.0999999999999998e-01 -2.2341144962912356e+00 -6.8900005454528923e+00 -6.5799414584947904e+00 -1 -4 -6
1839 613 2 4.0999999999999998e-01 -1.6078923701194388e+00 -9.7468941551847799e+00 -6.3039795492498456e+00 -10 -4 -3
2055 685 2 4.0999999999999998e-01 -5.6936025463599123e+00 -5.5416488558922481e+00 -3.1455906291268523e+00 -7 -1 -4
863 288 2 4.0999999999999998e-01 -8.8297426243258137e-01 -9.7728309762734717e+00 -1.9020950430696111e+00 -6 -1 -2
2403 801 2 4.0999999999999998e-01 -1.4585859643841026e-01 -1.2407159170963055e+01 -6.0850903747291536e+00 -3 -2 -3
455 152 2 4.0999999999999998e-01 -6.3878652820600141e+00 -1.2008425780844046e+01 -9.4369108406325886e-01 -10 -2 0
2074 692 1 -8.1999999999999995e-01 -6.3460066076972321e+00 -1.3433319041960186e+01 -5.6381913536612007e+00 -9 1 -4
690 230 2 4.0999999999999998e-01 -1.5482856947904455e+00 -5.5981702641696209e+00 -3.1021762600169058e+00 -8 -1 -5
2169 723 2 4.0999999999999998e-01 -7.1727175695795644e+00 -9.6576241767216420e+00 -3.4218527289047760e+00 -11 1 -9
1203 401 2 4.0999999999999998e-01 -3.5411295085987806e+00 -5.2232036425176851e+00 -1.4990715087587798e+00 -2 -1 -7
2070 690 2 4.0999999999999998e-01 -7.1148364552545722e+00 -7.5638339313429475e+00 -5.1736252608266557e+00 0 -7 -3
2076 692 2 4.0999999999999998e-01 -6.1081972509124540e+00 -1.2845187391305164e+01 -4.8651409733969935e+00 -9 1 -4
2115 705 2 4.0999999999999998e-01 -4.4435350978843555e+00 -1.0621836653957757e+01 -2.1454201214450173e+00 -4 -1 -5
1838 613 2 4.0999999999999998e-01 -3.1848172693223304e+00 -1.0162716031689261e+01 -6.2192235106368763e+00 -10 -4 -3
2053 685 1 -8.1999999999999995e-01 -5.0181119971796377e+00 -6.2521077948607839e+00 -3.3431243906485353e+00 -7 -1 -4
1380 460 2 4.0999999999999998e-01 -4.8167780405470833e+00 -1.0703332432582622e+01 -4.3621610294007365e+00 0 -5 -1
2401 801 1 -8.1999999999999995e-01 -6.2262057875943633e-01 -1.2283382043583133e+01 -6.9553984467985206e+00 -3 -2 -3
2068 690 1 -8.1999999999999995e-01 -6.4468683421787425e+00 -8.0898636551693457e+00 -4.6471556734827644e+00 0 -7 -3
253 85 1 -8.1999999999999995e-01 -2.3151008461058193e+00 -1.2552726617345400e+01 -1.8204335379940932e+00 -4 -3 -4
1940 647 2 4.0999999999999998e-01 -9.6248825285588957e-01 -1.2756369868068722e+01 -3.4415485777782671e+00 -4 -3 0
2402 801 2 4.0999999999999998e-01 -1.2594056556757547e+00 -1.1515956256777036e+01 -6.8804229260078920e+00 -3 -2 -3
497 166 2 4.0999999999999998e-01 -9.7529949192287901e-01 -8.7194581901287123e+00 -3.8494845728311748e+00 -9 -3 -1
254 85 2 4.0999999999999998e-01 -2.4665310809435645e+00 -1.3518410060652423e+01 -1.6092859563796331e+00 -4 -3 -4
689 230 2 4.0999999999999998e-01 -7.1546838489089382e-01 -6.6957337582612908e+00 -3.9788479470106246e+00 -8 -1 -5
1302 434 2 4.0999999999999998e-01 -3.7794799873420875e+00 -8.8829765522722806e+00 -4.8853021067699842e-02 -8 1 -5
2113 705 1 -8.1999999999999995e-01 -4.7075877830149970e+00 -1.1542030418207712e+01 -2.4345196175119401e+00 -4 -1 -5
456 152 2 4.0999999999999998e-01 -5.9097933721834117e+00 -1.3342833007621969e+01 -1.3277300364958045e-01 -10 -2 0
1379 460 2 4.0999999999999998e-01 -5.1594232911163864e+00 -9.2665459297323203e+00 -5.0585964883835928e+00 0 -5 -1
1914 638 2 4.0999999999999998e-01 -3.2201432017311937e+00 -9.0688899955490747e+00 -2.3531910321337737e+00 -8 4 -5
496 166 1 -8.1999999999999995e-01 -6.8988340001335580e-01 -8.2975782522302239e+00 -4.7100738417409236e+00 -9 -3 -1
454 152 1 -8.1999999999999995e-01 -6.6978578059542926e+00 -1.2787794119549556e+01 -3.9912839542705036e-01 -10 -2 0
864 288 2 4.0999999999999998e-01 -1.2665305814062311e+00 -8.2457557644233379e+00 -1.4688405291342388e+00 -6 -1 -2
1912 638 1 -8.1999999999999995e-01 -4.1388207519178213e+00 -9.0698093078002557e+00 -1.9581091139496252e+00 -8 4 -5
2114 705 2 4.0999999999999998e-01 -4.0640199322766595e+00 -1.2207670031832279e+01 -2.0566264774003447e+00 -4 -1 -5
255 85 2 4.0999999999999998e-01 -1.6089702610531749e+00 -1.2185847149095828e+01 -1.2147620537118424e+00 -4 -3 -4
2069 690 2 4.0999999999999998e-01 -5.8270551966529585e+00 -7.4634001023157994e+00 -4.1744675980996231e+00 0 -7 -3
897 299 2 4.0999999999999998e-01 -3.5631668407094050e+00 -1.4460833142828314e+01 -1.0775420348152309e-01 -7 -7 -7
1939 647 1 -8.1999999999999995e-01 -2.1433568975983519e-01 -1.3098870566028362e+01 -4.0098970405902037e+00 -4 -3 0
743 248 2 4.0999999999999998e-01 -6.7897044823869912e+00 -1.4815195234169400e+01 -6.2967747063949098e+00 -5 0 -4
1419 473 2 4.0999999999999998e-01 -8.4302081147470282e+00 -8.6226268950966620e+00 2.9047245257877812e+00 -6 2 -2
1621 541 1 -8.1999999999999995e-01 -8.1692583887147059e+00 -6.5894623036025024e+00 5.0494815325544060e+00 3 -1 -4
860 287 2 4.0999999999999998e-01 -1.2591604893615211e+01 -8.1442790569368011e+00 1.5816211943632972e+00 -9 -6 -1
1623 541 2 4.0999999999999998e-01 -8.5229905152425527e+00 -6.9091711301161070e+00 5.9285257617846625e+00 3 -1 -4
899 300 2 4.0999999999999998e-01 -1.2645019683500141e+01 -1.3211473831299617e+01 3.3610689602257473e+00 -2 -8 -5
898 300 1 -8.1999999999999995e-01 -1.1776732887665439e+01 -1.2876687837707994e+01 2.9949333439567312e+00 -2 -8 -5
2585 862 2 4.0999999999999998e-01 -1.4443386959255859e+01 -9.7538773862557413e+00 1.3121798669479077e+00 -3 -3 2
900 300 2 4.0999999999999998e-01 -1.1933793315823390e+01 -1.2445297096107756e+01 2.1065117316789355e+00 -2 -8 -5
2587 863 1 -8.1999999999999995e-01 -1.4645330783264326e+01 -1.2437134066582232e+01 3.1420209159804209e+00 -4 -2 -6
250 84 1 -8.1999999999999995e-01 -1.3323178072353780e+01 -7.4836135853267969e+00 5.5151825755811181e+00 -10 -7 -3
861 287 2 4.0999999999999998e-01 -1.2561014933637804e+01 -9.3170430949220915e+00 2.7176107618548357e+00 -9 -6 -1
1417 473 1 -8.1999999999999995e-01 -7.7517144958273470e+00 -8.8031725020659071e+00 3.6168401152718772e+00 -6 2 -2
162 54 2 4.0999999999999998e-01 -1.1325601801630091e+01 -1.4805289612208739e+01 2.6645582352998005e+00 -3 -4 -5
2189 730 2 4.0999999999999998e-01 -1.0924992879004655e+01 -1.0989454846107535e+01 3.6495071830803099e+00 -1 -3 -8
1622 541 2 4.0999999999999998e-01 -8.0243103894076739e+00 -7.3720383520813710e+00 4.4439868976122447e+00 3 -1 -4
2188 730 1 -8.1999999999999995e-01 -1.1148288444222906e+01 -1.0020098581057413e+01 3.5468113571960593e+00 -1 -3 -8
859 287 1 -8.1999999999999995e-01 -1.3149838971252048e+01 -8.7840664600436718e+00 2.1099257435494216e+00 -9 -6 -1
251 84 2 4.0999999999999998e-01 -1.3579349147792584e+01 -8.3507345449786285e+00 5.0879396551900093e+00 -10 -7 -3
426 142 2 4.0999999999999998e-01 -1.1004209914678855e+01 -1.0405846549240405e+01 7.0628937301400470e+00 -4 -4 -5
2190 730 2 4.0999999999999998e-01 -1.1076433660941692e+01 -9.5656117217916048e+00 4.4346950667708498e+00 -1 -3 -8
121 41 1 -8.1999999999999995e-01 -1.0790130595429261e+01 -1.3366063571108420e+01 6.0260292004474820e+00 -3 0 -5
425 142 2 4.0999999999999998e-01 -1.0671279312330148e+01 -1.1441371013330063e+01 5.8448502747473938e+00 -4 -4 -5
424 142 1 -8.1999999999999995e-01 -1.0399048396634178e+01 -1.0587040807886705e+01 6.2876472396461409e+00 -4 -4 -5
1056 352 2 4.0999999999999998e-01 -1.2479977911757292e+01 -5.9944504663026272e+00 5.2116476365263864e+00 -7 -4 -4
9 3 2 4.0999999999999998e-01 -9.6308873561013240e+00 -1.3860930195369493e+01 4.3341814565026269e+00 0 -3 -6
905 302 2 4.0999999999999998e-01 -8.5207471811718669e+00 -7.2935527774648197e+00 8.8776940044679087e-01 -5 -4 -2
123 41 2 4.0999999999999998e-01 -1.0201914784334619e+01 -1.3781485343522997e+01 6.7199210050487395e+00 -3 0 -5
2131 711 1 -8.1999999999999995e-01 -9.5243480706382186e+00 -7.8611826785111463e+00 6.9408612810972663e+00 -5 -1 -5
2415 805 2 4.0999999999999998e-01 -8.7772613585483832e+00 -1.0771180966357093e+01 5.8848144237475211e+00 -3 0 -6
7 3 1 -8.1999999999999995e-01 -8.7456543078533624e+00 -1.4047609819080673e+01 3.9080686364464583e+00 0 -3 -6
8 3 2 4.0999999999999998e-01 -8.2707003550280547e+00 -1.3184846260889366e+01 3.7345270239338006e+00 0 -3 -6
2414 805 2 4.0999999999999998e-01 -7.7167477889262734e+00 -1.0146471962464890e+01 4.8115794221116595e+00 -3 0 -6
2413 805 1 -8.1999999999999995e-01 -7.8453678113608918e+00 -1.0832956569249225e+01 5.5272991776887110e+00 -3 0 -6
252 84 2 4.0999999999999998e-01 -1.3925243493245722e+01 -7.3047618264628040e+00 6.2933780660850225e+00 -10 -7 -3
2132 711 2 4.0999999999999998e-01 -9.6699274392136445e+00 -8.8460432169518626e+00 6.8464405914376805e+00 -5 -1 -5
1643 548 2 4.0999999999999998e-01 -9.3793527603138322e+00 -9.6063526359678590e+00 1.2480314488157163e+00 -2 -4 -6