2593
Atoms. Timestep: 18495000
O 2.4755 -2.3275 -11.5795
H 1.89637 -2.98946 -11.1037
H 2.8448 -2.74415 -12.4102
O 4.90115 9.01244 4.31951
H 4.01429 8.81397 3.90228
H 5.3319 9.77652 3.83929
O -5.84751 -13.6093 1.06757
H -6.02557 -12.6505 0.846412
H -6.52978 -14.187 0.619492
O -13.0701 4.8105 2.47423
H -13.3729 5.03008 1.54681
H -12.8614 3.83439 2.53437
O 3.81389 -0.522224 -1.00187
H 4.75067 -0.21493 -1.16923
H 3.63322 -0.520452 -0.0183411
O 2.34273 -9.80659 -0.184637
H 1.83283 -10.6611 -0.0854538
H 2.17596 -9.22462 0.61128
O 5.82494 -13.7243 -4.50834
H 6.13262 -12.7914 -4.32149
H 6.09705 -13.9859 -5.43438
O -10.4857 -4.04046 -11.9352
H -10.4164 -3.04445 -11.9913
H -11.2374 -4.28836 -11.324
O 3.6297 -13.6718 5.02518
H 3.86051 -12.7626 5.37169
H 3.89552 -13.7394 4.06354
O -2.12436 12.7615 5.52042
H -2.69386 12.2221 6.14071
H -2.26623 12.449 4.58115
O -4.82311 4.79665 0.43652
H -5.24144 5.40241 1.1133
H -4.06049 5.268 -0.00646456
O -10.2367 -14.2852 -13.3469
H -10.6888 -14.6593 -14.1567
H -10.2898 -13.2868 -13.3669
O -6.31922 -1.71558 -9.35286
H -5.97858 -2.62033 -9.09719
H -7.30566 -1.67375 -9.19422
O -0.00638588 0.919266 -5.93461
H 0.837808 0.445297 -5.68427
H -0.778236 0.288079 -5.85824
O 12.8841 0.264383 12.9256
H 13.2627 0.118426 12.0116
H 11.9143 0.49705 12.8514
O -8.27849 11.0796 -12.0526
H -8.4439 12.0636 -12.1189
H -7.44701 10.8467 -12.557
O -0.373701 -3.50592 7.83961
H 0.51043 -3.03961 7.81048
H -0.709459 -3.52525 8.78135
O -13.7597 -10.2177 -1.22252
H -13.2039 -10.5864 -1.96763
H -13.5242 -9.25706 -1.07492
O -10.9962 12.4497 9.17712
H -10.6736 12.9307 8.36196
H -11.9493 12.1761 9.0473
O -9.14844 11.8394 1.11802
H -10.0499 11.9891 1.52418
H -9.13974 10.9609 0.640395
O -10.3553 7.87276 -9.1266
H -9.42293 8.22514 -9.20729
H -10.7591 8.19172 -8.26918
O 3.39798 -4.32069 8.86928
H 2.99942 -3.4486 8.5854
H 2.87594 -5.07255 8.46657
O 10.0003 -10.334 -14.3078
H 10.142 -9.45044 -14.7541
H 9.59446 -10.1903 -13.4052
O -13.2995 -2.97282 -1.07366
H -12.6311 -2.8081 -1.799
H -12.9366 -3.64998 -0.43354
O 4.64864 -10.5319 -11.8032
H 3.85137 -10.2368 -12.3298
H 5.48318 -10.2891 -12.2977
O -10.8319 4.89254 0.821782
H -10.3339 5.73653 1.02097
H -11.4951 4.7172 1.5494
O 12.9999 -14.889 4.37526
H 13.6414 -14.1245 4.43897
H 12.0661 -14.5513 4.4926
O -13.529 -2.54636 -7.95016
H -13.8238 -2.23987 -8.85521
H -12.53 -2.57816 -7.91809
O -10.5423 -11.9455 -1.36418
H -10.9533 -11.5253 -2.17321
H -10.7517 -12.9232 -1.35358
O -9.46876 5.25262 -9.33064
H -9.49284 5.21859 -10.3298
H -9.68519 6.1793 -9.02339
O 13.0368 10.353 -10.3831
H 12.2165 10.028 -10.8537
H 13.5748 10.9217 -11.0053
O 8.98343 -10.5309 0.752416
H 8.14576 -10.5967 0.210233
H 9.15102 -11.4021 1.21395
O -12.3521 -5.03667 9.51762
H -11.6447 -5.48694 10.0625
H -12.006 -4.8701 8.59431
O -3.23325 11.34 -2.5354
H -4.23011 11.4074 -2.57673
H -2.86774 12.1161 -2.02148
O 7.1791 10.2971 -6.11004
H 6.30928 9.95835 -6.46874
H 7.50964 11.0437 -6.68738
O -5.41416 -8.91919 -12.2319
H -6.13787 -8.67811 -11.5853
H -4.68627 -9.40757 -11.7506
O 9.54906 4.63016 12.6685
H 9.96268 4.36898 11.7964
H 10.2453 4.6129 13.3861
O -14.875 7.59675 14.4522
H 14.4689 8.26897 -14.94
H -14.637 6.84152 -14.8281
O 4.66478 -6.00916 5.47237
H 5.29811 -5.53696 4.85925
H 3.74586 -5.63189 5.35733
O 9.56275 7.66297 -7.37462
H 8.98703 7.15756 -6.7319
H 9.30737 7.4225 -8.31107
O -13.1872 -13.7743 6.62456
H -13.9408 -13.7298 7.28036
H -12.5944 -14.5475 6.85001
O 0.195719 13.2362 -14.1638
H 0.921399 13.5276 -14.787
H -0.530067 12.7864 -14.6843
O 5.02272 0.555963 -5.89313
H 5.79136 0.184936 -5.37207
H 5.32266 0.770196 -6.82272
O -10.2783 -2.92376 -6.56584
H -10.1972 -2.08529 -6.02698
H -9.74028 -2.8346 -7.40404
O 6.37232 -4.20248 -7.29324
H 7.28409 -4.08172 -7.68579
H 5.99605 -3.31023 -7.04363
O 2.36484 3.22118 14.7233
H 1.51174 2.72568 14.8866
H 2.73832 3.53823 -14.2959
O 1.19423 3.58041 -0.792277
H 1.05435 4.57013 -0.821722
H 1.51297 3.26213 -1.68507
O -9.53232 -0.000672612 1.24952
H -9.55535 -0.546735 0.412105
H -8.9186 0.77856 1.12254
O -7.40427 9.76042 -4.25135
H -6.89682 9.69902 -3.39187
H -8.17511 10.3875 -4.13924
O 13.9095 8.16802 8.37969
H 13.8367 8.54442 9.30327
H 13.8066 8.90411 7.7107
O 7.29279 -8.0511 8.03718
H 7.78883 -8.26917 8.87764
H 6.30997 -8.14403 8.19656
O -11.8464 10.2063 -4.46948
H -11.0704 10.6792 -4.05209
H -12.1594 9.47758 -3.86043
O -3.82657 -8.84066 9.99793
H -3.34865 -8.92863 9.12395
H -4.39424 -9.64968 10.1503
O -9.32108 -14.666 2.32448
H -8.75642 14.7653 1.63908
H -10.2092 -14.4373 1.92575
O 7.75596 4.88213 8.08462
H 7.52294 5.70016 8.61047
H 6.92009 4.46868 7.72356
O -5.42723 5.57413 11.9545
H -5.93906 5.85191 12.7675
H -4.50994 5.27972 12.2227
O 13.464 -12.9043 10.7311
H 12.5419 -13.0378 10.3678
H 13.9876 -13.7502 10.6304
O -10.2145 13.4212 4.46743
H -10.7653 12.9111 3.80681
H -9.91372 14.2819 4.05664
O 7.37947 14.659 -6.43712
H 7.91512 -14.4042 -6.60369
H 7.5402 14.0038 -7.17531
O 8.30476 -14.5752 8.44962
H 8.70821 14.585 7.8991
H 8.04343 -13.8152 7.85458
O -8.63866 4.19133 6.38789
H -8.61563 5.16863 6.17735
H -8.10949 3.69029 5.70311
O 11.4579 8.33825 -1.20449
H 11.4443 7.33997 -1.26139
H 12.04 8.70555 -1.92989
O -10.5679 1.88741 -14.3088
H -10.4256 2.23279 -13.3812
H -9.82619 1.26109 -14.5487
O 4.13187 -6.37265 -6.24341
H 3.85362 -7.26973 -6.58665
H 4.88675 -6.02294 -6.79825
O -8.42011 7.21253 -5.36224
H -7.64956 6.79143 -4.88381
H -8.24845 8.19134 -5.47387
O 13.3236 9.60203 -13.89
H 12.7767 9.87505 -14.6814
H 12.732 9.52136 -13.0879
O 5.02271 -8.6829 -0.56487
H 4.04086 -8.8443 -0.465318
H 5.17274 -7.91319 -1.18538
O -2.13338 5.10433 -6.68372
H -1.9872 4.22518 -6.23015
H -2.65842 4.96315 -7.52299
O -10.55 -4.84667 -4.61381
H -10.3361 -4.43865 -5.50135
H -11.1474 -5.63768 -4.74592
O 1.84645 -9.72183 -12.1741
H 1.91403 -10.6468 -11.8002
H 0.97949 -9.31089 -11.8921
O 2.1938 9.75116 -5.93029
H 1.27869 9.80256 -6.3302
H 2.83989 10.2456 -6.51172
O -14.8842 -1.50714 4.92716
H 14.9359 -0.510233 4.96095
H -14.0142 -1.79327 5.3286
O -1.61194 6.55865 2.15775
H -1.96208 6.26919 1.26691
H -1.60214 5.77741 2.78189
O -9.86514 -6.7131 -2.32994
H -10.039 -5.94624 -2.94774
H -9.67521 -7.53603 -2.86537
O -9.34715 4.97123 -1.61106
H -9.85184 4.6264 -0.819622
H -9.61279 4.45616 -2.426
O -2.47657 9.23061 9.46289
H -1.60981 8.82286 9.17576
H -2.46157 9.38418 10.4509
O -1.67826 -9.17342 -13.7509
H -1.11887 -9.40045 -14.5481
H -1.30518 -9.62735 -12.9417
O 4.07812 -0.688796 12.1283
H 3.55084 -0.335263 11.3556
H 4.63864 0.0446751 12.5127
O 2.22055 -13.635 -6.82116
H 1.64905 -13.7345 -7.6357
H 2.95724 -14.3107 -6.84631
O 1.35001 6.77719 -14.4034
H 1.70405 7.59444 -14.8581
H 1.80599 5.96695 -14.7717
O -12.8783 8.45392 -2.7641
H -13.4009 7.6181 -2.59584
H -11.901 8.25778 -2.68408
O 12.099 5.79707 -10.8974
H 11.3489 5.36017 -10.401
H 12.723 6.22874 -10.2461
O -0.625324 -3.6373 10.7135
H -0.404079 -4.57707 10.974
H -0.415923 -3.02252 11.4739
O -14.3534 -8.46242 5.58324
H -13.6348 -8.94333 5.08089
H 14.6643 -8.58052 5.11061
O -1.57522 -12.2931 -2.07217
H -1.61776 -12.7831 -1.20151
H -1.85954 -11.3443 -1.93487
O 1.9297 -6.63378 7.74201
H 1.44167 -6.59344 8.6139
H 1.2724 -6.74806 6.99711
O -1.80051 -3.43511 -6.36106
H -0.980965 -3.49162 -5.79086
H -1.59367 -3.77909 -7.27697
O 0.335791 3.19091 -8.07523
H 0.332203 2.49462 -7.35749
H -0.605061 3.45241 -8.29064
O -7.26813 0.158918 -14.4932
H -6.41677 0.0028418 14.897
H -8.0374 0.148071 14.759
O -0.078648 6.79416 -7.27683
H -0.468095 7.67474 -7.00682
H -0.649764 6.05415 -6.9216
O -12.1657 -1.06398 9.88077
H -12.3308 -1.4381 8.96821
H -11.2334 -0.705928 9.93058
O -3.0249 2.33918 1.97129
H -2.86269 2.80879 1.10346
H -3.01876 3.00539 2.71702
O -7.62632 -12.5762 -1.00709
H -8.61567 -12.5368 -1.14712
H -7.203 -13.0805 -1.75973
O -2.10382 -3.4906 -2.4082
H -1.36942 -3.0844 -1.86447
H -1.74988 -3.74715 -3.30758
O 10.8329 -11.1949 -1.13481
H 10.1849 -10.9756 -0.405374
H 11.6993 -10.7262 -0.962999
O -3.19658 -11.1402 -14.9253
H -2.72124 -10.3762 -14.489
H -2.54254 -11.8702 14.7676
O -8.41211 11.494 11.7439
H -8.22458 10.531 11.9376
H -7.69745 12.0615 12.1528
O 0.00685565 -6.25437 -11.7256
H 0.601967 -5.54943 -11.3397
H -0.720415 -5.82164 -12.2583
O -10.0055 2.39725 8.95414
H -10.0332 2.96935 8.13444
H -9.66042 2.93425 9.72389
O -7.73598 5.89444 3.13436
H -7.9383 5.92672 4.11314
H -6.74527 5.88195 2.99903
O 12.926 -7.29258 -1.26081
H 13.3731 -8.09532 -0.866272
H 12.0822 -7.5724 -1.71862
O 10.7242 -9.3458 -5.75874
H 10.3537 -10.0514 -5.15475
H 10.0767 -8.58623 -5.82038
O -4.43012 -8.7936 -1.27357
H -4.64516 -8.09221 -0.594016
H -5.07676 -8.73056 -2.03374
O 8.79047 1.92255 0.199837
H 8.66849 0.932183 0.134492
H 8.51737 2.34961 -0.66215
O 4.00565 -13.9239 -13.8547
H 4.45268 -13.979 -12.9619
H 3.02155 -13.7999 -13.7277
O 11.855 9.2894 6.31564
H 11.645 9.99396 6.99348
H 11.6424 9.63299 5.40091
O 4.9634 2.54498 9.82331
H 5.80191 2.01601 9.95396
H 4.69659 2.96623 10.6901
O -5.9606 7.08154 -7.00613
H -6.59209 6.33272 -7.20731
H -5.07683 6.70628 -6.72665
O -10.3962 8.59923 11.8966
H -11.0104 9.16451 11.3459
H -10.8279 8.39689 12.7757
O -8.42824 -14.5665 -9.46011
H -8.47767 14.3472 -9.66627
H -8.89007 -14.05 -10.1811
O -8.36109 -0.21032 -11.8133
H -7.68875 -0.171704 -11.0741
H -7.89729 -0.0969777 -12.692
O 14.0529 7.54994 -9.64281
H 13.5995 8.43033 -9.50375
H 14.5836 7.57846 -10.4899
O 11.5959 -10.1157 6.35149
H 11.661 -9.22392 5.90365
H 10.9637 -10.6992 5.84191
O -3.8977 -10.8526 2.12985
H -4.73422 -11.0063 1.60394
H -4.13492 -10.5384 3.0491
O -5.01935 6.16833 2.78264
H -5.00192 6.99966 3.33814
H -4.35926 5.51083 3.14588
O 2.02824 -12.2084 -4.25562
H 1.89501 -12.8926 -3.53864
H 2.43977 -12.6416 -5.05746
O 10.0468 -5.48929 -12.8445
H 10.8612 -5.38983 -13.4161
H 9.22826 -5.39038 -13.4104
O -7.89768 -11.4291 -4.5616
H -7.29027 -12.092 -4.99931
H -8.7801 -11.8598 -4.37237
O 13.4785 1.86829 -2.81913
H 13.0054 2.28736 -3.59403
H 13.9229 1.0235 -3.11721
O 10.8161 -8.07663 13.5346
H 10.8272 -8.4255 12.5975
H 11.6158 -7.49491 13.6832
O 5.16975 11.9814 -9.40594
H 5.36137 11.1803 -9.97302
H 4.41076 12.4972 -9.80326
O 12.4969 13.825 7.77686
H 12.0782 14.6107 8.23218
H 11.8859 13.4912 7.05903
O 12.7489 -3.34971 -11.6193
H 12.8482 -4.24834 -12.0467
H 12.2224 -2.75029 -12.2222
O 7.99059 9.96944 3.66903
H 7.7132 10.6524 2.99335
H 8.37773 9.17527 3.20062
O 10.932 -1.35435 2.59862
H 11.4014 -0.657787 3.1413
H 10.9913 -2.23661 3.06564
O 5.00147 4.991 6.06611
H 4.16951 5.27931 6.54016
H 5.05335 3.99237 6.0614
O -0.768066 -2.90357 -13.934
H -1.70115 -3.16933 -14.1763
H -0.631615 -3.02483 -12.9509
O 3.29723 8.71425 -3.81876
H 2.46694 8.53505 -3.29103
H 3.05089 8.9399 -4.7613
O 5.28149 -5.08045 -11.4229
H 4.678 -5.63794 -10.8528
H 5.42616 -5.53692 -12.3008
O 0.906641 -13.6982 -9.15274
H 0.00722081 -13.9353 -9.51986
H 1.42101 -13.1826 -9.83804
O 11.4095 0.938419 8.41434
H 11.2759 0.112402 7.86676
H 10.6084 1.53039 8.32539
O 0.969969 -7.30471 -2.83032
H 1.32567 -8.19168 -3.12484
H -0.00168269 -7.24283 -3.05846
O -14.6719 8.25627 0.530808
H -14.2945 7.34986 0.341196
H -14.6356 8.81273 -0.299268
O 4.55256 14.18 -6.99096
H 5.48241 14.3212 -6.65125
H 4.38241 14.794 -7.76169
O 8.47645 -0.207023 -7.3032
H 8.31898 -0.977162 -7.92132
H 8.46284 0.646541 -7.824
O -10.3531 7.36276 -2.52162
H -9.8438 7.38715 -3.38188
H -10.2989 6.44504 -2.12813
O 12.841 3.24621 7.6828
H 12.3584 2.48343 8.11317
H 13.0534 3.93814 8.37282
O -13.2229 11.7788 -9.80944
H -12.7631 10.9233 -10.0475
H -13.0741 12.4504 -10.5352
O 5.52738 -6.36728 -8.91732
H 5.54634 -5.38395 -8.73654
H 6.46366 -6.71414 -8.97255
O 8.28989 -7.66724 10.6159
H 8.53102 -6.74518 10.9187
H 9.07905 -8.27138 10.7265
O -11.3382 -12.0671 10.3853
H -10.937 -12.6519 11.0903
H -12.3049 -11.9134 10.5901
O -11.0078 -11.8445 7.72293
H -11.6071 -12.3222 7.08058
H -11.1923 -12.1648 8.65212
O -13.4587 -10.362 13.8046
H -14.3636 -9.95437 13.6822
H -13.5322 -11.1654 14.3955
O 0.66908 8.76571 9.20549
H 0.876629 8.85784 10.1794
H 1.32808 8.14443 8.78156
O 10.2781 11.0778 11.6811
H 9.4261 11.5739 11.8484
H 10.249 10.6623 10.7721
O -9.58738 8.79204 -0.362059
H -9.70292 8.20326 -1.16204
H -10.0614 8.38814 0.420323
O 9.45242 -11.5835 4.61691
H 8.66339 -10.9721 4.67632
H 9.69416 -11.7234 3.65671
O 4.42951 -13.7653 11.2039
H 4.62096 -12.7902 11.0922
H 3.47195 -13.9449 10.9785
O 3.56374 -5.06498 11.3315
H 4.2289 -4.46626 11.7777
H 3.48192 -4.8123 10.3675
O 13.2278 -10.6659 -11.573
H 13.9522 -11.1759 -12.0369
H 13.1201 -11.0129 -10.6413
O 14.9266 -12.7912 4.65589
H -14.1768 -13.1636 5.14678
H 14.3067 -12.3511 5.30548
O -7.3062 -14.0707 -3.28061
H -7.1131 -13.5915 -4.13677
H -6.53571 -14.665 -3.05021
O 6.23312 2.98994 -10.1897
H 6.20525 3.39301 -11.1044
H 5.63109 3.50535 -9.57984
O 6.76965 2.64469 2.22271
H 7.39415 1.89834 1.99262
H 7.27652 3.37343 2.68315
O -1.92205 12.6421 13.9899
H -2.65827 13.3068 14.1166
H -2.31222 11.7257 13.8999
O -2.43212 -6.00451 4.62201
H -2.89037 -5.33487 4.03757
H -2.94877 -6.86068 4.61643
O 8.5007 -12.5991 -6.52663
H 9.08464 -12.5825 -7.33825
H 9.05941 -12.7821 -5.71773
O 5.11887 2.19629 7.14111
H 5.91659 1.62216 6.95671
H 4.83328 2.07471 8.09171
O -4.84543 5.36389 -3.56314
H -4.92398 4.58405 -2.94212
H -5.73768 5.80523 -3.65851
O -11.2835 0.74448 -9.32142
H -11.9833 1.43226 -9.51441
H -11.3548 0.455203 -8.36684
O -0.260793 2.07281 5.93328
H -0.671663 2.77415 6.51576
H 0.193349 1.38915 6.50455
O -11.3784 6.29414 6.03437
H -10.508 6.70024 6.31269
H -11.3299 5.30044 6.13533
O 11.7398 11.2586 -0.345008
H 11.0113 11.3388 0.335321
H 11.7611 10.3247 -0.702056
O -3.72533 4.94391 -14.3985
H -4.21684 4.25111 -14.9262
H -2.74343 4.85622 -14.5664
O -14.5187 -5.33425 -4.91804
H 14.9164 -4.52241 -4.55323
H -14.5028 -5.28705 -5.91679
O 1.25829 -5.65378 -6.96566
H 0.94711 -6.38087 -7.57762
H 1.86611 -6.03962 -6.27164
O -2.31816 -5.97386 13.224
H -2.31504 -6.00596 14.2235
H -1.3853 -6.09228 12.8839
O 9.36662 -1.39103 9.8965
H 9.57816 -1.78772 9.00326
H 8.53023 -1.80521 10.2555
O 1.50863 -12.3839 0.0191092
H 2.15717 -13.0569 -0.336631
H 0.620031 -12.5122 -0.421259
O 14.8622 9.81843 6.3109
H 14.415 10.6604 6.00897
H 14.755 9.11402 5.60925
O 11.5717 -5.10665 6.51422
H 12.3879 -4.5657 6.7175
H 11.8407 -5.96249 6.0724
O 14.7974 -8.05452 1.68363
H -14.0996 -8.03423 1.79062
H 14.4571 -7.12332 1.55293
O -11.7643 11.8656 2.73842
H -12.3443 11.0553 2.82225
H -12.3384 12.6831 2.69196
O -11.9396 -10.2045 -12.3284
H -11.7715 -9.22018 -12.2744
H -12.8162 -10.4171 -11.8967
O 11.4685 5.04924 5.99379
H 11.825 4.32785 6.58751
H 11.2101 5.84013 6.54851
O -5.01019 0.42712 1.46919
H -5.62412 1.20657 1.59383
H -4.07446 0.700983 1.69144
O -2.43184 -8.85188 3.85116
H -1.69789 -9.53064 3.8751
H -2.27297 -8.21567 3.09619
O 8.42661 0.127644 2.66238
H 9.18472 -0.382688 2.25642
H 7.67015 -0.497051 2.85607
O 9.09144 -7.09388 -5.63698
H 9.31316 -6.28966 -6.18838
H 9.32717 -6.91801 -4.68122
O -10.5874 12.9376 12.0147
H -9.83999 12.2765 11.9486
H -10.8612 13.2238 11.0965
O 0.636141 -7.16193 10.053
H 0.913642 -7.16582 11.0138
H -0.0996973 -7.82506 9.91597
O -3.08053 -3.35658 13.9143
H -3.01232 -4.24655 13.4634
H -2.79095 -2.63899 13.2809
O -11.3898 13.4443 -6.97952
H -11.1752 12.9522 -7.8232
H -12.3262 13.7921 -7.02551
O -2.63341 -3.553 2.90781
H -2.01067 -2.81493 3.1675
H -2.48549 -3.79171 1.94806
O 11.0775 -2.3925 -9.4387
H 11.2535 -1.43085 -9.22838
H 11.6721 -2.68409 -10.1879
O 11.1081 11.0473 8.43042
H 11.2602 12.0102 8.65297
H 10.1616 10.9191 8.13434
O 5.93733 -2.33778 -14.7838
H 6.65941 -2.76025 -14.236
H 6.24995 -1.44894 14.7722
O 1.00995 -10.8644 6.74491
H 0.965287 -10.5694 7.69935
H 1.96651 -10.9686 6.47265
O 8.97724 3.23607 -2.14046
H 8.42459 3.25358 -2.97368
H 8.92432 4.12558 -1.68663
O -5.63287 -10.8947 10.5067
H -6.16416 -11.6118 10.0557
H -6.1417 -10.5486 11.2949
O -4.69162 2.95175 5.15673
H -5.67965 3.03222 5.02521
H -4.49926 2.19749 5.78449
O 11.0333 4.42303 -7.26832
H 11.4513 5.21012 -6.81466
H 11.1914 3.60063 -6.72184
O 10.7994 11.7872 -3.63685
H 11.0765 12.0109 -4.57129
H 9.87532 11.4051 -3.64562
O 2.96416 12.3287 8.67863
H 2.91277 13.0422 7.97992
H 2.11023 12.3093 9.19863
O 10.289 -9.23152 11.1726
H 10.7832 -9.34485 10.3107
H 9.74988 -10.053 11.3582
O 4.81517 -13.326 -8.36701
H 5.05284 -12.6202 -9.03432
H 4.071 -12.9977 -7.7853
O 14.7665 1.3549 4.23694
H -14.8305 1.97606 4.96339
H 13.8166 1.55178 3.99415
O -5.17526 12.7352 0.960179
H -5.8422 13.4801 0.943966
H -5.45792 12.0493 1.63072
O 8.08573 10.1737 -3.73245
H 7.35998 9.8148 -3.14553
H 7.75713 10.2246 -4.67553
O -11.835 -4.73218 6.76545
H -11.1076 -4.44504 6.14219
H -12.6679 -4.91608 6.24347
O 5.27438 7.91904 -0.457424
H 4.63501 7.1505 -0.434186
H 5.98051 7.78631 0.238094
O 3.60748 0.349792 -14.648
H 3.89893 0.448191 -13.6965
H 3.59373 1.24817 14.804
O 1.25416 4.48914 2.66501
H 0.692424 3.88766 2.09698
H 2.21118 4.20522 2.60601
O 12.788 4.43093 0.932716
H 12.2604 3.58755 1.03445
H 12.6772 4.99418 1.75154
O -1.73241 -13.2549 14.3111
H -1.57557 -14.1128 14.8005
H -0.940588 -13.0498 13.7358
O -7.395 -12.8761 9.81593
H -7.9662 -12.5432 9.06567
H -7.96293 -13.0292 10.6246
O -5.27453 -14.9349 8.93607
H -6.04929 -14.3514 9.17954
H -4.82638 -14.5704 8.11978
O -12.0442 -0.877458 13.7496
H -12.6634 -0.322233 13.1944
H -12.4374 -1.00594 14.66
O 4.96676 0.888725 3.36979
H 5.48711 1.63045 2.94662
H 4.3137 1.2706 4.02376
O -14.5466 11.2554 10.4272
H -14.4663 12.195 10.7601
H 14.4241 10.9126 10.6157
O 11.2917 3.98887 -14.8735
H 11.6246 3.05272 -14.7604
H 11.8517 4.61024 -14.3255
O -13.098 10.1658 8.24131
H -13.7433 9.73138 7.61291
H -13.6032 10.6665 8.94428
O 10.0759 -4.1745 -4.71254
H 10.5171 -3.33662 -5.0339
H 10.0743 -4.18793 -3.71264
O 5.32855 6.60638 -13.9463
H 4.53527 6.75579 -13.3561
H 5.61867 7.47787 -14.3417
O -8.36579 -3.44222 -1.25239
H -8.89637 -4.06721 -0.679812
H -7.62379 -3.04445 -0.712759
O 2.40502 2.95648 9.18511
H 2.08784 3.90465 9.16599
H 3.38329 2.93636 9.3914
O 11.4276 9.06177 -12.2437
H 10.6266 8.96618 -12.8347
H 11.5236 8.24314 -11.6775
O 9.27338 13.7573 6.25493
H 8.36999 13.7128 5.82845
H 9.87102 13.0699 5.84229
O -0.744827 -10.9278 -11.7204
H -1.26812 -11.7747 -11.8146
H -0.396443 -10.8535 -10.786
O 7.24416 -4.86353 -1.332
H 6.955 -5.66573 -1.85433
H 6.54814 -4.14929 -1.40549
O 11.8413 12.727 5.5095
H 12.5075 13.238 4.96639
H 12.0114 11.7466 5.40951
O -5.95709 10.858 -13.6072
H -5.3734 11.6419 -13.3956
H -5.99299 10.727 -14.598
O 11.3171 10.0245 13.9417
H 10.8171 10.3617 13.144
H 11.0406 9.08307 14.1349
O 4.57469 -2.86926 5.05627
H 4.22482 -3.77034 4.80009
H 3.80869 -2.26136 5.2653
O 7.13772 -14.8836 1.99659
H 6.17493 -14.6765 2.17018
H 7.26489 14.0161 1.96439
O 3.8157 -7.16222 13.3035
H 3.51549 -6.43565 12.6855
H 3.75771 -6.84092 14.2487
O -12.334 7.00788 3.72616
H -12.6379 6.17577 3.26226
H -11.8424 6.763 4.56182
O -6.91773 -11.937 -13.1556
H -7.77092 -12.3861 -13.4208
H -6.30952 -11.8826 -13.9475
O -5.43675 13.7878 -2.50835
H -5.61282 13.0097 -1.9054
H -4.45201 13.9544 -2.55865
O 0.0314501 -4.0382 -4.31077
H 0.724072 -3.57555 -3.7574
H 0.284576 -4.99862 -4.42694
O -8.57161 -14.1463 5.74034
H -8.23582 14.831 5.51111
H -7.79712 -13.5213 5.83782
O -1.73179 -13.8614 -10.3508
H -2.39705 -14.5328 -10.0241
H -1.85211 -13.0031 -9.85207
O -9.5431 11.2451 -3.11548
H -9.32919 12.2183 -3.03162
H -10.159 10.9742 -2.37566
O -7.47993 13.0614 5.09785
H -8.36461 12.8325 4.69171
H -6.99435 13.7 4.50091
O -11.6445 0.731347 -6.71057
H -12.6017 0.99851 -6.82189
H -11.5266 0.272878 -5.82971
O -11.0712 14.2284 14.5261
H -11.9529 13.8415 14.796
H -10.7238 13.7398 13.7257
O -7.66355 -13.693 13.4892
H -7.10398 -14.5152 13.5935
H -7.06879 -12.8937 13.4037
O -6.23624 -9.22782 -9.46113
H -5.41999 -9.05921 -8.9086
H -6.95507 -8.58399 -9.19891
O 12.5612 10.4381 3.80173
H 13.3064 11.0501 3.53686
H 12.4067 9.76756 3.0761
O 6.47009 -2.09814 9.70573
H 5.76031 -2.38645 10.3484
H 6.23082 -2.40587 8.78485
O -5.66679 -1.04216 -6.34175
H -5.45472 -0.142859 -5.95931
H -6.59286 -1.3082 -6.07418
O -5.44013 -0.744344 -11.9386
H -5.62978 -1.12613 -11.0341
H -4.85902 -1.37594 -12.4518
O 9.39948 -5.37176 10.5921
H 9.20199 -5.44075 9.61425
H 10.3703 -5.55234 10.7496
O 2.68155 1.61925 5.23521
H 3.04995 2.10222 6.02956
H 1.73265 1.89753 5.08648
O -3.17063 10.3749 14.0612
H -2.97627 9.7478 14.8155
H -4.14795 10.3506 13.8509
O 12.1097 -5.09293 11.3938
H 12.7558 -5.50123 12.0387
H 12.6139 -4.63076 10.6644
O 13.6542 -12.1302 7.11642
H 13.7831 -12.8874 7.7568
H 12.7598 -11.7109 7.2717
O -6.2728 -13.0815 -5.98638
H -6.03502 -12.8438 -6.92816
H -5.89814 -13.9818 -5.76509
O -5.77944 14.1991 -5.3024
H -5.92051 14.0842 -4.3191
H -6.37121 13.5652 -5.80034
O 4.32143 -14.4864 2.49784
H 4.2353 14.4092 2.4562
H 3.93558 -14.0835 1.66794
O -9.87235 -5.27894 0.342517
H -9.76801 -6.02772 -0.312031
H -10.8127 -4.93983 0.313913
O 0.84 -5.41537 12.5402
H 0.995232 -5.09442 13.4745
H 1.54175 -5.03671 11.9368
O 0.439846 -0.108583 -12.0402
H 0.862616 -0.987065 -12.2628
H -0.0255245 -0.176669 -11.1577
O 13.861 13.9892 -3.73139
H 14.6902 14.2578 -3.24112
H 13.0847 13.9943 -3.10113
O 2.80648 14.2191 6.80946
H 3.00549 14.4969 5.8697
H 2.6677 -14.8591 7.37511
O 0.420417 -13.8863 12.9045
H 0.939939 -14.5893 13.3903
H 0.904043 -13.6339 12.0665
O 3.80901 11.983 -2.68966
H 3.74648 10.9856 -2.65265
H 3.55862 12.3658 -1.80045
O 5.73664 14.0871 -2.76023
H 4.94192 13.5046 -2.93072
H 5.72397 14.8617 -3.39262
O 8.78782 -14.7162 13.5022
H 8.30968 -13.8459 13.6201
H 8.24419 14.5723 12.9179
O 10.1558 2.45241 -11.7741
H 9.87791 2.91408 -12.6165
H 9.40906 1.8713 -11.4506
O -14.239 14.6778 -9.96577
H -13.7602 -14.7734 -9.20597
H -14.9217 14.0418 -9.60608
O -0.782961 7.47169 5.99107
H -0.820508 8.46195 5.85706
H -0.153545 7.06903 5.32648
O 1.61499 10.2236 7.25
H 2.20945 10.8788 7.71609
H 1.15009 9.65432 7.92809
O -2.65187 3.18773 -4.70794
H -1.70533 3.14736 -4.3879
H -3.21021 3.67508 -4.03657
O 11.5321 13.8999 -1.91439
H 11.2614 13.3092 -2.6745
H 11.3067 13.4533 -1.04853
O 7.0549 -9.73013 -12.6045
H 6.68671 -9.4952 -13.5041
H 7.77296 -9.0793 -12.3579
O 0.210111 12.4313 0.687426
H 0.562195 11.8293 1.40414
H -0.77333 12.5607 0.814202
O 13.344 -10.5263 -5.07355
H 12.5531 -9.91562 -5.03422
H 13.3158 -11.1585 -4.29932
O -2.36909 2.04469 -14.3313
H -2.42564 1.29345 14.9021
H -3.26863 2.19809 -13.9223
O 6.3994 -13.757 -0.784394
H 6.20351 -14.3566 -1.56029
H 7.23944 -14.0588 -0.333613
O -1.35905 4.61651 14.4857
H -1.49688 3.69994 14.8611
H -0.436419 4.68606 14.1064
O -12.2517 -6.6726 -8.56655
H -11.8934 -7.17193 -7.7777
H -13.169 -6.33355 -8.35783
O -11.894 3.58582 6.97442
H -11.9252 3.80026 7.95065
H -12.815 3.64807 6.58985
O 12.5605 -7.1214 -9.83807
H 13.5528 -7.20442 -9.74549
H 12.3364 -6.81798 -10.7642
O 5.87257 4.17654 0.0355114
H 5.7673 5.05416 0.503158
H 6.70251 3.72313 0.360493
O 6.12181 -4.89689 3.36115
H 6.79305 -4.20716 3.08967
H 5.58822 -5.17519 2.56252
O 2.58002 1.21564 -10.9555
H 1.92091 0.814278 -11.5915
H 3.11751 0.488028 -10.5293
O 7.93873 -12.2157 14.5909
H 7.43809 -11.9511 13.7667
H 8.65196 -11.5404 14.7788
O -10.1696 6.69326 10.0307
H -9.92626 7.20843 10.8525
H -10.3359 7.32825 9.27634
O 14.398 14.4351 11.2193
H -14.5296 14.3325 11.4669
H 13.8552 13.7463 11.6997
O 8.75054 10.5 -10.8277
H 9.40495 11.2486 -10.9346
H 8.6509 10.0175 -11.6979
O 0.18163 1.62245 -14.2577
H 0.352148 1.05694 -13.4508
H -0.800649 1.78652 -14.3482
O -13.8741 -10.8198 -10.5625
H -13.0902 -10.4818 -10.0417
H -14.5889 -11.1207 -9.93118
O 3.92289 3.13748 -6.56746
H 4.2721 2.20679 -6.67631
H 3.36903 3.38092 -7.36368
O 13.241 -13.5513 13.4386
H 12.8228 -12.6605 13.261
H 13.9292 -13.7419 12.7386
O 3.55358 10.8101 -13.5657
H 3.19512 10.4829 -12.6914
H 3.5216 11.8094 -13.586
O -12.3418 -8.39317 1.50789
H -12.4161 -8.05833 0.568556
H -12.2343 -7.61808 2.13052
O -1.99694 -9.62796 -1.12803
H -1.68432 -9.68375 -0.179797
H -2.94979 -9.32519 -1.14757
O 12.0252 13.8757 2.11308
H 12.3823 14.4574 1.38228
H 12.4589 14.1245 2.97912
O -4.91742 -6.62621 0.63514
H -5.62646 -6.21412 0.062936
H -5.22316 -6.63917 1.58716
O -8.20242 -5.27254 11.741
H -7.65265 -6.06646 12.0007
H -8.29728 -5.24389 10.7459
O 2.44907 -14.8093 -3.14272
H 2.49806 14.674 -4.05452
H 1.6956 14.6672 -2.63234
O -12.6523 3.24661 -9.69191
H -13.0348 3.90735 -9.0461
H -12.9935 3.44311 -10.6111
O 13.4329 -10.1217 -0.481164
H 14.3006 -10.2976 -0.94608
H 13.5938 -10.0304 0.501562
O -13.4187 13.005 12.2351
H -13.6893 12.2267 12.8016
H -12.4279 13.1287 12.2899
O -14.0085 6.24112 7.83005
H -13.197 6.51839 7.31583
H -14.6529 7.00464 7.87299
O 13.7449 7.55319 5.14065
H 13.0586 8.16829 5.52876
H 13.2983 6.72209 4.80929
O 6.28291 1.28274 12.5567
H 5.75317 2.13084 12.547
H 6.74616 1.16908 11.6778
O -2.81026 -13.8723 0.330899
H -2.60627 -14.4678 1.10788
H -3.75459 -13.55 0.396892
O -9.30289 -11.862 3.44785
H -9.11652 -11.4896 2.53871
H -9.00713 -12.8166 3.48403
O 11.0809 -1.16472 -13.0811
H 11.6802 -0.473607 -12.6772
H 10.7487 -0.841171 -13.9671
O -6.89669 -6.1003 -1.10121
H -7.43138 -5.26622 -1.23682
H -7.41191 -6.8859 -1.44379
O 10.4352 -13.2571 11.4098
H 10.2197 -13.6806 12.2897
H 11.0957 -12.5191 11.548
O 4.58555 3.67858 12.2315
H 5.37944 4.28506 12.2751
H 4.116 3.68028 13.1144
O 7.12547 7.58505 8.92965
H 6.16868 7.67864 9.2049
H 7.21935 7.82509 7.96344
O -1.34071 -9.85885 10.9605
H -1.8013 -9.29181 10.2776
H -1.96527 -10.5728 11.277
O 6.15267 9.59652 -10.2422
H 5.70525 8.718 -10.4095
H 7.08633 9.56841 -10.5992
O -8.45026 8.44939 -14.1398
H -8.04565 9.35105 -13.9872
H -8.28689 7.87115 -13.3404
O 7.11866 11.9169 1.68851
H 8.07835 12.1027 1.89937
H 6.99022 11.9119 0.696812
O 7.7846 3.09157 -4.5681
H 6.82819 3.37389 -4.64265
H 8.23245 3.19358 -5.45637
O 4.6498 12.3647 5.15689
H 3.93793 12.7215 4.55201
H 4.29016 12.2897 6.08696
O 11.8682 2.40881 -5.46608
H 12.5512 1.77051 -5.82113
H 11.0192 1.91618 -5.27481
O 5.60965 -5.93947 0.662457
H 5.83636 -6.87731 0.925215
H 6.26521 -5.6169 -0.0203174
O -2.30141 8.1602 -14.2277
H -1.98177 7.55978 -13.4947
H -3.24047 7.91782 -14.4715
O -8.86154 -13.1984 -7.29668
H -8.53998 -13.5799 -8.16329
H -8.11032 -13.1907 -6.63669
O 14.3653 9.12282 -6.01564
H 14.3686 10.1219 -6.05816
H -14.6221 8.77552 -6.26607
O 14.2636 14.8227 -13.7206
H 14.6123 -14.4719 -12.9976
H 14.4327 -14.6462 -14.6112
O -5.71759 -11.7536 13.8823
H -4.73548 -11.6822 14.0564
H -6.02663 -10.9461 13.3799
O -5.11934 -2.57144 2.16316
H -5.02542 -1.59016 1.99507
H -4.27185 -2.9243 2.55967
O -3.18198 4.30854 12.4489
H -3.52061 3.50112 12.932
H -2.40776 4.69604 12.9493
O -5.52079 8.10627 -9.67263
H -5.68831 7.71721 -8.76678
H -4.72013 7.66776 -10.0808
O -7.79464 8.67405 12.4806
H -7.60237 7.69552 12.5547
H -8.78156 8.81481 12.4021
O -0.0662259 9.92161 5.14
H -0.579803 10.7763 5.06381
H 0.58516 9.9904 5.89561
O -12.71 -1.38772 -13.5902
H -13.2961 -0.706502 -13.1515
H -12.0588 -1.74714 -12.9218
O -2.51124 6.71622 -4.36714
H -2.33417 6.23423 -5.22523
H -3.38292 6.40851 -3.98575
O 7.74724 12.257 -8.01022
H 8.38321 11.5678 -8.35732
H 6.96696 12.3333 -8.63097
O -14.8528 4.40564 12.7424
H -14.6645 3.92959 11.8834
H 14.5772 5.27177 12.5494
O -3.49741 -3.87841 9.97081
H -2.51722 -3.81421 10.1581
H -3.83343 -4.77565 10.2572
O 9.92694 4.44427 -9.75874
H 10.4419 4.30757 -8.91253
H 10.0179 3.63475 -10.3387
O 1.6546 -2.58244 2.94978
H 0.723969 -2.4131 3.27416
H 1.62158 -2.95798 2.02357
O -14.6249 -0.0321404 1.74407
H 14.7754 -0.159254 2.60605
H 14.6738 0.437549 1.08944
O -10.8845 -0.0747796 -3.80188
H -11.3792 -0.941154 -3.73391
H -11.1424 0.517085 -3.0382
O 11.141 12.112 -6.63845
H 10.8404 12.9583 -7.07818
H 10.6293 11.3403 -7.01612
O 7.58814 12.0857 -14.6722
H 7.06413 11.4744 -14.0792
H 7.88715 12.8831 -14.1481
O 0.85273 -13.6634 7.86318
H 0.784894 -13.1457 7.01032
H -0.0592615 -13.9601 8.14645
O 9.27111 -13.1806 1.60933
H 8.54724 -13.8288 1.84565
H 9.55862 -13.3323 0.663635
O 12.4105 -8.45296 -12.8302
H 11.5637 -8.59382 -13.3431
H 12.6966 -9.31675 -12.4154
O -12.802 5.7292 13.4971
H -13.6546 5.2335 13.332
H -13.0092 6.63498 13.8667
O 9.14815 -4.22943 0.367589
H 8.64671 -3.86971 1.15445
H 8.50455 -4.63921 -0.278817
O -5.14428 2.71499 14.1997
H -5.45714 1.96696 13.6144
H -5.49627 2.5828 -14.7647
O -8.96915 10.3534 -7.0381
H -9.8032 9.80177 -7.03614
H -8.47014 10.2001 -7.89102
O -4.46749 -13.5953 6.70849
H -3.61663 -13.0725 6.65641
H -5.10117 -13.2715 6.00594
O 0.756094 5.22412 10.2103
H -0.157934 4.98132 9.88533
H 1.09351 6.01334 9.69718
O 13.86 11.7359 -5.59391
H 12.9029 11.6789 -5.87793
H 13.9752 12.5027 -4.96241
O -2.05948 12.3925 9.13332
H -2.22494 11.6907 8.44053
H -2.85774 12.4655 9.73118
O 9.55958 0.834713 -4.63229
H 9.50395 1.60751 -4.0001
H 8.68693 0.730974 -5.10949
O -14.3991 0.832772 -6.62243
H 14.6124 0.38144 -6.47139
H -14.5195 1.82401 -6.56843
O 3.53202 7.349 -12.0618
H 3.451 8.15697 -11.4782
H 2.75846 6.73785 -11.8942
O 0.853545 4.38529 12.7383
H 1.05158 4.68402 11.8047
H 1.70256 4.10356 13.1852
O -8.13668 -0.892197 -5.17185
H -8.83677 -0.364417 -4.69091
H -7.92492 -1.71846 -4.64989
O 1.61521 -11.5098 2.6871
H 1.77858 -11.4711 1.7013
H 1.20634 -12.3915 2.9228
O -14.3268 -5.6813 5.29052
H -14.8423 -5.17987 5.98541
H -14.2084 -6.63009 5.58337
O 13.0348 -6.00343 -12.9424
H 12.4924 -6.83588 -13.0554
H 14.0019 -6.2443 -12.8608
O 0.945962 10.7265 2.69656
H 0.49624 10.4822 3.55567
H 1.83452 10.2707 2.64416
O -0.0109926 -13.7408 2.86649
H -0.150578 -14.2472 3.71736
H -0.876136 -13.6807 2.3686
O -12.7003 -4.64867 -10.444
H -13.3102 -5.29863 -10.8975
H -12.1743 -5.12225 -9.73764
O -0.0907724 -10.4732 -9.18316
H 0.00333755 -9.47767 -9.18672
H 0.604917 -10.8716 -8.58545
O 3.03658 -7.83967 -9.18143
H 3.28255 -8.80562 -9.26156
H 3.8684 -7.28593 -9.14365
O -2.6888 8.38671 -2.03287
H -2.83117 9.37344 -2.11083
H -2.47278 8.00896 -2.93322
O 10.8875 12.2745 -11.5036
H 10.8237 12.0044 -12.4643
H 11.8075 12.6176 -11.3143
O -4.83319 13.276 -9.70778
H -4.45023 13.7944 -8.94318
H -4.8426 12.3026 -9.47902
O -11.0653 1.61622 4.85312
H -11.1967 2.20664 5.64942
H -10.1353 1.2487 4.86054
O -4.84247 -6.09401 -13.1456
H -4.87819 -6.33455 -14.1155
H -5.07466 -6.89559 -12.5946
O 5.33369 8.06147 13.4005
H 4.51895 7.51182 13.216
H 5.74815 8.34394 12.5354
O 8.68781 -3.05847 7.24441
H 7.73129 -2.77875 7.16184
H 8.73534 -3.96139 7.67158
O -13.9107 -12.1581 11.5671