2593
Atoms. Timestep: 1000000
O -0.840184 5.59585 -0.011838
H -0.547273 6.22865 0.704913
H -0.824705 6.06317 -0.895774
O 7.66644 10.2494 -12.9419
H 8.07115 10.3824 -13.8466
H 6.69065 10.465 -12.9783
O -4.77893 13.811 -1.91682
H -5.44808 13.4108 -1.29073
H -3.9742 14.1051 -1.40113
O 10.72 -3.67549 10.5166
H 10.029 -2.9859 10.2996
H 10.6489 -3.92623 11.482
O 5.68977 10.8783 5.89865
H 5.33328 10.7896 6.82871
H 5.95423 11.8282 5.73224
O -13.6639 -3.56314 -4.43324
H -12.9096 -3.67565 -3.78645
H -14.525 -3.48467 -3.93078
O 11.8725 9.61591 3.82319
H 12.4769 9.13157 4.4557
H 10.9245 9.3507 3.99905
O -12.8969 -10.7192 9.67136
H -13.0134 -11.0404 8.73156
H -13.0125 -9.72639 9.70105
O -6.3148 3.02561 11.6241
H -6.92619 2.951 10.8363
H -6.79065 3.48714 12.3727
O 6.68051 6.84346 5.66883
H 7.59301 6.44368 5.75532
H 6.01253 6.2495 6.11715
O -3.30126 6.59595 3.27063
H -2.38148 6.65962 2.88343
H -3.38725 5.74398 3.78708
O 9.15764 1.18619 -10.9382
H 8.22464 1.33084 -11.2676
H 9.77122 1.84368 -11.3754
O -3.9604 -14.2893 9.45048
H -4.40391 -14.1472 10.3354
H -3.61064 -13.4169 9.10905
O 12.0976 -13.4105 -1.54453
H 11.9171 -14.3245 -1.18117
H 12.6101 -12.8789 -0.870217
O 9.48859 -7.06346 -13.3417
H 8.58788 -7.38502 -13.6337
H 10.1361 -7.15356 -14.0983
O -0.697834 -5.64168 13.9612
H 0.0665261 -5.31498 14.5171
H -1.0628 -4.88504 13.4188
O -7.0137 -5.01025 -9.74869
H -7.3005 -5.3672 -10.6377
H -6.36474 -4.26154 -9.88375
O -14.3979 9.40124 3.11625
H 14.8338 10.127 3.30378
H -14.7262 8.8387 2.35747
O -2.3936 2.88683 10.126
H -2.15312 2.26851 9.37778
H -3.24908 3.35664 9.90826
O -5.01356 0.399489 -9.9254
H -4.80121 -0.2857 -10.6221
H -5.17973 1.28192 -10.3655
O -12.6511 13.7494 3.06826
H -13.3316 14.2318 2.51676
H -13.0593 13.4798 3.94043
O -13.9418 -5.80025 -14.323
H -13.7239 -6.7595 -14.5028
H -14.7856 -5.74451 -13.7893
O -13.2737 -11.9658 6.81439
H -12.4386 -12.4612 7.05378
H -14.0459 -12.6011 6.80135
O -0.351347 -11.9284 -12.3404
H -0.0185533 -12.2302 -13.2337
H -1.23496 -11.4733 -12.4502
O -9.15258 -6.12286 14.2833
H -8.31373 -5.57915 14.2571
H -9.94386 -5.52 14.1814
O 3.92496 12.2126 -2.28674
H 3.78621 11.8629 -3.21325
H 3.51619 13.1219 -2.20901
O -6.84821 -5.30394 -12.5914
H -6.90125 -6.18882 -13.0541
H -7.16729 -4.58514 -13.209
O 13.4726 -9.86197 1.09604
H 12.8769 -9.22265 0.609859
H 14.4283 -9.61664 0.933229
O -7.40213 -3.72721 2.44172
H -8.37507 -3.92235 2.31814
H -7.1711 -2.87444 1.97334
O -7.8538 1.37736 7.1377
H -8.52623 1.83449 7.7198
H -7.93385 0.386977 7.2504
O 10.0898 3.15614 -0.570891
H 10.9309 3.3456 -1.07747
H 9.43966 3.90247 -0.713306
O 14.5158 -5.41949 6.27605
H -14.915 -4.77084 6.88027
H -14.6964 -5.96844 5.79191
O 3.46624 4.56993 -3.65955
H 2.71268 4.51114 -3.00482
H 3.45205 3.76814 -4.25696
O -9.28 11.0763 -6.91622
H -8.73297 11.4004 -6.1444
H -9.8887 10.3446 -6.60943
O -12.0768 -0.096846 12.9189
H -12.3 -0.916279 12.391
H -11.0845 -0.0259771 13.0207
O -10.4523 -8.23055 12.4122
H -10.9163 -8.89369 12.9995
H -9.96606 -7.56586 12.9794
O -5.72403 9.25072 -12.1873
H -5.51446 9.49413 -11.2403
H -5.17586 9.81415 -12.8054
O 11.3008 -6.07201 3.98966
H 11.5989 -6.90452 4.45661
H 11.7728 -5.99527 3.11141
O 3.30393 0.925736 12.1372
H 3.04405 1.78897 12.5699
H 2.62905 0.223239 12.363
O 9.11765 -1.3813 10.0331
H 8.84137 -0.63378 10.6371
H 9.46467 -1.00484 9.1741
O 1.33653 6.35727 7.60928
H 1.30003 6.44818 8.60445
H 0.464291 6.64773 7.21583
O 12.8395 -13.783 -8.18403
H 13.291 -14.6022 -7.83048
H 12.2521 -13.3937 -7.47457
O 12.9795 9.67517 -9.90481
H 13.8579 10.1429 -10.0026
H 12.5956 9.87215 -9.0027
O 3.15472 13.5042 5.94973
H 3.33831 12.8995 6.72466
H 3.13778 12.9685 5.10554
O -0.893836 -10.3459 3.35028
H -1.41234 -11.0446 3.84316
H -1.37521 -9.47126 3.40754
O -6.79927 -8.3424 -12.7449
H -5.95331 -8.03957 -12.306
H -6.57852 -8.9012 -13.5443
O 9.62858 -8.79187 5.35718
H 9.5774 -9.7706 5.55579
H 9.84988 -8.29287 6.19503
O 13.0063 -4.3812 14.5985
H 13.8896 -4.47978 14.1402
H 13.1486 -4.31866 -14.3071
O 8.8076 -1.39725 0.298415
H 8.48464 -0.464701 0.459726
H 9.69055 -1.36784 -0.170103
O -9.45655 -11.2381 14.5809
H -9.30409 -11.6143 -14.3987
H -8.77284 -10.5331 14.3924
O -1.92134 0.411818 12.5902
H -2.18074 1.15096 11.9686
H -2.64528 0.275497 13.2664
O 3.77144 -9.62043 8.15195
H 4.15224 -8.91227 8.7465
H 4.30078 -9.66441 7.3047
O 2.0575 -1.66251 -8.35854
H 1.3528 -2.31862 -8.62853
H 1.62555 -0.859637 -7.9477
O -2.63764 14.6193 0.0113437
H -2.86875 -14.5112 0.614979
H -1.93549 14.0534 0.443388
O -2.92383 -9.63779 -6.42212
H -1.93075 -9.52478 -6.45352
H -3.35051 -9.0215 -7.08402
O -2.62965 -0.651873 3.39091
H -2.91803 -0.0892769 4.1657
H -1.7621 -1.09912 3.60839
O 2.78344 -8.74751 -10.3743
H 1.98248 -9.34453 -10.4191
H 3.38126 -9.047 -9.63074
O -8.954 4.90135 3.94448
H -8.7994 4.68838 4.90922
H -8.17197 4.58959 3.40485
O -10.1742 -4.02021 1.7248
H -10.3561 -5.00336 1.74108
H -10.917 -3.53607 2.18719
O 1.19904 9.29517 -0.81162
H 0.517299 9.54246 -1.50013
H 0.838536 9.49196 0.100125
O -14.7497 10.97 -1.36167
H 14.8815 10.0139 -1.23132
H -13.7563 11.0563 -1.28734
O -9.59889 6.07614 14.1019
H -10.3116 5.39837 14.2828
H -9.69691 6.8409 14.7387
O 5.07044 -8.28363 10.501
H 5.47408 -9.19646 10.5625
H 4.52879 -8.10266 11.3218
O -7.62929 -14.4064 -9.1102
H -8.31173 -14.7679 -9.74547
H -7.90287 -14.6171 -8.17173
O -3.63866 13.0477 -11.1098
H -4.48313 12.7112 -10.6931
H -3.83675 13.8645 -11.6515
O -6.01705 6.05059 -9.57931
H -5.08909 6.37523 -9.39636
H -6.65446 6.48865 -8.94543
O -12.2534 4.65844 14.8963
H -12.2346 4.50295 13.9087
H -12.2081 3.78048 -14.5206
O 8.76388 -6.59902 13.1869
H 8.21851 -7.19418 13.7771
H 9.73586 -6.77277 13.3451
O 0.0384842 11.7016 5.72045
H 0.359993 12.3155 6.44143
H 0.610023 11.814 4.90763
O 7.23738 -5.09644 11.254
H 7.39221 -5.81202 10.5729
H 7.7505 -5.31074 12.0852
O 12.7915 -0.765217 11.4159
H 13.0542 0.185588 11.2518
H 13.5056 -1.22145 11.9468
O 10.1523 -3.95272 7.03447
H 11.0888 -3.65803 6.84465
H 9.50967 -3.31808 6.60519
O -3.89263 -4.79142 6.85655
H -4.62174 -4.67356 6.18239
H -4.27392 -4.71063 7.77745
O -3.0002 -11.9243 9.08888
H -3.35164 -11.3066 8.38542
H -2.80702 -11.4056 9.92169
O -4.6699 -8.3259 -10.9204
H -5.29057 -8.96545 -10.4669
H -4.27946 -7.70294 -10.2426
O 4.40834 -9.08399 -7.95453
H 5.06613 -8.73691 -7.28609
H 4.52476 -10.0721 -8.05464
O 9.44872 -4.86181 1.45025
H 9.25195 -5.63235 2.05648
H 9.01353 -4.03598 1.80885
O -14.3685 -14.936 0.892209
H -13.4608 -14.8005 0.495123
H 14.9177 -14.1994 0.594664
O 3.33133 -2.56986 -3.21791
H 3.37777 -2.78206 -4.19402
H 4.05442 -1.9202 -2.98327
O -6.09925 -1.09816 8.78455
H -6.04163 -2.09506 8.83772
H -5.76824 -0.699075 9.63962
O 3.99406 -8.19869 -14.2582
H 3.11583 -8.66304 -14.1439
H 3.9341 -7.27463 -13.8807
O 6.64243 -9.5553 -1.99193
H 5.79014 -9.14091 -1.67279
H 7.39987 -9.24361 -1.41825
O -13.6139 5.78815 8.28614
H -13.6342 5.58224 7.30779
H -13.5576 6.77789 8.41734
O 5.0026 -2.10768 8.92464
H 4.38113 -2.38759 8.19293
H 5.94705 -2.2758 8.6423
O 11.3364 7.62454 8.53114
H 11.2971 7.46346 9.51728
H 11.2808 6.75067 8.0482
O -10.1224 5.93804 -7.84027
H -10.9362 6.39244 -8.20264
H -10.2336 4.94697 -7.91366
O -12.0285 11.5878 5.23291
H -11.9769 11.9552 6.16153
H -11.1601 11.7462 4.76305
O -10.6536 7.32865 -11.621
H -10.5681 8.08465 -10.9721
H -10.5465 7.6755 -12.5528
O 14.4118 -12.3847 0.486897
H -14.6 -12.3455 0.957002
H 13.918 -11.5275 0.632646
O -8.46538 -11.1365 11.1805
H -7.7138 -11.4857 10.6208
H -8.36094 -11.4629 12.1199
O 1.67898 -12.5095 -8.27624
H 1.82762 -12.9557 -7.39378
H 1.61937 -13.2027 -8.99446
O 10.45 13.5638 4.63485
H 11.2086 13.5556 3.98331
H 9.60713 13.2954 4.1685
O -0.157858 10.1702 1.68074
H 0.478223 9.73385 2.31709
H -0.964481 9.5905 1.56568
O 7.76965 9.46993 2.29742
H 6.92652 9.2952 2.80592
H 8.55707 9.22898 2.86477
O 1.66773 14.1585 14.5163
H 2.47954 13.9669 13.9647
H 1.89326 14.0628 -14.4078
O -6.21897 12.0033 0.212308
H -5.43434 12.0568 0.829937
H -7.04164 11.784 0.736776
O -3.09138 10.4923 13.8941
H -2.70114 11.1302 14.558
H -3.70289 9.85538 14.3635
O -9.23857 -8.7159 10.2077
H -8.78907 -9.58972 10.3931
H -9.53068 -8.30188 11.0698
O -4.44435 8.62227 -14.5181
H -5.05329 8.3869 -13.7607
H -3.55577 8.18496 -14.3797
O -11.7141 -1.9139 4.24851
H -11.5674 -1.0513 3.76439
H -12.2504 -2.53179 3.67354
O 9.32424 -10.0469 10.2644
H 9.39539 -9.5798 9.38304
H 9.91191 -9.58997 10.9321
O 7.9263 -2.43015 -8.38527
H 7.59927 -2.16949 -9.2936
H 7.78471 -3.41059 -8.2487
O -10.2724 8.16921 -14.1823
H -9.99735 8.88838 -14.8204
H -11.2605 8.02863 -14.2444
O -12.249 -6.84449 -2.66899
H -13.1779 -6.83877 -2.29865
H -12.1804 -7.53804 -3.3861
O -5.12185 -7.96848 13.847
H -4.30201 -7.48652 14.1561
H -5.13198 -8.89069 14.2335
O -12.2156 0.498752 2.76576
H -11.857 1.27872 2.25288
H -12.7893 -0.0591491 2.16609
O 7.55643 14.0682 -5.64816
H 7.75438 14.7478 -4.94173
H 8.40836 13.7921 -6.09302
O -14.4637 6.70437 -11.8546
H -14.751 5.78642 -12.128
H -14.0639 6.66945 -10.9386
O -1.63302 8.98109 12.0565
H -2.02838 9.64932 12.6867
H -0.819263 9.37058 11.6251
O 11.4457 10.3328 0.765112
H 12.1153 11.0674 0.65585
H 11.531 9.93734 1.67959
O -0.398214 7.17752 -2.25836
H -0.719068 7.51018 -3.14513
H 0.324135 6.50025 -2.39793
O 10.6769 -3.23083 -7.86687
H 11.0987 -2.77092 -7.08545
H 9.7232 -2.94168 -7.94889
O 5.46086 8.54486 -9.54149
H 5.98177 8.06642 -10.2484
H 5.40475 7.9721 -8.72371
O -4.26667 -5.5552 2.38961
H -4.49202 -4.63419 2.07192
H -5.10195 -6.02035 2.68273
O -8.14697 -13.5859 -4.27919
H -7.85809 -12.7674 -4.77581
H -8.20892 -13.3788 -3.30284
O 6.61813 6.0304 -3.82735
H 7.53166 6.29371 -4.13734
H 6.6756 5.17903 -3.30597
O 6.50924 -13.5428 -1.69254
H 6.35989 -14.3309 -1.09541
H 6.26517 -12.7044 -1.20522
O 5.47823 -11.7506 -13.5295
H 5.96611 -11.5813 -14.3858
H 4.75953 -12.4285 -13.6838
O -0.0744589 -7.926 -0.370023
H 0.69782 -8.50306 -0.635656
H -0.556168 -7.61581 -1.1896
O 0.339882 9.73361 -6.79991
H -0.135547 9.29412 -7.562
H 0.325089 9.12817 -6.00417
O 12.1167 3.56979 8.9777
H 12.783 2.94967 8.5635
H 11.2084 3.3806 8.60468
O 3.63653 7.35812 1.95578
H 4.5788 7.54083 2.23634
H 3.50962 7.64598 1.00657
O 11.8439 -12.4642 4.13304
H 11.5262 -13.0083 4.90958
H 11.6187 -12.9364 3.28082
O -9.3661 7.40268 11.6163
H -9.40117 7.08191 12.5628
H -9.07385 8.35885 11.599
O -8.41348 -8.33595 -7.75145
H -8.59496 -7.35561 -7.67416
H -9.18644 -8.84851 -7.37758
O -6.89116 9.59484 9.90964
H -7.58442 9.42509 10.61
H -7.33048 9.95244 9.08558
O 5.32117 10.3036 -5.94313
H 5.88771 9.74627 -6.55007
H 4.86494 11.017 -6.47497
O -4.71972 10.5566 -6.71045
H -5.50141 10.7253 -7.31085
H -4.66462 11.2811 -6.02347
O 9.79203 -9.19331 -11.1557
H 10.5284 -8.90253 -10.5449
H 9.42816 -8.39835 -11.6411
O -7.22421 12.491 -12.5136
H -6.62525 12.1793 -13.2512
H -6.67662 12.6883 -11.7005
O -9.7791 -11.6156 -10.7802
H -10.2317 -11.7401 -9.89719
H -9.7498 -10.6418 -11.0054
O -1.13817 5.71427 -8.49791
H -0.145259 5.78999 -8.40647
H -1.36573 5.41588 -9.42482
O -10.8539 -11.1583 -4.07974
H -10.0589 -10.7203 -3.66003
H -11.0114 -12.0466 -3.64842
O 2.75727 -12.9909 -1.13184
H 2.84923 -12.4182 -1.94643
H 1.84652 -12.8666 -0.738094
O -3.05478 -8.29694 0.274912
H -3.0373 -7.98658 -0.675534
H -2.42953 -7.73804 0.819594
O -14.5241 -0.634482 1.59424
H 14.6872 -0.0742251 1.12447
H -14.816 -0.794136 2.53725
O 12.4539 -10.8775 7.86367
H 12.0706 -11.5609 7.24241
H 12.7701 -10.0884 7.33703
O -6.11529 12.4409 -9.99898
H -6.53988 11.5448 -9.87027
H -6.07822 12.9212 -9.12263
O 8.98186 -8.5921 -1.02274
H 9.10498 -8.31762 -1.97641
H 9.86309 -8.56268 -0.551007
O 8.97505 -8.13768 -3.82175
H 9.52864 -8.23125 -4.64925
H 8.03477 -8.41687 -4.01643
O -9.98285 -7.32331 -5.38018
H -10.9017 -6.93315 -5.321
H -9.30993 -6.63329 -5.11367
O -13.5568 2.35638 -12.8693
H -12.9064 2.5381 -12.1318
H -13.1862 1.65194 -13.4746
O 14.5856 -13.7369 6.86735
H 13.5908 -13.7806 6.95918
H 14.9002 -14.4884 6.28749
O 12.9042 -3.21285 6.57791
H 13.4332 -4.03852 6.38198
H 13.1206 -2.88906 7.49894
O 14.7767 14.1156 -10.5532
H -14.6375 13.4944 -11.1732
H 14.8219 -14.8465 -10.914
O 9.96473 -10.0084 2.77497
H 10.4912 -10.8356 2.97143
H 9.99183 -9.39991 3.56803
O -5.82982 -5.42564 10.4034
H -5.20649 -4.64396 10.3833
H -5.30609 -6.2661 10.5423
O 2.77345 6.22932 -6.10521
H 3.0151 5.50289 -5.46187
H 2.78741 7.1108 -5.63321
O 13.4809 12.649 0.28442
H 14.0767 13.35 0.676361
H 14.0057 12.0827 -0.351104
O 4.95869 13.6543 -6.18963
H 4.9054 13.2129 -7.08533
H 5.91515 13.7146 -5.9041
O 3.92214 8.72744 -12.9825
H 3.57304 8.55295 -12.0618
H 3.17091 9.02073 -13.5738
O 13.8199 9.37 -5.82659
H 14.4178 10.1708 -5.86147
H 13.1364 9.49547 -5.10753
O 14.0142 -9.95194 -12.4248
H 13.592 -10.8519 -12.3163
H 14.5399 -9.72929 -11.6038
O 11.184 -0.76482 -3.57693
H 10.2094 -0.586677 -3.71283
H 11.5809 -1.11244 -4.4264
O 1.89094 -5.46774 -13.4688
H 2.88108 -5.35867 -13.5565
H 1.4348 -4.63499 -13.7825
O -4.38362 -7.3641 7.91045
H -3.90704 -6.69487 7.34038
H -4.04023 -7.30809 8.84795
O 1.54545 -1.09625 12.5231
H 1.45838 -1.28699 11.5453
H 2.12686 -1.79032 12.9476
O 12.0606 -9.05182 -6.34289
H 12.8536 -9.63334 -6.16106
H 11.222 -9.57776 -6.20105
O 10.8628 6.00054 6.43958
H 10.0499 5.93107 7.01789
H 10.5873 6.02009 5.47847
O -2.83063 -9.92286 -3.11833
H -3.54873 -10.5637 -2.84697
H -2.8511 -9.79996 -4.11052
O 14.7614 -6.61452 10.349
H 14.4595 -7.27522 11.0363
H 14.4837 -6.92781 9.44091
O 5.98786 -5.47605 7.15768
H 5.16573 -5.67041 7.69274
H 6.25145 -6.29211 6.64334
O 0.483536 3.80593 6.8517
H 0.880164 4.70419 7.0409
H 1.12579 3.09235 7.13148
O 9.98653 -10.1769 14.5963
H 10.194 -9.84961 13.6745
H 10.8174 -10.5439 -14.8789
O 0.454338 -10.7972 7.35609
H 0.00313651 -11.5157 6.82688
H 1.25957 -11.1753 7.81279
O -8.20076 4.98008 7.00864
H -8.24934 5.44738 7.89139
H -8.81322 4.18962 7.01581
O -7.22363 -3.75566 8.89422
H -6.69187 -4.46264 9.36046
H -8.18117 -3.81898 9.17544
O 7.76836 -4.73377 -0.83648
H 8.36393 -5.15262 -0.151037
H 6.89141 -5.21399 -0.854221
O -0.659227 -13.4035 7.38509
H -0.168766 -13.8261 8.14718
H -1.59951 -13.2061 7.66235
O 13.553 6.938 -14.9198
H 13.9487 7.77863 -14.55
H 14.1295 6.5966 14.2315
O -3.87261 6.41952 6.29479
H -4.85614 6.59765 6.32473
H -3.71333 5.47747 5.99957
O -6.83332 11.3034 12.8757
H -5.91994 11.4875 12.5126
H -7.00664 10.3187 12.8584
O -3.78908 11.5965 1.40735
H -3.42429 10.6685 1.33249
H -3.10972 12.2497 1.07292
O 0.824888 -13.8776 9.86176
H 1.41106 -14.5474 10.3175
H 1.3707 -13.0828 9.59654
O 6.3775 14.6308 4.48178
H 6.77573 14.0256 3.79245
H 5.60609 -14.7663 4.08379
O -2.85372 -9.99315 -12.4175
H -2.52336 -10.2661 -11.514
H -3.3851 -9.14983 -12.3374
O 13.8828 -14.4821 14.5105
H 13.6913 14.7325 13.8017
H 14.8486 -14.2256 14.4741
O -3.60349 7.84029 -6.07561
H -3.91507 7.15838 -6.73735
H -4.00393 8.72893 -6.2991
O 2.41396 11.6391 3.96638
H 2.83414 10.7337 3.90548
H 2.48439 12.0994 3.08146
O 10.282 -6.9545 7.39372
H 10.0248 -6.11598 6.91343
H 10.1988 -6.81255 8.38008
O 10.0769 6.45244 -13.5273
H 10.046 5.75897 -12.8075
H 10.208 7.35436 -13.1158
O 0.819996 -3.18672 -11.1675
H 0.847962 -2.72672 -12.055
H 1.7163 -3.58336 -10.9693
O 3.7358 -3.70552 -11.3006
H 4.13627 -4.11682 -12.1194
H 4.11438 -4.14651 -10.4869
O 1.40299 -8.57259 4.56667
H 2.01564 -8.9067 5.28291
H 0.835712 -9.32634 4.23495
O -5.46973 -1.35818 6.16593
H -4.71547 -0.74818 5.92311
H -5.75856 -1.17352 7.10531
O -11.9744 1.68555 5.25197
H -12.7355 2.33408 5.2641
H -12.1948 0.924399 4.64201
O 8.38916 1.84793 -4.84614
H 8.33443 1.20511 -5.61018
H 9.00947 2.59555 -5.08334
O 11.5073 0.593606 -9.94718
H 12.0025 -0.0978776 -10.4731
H 10.5261 0.50215 -10.1171
O -10.6859 11.6086 9.08999
H -10.1218 10.8605 8.74047
H -11.0341 11.3682 9.99603
O -8.30148 14.3017 -5.98729
H -8.42089 13.4934 -5.41086
H -8.20848 -14.7811 -5.40932
O 1.92119 -6.18248 -10.8421
H 1.84477 -5.80645 -11.7655
H 2.19789 -7.14198 -10.8947
O 3.61857 2.58529 -5.53787
H 2.87577 2.55201 -6.20654
H 4.25972 3.31087 -5.78775
O 7.99306 1.67638 13.5579
H 7.52951 2.4838 13.193
H 8.95018 1.89758 13.7449
O -7.69203 9.00108 -4.31775
H -7.9544 8.91859 -3.35633
H -8.16396 8.30077 -4.85331
O 13.4333 0.70951 0.00457777
H 13.5348 1.06911 -0.92297
H 12.7228 0.00587854 0.0133332
O -11.8025 11.592 -0.647414
H -11.0155 12.1679 -0.426254
H -12.204 11.2377 0.197091
O -12.269 9.12738 10.0557
H -12.0207 9.94051 10.5822
H -11.4568 8.76604 9.59774
O 10.2254 0.284954 -13.5403
H 10.2503 0.285273 -14.54
H 10.5242 1.17623 -13.1992
O 7.80059 -12.7102 -12.3857
H 8.28354 -12.9346 -13.2321
H 7.15081 -11.9701 -12.5588
O 10.5119 9.45192 -13.1563
H 10.1821 9.9843 -12.3767
H 9.89935 9.58698 -13.9351
O -12.0822 -13.8961 -0.49551
H -11.3844 -14.5821 -0.289492
H -12.1819 -13.8093 -1.48672
O 13.4788 12.7946 -8.54045
H 14.1112 13.2007 -9.20009
H 12.5386 12.9311 -8.85252
O 12.1741 -1.73347 -5.75503
H 12.1211 -0.879438 -6.27252
H 13.0298 -2.20268 -5.97296
O 9.04701 13.3644 -14.8991
H 9.73308 13.191 14.2879
H 9.46914 13.2793 -13.9966
O 4.15634 11.2857 -11.0337
H 3.29484 11.717 -11.3017
H 4.05612 10.2913 -11.068
O 0.280956 10.2376 10.5303
H 0.970319 10.8728 10.8786
H 0.646966 9.75044 9.73738
O -3.13658 2.07119 -2.56803
H -2.67765 1.27826 -2.9688
H -2.94765 2.88135 -3.12294
O 6.89565 -7.49047 5.45961
H 7.8678 -7.58976 5.24739
H 6.39785 -7.23572 4.63059
O -0.501153 6.69902 2.66155
H -0.352393 5.92324 3.27475
H 0.0687758 7.46761 2.9521
O -8.21106 3.64101 -0.614432
H -7.38022 3.8954 -0.119497
H -8.07848 2.75253 -1.05376
O 9.47635 13.3452 -7.61402
H 9.10842 12.7321 -8.31308
H 10.1648 13.9433 -8.02418
O -6.69253 -7.17034 6.62028
H -7.19188 -7.72896 7.28252
H -5.71733 -7.18356 6.84116
O -1.5576 -9.2786 8.21565
H -2.32407 -9.51401 7.61808
H -0.723734 -9.71282 7.87492
O 4.8413 -11.0799 12.9497
H 5.53536 -11.1016 12.2301
H 4.98987 -10.2808 13.5321
O -12.9627 -3.65829 2.52794
H -13.7839 -3.0879 2.54672
H -13.1251 -4.49367 3.05307
O -0.0686892 4.54287 4.09365
H 0.115831 3.60819 3.78986
H 0.0472836 4.60008 5.08524
O 2.1754 -3.58122 10.6148
H 1.68682 -4.44784 10.716
H 3.15567 -3.73475 10.7392
O 14.4569 4.11232 -12.0842
H -14.8536 3.36073 -12.3927
H 13.6632 4.1877 -12.6878
O 8.13225 9.6018 -2.02188
H 7.69483 10.0353 -2.80975
H 7.44178 9.39715 -1.3281
O 0.843376 2.61291 -3.81618
H 1.4555 1.82715 -3.90489
H 0.674159 3.00723 -4.71942
O 7.79057 1.09934 -0.258985
H 8.63331 1.58408 -0.0249263
H 7.22633 1.67734 -0.8485
O -11.8419 11.5334 11.7624
H -12.7134 11.1604 12.0806
H -11.8404 12.5261 11.8826
O 8.40356 -13.8326 9.07896
H 8.25613 -14.4059 8.27303
H 7.86322 -12.9953 8.99572
O -5.9821 -9.23088 3.45455
H -5.70199 -9.48271 2.52822
H -6.23148 -8.26273 3.47576
O -5.12806 12.1312 -3.94855
H -5.08776 12.8017 -3.20778
H -4.50178 11.3773 -3.75015
O -10.032 1.03054 -9.90998
H -9.17815 1.49695 -9.67879
H -10.4651 0.694395 -9.07373
O -5.20717 -9.98159 0.891502
H -5.57063 -10.5764 0.174533
H -4.52405 -9.36569 0.499098
O -2.93435 9.03752 1.34702
H -3.22321 8.88554 0.401808
H -3.07107 8.20004 1.87609
O -4.17362 9.73316 -3.27059
H -4.87892 9.24173 -3.7815
H -3.88012 9.17979 -2.4911
O 13.9125 12.813 -3.1768
H 13.9145 12.4409 -4.105
H 13.7834 12.07 -2.52016
O 7.60799 8.66574 11.1635
H 7.04603 9.38498 11.5719
H 7.33801 8.53298 10.2098
O 2.19683 -8.20083 -2.79028
H 2.31953 -7.45043 -3.43976
H 1.64215 -8.91858 -3.21116
O -1.46744 4.33577 12.6739
H -0.992195 4.62983 11.8447
H -2.19541 3.69455 12.4313
O -8.35274 -5.41856 -1.65636
H -7.90058 -5.7391 -0.824026
H -8.75055 -4.51576 -1.49302
O 8.32248 -2.97893 -3.06288
H 8.53874 -2.07215 -2.70103
H 8.23643 -3.62769 -2.30679
O -0.642508 -7.66855 -5.33933
H -1.34502 -7.08684 -4.92938
H -0.386386 -7.3019 -6.23372
O -14.9033 7.01558 -6.74755
H 14.5342 7.84336 -6.42081
H 14.4182 6.56934 -7.43568
O 1.4421 8.702 3.30536
H 2.1762 8.18578 2.86424
H 1.72081 8.95155 4.23273
O 0.100097 -3.52196 -5.16923
H 0.970911 -3.23889 -5.57113
H 0.168412 -3.49369 -4.17198
O -0.928616 8.48014 -8.91426
H -0.655926 8.60393 -9.86835
H -1.12268 7.51374 -8.74577
O -3.36182 6.8059 11.7673
H -2.7631 7.50325 12.1613
H -3.14194 5.91485 12.1643
O -10.9377 5.21455 10.4286
H -10.642 6.11725 10.7412
H -11.5837 5.31874 9.6725
O -13.8198 -7.54184 2.58158
H -14.3314 -6.71573 2.34553
H -13.7104 -8.1105 1.76634
O 7.53919 -2.28926 12.559
H 7.01294 -3.0065 12.1023
H 6.98364 -1.46064 12.6276
O 12.6372 -12.2446 10.1964
H 12.6487 -11.596 9.43528
H 13.4367 -12.0912 10.777
O -8.24484 11.0915 4.27093
H -7.72078 10.4065 4.77694
H -8.6488 11.7432 4.91287
O -11.9093 -3.97873 -2.44732
H -11.8806 -4.96648 -2.60065
H -10.9811 -3.63733 -2.29916
O 8.36276 -12.0224 1.78753
H 8.42905 -12.0552 0.790288
H 8.91365 -11.2629 2.13338
O 5.12925 -10.9344 3.33637
H 5.05711 -11.4574 2.48711
H 5.09737 -9.95656 3.12939
O -10.6673 -3.8119 13.9996
H -11.0667 -3.34095 14.7861
H -10.2566 -3.1407 13.3825
O -10.5653 -8.94811 -11.3013
H -10.2312 -8.58049 -12.1691
H -10.5776 -8.22162 -10.6142
O 12.2307 5.32865 -4.78039
H 12.7558 4.52712 -4.49444
H 12.3116 6.04482 -4.0872
O 7.39672 12.9408 -9.37604
H 6.5735 13.279 -8.92005
H 7.61256 13.5303 -10.1544
O 9.3671 5.78827 4.19431
H 8.65754 5.32794 3.66083
H 10.2609 5.40582 3.96027
O 14.3427 3.19527 13.1945
H 14.6739 4.13866 13.177
H -14.7916 2.57198 13.0069
O 5.77604 -1.34134 -3.374
H 5.53812 -0.999002 -4.28294
H 6.76186 -1.25237 -3.23184
O 9.7066 -0.178524 7.79716
H 9.97616 0.762655 7.59346
H 9.68672 -0.710217 6.95048
O 3.12943 -0.138577 9.45817
H 3.28308 0.22841 10.3756
H 3.58021 -1.0273 9.37488
O -3.99538 4.67474 14.5608
H -4.78104 5.25761 14.3535
H -4.23187 3.72 14.3805
O 4.60504 4.18966 -14.6903
H 4.59897 4.94173 -14.0313
H 3.78216 3.63437 -14.57
O 1.55256 1.90232 2.42957
H 2.26688 1.20278 2.41013
H 0.895232 1.68748 3.15189
O 1.99671 -2.06801 5.93472
H 1.53038 -2.46583 6.72482
H 2.84775 -2.5649 5.76498
O -0.477179 -8.1975 -14.7975
H -1.00767 -7.38015 14.8713
H -1.0803 -8.88604 -14.3949
O 12.8706 -7.45964 -13.0781
H 13.1659 -8.40509 -12.9406
H 12.1407 -7.43444 -13.7612
O -5.70355 -3.85134 4.80902
H -5.78161 -2.98867 5.30869
H -6.29488 -3.82439 4.00305
O -8.92564 2.97546 10.4269
H -9.66089 2.34217 10.6684
H -9.25327 3.91606 10.5158
O -11.7231 0.726059 -14.1173
H -11.8336 -0.0448842 -13.4901
H -11.7691 0.397506 14.8329
O -8.57006 11.8844 1.72115
H -9.14444 12.6958 1.82955
H -8.65202 11.3071 2.53351
O 8.53055 6.75027 -9.40887
H 8.1276 7.40494 -8.76933
H 8.18965 6.9323 -10.3312
O 1.08633 4.89983 -2.28386
H 1.55475 4.83021 -1.40311
H 0.96697 3.98561 -2.67108
O 14.3767 -10.8162 -6.27671
H -14.5828 -10.4619 -6.23154
H 14.3499 -11.7362 -5.88577
O -1.29106 -2.6227 13.341
H -1.22496 -1.69875 12.9643
H -2.1265 -2.70195 13.8849
O -9.21504 -1.05316 14.6675
H -9.20444 -0.3809 -14.4858
H -8.80557 -0.652787 13.8477
O 9.56998 4.5526 10.8733
H 9.23583 3.61012 10.8794
H 10.3936 4.61789 11.4366
O -14.6053 3.53238 -1.36929
H -14.0261 2.85825 -0.910982
H -14.8445 3.20088 -2.28192
O 10.9642 6.97563 -6.42415
H 11.1219 7.20719 -7.38407
H 11.6183 6.27536 -6.13834
O -0.701139 -0.479481 -5.61253
H -0.241364 -0.120481 -6.42475
H -0.0372782 -0.582218 -4.87179
O 12.667 -0.559752 5.51452
H 12.4869 -1.51451 5.75111
H 11.8005 -0.0864011 5.35634
O 2.54457 8.72616 -10.4874
H 1.6415 8.57755 -10.8903
H 2.50326 9.49719 -9.85198
O -14.1173 -8.2125 12.7972
H -13.504 -8.79085 13.335
H -13.6702 -7.9601 11.9391
O -8.73299 14.6587 9.22766
H -8.57642 13.8226 8.70199
H -8.39913 14.5326 10.1618
O 6.29787 3.63737 13.1453
H 5.66183 3.95963 13.8464
H 6.30039 4.27821 12.3777
O -12.1404 -1.10541 -1.23075
H -11.1753 -1.35123 -1.14099
H -12.7088 -1.8809 -0.95599
O -13.8736 -1.37149 7.75989
H -12.9622 -1.05538 7.49632
H -13.8818 -2.37074 7.79754
O -1.46228 8.24909 -4.57408
H -2.16731 7.9656 -5.22412
H -1.86579 8.85376 -3.8874
O -11.1196 -12.4521 10.7646
H -10.4396 -11.9182 11.2671
H -11.7453 -11.833 10.2901
O -9.05412 10.6585 -12.1414
H -9.36501 10.4419 -11.2159
H -8.37877 11.395 -12.1023
O 8.06766 12.3417 3.34895
H 7.95962 11.6006 2.68635
H 7.96457 13.2215 2.88481
O 8.92234 14.1737 10.9572
H 8.5681 14.8925 10.3591
H 8.17295 13.5737 11.2373
O 0.421649 -9.97958 -3.8659
H -0.044927 -9.10792 -4.01586
H 0.154827 -10.3518 -2.97697
O -4.09543 2.07713 -5.41046
H -4.69596 2.64765 -4.85024
H -3.48727 2.66107 -5.94817
O 8.41717 -0.140421 -2.84713
H 8.18645 0.276677 -1.96805
H 8.56795 0.577084 -3.52715
O 2.76984 -12.2513 8.78244
H 3.14242 -11.3473 8.99232
H 3.40458 -12.7433 8.18661
O -10.7288 -6.80852 6.26928
H -10.2703 -7.68401 6.42167
H -10.0677 -6.06461 6.36648
O 2.31124 10.5313 -8.56194
H 1.90502 11.3403 -8.98691
H 1.80053 10.2975 -7.73462
O -13.6116 5.52111 5.51647
H -12.7329 5.8568 5.17708
H -13.8514 4.67493 5.04062
O -5.63484 -12.5129 -8.62584
H -4.73892 -12.8266 -8.94034
H -6.34279 -13.1324 -8.9649
O 14.0064 2.71785 -6.44511
H 13.4408 3.44959 -6.82534
H -14.9211 2.94932 -6.56014
O 11.797 -3.82955 -10.2933
H 11.1644 -3.79394 -9.51962
H 12.0889 -2.90239 -10.5281
O 10.3148 -0.0885131 12.4276
H 11.2962 -0.164478 12.2514
H 9.90972 -1.00232 12.4571
O -12.2379 -3.8416 -13.3711
H -11.455 -4.34045 -12.9994
H -12.8318 -4.47508 -13.867
O -2.13087 -5.55642 4.52868
H -1.83555 -4.87734 3.85666
H -2.70917 -5.11609 5.21546
O -9.89578 2.79993 -4.45038
H -10.2569 1.94203 -4.08496
H -10.5099 3.55066 -4.20697
O 4.36452 -14.827 0.654399
H 3.70726 -14.3221 0.094876
H 4.55916 -14.31 1.48796
O 4.19872 -5.31419 -8.98007
H 3.2638 -5.48814 -9.28931
H 4.81163 -6.00251 -9.36806
O 14.9115 -7.83692 7.92106
H 14.4879 -7.35939 7.15133
H 14.3137 -8.57981 8.2222
O 12.7486 -9.74641 4.06678
H 12.3084 -10.6443 4.06543
H 13.1678 -9.57938 3.17443
O 10.4135 -6.37154 10.0147
H 10.3686 -5.38494 9.85791
H 9.48692 -6.73814 10.0987
O -8.01635 8.41245 2.93508
H -7.74535 9.34494 3.17381
H -8.99137 8.39505 2.71371
O -4.28189 5.58606 -2.29329
H -5.06782 5.36762 -2.8717
H -4.50131 5.37762 -1.3402
O -5.3688 -3.05261 13.0531
H -4.85313 -2.92514 12.2059
H -5.81595 -3.94695 13.0398
O -1.28501 -1.83167 7.20232
H -0.364788 -2.12578 7.46053
H -1.94873 -2.52172 7.4909
O 11.2073 9.59262 -7.73887
H 11.705 9.41902 -6.88909
H 10.2304 9.67508 -7.54206
O -8.94393 -2.53779 4.79853
H -9.92113 -2.52536 4.58662
H -8.6735 -3.46141 5.07014
O -14.2794 14.9209 9.59856
H -14.6835 -14.4042 8.88194
H 14.9258 14.2848 9.94719
O -0.696657 12.9768 1.26012
H -0.048178 13.5857 1.71705
H -0.44051 12.026 1.43408
O 12.7229 1.93992 11.3852
H 13.2694 2.54119 11.9681
H 12.2279 2.48862 10.7115
O -8.55179 -12.7959 -12.6456
H -9.16032 -12.3908 -11.9632
H -8.8941 -13.6995 -12.9029
O -6.65411 -12.936 9.95016
H -6.99227 -13.7342 9.45167
H -5.67487 -12.8267 9.7795
O -7.03936 -7.42768 -3.57584
H -6.87983 -6.73286 -4.27709
H -7.41754 -6.99474 -2.7576
O 4.76362 13.5619 8.49766
H 4.01718 12.9149 8.34214
H 5.5738 13.0669 8.81158
O -8.0132 2.78176 -8.98869
H -7.80407 3.36948 -8.20714
H -7.29125 2.87031 -9.67492
O 5.04238 -0.106871 0.0327015
H 5.1733 -1.052 -0.266574
H 5.86572 0.210946 0.502885
O -12.0547 -9.69908 14.061
H -12.779 -10.1047 14.6185
H -11.2181 -10.2382 14.1578
O 1.32911 0.0714298 -12.5854
H 1.13073 -0.0346394 -13.5597
H 2.19054 -0.387854 -12.3687
O -14.1808 -9.60837 -10.1376
H -14.4701 -10.4137 -9.62025
H -13.4159 -9.85226 -10.7339
O 12.5399 14.9445 2.93259
H 12.9909 14.0757 3.13703
H 13.1959 -14.2011 3.03362
O -2.45522 -0.0376554 -8.68342
H -3.41156 -0.29758 -8.5499
H -2.22017 -0.117755 -9.65209
O 8.96491 -13.9571 -14.6871
H 8.58736 -13.6428 14.3354
H 9.05416 14.9405 -14.7025
O 5.2544 9.81086 12.9331
H 5.19105 9.06652 13.5978
H 4.69013 10.5783 13.2373
O 13.4871 2.61944 -3.65748
H 13.3995 2.49456 -4.64576
H 13.2651 1.76253 -3.19227
O 4.11752 -8.83719 -0.802988
H 3.48353 -8.89619 -1.57406
H 3.60619 -8.64749 0.0351826
O -10.7589 0.156856 -3.46444
H -10.9508 -0.169939 -4.38984
H -11.5006 -0.118984 -2.85309
O 2.23447 -8.34692 1.24465
H 2.09068 -9.22282 1.70518
H 1.35408 -7.97953 0.944777
O -1.70646 -7.61393 -2.53987
H -2.03596 -6.84819 -3.09217
H -2.14585 -8.45865 -2.84542
O -12.8412 -2.07667 10.9735
H -13.6742 -2.05144 11.5262
H -13.0454 -2.47857 10.0809
O -14.5387 -4.4012 8.73071
H -14.6399 -5.22094 9.29441
H 14.6081 -3.76623 8.92871
O -13.3499 -9.60319 -7.18109
H -13.8792 -8.81399 -7.49256
H -12.8241 -9.97483 -7.94617
O 5.57144 -1.3023 -14.6141
H 6.36031 -1.39933 -14.0073
H 5.86094 -0.877322 14.4218
O 10.3175 -4.13962 13.1485
H 11.1222 -3.89843 13.691
H 9.85926 -4.9257 13.5632
O 2.67216 3.71591 11.462
H 3.13935 3.06965 10.8586
H 2.48846 4.56355 10.9642
O -7.54924 11.6314 -4.81765
H -6.59073 11.8526 -4.63788
H -7.71078 10.6644 -4.62071
O -12.7805 9.73719 14.4415
H -12.8245 8.7382 14.4334
H -13.7028 10.1122 14.3479
O 10.6393 14.2093 -3.37202
H 9.81519 13.8115 -2.96865
H 11.2968 14.4189 -2.64835
O 10.7443 -5.02003 -4.39761
H 10.3953 -4.91669 -5.329
H 10.1507 -4.52568 -3.76252
O 3.36953 6.73182 6.12121
H 2.6502 6.63662 6.8093
H 3.85804 5.86432 6.02748
O -8.07332 3.7284 13.644
H -8.79199 4.4236 13.6574
H -8.32923 2.97276 14.2469
O -4.0028 -4.97265 -12.8351
H -4.97128 -4.92326 -12.591
H -3.4457 -4.74744 -12.0358
O 8.96648 12.8661 -0.270391
H 8.06634 13.064 -0.658364
H 9.24878 11.9444 -0.53654
O -4.75624 -14.9166 4.2248
H -5.31484 14.1898 3.96316
H -3.89173 14.6578 4.61305
O -2.59024 3.12135 -9.14078
H -2.39186 3.16081 -8.16147
H -3.28309 2.42104 -9.31256
O 11.6619 -10.3179 -2.80201
H 11.4119 -11.2552 -3.04494
H 11.1909 -9.679 -3.41021
O 8.07715 1.88097 -8.23728
H 7.69479 1.0369 -7.86135
H 8.54072 1.68137 -9.10055
O -9.24328 -7.50529 1.61535
H -10.1065 -7.56984 1.11474
H -8.49372 -7.35912 0.969778
O 11.7762 -14.3774 6.32488
H 11.6027 -14.627 7.27755
H 11.4128 14.8054 5.72262
O -1.01968 9.79932 -13.5965
H -1.70326 9.2675 -14.0963
H -1.46967 10.328 -12.8767
O 4.53093 -5.29415 13.0699
H 4.47736 -6.2067 12.6645
H 4.73169 -4.62348 12.3558
O -4.88274 -3.34612 -10.268
H -4.98057 -2.90079 -9.37805
H -4.80206 -2.65041 -10.9818
O -1.45243 7.1261 6.90525
H -2.38269 6.9015 6.6152
H -1.48594 7.81994 7.62458
O -2.96011 -0.986014 9.90725
H -2.09401 -0.693824 10.3128
H -3.6084 -0.224778 9.92144
O 11.5882 7.07803 -9.98333
H 10.6075 7.17521 -9.81344
H 11.9814 7.97434 -10.1882
O 1.25015 -8.50151 12.8688
H 0.691575 -8.76778 12.0833
H 0.684104 -8.49417 13.6931
O 3.22372 -13.0012 -14.3777
H 2.55329 -12.3341 -14.7025
H 3.03401 -13.8922 -14.7901
O -3.26011 -13.601 -9.29615
H -2.53043 -13.6087 -9.97987
H -2.90389 -13.2443 -8.43252
O -1.47725 -6.42116 8.42087
H -1.50835 -7.39559 8.64336