Created on Wed Jul 27 03:45:17 2022

3402 atoms
7 atom types

0.000000  44.018010 xlo xhi
0.000000  38.120715 ylo yhi
0.000000  35.940555 zlo zhi
22.009005  22.009005  12.706905 xy xz yz

Masses

    1    91.224000000 # Zr3+4
    2     1.007940000 # H_
    3    12.010700000 # C_R
    4    15.999400000 # O_3
    5    15.999400000 # O_R
    6    15.999400000 # O_2
    7    16.04        # CH4

Atoms

       1      444        1     0.00000   14.67267   14.91289   10.54501
       2      444        1     0.00000   14.67267    2.02965    1.43518
       3      444        1     0.00000    9.09406    5.25046   10.54501
       4      444        1     0.00000    9.09406   11.69208    1.43518
       5      444        1     0.00000   20.25128    5.25046   10.54501
       6      444        1     0.00000   20.25128   11.69208    1.43518
       7      444        2     0.00000    7.33634    9.50830    1.13088
       8      444        2     0.00000   11.90259    1.59930    1.13088
       9      444        2     0.00000    2.77008    1.59930    1.13088
      10      444        2     0.00000    7.33634    4.23563    8.58755
      11      444        2     0.00000   12.53343   13.53605   17.00772
      12      444        2     0.00000    8.60097   15.60843   13.65686
      13      444        2     0.00000   16.81191   20.54705    7.09267
      14      444        2     0.00000   20.74437   18.07862   10.16349
      15      444        2     0.00000    9.21682   10.16094   13.65686
      16      444        2     0.00000   10.48145   16.99292    7.09267
      17      444        2     0.00000   16.72465   13.28764    7.09267
      18      444        2     0.00000   17.98928    8.92584   10.16349
      19      444        2     0.00000   20.12852   16.26279    5.02754
      20      444        2     0.00000   11.35606   12.55751    5.02754
      21      444        2     0.00000   12.62069   11.11625   10.16349
      22      444        2     0.00000   18.86389   12.35134   13.65686
      23      444        3     0.00000   11.60549   11.84055   11.90575
      24      444        3     0.00000   11.78781   18.60812   16.91444
      25      444        3     0.00000   17.55753   22.14979   11.90575
      26      444        3     0.00000   17.73985   15.17170    7.19479
      27      444        3     0.00000   14.67267   20.48421    7.19479
      28      444        3     0.00000   17.55753   18.60812   16.91444
      29      444        3     0.00000   20.62471   16.83728   11.90575
      30      444        3     0.00000   11.78781   22.14979   11.90575
      31      444        3     0.00000    8.72063   16.83728   11.90575
      32      444        3     0.00000   11.60549   15.17170    7.19479
      33      444        3     0.00000   14.67267   13.61139   16.91444
      34      444        3     0.00000   17.73985   11.84055   11.90575
      35      444        3     0.00000   10.66040   11.58482   12.89819
      36      444        3     0.00000   18.16618   13.52948    5.49566
      37      444        3     0.00000   11.17916    9.69119   10.92383
      38      444        3     0.00000   18.68494   16.02213    6.62288
      39      444        3     0.00000   13.46363   20.87748    6.62288
      40      444        3     0.00000    9.97012   15.62360    5.49566
      41      444        3     0.00000   21.31873   16.14667   12.89819
      42      444        3     0.00000   19.37522   10.38923   12.89819
      43      444        3     0.00000    8.02661   17.54275   10.92383
      44      444        3     0.00000   11.86944   13.92801    6.62288
      45      444        3     0.00000   15.88171   13.20327   17.47585
      46      444        3     0.00000   17.47590   10.88678   10.92383
      47      444        3     0.00000   13.46363   13.20327   17.47585
      48      444        3     0.00000    8.02661   16.14667   12.89819
      49      444        3     0.00000   15.88171   20.87748    6.62288
      50      444        3     0.00000   21.31873   17.54275   10.92383
      51      444        3     0.00000    9.97012   10.38923   12.89819
      52      444        3     0.00000   10.66040   16.02213    6.62288
      53      444        3     0.00000   17.47590   13.92801    6.62288
      54      444        3     0.00000   18.16618    9.69119   10.92383
      55      444        3     0.00000   19.37522   15.62360    5.49566
      56      444        3     0.00000   11.17916   13.52948    5.49566
      57      444        3     0.00000   11.86944   10.88678   10.92383
      58      444        3     0.00000   18.68494   11.58482   12.89819
      59      444        3     0.00000   16.96795   15.61736    8.37750
      60      444        3     0.00000   16.84916   20.84950   11.93169
      61      444        3     0.00000   12.49618   18.19913   15.67986
      62      444        3     0.00000   12.37739   13.10417   11.93169
      63      444        3     0.00000   19.14444   16.87395   11.93169
      64      444        3     0.00000   16.96795   13.10417   11.93169
      65      444        3     0.00000   14.67267   19.59290    8.37750
      66      444        3     0.00000   12.37739   15.61736    8.37750
      67      444        3     0.00000   14.67267   14.42935   15.67986
      68      444        3     0.00000   12.49618   20.84950   11.93169
      69      444        3     0.00000   10.20090   16.87395   11.93169
      70      444        3     0.00000   16.84916   18.19913   15.67986
      71      444        4     0.00000    7.33634    4.23564    9.56110
      72      444        4     0.00000    1.97518    1.14037    0.80636
      73      444        4     0.00000   12.69749    1.14037    0.80636
      74      444        4     0.00000    7.33634   10.42617    0.80636
      75      444        5     0.00000   13.26027   13.27390   11.02306
      76      444        5     0.00000   13.33607   19.02404   15.18186
      77      444        5     0.00000   16.00927   20.65494   12.87542
      78      444        5     0.00000   16.08507   14.81728    8.84040
      79      444        5     0.00000   15.80700   19.22834    8.84040
      80      444        5     0.00000   17.14360   17.05932   15.18186
      81      444        5     0.00000   18.55600   17.55369   11.02306
      82      444        5     0.00000   12.20174   20.00003   11.02306
      83      444        5     0.00000   10.78934   16.24387   12.87542
      84      444        5     0.00000   12.12594   16.78200    8.84040
      85      444        5     0.00000   13.53834   14.74426   15.18186
      86      444        5     0.00000   17.21940   13.92881   12.87542
      87      444        5     0.00000   15.80700   14.74426   15.18186
      88      444        5     0.00000   10.78934   17.55369   11.02306
      89      444        5     0.00000   13.53834   19.22834    8.84040
      90      444        5     0.00000   18.55600   16.24387   12.87542
      91      444        5     0.00000   17.14360   20.00003   11.02306
      92      444        5     0.00000   13.26027   14.81728    8.84040
      93      444        5     0.00000   17.21940   16.78200    8.84040
      94      444        5     0.00000   13.33607   20.65494   12.87542
      95      444        5     0.00000   12.20174   17.05932   15.18186
      96      444        5     0.00000   16.00927   19.02404   15.18186
      97      444        5     0.00000   12.12594   13.92881   12.87542
      98      444        5     0.00000   16.08507   13.27390   11.02306
      99      444        6     0.00000   22.00900   12.70690    1.81205
     100      444        6     0.00000   27.86581   16.08833   11.37617
     101      444        6     0.00000   16.15220   16.08833   11.37617
     102      444        6     0.00000   22.00901    5.94405   11.37617
     103      444        4     0.00000   10.41114   12.50414   13.86892
     104      444        2     0.00000    9.68957   12.00418   14.40770
     105      444        4     0.00000   11.44100    8.76460    9.96337
     106      444        2     0.00000   12.16955    9.26052    9.43029
     107      444        4     0.00000   17.90434   12.31509    4.94222
     108      444        2     0.00000   17.17579   11.97781    5.58747
     109      444        4     0.00000   18.93420   17.24379    7.16604
     110      444        2     0.00000   19.65577   17.58510    6.51509
     111      444        4     0.00000   12.28102   20.48250    7.16604
     112      444        2     0.00000   11.62464   20.93675    6.51509
     113      444        4     0.00000   17.06432   13.58371   16.92241
     114      444        2     0.00000   17.72070   13.12140   17.56766
     115      444        4     0.00000    9.04934   16.45755    4.94222
     116      444        2     0.00000    9.12153   17.25714    5.58747
     117      444        4     0.00000   12.80280   13.10133    7.16604
     118      444        2     0.00000   12.73760   12.30577    6.51509
     119      444        4     0.00000   20.64720   15.47115   13.86892
     120      444        2     0.00000   21.44096   15.09623   14.40770
     121      444        4     0.00000    8.69814   18.23280    9.96337
     122      444        2     0.00000    7.90438   18.61579    9.43029
     123      444        4     0.00000   20.29600   10.14543   13.86892
     124      444        2     0.00000   20.22381   11.02030   14.40770
     125      444        4     0.00000   16.54254   11.12332    9.96337
     126      444        2     0.00000   16.60774   10.24441    9.43029
     127      444        1     0.00000   22.00901   19.14853   22.52519
     128      444        1     0.00000   22.00900    6.26528   13.41536
     129      444        1     0.00000   16.43039    9.48609   22.52519
     130      444        1     0.00000   16.43039   15.92772   13.41536
     131      444        1     0.00000   27.58762    9.48609   22.52519
     132      444        1     0.00000   27.58762   15.92772   13.41536
     133      444        2     0.00000   14.67267   13.74393   13.11106
     134      444        2     0.00000   19.23893    5.83494   13.11106
     135      444        2     0.00000   10.10641    5.83494   13.11106
     136      444        2     0.00000   14.67267    8.47127   20.56773
     137      444        2     0.00000   19.86976   17.77169   28.98791
     138      444        2     0.00000   15.93730   19.84407   25.63704
     139      444        2     0.00000   24.14825   24.78269   19.07286
     140      444        2     0.00000   28.08071   22.31425   22.14367
     141      444        2     0.00000   16.55315   14.39657   25.63704
     142      444        2     0.00000   17.81778   21.22856   19.07286
     143      444        2     0.00000   24.06098   17.52328   19.07286
     144      444        2     0.00000   25.32562   13.16148   22.14367
     145      444        2     0.00000   27.46486   20.49842   17.00772
     146      444        2     0.00000   18.69239   16.79314   17.00772
     147      444        2     0.00000   19.95703   15.35189   22.14367
     148      444        2     0.00000   26.20023   16.58698   25.63704
     149      444        3     0.00000   18.94183   16.07619   23.88594
     150      444        3     0.00000   19.12414   22.84375   28.89462
     151      444        3     0.00000   24.89387   26.38542   23.88594
     152      444        3     0.00000   25.07618   19.40734   19.17498
     153      444        3     0.00000   22.00900   24.71985   19.17498
     154      444        3     0.00000   24.89387   22.84375   28.89462
     155      444        3     0.00000   27.96105   21.07292   23.88594
     156      444        3     0.00000   19.12414   26.38542   23.88594
     157      444        3     0.00000   16.05696   21.07292   23.88594
     158      444        3     0.00000   18.94183   19.40734   19.17498
     159      444        3     0.00000   22.00901   17.84702   28.89462
     160      444        3     0.00000   25.07618   16.07619   23.88594
     161      444        3     0.00000   17.99673   15.82046   24.87837
     162      444        3     0.00000   25.50251   17.76512   17.47585
     163      444        3     0.00000   18.51550   13.92682   22.90401
     164      444        3     0.00000   26.02128   20.25777   18.60306
     165      444        3     0.00000   20.79996   25.11311   18.60306
     166      444        3     0.00000   17.30645   19.85924   17.47585
     167      444        3     0.00000   28.65506   20.38230   24.87837
     168      444        3     0.00000   26.71156   14.62486   24.87837
     169      444        3     0.00000   15.36295   21.77838   22.90401
     170      444        3     0.00000   19.20577   18.16365   18.60306
     171      444        3     0.00000   23.21805   17.43890   29.45603
     172      444        3     0.00000   24.81224   15.12241   22.90401
     173      444        3     0.00000   20.79996   17.43890   29.45603
     174      444        3     0.00000   15.36295   20.38230   24.87837
     175      444        3     0.00000   23.21805   25.11311   18.60306
     176      444        3     0.00000   28.65506   21.77838   22.90401
     177      444        3     0.00000   17.30645   14.62486   24.87837
     178      444        3     0.00000   17.99673   20.25777   18.60306
     179      444        3     0.00000   24.81224   18.16365   18.60306
     180      444        3     0.00000   25.50251   13.92682   22.90401
     181      444        3     0.00000   26.71156   19.85924   17.47585
     182      444        3     0.00000   18.51550   17.76512   17.47585
     183      444        3     0.00000   19.20577   15.12241   22.90401
     184      444        3     0.00000   26.02128   15.82046   24.87837
     185      444        3     0.00000   24.30429   19.85299   20.35769
     186      444        3     0.00000   24.18549   25.08513   23.91187
     187      444        3     0.00000   19.83252   22.43477   27.66005
     188      444        3     0.00000   19.71372   17.33980   23.91187
     189      444        3     0.00000   26.48077   21.10959   23.91187
     190      444        3     0.00000   24.30429   17.33980   23.91187
     191      444        3     0.00000   22.00900   23.82854   20.35769
     192      444        3     0.00000   19.71372   19.85299   20.35769
     193      444        3     0.00000   22.00901   18.66499   27.66005
     194      444        3     0.00000   19.83252   25.08513   23.91187
     195      444        3     0.00000   17.53724   21.10959   23.91187
     196      444        3     0.00000   24.18549   22.43477   27.66005
     197      444        4     0.00000   14.67267    8.47127   21.54128
     198      444        4     0.00000    9.31151    5.37600   12.78655
     199      444        4     0.00000   20.03383    5.37600   12.78655
     200      444        4     0.00000   14.67267   14.66180   12.78655
     201      444        5     0.00000   20.59661   17.50954   23.00324
     202      444        5     0.00000   20.67241   23.25968   27.16204
     203      444        5     0.00000   23.34560   24.89057   24.85561
     204      444        5     0.00000   23.42140   19.05291   20.82059
     205      444        5     0.00000   23.14334   23.46398   20.82059
     206      444        5     0.00000   24.47994   21.29495   27.16204
     207      444        5     0.00000   25.89234   21.78932   23.00324
     208      444        5     0.00000   19.53807   24.23567   23.00324
     209      444        5     0.00000   18.12567   20.47950   24.85561
     210      444        5     0.00000   19.46227   21.01764   20.82059
     211      444        5     0.00000   20.87467   18.97989   27.16204
     212      444        5     0.00000   24.55574   18.16445   24.85561
     213      444        5     0.00000   23.14334   18.97989   27.16204
     214      444        5     0.00000   18.12567   21.78932   23.00324
     215      444        5     0.00000   20.87467   23.46398   20.82059
     216      444        5     0.00000   25.89234   20.47950   24.85561
     217      444        5     0.00000   24.47994   24.23567   23.00324
     218      444        5     0.00000   20.59661   19.05291   20.82059
     219      444        5     0.00000   24.55574   21.01764   20.82059
     220      444        5     0.00000   20.67241   24.89057   24.85561
     221      444        5     0.00000   19.53807   21.29495   27.16204
     222      444        5     0.00000   23.34560   23.25968   27.16204
     223      444        5     0.00000   19.46227   18.16445   24.85561
     224      444        5     0.00000   23.42140   17.50954   23.00324
     225      444        6     0.00000   29.34534   16.94254   13.79223
     226      444        6     0.00000   35.20214   20.32397   23.35635
     227      444        6     0.00000   23.48854   20.32397   23.35635
     228      444        6     0.00000   29.34534   10.17969   23.35635
     229      444        4     0.00000   17.74748   16.73977   25.84911
     230      444        2     0.00000   17.02591   16.23982   26.38788
     231      444        4     0.00000   18.77733   13.00024   21.94355
     232      444        2     0.00000   19.50589   13.49616   21.41048
     233      444        4     0.00000   25.24068   16.55072   16.92241
     234      444        2     0.00000   24.51212   16.21344   17.56766
     235      444        4     0.00000   26.27053   21.47943   19.14622
     236      444        2     0.00000   26.99210   21.82074   18.49527
     237      444        4     0.00000   19.61735   24.71814   19.14622
     238      444        2     0.00000   18.96098   25.17238   18.49527
     239      444        4     0.00000   24.40066   17.81934   28.90259
     240      444        2     0.00000   25.05703   17.35703   29.54784
     241      444        4     0.00000   16.38568   20.69319   16.92241
     242      444        2     0.00000   16.45786   21.49278   17.56766
     243      444        4     0.00000   20.13913   17.33696   19.14622
     244      444        2     0.00000   20.07393   16.54140   18.49527
     245      444        4     0.00000   27.98354   19.70679   25.84911
     246      444        2     0.00000   28.77730   19.33186   26.38788
     247      444        4     0.00000   16.03447   22.46843   21.94355
     248      444        2     0.00000   15.24071   22.85142   21.41048
     249      444        4     0.00000   27.63233   14.38106   25.84911
     250      444        2     0.00000   27.56015   15.25594   26.38788
     251      444        4     0.00000   23.87888   15.35895   21.94355
     252      444        2     0.00000   23.94408   14.48004   21.41048
     253      444        1     0.00000   29.34534   23.38416   34.50538
     254      444        1     0.00000   29.34534   10.50092   25.39555
     255      444        1     0.00000   23.76673   13.72173   34.50538
     256      444        1     0.00000   23.76673   20.16335   25.39555
     257      444        1     0.00000   34.92395   13.72173   34.50538
     258      444        1     0.00000   34.92395   20.16335   25.39555
     259      444        2     0.00000   22.00901   17.97957   25.09125
     260      444        2     0.00000   26.57526   10.07057   25.09125
     261      444        2     0.00000   17.44275   10.07057   25.09125
     262      444        2     0.00000   22.00901   12.70690   32.54792
     263      444        2     0.00000   27.20610   22.00732   40.96809
     264      444        2     0.00000   23.27364   24.07970   37.61723
     265      444        2     0.00000   31.48458   29.01832   31.05304
     266      444        2     0.00000   35.41704   26.54989   34.12386
     267      444        2     0.00000   23.88949   18.63221   37.61723
     268      444        2     0.00000   25.15412   25.46419   31.05304
     269      444        2     0.00000   31.39732   21.75891   31.05304
     270      444        2     0.00000   32.66195   17.39711   34.12386
     271      444        2     0.00000   34.80119   24.73406   28.98791
     272      444        2     0.00000   26.02873   21.02878   28.98791
     273      444        2     0.00000   27.29336   19.58752   34.12386
     274      444        2     0.00000   33.53656   20.82261   37.61723
     275      444        3     0.00000   26.27816   20.31182   35.86612
     276      444        3     0.00000   26.46048   27.07939   40.87481
     277      444        3     0.00000   32.23020   30.62106   35.86612
     278      444        3     0.00000   32.41252   23.64297   31.15516
     279      444        3     0.00000   29.34534   28.95548   31.15516
     280      444        3     0.00000   32.23020   27.07939   40.87481
     281      444        3     0.00000   35.29738   25.30855   35.86612
     282      444        3     0.00000   26.46048   30.62106   35.86612
     283      444        3     0.00000   23.39330   25.30855   35.86612
     284      444        3     0.00000   26.27816   23.64297   31.15516
     285      444        3     0.00000   29.34534   22.08266   40.87481
     286      444        3     0.00000   32.41252   20.31182   35.86612
     287      444        3     0.00000   25.33307   20.05609   36.85856
     288      444        3     0.00000   32.83885   22.00075   29.45603
     289      444        3     0.00000   25.85183   18.16246   34.88420
     290      444        3     0.00000   33.35761   24.49340   30.58325
     291      444        3     0.00000   28.13630   29.34875   30.58325
     292      444        3     0.00000   24.64279   24.09487   29.45603
     293      444        3     0.00000   35.99140   24.61794   36.85856
     294      444        3     0.00000   34.04789   18.86050   36.85856
     295      444        3     0.00000   22.69928   26.01402   34.88420
     296      444        3     0.00000   26.54211   22.39928   30.58325
     297      444        3     0.00000   30.55438   21.67454   41.43622
     298      444        3     0.00000   32.14857   19.35805   34.88420
     299      444        3     0.00000   28.13630   21.67454   41.43622
     300      444        3     0.00000   22.69928   24.61794   36.85856
     301      444        3     0.00000   30.55438   29.34875   30.58325
     302      444        3     0.00000   35.99140   26.01402   34.88420
     303      444        3     0.00000   24.64279   18.86050   36.85856
     304      444        3     0.00000   25.33307   24.49340   30.58325
     305      444        3     0.00000   32.14857   22.39928   30.58325
     306      444        3     0.00000   32.83885   18.16246   34.88420
     307      444        3     0.00000   34.04789   24.09487   29.45603
     308      444        3     0.00000   25.85183   22.00075   29.45603
     309      444        3     0.00000   26.54211   19.35805   34.88420
     310      444        3     0.00000   33.35761   20.05609   36.85856
     311      444        3     0.00000   31.64062   24.08863   32.33787
     312      444        3     0.00000   31.52183   29.32077   35.89206
     313      444        3     0.00000   27.16885   26.67040   39.64023
     314      444        3     0.00000   27.05006   21.57544   35.89206
     315      444        3     0.00000   33.81711   25.34522   35.89206
     316      444        3     0.00000   31.64062   21.57544   35.89206
     317      444        3     0.00000   29.34534   28.06417   32.33787
     318      444        3     0.00000   27.05006   24.08863   32.33787
     319      444        3     0.00000   29.34534   22.90062   39.64023
     320      444        3     0.00000   27.16885   29.32077   35.89206
     321      444        3     0.00000   24.87357   25.34522   35.89206
     322      444        3     0.00000   31.52183   26.67040   39.64023
     323      444        4     0.00000   22.00901   12.70691   33.52147
     324      444        4     0.00000   16.64785    9.61164   24.76673
     325      444        4     0.00000   27.37016    9.61164   24.76673
     326      444        4     0.00000   22.00901   18.89744   24.76673
     327      444        5     0.00000   27.93294   21.74517   34.98343
     328      444        5     0.00000   28.00874   27.49531   39.14223
     329      444        5     0.00000   30.68194   29.12621   36.83579
     330      444        5     0.00000   30.75774   23.28855   32.80077
     331      444        5     0.00000   30.47967   27.69961   32.80077
     332      444        5     0.00000   31.81627   25.53059   39.14223
     333      444        5     0.00000   33.22867   26.02496   34.98343
     334      444        5     0.00000   26.87441   28.47130   34.98343
     335      444        5     0.00000   25.46201   24.71514   36.83579
     336      444        5     0.00000   26.79861   25.25327   32.80077
     337      444        5     0.00000   28.21101   23.21553   39.14223
     338      444        5     0.00000   31.89207   22.40008   36.83579
     339      444        5     0.00000   30.47967   23.21553   39.14223
     340      444        5     0.00000   25.46201   26.02496   34.98343
     341      444        5     0.00000   28.21101   27.69961   32.80077
     342      444        5     0.00000   33.22867   24.71514   36.83579
     343      444        5     0.00000   31.81627   28.47130   34.98343
     344      444        5     0.00000   27.93294   23.28855   32.80077
     345      444        5     0.00000   31.89207   25.25327   32.80077
     346      444        5     0.00000   28.00874   29.12621   36.83579
     347      444        5     0.00000   26.87441   25.53059   39.14223
     348      444        5     0.00000   30.68194   27.49531   39.14223
     349      444        5     0.00000   26.79861   22.40008   36.83579
     350      444        5     0.00000   30.75774   21.74517   34.98343
     351      444        6     0.00000   36.68167   21.17817   25.77242
     352      444        6     0.00000   42.53848   24.55960   35.33654
     353      444        6     0.00000   30.82487   24.55960   35.33654
     354      444        6     0.00000   36.68168   14.41532   35.33654
     355      444        4     0.00000   25.08381   20.97541   37.82929
     356      444        2     0.00000   24.36224   20.47545   38.36807
     357      444        4     0.00000   26.11367   17.23587   33.92374
     358      444        2     0.00000   26.84222   17.73179   33.39066
     359      444        4     0.00000   32.57701   20.78636   28.90259
     360      444        2     0.00000   31.84846   20.44908   29.54784
     361      444        4     0.00000   33.60687   25.71506   31.12641
     362      444        2     0.00000   34.32844   26.05637   30.47546
     363      444        4     0.00000   26.95369   28.95377   31.12641
     364      444        2     0.00000   26.29731   29.40802   30.47546
     365      444        4     0.00000   31.73699   22.05498   40.88278
     366      444        2     0.00000   32.39337   21.59267   41.52803
     367      444        4     0.00000   23.72201   24.92882   28.90259
     368      444        2     0.00000   23.79420   25.72841   29.54784
     369      444        4     0.00000   27.47547   21.57260   31.12641
     370      444        2     0.00000   27.41027   20.77704   30.47546
     371      444        4     0.00000   35.31987   23.94242   37.82929
     372      444        2     0.00000   36.11363   23.56750   38.36807
     373      444        4     0.00000   23.37081   26.70407   33.92374
     374      444        2     0.00000   22.57705   27.08706   33.39066
     375      444        4     0.00000   34.96867   18.61669   37.82929
     376      444        2     0.00000   34.89648   19.49157   38.36807
     377      444        4     0.00000   31.21521   19.59459   33.92374
     378      444        2     0.00000   31.28041   18.71568   33.39066
     379      444        1     0.00000   22.00901   27.61980   10.54501
     380      444        1     0.00000   22.00900   14.73655    1.43518
     381      444        1     0.00000   16.43039   17.95736   10.54501
     382      444        1     0.00000   16.43039   24.39899    1.43518
     383      444        1     0.00000   27.58762   17.95736   10.54501
     384      444        1     0.00000   27.58762   24.39899    1.43518
     385      444        2     0.00000   14.67267   22.21520    1.13088
     386      444        2     0.00000   19.23893   14.30621    1.13088
     387      444        2     0.00000   10.10641   14.30621    1.13088
     388      444        2     0.00000   14.67267   16.94254    8.58755
     389      444        2     0.00000   19.86976   26.24296   17.00772
     390      444        2     0.00000   15.93730   28.31534   13.65686
     391      444        2     0.00000   24.14825   33.25396    7.09267
     392      444        2     0.00000   28.08071   30.78552   10.16349
     393      444        2     0.00000   16.55315   22.86784   13.65686
     394      444        2     0.00000   17.81778   29.69983    7.09267
     395      444        2     0.00000   24.06098   25.99455    7.09267
     396      444        2     0.00000   25.32562   21.63275   10.16349
     397      444        2     0.00000   27.46486   28.96969    5.02754
     398      444        2     0.00000   18.69239   25.26441    5.02754
     399      444        2     0.00000   19.95703   23.82316   10.16349
     400      444        2     0.00000   26.20023   25.05825   13.65686
     401      444        3     0.00000   18.94183   24.54746   11.90575
     402      444        3     0.00000   19.12414   31.31502   16.91444
     403      444        3     0.00000   24.89387   34.85669   11.90575
     404      444        3     0.00000   25.07618   27.87861    7.19479
     405      444        3     0.00000   22.00900   33.19112    7.19479
     406      444        3     0.00000   24.89387   31.31502   16.91444
     407      444        3     0.00000   27.96105   29.54418   11.90575
     408      444        3     0.00000   19.12414   34.85669   11.90575
     409      444        3     0.00000   16.05696   29.54418   11.90575
     410      444        3     0.00000   18.94183   27.87861    7.19479
     411      444        3     0.00000   22.00901   26.31829   16.91444