Created on Wed Jul 27 03:45:17 2022

3402 atoms
7 atom types

0.000000  44.018010 xlo xhi
0.000000  38.120715 ylo yhi
0.000000  35.940555 zlo zhi
22.009005  22.009005  12.706905 xy xz yz

Masses

    1    91.224000000 # Zr3+4
    2     1.007940000 # H_
    3    12.010700000 # C_R
    4    15.999400000 # O_3
    5    15.999400000 # O_R
    6    15.999400000 # O_2
    7    16.04        # CH4

Atoms

       1      444        1     0.00000   14.67267   14.91289   10.54501
       2      444        1     0.00000   14.67267    2.02965    1.43518
       3      444        1     0.00000    9.09406    5.25046   10.54501
       4      444        1     0.00000    9.09406   11.69208    1.43518
       5      444        1     0.00000   20.25128    5.25046   10.54501
       6      444        1     0.00000   20.25128   11.69208    1.43518
       7      444        2     0.00000    7.33634    9.50830    1.13088
       8      444        2     0.00000   11.90259    1.59930    1.13088
       9      444        2     0.00000    2.77008    1.59930    1.13088
      10      444        2     0.00000    7.33634    4.23563    8.58755
      11      444        2     0.00000   16.52148   14.42105   17.63351
      12      444        2     0.00000    8.60097   17.02594    9.77483
      13      444        2     0.00000   12.81621   19.68537    6.48337
      14      444        2     0.00000   20.74437   16.63338   14.03527
      15      444        2     0.00000   11.96091    8.57663   11.00368
      16      444        2     0.00000   13.22555   13.96338    6.48337
      17      444        2     0.00000   17.97626   17.17887    6.48337
      18      444        2     0.00000   19.24089    9.64846   14.03527
      19      444        2     0.00000   18.90093   12.36653    5.65333
      20      444        2     0.00000    8.59560   15.56877    5.65333
      21      444        2     0.00000    9.86023   12.71000   12.79393
      22      444        2     0.00000   17.63629   11.64259    9.77483
      23      444        3     0.00000   11.60549   11.84055   11.90575
      24      444        3     0.00000   11.78781   18.60812   16.91444
      25      444        3     0.00000   17.55753   22.14979   11.90575
      26      444        3     0.00000   17.73985   15.17170    7.19479
      27      444        3     0.00000   14.67267   20.48421    7.19479
      28      444        3     0.00000   17.55753   18.60812   16.91444
      29      444        3     0.00000   20.62471   16.83728   11.90575
      30      444        3     0.00000   11.78781   22.14979   11.90575
      31      444        3     0.00000    8.72063   16.83728   11.90575
      32      444        3     0.00000   11.60549   15.17170    7.19479
      33      444        3     0.00000   14.67267   13.61139   16.91444
      34      444        3     0.00000   17.73985   11.84055   11.90575
      35      444        3     0.00000   12.20618   10.69236   11.39159
      36      444        3     0.00000   18.88105   15.72713    5.15644
      37      444        3     0.00000    9.61392   10.59488   12.40339
      38      444        3     0.00000   17.99863   13.81851    6.98170
      39      444        3     0.00000   15.71518   21.38493    6.98170
      40      444        3     0.00000   11.51590   13.90568    5.15644
      41      444        3     0.00000   21.31873   16.93915   10.70098
      42      444        3     0.00000   18.68891    9.99298   10.70098
      43      444        3     0.00000    8.02661   16.71729   13.10886
      44      444        3     0.00000   10.30420   15.62419    6.98170
      45      444        3     0.00000   13.62106   12.72354   17.13663
      46      444        3     0.00000   18.19077   11.29951   13.10886
      47      444        3     0.00000   15.71518   13.71072   17.83467
      48      444        3     0.00000    8.02661   16.93915   10.70098
      49      444        3     0.00000   13.62106   20.39775    6.28366
      50      444        3     0.00000   21.31873   16.71729   13.10886
      51      444        3     0.00000   11.51590    9.49677   11.39159
      52      444        3     0.00000   12.20618   14.30422    6.28366
      53      444        3     0.00000   18.19077   16.12566    6.28366
      54      444        3     0.00000   18.88105   10.10392   13.10886
      55      444        3     0.00000   18.68891   13.41997    5.85448
      56      444        3     0.00000    9.61392   15.22566    5.85448
      57      444        3     0.00000   10.30420   11.79047   12.40339
      58      444        3     0.00000   17.99863   11.18858   10.70098
      59      444        3     0.00000   16.96795   15.61736    8.37750
      60      444        3     0.00000   16.84916   20.84950   11.93169
      61      444        3     0.00000   12.49618   18.19913   15.67986
      62      444        3     0.00000   12.37739   13.10417   11.93169
      63      444        3     0.00000   19.14444   16.87395   11.93169
      64      444        3     0.00000   16.96795   13.10417   11.93169
      65      444        3     0.00000   14.67267   19.59290    8.37750
      66      444        3     0.00000   12.37739   15.61736    8.37750
      67      444        3     0.00000   14.67267   14.42935   15.67986
      68      444        3     0.00000   12.49618   20.84950   11.93169
      69      444        3     0.00000   10.20090   16.87395   11.93169
      70      444        3     0.00000   16.84916   18.19913   15.67986
      71      444        4     0.00000    7.33634    4.23564    9.56110
      72      444        4     0.00000    1.97518    1.14037    0.80636
      73      444        4     0.00000   12.69749    1.14037    0.80636
      74      444        4     0.00000    7.33634   10.42617    0.80636
      75      444        5     0.00000   13.26027   13.27390   11.02306
      76      444        5     0.00000   13.33607   19.02404   15.18186
      77      444        5     0.00000   16.00927   20.65494   12.87542
      78      444        5     0.00000   16.08507   14.81728    8.84040
      79      444        5     0.00000   15.80700   19.22834    8.84040
      80      444        5     0.00000   17.14360   17.05932   15.18186
      81      444        5     0.00000   18.55600   17.55369   11.02306
      82      444        5     0.00000   12.20174   20.00003   11.02306
      83      444        5     0.00000   10.78934   16.24387   12.87542
      84      444        5     0.00000   12.12594   16.78200    8.84040
      85      444        5     0.00000   13.53834   14.74426   15.18186
      86      444        5     0.00000   17.21940   13.92881   12.87542
      87      444        5     0.00000   15.80700   14.74426   15.18186
      88      444        5     0.00000   10.78934   17.55369   11.02306
      89      444        5     0.00000   13.53834   19.22834    8.84040
      90      444        5     0.00000   18.55600   16.24387   12.87542
      91      444        5     0.00000   17.14360   20.00003   11.02306
      92      444        5     0.00000   13.26027   14.81728    8.84040
      93      444        5     0.00000   17.21940   16.78200    8.84040
      94      444        5     0.00000   13.33607   20.65494   12.87542
      95      444        5     0.00000   12.20174   17.05932   15.18186
      96      444        5     0.00000   16.00927   19.02404   15.18186
      97      444        5     0.00000   12.12594   13.92881   12.87542
      98      444        5     0.00000   16.08507   13.27390   11.02306
      99      444        6     0.00000   22.00900   12.70690    1.81205
     100      444        6     0.00000   27.86581   16.08833   11.37617
     101      444        6     0.00000   16.15220   16.08833   11.37617
     102      444        6     0.00000   22.00901    5.94405   11.37617
     103      444        4     0.00000   13.46892   10.73873   10.88867
     104      444        2     0.00000   13.58653    9.75428   10.60953
     105      444        4     0.00000    8.34473   10.55223   12.89015
     106      444        2     0.00000    8.22354   11.53876   13.16031
     107      444        4     0.00000   19.31846   16.66234    4.27120
     108      444        2     0.00000   18.97799   17.51813    4.73229
     109      444        4     0.00000   17.57657   12.88471    7.87584
     110      444        2     0.00000   17.92556   12.02970    7.41969
     111      444        4     0.00000   16.73490   21.48631    7.87584
     112      444        2     0.00000   17.30087   22.21604    7.41969
     113      444        4     0.00000   12.59244   12.63474   16.25139
     114      444        2     0.00000   12.02153   11.91199   16.71248
     115      444        4     0.00000   12.10712   13.05927    4.27120
     116      444        2     0.00000   13.01848   12.92623    4.73229
     117      444        4     0.00000    9.70653   16.45660    7.87584
     118      444        2     0.00000    8.79158   16.58188    7.41969
     119      444        4     0.00000   20.64720   17.03880    9.52254
     120      444        2     0.00000   21.44096   17.09410    8.86848
     121      444        4     0.00000    8.69814   16.59992   14.28567
     122      444        2     0.00000    7.90438   16.53478   14.93882
     123      444        4     0.00000   18.93838    9.36160    9.52254
     124      444        2     0.00000   18.49360   10.02136    8.86848
     125      444        4     0.00000   17.95665   11.93975   14.28567
     126      444        2     0.00000   18.40995   11.28491   14.93882
     127      444        1     0.00000   22.00901   19.14853   22.52519
     128      444        1     0.00000   22.00900    6.26528   13.41536
     129      444        1     0.00000   16.43039    9.48609   22.52519
     130      444        1     0.00000   16.43039   15.92772   13.41536
     131      444        1     0.00000   27.58762    9.48609   22.52519
     132      444        1     0.00000   27.58762   15.92772   13.41536
     133      444        2     0.00000   14.67267   13.74393   13.11106
     134      444        2     0.00000   19.23893    5.83494   13.11106
     135      444        2     0.00000   10.10641    5.83494   13.11106
     136      444        2     0.00000   14.67267    8.47127   20.56773
     137      444        2     0.00000   23.85782   18.65669   29.61370
     138      444        2     0.00000   15.93730   21.26158   21.75502
     139      444        2     0.00000   20.15254   23.92100   18.46355
     140      444        2     0.00000   28.08071   20.86902   26.01546
     141      444        2     0.00000   19.29725   12.81227   22.98386
     142      444        2     0.00000   20.56188   18.19902   18.46355
     143      444        2     0.00000   25.31259   21.41451   18.46355
     144      444        2     0.00000   26.57723   13.88410   26.01546
     145      444        2     0.00000   26.23726   16.60216   17.63351
     146      444        2     0.00000   15.93194   19.80440   17.63351
     147      444        2     0.00000   17.19657   16.94564   24.77412
     148      444        2     0.00000   24.97263   15.87822   21.75502
     149      444        3     0.00000   18.94183   16.07619   23.88594
     150      444        3     0.00000   19.12414   22.84375   28.89462
     151      444        3     0.00000   24.89387   26.38542   23.88594
     152      444        3     0.00000   25.07618   19.40734   19.17498
     153      444        3     0.00000   22.00900   24.71985   19.17498
     154      444        3     0.00000   24.89387   22.84375   28.89462
     155      444        3     0.00000   27.96105   21.07292   23.88594
     156      444        3     0.00000   19.12414   26.38542   23.88594
     157      444        3     0.00000   16.05696   21.07292   23.88594
     158      444        3     0.00000   18.94183   19.40734   19.17498
     159      444        3     0.00000   22.00901   17.84702   28.89462
     160      444        3     0.00000   25.07618   16.07619   23.88594
     161      444        3     0.00000   19.54251   14.92800   23.37178
     162      444        3     0.00000   26.21738   19.96276   17.13663
     163      444        3     0.00000   16.95025   14.83051   24.38358
     164      444        3     0.00000   25.33497   18.05414   18.96188
     165      444        3     0.00000   23.05152   25.62056   18.96188
     166      444        3     0.00000   18.85224   18.14132   17.13663
     167      444        3     0.00000   28.65506   21.17479   22.68116
     168      444        3     0.00000   26.02524   14.22862   22.68116
     169      444        3     0.00000   15.36295   20.95292   25.08905
     170      444        3     0.00000   17.64053   19.85982   18.96188
     171      444        3     0.00000   20.95740   16.95918   29.11681
     172      444        3     0.00000   25.52711   15.53514   25.08905
     173      444        3     0.00000   23.05152   17.94635   29.81485
     174      444        3     0.00000   15.36295   21.17479   22.68116
     175      444        3     0.00000   20.95740   24.63338   18.26384
     176      444        3     0.00000   28.65506   20.95292   25.08905
     177      444        3     0.00000   18.85224   13.73240   23.37178
     178      444        3     0.00000   19.54251   18.53985   18.26384
     179      444        3     0.00000   25.52711   20.36129   18.26384
     180      444        3     0.00000   26.21738   14.33955   25.08905
     181      444        3     0.00000   26.02524   17.65561   17.83467
     182      444        3     0.00000   16.95025   19.46129   17.83467
     183      444        3     0.00000   17.64053   16.02611   24.38358
     184      444        3     0.00000   25.33497   15.42421   22.68116
     185      444        3     0.00000   24.30429   19.85299   20.35769
     186      444        3     0.00000   24.18549   25.08513   23.91187
     187      444        3     0.00000   19.83252   22.43477   27.66005
     188      444        3     0.00000   19.71372   17.33980   23.91187
     189      444        3     0.00000   26.48077   21.10959   23.91187
     190      444        3     0.00000   24.30429   17.33980   23.91187
     191      444        3     0.00000   22.00900   23.82854   20.35769
     192      444        3     0.00000   19.71372   19.85299   20.35769
     193      444        3     0.00000   22.00901   18.66499   27.66005
     194      444        3     0.00000   19.83252   25.08513   23.91187
     195      444        3     0.00000   17.53724   21.10959   23.91187
     196      444        3     0.00000   24.18549   22.43477   27.66005
     197      444        4     0.00000   14.67267    8.47127   21.54128
     198      444        4     0.00000    9.31151    5.37600   12.78655
     199      444        4     0.00000   20.03383    5.37600   12.78655
     200      444        4     0.00000   14.67267   14.66180   12.78655
     201      444        5     0.00000   20.59661   17.50954   23.00324
     202      444        5     0.00000   20.67241   23.25968   27.16204
     203      444        5     0.00000   23.34560   24.89057   24.85561
     204      444        5     0.00000   23.42140   19.05291   20.82059
     205      444        5     0.00000   23.14334   23.46398   20.82059
     206      444        5     0.00000   24.47994   21.29495   27.16204
     207      444        5     0.00000   25.89234   21.78932   23.00324
     208      444        5     0.00000   19.53807   24.23567   23.00324
     209      444        5     0.00000   18.12567   20.47950   24.85561
     210      444        5     0.00000   19.46227   21.01764   20.82059
     211      444        5     0.00000   20.87467   18.97989   27.16204
     212      444        5     0.00000   24.55574   18.16445   24.85561
     213      444        5     0.00000   23.14334   18.97989   27.16204
     214      444        5     0.00000   18.12567   21.78932   23.00324
     215      444        5     0.00000   20.87467   23.46398   20.82059
     216      444        5     0.00000   25.89234   20.47950   24.85561
     217      444        5     0.00000   24.47994   24.23567   23.00324
     218      444        5     0.00000   20.59661   19.05291   20.82059
     219      444        5     0.00000   24.55574   21.01764   20.82059
     220      444        5     0.00000   20.67241   24.89057   24.85561
     221      444        5     0.00000   19.53807   21.29495   27.16204
     222      444        5     0.00000   23.34560   23.25968   27.16204
     223      444        5     0.00000   19.46227   18.16445   24.85561
     224      444        5     0.00000   23.42140   17.50954   23.00324
     225      444        6     0.00000   29.34534   16.94254   13.79223
     226      444        6     0.00000   35.20214   20.32397   23.35635
     227      444        6     0.00000   23.48854   20.32397   23.35635
     228      444        6     0.00000   29.34534   10.17969   23.35635
     229      444        4     0.00000   20.80525   14.97437   22.86885
     230      444        2     0.00000   20.92286   13.98991   22.58972
     231      444        4     0.00000   15.68106   14.78787   24.87034
     232      444        2     0.00000   15.55987   15.77439   25.14050
     233      444        4     0.00000   26.65479   20.89797   16.25139
     234      444        2     0.00000   26.31433   21.75376   16.71248
     235      444        4     0.00000   24.91291   17.12034   19.85602
     236      444        2     0.00000   25.26189   16.26534   19.39987
     237      444        4     0.00000   24.07124   25.72195   19.85602
     238      444        2     0.00000   24.63720   26.45168   19.39987
     239      444        4     0.00000   19.92877   16.87037   28.23157
     240      444        2     0.00000   19.35787   16.14763   28.69266
     241      444        4     0.00000   19.44345   17.29491   16.25139
     242      444        2     0.00000   20.35482   17.16186   16.71248
     243      444        4     0.00000   17.04287   20.69224   19.85602
     244      444        2     0.00000   16.12792   20.81751   19.39987
     245      444        4     0.00000   27.98354   21.27443   21.50272
     246      444        2     0.00000   28.77730   21.32974   20.84867
     247      444        4     0.00000   16.03447   20.83556   26.26585
     248      444        2     0.00000   15.24071   20.77041   26.91900
     249      444        4     0.00000   26.27471   13.59724   21.50272
     250      444        2     0.00000   25.82994   14.25700   20.84867
     251      444        4     0.00000   25.29299   16.17539   26.26585
     252      444        2     0.00000   25.74628   15.52054   26.91900
     253      444        1     0.00000   29.34534   23.38416   34.50538
     254      444        1     0.00000   29.34534   10.50092   25.39555
     255      444        1     0.00000   23.76673   13.72173   34.50538
     256      444        1     0.00000   23.76673   20.16335   25.39555
     257      444        1     0.00000   34.92395   13.72173   34.50538
     258      444        1     0.00000   34.92395   20.16335   25.39555
     259      444        2     0.00000   22.00901   17.97957   25.09125
     260      444        2     0.00000   26.57526   10.07057   25.09125
     261      444        2     0.00000   17.44275   10.07057   25.09125
     262      444        2     0.00000   22.00901   12.70690   32.54792
     263      444        2     0.00000   31.19415   22.89232   41.59388
     264      444        2     0.00000   23.27364   25.49721   33.73520
     265      444        2     0.00000   27.48888   28.15664   30.44374
     266      444        2     0.00000   35.41704   25.10465   37.99564
     267      444        2     0.00000   26.63358   17.04790   34.96405
     268      444        2     0.00000   27.89822   22.43465   30.44374
     269      444        2     0.00000   32.64893   25.65014   30.44374
     270      444        2     0.00000   33.91356   18.11973   37.99564
     271      444        2     0.00000   33.57360   20.83780   29.61370
     272      444        2     0.00000   23.26827   24.04004   29.61370
     273      444        2     0.00000   24.53290   21.18127   36.75430
     274      444        2     0.00000   32.30896   20.11386   33.73520
     275      444        3     0.00000   26.27816   20.31182   35.86612
     276      444        3     0.00000   26.46048   27.07939   40.87481
     277      444        3     0.00000   32.23020   30.62106   35.86612
     278      444        3     0.00000   32.41252   23.64297   31.15516
     279      444        3     0.00000   29.34534   28.95548   31.15516
     280      444        3     0.00000   32.23020   27.07939   40.87481
     281      444        3     0.00000   35.29738   25.30855   35.86612
     282      444        3     0.00000   26.46048   30.62106   35.86612
     283      444        3     0.00000   23.39330   25.30855   35.86612
     284      444        3     0.00000   26.27816   23.64297   31.15516
     285      444        3     0.00000   29.34534   22.08266   40.87481
     286      444        3     0.00000   32.41252   20.31182   35.86612
     287      444        3     0.00000   26.87885   19.16363   35.35196
     288      444        3     0.00000   33.55372   24.19840   29.11681
     289      444        3     0.00000   24.28659   19.06615   36.36376
     290      444        3     0.00000   32.67130   22.28978   30.94207
     291      444        3     0.00000   30.38785   29.85620   30.94207
     292      444        3     0.00000   26.18857   22.37695   29.11681
     293      444        3     0.00000   35.99140   25.41042   34.66135
     294      444        3     0.00000   33.36158   18.46425   34.66135
     295      444        3     0.00000   22.69928   25.18856   37.06923
     296      444        3     0.00000   24.97687   24.09546   30.94207
     297      444        3     0.00000   28.29373   21.19481   41.09700
     298      444        3     0.00000   32.86344   19.77078   37.06923
     299      444        3     0.00000   30.38785   22.18199   41.79504
     300      444        3     0.00000   22.69928   25.41042   34.66135
     301      444        3     0.00000   28.29373   28.86902   30.24403
     302      444        3     0.00000   35.99140   25.18856   37.06923
     303      444        3     0.00000   26.18857   17.96804   35.35196
     304      444        3     0.00000   26.87885   22.77549   30.24403
     305      444        3     0.00000   32.86344   24.59693   30.24403
     306      444        3     0.00000   33.55372   18.57519   37.06923
     307      444        3     0.00000   33.36158   21.89124   29.81485
     308      444        3     0.00000   24.28659   23.69693   29.81485
     309      444        3     0.00000   24.97687   20.26174   36.36376
     310      444        3     0.00000   32.67130   19.65985   34.66135
     311      444        3     0.00000   31.64062   24.08863   32.33787
     312      444        3     0.00000   31.52183   29.32077   35.89206
     313      444        3     0.00000   27.16885   26.67040   39.64023
     314      444        3     0.00000   27.05006   21.57544   35.89206
     315      444        3     0.00000   33.81711   25.34522   35.89206
     316      444        3     0.00000   31.64062   21.57544   35.89206
     317      444        3     0.00000   29.34534   28.06417   32.33787
     318      444        3     0.00000   27.05006   24.08863   32.33787
     319      444        3     0.00000   29.34534   22.90062   39.64023
     320      444        3     0.00000   27.16885   29.32077   35.89206
     321      444        3     0.00000   24.87357   25.34522   35.89206
     322      444        3     0.00000   31.52183   26.67040   39.64023
     323      444        4     0.00000   22.00901   12.70691   33.52147
     324      444        4     0.00000   16.64785    9.61164   24.76673
     325      444        4     0.00000   27.37016    9.61164   24.76673
     326      444        4     0.00000   22.00901   18.89744   24.76673
     327      444        5     0.00000   27.93294   21.74517   34.98343
     328      444        5     0.00000   28.00874   27.49531   39.14223
     329      444        5     0.00000   30.68194   29.12621   36.83579
     330      444        5     0.00000   30.75774   23.28855   32.80077
     331      444        5     0.00000   30.47967   27.69961   32.80077
     332      444        5     0.00000   31.81627   25.53059   39.14223
     333      444        5     0.00000   33.22867   26.02496   34.98343
     334      444        5     0.00000   26.87441   28.47130   34.98343
     335      444        5     0.00000   25.46201   24.71514   36.83579
     336      444        5     0.00000   26.79861   25.25327   32.80077
     337      444        5     0.00000   28.21101   23.21553   39.14223
     338      444        5     0.00000   31.89207   22.40008   36.83579
     339      444        5     0.00000   30.47967   23.21553   39.14223
     340      444        5     0.00000   25.46201   26.02496   34.98343
     341      444        5     0.00000   28.21101   27.69961   32.80077
     342      444        5     0.00000   33.22867   24.71514   36.83579
     343      444        5     0.00000   31.81627   28.47130   34.98343
     344      444        5     0.00000   27.93294   23.28855   32.80077
     345      444        5     0.00000   31.89207   25.25327   32.80077
     346      444        5     0.00000   28.00874   29.12621   36.83579
     347      444        5     0.00000   26.87441   25.53059   39.14223
     348      444        5     0.00000   30.68194   27.49531   39.14223
     349      444        5     0.00000   26.79861   22.40008   36.83579
     350      444        5     0.00000   30.75774   21.74517   34.98343
     351      444        6     0.00000   36.68167   21.17817   25.77242
     352      444        6     0.00000   42.53848   24.55960   35.33654
     353      444        6     0.00000   30.82487   24.55960   35.33654
     354      444        6     0.00000   36.68168   14.41532   35.33654
     355      444        4     0.00000   28.14159   19.21000   34.84904
     356      444        2     0.00000   28.25920   18.22555   34.56990
     357      444        4     0.00000   23.01740   19.02350   36.85052
     358      444        2     0.00000   22.89621   20.01003   37.12068
     359      444        4     0.00000   33.99113   25.13361   28.23157
     360      444        2     0.00000   33.65066   25.98940   28.69266
     361      444        4     0.00000   32.24924   21.35598   31.83621
     362      444        2     0.00000   32.59823   20.50097   31.38006
     363      444        4     0.00000   31.40757   29.95758   31.83621
     364      444        2     0.00000   31.97354   30.68731   31.38006
     365      444        4     0.00000   27.26511   21.10601   40.21176
     366      444        2     0.00000   26.69420   20.38326   40.67285
     367      444        4     0.00000   26.77979   21.53054   28.23157
     368      444        2     0.00000   27.69115   21.39750   28.69266
     369      444        4     0.00000   24.37920   24.92787   31.83621
     370      444        2     0.00000   23.46425   25.05315   31.38006
     371      444        4     0.00000   35.31987   25.51007   33.48291
     372      444        2     0.00000   36.11363   25.56537   32.82885
     373      444        4     0.00000   23.37081   25.07119   38.24604
     374      444        2     0.00000   22.57705   25.00605   38.89919
     375      444        4     0.00000   33.61105   17.83287   33.48291
     376      444        2     0.00000   33.16627   18.49263   32.82885
     377      444        4     0.00000   32.62932   20.41102   38.24604
     378      444        2     0.00000   33.08262   19.75618   38.89919
     379      444        1     0.00000   22.00901   27.61980   10.54501
     380      444        1     0.00000   22.00900   14.73655    1.43518
     381      444        1     0.00000   16.43039   17.95736   10.54501
     382      444        1     0.00000   16.43039   24.39899    1.43518
     383      444        1     0.00000   27.58762   17.95736   10.54501
     384      444        1     0.00000   27.58762   24.39899    1.43518
     385      444        2     0.00000   14.67267   22.21520    1.13088
     386      444        2     0.00000   19.23893   14.30621    1.13088
     387      444        2     0.00000   10.10641   14.30621    1.13088
     388      444        2     0.00000   14.67267   16.94254    8.58755
     389      444        2     0.00000   23.85782   27.12796   17.63351
     390      444        2     0.00000   15.93730   29.73285    9.77483
     391      444        2     0.00000   20.15254   32.39227    6.48337
     392      444        2     0.00000   28.08071   29.34029   14.03527
     393      444        2     0.00000   19.29725   21.28354   11.00368
     394      444        2     0.00000   20.56188   26.67029    6.48337
     395      444        2     0.00000   25.31259   29.88578    6.48337
     396      444        2     0.00000   26.57723   22.35537   14.03527
     397      444        2     0.00000   26.23726   25.07343    5.65333
     398      444        2     0.00000   15.93194   28.27567    5.65333
     399      444        2     0.00000   17.19657   25.41691   12.79393
     400      444        2     0.00000   24.97263   24.34949    9.77483
     401      444        3     0.00000   18.94183   24.54746   11.90575
     402      444        3     0.00000   19.12414   31.31502   16.91444
     403      444        3     0.00000   24.89387   34.85669   11.90575
     404      444        3     0.00000   25.07618   27.87861    7.19479
     405      444        3     0.00000   22.00900   33.19112    7.19479
     406      444        3     0.00000   24.89387   31.31502   16.91444
     407      444        3     0.00000   27.96105   29.54418   11.90575
     408      444        3     0.00000   19.12414   34.85669   11.90575
     409      444        3     0.00000   16.05696   29.54418   11.90575
     410      444        3     0.00000   18.94183   27.87861    7.19479
     411      444        3     0.00000   22.00901   26.31829   16.91444