Created on Wed Jul 27 11:38:35 2022

3078 atoms
7 atom types

0.000000  44.018010 xlo xhi
0.000000  38.120715 ylo yhi
0.000000  35.940555 zlo zhi
22.009005  22.009005  12.706905 xy xz yz

Masses

    1    91.224000000 # Zr3+4
    2     1.007940000 # H_
    3    12.010700000 # C_R
    4    15.999400000 # O_3
    5    15.999400000 # O_R
    6    15.999400000 # O_2
    7    16.04        # CH4

Atoms

       1      444        1     0.00000   14.67267   14.91289   10.54501
       2      444        1     0.00000   14.67267    2.02965    1.43518
       3      444        1     0.00000    9.09406    5.25046   10.54501
       4      444        1     0.00000    9.09406   11.69208    1.43518
       5      444        1     0.00000   20.25128    5.25046   10.54501
       6      444        1     0.00000   20.25128   11.69208    1.43518
       7      444        2     0.00000    7.33634    9.50830    1.13088
       8      444        2     0.00000   11.90259    1.59930    1.13088
       9      444        2     0.00000    2.77008    1.59930    1.13088
      10      444        2     0.00000    7.33634    4.23563    8.58755
      11      444        2     0.00000   10.76087   12.19002   10.01072
      12      444        2     0.00000   20.87320   14.54519    6.09082
      13      444        2     0.00000   11.04665    9.10448   13.89665
      14      444        2     0.00000   15.91892   14.93536    6.01671
      15      444        2     0.00000   15.78782   19.02541    6.01671
      16      444        2     0.00000    9.49624   12.77140    6.09082
      17      444        2     0.00000   20.74437   15.93108   10.01072
      18      444        2     0.00000   19.84910    9.99961   10.01072
      19      444        2     0.00000    8.60097   17.72134   13.89665
      20      444        2     0.00000   12.31128   16.86685    6.01671
      21      444        2     0.00000   13.64857   15.03976   18.07100
      22      444        2     0.00000   17.03406   11.29489   13.89665
      23      444        2     0.00000   15.78782   12.01441   15.93176
      24      444        2     0.00000    8.60097   15.93108   10.01072
      25      444        2     0.00000   13.64857   22.05076    8.15595
      26      444        2     0.00000   20.74437   17.72134   13.89665
      27      444        2     0.00000    9.49624    9.99961   10.01072
      28      444        2     0.00000   10.76087   13.50154    8.15595
      29      444        2     0.00000   19.60857   15.27533    8.15595
      30      444        2     0.00000   18.29869    9.10448   13.89665
      31      444        2     0.00000   17.18355   14.20522    3.95157
      32      444        2     0.00000   11.04665   16.13671    3.95157
      33      444        2     0.00000   12.31128   11.29489   13.89665
      34      444        2     0.00000   18.58447   12.19002   10.01072
      35      444        3     0.00000   11.60549   11.84055   11.90575
      36      444        3     0.00000   11.78781   18.60812   16.91444
      37      444        3     0.00000   17.55753   22.14979   11.90575
      38      444        3     0.00000   17.73985   15.17170    7.19479
      39      444        3     0.00000   14.67267   20.48421    7.19479
      40      444        3     0.00000   17.55753   18.60812   16.91444
      41      444        3     0.00000   20.62471   16.83728   11.90575
      42      444        3     0.00000   11.78781   22.14979   11.90575
      43      444        3     0.00000    8.72063   16.83728   11.90575
      44      444        3     0.00000   11.60549   15.17170    7.19479
      45      444        3     0.00000   14.67267   13.61139   16.91444
      46      444        3     0.00000   17.73985   11.84055   11.90575
      47      444        3     0.00000   10.80963   11.49866   10.85618
      48      444        3     0.00000   19.78372   14.63570    6.09510
      49      444        3     0.00000   10.99560    9.79716   13.05240
      50      444        3     0.00000   17.00816   14.84209    6.01327
      51      444        3     0.00000   15.32397   20.01536    6.01327
      52      444        3     0.00000   10.11936   13.66966    6.09510
      53      444        3     0.00000   21.31873   16.31899   10.85618
      54      444        3     0.00000   19.22598   10.30306   10.85618
      55      444        3     0.00000    8.02661   17.33080   13.05240
      56      444        3     0.00000   11.68588   15.97017    6.01327
      57      444        3     0.00000   14.11493   14.05099   18.07528
      58      444        3     0.00000   17.65946   10.99276   13.05240
      59      444        3     0.00000   15.32397   12.34115   16.86624
      60      444        3     0.00000    8.02661   16.31899   10.85618
      61      444        3     0.00000   14.11493   21.72520    7.22231
      62      444        3     0.00000   21.31873   17.33080   13.05240
      63      444        3     0.00000   10.11936   10.30306   10.85618
      64      444        3     0.00000   10.80963   14.06819    7.22231
      65      444        3     0.00000   19.09345   15.03423    7.22231
      66      444        3     0.00000   18.34974    9.79716   13.05240
      67      444        3     0.00000   17.69844   14.44356    4.88605
      68      444        3     0.00000   10.99560   15.57164    4.88605
      69      444        3     0.00000   11.68588   10.99276   13.05240
      70      444        3     0.00000   18.53571   11.49866   10.85618
      71      444        3     0.00000   16.96795   15.61736    8.37750
      72      444        3     0.00000   16.84916   20.84950   11.93169
      73      444        3     0.00000   12.49618   18.19913   15.67986
      74      444        3     0.00000   12.37739   13.10417   11.93169
      75      444        3     0.00000   19.14444   16.87395   11.93169
      76      444        3     0.00000   16.96795   13.10417   11.93169
      77      444        3     0.00000   14.67267   19.59290    8.37750
      78      444        3     0.00000   12.37739   15.61736    8.37750
      79      444        3     0.00000   14.67267   14.42935   15.67986
      80      444        3     0.00000   12.49618   20.84950   11.93169
      81      444        3     0.00000   10.20090   16.87395   11.93169
      82      444        3     0.00000   16.84916   18.19913   15.67986
      83      444        4     0.00000    7.33634    4.23564    9.56110
      84      444        4     0.00000    1.97518    1.14037    0.80636
      85      444        4     0.00000   12.69749    1.14037    0.80636
      86      444        4     0.00000    7.33634   10.42617    0.80636
      87      444        5     0.00000   13.26027   13.27390   11.02306
      88      444        5     0.00000   13.33607   19.02404   15.18186
      89      444        5     0.00000   16.00927   20.65494   12.87542
      90      444        5     0.00000   16.08507   14.81728    8.84040
      91      444        5     0.00000   15.80700   19.22834    8.84040
      92      444        5     0.00000   17.14360   17.05932   15.18186
      93      444        5     0.00000   18.55600   17.55369   11.02306
      94      444        5     0.00000   12.20174   20.00003   11.02306
      95      444        5     0.00000   10.78934   16.24387   12.87542
      96      444        5     0.00000   12.12594   16.78200    8.84040
      97      444        5     0.00000   13.53834   14.74426   15.18186
      98      444        5     0.00000   17.21940   13.92881   12.87542
      99      444        5     0.00000   15.80700   14.74426   15.18186
     100      444        5     0.00000   10.78934   17.55369   11.02306
     101      444        5     0.00000   13.53834   19.22834    8.84040
     102      444        5     0.00000   18.55600   16.24387   12.87542
     103      444        5     0.00000   17.14360   20.00003   11.02306
     104      444        5     0.00000   13.26027   14.81728    8.84040
     105      444        5     0.00000   17.21940   16.78200    8.84040
     106      444        5     0.00000   13.33607   20.65494   12.87542
     107      444        5     0.00000   12.20174   17.05932   15.18186
     108      444        5     0.00000   16.00927   19.02404   15.18186
     109      444        5     0.00000   12.12594   13.92881   12.87542
     110      444        5     0.00000   16.08507   13.27390   11.02306
     111      444        6     0.00000   22.00901   12.70690    1.81205
     112      444        6     0.00000   27.86581   16.08833   11.37617
     113      444        6     0.00000   16.15220   16.08833   11.37617
     114      444        6     0.00000   22.00901    5.94405   11.37617
     115      444        1     0.00000   22.00901   19.14853   22.52519
     116      444        1     0.00000   22.00901    6.26528   13.41536
     117      444        1     0.00000   16.43039    9.48609   22.52519
     118      444        1     0.00000   16.43039   15.92772   13.41536
     119      444        1     0.00000   27.58762    9.48609   22.52519
     120      444        1     0.00000   27.58762   15.92772   13.41536
     121      444        2     0.00000   14.67267   13.74393   13.11106
     122      444        2     0.00000   19.23893    5.83494   13.11106
     123      444        2     0.00000   10.10641    5.83494   13.11106
     124      444        2     0.00000   14.67267    8.47127   20.56773
     125      444        2     0.00000   18.09721   16.42565   21.99090
     126      444        2     0.00000   28.20953   18.78083   18.07100
     127      444        2     0.00000   18.38298   13.34012   25.87683
     128      444        2     0.00000   23.25525   19.17100   17.99690
     129      444        2     0.00000   23.12415   23.26105   17.99690
     130      444        2     0.00000   16.83257   17.00703   18.07100
     131      444        2     0.00000   28.08071   20.16672   21.99090
     132      444        2     0.00000   27.18544   14.23525   21.99090
     133      444        2     0.00000   15.93730   21.95697   25.87683
     134      444        2     0.00000   19.64761   21.10248   17.99690
     135      444        2     0.00000   20.98491   19.27540   30.05119
     136      444        2     0.00000   24.37040   15.53053   25.87683
     137      444        2     0.00000   23.12415   16.25005   27.91194
     138      444        2     0.00000   15.93730   20.16672   21.99090
     139      444        2     0.00000   20.98491   26.28639   20.13614
     140      444        2     0.00000   28.08071   21.95697   25.87683
     141      444        2     0.00000   16.83257   14.23525   21.99090
     142      444        2     0.00000   18.09721   17.73717   20.13614
     143      444        2     0.00000   26.94490   19.51096   20.13614
     144      444        2     0.00000   25.63503   13.34012   25.87683
     145      444        2     0.00000   24.51988   18.44086   15.93176
     146      444        2     0.00000   18.38298   20.37235   15.93176
     147      444        2     0.00000   19.64761   15.53053   25.87683
     148      444        2     0.00000   25.92080   16.42565   21.99090
     149      444        3     0.00000   18.94183   16.07619   23.88594
     150      444        3     0.00000   19.12414   22.84375   28.89462
     151      444        3     0.00000   24.89387   26.38542   23.88594
     152      444        3     0.00000   25.07618   19.40734   19.17498
     153      444        3     0.00000   22.00901   24.71985   19.17498
     154      444        3     0.00000   24.89387   22.84375   28.89462
     155      444        3     0.00000   27.96105   21.07292   23.88594
     156      444        3     0.00000   19.12414   26.38542   23.88594
     157      444        3     0.00000   16.05696   21.07292   23.88594
     158      444        3     0.00000   18.94183   19.40734   19.17498
     159      444        3     0.00000   22.00901   17.84702   28.89462
     160      444        3     0.00000   25.07618   16.07619   23.88594
     161      444        3     0.00000   18.14597   15.73429   22.83636
     162      444        3     0.00000   27.12006   18.87133   18.07528
     163      444        3     0.00000   18.33194   14.03280   25.03258
     164      444        3     0.00000   24.34450   19.07772   17.99345
     165      444        3     0.00000   22.66030   24.25099   17.99345
     166      444        3     0.00000   17.45569   17.90529   18.07528
     167      444        3     0.00000   28.65506   20.55463   22.83636
     168      444        3     0.00000   26.56232   14.53870   22.83636
     169      444        3     0.00000   15.36295   21.56643   25.03258
     170      444        3     0.00000   19.02222   20.20581   17.99345
     171      444        3     0.00000   21.45126   18.28663   30.05546
     172      444        3     0.00000   24.99579   15.22839   25.03258
     173      444        3     0.00000   22.66030   16.57679   28.84642
     174      444        3     0.00000   15.36295   20.55463   22.83636
     175      444        3     0.00000   21.45126   25.96084   19.20250
     176      444        3     0.00000   28.65506   21.56643   25.03258
     177      444        3     0.00000   17.45569   14.53870   22.83636
     178      444        3     0.00000   18.14597   18.30382   19.20250
     179      444        3     0.00000   26.42978   19.26986   19.20250
     180      444        3     0.00000   25.68607   14.03280   25.03258
     181      444        3     0.00000   25.03477   18.67919   16.86624
     182      444        3     0.00000   18.33194   19.80727   16.86624
     183      444        3     0.00000   19.02222   15.22839   25.03258
     184      444        3     0.00000   25.87204   15.73429   22.83636
     185      444        3     0.00000   24.30429   19.85299   20.35769
     186      444        3     0.00000   24.18549   25.08513   23.91187
     187      444        3     0.00000   19.83252   22.43477   27.66005
     188      444        3     0.00000   19.71372   17.33980   23.91187
     189      444        3     0.00000   26.48077   21.10959   23.91187
     190      444        3     0.00000   24.30429   17.33980   23.91187
     191      444        3     0.00000   22.00900   23.82854   20.35769
     192      444        3     0.00000   19.71372   19.85299   20.35769
     193      444        3     0.00000   22.00901   18.66499   27.66005
     194      444        3     0.00000   19.83252   25.08513   23.91187
     195      444        3     0.00000   17.53724   21.10959   23.91187
     196      444        3     0.00000   24.18549   22.43477   27.66005
     197      444        4     0.00000   14.67267    8.47127   21.54128
     198      444        4     0.00000    9.31151    5.37600   12.78655
     199      444        4     0.00000   20.03383    5.37600   12.78655
     200      444        4     0.00000   14.67267   14.66180   12.78655
     201      444        5     0.00000   20.59661   17.50954   23.00324
     202      444        5     0.00000   20.67241   23.25968   27.16204
     203      444        5     0.00000   23.34560   24.89057   24.85561
     204      444        5     0.00000   23.42140   19.05291   20.82059
     205      444        5     0.00000   23.14334   23.46398   20.82059
     206      444        5     0.00000   24.47994   21.29495   27.16204
     207      444        5     0.00000   25.89234   21.78932   23.00324
     208      444        5     0.00000   19.53807   24.23567   23.00324
     209      444        5     0.00000   18.12567   20.47950   24.85561
     210      444        5     0.00000   19.46227   21.01764   20.82059
     211      444        5     0.00000   20.87467   18.97989   27.16204
     212      444        5     0.00000   24.55574   18.16445   24.85561
     213      444        5     0.00000   23.14334   18.97989   27.16204
     214      444        5     0.00000   18.12567   21.78932   23.00324
     215      444        5     0.00000   20.87467   23.46398   20.82059
     216      444        5     0.00000   25.89234   20.47950   24.85561
     217      444        5     0.00000   24.47994   24.23567   23.00324
     218      444        5     0.00000   20.59661   19.05291   20.82059
     219      444        5     0.00000   24.55574   21.01764   20.82059
     220      444        5     0.00000   20.67241   24.89057   24.85561
     221      444        5     0.00000   19.53807   21.29495   27.16204
     222      444        5     0.00000   23.34560   23.25968   27.16204
     223      444        5     0.00000   19.46227   18.16445   24.85561
     224      444        5     0.00000   23.42140   17.50954   23.00324
     225      444        6     0.00000   29.34534   16.94254   13.79223
     226      444        6     0.00000   35.20214   20.32397   23.35635
     227      444        6     0.00000   23.48854   20.32397   23.35635
     228      444        6     0.00000   29.34534   10.17969   23.35635
     229      444        1     0.00000   29.34534   23.38416   34.50538
     230      444        1     0.00000   29.34534   10.50092   25.39555
     231      444        1     0.00000   23.76673   13.72173   34.50538
     232      444        1     0.00000   23.76673   20.16335   25.39555
     233      444        1     0.00000   34.92395   13.72173   34.50538
     234      444        1     0.00000   34.92395   20.16335   25.39555
     235      444        2     0.00000   22.00901   17.97957   25.09125
     236      444        2     0.00000   26.57526   10.07057   25.09125
     237      444        2     0.00000   17.44275   10.07057   25.09125
     238      444        2     0.00000   22.00901   12.70690   32.54792
     239      444        2     0.00000   25.43354   20.66129   33.97109
     240      444        2     0.00000   35.54587   23.01646   30.05119
     241      444        2     0.00000   25.71932   17.57575   37.85702
     242      444        2     0.00000   30.59159   23.40663   29.97708
     243      444        2     0.00000   30.46049   27.49668   29.97708
     244      444        2     0.00000   24.16891   21.24267   30.05119
     245      444        2     0.00000   35.41704   24.40235   33.97109
     246      444        2     0.00000   34.52177   18.47088   33.97109
     247      444        2     0.00000   23.27364   26.19261   37.85702
     248      444        2     0.00000   26.98395   25.33812   29.97708
     249      444        2     0.00000   28.32124   23.51103   42.03137
     250      444        2     0.00000   31.70673   19.76616   37.85702
     251      444        2     0.00000   30.46049   20.48568   39.89213
     252      444        2     0.00000   23.27364   24.40235   33.97109
     253      444        2     0.00000   28.32124   30.52203   32.11632
     254      444        2     0.00000   35.41704   26.19261   37.85702
     255      444        2     0.00000   24.16891   18.47088   33.97109
     256      444        2     0.00000   25.43354   21.97281   32.11632
     257      444        2     0.00000   34.28124   23.74660   32.11632
     258      444        2     0.00000   32.97136   17.57575   37.85702
     259      444        2     0.00000   31.85622   22.67649   27.91194
     260      444        2     0.00000   25.71932   24.60798   27.91194
     261      444        2     0.00000   26.98395   19.76616   37.85702
     262      444        2     0.00000   33.25714   20.66129   33.97109
     263      444        3     0.00000   26.27816   20.31182   35.86612
     264      444        3     0.00000   26.46048   27.07939   40.87481
     265      444        3     0.00000   32.23020   30.62106   35.86612
     266      444        3     0.00000   32.41252   23.64297   31.15516
     267      444        3     0.00000   29.34534   28.95548   31.15516
     268      444        3     0.00000   32.23020   27.07939   40.87481
     269      444        3     0.00000   35.29738   25.30855   35.86612
     270      444        3     0.00000   26.46048   30.62106   35.86612
     271      444        3     0.00000   23.39330   25.30855   35.86612
     272      444        3     0.00000   26.27816   23.64297   31.15516
     273      444        3     0.00000   29.34534   22.08266   40.87481
     274      444        3     0.00000   32.41252   20.31182   35.86612
     275      444        3     0.00000   25.48230   19.96993   34.81655
     276      444        3     0.00000   34.45639   23.10697   30.05546
     277      444        3     0.00000   25.66827   18.26843   37.01277
     278      444        3     0.00000   31.68083   23.31336   29.97364
     279      444        3     0.00000   29.99664   28.48663   29.97364
     280      444        3     0.00000   24.79203   22.14093   30.05546
     281      444        3     0.00000   35.99140   24.79026   34.81655
     282      444        3     0.00000   33.89865   18.77433   34.81655
     283      444        3     0.00000   22.69928   25.80207   37.01277
     284      444        3     0.00000   26.35855   24.44144   29.97364
     285      444        3     0.00000   28.78760   22.52226   42.03565
     286      444        3     0.00000   32.33213   19.46403   37.01277
     287      444        3     0.00000   29.99664   20.81242   40.82661
     288      444        3     0.00000   22.69928   24.79026   34.81655
     289      444        3     0.00000   28.78760   30.19647   31.18268
     290      444        3     0.00000   35.99140   25.80207   37.01277
     291      444        3     0.00000   24.79203   18.77433   34.81655
     292      444        3     0.00000   25.48230   22.53946   31.18268
     293      444        3     0.00000   33.76612   23.50550   31.18268
     294      444        3     0.00000   33.02241   18.26843   37.01277
     295      444        3     0.00000   32.37111   22.91483   28.84642
     296      444        3     0.00000   25.66827   24.04291   28.84642
     297      444        3     0.00000   26.35855   19.46403   37.01277
     298      444        3     0.00000   33.20838   19.96993   34.81655
     299      444        3     0.00000   31.64062   24.08863   32.33787
     300      444        3     0.00000   31.52183   29.32077   35.89206
     301      444        3     0.00000   27.16885   26.67040   39.64023
     302      444        3     0.00000   27.05006   21.57544   35.89206
     303      444        3     0.00000   33.81711   25.34522   35.89206
     304      444        3     0.00000   31.64062   21.57544   35.89206
     305      444        3     0.00000   29.34534   28.06417   32.33787
     306      444        3     0.00000   27.05006   24.08863   32.33787
     307      444        3     0.00000   29.34534   22.90062   39.64023
     308      444        3     0.00000   27.16885   29.32077   35.89206
     309      444        3     0.00000   24.87357   25.34522   35.89206
     310      444        3     0.00000   31.52183   26.67040   39.64023
     311      444        4     0.00000   22.00901   12.70691   33.52147
     312      444        4     0.00000   16.64785    9.61164   24.76673
     313      444        4     0.00000   27.37016    9.61164   24.76673
     314      444        4     0.00000   22.00901   18.89744   24.76673
     315      444        5     0.00000   27.93294   21.74517   34.98343
     316      444        5     0.00000   28.00874   27.49531   39.14223
     317      444        5     0.00000   30.68194   29.12621   36.83579
     318      444        5     0.00000   30.75774   23.28855   32.80077
     319      444        5     0.00000   30.47967   27.69961   32.80077
     320      444        5     0.00000   31.81627   25.53059   39.14223
     321      444        5     0.00000   33.22867   26.02496   34.98343
     322      444        5     0.00000   26.87441   28.47130   34.98343
     323      444        5     0.00000   25.46201   24.71514   36.83579
     324      444        5     0.00000   26.79861   25.25327   32.80077
     325      444        5     0.00000   28.21101   23.21553   39.14223
     326      444        5     0.00000   31.89207   22.40008   36.83579
     327      444        5     0.00000   30.47967   23.21553   39.14223
     328      444        5     0.00000   25.46201   26.02496   34.98343
     329      444        5     0.00000   28.21101   27.69961   32.80077
     330      444        5     0.00000   33.22867   24.71514   36.83579
     331      444        5     0.00000   31.81627   28.47130   34.98343
     332      444        5     0.00000   27.93294   23.28855   32.80077
     333      444        5     0.00000   31.89207   25.25327   32.80077
     334      444        5     0.00000   28.00874   29.12621   36.83579
     335      444        5     0.00000   26.87441   25.53059   39.14223
     336      444        5     0.00000   30.68194   27.49531   39.14223
     337      444        5     0.00000   26.79861   22.40008   36.83579
     338      444        5     0.00000   30.75774   21.74517   34.98343
     339      444        6     0.00000   36.68168   21.17817   25.77242
     340      444        6     0.00000   42.53848   24.55960   35.33654
     341      444        6     0.00000   30.82487   24.55960   35.33654
     342      444        6     0.00000   36.68168   14.41532   35.33654
     343      444        1     0.00000   22.00901   27.61980   10.54501
     344      444        1     0.00000   22.00901   14.73655    1.43518
     345      444        1     0.00000   16.43039   17.95736   10.54501
     346      444        1     0.00000   16.43039   24.39899    1.43518
     347      444        1     0.00000   27.58762   17.95736   10.54501
     348      444        1     0.00000   27.58762   24.39899    1.43518
     349      444        2     0.00000   14.67267   22.21520    1.13088
     350      444        2     0.00000   19.23893   14.30621    1.13088
     351      444        2     0.00000   10.10641   14.30621    1.13088
     352      444        2     0.00000   14.67267   16.94254    8.58755
     353      444        2     0.00000   18.09721   24.89692   10.01072
     354      444        2     0.00000   28.20953   27.25210    6.09082
     355      444        2     0.00000   18.38298   21.81139   13.89665
     356      444        2     0.00000   23.25525   27.64227    6.01671
     357      444        2     0.00000   23.12415   31.73232    6.01671
     358      444        2     0.00000   16.83257   25.47830    6.09082
     359      444        2     0.00000   28.08071   28.63799   10.01072
     360      444        2     0.00000   27.18544   22.70652   10.01072
     361      444        2     0.00000   15.93730   30.42824   13.89665
     362      444        2     0.00000   19.64761   29.57375    6.01671
     363      444        2     0.00000   20.98491   27.74667   18.07100
     364      444        2     0.00000   24.37040   24.00180   13.89665
     365      444        2     0.00000   23.12415   24.72132   15.93176
     366      444        2     0.00000   15.93730   28.63799   10.01072
     367      444        2     0.00000   20.98491   34.75766    8.15595
     368      444        2     0.00000   28.08071   30.42824   13.89665
     369      444        2     0.00000   16.83257   22.70652   10.01072
     370      444        2     0.00000   18.09721   26.20844    8.15595
     371      444        2     0.00000   26.94490   27.98223    8.15595
     372      444        2     0.00000   25.63503   21.81139   13.89665
     373      444        2     0.00000   24.51988   26.91213    3.95157
     374      444        2     0.00000   18.38298   28.84362    3.95157
     375      444        2     0.00000   19.64761   24.00180   13.89665
     376      444        2     0.00000   25.92080   24.89692   10.01072
     377      444        3     0.00000   18.94183   24.54746   11.90575
     378      444        3     0.00000   19.12414   31.31502   16.91444
     379      444        3     0.00000   24.89387   34.85669   11.90575
     380      444        3     0.00000   25.07618   27.87861    7.19479
     381      444        3     0.00000   22.00901   33.19112    7.19479
     382      444        3     0.00000   24.89387   31.31502   16.91444
     383      444        3     0.00000   27.96105   29.54418   11.90575
     384      444        3     0.00000   19.12414   34.85669   11.90575
     385      444        3     0.00000   16.05696   29.54418   11.90575
     386      444        3     0.00000   18.94183   27.87861    7.19479
     387      444        3     0.00000   22.00901   26.31829   16.91444
     388      444        3     0.00000   25.07618   24.54746   11.90575
     389      444        3     0.00000   18.14597   24.20556   10.85618
     390      444        3     0.00000   27.12006   27.34260    6.09510
     391      444        3     0.00000   18.33194   22.50407   13.05240
     392      444        3     0.00000   24.34450   27.54899    6.01327
     393      444        3     0.00000   22.66030   32.72226    6.01327
     394      444        3     0.00000   17.45569   26.37656    6.09510
     395      444        3     0.00000   28.65506   29.02590   10.85618
     396      444        3     0.00000   26.56232   23.00997   10.85618
     397      444        3     0.00000   15.36295   30.03770   13.05240
     398      444        3     0.00000   19.02222   28.67708    6.01327
     399      444        3     0.00000   21.45126   26.75790   18.07528
     400      444        3     0.00000   24.99579   23.69966   13.05240
     401      444        3     0.00000   22.66030   25.04806   16.86624
     402      444        3     0.00000   15.36295   29.02590   10.85618
     403      444        3     0.00000   21.45126   34.43211    7.22231
     404      444        3     0.00000   28.65506   30.03770   13.05240
     405      444        3     0.00000   17.45569   23.00997   10.85618
     406      444        3     0.00000   18.14597   26.77509    7.22231
     407      444        3     0.00000   26.42978   27.74113    7.22231
     408      444        3     0.00000   25.68607   22.50407   13.05240
     409      444        3     0.00000   25.03477   27.15046    4.88605
     410      444        3     0.00000   18.33194   28.27854    4.88605
     411      444        3     0.00000   19.02222   23.69966   13.05240