Created on Wed Aug 24 08:46:59 2022 

3564 atoms
8 atom types

0.000000  44.018010 xlo xhi
0.000000  38.120715 ylo yhi
0.000000  35.940555 zlo zhi
22.009005  22.009005  12.706905 xy xz yz

Masses

    1    91.224000000 # Zr3+4
    2     1.007940000 # H_
    3    12.010700000 # C_R
    4    15.999400000 # O_3
    5    15.999400000 # O_R
    6    15.999400000 # O_2
    7    12.010700000 # C_2
    8    16.04        # CH4

Atoms

       1      444        1     0.00000   14.67267   14.91289   10.54501
       2      444        1     0.00000   14.67267    2.02965    1.43518
       3      444        1     0.00000    9.09406    5.25046   10.54501
       4      444        1     0.00000    9.09406   11.69208    1.43518
       5      444        1     0.00000   20.25128    5.25046   10.54501
       6      444        1     0.00000   20.25128   11.69208    1.43518
       7      444        2     0.00000    7.33634    9.50830    1.13088
       8      444        2     0.00000   11.90259    1.59930    1.13088
       9      444        2     0.00000    2.77008    1.59930    1.13088
      10      444        2     0.00000    7.33634    4.23563    8.58755
      11      444        2     0.00000    8.77218   10.41765   10.66442
      12      444        2     0.00000   19.31618   14.27044    8.33218
      13      444        2     0.00000    8.60097   18.57955   13.14709
      14      444        2     0.00000   10.03681   14.25719    8.33218
      15      444        2     0.00000   14.68032   15.28899   18.24723
      16      444        2     0.00000   19.30853   12.60806   10.66442
      17      444        2     0.00000   14.68032   11.79562   15.77705
      18      444        2     0.00000    8.60097   15.08618   10.67691
      19      444        2     0.00000   14.68032   22.29998    8.33218
      20      444        2     0.00000   20.74437   18.57955   13.14709
      21      444        2     0.00000   11.79753    8.67096   13.13460
      22      444        2     0.00000   13.06216   16.00388    5.86200
      23      444        2     0.00000   16.29083   16.01713    5.86200
      24      444        2     0.00000   20.57316   10.41765   10.66442
      25      444        2     0.00000   20.58081   13.54031    6.26705
      26      444        2     0.00000    8.77218   13.52706    6.26705
      27      444        2     0.00000   10.03681   12.60806   10.66442
      28      444        2     0.00000   16.28318   10.86137   13.13460
      29      444        3     0.00000   11.60549   11.84055   11.90575
      30      444        3     0.00000   11.78781   18.60812   16.91444
      31      444        3     0.00000   17.55753   22.14979   11.90575
      32      444        3     0.00000   17.73985   15.17170    7.19479
      33      444        3     0.00000   14.67267   20.48421    7.19479
      34      444        3     0.00000   17.55753   18.60812   16.91444
      35      444        3     0.00000   20.62471   16.83728   11.90575
      36      444        3     0.00000   11.78781   22.14979   11.90575
      37      444        3     0.00000    8.72063   16.83728   11.90575
      38      444        3     0.00000   11.60549   15.17170    7.19479
      39      444        3     0.00000   14.67267   13.61139   16.91444
      40      444        3     0.00000   17.73985   11.84055   11.90575
      41      444        3     0.00000   12.11795   10.74330   12.59637
      42      444        3     0.00000   17.92676   15.07429    4.80287
      43      444        3     0.00000    9.71783   10.53488   11.20029
      44      444        3     0.00000   18.94633   14.48565    7.32617
      45      444        3     0.00000   14.68177   19.89773    5.93009
      46      444        3     0.00000   11.42768   15.05854    4.80287
      47      444        3     0.00000   21.31873   15.84485   11.21514
      48      444        3     0.00000   17.91766    9.54771   12.59637
      49      444        3     0.00000    8.02661   17.81921   12.61122
      50      444        3     0.00000   10.40811   14.46989    7.32617
      51      444        3     0.00000   14.68177   14.19787   18.17914
      52      444        3     0.00000   18.93723   11.73048   11.20029
      53      444        3     0.00000   14.68177   12.22352   16.78306
      54      444        3     0.00000    8.02661   15.84485   11.21514
      55      444        3     0.00000   14.68177   21.87208    7.32617
      56      444        3     0.00000   21.31873   17.81921   12.61122
      57      444        3     0.00000   11.42768    9.54771   12.59637
      58      444        3     0.00000   12.11795   15.45707    5.93009
      59      444        3     0.00000   17.23648   15.47283    5.93009
      60      444        3     0.00000   19.62751   10.53488   11.20029
      61      444        3     0.00000   19.63660   14.08712    6.19895
      62      444        3     0.00000    9.71783   14.07136    6.19895
      63      444        3     0.00000   10.40811   11.73048   11.20029
      64      444        3     0.00000   17.22739   10.74330   12.59637
      65      444        3     0.00000   16.96795   15.61736    8.37750
      66      444        3     0.00000   16.84916   20.84950   11.93169
      67      444        3     0.00000   12.49618   18.19913   15.67986
      68      444        3     0.00000   12.37739   13.10417   11.93169
      69      444        3     0.00000   19.14444   16.87395   11.93169
      70      444        3     0.00000   16.96795   13.10417   11.93169
      71      444        3     0.00000   14.67267   19.59290    8.37750
      72      444        3     0.00000   12.37739   15.61736    8.37750
      73      444        3     0.00000   14.67267   14.42935   15.67986
      74      444        3     0.00000   12.49618   20.84950   11.93169
      75      444        3     0.00000   10.20090   16.87395   11.93169
      76      444        3     0.00000   16.84916   18.19913   15.67986
      77      444        4     0.00000    7.33634    4.23564    9.56110
      78      444        4     0.00000    1.97518    1.14037    0.80636
      79      444        4     0.00000   12.69749    1.14037    0.80636
      80      444        4     0.00000    7.33634   10.42617    0.80636
      81      444        5     0.00000   13.26027   13.27390   11.02306
      82      444        5     0.00000   13.33607   19.02404   15.18186
      83      444        5     0.00000   16.00927   20.65494   12.87542
      84      444        5     0.00000   16.08507   14.81728    8.84040
      85      444        5     0.00000   15.80700   19.22834    8.84040
      86      444        5     0.00000   17.14360   17.05932   15.18186
      87      444        5     0.00000   18.55600   17.55369   11.02306
      88      444        5     0.00000   12.20174   20.00003   11.02306
      89      444        5     0.00000   10.78934   16.24387   12.87542
      90      444        5     0.00000   12.12594   16.78200    8.84040
      91      444        5     0.00000   13.53834   14.74426   15.18186
      92      444        5     0.00000   17.21940   13.92881   12.87542
      93      444        5     0.00000   15.80700   14.74426   15.18186
      94      444        5     0.00000   10.78934   17.55369   11.02306
      95      444        5     0.00000   13.53834   19.22834    8.84040
      96      444        5     0.00000   18.55600   16.24387   12.87542
      97      444        5     0.00000   17.14360   20.00003   11.02306
      98      444        5     0.00000   13.26027   14.81728    8.84040
      99      444        5     0.00000   17.21940   16.78200    8.84040
     100      444        5     0.00000   13.33607   20.65494   12.87542
     101      444        5     0.00000   12.20174   17.05932   15.18186
     102      444        5     0.00000   16.00927   19.02404   15.18186
     103      444        5     0.00000   12.12594   13.92881   12.87542
     104      444        5     0.00000   16.08507   13.27390   11.02306
     105      444        6     0.00000   22.00900   12.70690    1.81205
     106      444        6     0.00000   27.86581   16.08833   11.37617
     107      444        6     0.00000   16.15220   16.08833   11.37617
     108      444        6     0.00000   22.00901    5.94405   11.37617
     109      444        7     0.00000   13.40685   10.84868   13.33645
     110      444        6     0.00000   13.89949    9.88861   13.96739
     111      444        6     0.00000   14.07618   11.90376   13.37272
     112      444        2     0.00000   14.76452    9.95934   14.46409
     113      444        3     0.00000   17.38333   15.39930    3.45412
     114      444        5     0.00000   16.31388   16.02635    3.29415
     115      444        5     0.00000   17.96287   15.06526    2.39816
     116      444        2     0.00000   15.94915   16.24448    2.38895
     117      444        7     0.00000   14.69152   18.41506    5.78275
     118      444        6     0.00000   14.69983   17.85102    4.66728
     119      444        6     0.00000   14.69199   17.64247    6.76540
     120      444        2     0.00000   14.70637   16.85594    4.56839
     121      444        7     0.00000   11.98086   15.36666    3.45412
     122      444        6     0.00000   13.05862   15.97931    3.29415
     123      444        6     0.00000   11.40180   15.03179    2.39816
     124      444        2     0.00000   13.42989   16.18610    2.38895
     125      444        7     0.00000   20.58301   14.78132   10.47506
     126      444        6     0.00000   21.16814   13.87465    9.84412
     127      444        6     0.00000   19.33462   14.72921   10.43879
     128      444        2     0.00000   20.67437   13.16088    9.34742
     129      444        3     0.00000   17.36448    8.37879   13.33645
     130      444        5     0.00000   16.28672    8.43220   13.96739
     131      444        5     0.00000   17.94354    7.27160   13.37272
     132      444        2     0.00000   15.91545    7.64769   14.46409
     133      444        1     0.00000   22.00901   19.14853   22.52519
     134      444        1     0.00000   22.00900    6.26528   13.41536
     135      444        1     0.00000   16.43039    9.48609   22.52519
     136      444        1     0.00000   16.43039   15.92772   13.41536
     137      444        1     0.00000   27.58762    9.48609   22.52519
     138      444        1     0.00000   27.58762   15.92772   13.41536
     139      444        2     0.00000   14.67267   13.74393   13.11106
     140      444        2     0.00000   19.23893    5.83494   13.11106
     141      444        2     0.00000   10.10641    5.83494   13.11106
     142      444        2     0.00000   14.67267    8.47127   20.56773
     143      444        2     0.00000   16.10851   14.65328   22.64460
     144      444        2     0.00000   26.65251   18.50608   20.31237
     145      444        2     0.00000   15.93730   22.81518   25.12728
     146      444        2     0.00000   17.37315   18.49283   20.31237
     147      444        2     0.00000   22.01665   19.52462   30.22742
     148      444        2     0.00000   26.64486   16.84369   22.64460
     149      444        2     0.00000   22.01665   16.03125   27.75723
     150      444        2     0.00000   15.93730   19.32181   22.65709
     151      444        2     0.00000   22.01665   26.53562   20.31237
     152      444        2     0.00000   28.08071   22.81518   25.12728
     153      444        2     0.00000   19.13386   12.90660   25.11479
     154      444        2     0.00000   20.39849   20.23951   17.84218
     155      444        2     0.00000   23.62717   20.25276   17.84218
     156      444        2     0.00000   27.90950   14.65328   22.64460
     157      444        2     0.00000   27.91714   17.77594   18.24723
     158      444        2     0.00000   16.10851   17.76269   18.24723
     159      444        2     0.00000   17.37315   16.84369   22.64460
     160      444        2     0.00000   23.61952   15.09701   25.11479
     161      444        3     0.00000   18.94183   16.07619   23.88594
     162      444        3     0.00000   19.12414   22.84375   28.89462
     163      444        3     0.00000   24.89387   26.38542   23.88594
     164      444        3     0.00000   25.07618   19.40734   19.17498
     165      444        3     0.00000   22.00900   24.71985   19.17498
     166      444        3     0.00000   24.89387   22.84375   28.89462
     167      444        3     0.00000   27.96105   21.07292   23.88594
     168      444        3     0.00000   19.12414   26.38542   23.88594
     169      444        3     0.00000   16.05696   21.07292   23.88594
     170      444        3     0.00000   18.94183   19.40734   19.17498
     171      444        3     0.00000   22.00901   17.84702   28.89462
     172      444        3     0.00000   25.07618   16.07619   23.88594
     173      444        3     0.00000   19.45429   14.97893   24.57655
     174      444        3     0.00000   25.26310   19.30993   16.78306
     175      444        3     0.00000   17.05417   14.77052   23.18047
     176      444        3     0.00000   26.28266   18.72128   19.30636
     177      444        3     0.00000   22.01810   24.13336   17.91028
     178      444        3     0.00000   18.76401   19.29417   16.78306
     179      444        3     0.00000   28.65506   20.08048   23.19533
     180      444        3     0.00000   25.25400   13.78334   24.57655
     181      444        3     0.00000   15.36295   22.05484   24.59141
     182      444        3     0.00000   17.74445   18.70553   19.30636
     183      444        3     0.00000   22.01810   18.43351   30.15932
     184      444        3     0.00000   26.27356   15.96611   23.18047
     185      444        3     0.00000   22.01810   16.45915   28.76324
     186      444        3     0.00000   15.36295   20.08048   23.19533
     187      444        3     0.00000   22.01810   26.10772   19.30636
     188      444        3     0.00000   28.65506   22.05484   24.59141
     189      444        3     0.00000   18.76401   13.78334   24.57655
     190      444        3     0.00000   19.45429   19.69270   17.91028
     191      444        3     0.00000   24.57282   19.70846   17.91028
     192      444        3     0.00000   26.96384   14.77052   23.18047
     193      444        3     0.00000   26.97294   18.32275   18.17914
     194      444        3     0.00000   17.05417   18.30699   18.17914
     195      444        3     0.00000   17.74445   15.96611   23.18047
     196      444        3     0.00000   24.56372   14.97893   24.57655
     197      444        3     0.00000   24.30429   19.85299   20.35769
     198      444        3     0.00000   24.18549   25.08513   23.91187
     199      444        3     0.00000   19.83252   22.43477   27.66005
     200      444        3     0.00000   19.71372   17.33980   23.91187
     201      444        3     0.00000   26.48077   21.10959   23.91187
     202      444        3     0.00000   24.30429   17.33980   23.91187
     203      444        3     0.00000   22.00900   23.82854   20.35769
     204      444        3     0.00000   19.71372   19.85299   20.35769
     205      444        3     0.00000   22.00901   18.66499   27.66005
     206      444        3     0.00000   19.83252   25.08513   23.91187
     207      444        3     0.00000   17.53724   21.10959   23.91187
     208      444        3     0.00000   24.18549   22.43477   27.66005
     209      444        4     0.00000   14.67267    8.47127   21.54128
     210      444        4     0.00000    9.31151    5.37600   12.78655
     211      444        4     0.00000   20.03383    5.37600   12.78655
     212      444        4     0.00000   14.67267   14.66180   12.78655
     213      444        5     0.00000   20.59661   17.50954   23.00324
     214      444        5     0.00000   20.67241   23.25968   27.16204
     215      444        5     0.00000   23.34560   24.89057   24.85561
     216      444        5     0.00000   23.42140   19.05291   20.82059
     217      444        5     0.00000   23.14334   23.46398   20.82059
     218      444        5     0.00000   24.47994   21.29495   27.16204
     219      444        5     0.00000   25.89234   21.78932   23.00324
     220      444        5     0.00000   19.53807   24.23567   23.00324
     221      444        5     0.00000   18.12567   20.47950   24.85561
     222      444        5     0.00000   19.46227   21.01764   20.82059
     223      444        5     0.00000   20.87467   18.97989   27.16204
     224      444        5     0.00000   24.55574   18.16445   24.85561
     225      444        5     0.00000   23.14334   18.97989   27.16204
     226      444        5     0.00000   18.12567   21.78932   23.00324
     227      444        5     0.00000   20.87467   23.46398   20.82059
     228      444        5     0.00000   25.89234   20.47950   24.85561
     229      444        5     0.00000   24.47994   24.23567   23.00324
     230      444        5     0.00000   20.59661   19.05291   20.82059
     231      444        5     0.00000   24.55574   21.01764   20.82059
     232      444        5     0.00000   20.67241   24.89057   24.85561
     233      444        5     0.00000   19.53807   21.29495   27.16204
     234      444        5     0.00000   23.34560   23.25968   27.16204
     235      444        5     0.00000   19.46227   18.16445   24.85561
     236      444        5     0.00000   23.42140   17.50954   23.00324
     237      444        6     0.00000   29.34534   16.94254   13.79223
     238      444        6     0.00000   35.20214   20.32397   23.35635
     239      444        6     0.00000   23.48854   20.32397   23.35635
     240      444        6     0.00000   29.34534   10.17969   23.35635
     241      444        7     0.00000   20.74319   15.08432   25.31664
     242      444        6     0.00000   21.23582   14.12425   25.94757
     243      444        6     0.00000   21.41251   16.13940   25.35290
     244      444        2     0.00000   22.10086   14.19498   26.44427
     245      444        3     0.00000   24.71966   19.63494   15.43430
     246      444        5     0.00000   23.65021   20.26198   15.27434
     247      444        5     0.00000   25.29920   19.30089   14.37834
     248      444        2     0.00000   23.28549   20.48011   14.36913
     249      444        7     0.00000   22.02785   22.65069   17.76294
     250      444        6     0.00000   22.03616   22.08665   16.64746
     251      444        6     0.00000   22.02833   21.87810   18.74559
     252      444        2     0.00000   22.04271   21.09157   16.54858
     253      444        7     0.00000   19.31720   19.60229   15.43430
     254      444        6     0.00000   20.39496   20.21494   15.27434
     255      444        6     0.00000   18.73813   19.26742   14.37834
     256      444        2     0.00000   20.76622   20.42174   14.36913
     257      444        7     0.00000   27.91935   19.01696   22.45524
     258      444        6     0.00000   28.50448   18.11029   21.82431
     259      444        6     0.00000   26.67096   18.96484   22.41898
     260      444        2     0.00000   28.01071   17.39651   21.32761
     261      444        3     0.00000   24.70081   12.61443   25.31664
     262      444        5     0.00000   23.62305   12.66783   25.94757
     263      444        5     0.00000   25.27988   11.50724   25.35290
     264      444        2     0.00000   23.25179   11.88332   26.44427
     265      444        1     0.00000   29.34534   23.38416   34.50538
     266      444        1     0.00000   29.34534   10.50092   25.39555
     267      444        1     0.00000   23.76673   13.72173   34.50538
     268      444        1     0.00000   23.76673   20.16335   25.39555
     269      444        1     0.00000   34.92395   13.72173   34.50538
     270      444        1     0.00000   34.92395   20.16335   25.39555
     271      444        2     0.00000   22.00901   17.97957   25.09125
     272      444        2     0.00000   26.57526   10.07057   25.09125
     273      444        2     0.00000   17.44275   10.07057   25.09125
     274      444        2     0.00000   22.00901   12.70690   32.54792
     275      444        2     0.00000   23.44485   18.88892   34.62479
     276      444        2     0.00000   33.98885   22.74171   32.29255
     277      444        2     0.00000   23.27364   27.05082   37.10746
     278      444        2     0.00000   24.70948   22.72846   32.29255
     279      444        2     0.00000   29.35299   23.76026   42.20760
     280      444        2     0.00000   33.98120   21.07933   34.62479
     281      444        2     0.00000   29.35299   20.26689   39.73742
     282      444        2     0.00000   23.27364   23.55745   34.63728
     283      444        2     0.00000   29.35299   30.77125   32.29255
     284      444        2     0.00000   35.41704   27.05082   37.10746
     285      444        2     0.00000   26.47020   17.14223   37.09497
     286      444        2     0.00000   27.73483   24.47515   29.82237
     287      444        2     0.00000   30.96350   24.48840   29.82237
     288      444        2     0.00000   35.24583   18.88892   34.62479
     289      444        2     0.00000   35.25348   22.01158   30.22742
     290      444        2     0.00000   23.44485   21.99833   30.22742
     291      444        2     0.00000   24.70948   21.07933   34.62479
     292      444        2     0.00000   30.95585   19.33264   37.09497
     293      444        3     0.00000   26.27816   20.31182   35.86612
     294      444        3     0.00000   26.46048   27.07939   40.87481
     295      444        3     0.00000   32.23020   30.62106   35.86612
     296      444        3     0.00000   32.41252   23.64297   31.15516
     297      444        3     0.00000   29.34534   28.95548   31.15516
     298      444        3     0.00000   32.23020   27.07939   40.87481
     299      444        3     0.00000   35.29738   25.30855   35.86612
     300      444        3     0.00000   26.46048   30.62106   35.86612
     301      444        3     0.00000   23.39330   25.30855   35.86612
     302      444        3     0.00000   26.27816   23.64297   31.15516
     303      444        3     0.00000   29.34534   22.08266   40.87481
     304      444        3     0.00000   32.41252   20.31182   35.86612
     305      444        3     0.00000   26.79062   19.21457   36.55674
     306      444        3     0.00000   32.59943   23.54556   28.76324
     307      444        3     0.00000   24.39050   19.00615   35.16066
     308      444        3     0.00000   33.61900   22.95692   31.28654
     309      444        3     0.00000   29.35444   28.36900   29.89046
     310      444        3     0.00000   26.10035   23.52981   28.76324
     311      444        3     0.00000   35.99140   24.31612   35.17551
     312      444        3     0.00000   32.59033   18.01898   36.55674
     313      444        3     0.00000   22.69928   26.29048   36.57159
     314      444        3     0.00000   25.08078   22.94116   31.28654
     315      444        3     0.00000   29.35444   22.66914   42.13951
     316      444        3     0.00000   33.60990   20.20175   35.16066
     317      444        3     0.00000   29.35444   20.69479   40.74343
     318      444        3     0.00000   22.69928   24.31612   35.17551
     319      444        3     0.00000   29.35444   30.34335   31.28654
     320      444        3     0.00000   35.99140   26.29048   36.57159
     321      444        3     0.00000   26.10035   18.01898   36.55674
     322      444        3     0.00000   26.79062   23.92834   29.89046
     323      444        3     0.00000   31.90915   23.94410   29.89046
     324      444        3     0.00000   34.30018   19.00615   35.16066
     325      444        3     0.00000   34.30927   22.55839   30.15932
     326      444        3     0.00000   24.39050   22.54263   30.15932
     327      444        3     0.00000   25.08078   20.20175   35.16066
     328      444        3     0.00000   31.90006   19.21457   36.55674
     329      444        3     0.00000   31.64062   24.08863   32.33787
     330      444        3     0.00000   31.52183   29.32077   35.89206
     331      444        3     0.00000   27.16885   26.67040   39.64023
     332      444        3     0.00000   27.05006   21.57544   35.89206
     333      444        3     0.00000   33.81711   25.34522   35.89206
     334      444        3     0.00000   31.64062   21.57544   35.89206
     335      444        3     0.00000   29.34534   28.06417   32.33787
     336      444        3     0.00000   27.05006   24.08863   32.33787
     337      444        3     0.00000   29.34534   22.90062   39.64023
     338      444        3     0.00000   27.16885   29.32077   35.89206
     339      444        3     0.00000   24.87357   25.34522   35.89206
     340      444        3     0.00000   31.52183   26.67040   39.64023
     341      444        4     0.00000   22.00901   12.70691   33.52147
     342      444        4     0.00000   16.64785    9.61164   24.76673
     343      444        4     0.00000   27.37016    9.61164   24.76673
     344      444        4     0.00000   22.00901   18.89744   24.76673
     345      444        5     0.00000   27.93294   21.74517   34.98343
     346      444        5     0.00000   28.00874   27.49531   39.14223
     347      444        5     0.00000   30.68194   29.12621   36.83579
     348      444        5     0.00000   30.75774   23.28855   32.80077
     349      444        5     0.00000   30.47967   27.69961   32.80077
     350      444        5     0.00000   31.81627   25.53059   39.14223
     351      444        5     0.00000   33.22867   26.02496   34.98343
     352      444        5     0.00000   26.87441   28.47130   34.98343
     353      444        5     0.00000   25.46201   24.71514   36.83579
     354      444        5     0.00000   26.79861   25.25327   32.80077
     355      444        5     0.00000   28.21101   23.21553   39.14223
     356      444        5     0.00000   31.89207   22.40008   36.83579
     357      444        5     0.00000   30.47967   23.21553   39.14223
     358      444        5     0.00000   25.46201   26.02496   34.98343
     359      444        5     0.00000   28.21101   27.69961   32.80077
     360      444        5     0.00000   33.22867   24.71514   36.83579
     361      444        5     0.00000   31.81627   28.47130   34.98343
     362      444        5     0.00000   27.93294   23.28855   32.80077
     363      444        5     0.00000   31.89207   25.25327   32.80077
     364      444        5     0.00000   28.00874   29.12621   36.83579
     365      444        5     0.00000   26.87441   25.53059   39.14223
     366      444        5     0.00000   30.68194   27.49531   39.14223
     367      444        5     0.00000   26.79861   22.40008   36.83579
     368      444        5     0.00000   30.75774   21.74517   34.98343
     369      444        6     0.00000   36.68167   21.17817   25.77242
     370      444        6     0.00000   42.53848   24.55960   35.33654
     371      444        6     0.00000   30.82487   24.55960   35.33654
     372      444        6     0.00000   36.68168   14.41532   35.33654
     373      444        7     0.00000   28.07952   19.31995   37.29682
     374      444        6     0.00000   28.57216   18.35988   37.92776
     375      444        6     0.00000   28.74885   20.37503   37.33309
     376      444        2     0.00000   29.43719   18.43061   38.42446
     377      444        3     0.00000   32.05600   23.87057   27.41449
     378      444        5     0.00000   30.98655   24.49762   27.25452
     379      444        5     0.00000   32.63554   23.53653   26.35853
     380      444        2     0.00000   30.62182   24.71575   26.34932
     381      444        7     0.00000   29.36419   26.88633   29.74312
     382      444        6     0.00000   29.37250   26.32229   28.62765
     383      444        6     0.00000   29.36466   26.11374   30.72577
     384      444        2     0.00000   29.37904   25.32721   28.52876
     385      444        7     0.00000   26.65353   23.83793   27.41449
     386      444        6     0.00000   27.73129   24.45058   27.25452
     387      444        6     0.00000   26.07447   23.50306   26.35853
     388      444        2     0.00000   28.10256   24.65737   26.34932
     389      444        7     0.00000   35.25568   23.25259   34.43543
     390      444        6     0.00000   35.84081   22.34592   33.80449
     391      444        6     0.00000   34.00729   23.20048   34.39916
     392      444        2     0.00000   35.34704   21.63215   33.30779
     393      444        3     0.00000   32.03715   16.85006   37.29682
     394      444        5     0.00000   30.95939   16.90347   37.92776
     395      444        5     0.00000   32.61621   15.74287   37.33309
     396      444        2     0.00000   30.58812   16.11896   38.42446
     397      444        1     0.00000   22.00901   27.61980   10.54501
     398      444        1     0.00000   22.00900   14.73655    1.43518
     399      444        1     0.00000   16.43039   17.95736   10.54501
     400      444        1     0.00000   16.43039   24.39899    1.43518
     401      444        1     0.00000   27.58762   17.95736   10.54501
     402      444        1     0.00000   27.58762   24.39899    1.43518
     403      444        2     0.00000   14.67267   22.21520    1.13088
     404      444        2     0.00000   19.23893   14.30621    1.13088
     405      444        2     0.00000   10.10641   14.30621    1.13088
     406      444        2     0.00000   14.67267   16.94254    8.58755
     407      444        2     0.00000   16.10851   23.12455   10.66442
     408      444        2     0.00000   26.65251   26.97735    8.33218
     409      444        2     0.00000   15.93730   31.28645   13.14709
     410      444        2     0.00000   17.37315   26.96410    8.33218