Created on Sat Aug 20 08:40:40 2022 

3240 atoms
7 atom types

0.000000  44.018010 xlo xhi
0.000000  38.120715 ylo yhi
0.000000  35.940555 zlo zhi
22.009005  22.009005  12.706905 xy xz yz

Masses

    1    91.224000000 # Zr3+4
    2     1.007940000 # H_
    3    12.010700000 # C_R
    4    15.999400000 # O_3
    5    15.999400000 # O_R
    6    15.999400000 # O_2
    7    16.04        # CH4

Atoms

       1      444        1     0.00000   14.67267   14.91289   10.54501
       2      444        1     0.00000   14.67267    2.02965    1.43518
       3      444        1     0.00000    9.09406    5.25046   10.54501
       4      444        1     0.00000    9.09406   11.69208    1.43518
       5      444        1     0.00000   20.25128    5.25046   10.54501
       6      444        1     0.00000   20.25128   11.69208    1.43518
       7      444        2     0.00000    7.33634    9.50830    1.13088
       8      444        2     0.00000   11.90259    1.59930    1.13088
       9      444        2     0.00000    2.77008    1.59930    1.13088
      10      444        2     0.00000    7.33634    4.23563    8.58755
      11      444        2     0.00000   12.12525    8.48175   12.10965
      12      444        2     0.00000   19.64511   15.31444    8.16450
      13      444        2     0.00000    8.60097   18.96680   12.10965
      14      444        2     0.00000   10.77647   13.45033    8.16450
      15      444        2     0.00000   15.74892   15.05185   18.07955
      16      444        2     0.00000   18.56887   12.18101    9.95959
      17      444        2     0.00000   13.60967   12.02650   15.94031
      18      444        2     0.00000    8.60097   14.70636   11.71709
      19      444        2     0.00000   15.74892   22.06285    8.16450
      20      444        2     0.00000   20.74437   18.96680   12.10965
      21      444        2     0.00000    8.43560   10.61198   11.71709
      22      444        2     0.00000   12.32688   16.81564    6.02526
      23      444        2     0.00000   15.95546   14.97448    6.02526
      24      444        2     0.00000   19.83350    9.99060    9.95959
      25      444        2     0.00000   20.90974   14.58431    6.09937
      26      444        2     0.00000    9.51184   12.72019    6.09937
      27      444        2     0.00000   13.38988   10.67216   12.10965
      28      444        2     0.00000   17.01846   11.28588   13.84552
      29      444        3     0.00000   11.60549   11.84055   11.90575
      30      444        3     0.00000   11.78781   18.60812   16.91444
      31      444        3     0.00000   17.55753   22.14979   11.90575
      32      444        3     0.00000   17.73985   15.17170    7.19479
      33      444        3     0.00000   14.67267   20.48421    7.19479
      34      444        3     0.00000   17.55753   18.60812   16.91444
      35      444        3     0.00000   20.62471   16.83728   11.90575
      36      444        3     0.00000   11.78781   22.14979   11.90575
      37      444        3     0.00000    8.72063   16.83728   11.90575
      38      444        3     0.00000   11.60549   15.17170    7.19479
      39      444        3     0.00000   14.67267   13.61139   16.91444
      40      444        3     0.00000   17.73985   11.84055   11.90575
      41      444        3     0.00000   10.21512   11.84190   11.80388
      42      444        3     0.00000   17.73521   14.48544    4.89377
      43      444        3     0.00000   11.61013    9.44237   12.02575
      44      444        3     0.00000   19.13022   15.07611    7.23003
      45      444        3     0.00000   14.07603   20.02627    6.02098
      46      444        3     0.00000   11.01349   15.51885    4.89377
      47      444        3     0.00000   21.31873   15.63250   11.80388
      48      444        3     0.00000   18.33185    9.78684   13.00006
      49      444        3     0.00000    8.02661   18.04039   12.02575
      50      444        3     0.00000   10.82752   14.01540    7.23003
      51      444        3     0.00000   15.28507   14.06190   18.08299
      52      444        3     0.00000   18.51782   11.48833   10.80384
      53      444        3     0.00000   14.07603   12.35206   16.87395
      54      444        3     0.00000    8.02661   15.63250   11.80388
      55      444        3     0.00000   15.28507   21.73611    7.23003
      56      444        3     0.00000   21.31873   18.04039   12.02575
      57      444        3     0.00000    9.52484   10.64631   11.80388
      58      444        3     0.00000   11.70376   15.91738    6.02098
      59      444        3     0.00000   17.04494   14.88397    6.02098
      60      444        3     0.00000   19.20810   10.29274   10.80384
      61      444        3     0.00000   19.82050   14.67758    6.10281
      62      444        3     0.00000   10.13724   13.61687    6.10281
      63      444        3     0.00000   12.30040   10.63796   12.02575
      64      444        3     0.00000   17.64158   10.98243   13.00006
      65      444        3     0.00000   16.96795   15.61736    8.37750
      66      444        3     0.00000   16.84916   20.84950   11.93169
      67      444        3     0.00000   12.49618   18.19913   15.67986
      68      444        3     0.00000   12.37739   13.10417   11.93169
      69      444        3     0.00000   19.14444   16.87395   11.93169
      70      444        3     0.00000   16.96795   13.10417   11.93169
      71      444        3     0.00000   14.67267   19.59290    8.37750
      72      444        3     0.00000   12.37739   15.61736    8.37750
      73      444        3     0.00000   14.67267   14.42935   15.67986
      74      444        3     0.00000   12.49618   20.84950   11.93169
      75      444        3     0.00000   10.20090   16.87395   11.93169
      76      444        3     0.00000   16.84916   18.19913   15.67986
      77      444        4     0.00000    7.33634    4.23564    9.56110
      78      444        4     0.00000    1.97518    1.14037    0.80636
      79      444        4     0.00000   12.69749    1.14037    0.80636
      80      444        4     0.00000    7.33634   10.42617    0.80636
      81      444        5     0.00000   13.26027   13.27390   11.02306
      82      444        5     0.00000   13.33607   19.02404   15.18186
      83      444        5     0.00000   16.00927   20.65494   12.87542
      84      444        5     0.00000   16.08507   14.81728    8.84040
      85      444        5     0.00000   15.80700   19.22834    8.84040
      86      444        5     0.00000   17.14360   17.05932   15.18186
      87      444        5     0.00000   18.55600   17.55369   11.02306
      88      444        5     0.00000   12.20174   20.00003   11.02306
      89      444        5     0.00000   10.78934   16.24387   12.87542
      90      444        5     0.00000   12.12594   16.78200    8.84040
      91      444        5     0.00000   13.53834   14.74426   15.18186
      92      444        5     0.00000   17.21940   13.92881   12.87542
      93      444        5     0.00000   15.80700   14.74426   15.18186
      94      444        5     0.00000   10.78934   17.55369   11.02306
      95      444        5     0.00000   13.53834   19.22834    8.84040
      96      444        5     0.00000   18.55600   16.24387   12.87542
      97      444        5     0.00000   17.14360   20.00003   11.02306
      98      444        5     0.00000   13.26027   14.81728    8.84040
      99      444        5     0.00000   17.21940   16.78200    8.84040
     100      444        5     0.00000   13.33607   20.65494   12.87542
     101      444        5     0.00000   12.20174   17.05932   15.18186
     102      444        5     0.00000   16.00927   19.02404   15.18186
     103      444        5     0.00000   12.12594   13.92881   12.87542
     104      444        5     0.00000   16.08507   13.27390   11.02306
     105      444        6     0.00000   22.00900   12.70690    1.81205
     106      444        6     0.00000   27.86581   16.08833   11.37617
     107      444        6     0.00000   16.15220   16.08833   11.37617
     108      444        6     0.00000   22.00901    5.94405   11.37617
     109      444        4     0.00000    9.53032   13.01268   11.70424
     110      444        2     0.00000    8.56701   12.65230   11.64893
     111      444        4     0.00000   17.05183   14.20611    3.75159
     112      444        2     0.00000   16.08931   14.38780    4.07008
     113      444        4     0.00000   13.49243   18.79870    5.97541
     114      444        2     0.00000   13.16852   18.79083    4.99770
     115      444        4     0.00000   11.11327   16.25034    3.75159
     116      444        2     0.00000   11.75188   16.99307    4.07008
     117      444        4     0.00000   20.64720   14.45406   11.70424
     118      444        2     0.00000   21.44096   13.80001   11.64893
     119      444        4     0.00000   18.23207    8.95382   14.07044
     120      444        2     0.00000   17.59346    9.50167   14.66452
     121      444        1     0.00000   22.00901   19.14853   22.52519
     122      444        1     0.00000   22.00900    6.26528   13.41536
     123      444        1     0.00000   16.43039    9.48609   22.52519
     124      444        1     0.00000   16.43039   15.92772   13.41536
     125      444        1     0.00000   27.58762    9.48609   22.52519
     126      444        1     0.00000   27.58762   15.92772   13.41536
     127      444        2     0.00000   14.67267   13.74393   13.11106
     128      444        2     0.00000   19.23893    5.83494   13.11106
     129      444        2     0.00000   10.10641    5.83494   13.11106
     130      444        2     0.00000   14.67267    8.47127   20.56773
     131      444        2     0.00000   19.46158   12.71739   24.08984
     132      444        2     0.00000   26.98145   19.55008   20.14469
     133      444        2     0.00000   15.93730   23.20243   24.08984
     134      444        2     0.00000   18.11281   17.68596   20.14469
     135      444        2     0.00000   23.08525   19.28749   30.05974
     136      444        2     0.00000   25.90520   16.41665   21.93977
     137      444        2     0.00000   20.94601   16.26214   27.92049
     138      444        2     0.00000   15.93730   18.94199   23.69728
     139      444        2     0.00000   23.08525   26.29849   20.14469
     140      444        2     0.00000   28.08071   23.20243   24.08984
     141      444        2     0.00000   15.77193   14.84761   23.69728
     142      444        2     0.00000   19.66322   21.05128   18.00544
     143      444        2     0.00000   23.29180   19.21011   18.00544
     144      444        2     0.00000   27.16983   14.22624   21.93977
     145      444        2     0.00000   28.24608   18.81994   18.07955
     146      444        2     0.00000   16.84818   16.95583   18.07955
     147      444        2     0.00000   20.72621   14.90780   24.08984
     148      444        2     0.00000   24.35479   15.52152   25.82570
     149      444        3     0.00000   18.94183   16.07619   23.88594
     150      444        3     0.00000   19.12414   22.84375   28.89462
     151      444        3     0.00000   24.89387   26.38542   23.88594
     152      444        3     0.00000   25.07618   19.40734   19.17498
     153      444        3     0.00000   22.00900   24.71985   19.17498
     154      444        3     0.00000   24.89387   22.84375   28.89462
     155      444        3     0.00000   27.96105   21.07292   23.88594
     156      444        3     0.00000   19.12414   26.38542   23.88594
     157      444        3     0.00000   16.05696   21.07292   23.88594
     158      444        3     0.00000   18.94183   19.40734   19.17498
     159      444        3     0.00000   22.00901   17.84702   28.89462
     160      444        3     0.00000   25.07618   16.07619   23.88594
     161      444        3     0.00000   17.55145   16.07754   23.78407
     162      444        3     0.00000   25.07155   18.72107   16.87395
     163      444        3     0.00000   18.94646   13.67800   24.00593
     164      444        3     0.00000   26.46656   19.31174   19.21021
     165      444        3     0.00000   21.41236   24.26190   18.00117
     166      444        3     0.00000   18.34982   19.75449   16.87395
     167      444        3     0.00000   28.65506   19.86814   23.78407
     168      444        3     0.00000   25.66819   14.02247   24.98024
     169      444        3     0.00000   15.36295   22.27602   24.00593
     170      444        3     0.00000   18.16385   18.25104   19.21021
     171      444        3     0.00000   22.62140   18.29754   30.06318
     172      444        3     0.00000   25.85416   15.72397   22.78402
     173      444        3     0.00000   21.41236   16.58770   28.85414
     174      444        3     0.00000   15.36295   19.86814   23.78407
     175      444        3     0.00000   22.62140   25.97175   19.21021
     176      444        3     0.00000   28.65506   22.27602   24.00593
     177      444        3     0.00000   16.86117   14.88194   23.78407
     178      444        3     0.00000   19.04010   20.15302   18.00117
     179      444        3     0.00000   24.38127   19.11960   18.00117
     180      444        3     0.00000   26.54444   14.52837   22.78402
     181      444        3     0.00000   27.15684   18.91321   18.08299
     182      444        3     0.00000   17.47357   17.85250   18.08299
     183      444        3     0.00000   19.63674   14.87360   24.00593
     184      444        3     0.00000   24.97791   15.21807   24.98024
     185      444        3     0.00000   24.30429   19.85299   20.35769
     186      444        3     0.00000   24.18549   25.08513   23.91187
     187      444        3     0.00000   19.83252   22.43477   27.66005
     188      444        3     0.00000   19.71372   17.33980   23.91187
     189      444        3     0.00000   26.48077   21.10959   23.91187
     190      444        3     0.00000   24.30429   17.33980   23.91187
     191      444        3     0.00000   22.00900   23.82854   20.35769
     192      444        3     0.00000   19.71372   19.85299   20.35769
     193      444        3     0.00000   22.00901   18.66499   27.66005
     194      444        3     0.00000   19.83252   25.08513   23.91187
     195      444        3     0.00000   17.53724   21.10959   23.91187
     196      444        3     0.00000   24.18549   22.43477   27.66005
     197      444        4     0.00000   14.67267    8.47127   21.54128
     198      444        4     0.00000    9.31151    5.37600   12.78655
     199      444        4     0.00000   20.03383    5.37600   12.78655
     200      444        4     0.00000   14.67267   14.66180   12.78655
     201      444        5     0.00000   20.59661   17.50954   23.00324
     202      444        5     0.00000   20.67241   23.25968   27.16204
     203      444        5     0.00000   23.34560   24.89057   24.85561
     204      444        5     0.00000   23.42140   19.05291   20.82059
     205      444        5     0.00000   23.14334   23.46398   20.82059
     206      444        5     0.00000   24.47994   21.29495   27.16204
     207      444        5     0.00000   25.89234   21.78932   23.00324
     208      444        5     0.00000   19.53807   24.23567   23.00324
     209      444        5     0.00000   18.12567   20.47950   24.85561
     210      444        5     0.00000   19.46227   21.01764   20.82059
     211      444        5     0.00000   20.87467   18.97989   27.16204
     212      444        5     0.00000   24.55574   18.16445   24.85561
     213      444        5     0.00000   23.14334   18.97989   27.16204
     214      444        5     0.00000   18.12567   21.78932   23.00324
     215      444        5     0.00000   20.87467   23.46398   20.82059
     216      444        5     0.00000   25.89234   20.47950   24.85561
     217      444        5     0.00000   24.47994   24.23567   23.00324
     218      444        5     0.00000   20.59661   19.05291   20.82059
     219      444        5     0.00000   24.55574   21.01764   20.82059
     220      444        5     0.00000   20.67241   24.89057   24.85561
     221      444        5     0.00000   19.53807   21.29495   27.16204
     222      444        5     0.00000   23.34560   23.25968   27.16204
     223      444        5     0.00000   19.46227   18.16445   24.85561
     224      444        5     0.00000   23.42140   17.50954   23.00324
     225      444        6     0.00000   29.34534   16.94254   13.79223
     226      444        6     0.00000   35.20214   20.32397   23.35635
     227      444        6     0.00000   23.48854   20.32397   23.35635
     228      444        6     0.00000   29.34534   10.17969   23.35635
     229      444        4     0.00000   16.86665   17.24832   23.68442
     230      444        2     0.00000   15.90335   16.88793   23.62912
     231      444        4     0.00000   24.38817   18.44174   15.73178
     232      444        2     0.00000   23.42564   18.62344   16.05027
     233      444        4     0.00000   20.82876   23.03433   17.95559
     234      444        2     0.00000   20.50486   23.02647   16.97788
     235      444        4     0.00000   18.44960   20.48598   15.73178
     236      444        2     0.00000   19.08822   21.22870   16.05027
     237      444        4     0.00000   27.98354   18.68970   23.68442
     238      444        2     0.00000   28.77730   18.03564   23.62912
     239      444        4     0.00000   25.56841   13.18945   26.05063
     240      444        2     0.00000   24.92979   13.73730   26.64471
     241      444        1     0.00000   29.34534   23.38416   34.50538
     242      444        1     0.00000   29.34534   10.50092   25.39555
     243      444        1     0.00000   23.76673   13.72173   34.50538
     244      444        1     0.00000   23.76673   20.16335   25.39555
     245      444        1     0.00000   34.92395   13.72173   34.50538
     246      444        1     0.00000   34.92395   20.16335   25.39555
     247      444        2     0.00000   22.00901   17.97957   25.09125
     248      444        2     0.00000   26.57526   10.07057   25.09125
     249      444        2     0.00000   17.44275   10.07057   25.09125
     250      444        2     0.00000   22.00901   12.70690   32.54792
     251      444        2     0.00000   26.79792   16.95302   36.07002
     252      444        2     0.00000   34.31778   23.78571   32.12487
     253      444        2     0.00000   23.27364   27.43807   36.07002
     254      444        2     0.00000   25.44914   21.92160   32.12487
     255      444        2     0.00000   30.42159   23.52312   42.03992
     256      444        2     0.00000   33.24154   20.65228   33.91996
     257      444        2     0.00000   28.28234   20.49777   39.90068
     258      444        2     0.00000   23.27364   23.17763   35.67746
     259      444        2     0.00000   30.42159   30.53412   32.12487
     260      444        2     0.00000   35.41704   27.43807   36.07002
     261      444        2     0.00000   23.10827   19.08324   35.67746
     262      444        2     0.00000   26.99955   25.28691   29.98563
     263      444        2     0.00000   30.62813   23.44575   29.98563
     264      444        2     0.00000   34.50617   18.46187   33.91996
     265      444        2     0.00000   35.58241   23.05558   30.05974
     266      444        2     0.00000   24.18451   21.19146   30.05974
     267      444        2     0.00000   28.06255   19.14343   36.07002
     268      444        2     0.00000   31.69113   19.75715   37.80589
     269      444        3     0.00000   26.27816   20.31182   35.86612
     270      444        3     0.00000   26.46048   27.07939   40.87481
     271      444        3     0.00000   32.23020   30.62106   35.86612
     272      444        3     0.00000   32.41252   23.64297   31.15516
     273      444        3     0.00000   29.34534   28.95548   31.15516
     274      444        3     0.00000   32.23020   27.07939   40.87481
     275      444        3     0.00000   35.29738   25.30855   35.86612
     276      444        3     0.00000   26.46048   30.62106   35.86612
     277      444        3     0.00000   23.39330   25.30855   35.86612
     278      444        3     0.00000   26.27816   23.64297   31.15516
     279      444        3     0.00000   29.34534   22.08266   40.87481
     280      444        3     0.00000   32.41252   20.31182   35.86612
     281      444        3     0.00000   24.88779   20.31317   35.76425
     282      444        3     0.00000   32.40788   22.95671   28.85414
     283      444        3     0.00000   26.28280   17.91364   35.98612
     284      444        3     0.00000   33.80289   23.54738   31.19039
     285      444        3     0.00000   28.74870   28.49754   29.98135
     286      444        3     0.00000   25.68616   23.99012   28.85414
     287      444        3     0.00000   35.99140   24.10377   35.76425
     288      444        3     0.00000   33.00452   18.25811   36.96043
     289      444        3     0.00000   22.69928   26.51166   35.98612
     290      444        3     0.00000   25.50019   22.48667   31.19039
     291      444        3     0.00000   29.95774   22.53317   42.04336
     292      444        3     0.00000   33.19049   19.95960   34.76421
     293      444        3     0.00000   28.74870   20.82333   40.83432
     294      444        3     0.00000   22.69928   24.10377   35.76425
     295      444        3     0.00000   29.95774   30.20738   31.19039
     296      444        3     0.00000   35.99140   26.51166   35.98612
     297      444        3     0.00000   24.19751   19.11758   35.76425
     298      444        3     0.00000   26.37643   24.38865   29.98135
     299      444        3     0.00000   31.71761   23.35524   29.98135
     300      444        3     0.00000   33.88077   18.76401   34.76421
     301      444        3     0.00000   34.49317   23.14885   30.06318
     302      444        3     0.00000   24.80991   22.08814   30.06318
     303      444        3     0.00000   26.97307   19.10923   35.98612
     304      444        3     0.00000   32.31425   19.45370   36.96043
     305      444        3     0.00000   31.64062   24.08863   32.33787
     306      444        3     0.00000   31.52183   29.32077   35.89206
     307      444        3     0.00000   27.16885   26.67040   39.64023
     308      444        3     0.00000   27.05006   21.57544   35.89206
     309      444        3     0.00000   33.81711   25.34522   35.89206
     310      444        3     0.00000   31.64062   21.57544   35.89206
     311      444        3     0.00000   29.34534   28.06417   32.33787
     312      444        3     0.00000   27.05006   24.08863   32.33787
     313      444        3     0.00000   29.34534   22.90062   39.64023
     314      444        3     0.00000   27.16885   29.32077   35.89206
     315      444        3     0.00000   24.87357   25.34522   35.89206
     316      444        3     0.00000   31.52183   26.67040   39.64023
     317      444        4     0.00000   22.00901   12.70691   33.52147
     318      444        4     0.00000   16.64785    9.61164   24.76673
     319      444        4     0.00000   27.37016    9.61164   24.76673
     320      444        4     0.00000   22.00901   18.89744   24.76673
     321      444        5     0.00000   27.93294   21.74517   34.98343
     322      444        5     0.00000   28.00874   27.49531   39.14223
     323      444        5     0.00000   30.68194   29.12621   36.83579
     324      444        5     0.00000   30.75774   23.28855   32.80077
     325      444        5     0.00000   30.47967   27.69961   32.80077
     326      444        5     0.00000   31.81627   25.53059   39.14223
     327      444        5     0.00000   33.22867   26.02496   34.98343
     328      444        5     0.00000   26.87441   28.47130   34.98343
     329      444        5     0.00000   25.46201   24.71514   36.83579
     330      444        5     0.00000   26.79861   25.25327   32.80077
     331      444        5     0.00000   28.21101   23.21553   39.14223
     332      444        5     0.00000   31.89207   22.40008   36.83579
     333      444        5     0.00000   30.47967   23.21553   39.14223
     334      444        5     0.00000   25.46201   26.02496   34.98343
     335      444        5     0.00000   28.21101   27.69961   32.80077
     336      444        5     0.00000   33.22867   24.71514   36.83579
     337      444        5     0.00000   31.81627   28.47130   34.98343
     338      444        5     0.00000   27.93294   23.28855   32.80077
     339      444        5     0.00000   31.89207   25.25327   32.80077
     340      444        5     0.00000   28.00874   29.12621   36.83579
     341      444        5     0.00000   26.87441   25.53059   39.14223
     342      444        5     0.00000   30.68194   27.49531   39.14223
     343      444        5     0.00000   26.79861   22.40008   36.83579
     344      444        5     0.00000   30.75774   21.74517   34.98343
     345      444        6     0.00000   36.68167   21.17817   25.77242
     346      444        6     0.00000   42.53848   24.55960   35.33654
     347      444        6     0.00000   30.82487   24.55960   35.33654
     348      444        6     0.00000   36.68168   14.41532   35.33654
     349      444        4     0.00000   24.20299   21.48395   35.66461
     350      444        2     0.00000   23.23968   21.12357   35.60930
     351      444        4     0.00000   31.72450   22.67738   27.71196
     352      444        2     0.00000   30.76198   22.85907   28.03045
     353      444        4     0.00000   28.16510   27.26997   29.93578
     354      444        2     0.00000   27.84119   27.26210   28.95807
     355      444        4     0.00000   25.78594   24.72161   27.71196
     356      444        2     0.00000   26.42455   25.46434   28.03045
     357      444        4     0.00000   35.31987   22.92533   35.66461
     358      444        2     0.00000   36.11363   22.27128   35.60930
     359      444        4     0.00000   32.90474   17.42509   38.03081
     360      444        2     0.00000   32.26613   17.97294   38.62489
     361      444        1     0.00000   22.00901   27.61980   10.54501
     362      444        1     0.00000   22.00900   14.73655    1.43518
     363      444        1     0.00000   16.43039   17.95736   10.54501
     364      444        1     0.00000   16.43039   24.39899    1.43518
     365      444        1     0.00000   27.58762   17.95736   10.54501
     366      444        1     0.00000   27.58762   24.39899    1.43518
     367      444        2     0.00000   14.67267   22.21520    1.13088
     368      444        2     0.00000   19.23893   14.30621    1.13088
     369      444        2     0.00000   10.10641   14.30621    1.13088
     370      444        2     0.00000   14.67267   16.94254    8.58755
     371      444        2     0.00000   19.46158   21.18866   12.10965
     372      444        2     0.00000   26.98145   28.02135    8.16450
     373      444        2     0.00000   15.93730   31.67370   12.10965
     374      444        2     0.00000   18.11281   26.15723    8.16450
     375      444        2     0.00000   23.08525   27.75876   18.07955
     376      444        2     0.00000   25.90520   24.88792    9.95959
     377      444        2     0.00000   20.94601   24.73341   15.94031
     378      444        2     0.00000   15.93730   27.41326   11.71709
     379      444        2     0.00000   23.08525   34.76976    8.16450
     380      444        2     0.00000   28.08071   31.67370   12.10965
     381      444        2     0.00000   15.77193   23.31888   11.71709
     382      444        2     0.00000   19.66322   29.52255    6.02526
     383      444        2     0.00000   23.29180   27.68138    6.02526
     384      444        2     0.00000   27.16983   22.69751    9.95959
     385      444        2     0.00000   28.24608   27.29121    6.09937
     386      444        2     0.00000   16.84818   25.42710    6.09937
     387      444        2     0.00000   20.72621   23.37907   12.10965
     388      444        2     0.00000   24.35479   23.99279   13.84552
     389      444        3     0.00000   18.94183   24.54746   11.90575
     390      444        3     0.00000   19.12414   31.31502   16.91444
     391      444        3     0.00000   24.89387   34.85669   11.90575
     392      444        3     0.00000   25.07618   27.87861    7.19479
     393      444        3     0.00000   22.00900   33.19112    7.19479
     394      444        3     0.00000   24.89387   31.31502   16.91444
     395      444        3     0.00000   27.96105   29.54418   11.90575
     396      444        3     0.00000   19.12414   34.85669   11.90575
     397      444        3     0.00000   16.05696   29.54418   11.90575
     398      444        3     0.00000   18.94183   27.87861    7.19479
     399      444        3     0.00000   22.00901   26.31829   16.91444
     400      444        3     0.00000   25.07618   24.54746   11.90575
     401      444        3     0.00000   17.55145   24.54881   11.80388
     402      444        3     0.00000   25.07155   27.19234    4.89377
     403      444        3     0.00000   18.94646   22.14927   12.02575
     404      444        3     0.00000   26.46656   27.78301    7.23003
     405      444        3     0.00000   21.41236   32.73317    6.02098
     406      444        3     0.00000   18.34982   28.22576    4.89377
     407      444        3     0.00000   28.65506   28.33941   11.80388
     408      444        3     0.00000   25.66819   22.49374   13.00006
     409      444        3     0.00000   15.36295   30.74729   12.02575
     410      444        3     0.00000   18.16385   26.72231    7.23003
     411      444        3     0.00000   22.62140   26.76881   18.08299