Created on Sat Aug 20 13:57:35 2022

3078 atoms
8 atom types

0.000000  44.018010 xlo xhi
0.000000  38.120715 ylo yhi
0.000000  35.940555 zlo zhi
22.009005  22.009005  12.706905 xy xz yz

Masses

    1    91.224000000 # Zr3+4
    2     1.007940000 # H_
    3    12.010700000 # C_R
    4    15.999400000 # O_3
    5    15.999400000 # O_R
    6    15.999400000 # O_2
    7    79.904000000 # Br
    8    16.04        # CH4

Atoms

       1      444        1     0.00000   14.67267   14.91289   10.54501
       2      444        1     0.00000   14.67267    2.02965    1.43518
       3      444        1     0.00000    9.09406    5.25046   10.54501
       4      444        1     0.00000    9.09406   11.69208    1.43518
       5      444        1     0.00000   20.25128    5.25046   10.54501
       6      444        1     0.00000   20.25128   11.69208    1.43518
       7      444        2     0.00000    7.33634    9.50830    1.13088
       8      444        2     0.00000   11.90259    1.59930    1.13088
       9      444        2     0.00000    2.77008    1.59930    1.13088
      10      444        2     0.00000    7.33634    4.23563    8.58755
      11      444        2     0.00000    8.77218   10.41765   10.66442
      12      444        2     0.00000   19.31618   14.27044    8.33218
      13      444        2     0.00000    8.60097   18.57955   13.14709
      14      444        2     0.00000   10.03681   14.25719    8.33218
      15      444        2     0.00000   14.68032   15.28899   18.24723
      16      444        2     0.00000   19.30853   12.60806   10.66442
      17      444        2     0.00000   14.68032   11.79562   15.77705
      18      444        2     0.00000    8.60097   15.08618   10.67691
      19      444        2     0.00000   14.68032   22.29998    8.33218
      20      444        2     0.00000   20.74437   18.57955   13.14709
      21      444        2     0.00000   11.79753    8.67096   13.13460
      22      444        2     0.00000   13.06216   16.00388    5.86200
      23      444        2     0.00000   16.29083   16.01713    5.86200
      24      444        2     0.00000   20.57316   10.41765   10.66442
      25      444        2     0.00000   20.58081   13.54031    6.26705
      26      444        2     0.00000    8.77218   13.52706    6.26705
      27      444        2     0.00000   10.03681   12.60806   10.66442
      28      444        2     0.00000   16.28318   10.86137   13.13460
      29      444        3     0.00000   11.60549   11.84055   11.90575
      30      444        3     0.00000   11.78781   18.60812   16.91444
      31      444        3     0.00000   17.55753   22.14979   11.90575
      32      444        3     0.00000   17.73985   15.17170    7.19479
      33      444        3     0.00000   14.67267   20.48421    7.19479
      34      444        3     0.00000   17.55753   18.60812   16.91444
      35      444        3     0.00000   20.62471   16.83728   11.90575
      36      444        3     0.00000   11.78781   22.14979   11.90575
      37      444        3     0.00000    8.72063   16.83728   11.90575
      38      444        3     0.00000   11.60549   15.17170    7.19479
      39      444        3     0.00000   14.67267   13.61139   16.91444
      40      444        3     0.00000   17.73985   11.84055   11.90575
      41      444        3     0.00000   12.11795   10.74330   12.59637
      42      444        3     0.00000   17.92676   15.07429    4.80287
      43      444        3     0.00000    9.71783   10.53488   11.20029
      44      444        3     0.00000   18.94633   14.48565    7.32617
      45      444        3     0.00000   14.68177   19.89773    5.93009
      46      444        3     0.00000   11.42768   15.05854    4.80287
      47      444        3     0.00000   21.31873   15.84485   11.21514
      48      444        3     0.00000   17.91766    9.54771   12.59637
      49      444        3     0.00000    8.02661   17.81921   12.61122
      50      444        3     0.00000   10.40811   14.46989    7.32617
      51      444        3     0.00000   14.68177   14.19787   18.17914
      52      444        3     0.00000   18.93723   11.73048   11.20029
      53      444        3     0.00000   14.68177   12.22352   16.78306
      54      444        3     0.00000    8.02661   15.84485   11.21514
      55      444        3     0.00000   14.68177   21.87208    7.32617
      56      444        3     0.00000   21.31873   17.81921   12.61122
      57      444        3     0.00000   11.42768    9.54771   12.59637
      58      444        3     0.00000   12.11795   15.45707    5.93009
      59      444        3     0.00000   17.23648   15.47283    5.93009
      60      444        3     0.00000   19.62751   10.53488   11.20029
      61      444        3     0.00000   19.63660   14.08712    6.19895
      62      444        3     0.00000    9.71783   14.07136    6.19895
      63      444        3     0.00000   10.40811   11.73048   11.20029
      64      444        3     0.00000   17.22739   10.74330   12.59637
      65      444        3     0.00000   16.96795   15.61736    8.37750
      66      444        3     0.00000   16.84916   20.84950   11.93169
      67      444        3     0.00000   12.49618   18.19913   15.67986
      68      444        3     0.00000   12.37739   13.10417   11.93169
      69      444        3     0.00000   19.14444   16.87395   11.93169
      70      444        3     0.00000   16.96795   13.10417   11.93169
      71      444        3     0.00000   14.67267   19.59290    8.37750
      72      444        3     0.00000   12.37739   15.61736    8.37750
      73      444        3     0.00000   14.67267   14.42935   15.67986
      74      444        3     0.00000   12.49618   20.84950   11.93169
      75      444        3     0.00000   10.20090   16.87395   11.93169
      76      444        3     0.00000   16.84916   18.19913   15.67986
      77      444        4     0.00000    7.33634    4.23564    9.56110
      78      444        4     0.00000    1.97518    1.14037    0.80636
      79      444        4     0.00000   12.69749    1.14037    0.80636
      80      444        4     0.00000    7.33634   10.42617    0.80636
      81      444        5     0.00000   13.26027   13.27390   11.02306
      82      444        5     0.00000   13.33607   19.02404   15.18186
      83      444        5     0.00000   16.00927   20.65494   12.87542
      84      444        5     0.00000   16.08507   14.81728    8.84040
      85      444        5     0.00000   15.80700   19.22834    8.84040
      86      444        5     0.00000   17.14360   17.05932   15.18186
      87      444        5     0.00000   18.55600   17.55369   11.02306
      88      444        5     0.00000   12.20174   20.00003   11.02306
      89      444        5     0.00000   10.78934   16.24387   12.87542
      90      444        5     0.00000   12.12594   16.78200    8.84040
      91      444        5     0.00000   13.53834   14.74426   15.18186
      92      444        5     0.00000   17.21940   13.92881   12.87542
      93      444        5     0.00000   15.80700   14.74426   15.18186
      94      444        5     0.00000   10.78934   17.55369   11.02306
      95      444        5     0.00000   13.53834   19.22834    8.84040
      96      444        5     0.00000   18.55600   16.24387   12.87542
      97      444        5     0.00000   17.14360   20.00003   11.02306
      98      444        5     0.00000   13.26027   14.81728    8.84040
      99      444        5     0.00000   17.21940   16.78200    8.84040
     100      444        5     0.00000   13.33607   20.65494   12.87542
     101      444        5     0.00000   12.20174   17.05932   15.18186
     102      444        5     0.00000   16.00927   19.02404   15.18186
     103      444        5     0.00000   12.12594   13.92881   12.87542
     104      444        5     0.00000   16.08507   13.27390   11.02306
     105      444        6     0.00000   22.00900   12.70690    1.81205
     106      444        6     0.00000   27.86581   16.08833   11.37617
     107      444        6     0.00000   16.15220   16.08833   11.37617
     108      444        6     0.00000   22.00901    5.94405   11.37617
     109      444        7     0.00000   13.87397   10.88688   13.60467
     110      444        7     0.00000   17.18638   15.51709    2.96530
     111      444        7     0.00000   14.69505   17.87772    5.72936
     112      444        7     0.00000   12.18134   15.47833    2.96530
     113      444        7     0.00000   20.31638   14.39588   10.20684
     114      444        7     0.00000   17.16400    7.95516   13.60467
     115      444        1     0.00000   22.00901   19.14853   22.52519
     116      444        1     0.00000   22.00900    6.26528   13.41536
     117      444        1     0.00000   16.43039    9.48609   22.52519
     118      444        1     0.00000   16.43039   15.92772   13.41536
     119      444        1     0.00000   27.58762    9.48609   22.52519
     120      444        1     0.00000   27.58762   15.92772   13.41536
     121      444        2     0.00000   14.67267   13.74393   13.11106
     122      444        2     0.00000   19.23893    5.83494   13.11106
     123      444        2     0.00000   10.10641    5.83494   13.11106
     124      444        2     0.00000   14.67267    8.47127   20.56773
     125      444        2     0.00000   16.10851   14.65328   22.64460
     126      444        2     0.00000   26.65251   18.50608   20.31237
     127      444        2     0.00000   15.93730   22.81518   25.12728
     128      444        2     0.00000   17.37315   18.49283   20.31237
     129      444        2     0.00000   22.01665   19.52462   30.22742
     130      444        2     0.00000   26.64486   16.84369   22.64460
     131      444        2     0.00000   22.01665   16.03125   27.75723
     132      444        2     0.00000   15.93730   19.32181   22.65709
     133      444        2     0.00000   22.01665   26.53562   20.31237
     134      444        2     0.00000   28.08071   22.81518   25.12728
     135      444        2     0.00000   19.13386   12.90660   25.11479
     136      444        2     0.00000   20.39849   20.23951   17.84218
     137      444        2     0.00000   23.62717   20.25276   17.84218
     138      444        2     0.00000   27.90950   14.65328   22.64460
     139      444        2     0.00000   27.91714   17.77594   18.24723
     140      444        2     0.00000   16.10851   17.76269   18.24723
     141      444        2     0.00000   17.37315   16.84369   22.64460
     142      444        2     0.00000   23.61952   15.09701   25.11479
     143      444        3     0.00000   18.94183   16.07619   23.88594
     144      444        3     0.00000   19.12414   22.84375   28.89462
     145      444        3     0.00000   24.89387   26.38542   23.88594
     146      444        3     0.00000   25.07618   19.40734   19.17498
     147      444        3     0.00000   22.00900   24.71985   19.17498
     148      444        3     0.00000   24.89387   22.84375   28.89462
     149      444        3     0.00000   27.96105   21.07292   23.88594
     150      444        3     0.00000   19.12414   26.38542   23.88594
     151      444        3     0.00000   16.05696   21.07292   23.88594
     152      444        3     0.00000   18.94183   19.40734   19.17498
     153      444        3     0.00000   22.00901   17.84702   28.89462
     154      444        3     0.00000   25.07618   16.07619   23.88594
     155      444        3     0.00000   19.45429   14.97893   24.57655
     156      444        3     0.00000   25.26310   19.30993   16.78306
     157      444        3     0.00000   17.05417   14.77052   23.18047
     158      444        3     0.00000   26.28266   18.72128   19.30636
     159      444        3     0.00000   22.01810   24.13336   17.91028
     160      444        3     0.00000   18.76401   19.29417   16.78306
     161      444        3     0.00000   28.65506   20.08048   23.19533
     162      444        3     0.00000   25.25400   13.78334   24.57655
     163      444        3     0.00000   15.36295   22.05484   24.59141
     164      444        3     0.00000   17.74445   18.70553   19.30636
     165      444        3     0.00000   22.01810   18.43351   30.15932
     166      444        3     0.00000   26.27356   15.96611   23.18047
     167      444        3     0.00000   22.01810   16.45915   28.76324
     168      444        3     0.00000   15.36295   20.08048   23.19533
     169      444        3     0.00000   22.01810   26.10772   19.30636
     170      444        3     0.00000   28.65506   22.05484   24.59141
     171      444        3     0.00000   18.76401   13.78334   24.57655
     172      444        3     0.00000   19.45429   19.69270   17.91028
     173      444        3     0.00000   24.57282   19.70846   17.91028
     174      444        3     0.00000   26.96384   14.77052   23.18047
     175      444        3     0.00000   26.97294   18.32275   18.17914
     176      444        3     0.00000   17.05417   18.30699   18.17914
     177      444        3     0.00000   17.74445   15.96611   23.18047
     178      444        3     0.00000   24.56372   14.97893   24.57655
     179      444        3     0.00000   24.30429   19.85299   20.35769
     180      444        3     0.00000   24.18549   25.08513   23.91187
     181      444        3     0.00000   19.83252   22.43477   27.66005
     182      444        3     0.00000   19.71372   17.33980   23.91187
     183      444        3     0.00000   26.48077   21.10959   23.91187
     184      444        3     0.00000   24.30429   17.33980   23.91187
     185      444        3     0.00000   22.00900   23.82854   20.35769
     186      444        3     0.00000   19.71372   19.85299   20.35769
     187      444        3     0.00000   22.00901   18.66499   27.66005
     188      444        3     0.00000   19.83252   25.08513   23.91187
     189      444        3     0.00000   17.53724   21.10959   23.91187
     190      444        3     0.00000   24.18549   22.43477   27.66005
     191      444        4     0.00000   14.67267    8.47127   21.54128
     192      444        4     0.00000    9.31151    5.37600   12.78655
     193      444        4     0.00000   20.03383    5.37600   12.78655
     194      444        4     0.00000   14.67267   14.66180   12.78655
     195      444        5     0.00000   20.59661   17.50954   23.00324
     196      444        5     0.00000   20.67241   23.25968   27.16204
     197      444        5     0.00000   23.34560   24.89057   24.85561
     198      444        5     0.00000   23.42140   19.05291   20.82059
     199      444        5     0.00000   23.14334   23.46398   20.82059
     200      444        5     0.00000   24.47994   21.29495   27.16204
     201      444        5     0.00000   25.89234   21.78932   23.00324
     202      444        5     0.00000   19.53807   24.23567   23.00324
     203      444        5     0.00000   18.12567   20.47950   24.85561
     204      444        5     0.00000   19.46227   21.01764   20.82059
     205      444        5     0.00000   20.87467   18.97989   27.16204
     206      444        5     0.00000   24.55574   18.16445   24.85561
     207      444        5     0.00000   23.14334   18.97989   27.16204
     208      444        5     0.00000   18.12567   21.78932   23.00324
     209      444        5     0.00000   20.87467   23.46398   20.82059
     210      444        5     0.00000   25.89234   20.47950   24.85561
     211      444        5     0.00000   24.47994   24.23567   23.00324
     212      444        5     0.00000   20.59661   19.05291   20.82059
     213      444        5     0.00000   24.55574   21.01764   20.82059
     214      444        5     0.00000   20.67241   24.89057   24.85561
     215      444        5     0.00000   19.53807   21.29495   27.16204
     216      444        5     0.00000   23.34560   23.25968   27.16204
     217      444        5     0.00000   19.46227   18.16445   24.85561
     218      444        5     0.00000   23.42140   17.50954   23.00324
     219      444        6     0.00000   29.34534   16.94254   13.79223
     220      444        6     0.00000   35.20214   20.32397   23.35635
     221      444        6     0.00000   23.48854   20.32397   23.35635
     222      444        6     0.00000   29.34534   10.17969   23.35635
     223      444        7     0.00000   21.21031   15.12251   25.58486
     224      444        7     0.00000   24.52271   19.75273   14.94549
     225      444        7     0.00000   22.03139   22.11335   17.70954
     226      444        7     0.00000   19.51768   19.71396   14.94549
     227      444        7     0.00000   27.65271   18.63152   22.18702
     228      444        7     0.00000   24.50033   12.19079   25.58486
     229      444        1     0.00000   29.34534   23.38416   34.50538
     230      444        1     0.00000   29.34534   10.50092   25.39555
     231      444        1     0.00000   23.76673   13.72173   34.50538
     232      444        1     0.00000   23.76673   20.16335   25.39555
     233      444        1     0.00000   34.92395   13.72173   34.50538
     234      444        1     0.00000   34.92395   20.16335   25.39555
     235      444        2     0.00000   22.00901   17.97957   25.09125
     236      444        2     0.00000   26.57526   10.07057   25.09125
     237      444        2     0.00000   17.44275   10.07057   25.09125
     238      444        2     0.00000   22.00901   12.70690   32.54792
     239      444        2     0.00000   23.44485   18.88892   34.62479
     240      444        2     0.00000   33.98885   22.74171   32.29255
     241      444        2     0.00000   23.27364   27.05082   37.10746
     242      444        2     0.00000   24.70948   22.72846   32.29255
     243      444        2     0.00000   29.35299   23.76026   42.20760
     244      444        2     0.00000   33.98120   21.07933   34.62479
     245      444        2     0.00000   29.35299   20.26689   39.73742
     246      444        2     0.00000   23.27364   23.55745   34.63728
     247      444        2     0.00000   29.35299   30.77125   32.29255
     248      444        2     0.00000   35.41704   27.05082   37.10746
     249      444        2     0.00000   26.47020   17.14223   37.09497
     250      444        2     0.00000   27.73483   24.47515   29.82237
     251      444        2     0.00000   30.96350   24.48840   29.82237
     252      444        2     0.00000   35.24583   18.88892   34.62479
     253      444        2     0.00000   35.25348   22.01158   30.22742
     254      444        2     0.00000   23.44485   21.99833   30.22742
     255      444        2     0.00000   24.70948   21.07933   34.62479
     256      444        2     0.00000   30.95585   19.33264   37.09497
     257      444        3     0.00000   26.27816   20.31182   35.86612
     258      444        3     0.00000   26.46048   27.07939   40.87481
     259      444        3     0.00000   32.23020   30.62106   35.86612
     260      444        3     0.00000   32.41252   23.64297   31.15516
     261      444        3     0.00000   29.34534   28.95548   31.15516
     262      444        3     0.00000   32.23020   27.07939   40.87481
     263      444        3     0.00000   35.29738   25.30855   35.86612
     264      444        3     0.00000   26.46048   30.62106   35.86612
     265      444        3     0.00000   23.39330   25.30855   35.86612
     266      444        3     0.00000   26.27816   23.64297   31.15516
     267      444        3     0.00000   29.34534   22.08266   40.87481
     268      444        3     0.00000   32.41252   20.31182   35.86612
     269      444        3     0.00000   26.79062   19.21457   36.55674
     270      444        3     0.00000   32.59943   23.54556   28.76324
     271      444        3     0.00000   24.39050   19.00615   35.16066
     272      444        3     0.00000   33.61900   22.95692   31.28654
     273      444        3     0.00000   29.35444   28.36900   29.89046
     274      444        3     0.00000   26.10035   23.52981   28.76324
     275      444        3     0.00000   35.99140   24.31612   35.17551
     276      444        3     0.00000   32.59033   18.01898   36.55674
     277      444        3     0.00000   22.69928   26.29048   36.57159
     278      444        3     0.00000   25.08078   22.94116   31.28654
     279      444        3     0.00000   29.35444   22.66914   42.13951
     280      444        3     0.00000   33.60990   20.20175   35.16066
     281      444        3     0.00000   29.35444   20.69479   40.74343
     282      444        3     0.00000   22.69928   24.31612   35.17551
     283      444        3     0.00000   29.35444   30.34335   31.28654
     284      444        3     0.00000   35.99140   26.29048   36.57159
     285      444        3     0.00000   26.10035   18.01898   36.55674
     286      444        3     0.00000   26.79062   23.92834   29.89046
     287      444        3     0.00000   31.90915   23.94410   29.89046
     288      444        3     0.00000   34.30018   19.00615   35.16066
     289      444        3     0.00000   34.30927   22.55839   30.15932
     290      444        3     0.00000   24.39050   22.54263   30.15932
     291      444        3     0.00000   25.08078   20.20175   35.16066
     292      444        3     0.00000   31.90006   19.21457   36.55674
     293      444        3     0.00000   31.64062   24.08863   32.33787
     294      444        3     0.00000   31.52183   29.32077   35.89206
     295      444        3     0.00000   27.16885   26.67040   39.64023
     296      444        3     0.00000   27.05006   21.57544   35.89206
     297      444        3     0.00000   33.81711   25.34522   35.89206
     298      444        3     0.00000   31.64062   21.57544   35.89206
     299      444        3     0.00000   29.34534   28.06417   32.33787
     300      444        3     0.00000   27.05006   24.08863   32.33787
     301      444        3     0.00000   29.34534   22.90062   39.64023
     302      444        3     0.00000   27.16885   29.32077   35.89206
     303      444        3     0.00000   24.87357   25.34522   35.89206
     304      444        3     0.00000   31.52183   26.67040   39.64023
     305      444        4     0.00000   22.00901   12.70691   33.52147
     306      444        4     0.00000   16.64785    9.61164   24.76673
     307      444        4     0.00000   27.37016    9.61164   24.76673
     308      444        4     0.00000   22.00901   18.89744   24.76673
     309      444        5     0.00000   27.93294   21.74517   34.98343
     310      444        5     0.00000   28.00874   27.49531   39.14223
     311      444        5     0.00000   30.68194   29.12621   36.83579
     312      444        5     0.00000   30.75774   23.28855   32.80077
     313      444        5     0.00000   30.47967   27.69961   32.80077
     314      444        5     0.00000   31.81627   25.53059   39.14223
     315      444        5     0.00000   33.22867   26.02496   34.98343
     316      444        5     0.00000   26.87441   28.47130   34.98343
     317      444        5     0.00000   25.46201   24.71514   36.83579
     318      444        5     0.00000   26.79861   25.25327   32.80077
     319      444        5     0.00000   28.21101   23.21553   39.14223
     320      444        5     0.00000   31.89207   22.40008   36.83579
     321      444        5     0.00000   30.47967   23.21553   39.14223
     322      444        5     0.00000   25.46201   26.02496   34.98343
     323      444        5     0.00000   28.21101   27.69961   32.80077
     324      444        5     0.00000   33.22867   24.71514   36.83579
     325      444        5     0.00000   31.81627   28.47130   34.98343
     326      444        5     0.00000   27.93294   23.28855   32.80077
     327      444        5     0.00000   31.89207   25.25327   32.80077
     328      444        5     0.00000   28.00874   29.12621   36.83579
     329      444        5     0.00000   26.87441   25.53059   39.14223
     330      444        5     0.00000   30.68194   27.49531   39.14223
     331      444        5     0.00000   26.79861   22.40008   36.83579
     332      444        5     0.00000   30.75774   21.74517   34.98343
     333      444        6     0.00000   36.68167   21.17817   25.77242
     334      444        6     0.00000   42.53848   24.55960   35.33654
     335      444        6     0.00000   30.82487   24.55960   35.33654
     336      444        6     0.00000   36.68168   14.41532   35.33654
     337      444        7     0.00000   28.54664   19.35815   37.56504
     338      444        7     0.00000   31.85905   23.98836   26.92567
     339      444        7     0.00000   29.36772   26.34899   29.68973
     340      444        7     0.00000   26.85401   23.94960   26.92567
     341      444        7     0.00000   34.98905   22.86715   34.16721
     342      444        7     0.00000   31.83667   16.42643   37.56504
     343      444        1     0.00000   22.00901   27.61980   10.54501
     344      444        1     0.00000   22.00900   14.73655    1.43518
     345      444        1     0.00000   16.43039   17.95736   10.54501
     346      444        1     0.00000   16.43039   24.39899    1.43518
     347      444        1     0.00000   27.58762   17.95736   10.54501
     348      444        1     0.00000   27.58762   24.39899    1.43518
     349      444        2     0.00000   14.67267   22.21520    1.13088
     350      444        2     0.00000   19.23893   14.30621    1.13088
     351      444        2     0.00000   10.10641   14.30621    1.13088
     352      444        2     0.00000   14.67267   16.94254    8.58755
     353      444        2     0.00000   16.10851   23.12455   10.66442
     354      444        2     0.00000   26.65251   26.97735    8.33218
     355      444        2     0.00000   15.93730   31.28645   13.14709
     356      444        2     0.00000   17.37315   26.96410    8.33218
     357      444        2     0.00000   22.01665   27.99589   18.24723
     358      444        2     0.00000   26.64486   25.31496   10.66442
     359      444        2     0.00000   22.01665   24.50252   15.77705
     360      444        2     0.00000   15.93730   27.79308   10.67691
     361      444        2     0.00000   22.01665   35.00689    8.33218
     362      444        2     0.00000   28.08071   31.28645   13.14709
     363      444        2     0.00000   19.13386   21.37787   13.13460
     364      444        2     0.00000   20.39849   28.71078    5.86200
     365      444        2     0.00000   23.62717   28.72403    5.86200
     366      444        2     0.00000   27.90950   23.12455   10.66442
     367      444        2     0.00000   27.91714   26.24721    6.26705
     368      444        2     0.00000   16.10851   26.23396    6.26705
     369      444        2     0.00000   17.37315   25.31496   10.66442
     370      444        2     0.00000   23.61952   23.56828   13.13460
     371      444        3     0.00000   18.94183   24.54746   11.90575
     372      444        3     0.00000   19.12414   31.31502   16.91444
     373      444        3     0.00000   24.89387   34.85669   11.90575
     374      444        3     0.00000   25.07618   27.87861    7.19479
     375      444        3     0.00000   22.00900   33.19112    7.19479
     376      444        3     0.00000   24.89387   31.31502   16.91444
     377      444        3     0.00000   27.96105   29.54418   11.90575
     378      444        3     0.00000   19.12414   34.85669   11.90575
     379      444        3     0.00000   16.05696   29.54418   11.90575
     380      444        3     0.00000   18.94183   27.87861    7.19479
     381      444        3     0.00000   22.00901   26.31829   16.91444
     382      444        3     0.00000   25.07618   24.54746   11.90575
     383      444        3     0.00000   19.45429   23.45020   12.59637
     384      444        3     0.00000   25.26310   27.78120    4.80287
     385      444        3     0.00000   17.05417   23.24179   11.20029
     386      444        3     0.00000   26.28266   27.19255    7.32617
     387      444        3     0.00000   22.01810   32.60463    5.93009
     388      444        3     0.00000   18.76401   27.76544    4.80287
     389      444        3     0.00000   28.65506   28.55175   11.21514
     390      444        3     0.00000   25.25400   22.25461   12.59637
     391      444        3     0.00000   15.36295   30.52611   12.61122
     392      444        3     0.00000   17.74445   27.17680    7.32617
     393      444        3     0.00000   22.01810   26.90478   18.17914
     394      444        3     0.00000   26.27356   24.43738   11.20029
     395      444        3     0.00000   22.01810   24.93042   16.78306
     396      444        3     0.00000   15.36295   28.55175   11.21514
     397      444        3     0.00000   22.01810   34.57899    7.32617
     398      444        3     0.00000   28.65506   30.52611   12.61122
     399      444        3     0.00000   18.76401   22.25461   12.59637
     400      444        3     0.00000   19.45429   28.16397    5.93009
     401      444        3     0.00000   24.57282   28.17973    5.93009
     402      444        3     0.00000   26.96384   23.24179   11.20029
     403      444        3     0.00000   26.97294   26.79402    6.19895
     404      444        3     0.00000   17.05417   26.77826    6.19895
     405      444        3     0.00000   17.74445   24.43738   11.20029
     406      444        3     0.00000   24.56372   23.45020   12.59637
     407      444        3     0.00000   24.30429   28.32426    8.37750
     408      444        3     0.00000   24.18549   33.55640   11.93169
     409      444        3     0.00000   19.83252   30.90604   15.67986
     410      444        3     0.00000   19.71372   25.81107   11.93169