Created on Wed Aug 24 08:46:54 2022 

3564 atoms
8 atom types

0.000000  44.018010 xlo xhi
0.000000  38.120715 ylo yhi
0.000000  35.940555 zlo zhi
22.009005  22.009005  12.706905 xy xz yz

Masses

    1    91.224000000 # Zr3+4
    2     1.007940000 # H_
    3    12.010700000 # C_R
    4    15.999400000 # O_3
    5    15.999400000 # O_R
    6    15.999400000 # O_2
    7    12.010700000 # C_2
    8    16.04        # CH4

Atoms

       1      444        1     0.00000   14.67267   14.91289   10.54501
       2      444        1     0.00000   14.67267    2.02965    1.43518
       3      444        1     0.00000    9.09406    5.25046   10.54501
       4      444        1     0.00000    9.09406   11.69208    1.43518
       5      444        1     0.00000   20.25128    5.25046   10.54501
       6      444        1     0.00000   20.25128   11.69208    1.43518
       7      444        2     0.00000    7.33634    9.50830    1.13088
       8      444        2     0.00000   11.90259    1.59930    1.13088
       9      444        2     0.00000    2.77008    1.59930    1.13088
      10      444        2     0.00000    7.33634    4.23563    8.58755
      11      444        2     0.00000    9.20600   10.16718   13.64802
      12      444        2     0.00000   16.73547   13.28140    7.10151
      13      444        2     0.00000    8.60097   15.59594   13.64802
      14      444        2     0.00000   10.47063   16.98668    7.10151
      15      444        2     0.00000   12.53343   13.54855   17.01656
      16      444        2     0.00000   18.87471   12.35759   13.64802
      17      444        2     0.00000   16.81191   13.54855   17.01656
      18      444        2     0.00000    8.60097   18.06613   10.15465
      19      444        2     0.00000   12.53343   20.55954    7.10151
      20      444        2     0.00000   20.74437   15.59594   13.64802
      21      444        2     0.00000   11.34524    8.93209   10.15465
      22      444        2     0.00000   12.60987   13.28140    7.10151
      23      444        2     0.00000   18.87471   16.98668    7.10151
      24      444        2     0.00000   20.13934   10.16718   13.64802
      25      444        2     0.00000   18.00010   12.55126    5.03637
      26      444        2     0.00000    9.20600   16.25654    5.03637
      27      444        2     0.00000   10.47063   12.35759   13.64802
      28      444        2     0.00000   16.73547   11.12250   10.15465
      29      444        3     0.00000   11.60549   11.84055   11.90575
      30      444        3     0.00000   11.78781   18.60812   16.91444
      31      444        3     0.00000   17.55753   22.14979   11.90575
      32      444        3     0.00000   17.73985   15.17170    7.19479
      33      444        3     0.00000   14.67267   20.48421    7.19479
      34      444        3     0.00000   17.55753   18.60812   16.91444
      35      444        3     0.00000   20.62471   16.83728   11.90575
      36      444        3     0.00000   11.78781   22.14979   11.90575
      37      444        3     0.00000    8.72063   16.83728   11.90575
      38      444        3     0.00000   11.60549   15.17170    7.19479
      39      444        3     0.00000   14.67267   13.61139   16.91444
      40      444        3     0.00000   17.73985   11.84055   11.90575
      41      444        3     0.00000   11.85657   10.89421   10.91332
      42      444        3     0.00000   19.38809   15.61617    5.50617
      43      444        3     0.00000    9.95725   10.39665   12.88768
      44      444        3     0.00000   17.48877   13.92058    6.63338
      45      444        3     0.00000   15.88171   20.89233    6.63338
      46      444        3     0.00000   11.16629   13.52205    5.50617
      47      444        3     0.00000   21.31873   17.52789   10.91332
      48      444        3     0.00000   18.17905    9.69861   10.91332
      49      444        3     0.00000    8.02661   16.13181   12.88768
      50      444        3     0.00000   10.64753   16.01470    6.63338
      51      444        3     0.00000   13.46363   13.21812   17.48635
      52      444        3     0.00000   18.69781   11.59225   12.88768
      53      444        3     0.00000   15.88171   13.21812   17.48635
      54      444        3     0.00000    8.02661   17.52789   10.91332
      55      444        3     0.00000   13.46363   20.89233    6.63338
      56      444        3     0.00000   21.31873   16.13181   12.88768
      57      444        3     0.00000   11.16629    9.69861   10.91332
      58      444        3     0.00000   11.85657   13.92058    6.63338
      59      444        3     0.00000   18.69781   16.01470    6.63338
      60      444        3     0.00000   19.38809   10.39665   12.88768
      61      444        3     0.00000   18.17905   13.52205    5.50617
      62      444        3     0.00000    9.95725   15.61617    5.50617
      63      444        3     0.00000   10.64753   11.59225   12.88768
      64      444        3     0.00000   17.48877   10.89421   10.91332
      65      444        3     0.00000   16.96795   15.61736    8.37750
      66      444        3     0.00000   16.84916   20.84950   11.93169
      67      444        3     0.00000   12.49618   18.19913   15.67986
      68      444        3     0.00000   12.37739   13.10417   11.93169
      69      444        3     0.00000   19.14444   16.87395   11.93169
      70      444        3     0.00000   16.96795   13.10417   11.93169
      71      444        3     0.00000   14.67267   19.59290    8.37750
      72      444        3     0.00000   12.37739   15.61736    8.37750
      73      444        3     0.00000   14.67267   14.42935   15.67986
      74      444        3     0.00000   12.49618   20.84950   11.93169
      75      444        3     0.00000   10.20090   16.87395   11.93169
      76      444        3     0.00000   16.84916   18.19913   15.67986
      77      444        4     0.00000    7.33634    4.23564    9.56110
      78      444        4     0.00000    1.97518    1.14037    0.80636
      79      444        4     0.00000   12.69749    1.14037    0.80636
      80      444        4     0.00000    7.33634   10.42617    0.80636
      81      444        5     0.00000   13.26027   13.27390   11.02306
      82      444        5     0.00000   13.33607   19.02404   15.18186
      83      444        5     0.00000   16.00927   20.65494   12.87542
      84      444        5     0.00000   16.08507   14.81728    8.84040
      85      444        5     0.00000   15.80700   19.22834    8.84040
      86      444        5     0.00000   17.14360   17.05932   15.18186
      87      444        5     0.00000   18.55600   17.55369   11.02306
      88      444        5     0.00000   12.20174   20.00003   11.02306
      89      444        5     0.00000   10.78934   16.24387   12.87542
      90      444        5     0.00000   12.12594   16.78200    8.84040
      91      444        5     0.00000   13.53834   14.74426   15.18186
      92      444        5     0.00000   17.21940   13.92881   12.87542
      93      444        5     0.00000   15.80700   14.74426   15.18186
      94      444        5     0.00000   10.78934   17.55369   11.02306
      95      444        5     0.00000   13.53834   19.22834    8.84040
      96      444        5     0.00000   18.55600   16.24387   12.87542
      97      444        5     0.00000   17.14360   20.00003   11.02306
      98      444        5     0.00000   13.26027   14.81728    8.84040
      99      444        5     0.00000   17.21940   16.78200    8.84040
     100      444        5     0.00000   13.33607   20.65494   12.87542
     101      444        5     0.00000   12.20174   17.05932   15.18186
     102      444        5     0.00000   16.00927   19.02404   15.18186
     103      444        5     0.00000   12.12594   13.92881   12.87542
     104      444        5     0.00000   16.08507   13.27390   11.02306
     105      444        6     0.00000   22.00900   12.70690    1.81205
     106      444        6     0.00000   27.86581   16.08833   11.37617
     107      444        6     0.00000   16.15220   16.08833   11.37617
     108      444        6     0.00000   22.00901    5.94405   11.37617
     109      444        7     0.00000   12.86536   11.16131    9.84980
     110      444        6     0.00000   13.11920   10.33911    8.94313
     111      444        6     0.00000   13.52096   12.22432    9.79768
     112      444        2     0.00000   13.79624   10.51838    8.22935
     113      444        7     0.00000   20.41067   16.52188    4.91109
     114      444        6     0.00000   20.67626   17.64398    5.39364
     115      444        6     0.00000   21.06694   16.21629    3.89206
     116      444        2     0.00000   21.36256   18.25184    4.99426
     117      444        7     0.00000   17.17737   20.47553    7.23972
     118      444        6     0.00000   18.28193   20.82014    6.76676
     119      444        6     0.00000   17.24085   19.75516    8.25930
     120      444        2     0.00000   19.15150   20.54040    7.17370
     121      444        7     0.00000   11.43937   12.18362    4.91109
     122      444        6     0.00000   12.27834   11.39256    5.39364
     123      444        6     0.00000   10.84658   11.76806    3.89206
     124      444        2     0.00000   12.46161   10.49428    4.99426
     125      444        7     0.00000   20.58301   18.26798    9.84980
     126      444        6     0.00000   21.16814   18.89891    8.94313
     127      444        6     0.00000   19.33462   18.30424    9.79768
     128      444        2     0.00000   20.67437   19.39561    8.22935
     129      444        7     0.00000   17.90597    8.69142    9.84980
     130      444        6     0.00000   17.06700    8.88269    8.94313
     131      444        6     0.00000   18.49876    7.59215    9.79768
     132      444        2     0.00000   16.88373    8.20672    8.22935
     133      444        1     0.00000   22.00901   19.14853   22.52519
     134      444        1     0.00000   22.00900    6.26528   13.41536
     135      444        1     0.00000   16.43039    9.48609   22.52519
     136      444        1     0.00000   16.43039   15.92772   13.41536
     137      444        1     0.00000   27.58762    9.48609   22.52519
     138      444        1     0.00000   27.58762   15.92772   13.41536
     139      444        2     0.00000   14.67267   13.74393   13.11106
     140      444        2     0.00000   19.23893    5.83494   13.11106
     141      444        2     0.00000   10.10641    5.83494   13.11106
     142      444        2     0.00000   14.67267    8.47127   20.56773
     143      444        2     0.00000   16.54233   14.40282   25.62821
     144      444        2     0.00000   24.07180   17.51703   19.08169
     145      444        2     0.00000   15.93730   19.83158   25.62821
     146      444        2     0.00000   17.80696   21.22231   19.08169
     147      444        2     0.00000   19.86976   17.78418   28.99674
     148      444        2     0.00000   26.21105   16.59323   25.62821
     149      444        2     0.00000   24.14825   17.78418   28.99674
     150      444        2     0.00000   15.93730   22.30176   22.13484
     151      444        2     0.00000   19.86976   24.79518   19.08169
     152      444        2     0.00000   28.08071   19.83158   25.62821
     153      444        2     0.00000   18.68158   13.16773   22.13484
     154      444        2     0.00000   19.94621   17.51703   19.08169
     155      444        2     0.00000   26.21105   21.22231   19.08169
     156      444        2     0.00000   27.47568   14.40282   25.62821
     157      444        2     0.00000   25.33643   16.78690   17.01656
     158      444        2     0.00000   16.54233   20.49218   17.01656
     159      444        2     0.00000   17.80696   16.59323   25.62821
     160      444        2     0.00000   24.07180   15.35813   22.13484
     161      444        3     0.00000   18.94183   16.07619   23.88594
     162      444        3     0.00000   19.12414   22.84375   28.89462
     163      444        3     0.00000   24.89387   26.38542   23.88594
     164      444        3     0.00000   25.07618   19.40734   19.17498
     165      444        3     0.00000   22.00900   24.71985   19.17498
     166      444        3     0.00000   24.89387   22.84375   28.89462
     167      444        3     0.00000   27.96105   21.07292   23.88594
     168      444        3     0.00000   19.12414   26.38542   23.88594
     169      444        3     0.00000   16.05696   21.07292   23.88594
     170      444        3     0.00000   18.94183   19.40734   19.17498
     171      444        3     0.00000   22.00901   17.84702   28.89462
     172      444        3     0.00000   25.07618   16.07619   23.88594
     173      444        3     0.00000   19.19291   15.12984   22.89351
     174      444        3     0.00000   26.72442   19.85181   17.48635
     175      444        3     0.00000   17.29359   14.63229   24.86787
     176      444        3     0.00000   24.82510   18.15622   18.61357
     177      444        3     0.00000   23.21805   25.12797   18.61357
     178      444        3     0.00000   18.50263   17.75769   17.48635
     179      444        3     0.00000   28.65506   21.76353   22.89351
     180      444        3     0.00000   25.51538   13.93425   22.89351
     181      444        3     0.00000   15.36295   20.36745   24.86787
     182      444        3     0.00000   17.98386   20.25034   18.61357
     183      444        3     0.00000   20.79996   17.45376   29.46654
     184      444        3     0.00000   26.03415   15.82788   24.86787
     185      444        3     0.00000   23.21805   17.45376   29.46654
     186      444        3     0.00000   15.36295   21.76353   22.89351
     187      444        3     0.00000   20.79996   25.12797   18.61357
     188      444        3     0.00000   28.65506   20.36745   24.86787
     189      444        3     0.00000   18.50263   13.93425   22.89351
     190      444        3     0.00000   19.19291   18.15622   18.61357
     191      444        3     0.00000   26.03415   20.25034   18.61357
     192      444        3     0.00000   26.72442   14.63229   24.86787
     193      444        3     0.00000   25.51538   17.75769   17.48635
     194      444        3     0.00000   17.29359   19.85181   17.48635
     195      444        3     0.00000   17.98386   15.82788   24.86787
     196      444        3     0.00000   24.82510   15.12984   22.89351
     197      444        3     0.00000   24.30429   19.85299   20.35769
     198      444        3     0.00000   24.18549   25.08513   23.91187
     199      444        3     0.00000   19.83252   22.43477   27.66005
     200      444        3     0.00000   19.71372   17.33980   23.91187
     201      444        3     0.00000   26.48077   21.10959   23.91187
     202      444        3     0.00000   24.30429   17.33980   23.91187
     203      444        3     0.00000   22.00900   23.82854   20.35769
     204      444        3     0.00000   19.71372   19.85299   20.35769
     205      444        3     0.00000   22.00901   18.66499   27.66005
     206      444        3     0.00000   19.83252   25.08513   23.91187
     207      444        3     0.00000   17.53724   21.10959   23.91187
     208      444        3     0.00000   24.18549   22.43477   27.66005
     209      444        4     0.00000   14.67267    8.47127   21.54128
     210      444        4     0.00000    9.31151    5.37600   12.78655
     211      444        4     0.00000   20.03383    5.37600   12.78655
     212      444        4     0.00000   14.67267   14.66180   12.78655
     213      444        5     0.00000   20.59661   17.50954   23.00324
     214      444        5     0.00000   20.67241   23.25968   27.16204
     215      444        5     0.00000   23.34560   24.89057   24.85561
     216      444        5     0.00000   23.42140   19.05291   20.82059
     217      444        5     0.00000   23.14334   23.46398   20.82059
     218      444        5     0.00000   24.47994   21.29495   27.16204
     219      444        5     0.00000   25.89234   21.78932   23.00324
     220      444        5     0.00000   19.53807   24.23567   23.00324
     221      444        5     0.00000   18.12567   20.47950   24.85561
     222      444        5     0.00000   19.46227   21.01764   20.82059
     223      444        5     0.00000   20.87467   18.97989   27.16204
     224      444        5     0.00000   24.55574   18.16445   24.85561
     225      444        5     0.00000   23.14334   18.97989   27.16204
     226      444        5     0.00000   18.12567   21.78932   23.00324
     227      444        5     0.00000   20.87467   23.46398   20.82059
     228      444        5     0.00000   25.89234   20.47950   24.85561
     229      444        5     0.00000   24.47994   24.23567   23.00324
     230      444        5     0.00000   20.59661   19.05291   20.82059
     231      444        5     0.00000   24.55574   21.01764   20.82059
     232      444        5     0.00000   20.67241   24.89057   24.85561
     233      444        5     0.00000   19.53807   21.29495   27.16204
     234      444        5     0.00000   23.34560   23.25968   27.16204
     235      444        5     0.00000   19.46227   18.16445   24.85561
     236      444        5     0.00000   23.42140   17.50954   23.00324
     237      444        6     0.00000   29.34534   16.94254   13.79223
     238      444        6     0.00000   35.20214   20.32397   23.35635
     239      444        6     0.00000   23.48854   20.32397   23.35635
     240      444        6     0.00000   29.34534   10.17969   23.35635
     241      444        7     0.00000   20.20170   15.39695   21.82998
     242      444        6     0.00000   20.45554   14.57475   20.92331
     243      444        6     0.00000   20.85730   16.45995   21.77787
     244      444        2     0.00000   21.13258   14.75401   20.20954
     245      444        7     0.00000   27.74700   20.75752   16.89127
     246      444        6     0.00000   28.01259   21.87961   17.37383
     247      444        6     0.00000   28.40328   20.45192   15.87224
     248      444        2     0.00000   28.69889   22.48747   16.97444
     249      444        7     0.00000   24.51370   24.71116   19.21991
     250      444        6     0.00000   25.61826   25.05577   18.74695
     251      444        6     0.00000   24.57719   23.99079   20.23949
     252      444        2     0.00000   26.48783   24.77604   19.15389
     253      444        7     0.00000   18.77570   16.41925   16.89127
     254      444        6     0.00000   19.61467   15.62819   17.37383
     255      444        6     0.00000   18.18292   16.00370   15.87224
     256      444        2     0.00000   19.79795   14.72992   16.97444
     257      444        7     0.00000   27.91935   22.50361   21.82998
     258      444        6     0.00000   28.50448   23.13455   20.92331
     259      444        6     0.00000   26.67096   22.53988   21.77787
     260      444        2     0.00000   28.01071   23.63125   20.20954
     261      444        7     0.00000   25.24231   12.92706   21.82998
     262      444        6     0.00000   24.40334   13.11833   20.92331
     263      444        6     0.00000   25.83509   11.82779   21.77787
     264      444        2     0.00000   24.22006   12.44236   20.20954
     265      444        1     0.00000   29.34534   23.38416   34.50538
     266      444        1     0.00000   29.34534   10.50092   25.39555
     267      444        1     0.00000   23.76673   13.72173   34.50538
     268      444        1     0.00000   23.76673   20.16335   25.39555
     269      444        1     0.00000   34.92395   13.72173   34.50538
     270      444        1     0.00000   34.92395   20.16335   25.39555
     271      444        2     0.00000   22.00901   17.97957   25.09125
     272      444        2     0.00000   26.57526   10.07057   25.09125
     273      444        2     0.00000   17.44275   10.07057   25.09125
     274      444        2     0.00000   22.00901   12.70690   32.54792
     275      444        2     0.00000   23.87867   18.63845   37.60839
     276      444        2     0.00000   31.40814   21.75267   31.06188
     277      444        2     0.00000   23.27364   24.06721   37.60839
     278      444        2     0.00000   25.14330   25.45795   31.06188
     279      444        2     0.00000   27.20610   22.01982   40.97693
     280      444        2     0.00000   33.54738   20.82886   37.60839
     281      444        2     0.00000   31.48458   22.01982   40.97693
     282      444        2     0.00000   23.27364   26.53740   34.11502
     283      444        2     0.00000   27.20610   29.03081   31.06188
     284      444        2     0.00000   35.41704   24.06721   37.60839
     285      444        2     0.00000   26.01791   17.40336   34.11502
     286      444        2     0.00000   27.28254   21.75267   31.06188
     287      444        2     0.00000   33.54738   25.45795   31.06188
     288      444        2     0.00000   34.81201   18.63845   37.60839
     289      444        2     0.00000   32.67277   21.02253   28.99674
     290      444        2     0.00000   23.87867   24.72781   28.99674
     291      444        2     0.00000   25.14330   20.82886   37.60839
     292      444        2     0.00000   31.40814   19.59377   34.11502
     293      444        3     0.00000   26.27816   20.31182   35.86612
     294      444        3     0.00000   26.46048   27.07939   40.87481
     295      444        3     0.00000   32.23020   30.62106   35.86612
     296      444        3     0.00000   32.41252   23.64297   31.15516
     297      444        3     0.00000   29.34534   28.95548   31.15516
     298      444        3     0.00000   32.23020   27.07939   40.87481
     299      444        3     0.00000   35.29738   25.30855   35.86612
     300      444        3     0.00000   26.46048   30.62106   35.86612
     301      444        3     0.00000   23.39330   25.30855   35.86612
     302      444        3     0.00000   26.27816   23.64297   31.15516
     303      444        3     0.00000   29.34534   22.08266   40.87481
     304      444        3     0.00000   32.41252   20.31182   35.86612
     305      444        3     0.00000   26.52924   19.36548   34.87369
     306      444        3     0.00000   34.06076   24.08744   29.46654
     307      444        3     0.00000   24.62992   18.86792   36.84805
     308      444        3     0.00000   32.16144   22.39185   30.59375
     309      444        3     0.00000   30.55438   29.36360   30.59375
     310      444        3     0.00000   25.83896   21.99332   29.46654
     311      444        3     0.00000   35.99140   25.99916   34.87369
     312      444        3     0.00000   32.85172   18.16988   34.87369
     313      444        3     0.00000   22.69928   24.60308   36.84805
     314      444        3     0.00000   25.32020   24.48597   30.59375
     315      444        3     0.00000   28.13630   21.68939   41.44672
     316      444        3     0.00000   33.37048   20.06352   36.84805
     317      444        3     0.00000   30.55438   21.68939   41.44672
     318      444        3     0.00000   22.69928   25.99916   34.87369
     319      444        3     0.00000   28.13630   29.36360   30.59375
     320      444        3     0.00000   35.99140   24.60308   36.84805
     321      444        3     0.00000   25.83896   18.16988   34.87369
     322      444        3     0.00000   26.52924   22.39185   30.59375
     323      444        3     0.00000   33.37048   24.48597   30.59375
     324      444        3     0.00000   34.06076   18.86792   36.84805
     325      444        3     0.00000   32.85172   21.99332   29.46654
     326      444        3     0.00000   24.62992   24.08744   29.46654
     327      444        3     0.00000   25.32020   20.06352   36.84805
     328      444        3     0.00000   32.16144   19.36548   34.87369
     329      444        3     0.00000   31.64062   24.08863   32.33787
     330      444        3     0.00000   31.52183   29.32077   35.89206
     331      444        3     0.00000   27.16885   26.67040   39.64023
     332      444        3     0.00000   27.05006   21.57544   35.89206
     333      444        3     0.00000   33.81711   25.34522   35.89206
     334      444        3     0.00000   31.64062   21.57544   35.89206
     335      444        3     0.00000   29.34534   28.06417   32.33787
     336      444        3     0.00000   27.05006   24.08863   32.33787
     337      444        3     0.00000   29.34534   22.90062   39.64023
     338      444        3     0.00000   27.16885   29.32077   35.89206
     339      444        3     0.00000   24.87357   25.34522   35.89206
     340      444        3     0.00000   31.52183   26.67040   39.64023
     341      444        4     0.00000   22.00901   12.70691   33.52147
     342      444        4     0.00000   16.64785    9.61164   24.76673
     343      444        4     0.00000   27.37016    9.61164   24.76673
     344      444        4     0.00000   22.00901   18.89744   24.76673
     345      444        5     0.00000   27.93294   21.74517   34.98343
     346      444        5     0.00000   28.00874   27.49531   39.14223
     347      444        5     0.00000   30.68194   29.12621   36.83579
     348      444        5     0.00000   30.75774   23.28855   32.80077
     349      444        5     0.00000   30.47967   27.69961   32.80077
     350      444        5     0.00000   31.81627   25.53059   39.14223
     351      444        5     0.00000   33.22867   26.02496   34.98343
     352      444        5     0.00000   26.87441   28.47130   34.98343
     353      444        5     0.00000   25.46201   24.71514   36.83579
     354      444        5     0.00000   26.79861   25.25327   32.80077
     355      444        5     0.00000   28.21101   23.21553   39.14223
     356      444        5     0.00000   31.89207   22.40008   36.83579
     357      444        5     0.00000   30.47967   23.21553   39.14223
     358      444        5     0.00000   25.46201   26.02496   34.98343
     359      444        5     0.00000   28.21101   27.69961   32.80077
     360      444        5     0.00000   33.22867   24.71514   36.83579
     361      444        5     0.00000   31.81627   28.47130   34.98343
     362      444        5     0.00000   27.93294   23.28855   32.80077
     363      444        5     0.00000   31.89207   25.25327   32.80077
     364      444        5     0.00000   28.00874   29.12621   36.83579
     365      444        5     0.00000   26.87441   25.53059   39.14223
     366      444        5     0.00000   30.68194   27.49531   39.14223
     367      444        5     0.00000   26.79861   22.40008   36.83579
     368      444        5     0.00000   30.75774   21.74517   34.98343
     369      444        6     0.00000   36.68167   21.17817   25.77242
     370      444        6     0.00000   42.53848   24.55960   35.33654
     371      444        6     0.00000   30.82487   24.55960   35.33654
     372      444        6     0.00000   36.68168   14.41532   35.33654
     373      444        7     0.00000   27.53803   19.63258   33.81017
     374      444        6     0.00000   27.79187   18.81038   32.90350
     375      444        6     0.00000   28.19363   20.69559   33.75805
     376      444        2     0.00000   28.46891   18.98965   32.18972
     377      444        7     0.00000   35.08334   24.99315   28.87145
     378      444        6     0.00000   35.34893   26.11525   29.35401
     379      444        6     0.00000   35.73961   24.68756   27.85243
     380      444        2     0.00000   36.03523   26.72311   28.95463
     381      444        7     0.00000   31.85004   28.94680   31.20009
     382      444        6     0.00000   32.95460   29.29141   30.72713
     383      444        6     0.00000   31.91352   28.22643   32.21967
     384      444        2     0.00000   33.82417   29.01167   31.13407
     385      444        7     0.00000   26.11204   20.65489   28.87145
     386      444        6     0.00000   26.95101   19.86383   29.35401
     387      444        6     0.00000   25.51925   20.23933   27.85243
     388      444        2     0.00000   27.13428   18.96555   28.95463
     389      444        7     0.00000   35.25568   26.73925   33.81017
     390      444        6     0.00000   35.84081   27.37018   32.90350
     391      444        6     0.00000   34.00729   26.77551   33.75805
     392      444        2     0.00000   35.34704   27.86688   32.18972
     393      444        7     0.00000   32.57864   17.16269   33.81017
     394      444        6     0.00000   31.73967   17.35396   32.90350
     395      444        6     0.00000   33.17143   16.06342   33.75805
     396      444        2     0.00000   31.55640   16.67799   32.18972
     397      444        1     0.00000   22.00901   27.61980   10.54501
     398      444        1     0.00000   22.00900   14.73655    1.43518
     399      444        1     0.00000   16.43039   17.95736   10.54501
     400      444        1     0.00000   16.43039   24.39899    1.43518
     401      444        1     0.00000   27.58762   17.95736   10.54501
     402      444        1     0.00000   27.58762   24.39899    1.43518
     403      444        2     0.00000   14.67267   22.21520    1.13088
     404      444        2     0.00000   19.23893   14.30621    1.13088
     405      444        2     0.00000   10.10641   14.30621    1.13088
     406      444        2     0.00000   14.67267   16.94254    8.58755
     407      444        2     0.00000   16.54233   22.87409   13.64802
     408      444        2     0.00000   24.07180   25.98830    7.10151
     409      444        2     0.00000   15.93730   28.30285   13.64802
     410      444        2     0.00000   17.80696   29.69358    7.10151