Created on Wed Jul 27 11:38:35 2022

3078 atoms
7 atom types

0.000000  44.018010 xlo xhi
0.000000  38.120715 ylo yhi
0.000000  35.940555 zlo zhi
22.009005  22.009005  12.706905 xy xz yz

Masses

    1    91.224000000 # Zr3+4
    2     1.007940000 # H_
    3    12.010700000 # C_R
    4    15.999400000 # O_3
    5    15.999400000 # O_R
    6    15.999400000 # O_2
    7    16.04        # CH4

Atoms

       1      444        1     0.00000   14.67267   14.91289   10.54501
       2      444        1     0.00000   14.67267    2.02965    1.43518
       3      444        1     0.00000    9.09406    5.25046   10.54501
       4      444        1     0.00000    9.09406   11.69208    1.43518
       5      444        1     0.00000   20.25128    5.25046   10.54501
       6      444        1     0.00000   20.25128   11.69208    1.43518
       7      444        2     0.00000    7.33634    9.50830    1.13088
       8      444        2     0.00000   11.90259    1.59930    1.13088
       9      444        2     0.00000    2.77008    1.59930    1.13088
      10      444        2     0.00000    7.33634    4.23563    8.58755
      11      444        2     0.00000   10.03846   12.60710   10.73951
      12      444        2     0.00000   20.51894   13.50650    6.24112
      13      444        2     0.00000   11.79918    8.67001   13.20970
      14      444        2     0.00000   16.22896   15.98332    5.83606
      15      444        2     0.00000   14.72524   18.76994    5.83606
      16      444        2     0.00000    8.77383   13.59754    6.24112
      17      444        2     0.00000   20.74437   15.09692   10.73951
      18      444        2     0.00000   20.57151   10.41669   10.73951
      19      444        2     0.00000    8.60097   18.59029   13.20970
      20      444        2     0.00000   13.06381   16.07436    5.83606
      21      444        2     0.00000   14.72524   15.25231   18.22130
      22      444        2     0.00000   16.28153   10.86042   13.20970
      23      444        2     0.00000   14.72524   11.75894   15.75111
      24      444        2     0.00000    8.60097   15.09692   10.73951
      25      444        2     0.00000   14.72524   22.26331    8.30625
      26      444        2     0.00000   20.74437   18.59029   13.20970
      27      444        2     0.00000    8.77383   10.41669   10.73951
      28      444        2     0.00000   10.03846   14.32768    8.30625
      29      444        2     0.00000   19.25431   14.23663    8.30625
      30      444        2     0.00000   17.54616    8.67001   13.20970
      31      444        2     0.00000   17.49359   15.25318    3.77093
      32      444        2     0.00000   11.79918   15.34423    3.77093
      33      444        2     0.00000   13.06381   10.86042   13.20970
      34      444        2     0.00000   19.30688   12.60710   10.73951
      35      444        3     0.00000   11.60549   11.84055   11.90575
      36      444        3     0.00000   11.78781   18.60812   16.91444
      37      444        3     0.00000   17.55753   22.14979   11.90575
      38      444        3     0.00000   17.73985   15.17170    7.19479
      39      444        3     0.00000   14.67267   20.48421    7.19479
      40      444        3     0.00000   17.55753   18.60812   16.91444
      41      444        3     0.00000   20.62471   16.83728   11.90575
      42      444        3     0.00000   11.78781   22.14979   11.90575
      43      444        3     0.00000    8.72063   16.83728   11.90575
      44      444        3     0.00000   11.60549   15.17170    7.19479
      45      444        3     0.00000   14.67267   13.61139   16.91444
      46      444        3     0.00000   17.73985   11.84055   11.90575
      47      444        3     0.00000   10.40832   11.73036   11.27775
      48      444        3     0.00000   19.57329   14.05080    6.17302
      49      444        3     0.00000   11.42788    9.54759   12.67383
      50      444        3     0.00000   17.17317   15.43651    5.90416
      51      444        3     0.00000   14.72668   19.86105    5.90416
      52      444        3     0.00000    9.71804   14.14435    6.17302
      53      444        3     0.00000   21.31873   15.85559   11.27775
      54      444        3     0.00000   19.62730   10.53477   11.27775
      55      444        3     0.00000    8.02661   17.82995   12.67383
      56      444        3     0.00000   12.11816   15.53006    5.90416
      57      444        3     0.00000   14.72668   14.16120   18.15321
      58      444        3     0.00000   17.22718   10.74318   12.67383
      59      444        3     0.00000   14.72668   12.18684   16.75713
      60      444        3     0.00000    8.02661   15.85559   11.27775
      61      444        3     0.00000   14.72668   21.83541    7.30024
      62      444        3     0.00000   21.31873   17.82995   12.67383
      63      444        3     0.00000    9.71804   10.53477   11.27775
      64      444        3     0.00000   10.40832   14.54288    7.30024
      65      444        3     0.00000   18.88301   14.44933    7.30024
      66      444        3     0.00000   17.91746    9.54759   12.67383
      67      444        3     0.00000   17.86344   15.03798    4.77694
      68      444        3     0.00000   11.42788   15.13153    4.77694
      69      444        3     0.00000   12.11816   10.74318   12.67383
      70      444        3     0.00000   18.93702   11.73036   11.27775
      71      444        3     0.00000   16.96795   15.61736    8.37750
      72      444        3     0.00000   16.84916   20.84950   11.93169
      73      444        3     0.00000   12.49618   18.19913   15.67986
      74      444        3     0.00000   12.37739   13.10417   11.93169
      75      444        3     0.00000   19.14444   16.87395   11.93169
      76      444        3     0.00000   16.96795   13.10417   11.93169
      77      444        3     0.00000   14.67267   19.59290    8.37750
      78      444        3     0.00000   12.37739   15.61736    8.37750
      79      444        3     0.00000   14.67267   14.42935   15.67986
      80      444        3     0.00000   12.49618   20.84950   11.93169
      81      444        3     0.00000   10.20090   16.87395   11.93169
      82      444        3     0.00000   16.84916   18.19913   15.67986
      83      444        4     0.00000    7.33634    4.23564    9.56110
      84      444        4     0.00000    1.97518    1.14037    0.80636
      85      444        4     0.00000   12.69749    1.14037    0.80636
      86      444        4     0.00000    7.33634   10.42617    0.80636
      87      444        5     0.00000   13.26027   13.27390   11.02306
      88      444        5     0.00000   13.33607   19.02404   15.18186
      89      444        5     0.00000   16.00927   20.65494   12.87542
      90      444        5     0.00000   16.08507   14.81728    8.84040
      91      444        5     0.00000   15.80700   19.22834    8.84040
      92      444        5     0.00000   17.14360   17.05932   15.18186
      93      444        5     0.00000   18.55600   17.55369   11.02306
      94      444        5     0.00000   12.20174   20.00003   11.02306
      95      444        5     0.00000   10.78934   16.24387   12.87542
      96      444        5     0.00000   12.12594   16.78200    8.84040
      97      444        5     0.00000   13.53834   14.74426   15.18186
      98      444        5     0.00000   17.21940   13.92881   12.87542
      99      444        5     0.00000   15.80700   14.74426   15.18186
     100      444        5     0.00000   10.78934   17.55369   11.02306
     101      444        5     0.00000   13.53834   19.22834    8.84040
     102      444        5     0.00000   18.55600   16.24387   12.87542
     103      444        5     0.00000   17.14360   20.00003   11.02306
     104      444        5     0.00000   13.26027   14.81728    8.84040
     105      444        5     0.00000   17.21940   16.78200    8.84040
     106      444        5     0.00000   13.33607   20.65494   12.87542
     107      444        5     0.00000   12.20174   17.05932   15.18186
     108      444        5     0.00000   16.00927   19.02404   15.18186
     109      444        5     0.00000   12.12594   13.92881   12.87542
     110      444        5     0.00000   16.08507   13.27390   11.02306
     111      444        6     0.00000   22.00901   12.70690    1.81205
     112      444        6     0.00000   27.86581   16.08833   11.37617
     113      444        6     0.00000   16.15220   16.08833   11.37617
     114      444        6     0.00000   22.00901    5.94405   11.37617
     115      444        1     0.00000   22.00901   19.14853   22.52519
     116      444        1     0.00000   22.00901    6.26528   13.41536
     117      444        1     0.00000   16.43039    9.48609   22.52519
     118      444        1     0.00000   16.43039   15.92772   13.41536
     119      444        1     0.00000   27.58762    9.48609   22.52519
     120      444        1     0.00000   27.58762   15.92772   13.41536
     121      444        2     0.00000   14.67267   13.74393   13.11106
     122      444        2     0.00000   19.23893    5.83494   13.11106
     123      444        2     0.00000   10.10641    5.83494   13.11106
     124      444        2     0.00000   14.67267    8.47127   20.56773
     125      444        2     0.00000   17.37480   16.84274   22.71970
     126      444        2     0.00000   27.85528   17.74213   18.22130
     127      444        2     0.00000   19.13552   12.90564   25.18988
     128      444        2     0.00000   23.56530   20.21895   17.81625
     129      444        2     0.00000   22.06157   23.00557   17.81625
     130      444        2     0.00000   16.11017   17.83318   18.22130
     131      444        2     0.00000   28.08071   19.33255   22.71970
     132      444        2     0.00000   27.90784   14.65233   22.71970
     133      444        2     0.00000   15.93730   22.82593   25.18988
     134      444        2     0.00000   20.40015   20.31000   17.81625
     135      444        2     0.00000   22.06157   19.48795   30.20149
     136      444        2     0.00000   23.61786   15.09605   25.18988
     137      444        2     0.00000   22.06157   15.99458   27.73130
     138      444        2     0.00000   15.93730   19.33255   22.71970
     139      444        2     0.00000   22.06157   26.49895   20.28644
     140      444        2     0.00000   28.08071   22.82593   25.18988
     141      444        2     0.00000   16.11017   14.65233   22.71970
     142      444        2     0.00000   17.37480   18.56331   20.28644
     143      444        2     0.00000   26.59064   18.47227   20.28644
     144      444        2     0.00000   24.88249   12.90564   25.18988
     145      444        2     0.00000   24.82993   19.48882   15.75111
     146      444        2     0.00000   19.13552   19.57986   15.75111
     147      444        2     0.00000   20.40015   15.09605   25.18988
     148      444        2     0.00000   26.64321   16.84274   22.71970
     149      444        3     0.00000   18.94183   16.07619   23.88594
     150      444        3     0.00000   19.12414   22.84375   28.89462
     151      444        3     0.00000   24.89387   26.38542   23.88594
     152      444        3     0.00000   25.07618   19.40734   19.17498
     153      444        3     0.00000   22.00901   24.71985   19.17498
     154      444        3     0.00000   24.89387   22.84375   28.89462
     155      444        3     0.00000   27.96105   21.07292   23.88594
     156      444        3     0.00000   19.12414   26.38542   23.88594
     157      444        3     0.00000   16.05696   21.07292   23.88594
     158      444        3     0.00000   18.94183   19.40734   19.17498
     159      444        3     0.00000   22.00901   17.84702   28.89462
     160      444        3     0.00000   25.07618   16.07619   23.88594
     161      444        3     0.00000   17.74465   15.96599   23.25793
     162      444        3     0.00000   26.90962   18.28643   18.15321
     163      444        3     0.00000   18.76422   13.78322   24.65401
     164      444        3     0.00000   24.50950   19.67214   17.88434
     165      444        3     0.00000   22.06302   24.09669   17.88434
     166      444        3     0.00000   17.05437   18.37999   18.15321
     167      444        3     0.00000   28.65506   20.09123   23.25793
     168      444        3     0.00000   26.96364   14.77040   23.25793
     169      444        3     0.00000   15.36295   22.06558   24.65401
     170      444        3     0.00000   19.45449   19.76570   17.88434
     171      444        3     0.00000   22.06302   18.39684   30.13339
     172      444        3     0.00000   24.56352   14.97882   24.65401
     173      444        3     0.00000   22.06302   16.42248   28.73731
     174      444        3     0.00000   15.36295   20.09123   23.25793
     175      444        3     0.00000   22.06302   26.07104   19.28042
     176      444        3     0.00000   28.65506   22.06558   24.65401
     177      444        3     0.00000   17.05437   14.77040   23.25793
     178      444        3     0.00000   17.74465   18.77852   19.28042
     179      444        3     0.00000   26.21935   18.68496   19.28042
     180      444        3     0.00000   25.25379   13.78322   24.65401
     181      444        3     0.00000   25.19978   19.27361   16.75713
     182      444        3     0.00000   18.76422   19.36717   16.75713
     183      444        3     0.00000   19.45449   14.97882   24.65401
     184      444        3     0.00000   26.27336   15.96599   23.25793
     185      444        3     0.00000   24.30429   19.85299   20.35769
     186      444        3     0.00000   24.18549   25.08513   23.91187
     187      444        3     0.00000   19.83252   22.43477   27.66005
     188      444        3     0.00000   19.71372   17.33980   23.91187
     189      444        3     0.00000   26.48077   21.10959   23.91187
     190      444        3     0.00000   24.30429   17.33980   23.91187
     191      444        3     0.00000   22.00900   23.82854   20.35769
     192      444        3     0.00000   19.71372   19.85299   20.35769
     193      444        3     0.00000   22.00901   18.66499   27.66005
     194      444        3     0.00000   19.83252   25.08513   23.91187
     195      444        3     0.00000   17.53724   21.10959   23.91187
     196      444        3     0.00000   24.18549   22.43477   27.66005
     197      444        4     0.00000   14.67267    8.47127   21.54128
     198      444        4     0.00000    9.31151    5.37600   12.78655
     199      444        4     0.00000   20.03383    5.37600   12.78655
     200      444        4     0.00000   14.67267   14.66180   12.78655
     201      444        5     0.00000   20.59661   17.50954   23.00324
     202      444        5     0.00000   20.67241   23.25968   27.16204
     203      444        5     0.00000   23.34560   24.89057   24.85561
     204      444        5     0.00000   23.42140   19.05291   20.82059
     205      444        5     0.00000   23.14334   23.46398   20.82059
     206      444        5     0.00000   24.47994   21.29495   27.16204
     207      444        5     0.00000   25.89234   21.78932   23.00324
     208      444        5     0.00000   19.53807   24.23567   23.00324
     209      444        5     0.00000   18.12567   20.47950   24.85561
     210      444        5     0.00000   19.46227   21.01764   20.82059
     211      444        5     0.00000   20.87467   18.97989   27.16204
     212      444        5     0.00000   24.55574   18.16445   24.85561
     213      444        5     0.00000   23.14334   18.97989   27.16204
     214      444        5     0.00000   18.12567   21.78932   23.00324
     215      444        5     0.00000   20.87467   23.46398   20.82059
     216      444        5     0.00000   25.89234   20.47950   24.85561
     217      444        5     0.00000   24.47994   24.23567   23.00324
     218      444        5     0.00000   20.59661   19.05291   20.82059
     219      444        5     0.00000   24.55574   21.01764   20.82059
     220      444        5     0.00000   20.67241   24.89057   24.85561
     221      444        5     0.00000   19.53807   21.29495   27.16204
     222      444        5     0.00000   23.34560   23.25968   27.16204
     223      444        5     0.00000   19.46227   18.16445   24.85561
     224      444        5     0.00000   23.42140   17.50954   23.00324
     225      444        6     0.00000   29.34534   16.94254   13.79223
     226      444        6     0.00000   35.20214   20.32397   23.35635
     227      444        6     0.00000   23.48854   20.32397   23.35635
     228      444        6     0.00000   29.34534   10.17969   23.35635
     229      444        1     0.00000   29.34534   23.38416   34.50538
     230      444        1     0.00000   29.34534   10.50092   25.39555
     231      444        1     0.00000   23.76673   13.72173   34.50538
     232      444        1     0.00000   23.76673   20.16335   25.39555
     233      444        1     0.00000   34.92395   13.72173   34.50538
     234      444        1     0.00000   34.92395   20.16335   25.39555
     235      444        2     0.00000   22.00901   17.97957   25.09125
     236      444        2     0.00000   26.57526   10.07057   25.09125
     237      444        2     0.00000   17.44275   10.07057   25.09125
     238      444        2     0.00000   22.00901   12.70690   32.54792
     239      444        2     0.00000   24.71113   21.07837   34.69988
     240      444        2     0.00000   35.19161   21.97777   30.20149
     241      444        2     0.00000   26.47185   17.14128   37.17007
     242      444        2     0.00000   30.90163   24.45459   29.79643
     243      444        2     0.00000   29.39791   27.24121   29.79643
     244      444        2     0.00000   23.44650   22.06881   30.20149
     245      444        2     0.00000   35.41704   23.56819   34.69988
     246      444        2     0.00000   35.24418   18.88796   34.69988
     247      444        2     0.00000   23.27364   27.06156   37.17007
     248      444        2     0.00000   27.73648   24.54563   29.79643
     249      444        2     0.00000   29.39791   23.72358   42.18167
     250      444        2     0.00000   30.95420   19.33169   37.17007
     251      444        2     0.00000   29.39791   20.23021   39.71148
     252      444        2     0.00000   23.27364   23.56819   34.69988
     253      444        2     0.00000   29.39791   30.73458   32.26662
     254      444        2     0.00000   35.41704   27.06156   37.17007
     255      444        2     0.00000   23.44650   18.88796   34.69988
     256      444        2     0.00000   24.71113   22.79895   32.26662
     257      444        2     0.00000   33.92698   22.70790   32.26662
     258      444        2     0.00000   32.21883   17.14128   37.17007
     259      444        2     0.00000   32.16626   23.72445   27.73130
     260      444        2     0.00000   26.47185   23.81550   27.73130
     261      444        2     0.00000   27.73648   19.33169   37.17007
     262      444        2     0.00000   33.97955   21.07837   34.69988
     263      444        3     0.00000   26.27816   20.31182   35.86612
     264      444        3     0.00000   26.46048   27.07939   40.87481
     265      444        3     0.00000   32.23020   30.62106   35.86612
     266      444        3     0.00000   32.41252   23.64297   31.15516
     267      444        3     0.00000   29.34534   28.95548   31.15516
     268      444        3     0.00000   32.23020   27.07939   40.87481
     269      444        3     0.00000   35.29738   25.30855   35.86612
     270      444        3     0.00000   26.46048   30.62106   35.86612
     271      444        3     0.00000   23.39330   25.30855   35.86612
     272      444        3     0.00000   26.27816   23.64297   31.15516
     273      444        3     0.00000   29.34534   22.08266   40.87481
     274      444        3     0.00000   32.41252   20.31182   35.86612
     275      444        3     0.00000   25.08099   20.20163   35.23812
     276      444        3     0.00000   34.24596   22.52207   30.13339
     277      444        3     0.00000   26.10055   18.01886   36.63420
     278      444        3     0.00000   31.84584   23.90778   29.86453
     279      444        3     0.00000   29.39935   28.33232   29.86453
     280      444        3     0.00000   24.39071   22.61562   30.13339
     281      444        3     0.00000   35.99140   24.32686   35.23812
     282      444        3     0.00000   34.29997   19.00604   35.23812
     283      444        3     0.00000   22.69928   26.30122   36.63420
     284      444        3     0.00000   26.79083   24.00133   29.86453
     285      444        3     0.00000   29.39935   22.63247   42.11358
     286      444        3     0.00000   31.89985   19.21445   36.63420
     287      444        3     0.00000   29.39935   20.65811   40.71750
     288      444        3     0.00000   22.69928   24.32686   35.23812
     289      444        3     0.00000   29.39935   30.30668   31.26061
     290      444        3     0.00000   35.99140   26.30122   36.63420
     291      444        3     0.00000   24.39071   19.00604   35.23812
     292      444        3     0.00000   25.08099   23.01415   31.26061
     293      444        3     0.00000   33.55568   22.92060   31.26061
     294      444        3     0.00000   32.59013   18.01886   36.63420
     295      444        3     0.00000   32.53611   23.50925   28.73731
     296      444        3     0.00000   26.10055   23.60280   28.73731
     297      444        3     0.00000   26.79083   19.21445   36.63420
     298      444        3     0.00000   33.60969   20.20163   35.23812
     299      444        3     0.00000   31.64062   24.08863   32.33787
     300      444        3     0.00000   31.52183   29.32077   35.89206
     301      444        3     0.00000   27.16885   26.67040   39.64023
     302      444        3     0.00000   27.05006   21.57544   35.89206
     303      444        3     0.00000   33.81711   25.34522   35.89206
     304      444        3     0.00000   31.64062   21.57544   35.89206
     305      444        3     0.00000   29.34534   28.06417   32.33787
     306      444        3     0.00000   27.05006   24.08863   32.33787
     307      444        3     0.00000   29.34534   22.90062   39.64023
     308      444        3     0.00000   27.16885   29.32077   35.89206
     309      444        3     0.00000   24.87357   25.34522   35.89206
     310      444        3     0.00000   31.52183   26.67040   39.64023
     311      444        4     0.00000   22.00901   12.70691   33.52147
     312      444        4     0.00000   16.64785    9.61164   24.76673
     313      444        4     0.00000   27.37016    9.61164   24.76673
     314      444        4     0.00000   22.00901   18.89744   24.76673
     315      444        5     0.00000   27.93294   21.74517   34.98343
     316      444        5     0.00000   28.00874   27.49531   39.14223
     317      444        5     0.00000   30.68194   29.12621   36.83579
     318      444        5     0.00000   30.75774   23.28855   32.80077
     319      444        5     0.00000   30.47967   27.69961   32.80077
     320      444        5     0.00000   31.81627   25.53059   39.14223
     321      444        5     0.00000   33.22867   26.02496   34.98343
     322      444        5     0.00000   26.87441   28.47130   34.98343
     323      444        5     0.00000   25.46201   24.71514   36.83579
     324      444        5     0.00000   26.79861   25.25327   32.80077
     325      444        5     0.00000   28.21101   23.21553   39.14223
     326      444        5     0.00000   31.89207   22.40008   36.83579
     327      444        5     0.00000   30.47967   23.21553   39.14223
     328      444        5     0.00000   25.46201   26.02496   34.98343
     329      444        5     0.00000   28.21101   27.69961   32.80077
     330      444        5     0.00000   33.22867   24.71514   36.83579
     331      444        5     0.00000   31.81627   28.47130   34.98343
     332      444        5     0.00000   27.93294   23.28855   32.80077
     333      444        5     0.00000   31.89207   25.25327   32.80077
     334      444        5     0.00000   28.00874   29.12621   36.83579
     335      444        5     0.00000   26.87441   25.53059   39.14223
     336      444        5     0.00000   30.68194   27.49531   39.14223
     337      444        5     0.00000   26.79861   22.40008   36.83579
     338      444        5     0.00000   30.75774   21.74517   34.98343
     339      444        6     0.00000   36.68168   21.17817   25.77242
     340      444        6     0.00000   42.53848   24.55960   35.33654
     341      444        6     0.00000   30.82487   24.55960   35.33654
     342      444        6     0.00000   36.68168   14.41532   35.33654
     343      444        1     0.00000   22.00901   27.61980   10.54501
     344      444        1     0.00000   22.00901   14.73655    1.43518
     345      444        1     0.00000   16.43039   17.95736   10.54501
     346      444        1     0.00000   16.43039   24.39899    1.43518
     347      444        1     0.00000   27.58762   17.95736   10.54501
     348      444        1     0.00000   27.58762   24.39899    1.43518
     349      444        2     0.00000   14.67267   22.21520    1.13088
     350      444        2     0.00000   19.23893   14.30621    1.13088
     351      444        2     0.00000   10.10641   14.30621    1.13088
     352      444        2     0.00000   14.67267   16.94254    8.58755
     353      444        2     0.00000   17.37480   25.31401   10.73951
     354      444        2     0.00000   27.85528   26.21340    6.24112
     355      444        2     0.00000   19.13552   21.37691   13.20970
     356      444        2     0.00000   23.56530   28.69022    5.83606
     357      444        2     0.00000   22.06157   31.47684    5.83606
     358      444        2     0.00000   16.11017   26.30445    6.24112
     359      444        2     0.00000   28.08071   27.80382   10.73951
     360      444        2     0.00000   27.90784   23.12360   10.73951
     361      444        2     0.00000   15.93730   31.29720   13.20970
     362      444        2     0.00000   20.40015   28.78127    5.83606
     363      444        2     0.00000   22.06157   27.95922   18.22130
     364      444        2     0.00000   23.61786   23.56732   13.20970
     365      444        2     0.00000   22.06157   24.46585   15.75111
     366      444        2     0.00000   15.93730   27.80382   10.73951
     367      444        2     0.00000   22.06157   34.97022    8.30625
     368      444        2     0.00000   28.08071   31.29720   13.20970
     369      444        2     0.00000   16.11017   23.12360   10.73951
     370      444        2     0.00000   17.37480   27.03458    8.30625
     371      444        2     0.00000   26.59064   26.94354    8.30625
     372      444        2     0.00000   24.88249   21.37691   13.20970
     373      444        2     0.00000   24.82993   27.96009    3.77093
     374      444        2     0.00000   19.13552   28.05113    3.77093
     375      444        2     0.00000   20.40015   23.56732   13.20970
     376      444        2     0.00000   26.64321   25.31401   10.73951
     377      444        3     0.00000   18.94183   24.54746   11.90575
     378      444        3     0.00000   19.12414   31.31502   16.91444
     379      444        3     0.00000   24.89387   34.85669   11.90575
     380      444        3     0.00000   25.07618   27.87861    7.19479
     381      444        3     0.00000   22.00901   33.19112    7.19479
     382      444        3     0.00000   24.89387   31.31502   16.91444
     383      444        3     0.00000   27.96105   29.54418   11.90575
     384      444        3     0.00000   19.12414   34.85669   11.90575
     385      444        3     0.00000   16.05696   29.54418   11.90575
     386      444        3     0.00000   18.94183   27.87861    7.19479
     387      444        3     0.00000   22.00901   26.31829   16.91444
     388      444        3     0.00000   25.07618   24.54746   11.90575
     389      444        3     0.00000   17.74465   24.43726   11.27775
     390      444        3     0.00000   26.90962   26.75770    6.17302
     391      444        3     0.00000   18.76422   22.25449   12.67383
     392      444        3     0.00000   24.50950   28.14341    5.90416
     393      444        3     0.00000   22.06302   32.56796    5.90416
     394      444        3     0.00000   17.05437   26.85126    6.17302
     395      444        3     0.00000   28.65506   28.56250   11.27775
     396      444        3     0.00000   26.96364   23.24167   11.27775
     397      444        3     0.00000   15.36295   30.53685   12.67383
     398      444        3     0.00000   19.45449   28.23697    5.90416
     399      444        3     0.00000   22.06302   26.86811   18.15321
     400      444        3     0.00000   24.56352   23.45009   12.67383
     401      444        3     0.00000   22.06302   24.89375   16.75713
     402      444        3     0.00000   15.36295   28.56250   11.27775
     403      444        3     0.00000   22.06302   34.54231    7.30024
     404      444        3     0.00000   28.65506   30.53685   12.67383
     405      444        3     0.00000   17.05437   23.24167   11.27775
     406      444        3     0.00000   17.74465   27.24979    7.30024
     407      444        3     0.00000   26.21935   27.15623    7.30024
     408      444        3     0.00000   25.25379   22.25449   12.67383
     409      444        3     0.00000   25.19978   27.74488    4.77694
     410      444        3     0.00000   18.76422   27.83844    4.77694
     411      444        3     0.00000   19.45449   23.45009   12.67383