Created on Wed Jul 27 03:45:17 2022

3402 atoms
7 atom types

0.000000  44.018010 xlo xhi
0.000000  38.120715 ylo yhi
0.000000  35.940555 zlo zhi
22.009005  22.009005  12.706905 xy xz yz

Masses

    1    91.224000000 # Zr3+4
    2     1.007940000 # H_
    3    12.010700000 # C_R
    4    15.999400000 # O_3
    5    15.999400000 # O_R
    6    15.999400000 # O_2
    7    16.04        # CH4

Atoms

       1      444        1     0.00000   14.67267   14.91289   10.54501
       2      444        1     0.00000   14.67267    2.02965    1.43518
       3      444        1     0.00000    9.09406    5.25046   10.54501
       4      444        1     0.00000    9.09406   11.69208    1.43518
       5      444        1     0.00000   20.25128    5.25046   10.54501
       6      444        1     0.00000   20.25128   11.69208    1.43518
       7      444        2     0.00000    7.33634    9.50830    1.13088
       8      444        2     0.00000   11.90259    1.59930    1.13088
       9      444        2     0.00000    2.77008    1.59930    1.13088
      10      444        2     0.00000    7.33634    4.23563    8.58755
      11      444        2     0.00000   14.66502   15.28899   18.24723
      12      444        2     0.00000    8.60097   15.08618   10.67691
      13      444        2     0.00000   14.66502   18.80661    5.86200
      14      444        2     0.00000   20.74437   18.57955   13.14709
      15      444        2     0.00000   11.79753    8.67096   13.13460
      16      444        2     0.00000   13.06216   16.00388    5.86200
      17      444        2     0.00000   16.29083   16.01713    5.86200
      18      444        2     0.00000   17.55546    8.67538   13.14709
      19      444        2     0.00000   20.58081   13.54031    6.26705
      20      444        2     0.00000    8.77218   13.52706    6.26705
      21      444        2     0.00000   10.03681   12.60806   10.66442
      22      444        2     0.00000   19.31618   12.61247   10.67691
      23      444        3     0.00000   11.60549   11.84055   11.90575
      24      444        3     0.00000   11.78781   18.60812   16.91444
      25      444        3     0.00000   17.55753   22.14979   11.90575
      26      444        3     0.00000   17.73985   15.17170    7.19479
      27      444        3     0.00000   14.67267   20.48421    7.19479
      28      444        3     0.00000   17.55753   18.60812   16.91444
      29      444        3     0.00000   20.62471   16.83728   11.90575
      30      444        3     0.00000   11.78781   22.14979   11.90575
      31      444        3     0.00000    8.72063   16.83728   11.90575
      32      444        3     0.00000   11.60549   15.17170    7.19479
      33      444        3     0.00000   14.67267   13.61139   16.91444
      34      444        3     0.00000   17.73985   11.84055   11.90575
      35      444        3     0.00000   12.11795   10.74330   12.59637
      36      444        3     0.00000   17.92676   15.07429    4.80287
      37      444        3     0.00000    9.71783   10.53488   11.20029
      38      444        3     0.00000   18.94633   14.48565    7.32617
      39      444        3     0.00000   14.66357   21.87208    7.32617
      40      444        3     0.00000   11.42768   15.05854    4.80287
      41      444        3     0.00000   21.31873   15.84485   11.21514
      42      444        3     0.00000   19.63660   10.54014   11.21514
      43      444        3     0.00000    8.02661   17.81921   12.61122
      44      444        3     0.00000   10.40811   14.46989    7.32617
      45      444        3     0.00000   14.66357   12.22352   16.78306
      46      444        3     0.00000   17.23648   10.74855   12.61122
      47      444        3     0.00000   14.66357   14.19787   18.17914
      48      444        3     0.00000    8.02661   15.84485   11.21514
      49      444        3     0.00000   14.66357   19.89773    5.93009
      50      444        3     0.00000   21.31873   17.81921   12.61122
      51      444        3     0.00000   11.42768    9.54771   12.59637
      52      444        3     0.00000   12.11795   15.45707    5.93009
      53      444        3     0.00000   17.23648   15.47283    5.93009
      54      444        3     0.00000   17.92676    9.55296   12.61122
      55      444        3     0.00000   19.63660   14.08712    6.19895
      56      444        3     0.00000    9.71783   14.07136    6.19895
      57      444        3     0.00000   10.40811   11.73048   11.20029
      58      444        3     0.00000   18.94633   11.73573   11.21514
      59      444        3     0.00000   16.96795   15.61736    8.37750
      60      444        3     0.00000   16.84916   20.84950   11.93169
      61      444        3     0.00000   12.49618   18.19913   15.67986
      62      444        3     0.00000   12.37739   13.10417   11.93169
      63      444        3     0.00000   19.14444   16.87395   11.93169
      64      444        3     0.00000   16.96795   13.10417   11.93169
      65      444        3     0.00000   14.67267   19.59290    8.37750
      66      444        3     0.00000   12.37739   15.61736    8.37750
      67      444        3     0.00000   14.67267   14.42935   15.67986
      68      444        3     0.00000   12.49618   20.84950   11.93169
      69      444        3     0.00000   10.20090   16.87395   11.93169
      70      444        3     0.00000   16.84916   18.19913   15.67986
      71      444        4     0.00000    7.33634    4.23564    9.56110
      72      444        4     0.00000    1.97518    1.14037    0.80636
      73      444        4     0.00000   12.69749    1.14037    0.80636
      74      444        4     0.00000    7.33634   10.42617    0.80636
      75      444        5     0.00000   13.26027   13.27390   11.02306
      76      444        5     0.00000   13.33607   19.02404   15.18186
      77      444        5     0.00000   16.00927   20.65494   12.87542
      78      444        5     0.00000   16.08507   14.81728    8.84040
      79      444        5     0.00000   15.80700   19.22834    8.84040
      80      444        5     0.00000   17.14360   17.05932   15.18186
      81      444        5     0.00000   18.55600   17.55369   11.02306
      82      444        5     0.00000   12.20174   20.00003   11.02306
      83      444        5     0.00000   10.78934   16.24387   12.87542
      84      444        5     0.00000   12.12594   16.78200    8.84040
      85      444        5     0.00000   13.53834   14.74426   15.18186
      86      444        5     0.00000   17.21940   13.92881   12.87542
      87      444        5     0.00000   15.80700   14.74426   15.18186
      88      444        5     0.00000   10.78934   17.55369   11.02306
      89      444        5     0.00000   13.53834   19.22834    8.84040
      90      444        5     0.00000   18.55600   16.24387   12.87542
      91      444        5     0.00000   17.14360   20.00003   11.02306
      92      444        5     0.00000   13.26027   14.81728    8.84040
      93      444        5     0.00000   17.21940   16.78200    8.84040
      94      444        5     0.00000   13.33607   20.65494   12.87542
      95      444        5     0.00000   12.20174   17.05932   15.18186
      96      444        5     0.00000   16.00927   19.02404   15.18186
      97      444        5     0.00000   12.12594   13.92881   12.87542
      98      444        5     0.00000   16.08507   13.27390   11.02306
      99      444        6     0.00000   22.00900   12.70690    1.81205
     100      444        6     0.00000   27.86581   16.08833   11.37617
     101      444        6     0.00000   16.15220   16.08833   11.37617
     102      444        6     0.00000   22.00901    5.94405   11.37617
     103      444        4     0.00000   13.29440   10.83949   13.27188
     104      444        2     0.00000   13.36411    9.88269   13.64681
     105      444        4     0.00000    8.55029   10.43355   10.51024
     106      444        2     0.00000    8.48551   11.38751   10.12725
     107      444        4     0.00000   17.43074   15.37095    3.57179
     108      444        2     0.00000   16.57221   15.87233    3.84094
     109      444        4     0.00000   19.45125   14.20441    8.55725
     110      444        2     0.00000   20.31472   13.71158    8.28811
     111      444        4     0.00000   14.65467   22.44997    8.55725
     112      444        2     0.00000   14.64973   23.44418    8.28811
     113      444        4     0.00000   14.65467   11.64563   15.55198
     114      444        2     0.00000   14.64973   10.65142   15.82112
     115      444        4     0.00000   11.93260   15.33978    3.57179
     116      444        2     0.00000   12.79607   15.83260    3.84094
     117      444        4     0.00000    9.91209   14.17324    8.55725
     118      444        2     0.00000    9.05356   13.67186    8.28811
     119      444        4     0.00000   20.64720   14.87411   10.53963
     120      444        2     0.00000   21.44096   14.33534   10.16470
     121      444        4     0.00000    8.69814   18.77967   13.30127
     122      444        2     0.00000    7.90438   19.31274   13.68426
     123      444        4     0.00000   20.81305   10.44394   10.53963
     124      444        2     0.00000   20.88276   11.40075   10.16470
     125      444        4     0.00000   16.06894   10.84988   13.30127
     126      444        2     0.00000   16.00416    9.89593   13.68426
     127      444        1     0.00000   22.00901   19.14853   22.52519
     128      444        1     0.00000   22.00900    6.26528   13.41536
     129      444        1     0.00000   16.43039    9.48609   22.52519
     130      444        1     0.00000   16.43039   15.92772   13.41536
     131      444        1     0.00000   27.58762    9.48609   22.52519
     132      444        1     0.00000   27.58762   15.92772   13.41536
     133      444        2     0.00000   14.67267   13.74393   13.11106
     134      444        2     0.00000   19.23893    5.83494   13.11106
     135      444        2     0.00000   10.10641    5.83494   13.11106
     136      444        2     0.00000   14.67267    8.47127   20.56773
     137      444        2     0.00000   22.00136   19.52462   30.22742
     138      444        2     0.00000   15.93730   19.32181   22.65709
     139      444        2     0.00000   22.00136   23.04225   17.84218
     140      444        2     0.00000   28.08071   22.81518   25.12728
     141      444        2     0.00000   19.13386   12.90660   25.11479
     142      444        2     0.00000   20.39849   20.23951   17.84218
     143      444        2     0.00000   23.62717   20.25276   17.84218
     144      444        2     0.00000   24.89180   12.91101   25.12728
     145      444        2     0.00000   27.91714   17.77594   18.24723
     146      444        2     0.00000   16.10851   17.76269   18.24723
     147      444        2     0.00000   17.37315   16.84369   22.64460
     148      444        2     0.00000   26.65251   16.84811   22.65709
     149      444        3     0.00000   18.94183   16.07619   23.88594
     150      444        3     0.00000   19.12414   22.84375   28.89462
     151      444        3     0.00000   24.89387   26.38542   23.88594
     152      444        3     0.00000   25.07618   19.40734   19.17498
     153      444        3     0.00000   22.00900   24.71985   19.17498
     154      444        3     0.00000   24.89387   22.84375   28.89462
     155      444        3     0.00000   27.96105   21.07292   23.88594
     156      444        3     0.00000   19.12414   26.38542   23.88594
     157      444        3     0.00000   16.05696   21.07292   23.88594
     158      444        3     0.00000   18.94183   19.40734   19.17498
     159      444        3     0.00000   22.00901   17.84702   28.89462
     160      444        3     0.00000   25.07618   16.07619   23.88594
     161      444        3     0.00000   19.45429   14.97893   24.57655
     162      444        3     0.00000   25.26310   19.30993   16.78306
     163      444        3     0.00000   17.05417   14.77052   23.18047
     164      444        3     0.00000   26.28266   18.72128   19.30636
     165      444        3     0.00000   21.99991   26.10772   19.30636
     166      444        3     0.00000   18.76401   19.29417   16.78306
     167      444        3     0.00000   28.65506   20.08048   23.19533
     168      444        3     0.00000   26.97294   14.77577   23.19533
     169      444        3     0.00000   15.36295   22.05484   24.59141
     170      444        3     0.00000   17.74445   18.70553   19.30636
     171      444        3     0.00000   21.99991   16.45915   28.76324
     172      444        3     0.00000   24.57282   14.98419   24.59141
     173      444        3     0.00000   21.99991   18.43351   30.15932
     174      444        3     0.00000   15.36295   20.08048   23.19533
     175      444        3     0.00000   21.99991   24.13336   17.91028
     176      444        3     0.00000   28.65506   22.05484   24.59141
     177      444        3     0.00000   18.76401   13.78334   24.57655
     178      444        3     0.00000   19.45429   19.69270   17.91028
     179      444        3     0.00000   24.57282   19.70846   17.91028
     180      444        3     0.00000   25.26310   13.78859   24.59141
     181      444        3     0.00000   26.97294   18.32275   18.17914
     182      444        3     0.00000   17.05417   18.30699   18.17914
     183      444        3     0.00000   17.74445   15.96611   23.18047
     184      444        3     0.00000   26.28266   15.97136   23.19533
     185      444        3     0.00000   24.30429   19.85299   20.35769
     186      444        3     0.00000   24.18549   25.08513   23.91187
     187      444        3     0.00000   19.83252   22.43477   27.66005
     188      444        3     0.00000   19.71372   17.33980   23.91187
     189      444        3     0.00000   26.48077   21.10959   23.91187
     190      444        3     0.00000   24.30429   17.33980   23.91187
     191      444        3     0.00000   22.00900   23.82854   20.35769
     192      444        3     0.00000   19.71372   19.85299   20.35769
     193      444        3     0.00000   22.00901   18.66499   27.66005
     194      444        3     0.00000   19.83252   25.08513   23.91187
     195      444        3     0.00000   17.53724   21.10959   23.91187
     196      444        3     0.00000   24.18549   22.43477   27.66005
     197      444        4     0.00000   14.67267    8.47127   21.54128
     198      444        4     0.00000    9.31151    5.37600   12.78655
     199      444        4     0.00000   20.03383    5.37600   12.78655
     200      444        4     0.00000   14.67267   14.66180   12.78655
     201      444        5     0.00000   20.59661   17.50954   23.00324
     202      444        5     0.00000   20.67241   23.25968   27.16204
     203      444        5     0.00000   23.34560   24.89057   24.85561
     204      444        5     0.00000   23.42140   19.05291   20.82059
     205      444        5     0.00000   23.14334   23.46398   20.82059
     206      444        5     0.00000   24.47994   21.29495   27.16204
     207      444        5     0.00000   25.89234   21.78932   23.00324
     208      444        5     0.00000   19.53807   24.23567   23.00324
     209      444        5     0.00000   18.12567   20.47950   24.85561
     210      444        5     0.00000   19.46227   21.01764   20.82059
     211      444        5     0.00000   20.87467   18.97989   27.16204
     212      444        5     0.00000   24.55574   18.16445   24.85561
     213      444        5     0.00000   23.14334   18.97989   27.16204
     214      444        5     0.00000   18.12567   21.78932   23.00324
     215      444        5     0.00000   20.87467   23.46398   20.82059
     216      444        5     0.00000   25.89234   20.47950   24.85561
     217      444        5     0.00000   24.47994   24.23567   23.00324
     218      444        5     0.00000   20.59661   19.05291   20.82059
     219      444        5     0.00000   24.55574   21.01764   20.82059
     220      444        5     0.00000   20.67241   24.89057   24.85561
     221      444        5     0.00000   19.53807   21.29495   27.16204
     222      444        5     0.00000   23.34560   23.25968   27.16204
     223      444        5     0.00000   19.46227   18.16445   24.85561
     224      444        5     0.00000   23.42140   17.50954   23.00324
     225      444        6     0.00000   29.34534   16.94254   13.79223
     226      444        6     0.00000   35.20214   20.32397   23.35635
     227      444        6     0.00000   23.48854   20.32397   23.35635
     228      444        6     0.00000   29.34534   10.17969   23.35635
     229      444        4     0.00000   20.63073   15.07512   25.25207
     230      444        2     0.00000   20.70045   14.11832   25.62699
     231      444        4     0.00000   15.88662   14.66919   22.49042
     232      444        2     0.00000   15.82185   15.62314   22.10743
     233      444        4     0.00000   24.76708   19.60658   15.55198
     234      444        2     0.00000   23.90854   20.10796   15.82112
     235      444        4     0.00000   26.78758   18.44004   20.53744
     236      444        2     0.00000   27.65105   17.94722   20.26829
     237      444        4     0.00000   21.99101   26.68561   20.53744
     238      444        2     0.00000   21.98607   27.67981   20.26829
     239      444        4     0.00000   21.99101   15.88126   27.53216
     240      444        2     0.00000   21.98607   14.88706   27.80131
     241      444        4     0.00000   19.26893   19.57541   15.55198
     242      444        2     0.00000   20.13240   20.06824   15.82112
     243      444        4     0.00000   17.24843   18.40887   20.53744
     244      444        2     0.00000   16.38989   17.90749   20.26829
     245      444        4     0.00000   27.98354   19.10975   22.51981
     246      444        2     0.00000   28.77730   18.57097   22.14489
     247      444        4     0.00000   16.03447   23.01530   25.28146
     248      444        2     0.00000   15.24071   23.54838   25.66444
     249      444        4     0.00000   28.14939   14.67958   22.51981
     250      444        2     0.00000   28.21910   15.63638   22.14489
     251      444        4     0.00000   23.40527   15.08552   25.28146
     252      444        2     0.00000   23.34050   14.13156   25.66444
     253      444        1     0.00000   29.34534   23.38416   34.50538
     254      444        1     0.00000   29.34534   10.50092   25.39555
     255      444        1     0.00000   23.76673   13.72173   34.50538
     256      444        1     0.00000   23.76673   20.16335   25.39555
     257      444        1     0.00000   34.92395   13.72173   34.50538
     258      444        1     0.00000   34.92395   20.16335   25.39555
     259      444        2     0.00000   22.00901   17.97957   25.09125
     260      444        2     0.00000   26.57526   10.07057   25.09125
     261      444        2     0.00000   17.44275   10.07057   25.09125
     262      444        2     0.00000   22.00901   12.70690   32.54792
     263      444        2     0.00000   29.33769   23.76026   42.20760
     264      444        2     0.00000   23.27364   23.55745   34.63728
     265      444        2     0.00000   29.33769   27.27788   29.82237
     266      444        2     0.00000   35.41704   27.05082   37.10746
     267      444        2     0.00000   26.47020   17.14223   37.09497
     268      444        2     0.00000   27.73483   24.47515   29.82237
     269      444        2     0.00000   30.96350   24.48840   29.82237
     270      444        2     0.00000   32.22813   17.14665   37.10746
     271      444        2     0.00000   35.25348   22.01158   30.22742
     272      444        2     0.00000   23.44485   21.99833   30.22742
     273      444        2     0.00000   24.70948   21.07933   34.62479
     274      444        2     0.00000   33.98885   21.08374   34.63728
     275      444        3     0.00000   26.27816   20.31182   35.86612
     276      444        3     0.00000   26.46048   27.07939   40.87481
     277      444        3     0.00000   32.23020   30.62106   35.86612
     278      444        3     0.00000   32.41252   23.64297   31.15516
     279      444        3     0.00000   29.34534   28.95548   31.15516
     280      444        3     0.00000   32.23020   27.07939   40.87481
     281      444        3     0.00000   35.29738   25.30855   35.86612
     282      444        3     0.00000   26.46048   30.62106   35.86612
     283      444        3     0.00000   23.39330   25.30855   35.86612
     284      444        3     0.00000   26.27816   23.64297   31.15516
     285      444        3     0.00000   29.34534   22.08266   40.87481
     286      444        3     0.00000   32.41252   20.31182   35.86612
     287      444        3     0.00000   26.79062   19.21457   36.55674
     288      444        3     0.00000   32.59943   23.54556   28.76324
     289      444        3     0.00000   24.39050   19.00615   35.16066
     290      444        3     0.00000   33.61900   22.95692   31.28654
     291      444        3     0.00000   29.33624   30.34335   31.28654
     292      444        3     0.00000   26.10035   23.52981   28.76324
     293      444        3     0.00000   35.99140   24.31612   35.17551
     294      444        3     0.00000   34.30927   19.01141   35.17551
     295      444        3     0.00000   22.69928   26.29048   36.57159
     296      444        3     0.00000   25.08078   22.94116   31.28654
     297      444        3     0.00000   29.33624   20.69479   40.74343
     298      444        3     0.00000   31.90915   19.21982   36.57159
     299      444        3     0.00000   29.33624   22.66914   42.13951
     300      444        3     0.00000   22.69928   24.31612   35.17551
     301      444        3     0.00000   29.33624   28.36900   29.89046
     302      444        3     0.00000   35.99140   26.29048   36.57159
     303      444        3     0.00000   26.10035   18.01898   36.55674
     304      444        3     0.00000   26.79062   23.92834   29.89046
     305      444        3     0.00000   31.90915   23.94410   29.89046
     306      444        3     0.00000   32.59943   18.02423   36.57159
     307      444        3     0.00000   34.30927   22.55839   30.15932
     308      444        3     0.00000   24.39050   22.54263   30.15932
     309      444        3     0.00000   25.08078   20.20175   35.16066
     310      444        3     0.00000   33.61900   20.20700   35.17551
     311      444        3     0.00000   31.64062   24.08863   32.33787
     312      444        3     0.00000   31.52183   29.32077   35.89206
     313      444        3     0.00000   27.16885   26.67040   39.64023
     314      444        3     0.00000   27.05006   21.57544   35.89206
     315      444        3     0.00000   33.81711   25.34522   35.89206
     316      444        3     0.00000   31.64062   21.57544   35.89206
     317      444        3     0.00000   29.34534   28.06417   32.33787
     318      444        3     0.00000   27.05006   24.08863   32.33787
     319      444        3     0.00000   29.34534   22.90062   39.64023
     320      444        3     0.00000   27.16885   29.32077   35.89206
     321      444        3     0.00000   24.87357   25.34522   35.89206
     322      444        3     0.00000   31.52183   26.67040   39.64023
     323      444        4     0.00000   22.00901   12.70691   33.52147
     324      444        4     0.00000   16.64785    9.61164   24.76673
     325      444        4     0.00000   27.37016    9.61164   24.76673
     326      444        4     0.00000   22.00901   18.89744   24.76673
     327      444        5     0.00000   27.93294   21.74517   34.98343
     328      444        5     0.00000   28.00874   27.49531   39.14223
     329      444        5     0.00000   30.68194   29.12621   36.83579
     330      444        5     0.00000   30.75774   23.28855   32.80077
     331      444        5     0.00000   30.47967   27.69961   32.80077
     332      444        5     0.00000   31.81627   25.53059   39.14223
     333      444        5     0.00000   33.22867   26.02496   34.98343
     334      444        5     0.00000   26.87441   28.47130   34.98343
     335      444        5     0.00000   25.46201   24.71514   36.83579
     336      444        5     0.00000   26.79861   25.25327   32.80077
     337      444        5     0.00000   28.21101   23.21553   39.14223
     338      444        5     0.00000   31.89207   22.40008   36.83579
     339      444        5     0.00000   30.47967   23.21553   39.14223
     340      444        5     0.00000   25.46201   26.02496   34.98343
     341      444        5     0.00000   28.21101   27.69961   32.80077
     342      444        5     0.00000   33.22867   24.71514   36.83579
     343      444        5     0.00000   31.81627   28.47130   34.98343
     344      444        5     0.00000   27.93294   23.28855   32.80077
     345      444        5     0.00000   31.89207   25.25327   32.80077
     346      444        5     0.00000   28.00874   29.12621   36.83579
     347      444        5     0.00000   26.87441   25.53059   39.14223
     348      444        5     0.00000   30.68194   27.49531   39.14223
     349      444        5     0.00000   26.79861   22.40008   36.83579
     350      444        5     0.00000   30.75774   21.74517   34.98343
     351      444        6     0.00000   36.68167   21.17817   25.77242
     352      444        6     0.00000   42.53848   24.55960   35.33654
     353      444        6     0.00000   30.82487   24.55960   35.33654
     354      444        6     0.00000   36.68168   14.41532   35.33654
     355      444        4     0.00000   27.96707   19.31076   37.23225
     356      444        2     0.00000   28.03678   18.35396   37.60718
     357      444        4     0.00000   23.22296   18.90482   34.47061
     358      444        2     0.00000   23.15818   19.85878   34.08762
     359      444        4     0.00000   32.10341   23.84222   27.53216
     360      444        2     0.00000   31.24488   24.34360   27.80131
     361      444        4     0.00000   34.12392   22.67568   32.51762
     362      444        2     0.00000   34.98739   22.18285   32.24848
     363      444        4     0.00000   29.32734   30.92124   32.51762
     364      444        2     0.00000   29.32240   31.91545   32.24848
     365      444        4     0.00000   29.32734   20.11690   39.51235
     366      444        2     0.00000   29.32240   19.12269   39.78149
     367      444        4     0.00000   26.60527   23.81105   27.53216
     368      444        2     0.00000   27.46874   24.30387   27.80131
     369      444        4     0.00000   24.58476   22.64451   32.51762
     370      444        2     0.00000   23.72623   22.14313   32.24848
     371      444        4     0.00000   35.31987   23.34538   34.50000
     372      444        2     0.00000   36.11363   22.80661   34.12507
     373      444        4     0.00000   23.37081   27.25094   37.26164
     374      444        2     0.00000   22.57705   27.78401   37.64463
     375      444        4     0.00000   35.48572   18.91521   34.50000
     376      444        2     0.00000   35.55543   19.87202   34.12507
     377      444        4     0.00000   30.74161   19.32115   37.26164
     378      444        2     0.00000   30.67683   18.36720   37.64463
     379      444        1     0.00000   22.00901   27.61980   10.54501
     380      444        1     0.00000   22.00900   14.73655    1.43518
     381      444        1     0.00000   16.43039   17.95736   10.54501
     382      444        1     0.00000   16.43039   24.39899    1.43518
     383      444        1     0.00000   27.58762   17.95736   10.54501
     384      444        1     0.00000   27.58762   24.39899    1.43518
     385      444        2     0.00000   14.67267   22.21520    1.13088
     386      444        2     0.00000   19.23893   14.30621    1.13088
     387      444        2     0.00000   10.10641   14.30621    1.13088
     388      444        2     0.00000   14.67267   16.94254    8.58755
     389      444        2     0.00000   22.00136   27.99589   18.24723
     390      444        2     0.00000   15.93730   27.79308   10.67691
     391      444        2     0.00000   22.00136   31.51352    5.86200
     392      444        2     0.00000   28.08071   31.28645   13.14709
     393      444        2     0.00000   19.13386   21.37787   13.13460
     394      444        2     0.00000   20.39849   28.71078    5.86200
     395      444        2     0.00000   23.62717   28.72403    5.86200
     396      444        2     0.00000   24.89180   21.38228   13.14709
     397      444        2     0.00000   27.91714   26.24721    6.26705
     398      444        2     0.00000   16.10851   26.23396    6.26705
     399      444        2     0.00000   17.37315   25.31496   10.66442
     400      444        2     0.00000   26.65251   25.31938   10.67691
     401      444        3     0.00000   18.94183   24.54746   11.90575
     402      444        3     0.00000   19.12414   31.31502   16.91444
     403      444        3     0.00000   24.89387   34.85669   11.90575
     404      444        3     0.00000   25.07618   27.87861    7.19479
     405      444        3     0.00000   22.00900   33.19112    7.19479
     406      444        3     0.00000   24.89387   31.31502   16.91444
     407      444        3     0.00000   27.96105   29.54418   11.90575
     408      444        3     0.00000   19.12414   34.85669   11.90575
     409      444        3     0.00000   16.05696   29.54418   11.90575
     410      444        3     0.00000   18.94183   27.87861    7.19479
     411      444        3     0.00000   22.00901   26.31829   16.91444