Created on Fri Aug 26 10:03:39 2022

3564 atoms
8 atom types

0.000000  44.018010 xlo xhi
0.000000  38.120715 ylo yhi
0.000000  35.940555 zlo zhi
22.009005  22.009005  12.706905 xy xz yz

Masses

    1    91.224000000 # Zr3+4
    2     1.007940000 # H_
    3    12.010700000 # C_R
    4    15.999400000 # O_3
    5    15.999400000 # O_R
    6    15.999400000 # O_2
    7    12.010700000 # C_2
    8    16.04        # CH4

Atoms

       1      444        1     0.00000   14.67267   14.91289   10.54501
       2      444        1     0.00000   14.67267    2.02965    1.43518
       3      444        1     0.00000    9.09406    5.25046   10.54501
       4      444        1     0.00000    9.09406   11.69208    1.43518
       5      444        1     0.00000   20.25128    5.25046   10.54501
       6      444        1     0.00000   20.25128   11.69208    1.43518
       7      444        2     0.00000    7.33634    9.50830    1.13088
       8      444        2     0.00000   11.90259    1.59930    1.13088
       9      444        2     0.00000    2.77008    1.59930    1.13088
      10      444        2     0.00000    7.33634    4.23563    8.58755
      11      444        2     0.00000    9.51184    9.99060    9.95959
      12      444        2     0.00000   19.64511   15.31444    8.16450
      13      444        2     0.00000    8.60097   18.96680   12.10965
      14      444        2     0.00000   10.77647   13.45033    8.16450
      15      444        2     0.00000   15.74892   15.05185   18.07955
      16      444        2     0.00000   18.56887   12.18101    9.95959
      17      444        2     0.00000   13.60967   12.02650   15.94031
      18      444        2     0.00000    8.60097   14.70636   11.71709
      19      444        2     0.00000   15.74892   22.06285    8.16450
      20      444        2     0.00000   20.74437   18.96680   12.10965
      21      444        2     0.00000   11.06225    9.09548   13.84552
      22      444        2     0.00000   12.32688   16.81564    6.02526
      23      444        2     0.00000   15.95546   14.97448    6.02526
      24      444        2     0.00000   19.83350    9.99060    9.95959
      25      444        2     0.00000   20.90974   14.58431    6.09937
      26      444        2     0.00000    9.51184   12.72019    6.09937
      27      444        2     0.00000   10.77647   12.18101    9.95959
      28      444        2     0.00000   17.01846   11.28588   13.84552
      29      444        3     0.00000   11.60549   11.84055   11.90575
      30      444        3     0.00000   11.78781   18.60812   16.91444
      31      444        3     0.00000   17.55753   22.14979   11.90575
      32      444        3     0.00000   17.73985   15.17170    7.19479
      33      444        3     0.00000   14.67267   20.48421    7.19479
      34      444        3     0.00000   17.55753   18.60812   16.91444
      35      444        3     0.00000   20.62471   16.83728   11.90575
      36      444        3     0.00000   11.78781   22.14979   11.90575
      37      444        3     0.00000    8.72063   16.83728   11.90575
      38      444        3     0.00000   11.60549   15.17170    7.19479
      39      444        3     0.00000   14.67267   13.61139   16.91444
      40      444        3     0.00000   17.73985   11.84055   11.90575
      41      444        3     0.00000   11.70376   10.98243   13.00006
      42      444        3     0.00000   17.73521   14.48544    4.89377
      43      444        3     0.00000   10.13724   10.29274   10.80384
      44      444        3     0.00000   19.13022   15.07611    7.23003
      45      444        3     0.00000   14.07603   20.02627    6.02098
      46      444        3     0.00000   11.01349   15.51885    4.89377
      47      444        3     0.00000   21.31873   15.63250   11.80388
      48      444        3     0.00000   18.33185    9.78684   13.00006
      49      444        3     0.00000    8.02661   18.04039   12.02575
      50      444        3     0.00000   10.82752   14.01540    7.23003
      51      444        3     0.00000   15.28507   14.06190   18.08299
      52      444        3     0.00000   18.51782   11.48833   10.80384
      53      444        3     0.00000   14.07603   12.35206   16.87395
      54      444        3     0.00000    8.02661   15.63250   11.80388
      55      444        3     0.00000   15.28507   21.73611    7.23003
      56      444        3     0.00000   21.31873   18.04039   12.02575
      57      444        3     0.00000   11.01349    9.78684   13.00006
      58      444        3     0.00000   11.70376   15.91738    6.02098
      59      444        3     0.00000   17.04494   14.88397    6.02098
      60      444        3     0.00000   19.20810   10.29274   10.80384
      61      444        3     0.00000   19.82050   14.67758    6.10281
      62      444        3     0.00000   10.13724   13.61687    6.10281
      63      444        3     0.00000   10.82752   11.48833   10.80384
      64      444        3     0.00000   17.64158   10.98243   13.00006
      65      444        3     0.00000   16.96795   15.61736    8.37750
      66      444        3     0.00000   16.84916   20.84950   11.93169
      67      444        3     0.00000   12.49618   18.19913   15.67986
      68      444        3     0.00000   12.37739   13.10417   11.93169
      69      444        3     0.00000   19.14444   16.87395   11.93169
      70      444        3     0.00000   16.96795   13.10417   11.93169
      71      444        3     0.00000   14.67267   19.59290    8.37750
      72      444        3     0.00000   12.37739   15.61736    8.37750
      73      444        3     0.00000   14.67267   14.42935   15.67986
      74      444        3     0.00000   12.49618   20.84950   11.93169
      75      444        3     0.00000   10.20090   16.87395   11.93169
      76      444        3     0.00000   16.84916   18.19913   15.67986
      77      444        4     0.00000    7.33634    4.23564    9.56110
      78      444        4     0.00000    1.97518    1.14037    0.80636
      79      444        4     0.00000   12.69749    1.14037    0.80636
      80      444        4     0.00000    7.33634   10.42617    0.80636
      81      444        5     0.00000   13.26027   13.27390   11.02306
      82      444        5     0.00000   13.33607   19.02404   15.18186
      83      444        5     0.00000   16.00927   20.65494   12.87542
      84      444        5     0.00000   16.08507   14.81728    8.84040
      85      444        5     0.00000   15.80700   19.22834    8.84040
      86      444        5     0.00000   17.14360   17.05932   15.18186
      87      444        5     0.00000   18.55600   17.55369   11.02306
      88      444        5     0.00000   12.20174   20.00003   11.02306
      89      444        5     0.00000   10.78934   16.24387   12.87542
      90      444        5     0.00000   12.12594   16.78200    8.84040
      91      444        5     0.00000   13.53834   14.74426   15.18186
      92      444        5     0.00000   17.21940   13.92881   12.87542
      93      444        5     0.00000   15.80700   14.74426   15.18186
      94      444        5     0.00000   10.78934   17.55369   11.02306
      95      444        5     0.00000   13.53834   19.22834    8.84040
      96      444        5     0.00000   18.55600   16.24387   12.87542
      97      444        5     0.00000   17.14360   20.00003   11.02306
      98      444        5     0.00000   13.26027   14.81728    8.84040
      99      444        5     0.00000   17.21940   16.78200    8.84040
     100      444        5     0.00000   13.33607   20.65494   12.87542
     101      444        5     0.00000   12.20174   17.05932   15.18186
     102      444        5     0.00000   16.00927   19.02404   15.18186
     103      444        5     0.00000   12.12594   13.92881   12.87542
     104      444        5     0.00000   16.08507   13.27390   11.02306
     105      444        6     0.00000   22.00900   12.70690    1.81205
     106      444        6     0.00000   27.86581   16.08833   11.37617
     107      444        6     0.00000   16.15220   16.08833   11.37617
     108      444        6     0.00000   22.00901    5.94405   11.37617
     109      444        7     0.00000   12.54880   11.34408   14.17276
     110      444        6     0.00000   12.66303   10.60248   15.17249
     111      444        6     0.00000   13.19637   12.41172   14.23022
     112      444        2     0.00000   13.23017   10.84520   15.95954
     113      444        7     0.00000   16.98651   14.17940    3.64241
     114      444        6     0.00000   15.74206   14.26848    3.56549
     115      444        6     0.00000   17.55599   13.81444    2.59123
     116      444        2     0.00000   15.23957   14.06309    2.72566
     117      444        7     0.00000   13.43664   18.68135    5.97105
     118      444        6     0.00000   12.89156   18.23474    4.93862
     119      444        6     0.00000   13.40531   17.91551    6.95847
     120      444        2     0.00000   12.46244   17.33212    4.90510
     121      444        7     0.00000   11.12281   16.32027    3.64241
     122      444        6     0.00000   11.82217   17.35345    3.56549
     123      444        6     0.00000   10.52199   16.00956    2.59123
     124      444        2     0.00000   11.89554   17.89131    2.72566
     125      444        7     0.00000   20.58301   14.34142   11.69471
     126      444        6     0.00000   21.16814   13.24075   11.60164
     127      444        6     0.00000   19.33462   14.27816   11.68936
     128      444        2     0.00000   20.67437   12.37425   11.52837
     129      444        7     0.00000   18.22253    8.87419   14.17276
     130      444        6     0.00000   17.52317    9.14606   15.17249
     131      444        6     0.00000   18.82335    7.77956   14.23022
     132      444        2     0.00000   17.44980    8.53355   15.95954
     133      444        1     0.00000   22.00901   19.14853   22.52519
     134      444        1     0.00000   22.00900    6.26528   13.41536
     135      444        1     0.00000   16.43039    9.48609   22.52519
     136      444        1     0.00000   16.43039   15.92772   13.41536
     137      444        1     0.00000   27.58762    9.48609   22.52519
     138      444        1     0.00000   27.58762   15.92772   13.41536
     139      444        2     0.00000   14.67267   13.74393   13.11106
     140      444        2     0.00000   19.23893    5.83494   13.11106
     141      444        2     0.00000   10.10641    5.83494   13.11106
     142      444        2     0.00000   14.67267    8.47127   20.56773
     143      444        2     0.00000   16.84818   14.22624   21.93977
     144      444        2     0.00000   26.98145   19.55008   20.14469
     145      444        2     0.00000   15.93730   23.20243   24.08984
     146      444        2     0.00000   18.11281   17.68596   20.14469
     147      444        2     0.00000   23.08525   19.28749   30.05974
     148      444        2     0.00000   25.90520   16.41665   21.93977
     149      444        2     0.00000   20.94601   16.26214   27.92049
     150      444        2     0.00000   15.93730   18.94199   23.69728
     151      444        2     0.00000   23.08525   26.29849   20.14469
     152      444        2     0.00000   28.08071   23.20243   24.08984
     153      444        2     0.00000   18.39858   13.33111   25.82570
     154      444        2     0.00000   19.66322   21.05128   18.00544
     155      444        2     0.00000   23.29180   19.21011   18.00544
     156      444        2     0.00000   27.16983   14.22624   21.93977
     157      444        2     0.00000   28.24608   18.81994   18.07955
     158      444        2     0.00000   16.84818   16.95583   18.07955
     159      444        2     0.00000   18.11281   16.41665   21.93977
     160      444        2     0.00000   24.35479   15.52152   25.82570
     161      444        3     0.00000   18.94183   16.07619   23.88594
     162      444        3     0.00000   19.12414   22.84375   28.89462
     163      444        3     0.00000   24.89387   26.38542   23.88594
     164      444        3     0.00000   25.07618   19.40734   19.17498
     165      444        3     0.00000   22.00900   24.71985   19.17498
     166      444        3     0.00000   24.89387   22.84375   28.89462
     167      444        3     0.00000   27.96105   21.07292   23.88594
     168      444        3     0.00000   19.12414   26.38542   23.88594
     169      444        3     0.00000   16.05696   21.07292   23.88594
     170      444        3     0.00000   18.94183   19.40734   19.17498
     171      444        3     0.00000   22.00901   17.84702   28.89462
     172      444        3     0.00000   25.07618   16.07619   23.88594
     173      444        3     0.00000   19.04010   15.21807   24.98024
     174      444        3     0.00000   25.07155   18.72107   16.87395
     175      444        3     0.00000   17.47357   14.52837   22.78402
     176      444        3     0.00000   26.46656   19.31174   19.21021
     177      444        3     0.00000   21.41236   24.26190   18.00117
     178      444        3     0.00000   18.34982   19.75449   16.87395
     179      444        3     0.00000   28.65506   19.86814   23.78407
     180      444        3     0.00000   25.66819   14.02247   24.98024
     181      444        3     0.00000   15.36295   22.27602   24.00593
     182      444        3     0.00000   18.16385   18.25104   19.21021
     183      444        3     0.00000   22.62140   18.29754   30.06318
     184      444        3     0.00000   25.85416   15.72397   22.78402
     185      444        3     0.00000   21.41236   16.58770   28.85414
     186      444        3     0.00000   15.36295   19.86814   23.78407
     187      444        3     0.00000   22.62140   25.97175   19.21021
     188      444        3     0.00000   28.65506   22.27602   24.00593
     189      444        3     0.00000   18.34982   14.02247   24.98024
     190      444        3     0.00000   19.04010   20.15302   18.00117
     191      444        3     0.00000   24.38127   19.11960   18.00117
     192      444        3     0.00000   26.54444   14.52837   22.78402
     193      444        3     0.00000   27.15684   18.91321   18.08299
     194      444        3     0.00000   17.47357   17.85250   18.08299
     195      444        3     0.00000   18.16385   15.72397   22.78402
     196      444        3     0.00000   24.97791   15.21807   24.98024
     197      444        3     0.00000   24.30429   19.85299   20.35769
     198      444        3     0.00000   24.18549   25.08513   23.91187
     199      444        3     0.00000   19.83252   22.43477   27.66005
     200      444        3     0.00000   19.71372   17.33980   23.91187
     201      444        3     0.00000   26.48077   21.10959   23.91187
     202      444        3     0.00000   24.30429   17.33980   23.91187
     203      444        3     0.00000   22.00900   23.82854   20.35769
     204      444        3     0.00000   19.71372   19.85299   20.35769
     205      444        3     0.00000   22.00901   18.66499   27.66005
     206      444        3     0.00000   19.83252   25.08513   23.91187
     207      444        3     0.00000   17.53724   21.10959   23.91187
     208      444        3     0.00000   24.18549   22.43477   27.66005
     209      444        4     0.00000   14.67267    8.47127   21.54128
     210      444        4     0.00000    9.31151    5.37600   12.78655
     211      444        4     0.00000   20.03383    5.37600   12.78655
     212      444        4     0.00000   14.67267   14.66180   12.78655
     213      444        5     0.00000   20.59661   17.50954   23.00324
     214      444        5     0.00000   20.67241   23.25968   27.16204
     215      444        5     0.00000   23.34560   24.89057   24.85561
     216      444        5     0.00000   23.42140   19.05291   20.82059
     217      444        5     0.00000   23.14334   23.46398   20.82059
     218      444        5     0.00000   24.47994   21.29495   27.16204
     219      444        5     0.00000   25.89234   21.78932   23.00324
     220      444        5     0.00000   19.53807   24.23567   23.00324
     221      444        5     0.00000   18.12567   20.47950   24.85561
     222      444        5     0.00000   19.46227   21.01764   20.82059
     223      444        5     0.00000   20.87467   18.97989   27.16204
     224      444        5     0.00000   24.55574   18.16445   24.85561
     225      444        5     0.00000   23.14334   18.97989   27.16204
     226      444        5     0.00000   18.12567   21.78932   23.00324
     227      444        5     0.00000   20.87467   23.46398   20.82059
     228      444        5     0.00000   25.89234   20.47950   24.85561
     229      444        5     0.00000   24.47994   24.23567   23.00324
     230      444        5     0.00000   20.59661   19.05291   20.82059
     231      444        5     0.00000   24.55574   21.01764   20.82059
     232      444        5     0.00000   20.67241   24.89057   24.85561
     233      444        5     0.00000   19.53807   21.29495   27.16204
     234      444        5     0.00000   23.34560   23.25968   27.16204
     235      444        5     0.00000   19.46227   18.16445   24.85561
     236      444        5     0.00000   23.42140   17.50954   23.00324
     237      444        6     0.00000   29.34534   16.94254   13.79223
     238      444        6     0.00000   35.20214   20.32397   23.35635
     239      444        6     0.00000   23.48854   20.32397   23.35635
     240      444        6     0.00000   29.34534   10.17969   23.35635
     241      444        7     0.00000   19.88513   15.57972   26.15294
     242      444        6     0.00000   19.99937   14.83811   27.15268
     243      444        6     0.00000   20.53271   16.64735   26.21040
     244      444        2     0.00000   20.56651   15.08083   27.93972
     245      444        7     0.00000   24.32284   18.41504   15.62260
     246      444        6     0.00000   23.07840   18.50412   15.54568
     247      444        6     0.00000   24.89232   18.05007   14.57141
     248      444        2     0.00000   22.57591   18.29872   14.70584
     249      444        7     0.00000   20.77298   22.91699   17.95124
     250      444        6     0.00000   20.22790   22.47038   16.91880
     251      444        6     0.00000   20.74165   22.15115   18.93866
     252      444        2     0.00000   19.79878   21.56775   16.88529
     253      444        7     0.00000   18.45914   20.55590   15.62260
     254      444        6     0.00000   19.15851   21.58909   15.54568
     255      444        6     0.00000   17.85833   20.24520   14.57141
     256      444        2     0.00000   19.23188   22.12695   14.70584
     257      444        7     0.00000   27.91935   18.57705   23.67490
     258      444        6     0.00000   28.50448   17.47639   23.58183
     259      444        6     0.00000   26.67096   18.51379   23.66955
     260      444        2     0.00000   28.01071   16.60989   23.50856
     261      444        7     0.00000   25.55887   13.10982   26.15294
     262      444        6     0.00000   24.85950   13.38170   27.15268
     263      444        6     0.00000   26.15968   12.01519   26.21040
     264      444        2     0.00000   24.78613   12.76918   27.93972
     265      444        1     0.00000   29.34534   23.38416   34.50538
     266      444        1     0.00000   29.34534   10.50092   25.39555
     267      444        1     0.00000   23.76673   13.72173   34.50538
     268      444        1     0.00000   23.76673   20.16335   25.39555
     269      444        1     0.00000   34.92395   13.72173   34.50538
     270      444        1     0.00000   34.92395   20.16335   25.39555
     271      444        2     0.00000   22.00901   17.97957   25.09125
     272      444        2     0.00000   26.57526   10.07057   25.09125
     273      444        2     0.00000   17.44275   10.07057   25.09125
     274      444        2     0.00000   22.00901   12.70690   32.54792
     275      444        2     0.00000   24.18451   18.46187   33.91996
     276      444        2     0.00000   34.31778   23.78571   32.12487
     277      444        2     0.00000   23.27364   27.43807   36.07002
     278      444        2     0.00000   25.44914   21.92160   32.12487
     279      444        2     0.00000   30.42159   23.52312   42.03992
     280      444        2     0.00000   33.24154   20.65228   33.91996
     281      444        2     0.00000   28.28234   20.49777   39.90068
     282      444        2     0.00000   23.27364   23.17763   35.67746
     283      444        2     0.00000   30.42159   30.53412   32.12487
     284      444        2     0.00000   35.41704   27.43807   36.07002
     285      444        2     0.00000   25.73492   17.56675   37.80589
     286      444        2     0.00000   26.99955   25.28691   29.98563
     287      444        2     0.00000   30.62813   23.44575   29.98563
     288      444        2     0.00000   34.50617   18.46187   33.91996
     289      444        2     0.00000   35.58241   23.05558   30.05974
     290      444        2     0.00000   24.18451   21.19146   30.05974
     291      444        2     0.00000   25.44914   20.65228   33.91996
     292      444        2     0.00000   31.69113   19.75715   37.80589
     293      444        3     0.00000   26.27816   20.31182   35.86612
     294      444        3     0.00000   26.46048   27.07939   40.87481
     295      444        3     0.00000   32.23020   30.62106   35.86612
     296      444        3     0.00000   32.41252   23.64297   31.15516
     297      444        3     0.00000   29.34534   28.95548   31.15516
     298      444        3     0.00000   32.23020   27.07939   40.87481
     299      444        3     0.00000   35.29738   25.30855   35.86612
     300      444        3     0.00000   26.46048   30.62106   35.86612
     301      444        3     0.00000   23.39330   25.30855   35.86612
     302      444        3     0.00000   26.27816   23.64297   31.15516
     303      444        3     0.00000   29.34534   22.08266   40.87481
     304      444        3     0.00000   32.41252   20.31182   35.86612
     305      444        3     0.00000   26.37643   19.45370   36.96043
     306      444        3     0.00000   32.40788   22.95671   28.85414
     307      444        3     0.00000   24.80991   18.76401   34.76421
     308      444        3     0.00000   33.80289   23.54738   31.19039
     309      444        3     0.00000   28.74870   28.49754   29.98135
     310      444        3     0.00000   25.68616   23.99012   28.85414
     311      444        3     0.00000   35.99140   24.10377   35.76425
     312      444        3     0.00000   33.00452   18.25811   36.96043
     313      444        3     0.00000   22.69928   26.51166   35.98612
     314      444        3     0.00000   25.50019   22.48667   31.19039
     315      444        3     0.00000   29.95774   22.53317   42.04336
     316      444        3     0.00000   33.19049   19.95960   34.76421
     317      444        3     0.00000   28.74870   20.82333   40.83432
     318      444        3     0.00000   22.69928   24.10377   35.76425
     319      444        3     0.00000   29.95774   30.20738   31.19039
     320      444        3     0.00000   35.99140   26.51166   35.98612
     321      444        3     0.00000   25.68616   18.25811   36.96043
     322      444        3     0.00000   26.37643   24.38865   29.98135
     323      444        3     0.00000   31.71761   23.35524   29.98135
     324      444        3     0.00000   33.88077   18.76401   34.76421
     325      444        3     0.00000   34.49317   23.14885   30.06318
     326      444        3     0.00000   24.80991   22.08814   30.06318
     327      444        3     0.00000   25.50019   19.95960   34.76421
     328      444        3     0.00000   32.31425   19.45370   36.96043
     329      444        3     0.00000   31.64062   24.08863   32.33787
     330      444        3     0.00000   31.52183   29.32077   35.89206
     331      444        3     0.00000   27.16885   26.67040   39.64023
     332      444        3     0.00000   27.05006   21.57544   35.89206
     333      444        3     0.00000   33.81711   25.34522   35.89206
     334      444        3     0.00000   31.64062   21.57544   35.89206
     335      444        3     0.00000   29.34534   28.06417   32.33787
     336      444        3     0.00000   27.05006   24.08863   32.33787
     337      444        3     0.00000   29.34534   22.90062   39.64023
     338      444        3     0.00000   27.16885   29.32077   35.89206
     339      444        3     0.00000   24.87357   25.34522   35.89206
     340      444        3     0.00000   31.52183   26.67040   39.64023
     341      444        4     0.00000   22.00901   12.70691   33.52147
     342      444        4     0.00000   16.64785    9.61164   24.76673
     343      444        4     0.00000   27.37016    9.61164   24.76673
     344      444        4     0.00000   22.00901   18.89744   24.76673
     345      444        5     0.00000   27.93294   21.74517   34.98343
     346      444        5     0.00000   28.00874   27.49531   39.14223
     347      444        5     0.00000   30.68194   29.12621   36.83579
     348      444        5     0.00000   30.75774   23.28855   32.80077
     349      444        5     0.00000   30.47967   27.69961   32.80077
     350      444        5     0.00000   31.81627   25.53059   39.14223
     351      444        5     0.00000   33.22867   26.02496   34.98343
     352      444        5     0.00000   26.87441   28.47130   34.98343
     353      444        5     0.00000   25.46201   24.71514   36.83579
     354      444        5     0.00000   26.79861   25.25327   32.80077
     355      444        5     0.00000   28.21101   23.21553   39.14223
     356      444        5     0.00000   31.89207   22.40008   36.83579
     357      444        5     0.00000   30.47967   23.21553   39.14223
     358      444        5     0.00000   25.46201   26.02496   34.98343
     359      444        5     0.00000   28.21101   27.69961   32.80077
     360      444        5     0.00000   33.22867   24.71514   36.83579
     361      444        5     0.00000   31.81627   28.47130   34.98343
     362      444        5     0.00000   27.93294   23.28855   32.80077
     363      444        5     0.00000   31.89207   25.25327   32.80077
     364      444        5     0.00000   28.00874   29.12621   36.83579
     365      444        5     0.00000   26.87441   25.53059   39.14223
     366      444        5     0.00000   30.68194   27.49531   39.14223
     367      444        5     0.00000   26.79861   22.40008   36.83579
     368      444        5     0.00000   30.75774   21.74517   34.98343
     369      444        6     0.00000   36.68167   21.17817   25.77242
     370      444        6     0.00000   42.53848   24.55960   35.33654
     371      444        6     0.00000   30.82487   24.55960   35.33654
     372      444        6     0.00000   36.68168   14.41532   35.33654
     373      444        7     0.00000   27.22147   19.81535   38.13313
     374      444        6     0.00000   27.33570   19.07375   39.13286
     375      444        6     0.00000   27.86904   20.88299   38.19059
     376      444        2     0.00000   27.90284   19.31647   39.91991
     377      444        7     0.00000   31.65918   22.65067   27.60278
     378      444        6     0.00000   30.41473   22.73975   27.52586
     379      444        6     0.00000   32.22866   22.28571   26.55160
     380      444        2     0.00000   29.91224   22.53436   26.68603
     381      444        7     0.00000   28.10931   27.15262   29.93142
     382      444        6     0.00000   27.56423   26.70601   28.89898
     383      444        6     0.00000   28.07798   26.38678   30.91884
     384      444        2     0.00000   27.13511   25.80339   28.86547
     385      444        7     0.00000   25.79548   24.79154   27.60278
     386      444        6     0.00000   26.49484   25.82472   27.52586
     387      444        6     0.00000   25.19466   24.48083   26.55160
     388      444        2     0.00000   26.56821   26.36258   26.68603
     389      444        7     0.00000   35.25568   22.81269   35.65508
     390      444        6     0.00000   35.84081   21.71202   35.56201
     391      444        6     0.00000   34.00729   22.74943   35.64973
     392      444        2     0.00000   35.34704   20.84552   35.48874
     393      444        7     0.00000   32.89520   17.34546   38.13313
     394      444        6     0.00000   32.19584   17.61733   39.13286
     395      444        6     0.00000   33.49602   16.25083   38.19059
     396      444        2     0.00000   32.12247   17.00482   39.91991
     397      444        1     0.00000   22.00901   27.61980   10.54501
     398      444        1     0.00000   22.00900   14.73655    1.43518
     399      444        1     0.00000   16.43039   17.95736   10.54501
     400      444        1     0.00000   16.43039   24.39899    1.43518
     401      444        1     0.00000   27.58762   17.95736   10.54501
     402      444        1     0.00000   27.58762   24.39899    1.43518
     403      444        2     0.00000   14.67267   22.21520    1.13088
     404      444        2     0.00000   19.23893   14.30621    1.13088
     405      444        2     0.00000   10.10641   14.30621    1.13088
     406      444        2     0.00000   14.67267   16.94254    8.58755
     407      444        2     0.00000   16.84818   22.69751    9.95959
     408      444        2     0.00000   26.98145   28.02135    8.16450
     409      444        2     0.00000   15.93730   31.67370   12.10965
     410      444        2     0.00000   18.11281   26.15723    8.16450