Created on Fri Aug 26 10:03:39 2022

3564 atoms
8 atom types

0.000000  44.018010 xlo xhi
0.000000  38.120715 ylo yhi
0.000000  35.940555 zlo zhi
22.009005  22.009005  12.706905 xy xz yz

Masses

    1    91.224000000 # Zr3+4
    2     1.007940000 # H_
    3    12.010700000 # C_R
    4    15.999400000 # O_3
    5    15.999400000 # O_R
    6    15.999400000 # O_2
    7    12.010700000 # C_2
    8    16.04        # CH4

Atoms

       1      444        1     0.00000   14.67267   14.91289   10.54501
       2      444        1     0.00000   14.67267    2.02965    1.43518
       3      444        1     0.00000    9.09406    5.25046   10.54501
       4      444        1     0.00000    9.09406   11.69208    1.43518
       5      444        1     0.00000   20.25128    5.25046   10.54501
       6      444        1     0.00000   20.25128   11.69208    1.43518
       7      444        2     0.00000    7.33634    9.50830    1.13088
       8      444        2     0.00000   11.90259    1.59930    1.13088
       9      444        2     0.00000    2.77008    1.59930    1.13088
      10      444        2     0.00000    7.33634    4.23563    8.58755
      11      444        2     0.00000   10.45761    9.44457    9.77624
      12      444        2     0.00000   19.47956   16.31094    7.71081
      13      444        2     0.00000    8.60097   18.78345   11.01758
      14      444        2     0.00000   11.72224   13.09545    7.71081
      15      444        2     0.00000   16.52913   14.41023   17.62586
      16      444        2     0.00000   17.62310   11.63497    9.77624
      17      444        2     0.00000   12.82386   12.66355   16.39077
      18      444        2     0.00000    8.60097   14.89752   12.80783
      19      444        2     0.00000   16.52913   21.42123    7.71081
      20      444        2     0.00000   20.74437   18.78345   11.01758
      21      444        2     0.00000   10.11764    9.64084   14.03668
      22      444        2     0.00000   11.38227   17.17766    6.47572
      23      444        2     0.00000   16.11425   13.97542    6.47572
      24      444        2     0.00000   18.88773    9.44457    9.77624
      25      444        2     0.00000   20.74420   15.58080    5.64568
      26      444        2     0.00000   10.45761   12.36531    5.64568
      27      444        2     0.00000   11.72224   11.63497    9.77624
      28      444        2     0.00000   17.96307   11.83125   14.03668
      29      444        3     0.00000   11.60549   11.84055   11.90575
      30      444        3     0.00000   11.78781   18.60812   16.91444
      31      444        3     0.00000   17.55753   22.14979   11.90575
      32      444        3     0.00000   17.73985   15.17170    7.19479
      33      444        3     0.00000   14.67267   20.48421    7.19479
      34      444        3     0.00000   17.55753   18.60812   16.91444
      35      444        3     0.00000   20.62471   16.83728   11.90575
      36      444        3     0.00000   11.78781   22.14979   11.90575
      37      444        3     0.00000    8.72063   16.83728   11.90575
      38      444        3     0.00000   11.60549   15.17170    7.19479
      39      444        3     0.00000   14.67267   13.61139   16.91444
      40      444        3     0.00000   17.73985   11.84055   11.90575
      41      444        3     0.00000   11.17026   11.29045   13.11053
      42      444        3     0.00000   17.82285   13.92000    5.14735
      43      444        3     0.00000   10.67212    9.98393   10.70265
      44      444        3     0.00000   19.03455   15.63850    6.97260
      45      444        3     0.00000   13.63016   20.38488    6.27456
      46      444        3     0.00000   10.47998   15.72568    5.14735
      47      444        3     0.00000   21.31873   15.74298   12.41992
      48      444        3     0.00000   18.86536   10.09486   13.11053
      49      444        3     0.00000    8.02661   17.93920   11.40812
      50      444        3     0.00000   11.36240   13.81706    6.97260
      51      444        3     0.00000   15.72428   13.69785   17.82557
      52      444        3     0.00000   17.98294   11.17952   10.70265
      53      444        3     0.00000   13.63016   12.71067   17.12753
      54      444        3     0.00000    8.02661   15.74298   12.41992
      55      444        3     0.00000   15.72428   21.37206    6.97260
      56      444        3     0.00000   21.31873   17.93920   11.40812
      57      444        3     0.00000   10.47998   10.09486   13.11053
      58      444        3     0.00000   11.17026   16.12421    6.27456
      59      444        3     0.00000   17.13257   14.31853    6.27456
      60      444        3     0.00000   18.67322    9.98393   10.70265
      61      444        3     0.00000   19.72483   15.23997    5.84539
      62      444        3     0.00000   10.67212   13.41853    5.84539
      63      444        3     0.00000   11.36240   11.17952   10.70265
      64      444        3     0.00000   18.17508   11.29045   13.11053
      65      444        3     0.00000   16.96795   15.61736    8.37750
      66      444        3     0.00000   16.84916   20.84950   11.93169
      67      444        3     0.00000   12.49618   18.19913   15.67986
      68      444        3     0.00000   12.37739   13.10417   11.93169
      69      444        3     0.00000   19.14444   16.87395   11.93169
      70      444        3     0.00000   16.96795   13.10417   11.93169
      71      444        3     0.00000   14.67267   19.59290    8.37750
      72      444        3     0.00000   12.37739   15.61736    8.37750
      73      444        3     0.00000   14.67267   14.42935   15.67986
      74      444        3     0.00000   12.49618   20.84950   11.93169
      75      444        3     0.00000   10.20090   16.87395   11.93169
      76      444        3     0.00000   16.84916   18.19913   15.67986
      77      444        4     0.00000    7.33634    4.23564    9.56110
      78      444        4     0.00000    1.97518    1.14037    0.80636
      79      444        4     0.00000   12.69749    1.14037    0.80636
      80      444        4     0.00000    7.33634   10.42617    0.80636
      81      444        5     0.00000   13.26027   13.27390   11.02306
      82      444        5     0.00000   13.33607   19.02404   15.18186
      83      444        5     0.00000   16.00927   20.65494   12.87542
      84      444        5     0.00000   16.08507   14.81728    8.84040
      85      444        5     0.00000   15.80700   19.22834    8.84040
      86      444        5     0.00000   17.14360   17.05932   15.18186
      87      444        5     0.00000   18.55600   17.55369   11.02306
      88      444        5     0.00000   12.20174   20.00003   11.02306
      89      444        5     0.00000   10.78934   16.24387   12.87542
      90      444        5     0.00000   12.12594   16.78200    8.84040
      91      444        5     0.00000   13.53834   14.74426   15.18186
      92      444        5     0.00000   17.21940   13.92881   12.87542
      93      444        5     0.00000   15.80700   14.74426   15.18186
      94      444        5     0.00000   10.78934   17.55369   11.02306
      95      444        5     0.00000   13.53834   19.22834    8.84040
      96      444        5     0.00000   18.55600   16.24387   12.87542
      97      444        5     0.00000   17.14360   20.00003   11.02306
      98      444        5     0.00000   13.26027   14.81728    8.84040
      99      444        5     0.00000   17.21940   16.78200    8.84040
     100      444        5     0.00000   13.33607   20.65494   12.87542
     101      444        5     0.00000   12.20174   17.05932   15.18186
     102      444        5     0.00000   16.00927   19.02404   15.18186
     103      444        5     0.00000   12.12594   13.92881   12.87542
     104      444        5     0.00000   16.08507   13.27390   11.02306
     105      444        6     0.00000   22.00900   12.70690    1.81205
     106      444        6     0.00000   27.86581   16.08833   11.37617
     107      444        6     0.00000   16.15220   16.08833   11.37617
     108      444        6     0.00000   22.00901    5.94405   11.37617
     109      444        7     0.00000   11.44357   11.98219   14.40162
     110      444        6     0.00000   11.07041   11.52198   15.50228
     111      444        6     0.00000   12.06313   13.06599   14.46488
     112      444        2     0.00000   11.25384   11.98623   16.36878
     113      444        7     0.00000   17.16805   13.00801    4.16774
     114      444        6     0.00000   16.00367   12.58051    4.32248
     115      444        6     0.00000   17.74214   12.61336    3.12987
     116      444        2     0.00000   15.56421   11.96844    3.66502
     117      444        7     0.00000   12.51296   19.42427    6.49637
     118      444        6     0.00000   11.56054   19.30528    5.69560
     119      444        6     0.00000   12.45822   18.67726    7.49711
     120      444        2     0.00000   10.81074   18.66058    5.84447
     121      444        7     0.00000   10.01758   16.74874    4.16774
     122      444        6     0.00000   10.22955   17.97088    4.32248
     123      444        6     0.00000    9.38875   16.44890    3.12987
     124      444        2     0.00000    9.91921   18.65750    3.66502
     125      444        7     0.00000   20.58301   14.57028   12.97092
     126      444        6     0.00000   21.16814   13.57054   13.44065
     127      444        6     0.00000   19.33462   14.51282   12.99792
     128      444        2     0.00000   20.67437   12.78350   13.81045
     129      444        7     0.00000   19.32776    9.51229   14.40162
     130      444        6     0.00000   19.11579   10.06556   15.50228
     131      444        6     0.00000   19.95659    8.43383   14.46488
     132      444        2     0.00000   19.42613    9.67458   16.36878
     133      444        1     0.00000   22.00901   19.14853   22.52519
     134      444        1     0.00000   22.00900    6.26528   13.41536
     135      444        1     0.00000   16.43039    9.48609   22.52519
     136      444        1     0.00000   16.43039   15.92772   13.41536
     137      444        1     0.00000   27.58762    9.48609   22.52519
     138      444        1     0.00000   27.58762   15.92772   13.41536
     139      444        2     0.00000   14.67267   13.74393   13.11106
     140      444        2     0.00000   19.23893    5.83494   13.11106
     141      444        2     0.00000   10.10641    5.83494   13.11106
     142      444        2     0.00000   14.67267    8.47127   20.56773
     143      444        2     0.00000   17.79394   13.68020   21.75642
     144      444        2     0.00000   26.81590   20.54657   19.69100
     145      444        2     0.00000   15.93730   23.01908   22.99776
     146      444        2     0.00000   19.05858   17.33108   19.69100
     147      444        2     0.00000   23.86547   18.64587   29.60605
     148      444        2     0.00000   24.95943   15.87061   21.75642
     149      444        2     0.00000   20.16019   16.89918   28.37095
     150      444        2     0.00000   15.93730   19.13315   24.78801
     151      444        2     0.00000   23.86547   25.65687   19.69100
     152      444        2     0.00000   28.08071   23.01908   22.99776
     153      444        2     0.00000   17.45398   13.87648   26.01686
     154      444        2     0.00000   18.71861   21.41329   18.45590
     155      444        2     0.00000   23.45059   18.21105   18.45590
     156      444        2     0.00000   26.22407   13.68020   21.75642
     157      444        2     0.00000   28.08053   19.81644   17.62586
     158      444        2     0.00000   17.79394   16.60095   17.62586
     159      444        2     0.00000   19.05858   15.87061   21.75642
     160      444        2     0.00000   25.29940   16.06689   26.01686
     161      444        3     0.00000   18.94183   16.07619   23.88594
     162      444        3     0.00000   19.12414   22.84375   28.89462
     163      444        3     0.00000   24.89387   26.38542   23.88594
     164      444        3     0.00000   25.07618   19.40734   19.17498
     165      444        3     0.00000   22.00900   24.71985   19.17498
     166      444        3     0.00000   24.89387   22.84375   28.89462
     167      444        3     0.00000   27.96105   21.07292   23.88594
     168      444        3     0.00000   19.12414   26.38542   23.88594
     169      444        3     0.00000   16.05696   21.07292   23.88594
     170      444        3     0.00000   18.94183   19.40734   19.17498
     171      444        3     0.00000   22.00901   17.84702   28.89462
     172      444        3     0.00000   25.07618   16.07619   23.88594
     173      444        3     0.00000   18.50659   15.52609   25.09072
     174      444        3     0.00000   25.15918   18.15563   17.12753
     175      444        3     0.00000   18.00846   14.21956   22.68283
     176      444        3     0.00000   26.37089   19.87414   18.95279
     177      444        3     0.00000   20.96649   24.62052   18.25475
     178      444        3     0.00000   17.81632   19.96131   17.12753
     179      444        3     0.00000   28.65506   19.97861   24.40010
     180      444        3     0.00000   26.20169   14.33049   25.09072
     181      444        3     0.00000   15.36295   22.17483   23.38830
     182      444        3     0.00000   18.69873   18.05269   18.95279
     183      444        3     0.00000   23.06061   17.93349   29.80576
     184      444        3     0.00000   25.31928   15.41515   22.68283
     185      444        3     0.00000   20.96649   16.94631   29.10771
     186      444        3     0.00000   15.36295   19.97861   24.40010
     187      444        3     0.00000   23.06061   25.60769   18.95279
     188      444        3     0.00000   28.65506   22.17483   23.38830
     189      444        3     0.00000   17.81632   14.33049   25.09072
     190      444        3     0.00000   18.50659   20.35985   18.25475
     191      444        3     0.00000   24.46890   18.55416   18.25475
     192      444        3     0.00000   26.00955   14.21956   22.68283
     193      444        3     0.00000   27.06116   19.47560   17.82557
     194      444        3     0.00000   18.00846   17.65416   17.82557
     195      444        3     0.00000   18.69873   15.41515   22.68283
     196      444        3     0.00000   25.51142   15.52609   25.09072
     197      444        3     0.00000   24.30429   19.85299   20.35769
     198      444        3     0.00000   24.18549   25.08513   23.91187
     199      444        3     0.00000   19.83252   22.43477   27.66005
     200      444        3     0.00000   19.71372   17.33980   23.91187
     201      444        3     0.00000   26.48077   21.10959   23.91187
     202      444        3     0.00000   24.30429   17.33980   23.91187
     203      444        3     0.00000   22.00900   23.82854   20.35769
     204      444        3     0.00000   19.71372   19.85299   20.35769
     205      444        3     0.00000   22.00901   18.66499   27.66005
     206      444        3     0.00000   19.83252   25.08513   23.91187
     207      444        3     0.00000   17.53724   21.10959   23.91187
     208      444        3     0.00000   24.18549   22.43477   27.66005
     209      444        4     0.00000   14.67267    8.47127   21.54128
     210      444        4     0.00000    9.31151    5.37600   12.78655
     211      444        4     0.00000   20.03383    5.37600   12.78655
     212      444        4     0.00000   14.67267   14.66180   12.78655
     213      444        5     0.00000   20.59661   17.50954   23.00324
     214      444        5     0.00000   20.67241   23.25968   27.16204
     215      444        5     0.00000   23.34560   24.89057   24.85561
     216      444        5     0.00000   23.42140   19.05291   20.82059
     217      444        5     0.00000   23.14334   23.46398   20.82059
     218      444        5     0.00000   24.47994   21.29495   27.16204
     219      444        5     0.00000   25.89234   21.78932   23.00324
     220      444        5     0.00000   19.53807   24.23567   23.00324
     221      444        5     0.00000   18.12567   20.47950   24.85561
     222      444        5     0.00000   19.46227   21.01764   20.82059
     223      444        5     0.00000   20.87467   18.97989   27.16204
     224      444        5     0.00000   24.55574   18.16445   24.85561
     225      444        5     0.00000   23.14334   18.97989   27.16204
     226      444        5     0.00000   18.12567   21.78932   23.00324
     227      444        5     0.00000   20.87467   23.46398   20.82059
     228      444        5     0.00000   25.89234   20.47950   24.85561
     229      444        5     0.00000   24.47994   24.23567   23.00324
     230      444        5     0.00000   20.59661   19.05291   20.82059
     231      444        5     0.00000   24.55574   21.01764   20.82059
     232      444        5     0.00000   20.67241   24.89057   24.85561
     233      444        5     0.00000   19.53807   21.29495   27.16204
     234      444        5     0.00000   23.34560   23.25968   27.16204
     235      444        5     0.00000   19.46227   18.16445   24.85561
     236      444        5     0.00000   23.42140   17.50954   23.00324
     237      444        6     0.00000   29.34534   16.94254   13.79223
     238      444        6     0.00000   35.20214   20.32397   23.35635
     239      444        6     0.00000   23.48854   20.32397   23.35635
     240      444        6     0.00000   29.34534   10.17969   23.35635
     241      444        7     0.00000   18.77991   16.21782   26.38180
     242      444        6     0.00000   18.40674   15.75762   27.48247
     243      444        6     0.00000   19.39947   17.30163   26.44506
     244      444        2     0.00000   18.59018   16.22187   28.34897
     245      444        7     0.00000   24.50439   17.24365   16.14792
     246      444        6     0.00000   23.34000   16.81615   16.30266
     247      444        6     0.00000   25.07847   16.84899   15.11005
     248      444        2     0.00000   22.90054   16.20408   15.64521
     249      444        7     0.00000   19.84930   23.65991   18.47656
     250      444        6     0.00000   18.89688   23.54092   17.67579
     251      444        6     0.00000   19.79455   22.91289   19.47730
     252      444        2     0.00000   18.14708   22.89622   17.82465
     253      444        7     0.00000   17.35391   20.98437   16.14792
     254      444        6     0.00000   17.56588   22.20651   16.30266
     255      444        6     0.00000   16.72509   20.68453   15.11005
     256      444        2     0.00000   17.25554   22.89313   15.64521
     257      444        7     0.00000   27.91935   18.80591   24.95110
     258      444        6     0.00000   28.50448   17.80618   25.42083
     259      444        6     0.00000   26.67096   18.74845   24.97810
     260      444        2     0.00000   28.01071   17.01913   25.79063
     261      444        7     0.00000   26.66410   13.74793   26.38180
     262      444        6     0.00000   26.45213   14.30120   27.48247
     263      444        6     0.00000   27.29292   12.66947   26.44506
     264      444        2     0.00000   26.76247   13.91022   28.34897
     265      444        1     0.00000   29.34534   23.38416   34.50538
     266      444        1     0.00000   29.34534   10.50092   25.39555
     267      444        1     0.00000   23.76673   13.72173   34.50538
     268      444        1     0.00000   23.76673   20.16335   25.39555
     269      444        1     0.00000   34.92395   13.72173   34.50538
     270      444        1     0.00000   34.92395   20.16335   25.39555
     271      444        2     0.00000   22.00901   17.97957   25.09125
     272      444        2     0.00000   26.57526   10.07057   25.09125
     273      444        2     0.00000   17.44275   10.07057   25.09125
     274      444        2     0.00000   22.00901   12.70690   32.54792
     275      444        2     0.00000   25.13028   17.91584   33.73661
     276      444        2     0.00000   34.15223   24.78221   31.67118
     277      444        2     0.00000   23.27364   27.25472   34.97794
     278      444        2     0.00000   26.39491   21.56672   31.67118
     279      444        2     0.00000   31.20180   22.88150   41.58623
     280      444        2     0.00000   32.29577   20.10624   33.73661
     281      444        2     0.00000   27.49653   21.13482   40.35114
     282      444        2     0.00000   23.27364   23.36879   36.76820
     283      444        2     0.00000   31.20180   29.89250   31.67118
     284      444        2     0.00000   35.41704   27.25472   34.97794
     285      444        2     0.00000   24.79031   18.11211   37.99705
     286      444        2     0.00000   26.05494   25.64893   30.43609
     287      444        2     0.00000   30.78692   22.44669   30.43609
     288      444        2     0.00000   33.56040   17.91584   33.73661
     289      444        2     0.00000   35.41687   24.05207   29.60605
     290      444        2     0.00000   25.13028   20.83658   29.60605
     291      444        2     0.00000   26.39491   20.10624   33.73661
     292      444        2     0.00000   32.63574   20.30252   37.99705
     293      444        3     0.00000   26.27816   20.31182   35.86612
     294      444        3     0.00000   26.46048   27.07939   40.87481
     295      444        3     0.00000   32.23020   30.62106   35.86612
     296      444        3     0.00000   32.41252   23.64297   31.15516
     297      444        3     0.00000   29.34534   28.95548   31.15516
     298      444        3     0.00000   32.23020   27.07939   40.87481
     299      444        3     0.00000   35.29738   25.30855   35.86612
     300      444        3     0.00000   26.46048   30.62106   35.86612
     301      444        3     0.00000   23.39330   25.30855   35.86612
     302      444        3     0.00000   26.27816   23.64297   31.15516
     303      444        3     0.00000   29.34534   22.08266   40.87481
     304      444        3     0.00000   32.41252   20.31182   35.86612
     305      444        3     0.00000   25.84293   19.76172   37.07090
     306      444        3     0.00000   32.49552   22.39127   29.10771
     307      444        3     0.00000   25.34479   18.45520   34.66302
     308      444        3     0.00000   33.70722   24.10977   30.93297
     309      444        3     0.00000   28.30283   28.85615   30.23493
     310      444        3     0.00000   25.15265   24.19695   29.10771
     311      444        3     0.00000   35.99140   24.21425   36.38029
     312      444        3     0.00000   33.53803   18.56613   37.07090
     313      444        3     0.00000   22.69928   26.41047   35.36849
     314      444        3     0.00000   26.03507   22.28833   30.93297
     315      444        3     0.00000   30.39695   22.16912   41.78594
     316      444        3     0.00000   32.65561   19.65079   34.66302
     317      444        3     0.00000   28.30283   21.18194   41.08790
     318      444        3     0.00000   22.69928   24.21425   36.38029
     319      444        3     0.00000   30.39695   29.84333   30.93297
     320      444        3     0.00000   35.99140   26.41047   35.36849
     321      444        3     0.00000   25.15265   18.56613   37.07090
     322      444        3     0.00000   25.84293   24.59548   30.23493
     323      444        3     0.00000   31.80524   22.78980   30.23493
     324      444        3     0.00000   33.34589   18.45520   34.66302
     325      444        3     0.00000   34.39750   23.71124   29.80576
     326      444        3     0.00000   25.34479   21.88980   29.80576
     327      444        3     0.00000   26.03507   19.65079   34.66302
     328      444        3     0.00000   32.84775   19.76172   37.07090
     329      444        3     0.00000   31.64062   24.08863   32.33787
     330      444        3     0.00000   31.52183   29.32077   35.89206
     331      444        3     0.00000   27.16885   26.67040   39.64023
     332      444        3     0.00000   27.05006   21.57544   35.89206
     333      444        3     0.00000   33.81711   25.34522   35.89206
     334      444        3     0.00000   31.64062   21.57544   35.89206
     335      444        3     0.00000   29.34534   28.06417   32.33787
     336      444        3     0.00000   27.05006   24.08863   32.33787
     337      444        3     0.00000   29.34534   22.90062   39.64023
     338      444        3     0.00000   27.16885   29.32077   35.89206
     339      444        3     0.00000   24.87357   25.34522   35.89206
     340      444        3     0.00000   31.52183   26.67040   39.64023
     341      444        4     0.00000   22.00901   12.70691   33.52147
     342      444        4     0.00000   16.64785    9.61164   24.76673
     343      444        4     0.00000   27.37016    9.61164   24.76673
     344      444        4     0.00000   22.00901   18.89744   24.76673
     345      444        5     0.00000   27.93294   21.74517   34.98343
     346      444        5     0.00000   28.00874   27.49531   39.14223
     347      444        5     0.00000   30.68194   29.12621   36.83579
     348      444        5     0.00000   30.75774   23.28855   32.80077
     349      444        5     0.00000   30.47967   27.69961   32.80077
     350      444        5     0.00000   31.81627   25.53059   39.14223
     351      444        5     0.00000   33.22867   26.02496   34.98343
     352      444        5     0.00000   26.87441   28.47130   34.98343
     353      444        5     0.00000   25.46201   24.71514   36.83579
     354      444        5     0.00000   26.79861   25.25327   32.80077
     355      444        5     0.00000   28.21101   23.21553   39.14223
     356      444        5     0.00000   31.89207   22.40008   36.83579
     357      444        5     0.00000   30.47967   23.21553   39.14223
     358      444        5     0.00000   25.46201   26.02496   34.98343
     359      444        5     0.00000   28.21101   27.69961   32.80077
     360      444        5     0.00000   33.22867   24.71514   36.83579
     361      444        5     0.00000   31.81627   28.47130   34.98343
     362      444        5     0.00000   27.93294   23.28855   32.80077
     363      444        5     0.00000   31.89207   25.25327   32.80077
     364      444        5     0.00000   28.00874   29.12621   36.83579
     365      444        5     0.00000   26.87441   25.53059   39.14223
     366      444        5     0.00000   30.68194   27.49531   39.14223
     367      444        5     0.00000   26.79861   22.40008   36.83579
     368      444        5     0.00000   30.75774   21.74517   34.98343
     369      444        6     0.00000   36.68167   21.17817   25.77242
     370      444        6     0.00000   42.53848   24.55960   35.33654
     371      444        6     0.00000   30.82487   24.55960   35.33654
     372      444        6     0.00000   36.68168   14.41532   35.33654
     373      444        7     0.00000   26.11624   20.45346   38.36199
     374      444        6     0.00000   25.74308   19.99325   39.46265
     375      444        6     0.00000   26.73580   21.53726   38.42525
     376      444        2     0.00000   25.92651   20.45750   40.32915
     377      444        7     0.00000   31.84072   21.47928   28.12811
     378      444        6     0.00000   30.67634   21.05178   28.28285
     379      444        6     0.00000   32.41481   21.08463   27.09024
     380      444        2     0.00000   30.23688   20.43971   27.62539
     381      444        7     0.00000   27.18563   27.89554   30.45674
     382      444        6     0.00000   26.23321   27.77655   29.65597
     383      444        6     0.00000   27.13089   27.14853   31.45748
     384      444        2     0.00000   25.48341   27.13185   29.80484
     385      444        7     0.00000   24.69025   25.22001   28.12811
     386      444        6     0.00000   24.90222   26.44215   28.28285
     387      444        6     0.00000   24.06142   24.92017   27.09024
     388      444        2     0.00000   24.59188   27.12877   27.62539
     389      444        7     0.00000   35.25568   23.04155   36.93129
     390      444        6     0.00000   35.84081   22.04181   37.40102
     391      444        6     0.00000   34.00729   22.98409   36.95829
     392      444        2     0.00000   35.34704   21.25477   37.77082
     393      444        7     0.00000   34.00043   17.98356   38.36199
     394      444        6     0.00000   33.78846   18.53683   39.46265
     395      444        6     0.00000   34.62926   16.90510   38.42525
     396      444        2     0.00000   34.09880   18.14585   40.32915
     397      444        1     0.00000   22.00901   27.61980   10.54501
     398      444        1     0.00000   22.00900   14.73655    1.43518
     399      444        1     0.00000   16.43039   17.95736   10.54501
     400      444        1     0.00000   16.43039   24.39899    1.43518
     401      444        1     0.00000   27.58762   17.95736   10.54501
     402      444        1     0.00000   27.58762   24.39899    1.43518
     403      444        2     0.00000   14.67267   22.21520    1.13088
     404      444        2     0.00000   19.23893   14.30621    1.13088
     405      444        2     0.00000   10.10641   14.30621    1.13088
     406      444        2     0.00000   14.67267   16.94254    8.58755
     407      444        2     0.00000   17.79394   22.15147    9.77624
     408      444        2     0.00000   26.81590   29.01784    7.71081
     409      444        2     0.00000   15.93730   31.49035   11.01758
     410      444        2     0.00000   19.05858   25.80235    7.71081