LAMMPS data file via write_data, version 15 May 2015, timestep = 2000000

2611 atoms
6 atom types
1749 bonds
4 bond types
894 angles
3 angle types
44 dihedrals
3 dihedral types
10 impropers
1 improper types

-1.5128095120458342e+01 1.5128095120458342e+01 xlo xhi
-1.5128095120458342e+01 1.5128095120458342e+01 ylo yhi
-1.5128095120458342e+01 1.5128095120458342e+01 zlo zhi

Masses

1 15.9994
2 1.00794
3 12.0107
4 1.00794
5 12.0107
6 12.0107

Bond Coeffs # harmonic

1 1000 1
2 469 1.4
3 367 1.08
4 469 0.7

Angle Coeffs # harmonic

1 100 109.47
2 35 120
3 63 120

Dihedral Coeffs # opls

1 0 7.25 0 0
2 0 7.25 0 0
3 0 7.25 0 0

Improper Coeffs # cvff

1 2.5 -1 2

Atoms # full

1722 574 2 4.0999999999999998e-01 -9.7674989108360428e+00 -8.4757338545726295e+00 -8.9536077515436077e+00 1 0 -1
743 248 2 4.0999999999999998e-01 -8.1216193348521095e+00 -6.1445579672707478e+00 -8.2476599819509833e+00 1 1 -2
1720 574 1 -8.1999999999999995e-01 -9.0216406469294874e+00 -8.4855515212627957e+00 -8.2875823366515036e+00 1 0 -1
1721 574 2 4.0999999999999998e-01 -8.1873601318526319e+00 -8.8194079937998104e+00 -8.7263381664739832e+00 1 0 -1
2523 841 2 4.0999999999999998e-01 -1.2329197242657129e+01 -1.1395789606632622e+01 -1.2864036136259955e+01 1 1 -1
545 182 2 4.0999999999999998e-01 -7.5785468839766921e+00 -5.1935973221440168e+00 -1.4543261524343917e+01 1 0 0
573 191 2 4.0999999999999998e-01 -1.4645512676481761e+01 -7.6368518824989513e+00 -1.3838537553890664e+01 0 0 -1
1406 469 2 4.0999999999999998e-01 -1.2349706726267605e+01 -8.6229354453805502e+00 -1.0642076093691376e+01 0 -1 -2
2522 841 2 4.0999999999999998e-01 -1.3600488542455668e+01 -1.2057656128002215e+01 -1.2081506336014003e+01 1 1 -1
9 3 2 4.0999999999999998e-01 -9.1374487795039325e+00 -9.8368208097090939e+00 -1.4143715421549938e+01 2 -1 0
1405 469 1 -8.1999999999999995e-01 -1.1813503725858517e+01 -7.7937581421181346e+00 -1.0484145486862690e+01 0 -1 -2
1407 469 2 4.0999999999999998e-01 -1.1750567635955010e+01 -7.2706016170332122e+00 -1.1334049652261898e+01 0 -1 -2
604 202 1 -8.1999999999999995e-01 -8.7458525530580040e+00 -1.5011793834255668e+01 -1.0671558674861481e+01 0 0 0
624 208 2 4.0999999999999998e-01 -1.3537613370057910e+01 -8.0575524161905854e+00 -7.7649189148896580e+00 1 1 2
530 177 2 4.0999999999999998e-01 -1.3600653133395735e+01 -1.0814576576505420e+01 -8.2461805430643764e+00 0 1 1
2521 841 1 -8.1999999999999995e-01 -1.3150277095132575e+01 -1.1199453477733362e+01 -1.2328059677617889e+01 1 1 -1
8 3 2 4.0999999999999998e-01 -9.5388722007078250e+00 -8.2952673806450612e+00 -1.4502984403558443e+01 2 -1 0
2576 859 2 4.0999999999999998e-01 -1.4441504253766732e+01 -9.9620040174589022e+00 -1.2765849616968437e+01 2 2 1
7 3 1 -8.1999999999999995e-01 -9.1292420101788707e+00 -8.8928728037367861e+00 -1.3813737237786210e+01 2 -1 0
2575 859 1 -8.1999999999999995e-01 -1.5114816908024782e+01 -9.2233540919232269e+00 -1.2798054690562118e+01 2 2 1
2062 688 1 -8.1999999999999995e-01 -9.8541521633515163e+00 -1.3092131483583103e+01 -8.6387139145873881e+00 1 -1 -2
622 208 1 -8.1999999999999995e-01 -1.3232449965532572e+01 -7.1732664104224009e+00 -8.1183370258107583e+00 1 1 2
2051 684 2 4.0999999999999998e-01 -1.1671300620427537e+01 -1.2688359087957894e+01 -8.6438287970902365e+00 2 0 -1
2050 684 1 -8.1999999999999995e-01 -1.2605360248263246e+01 -1.2410695290937642e+01 -8.8683866513961842e+00 2 0 -1
2052 684 2 4.0999999999999998e-01 -1.2902243003748508e+01 -1.2881076703466675e+01 -9.6994057583849411e+00 2 0 -1
791 264 2 4.0999999999999998e-01 -1.2598016858396402e+01 -1.4132857646534736e+01 -1.1466522575514452e+01 1 -1 0
529 177 1 -8.1999999999999995e-01 -1.3398849728090864e+01 -9.8667607346182287e+00 -7.9993783971842731e+00 0 1 1
68 23 2 4.0999999999999998e-01 -1.3961630745947380e+01 -1.3714600228686344e+01 -1.4259328599862910e+01 1 0 1
790 264 1 -8.1999999999999995e-01 -1.3426616757939499e+01 -1.3676369221396993e+01 -1.1142437159390187e+01 1 -1 0
792 264 2 4.0999999999999998e-01 -1.4152372589790023e+01 -1.4352749983300175e+01 -1.1016825361470858e+01 1 -1 0
59 20 2 4.0999999999999998e-01 -1.3832238759993382e+01 -5.5455663302707467e+00 -8.1958590461593950e+00 0 0 1
255 85 2 4.0999999999999998e-01 -1.4136078250839699e+01 -7.6005611481049593e+00 -1.0101140693561494e+01 0 1 0
623 208 2 4.0999999999999998e-01 -1.2457650777322923e+01 -7.3103751561199690e+00 -8.7354903397149783e+00 1 1 2
2024 675 2 4.0999999999999998e-01 -1.1579982509233560e+01 -1.2238596551391636e+01 -1.4494653605980407e+01 1 1 0
2064 688 2 4.0999999999999998e-01 -9.0165479424634150e+00 -1.2545922674276907e+01 -8.6468288106273921e+00 1 -1 -2
69 23 2 4.0999999999999998e-01 -1.2402688707921740e+01 -1.4170521095311305e+01 -1.4427963527075228e+01 1 0 1
1003 335 1 -8.1999999999999995e-01 -1.1288194178207686e+01 -1.4942854528129066e+01 -1.1955490004537431e+01 2 2 1
2063 688 2 4.0999999999999998e-01 -9.7194901138284919e+00 -1.3917015509353154e+01 -9.1877342035326031e+00 1 -1 -2
742 248 1 -8.1999999999999995e-01 -7.9189618860376596e+00 -5.2310380957744709e+00 -8.6003669369169309e+00 1 1 -2
1679 560 2 4.0999999999999998e-01 -1.4551670562316390e+01 -1.2913266647058549e+01 -8.3969724395494545e+00 2 0 0
253 85 1 -8.1999999999999995e-01 -1.5006381952418378e+01 -7.7068824137941565e+00 -1.0582033667854180e+01 0 1 0
571 191 1 -8.1999999999999995e-01 -1.3887666013581928e+01 -7.3734266844525544e+00 -1.4435418104829465e+01 0 0 -1
1193 398 2 4.0999999999999998e-01 -7.7093437690300410e+00 -7.7577168633676399e+00 -1.1308522389548630e+01 4 1 0
175 59 1 -8.1999999999999995e-01 -9.6514119170507087e+00 -5.2590654729863822e+00 -1.2090997447120770e+01 0 -2 0
605 202 2 4.0999999999999998e-01 -8.0459274092472874e+00 -1.4398038962939676e+01 -1.1036799066082910e+01 0 0 0
2295 765 2 4.0999999999999998e-01 -1.0352145366649992e+01 -5.3224025911075952e+00 -9.7497156578943525e+00 1 -1 0
2520 840 2 4.0999999999999998e-01 -1.3012593150797311e+01 -6.5201976934570602e+00 -1.3138265119770315e+01 2 0 2
1189 397 1 -8.1999999999999995e-01 -8.0959540945051174e+00 -1.1843866633509441e+01 -1.4305185152373120e+01 2 1 -1
2518 840 1 -8.1999999999999995e-01 -1.2387572175928192e+01 -6.0783880158623020e+00 -1.2494725064262992e+01 2 0 2
2025 675 2 4.0999999999999998e-01 -1.0042219710520651e+01 -1.1722429080735154e+01 -1.4306348890725058e+01 1 1 0
177 59 2 4.0999999999999998e-01 -1.0516976777076936e+01 -5.6718881780970101e+00 -1.2374485874237180e+01 0 -2 0
2023 675 1 -8.1999999999999995e-01 -1.1002427335481141e+01 -1.1443195805647393e+01 -1.4310918800503481e+01 1 1 0
67 23 1 -8.1999999999999995e-01 -1.3050096588510110e+01 -1.3417156715844895e+01 -1.4543271483841316e+01 1 0 1
2519 840 2 4.0999999999999998e-01 -1.2914687515164040e+01 -5.5685932971739156e+00 -1.1814835669067712e+01 2 0 2
1191 397 2 4.0999999999999998e-01 -7.9481061279857377e+00 -1.2832359758202585e+01 -1.4337014140404268e+01 2 1 -1
1194 398 2 4.0999999999999998e-01 -8.2840178683607899e+00 -6.2810558540947596e+00 -1.1703267754878274e+01 4 1 0
819 273 2 4.0999999999999998e-01 -1.3167374449888998e+01 -5.2375167930264954e+00 -1.4850694011636142e+01 0 -1 1
1004 335 2 4.0999999999999998e-01 -1.0330430493365283e+01 -1.4806052424139967e+01 -1.1702577573912462e+01 2 2 1
1724 575 2 4.0999999999999998e-01 -4.6770234537746092e-02 -1.1488974775258052e+01 -1.4549828032537647e+01 1 1 0
2455 819 1 -8.1999999999999995e-01 -3.2431364061731571e-01 -1.2483330808148795e+01 -1.0524086904834668e+01 0 1 0
2147 716 2 4.0999999999999998e-01 -3.0371804666308204e+00 -1.4850818290816633e+01 -1.0468969147616349e+01 1 1 0
2457 819 2 4.0999999999999998e-01 -7.0740656813538294e-01 -1.2905797346176563e+01 -1.1345520137363145e+01 0 1 0
839 280 2 4.0999999999999998e-01 -7.0008492342973625e+00 -1.2247426703203642e+01 -9.7298625289461285e+00 1 1 -1
1378 460 1 -8.1999999999999995e-01 -7.3648188967878214e+00 -1.1751493320674754e+01 -8.0306579061503207e+00 3 0 0
1192 398 1 -8.1999999999999995e-01 -7.4562576845551520e+00 -6.8230808041142552e+00 -1.1558309638358004e+01 4 1 0
1412 471 2 4.0999999999999998e-01 -6.9507936035768285e+00 -9.7723911239702854e+00 -1.2734437324998790e+01 2 0 0
274 92 1 -8.1999999999999995e-01 -6.2503888335592528e-01 -6.7670283482240219e+00 -1.4751213557532962e+01 1 0 0
773 258 2 4.0999999999999998e-01 -5.1290730415471320e+00 -1.3530638217563888e+01 -7.6284456621637133e+00 0 0 -1
183 61 2 4.0999999999999998e-01 -4.3528161512814858e+00 -5.0604781837032924e+00 -9.4484096966479338e+00 0 0 0
182 61 2 4.0999999999999998e-01 -3.0947669020868034e+00 -5.1990025618329625e+00 -8.4165545632370318e+00 0 0 0
1358 453 2 4.0999999999999998e-01 -9.7429383365007283e-01 -6.6303415664593413e+00 -7.6537378626001793e+00 0 0 0
509 170 2 4.0999999999999998e-01 -1.9382439524319413e+00 -1.0995125593771874e+01 -7.8228503458990879e+00 1 0 0
516 172 2 4.0999999999999998e-01 -1.0841142757756081e+00 -8.0065576769997087e+00 -1.0096070241318063e+01 0 -1 -1
972 324 2 4.0999999999999998e-01 -3.7555281698436982e+00 -1.0440247783001055e+01 -1.1249421497983217e+01 0 0 1
663 221 2 4.0999999999999998e-01 -6.2587209125342547e+00 -5.6144484593601920e+00 -1.1195768050865599e+01 0 0 -2
514 172 1 -8.1999999999999995e-01 -5.5455418748544361e-01 -7.9712167518430075e+00 -1.0943600700236280e+01 0 -1 -1
632 211 2 4.0999999999999998e-01 -1.5862843050215467e+00 -6.5470201487798381e+00 -1.1842006023098982e+01 -1 0 -1
2531 844 2 4.0999999999999998e-01 -6.3548670211383644e+00 -1.4723010272609844e+01 -1.4164657130616366e+01 1 0 0
1965 655 2 4.0999999999999998e-01 -3.4155558988349881e+00 -8.4305050229925165e+00 -8.4912737720256928e+00 1 0 0
1379 460 2 4.0999999999999998e-01 -7.1468427974386950e+00 -1.0832715873132269e+01 -8.3597858588235994e+00 3 0 0
661 221 1 -8.1999999999999995e-01 -5.4292618612360410e+00 -5.1232431111693817e+00 -1.0929862428355310e+01 0 0 -2
413 138 2 4.0999999999999998e-01 -1.5648920928401484e+00 -9.5247558199124143e+00 -1.3972605703905835e+01 1 -1 0
510 170 2 4.0999999999999998e-01 -3.0663051289988967e+00 -1.2119204366423054e+01 -8.1841352749909113e+00 1 0 0
370 124 1 -8.1999999999999995e-01 -2.7252584481942908e+00 -1.1898020974592475e+01 -1.2059295098240872e+01 0 1 -3
414 138 2 4.0999999999999998e-01 -9.6919017694953169e-01 -9.2465604356324249e+00 -1.2477831988511708e+01 1 -1 0
2530 844 1 -8.1999999999999995e-01 -7.3472181495960820e+00 -1.4644177431122452e+01 -1.4259606767116900e+01 1 0 0
840 280 2 4.0999999999999998e-01 -7.2238189237025878e+00 -1.1736734036616010e+01 -1.1264815121190619e+01 1 1 -1
1964 655 2 4.0999999999999998e-01 -2.6620231367154723e+00 -7.0522001160636023e+00 -8.9374417756154685e+00 1 0 0
608 203 2 4.0999999999999998e-01 -1.8116102193139838e-01 -1.3200913930347602e+01 -8.1278324846083017e+00 2 1 0
633 211 2 4.0999999999999998e-01 -1.1300096560657700e+00 -6.0011548129552015e+00 -1.3311851730629169e+01 -1 0 -1
2146 716 1 -8.1999999999999995e-01 -2.4938191142981392e+00 -1.4483617856921565e+01 -1.1223895001386957e+01 1 1 0
1190 397 2 4.0999999999999998e-01 -7.3773624826651751e+00 -1.1416871728756043e+01 -1.3756284230264756e+01 2 1 -1
772 258 1 -8.1999999999999995e-01 -4.8741672139110399e+00 -1.3734581154406015e+01 -8.5736552062318125e+00 0 0 -1
838 280 1 -8.1999999999999995e-01 -7.1965256195145804e+00 -1.2537606847561188e+01 -1.0666610640604629e+01 1 1 -1
371 124 2 4.0999999999999998e-01 -2.5602856511904974e+00 -1.2869671477000873e+01 -1.1889972667918284e+01 0 1 -3
543 181 2 4.0999999999999998e-01 -7.1264079024520726e+00 -6.7773183102728449e+00 -1.3379127562609106e+01 -1 0 0
372 124 2 4.0999999999999998e-01 -2.0188286631444488e+00 -1.1541602955464388e+01 -1.2670780136854997e+01 0 1 -3
774 258 2 4.0999999999999998e-01 -5.4707993609967787e+00 -1.3228410479556372e+01 -9.1964008386118756e+00 0 0 -1
1963 655 1 -8.1999999999999995e-01 -3.0173250491606822e+00 -7.9296288592034410e+00 -9.2597306990963588e+00 1 0 0
1411 471 1 -8.1999999999999995e-01 -6.3445525900881119e+00 -1.0563175399220608e+01 -1.2818834151124468e+01 2 0 0
1359 453 2 4.0999999999999998e-01 -7.0871045253847598e-01 -5.2632054669126642e+00 -8.5063845028743508e+00 0 0 0
1413 471 2 4.0999999999999998e-01 -5.5614842593911593e+00 -1.0449602329303051e+01 -1.2207363834581942e+01 2 0 0
631 211 1 -8.1999999999999995e-01 -1.6185358465533586e+00 -5.7698913747221248e+00 -1.2470513391495636e+01 -1 0 -1
2544 848 2 4.0999999999999998e-01 -5.9171378793205918e+00 -9.3444440168427079e+00 -1.0186054025841425e+01 0 1 0
508 170 1 -8.1999999999999995e-01 -2.9150198682659632e+00 -1.1208198922213230e+01 -7.8005044467478744e+00 1 0 0
2542 848 1 -8.1999999999999995e-01 -6.4809868938219353e+00 -9.3462633550420051e+00 -9.3601837132814403e+00 0 1 0
412 138 1 -8.1999999999999995e-01 -1.0505683435807871e+00 -9.9207306261585373e+00 -1.3211904833559974e+01 1 -1 0
971 324 2 4.0999999999999998e-01 -3.7427600673276764e+00 -8.9156226243822907e+00 -1.0664650561116257e+01 0 0 1
542 181 2 4.0999999999999998e-01 -5.7445131576046045e+00 -6.7349543418184705e+00 -1.4248135124115159e+01 -1 0 0
970 324 1 -8.1999999999999995e-01 -4.3065344351134751e+00 -9.6199852879930603e+00 -1.1095953834646117e+01 0 0 1
541 181 1 -8.1999999999999995e-01 -6.7334646508888518e+00 -6.8760923761915969e+00 -1.4293364992987817e+01 -1 0 0
1357 453 1 -8.1999999999999995e-01 -1.3632146739972821e+00 -5.9965065286627137e+00 -8.3223068738559078e+00 0 0 0
634 212 1 -8.1999999999999995e-01 -4.2247208106980914e+00 -5.7770974778421387e+00 -1.3531204448105976e+01 2 0 -1
1717 573 1 -8.1999999999999995e-01 -3.9098768108460806e+00 -1.2332626038115240e+01 -1.4481191751883419e+01 1 0 -1
635 212 2 4.0999999999999998e-01 -4.8867731195877653e+00 -5.4327932678701156e+00 -1.2865522725118588e+01 2 0 -1
636 212 2 4.0999999999999998e-01 -3.3880417446394500e+00 -6.0520893474118953e+00 -1.3057560681591617e+01 2 0 -1
2543 848 2 4.0999999999999998e-01 -5.9076496840458983e+00 -9.1499826176824204e+00 -8.5647284372828594e+00 0 1 0
1718 573 2 4.0999999999999998e-01 -3.5127333877230047e+00 -1.1917665705322227e+01 -1.3662610166293472e+01 1 0 -1
730 244 1 -8.1999999999999995e-01 -4.6145328586168333e+00 -1.4907236256326655e+01 -1.3699015836667645e+01 1 -1 0
731 244 2 4.0999999999999998e-01 -4.2291463085149434e+00 -1.3986662673183533e+01 -1.3762358427182821e+01 1 -1 0
2275 759 1 -8.1999999999999995e-01 -1.1719876263145878e+01 -7.2419524684143850e+00 -5.0299508739120089e+00 2 -1 -2
2277 759 2 4.0999999999999998e-01 -1.2254735767943364e+01 -6.4430107060915418e+00 -5.3049201997849984e+00 2 -1 -2
2102 701 2 4.0999999999999998e-01 -1.1091036580605884e+01 -1.0308917536827870e+01 -5.6083068167966648e+00 -1 -1 -1
1512 504 2 4.0999999999999998e-01 -9.4306547163082382e+00 -9.5456185220056469e+00 -2.3858194469544571e+00 2 -2 0
1591 531 1 -8.1999999999999995e-01 -9.1653360115194413e+00 -6.8568920898400147e+00 -5.9995921200859872e+00 0 -1 -2
1204 402 1 -8.1999999999999995e-01 -9.2611244243951134e+00 -1.1189018563918953e+01 -5.4961218592192953e+00 2 -2 0
1206 402 2 4.0999999999999998e-01 -8.7245827580404764e+00 -1.0605095217866580e+01 -4.8869031974514403e+00 2 -2 0
1205 402 2 4.0999999999999998e-01 -8.7457625205199783e+00 -1.1356530247140208e+01 -6.3365578899081036e+00 2 -2 0
441 147 2 4.0999999999999998e-01 -1.2324748101323303e+01 -1.3797292338176000e+01 -3.4968205662281910e+00 1 0 -2
1870 624 1 -8.1999999999999995e-01 -1.2288502984121120e+01 -1.1107780516146551e+01 -2.1117620970742870e+00 0 0 0
2276 759 2 4.0999999999999998e-01 -1.1989156797762544e+01 -8.0299606325342605e+00 -5.5835950897289237e+00 2 -1 -2
1340 447 2 4.0999999999999998e-01 -8.0393412543701537e+00 -5.5776979659641288e+00 -5.5098129800812021e+00 2 0 -1
1593 531 2 4.0999999999999998e-01 -1.0109398588879877e+01 -6.8581120900882446e+00 -5.6698419714018264e+00 0 -1 -2
2101 701 1 -8.1999999999999995e-01 -1.1983626517691919e+01 -9.8713452426344510e+00 -5.7169552443401628e+00 -1 -1 -1
1362 454 2 4.0999999999999998e-01 -1.5090697934111693e+01 -1.1842761903504270e+01 -4.8323651690337872e+00 0 0 -1
20 7 2 4.0999999999999998e-01 -1.4473603394150533e+01 -1.4942624088600400e+01 -4.1238108449196691e+00 1 -1 -1
2103 701 2 4.0999999999999998e-01 -1.2699922438798151e+01 -1.0491200962415554e+01 -5.3965026977111226e+00 -1 -1 -1
2173 725 1 -8.1999999999999995e-01 -1.3115162782204360e+01 -8.3011448888565962e+00 -2.5516654065100663e+00 1 0 -1
2174 725 2 4.0999999999999998e-01 -1.2589591275682272e+01 -7.8346441916639282e+00 -3.2631023298484312e+00 1 0 -1
2175 725 2 4.0999999999999998e-01 -1.2730242194582072e+01 -9.2107367869427357e+00 -2.3952380394276584e+00 1 0 -1
1872 624 2 4.0999999999999998e-01 -1.1637553053313173e+01 -1.1614893741308075e+01 -2.6766436425953515e+00 0 0 0
1871 624 2 4.0999999999999998e-01 -1.2750824484358020e+01 -1.1738365681605258e+01 -1.4883745913203494e+00 0 0 0
439 147 1 -8.1999999999999995e-01 -1.3314444636815722e+01 -1.3940127361694483e+01 -3.4873491744159288e+00 1 0 -2
27 9 2 4.0999999999999998e-01 -1.0307639572032624e+01 -1.3648192082462280e+01 -4.0057002654607174e+00 2 3 -1
26 9 2 4.0999999999999998e-01 -1.0473675757314444e+01 -1.2230769033708086e+01 -4.7993914918178717e+00 2 3 -1
25 9 1 -8.1999999999999995e-01 -1.0777958622489709e+01 -1.2765718054596244e+01 -4.0112085860627200e+00 2 3 -1
1592 531 2 4.0999999999999998e-01 -9.0316672911603106e+00 -7.6211201630771388e+00 -6.6305270830035461e+00 0 -1 -2
1511 504 2 4.0999999999999998e-01 -1.0768500207265660e+01 -1.0013362942304791e+01 -1.5746557555566500e+00 2 -2 0
1510 504 1 -8.1999999999999995e-01 -9.9136475012637852e+00 -9.4983619416000131e+00 -1.5114765079884389e+00 2 -2 0
753 251 2 4.0999999999999998e-01 -8.5217146165011357e+00 -6.1934884410124535e+00 -2.3699479585521015e+00 0 1 0
440 147 2 4.0999999999999998e-01 -1.3585440892512821e+01 -1.4337814529660386e+01 -2.6107667479470589e+00 1 0 -2
1060 354 1 -8.1999999999999995e-01 -1.1875674507577518e+01 -6.5418934128209969e+00 -8.6089733366189591e-01 1 1 0
348 116 2 4.0999999999999998e-01 -1.4537344852726145e+01 -1.4946799467977225e+01 -7.4976762370296015e+00 2 1 0
2096 699 2 4.0999999999999998e-01 -1.4564403928257818e+01 -1.0634435428586805e+01 -2.6157209003180633e+00 2 1 0
1062 354 2 4.0999999999999998e-01 -1.1212352576621935e+01 -6.0065649294277144e+00 -1.3837914049401832e+00 1 1 0
1879 627 1 -8.1999999999999995e-01 -7.8728987023255206e+00 -1.5004046182797811e+01 -2.3958694991226910e+00 3 -1 0
1061 354 2 4.0999999999999998e-01 -1.2509453677798962e+01 -6.9929761693626098e+00 -1.4892595714812149e+00 1 1 0
1715 572 2 4.0999999999999998e-01 -1.4905281146996069e+01 -7.7391081980469032e+00 -2.4486709149030315e+00 2 1 0
1360 454 1 -8.1999999999999995e-01 -1.4122155773860218e+01 -1.1597297156605855e+01 -4.7915746645202848e+00 0 0 -1
1361 454 2 4.0999999999999998e-01 -1.3594069386118672e+01 -1.2378459211413066e+01 -4.4585560946304472e+00 0 0 -1
752 251 2 4.0999999999999998e-01 -9.7273368263621425e+00 -5.2275569586557271e+00 -2.8991486456145399e+00 0 1 0
1422 474 2 4.0999999999999998e-01 -7.9896432054364865e+00 -1.4587598631918590e+01 -4.3052345918253110e-01 1 0 0
363 121 2 4.0999999999999998e-01 -9.1762863066286862e+00 -5.2741330988124790e+00 -5.1025765133247347e-01 0 0 0
874 292 1 -8.1999999999999995e-01 -7.6201171827468261e+00 -8.3958414850089618e+00 -2.7973888010437342e-01 2 0 0
876 292 2 4.0999999999999998e-01 -8.4138579580330131e+00 -8.7239530270429970e+00 -7.9190016196276680e-01 2 0 0
289 97 1 -8.1999999999999995e-01 -7.6501681018083447e+00 -9.9105438901052452e+00 -3.8056129523138225e+00 1 1 -1
751 251 1 -8.1999999999999995e-01 -9.3956244718153457e+00 -5.7716323029508381e+00 -2.1284738369212981e+00 0 1 0
531 177 2 4.0999999999999998e-01 -1.2635758503758623e+01 -9.8457696229734708e+00 -7.3534356976143682e+00 0 1 1
2002 668 1 -8.1999999999999995e-01 -5.9755306103571275e+00 -1.4871407143220731e+01 -4.4867967962509638e+00 3 -1 0
1713 571 2 4.0999999999999998e-01 -1.2115253832084747e+00 -5.2381945112829857e+00 -5.5522925257680171e+00 2 0 -1
1033 345 1 -8.1999999999999995e-01 -6.2370467462855039e-01 -1.4433560312066724e+01 -2.5893697432588620e+00 2 2 -1
1880 627 2 4.0999999999999998e-01 -7.2817898231234990e+00 -1.4781223754943671e+01 -3.1710670595849901e+00 3 -1 0
2424 808 2 4.0999999999999998e-01 -2.4825517165478441e+00 -7.0053172480897246e+00 -1.6145639749924143e+00 2 1 -2
129 43 2 4.0999999999999998e-01 -5.5774598546947658e+00 -1.4190675908795981e+01 -2.2407640718063995e+00 0 1 1
1597 533 1 -8.1999999999999995e-01 -2.0376499758510924e+00 -9.2903815004277508e+00 -4.9212240249993897e+00 0 0 -2
1813 605 1 -8.1999999999999995e-01 -6.0207056317112944e+00 -1.1021410678856565e+01 -1.9202534107415445e+00 0 -1 -1
1815 605 2 4.0999999999999998e-01 -5.3296606976691994e+00 -1.0370496129285566e+01 -1.6059956613835631e+00 0 -1 -1
2422 808 1 -8.1999999999999995e-01 -1.7962508723433217e+00 -7.7044317112809635e+00 -1.4140124637782012e+00 2 1 -2
1380 460 2 4.0999999999999998e-01 -6.7158206533981826e+00 -1.2012213343437756e+01 -7.3159431528765406e+00 3 0 0
299 100 2 4.0999999999999998e-01 -4.0133632113497804e+00 -9.8750287397072647e+00 -7.3202011633605162e+00 2 1 -3
2111 704 2 4.0999999999999998e-01 -3.3975429360778371e+00 -1.0420527619376376e+01 -4.6959019474983883e+00 2 0 -1
2526 842 2 4.0999999999999998e-01 -4.2041952903123203e-01 -7.5014604723042959e+00 -2.7730434142164491e+00 1 2 0
607 203 1 -8.1999999999999995e-01 -2.0925156529077071e-01 -1.3034070832145289e+01 -7.1422539419110125e+00 2 1 0
2247 749 2 4.0999999999999998e-01 -6.0484593926660697e+00 -7.0598892158346693e+00 -1.3124883281585973e+00 2 -1 0
609 203 2 4.0999999999999998e-01 -4.8892240550333810e-01 -1.3870257657791482e+01 -6.6704842952500414e+00 2 1 0
290 97 2 4.0999999999999998e-01 -7.1947573535875824e+00 -9.0776686636872448e+00 -4.1201136041226665e+00 1 1 -1
291 97 2 4.0999999999999998e-01 -6.9887370825356747e+00 -1.0494852900174257e+01 -3.3354185418283500e+00 1 1 -1
2246 749 2 4.0999999999999998e-01 -5.9836278993998455e+00 -5.5656734914212525e+00 -1.9680172659401656e+00 2 -1 0
570 190 2 4.0999999999999998e-01 -5.8639052354620773e+00 -1.3429409923303332e+01 -5.4721535688390208e+00 1 0 -1
128 43 2 4.0999999999999998e-01 -4.1449319773715025e+00 -1.4159306007423591e+01 -1.4575133253013597e+00 0 1 1
127 43 1 -8.1999999999999995e-01 -4.9476083235006936e+00 -1.3620535069645477e+01 -1.7133010314231516e+00 0 1 1
2423 808 2 4.0999999999999998e-01 -1.6934285709281269e+00 -7.7961261986982224e+00 -4.2355273123341242e-01 2 1 -2
1814 605 2 4.0999999999999998e-01 -5.7824404834498946e+00 -1.1939440126781273e+01 -1.6033268545402226e+00 0 -1 -1
1035 345 2 4.0999999999999998e-01 -1.5034371663956421e+00 -1.4000028788190265e+01 -2.7845924384132239e+00 2 2 -1
1711 571 1 -8.1999999999999995e-01 -1.7101875321608819e+00 -6.0437515894222376e+00 -5.2322852573013510e+00 2 0 -1
300 100 2 4.0999999999999998e-01 -4.5469209704277063e+00 -8.6116503782238567e+00 -6.4337513986458283e+00 2 1 -3
1712 571 2 4.0999999999999998e-01 -2.6929887787873543e+00 -5.8893692899385606e+00 -5.3335700118204663e+00 2 0 -1
2110 704 1 -8.1999999999999995e-01 -4.3174109952644706e+00 -1.0810702887192090e+01 -4.6559417872544806e+00 2 0 -1
2525 842 2 4.0999999999999998e-01 -5.9120202512081299e-01 -6.6295308348098221e+00 -4.1431433683558101e+00 1 2 0
1410 470 2 4.0999999999999998e-01 -6.2280389151213367e+00 -7.3083417221256379e+00 -5.5371059988805644e+00 2 -1 -1
2245 749 1 -8.1999999999999995e-01 -6.0257699269639495e+00 -6.5443470756812374e+00 -2.1690467228320625e+00 2 -1 0
1733 578 2 4.0999999999999998e-01 -2.9730050541651014e+00 -1.1835311101093716e+01 -3.5299499106689716e+00 2 0 -1
568 190 1 -8.1999999999999995e-01 -5.8503928468258444e+00 -1.2609396151421048e+01 -6.0443298093421625e+00 1 0 -1
1732 578 1 -8.1999999999999995e-01 -2.9307367890694120e+00 -1.2673549943707345e+01 -2.9862957674726935e+00 2 0 -1
1598 533 2 4.0999999999999998e-01 -1.3244762455215078e+00 -9.7657165898137883e+00 -5.4364235738376667e+00 0 0 -2
569 190 2 4.0999999999999998e-01 -5.2055946928667840e+00 -1.1947195736489512e+01 -5.6626011461503829e+00 1 0 -1
1734 578 2 4.0999999999999998e-01 -3.8362793436692169e+00 -1.2874525516999576e+01 -2.6126752486595723e+00 2 0 -1
1408 470 1 -8.1999999999999995e-01 -6.0484130488170518e+00 -7.7747218733178372e+00 -4.6709565398061397e+00 2 -1 -1
1409 470 2 4.0999999999999998e-01 -6.0300940907816241e+00 -7.1044814686517057e+00 -3.9290448126136130e+00 2 -1 -1
2112 704 2 4.0999999999999998e-01 -4.9321145597570233e+00 -1.0168805838279354e+01 -4.1975767877913679e+00 2 0 -1
298 100 1 -8.1999999999999995e-01 -4.5607818876452377e+00 -9.0383651992399194e+00 -7.3380263146485731e+00 2 1 -3
1599 533 2 4.0999999999999998e-01 -1.7070555547503652e+00 -8.3861569626783172e+00 -4.6508981314079119e+00 0 0 -2
1166 389 2 4.0999999999999998e-01 -1.2597786496867638e+00 -1.3235359851646965e+01 -3.5950700726111506e-02 0 0 -1
991 331 1 -8.1999999999999995e-01 -1.2211513028568600e+01 -7.8036331821714882e+00 1.5688294268483691e+00 0 1 -1
857 286 2 4.0999999999999998e-01 -1.2045311045563572e+01 -1.3867695769488048e+01 2.3525951023634430e+00 1 1 0
856 286 1 -8.1999999999999995e-01 -1.2328897863139431e+01 -1.4698842766793362e+01 1.8743023160441812e+00 1 1 0
2033 678 2 4.0999999999999998e-01 -1.4479447284473961e+01 -1.3393425227759858e+01 5.5884347008225159e+00 1 1 -2
919 307 1 -8.1999999999999995e-01 -1.4876240710694049e+01 -6.6678930483562251e+00 2.9494863520318848e+00 2 -1 0
2431 811 1 -8.1999999999999995e-01 -1.0332703145209541e+01 -7.1939613736759433e+00 3.6773127766551230e+00 -1 -2 -1
992 331 2 4.0999999999999998e-01 -1.3157107897695049e+01 -7.4790207993570599e+00 1.5471975788472836e+00 0 1 -1
2433 811 2 4.0999999999999998e-01 -1.1122893498635486e+01 -7.2136650608052291e+00 3.0647756850252694e+00 -1 -2 -1
121 41 1 -8.1999999999999995e-01 -1.0145352247031049e+01 -1.0023426709100907e+01 2.4528676877940594e+00 1 1 -1
122 41 2 4.0999999999999998e-01 -1.0446024322734301e+01 -9.0868973863936855e+00 2.2725903727701020e+00 1 1 -1
123 41 2 4.0999999999999998e-01 -1.0033553315420047e+01 -1.0153799014713609e+01 3.4380046595191924e+00 1 1 -1
188 63 2 4.0999999999999998e-01 -1.4400160531104312e+01 -1.0586541079862515e+01 3.9266583815137874e+00 1 -1 0
482 161 2 4.0999999999999998e-01 -8.2943976988500712e+00 -6.5132349272623511e+00 6.2188244515226128e+00 1 -2 -1
1685 562 2 4.0999999999999998e-01 -8.2689992149822036e+00 -5.9716054519326836e+00 1.5537497157811000e+00 1 2 0
189 63 2 4.0999999999999998e-01 -1.3388309520135603e+01 -1.1732579581116102e+01 3.3527636082854730e+00 1 -1 0
1684 562 1 -8.1999999999999995e-01 -7.8473582879175847e+00 -6.7413220440453347e+00 2.0330680812234210e+00 1 2 0
993 331 2 4.0999999999999998e-01 -1.1766610352862548e+01 -7.5924241706003377e+00 6.9851735020495553e-01 0 1 -1
187 63 1 -8.1999999999999995e-01 -1.4331563351215506e+01 -1.1536005248868877e+01 3.6203855964375027e+00 1 -1 0
55 19 1 -8.1999999999999995e-01 -1.0206759148043774e+01 -1.0349910942130830e+01 5.1799354653739851e+00 2 0 -1
57 19 2 4.0999999999999998e-01 -1.1138341300335830e+01 -1.0319648749369829e+01 5.5421918053336423e+00 2 0 -1
376 126 1 -8.1999999999999995e-01 -9.7959461086758068e+00 -1.3065788777281313e+01 4.9005553447306642e+00 2 1 -1
1925 642 2 4.0999999999999998e-01 -8.0213832816885002e+00 -1.4178126662091033e+01 2.0347615971682398e+00 2 0 0
170 57 2 4.0999999999999998e-01 -1.4431359322646157e+01 -8.3141123419513008e+00 4.2532586085012074e+00 2 1 -2
1366 456 1 -8.1999999999999995e-01 -1.1711960850330673e+01 -1.2252058106181929e+01 3.0907935929487937e+00 1 1 0
1367 456 2 4.0999999999999998e-01 -1.1252738898327925e+01 -1.2673988716354511e+01 3.8725100103596493e+00 1 1 0
1087 363 1 -8.1999999999999995e-01 -9.8196918034071121e+00 -5.9601968811566302e+00 6.2202845934494047e+00 2 0 -1
1935 645 2 4.0999999999999998e-01 -1.1229268819645123e+01 -1.2252788433547376e+01 1.8030540876815593e-01 1 0 -1
378 126 2 4.0999999999999998e-01 -1.0251966280662781e+01 -1.3799886960878435e+01 5.4036818170684686e+00 2 1 -1
1368 456 2 4.0999999999999998e-01 -1.1153721748774142e+01 -1.1498772634926093e+01 2.7430567359563351e+00 1 1 0
2034 678 2 4.0999999999999998e-01 -1.3442036766544817e+01 -1.4590771820838290e+01 5.1925275990013287e+00 1 1 -2
2280 760 2 4.0999999999999998e-01 -1.3356953407591217e+01 -9.9681764181449637e+00 5.7956784906561456e+00 3 -1 -2
2278 760 1 -8.1999999999999995e-01 -1.2788957343983622e+01 -1.0040520958097265e+01 6.6155184382560339e+00 3 -1 -2
2279 760 2 4.0999999999999998e-01 -1.3189298245226389e+01 -1.0710886739213640e+01 7.2402805270463535e+00 3 -1 -2
1088 363 2 4.0999999999999998e-01 -9.9864564095395174e+00 -6.5928676662206875e+00 5.4640385839205674e+00 2 0 -1
377 126 2 4.0999999999999998e-01 -8.9166702210200839e+00 -1.3394315036444874e+01 4.5556855103368310e+00 2 1 -1
56 19 2 4.0999999999999998e-01 -9.9075912603217908e+00 -1.1301441802889155e+01 5.1086730253700505e+00 2 0 -1
1421 474 2 4.0999999999999998e-01 -9.0770575551144823e+00 -1.3562431139720733e+01 2.2762819595295447e-01 1 0 0
1924 642 1 -8.1999999999999995e-01 -8.1232617554778521e+00 -1.4315446535018356e+01 3.0200305237517231e+00 2 0 0
2032 678 1 -8.1999999999999995e-01 -1.4339614636953755e+01 -1.4192448479216576e+01 5.0036275112052291e+00 1 1 -2
1670 557 2 4.0999999999999998e-01 -8.2513810061002140e+00 -1.0633806391602164e+01 2.0612155141707387e+00 1 0 -2
2566 856 1 -8.1999999999999995e-01 -1.1569997095830722e+01 -1.5096707004603577e+01 6.3419386436281311e+00 2 3 -1
2567 856 2 4.0999999999999998e-01 -1.1453742605095846e+01 -1.4634610597579805e+01 7.2211101464486394e+00 2 3 -1
2150 717 2 4.0999999999999998e-01 -1.3062265636039751e+01 -1.3582503000440001e+01 6.8262623397182054e-01 0 1 -1
2073 691 2 4.0999999999999998e-01 -8.1222976684703223e+00 -9.4572978158081380e+00 6.7491640615862085e+00 1 1 1
875 292 2 4.0999999999999998e-01 -7.9250726267003708e+00 -7.7925880389429203e+00 4.5719954519851136e-01 2 0 0
169 57 1 -8.1999999999999995e-01 -1.4558426346134144e+01 -9.1038015418704052e+00 4.8534550281526503e+00 2 1 -2
2432 811 2 4.0999999999999998e-01 -9.6335461290003490e+00 -6.5866726811686913e+00 3.2999923790941796e+00 -1 -2 -1
1068 356 2 4.0999999999999998e-01 -1.3880162085964182e+01 -5.4395156838822079e+00 3.9187253029467666e+00 1 -2 -1