2611
Atoms. Timestep: 4998000
O 7.98151 -0.0835334 -9.30217
H 8.63169 -0.284584 -10.0348
H 7.17938 0.37482 -9.68486
O -8.60866 7.25579 10.7896
H -8.53605 6.28594 10.5571
H -9.29735 7.37649 11.5045
O -3.92123 -5.67576 1.56457
H -4.06706 -6.58604 1.95196
H -3.66015 -5.76064 0.603023
O -2.94636 5.65249 -3.6747
H -3.93577 5.77459 -3.59651
H -2.49593 6.0661 -2.8835
O -7.53984 -6.10384 7.96001
H -6.75121 -5.73849 7.4655
H -8.15336 -6.56215 7.31698
O -2.97766 9.95506 2.9775
H -2.12446 9.43541 3.02178
H -3.0329 10.5726 3.76207
O 13.3806 -10.7397 8.82875
H 12.6389 -10.7865 8.15967
H 13.3036 -11.5064 9.46597
O -14.5548 11.1491 -5.10492
H -13.8619 11.6694 -4.60587
H 14.8457 10.8406 -4.46895
O -4.5326 2.71471 -9.45967
H -5.33636 3.29257 -9.60109
H -4.32998 2.65902 -8.48203
O 4.17133 -5.53565 -2.38839
H 3.76442 -5.65239 -1.48243
H 3.65634 -4.84705 -2.89885
O -8.49795 -6.95085 -10.093
H -8.93514 -6.16189 -10.5247
H -8.33049 -7.65694 -10.781
O -7.64747 -8.98526 7.02262
H -6.8185 -8.57597 6.64153
H -8.43565 -8.41229 6.79808
O -11.5053 9.55739 11.0052
H -10.5825 9.54004 10.6203
H -11.8041 10.5057 11.1118
O 13.3934 -1.0372 -5.48534
H 13.3484 -1.93814 -5.0538
H 12.9787 -0.357019 -4.88094
O 9.22406 -12.9958 -11.7991
H 8.6509 -13.1973 -12.5933
H 9.76283 -12.1724 -11.9772
O 5.784 -2.76377 3.25843
H 6.26242 -1.9539 2.91904
H 4.97709 -2.48127 3.77712
O 0.564202 11.2287 8.83322
H -0.143324 11.7698 9.28767
H 1.17499 11.837 8.32641
O 3.26763 0.983054 -11.7667
H 3.02102 1.9284 -11.9799
H 3.56421 0.922791 -10.8137
O -11.531 -2.05081 8.58275
H -12.3363 -2.51956 8.94578
H -11.2996 -2.43081 7.6872
O 2.76585 3.30352 -14.5936
H 3.5282 2.6657 -14.4844
H 2.74485 3.63966 14.5726
O -8.94186 9.32772 -3.51581
H -9.87274 9.64925 -3.3425
H -8.67004 9.57882 -4.44479
O -0.0262792 7.61537 -3.28101
H -0.580455 7.2092 -2.55447
H -0.527781 7.57443 -4.14516
O 15.0353 -7.36132 13.444
H -14.1641 -7.13044 13.0957
H 14.913 -8.35359 13.4241
O -6.73482 2.48554 -2.60315
H -7.2003 1.79088 -2.05477
H -6.66131 2.16941 -3.54899
O -4.13739 11.6713 -2.96853
H -4.7782 11.4013 -3.68714
H -3.24791 11.8786 -3.37576
O 9.02898 -13.0604 7.22265
H 9.47739 -13.346 6.37573
H 8.75754 -13.8687 7.74509
O -12.9426 6.56769 2.74689
H -12.2075 6.05995 2.29761
H -12.598 7.45702 3.0474
O 2.93884 8.45619 -6.40322
H 3.6007 9.05726 -6.8511
H 2.06203 8.92961 -6.31944
O 12.4188 2.85914 5.14681
H 11.487 2.5161 5.02848
H 12.5594 3.11953 6.10201
O -6.05603 14.3707 -6.3481
H -5.77336 13.4238 -6.19512
H -6.08878 14.8542 -5.47341
O 1.45801 -2.0266 13.7788
H 1.12618 -2.39653 12.9111
H 2.02148 -2.71219 14.2397
O 4.43923 -3.44691 -13.179
H 4.88212 -4.26403 -12.81
H 5.08115 -2.68053 -13.1555
O -6.95945 2.37019 6.47628
H -7.34518 3.1313 6.99768
H -7.60881 2.08654 5.77071
O 13.2714 -0.748095 7.15531
H 13.3286 -0.920841 8.13859
H 13.2169 0.237044 6.99259
O 14.8519 7.02259 -12.2989
H 14.9242 7.30227 -11.3415
H 14.3215 7.70227 -12.8055
O 4.80957 11.8139 -6.18674
H 4.88223 10.8348 -6.37654
H 5.71998 12.1874 -6.00909
O 6.62936 -5.87762 -6.15962
H 6.35576 -4.9762 -6.49509
H 6.17604 -6.58619 -6.70034
O 6.1553 0.728784 -4.64571
H 5.19501 0.891394 -4.8723
H 6.27362 0.760766 -3.65328
O -6.97724 12.0478 11.0728
H -7.46937 12.9181 11.0536
H -6.12841 12.1333 10.5512
O 0.333054 4.67014 -6.38586
H 0.840217 3.80858 -6.40714
H 0.832669 5.33745 -5.83357
O -2.69382 -1.40136 -11.3614
H -3.09859 -1.73853 -10.5114
H -2.92945 -0.437216 -11.4833
O 10.9988 10.5042 3.74009
H 10.4522 11.1557 4.26611
H 11.3335 9.78335 4.34702
O -11.5818 1.51536 -10.8582
H -12.5788 1.44625 -10.8245
H -11.3214 2.32076 -11.3906
O 6.46221 1.55969 -10.8013
H 6.77556 2.04411 -11.618
H 5.82086 2.13751 -10.2966
O 11.6053 -9.27035 3.73545
H 12.2351 -10.0267 3.55833
H 11.9171 -8.7574 4.53522
O 0.317644 -11.3191 2.73246
H -0.323554 -11.2639 3.49781
H 0.865618 -12.1514 2.81611
O -6.37876 13.008 1.78844
H -6.6512 12.2375 2.36471
H -5.43969 12.8724 1.4727
O -10.8528 12.9371 14.2026
H -10.6104 11.996 14.438
H -10.7682 13.5159 15.0137
O -9.07191 -10.3549 0.855995
H -9.41379 -11.2946 0.864282
H -9.8141 -9.73238 0.607862
O -13.029 2.90224 -3.64948
H -13.5706 3.38345 -4.33869
H -13.1648 1.91639 -3.74749
O -14.4697 -6.14352 -3.87595
H -14.5734 -5.50824 -4.64119
H -14.5339 -5.6405 -3.0141
O 11.7105 11.5545 -13.3658
H 11.0348 11.3831 -14.0827
H 12.623 11.6013 -13.7722
O 5.47766 -8.35663 -7.87523
H 4.6154 -8.73152 -7.53478
H 5.28936 -7.68636 -8.59303
O -12.7124 11.886 10.7047
H -12.5126 12.5412 9.97622
H -12.974 12.3794 11.5342
O 0.493511 2.03994 -10.3703
H 0.551278 1.20031 -10.9103
H 1.01617 2.76316 -10.8216
O -14.3761 12.5667 2.65983
H -13.5879 12.0109 2.92391
H 14.9291 11.9793 2.55706
O -13.5884 -15.0029 2.28515
H -13.8421 14.1459 2.41077
H -12.659 -14.949 1.92001
O -4.1134 6.06012 6.02793
H -4.57687 5.23622 5.70184
H -3.80874 5.9204 6.97005
O 2.25238 9.12791 -9.47132
H 2.05975 8.31496 -8.92181
H 1.491 9.29491 -10.0977
O 11.4387 -11.9533 1.4882
H 11.3886 -11.173 0.864795
H 12.119 -11.7698 2.19778
O 11.3499 3.78121 13.4183
H 10.7622 4.57982 13.2888
H 12.2988 4.07906 13.5227
O 9.7632 3.92078 -9.34838
H 10.525 3.88154 -8.70179
H 9.41674 4.85746 -9.3988
O -12.5601 -4.26829 -8.79218
H -12.7943 -4.93862 -9.49629
H -12.811 -3.35288 -9.10688
O -1.26799 14.9661 12.2866
H -1.73307 14.3389 12.9113
H -0.816149 -14.4213 12.8127
O 0.0687461 -2.4653 11.2385
H 0.773885 -2.51975 10.5316
H -0.472166 -1.63469 11.1065
O -0.491318 8.35505 0.703226
H -0.543125 8.74416 1.62293
H -0.928627 8.97654 0.053257
O 8.34326 13.8715 -1.53935
H 8.45756 12.8831 -1.43889
H 7.78952 14.0623 -2.34985
O -2.34855 -12.3091 -1.41474
H -2.67122 -11.3635 -1.37484
H -1.45098 -12.3737 -0.978673
O -4.32523 5.1409 -11.2158
H -4.10405 4.28312 -10.7519
H -5.30351 5.32673 -11.1243
O -8.32555 12.2207 -2.63306
H -8.53511 11.3501 -3.07824
H -8.22348 12.9337 -3.3267
O -13.8346 1.04859 3.33078
H -13.8182 0.185179 2.8266
H -13.9558 1.80655 2.68989
O 8.00854 -4.52341 7.17003
H 7.42238 -4.31774 7.95365
H 8.03553 -5.51236 7.02445
O 4.84616 3.66797 -10.5758
H 5.50851 4.4059 -10.7051
H 3.9404 3.97888 -10.8638
O 4.64176 -10.0666 -3.15935
H 5.32774 -9.36422 -2.96954
H 5.01103 -10.7244 -3.81579
O 5.75877 -0.997642 -13.0218
H 6.51972 -0.66414 -12.4653
H 4.9258 -0.500057 -12.7799
O 11.9411 5.82059 -11.5052
H 11.9218 5.78975 -10.5059
H 12.4006 5.00421 -11.8551
O -10.8432 -9.45873 -12.709
H -10.8414 -9.29596 -13.6956
H -11.7749 -9.36694 -12.3577
O -11.4635 -4.47863 1.29303
H -12.0404 -5.26818 1.08381
H -11.1926 -4.02891 0.441966
O 7.91296 -10.9479 11.5927
H 8.66943 -10.5831 12.1355
H 7.36061 -11.5592 12.1594
O -2.16244 -15.0121 -2.37588
H -1.55236 14.8788 -3.13792
H -2.25716 -14.0198 -2.29678
O 0.607953 -8.33115 14.7239
H 0.0020212 -7.90839 -14.71
H 0.682822 -7.73644 13.9235
O 0.703608 0.290213 -14.983
H 0.899736 -0.574416 14.6624
H 0.969307 1.05198 14.5341
O -7.9059 -10.1509 9.22083
H -8.53017 -10.932 9.23164
H -7.85185 -9.78021 8.29368
O -1.56922 10.31 -1.00608
H -1.43474 11.2707 -0.763123
H -1.87218 10.246 -1.9569
O 9.44318 10.0158 1.33272
H 9.24211 9.05306 1.15204
H 10.0269 10.0883 2.14142
O -1.03651 -14.7687 -4.9933
H -1.77959 14.8485 -5.44837
H -0.896511 -13.8858 -5.44136
O -12.924 -10.4504 -5.42107
H -13.9177 -10.3452 -5.38327
H -12.637 -11.1443 -4.76068
O 12.0487 0.439736 -9.06312
H 11.9621 -0.269148 -8.36317
H 11.1828 0.530081 -9.55499
O -3.07829 2.21113 -6.92423
H -3.03773 3.13931 -6.55438
H -2.19608 1.97604 -7.33213
O -12.6588 -14.9218 -10.4633
H -12.03 -14.8071 -11.2323
H -12.3253 -14.3987 -9.67906
O 0.397695 -10.1744 -4.70929
H -0.513028 -10.1786 -4.29636
H 0.537883 -9.31354 -5.19844
O -10.6195 12.6313 -0.923506
H -11.2088 11.8905 -0.601296
H -9.75264 12.2514 -1.24626
O -15.0488 -7.40376 -7.21874
H 14.8493 -7.66732 -8.16027
H -14.239 -7.90027 -6.9062
O -8.79597 -1.88145 -7.99412
H -9.38639 -1.41506 -7.33546
H -9.25802 -2.70035 -8.33448
O -7.90193 4.73757 13.6415
H -7.20437 5.45304 13.6032
H -7.72295 4.05905 12.9291
O -5.30777 -5.16168 6.98038
H -4.63767 -4.94795 6.26959
H -5.46688 -4.35058 7.54319
O 0.501345 12.3937 -14.978
H 0.104922 11.8847 14.3658
H 1.36376 12.8097 14.8415
O 9.37142 6.17259 12.6776
H 9.07052 5.4874 12.0143
H 8.75483 6.16772 13.4648
O -8.41835 7.64623 -9.82003
H -7.94865 8.52786 -9.77473
H -8.90387 7.57162 -10.691
O -9.58245 14.606 8.18773
H -9.54887 14.7962 7.20657
H -10.5209 14.7132 8.51607
O -3.09486 1.26824 -11.4092
H -3.75546 1.66912 -10.7745
H -2.1793 1.60995 -11.1973
O 12.9471 9.71114 11.0843
H 13.0253 8.86255 10.5611
H 12.0639 10.1397 10.8943
O 11.4424 -10.6273 -12.0016
H 12.0129 -10.1969 -12.701
H 11.0397 -9.92138 -11.419
O 1.5519 -2.41034 8.58362
H 2.22891 -1.87899 9.0928
H 2.01805 -2.99683 7.92129
O 4.68631 4.23102 7.45741
H 5.42428 3.72847 7.00708
H 4.23217 3.63444 8.11907
O -11.8317 -12.4551 -3.91606
H -11.9297 -13.2752 -4.47975
H -10.8931 -12.1163 -3.98093
O -3.81486 11.9917 1.1432
H -3.08888 12.2595 0.50978
H -3.41654 11.503 1.91932
O -1.32477 4.71151 -9.4429
H -1.96379 4.60346 -8.68138
H -0.824978 3.85671 -9.58247
O -11.7107 -5.4619 3.8068
H -12.477 -5.10249 4.33929
H -11.7102 -5.0429 2.89885
O 11.0742 13.7875 -5.91575
H 10.7329 14.4866 -6.54405
H 12.0623 13.6878 -6.03301
O -5.46793 -7.87062 5.93785
H -5.3269 -6.98733 6.38492
H -4.59516 -8.35433 5.87273
O -1.52347 -0.225767 10.542
H -2.49398 -0.0380445 10.693
H -1.03697 0.634854 10.3917
O 14.3086 -12.6059 -7.41478
H 13.9162 -13.4273 -7.82867
H 13.6767 -12.2435 -6.72963
O 3.62372 -5.96268 0.417122
H 4.47744 -5.49549 0.64699
H 2.94403 -5.78407 1.1285
O -12.6722 0.256625 -4.05798
H -13.3729 -0.0304124 -4.71113
H -12.7845 -0.25131 -3.20397
O 11.4129 7.09362 14.2256
H 12.2874 7.09301 13.7408
H 10.6873 6.79712 13.6047
O -0.767236 9.76701 6.05636
H -0.39394 9.02481 6.61289
H -1.57106 10.1519 6.5099
O 8.77055 2.36038 8.22153
H 9.65124 2.72524 7.91954
H 8.72419 1.38404 8.01041
O 8.65993 -0.910582 0.0368359
H 9.58571 -0.548336 0.144833
H 8.27012 -0.578392 -0.822027
O 0.0753208 -7.66533 -5.69891
H 0.687095 -6.96877 -6.07371
H -0.593552 -7.9301 -6.3935
O 14.7364 -4.33996 8.0692
H 13.8511 -4.57569 8.46999
H 14.5932 -3.85648 7.20567
O 14.0849 11.4434 7.76594
H 14.7629 10.7806 8.08333
H 13.6023 11.0727 6.97247
O 13.4177 -1.74951 -10.4313
H 13.2203 -2.70877 -10.2293
H 12.5972 -1.20004 -10.2739
O -7.34399 4.31077 -0.586663
H -6.83924 4.11055 -1.42635
H -7.13096 3.61898 0.103269
O -3.41795 -14.6934 5.90707
H -2.62436 14.8079 5.85871
H -4.16317 15.0324 5.36055
O 13.498 9.10914 -13.9098
H 12.5464 8.80399 -13.8725
H 13.6411 9.65414 -14.7359
O -5.90968 13.0748 6.24408
H -5.36942 13.1011 7.08513
H -6.83137 12.7462 6.45012
O -3.82138 -2.57154 -9.29868
H -4.7714 -2.88359 -9.29236
H -3.40304 -2.75907 -8.40999
O -10.0854 -1.83474 -4.83654
H -10.734 -1.9971 -4.09297
H -9.1888 -2.19703 -4.58184
O 8.17633 -13.1408 -14.5589
H 7.92042 -14.0056 -14.1268
H 8.7039 -13.3257 14.7198
O 7.57143 11.5961 2.32926
H 8.18101 10.8444 2.07781
H 8.05568 12.4654 2.22992
O -3.40137 -8.60391 -5.83219
H -4.27402 -9.00988 -5.56087
H -2.66348 -9.00764 -5.29139
O 8.0325 6.01674 -14.719
H 7.20791 5.48239 -14.5333
H 8.41526 6.34931 -13.8571
O 11.6655 14.1603 12.7213
H 11.994 14.6263 13.5428
H 12.4001 13.5991 12.3402
O 5.04974 -6.01069 -9.2244
H 4.19619 -5.49815 -9.13102
H 5.45886 -5.81719 -10.1161
O -0.178698 4.44918 5.65786
H 0.781205 4.63109 5.87103
H -0.388644 4.79602 4.74376
O -12.4354 12.4226 -9.92484
H -12.3819 13.1929 -10.5602
H -12.5258 12.7669 -8.99037
O 7.09129 -12.6022 -2.11189
H 6.81511 -12.3259 -1.19137
H 7.90274 -13.1839 -2.05593
O 0.24753 7.89593 12.6834
H -0.133059 8.23091 11.8215
H -0.444636 7.36096 13.1678
O -4.89728 -5.37924 -14.7822
H -5.793 -5.47813 14.8922
H -4.96882 -4.74896 -14.0091
O -9.06696 10.6369 9.66308
H -9.61244 11.2344 10.2507
H -8.09576 10.8335 9.79751
O 7.47123 -9.99642 9.07937
H 7.01795 -10.6173 8.4398
H 7.5474 -10.4367 9.97394
O 5.57284 -8.24099 0.498161
H 5.2046 -7.47666 -0.0311219
H 5.4121 -8.08017 1.47194
O -13.9712 -2.87901 10.1088
H -13.4814 -3.31764 10.8622
H -14.2711 -3.57486 9.4563
O 3.30606 0.210674 9.01659
H 4.20462 0.467239 8.66064
H 3.41603 -0.256266 9.89398
O 9.08842 -2.08556 14.3609
H 9.00514 -1.65064 13.4643
H 9.11037 -3.07898 14.2487
O 7.18478 12.0015 11.3924
H 8.04127 12.3921 11.055
H 7.37865 11.3753 12.1475
O 8.74227 4.40002 10.1357
H 8.36791 3.65117 9.58886
H 8.71934 5.24578 9.60268
O -11.4438 -13.2107 -8.71907
H -10.5979 -12.981 -8.23767
H -12.135 -12.5134 -8.52961
O -7.61567 -5.17976 15.0426
H -8.2638 -5.46088 14.3349
H -7.98494 -5.40956 -14.1648
O 2.289 -1.25137 -7.89339
H 2.65247 -1.95221 -8.50711
H 1.3088 -1.39928 -7.76192
O 3.19032 7.32919 8.34574
H 2.98923 7.17926 7.37774
H 4.17752 7.27091 8.49401
O 4.90795 6.09429 10.1858
H 5.1164 5.43523 10.9084
H 3.9345 6.32151 10.2126
O -10.5281 -12.332 15.0528
H -10.3871 -12.68 14.126
H -10.232 -11.378 -15.0086
O 11.4641 3.78736 8.03994
H 12.3128 3.30912 8.26557
H 11.6083 4.77425 8.11209
O -14.4749 9.02833 0.180596
H -14.1448 8.18082 -0.234998
H 14.6358 9.06567 0.114449
O -8.66215 -14.2977 -1.88481
H -9.31383 -13.6707 -1.45806
H -8.42386 -15.0219 -1.23781
O 0.710539 7.23882 -8.27729
H -0.0456392 7.89234 -8.30977
H 0.361294 6.3165 -8.4425
O -9.09962 -7.45668 9.87789
H -9.05665 -6.82069 9.10743
H -8.66135 -8.3187 9.62335
O -5.82814 6.00231 -7.75517
H -6.09833 5.31715 -7.07878
H -6.27179 5.8015 -8.62855
O -9.63893 3.7884 -4.21322
H -8.72908 4.06757 -4.52011
H -10.3304 4.18287 -4.81837
O -7.08055 8.61777 -15.0167
H -6.39137 9.25909 14.7539
H -6.76038 7.68075 14.9518
O 5.95433 6.78242 7.49134
H 5.86961 7.19136 6.58275
H 5.51167 5.88577 7.49587
O 14.4132 0.853672 -10.5687
H 14.4799 -0.104759 -10.846
H 13.8879 0.919397 -9.72034
O -0.29075 -1.80512 -7.64171
H -0.419499 -2.61284 -7.06642
H -0.18465 -2.08828 -8.59487
O 12.0395 14.2168 -1.23008
H 11.585 13.61 -0.577982
H 12.9653 14.4171 -0.909593
O -11.3744 -1.11078 12.1931
H -10.6144 -1.09117 11.5436
H -12.1644 -0.64361 11.796
O 7.055 13.5971 -4.10576
H 7.72449 13.8577 -4.80134
H 6.42461 14.3573 -3.94856
O -10.2866 -9.70465 -5.2681
H -11.2626 -9.91799 -5.31138
H -9.92622 -9.60316 -6.19532
O -13.0615 -4.87194 -14.7509
H -13.7907 -5.34165 -14.2533
H -13.4633 -4.26511 14.6711
O -3.58893 -1.99411 14.936
H -2.78764 -1.44479 14.6991
H -4.36666 -1.3906 -14.9961
O -10.1909 6.10155 14.2266
H -10.116 6.78901 14.9489
H -9.32763 5.60258 14.1505
O 14.0909 -8.00217 8.91709
H 13.274 -7.51621 8.60655
H 13.8837 -8.97589 9.01151
O 0.205891 -5.66653 7.3114
H 0.737718 -5.87105 8.13315
H -0.616421 -5.15708 7.56479
O -14.304 -14.8973 -5.65957
H -14.2726 -14.5844 -4.71033
H -14.2244 -14.1111 -6.27244
O 14.1701 3.72561 9.94945
H 13.5377 4.23299 10.5348
H -14.9985 3.89604 10.2471
O 14.9737 7.58947 -9.65795
H 14.6171 8.5181 -9.55573
H 14.2526 6.93024 -9.44481
O 11.4161 9.04519 -8.64269
H 12.1736 9.25491 -9.26084
H 11.4408 9.66906 -7.86159
O 0.925515 9.78886 -5.06279
H 0.896698 9.22206 -4.23947
H 1.42328 10.6341 -4.86831
O 11.9577 -3.42046 9.04833
H 12.7184 -2.83058 9.31884
H 11.3752 -3.59806 9.84154
O 13.3334 0.922326 3.27957
H 13.3643 1.36093 4.1777
H 13.634 1.57168 2.58103
O 2.14124 -11.2831 -2.98615
H 2.95209 -10.7122 -2.85765
H 1.43027 -10.7531 -3.4483
O 8.97299 10.8701 -2.0447
H 9.35053 10.8762 -2.97064
H 8.0256 11.1892 -2.06893
O 6.05319 1.06832 9.35485
H 6.42438 0.141053 9.30641
H 6.7556 1.72346 9.07672
O 7.95881 6.73866 4.15635
H 8.79846 6.26807 4.42743
H 7.8399 7.55789 4.7173
O 9.6455 -0.755043 11.5299
H 9.74308 0.229736 11.3862
H 10.5351 -1.1476 11.7632
O -10.0399 1.16767 0.881999
H -10.9958 1.08894 0.599067
H -9.73067 0.294311 1.25822
O 9.40226 -5.0739 -2.90332
H 8.55912 -4.74558 -2.47756
H 9.31962 -5.0115 -3.89792
O 9.68097 2.52651 4.0314
H 9.4652 1.55279 4.10397
H 9.07344 2.9535 3.36167
O 9.28155 8.03166 -1.70251
H 9.1798 9.02267 -1.6159
H 9.82223 7.68392 -0.936551
O 2.77482 3.88771 12.5836
H 2.77953 4.83832 12.2733
H 3.55312 3.403 12.1845
O -4.86448 9.65712 13.7097
H -4.89353 9.50378 12.7219
H -3.93908 9.48408 14.0467
O -11.4629 -11.2379 6.80339
H -10.9331 -10.5191 6.35333
H -12.4168 -11.1832 6.50842
O -8.68755 8.66801 7.51063
H -8.84206 7.75537 7.13224
H -9.04376 8.70644 8.44421
O -1.61105 13.275 -0.211518
H -0.871278 13.2953 0.460993
H -1.54553 14.0782 -0.803446
O -4.11785 -3.89162 -3.28469
H -4.03247 -4.0434 -4.26938
H -3.36084 -4.34183 -2.81119
O -3.90125 7.45497 1.97611
H -3.71378 8.41788 2.17007
H -4.13948 7.34969 1.01065
O 8.94142 -12.8999 -6.99026
H 9.66195 -12.7864 -7.67429
H 8.08299 -13.1347 -7.44622
O 13.5938 6.4827 -3.04921
H 13.393 7.32817 -3.54401
H 12.8735 6.31079 -2.37715
O -14.0485 0.988016 -13.0923
H -14.7348 1.32502 -12.4478
H -13.511 1.75666 -13.439
O -15.025 14.0157 -0.189353
H -14.8827 13.1105 -0.589729
H -15.0112 13.945 0.808017
O 6.03921 8.53342 11.5777
H 5.67254 7.63835 11.324
H 5.75029 9.21474 10.9051
O -7.23568 9.74924 1.4132
H -6.79974 10.2517 0.666603
H -6.85657 8.82506 1.45898
O -3.73341 -3.41762 -12.8213
H -3.59603 -3.20235 -13.7881
H -3.38465 -2.66719 -12.2599
O -8.7593 -9.81366 -8.03806
H -9.64146 -9.61955 -8.46707
H -8.02897 -9.38255 -8.56787
O 11.588 -2.35776 1.16329
H 11.4158 -3.17505 1.71314
H 11.3883 -2.55378 0.203253
O 6.73054 -4.08958 -2.36501
H 5.98342 -4.68687 -2.65656
H 6.87335 -4.19077 -1.38048
O -7.56021 4.46172 8.10086
H -7.84268 5.19377 7.48096
H -8.20083 4.40782 8.86678
O 7.02102 -9.52415 3.72353
H 7.75547 -9.75244 3.08446
H 6.54148 -8.70759 3.40226
O 14.5172 4.39071 13.4174
H 14.8547 3.47031 13.2201
H 14.3767 4.49009 14.4025
O -7.405 -5.18965 3.76919
H -6.8641 -5.9643 3.44162
H -7.29331 -4.41711 3.14416
O 2.35139 -4.34745 -3.94706
H 1.84909 -4.40105 -4.81006
H 2.13591 -3.48508 -3.48899
O -1.43444 13.8104 -13.5121
H -1.19327 14.763 -13.6975
H -0.916843 13.2108 -14.1224
O -13.7921 -1.49869 -9.43898
H -13.8909 -1.29534 -8.4649
H -14.6943 -1.5104 -9.87021
O 11.9787 -0.827462 12.7528
H 12.7252 -0.285446 12.3668
H 11.4763 -0.276155 13.4188
O 2.51113 -11.4067 5.70024
H 1.74225 -10.8473 6.00983
H 3.29565 -10.8174 5.5073
O -12.4646 12.4704 -4.0036
H -13.0259 12.9706 -3.34429
H -11.5621 12.8967 -4.06417
O -11.8848 8.30609 -7.13611
H -12.3445 7.62151 -7.70182
H -12.0064 8.0766 -6.17045
O 5.39475 9.47608 -12.7045
H 5.50896 10.4691 -12.7326
H 6.10828 9.0428 -13.2551
O 15.0468 -6.96461 2.97215
H -14.3979 -6.4157 3.48093
H 14.7883 -6.48327 2.13461
O 12.0691 3.23536 -8.08577
H 11.983 3.26827 -7.09005
H 12.1646 2.28468 -8.38082
O 13.6676 6.98713 12.613
H 13.946 6.08242 12.9354
H 14.4538 7.60468 12.6332
O -5.62715 15.0534 4.11564
H -6.15912 14.6104 4.83723
H -5.87473 14.6606 3.23003
O -14.0713 5.92876 -7.4104
H -13.7043 5.43439 -8.19831
H -14.7376 6.60588 -7.72265
O 11.7093 -12.7448 10.1023
H 11.2496 -11.9918 9.63149
H 11.6607 -13.5695 9.53878
O 6.36264 9.4788 7.965
H 7.16544 9.49713 7.36908
H 6.17862 8.53736 8.24744
O 10.9624 -14.5648 -3.37724
H 10.8815 14.7427 -3.97125
H 11.2096 -14.8587 -2.45392
O 2.13362 -8.77653 3.11442
H 2.01267 -9.73605 2.86017
H 1.55072 -8.56346 3.89849
O -6.44953 2.59997 1.45483
H -6.74498 1.75914 1.90833
H -5.4911 2.77924 1.67667
O -12.8168 -1.86325 -5.93861
H -13.3898 -1.06546 -6.12608
H -11.8693 -1.57037 -5.81046
O 4.87059 -7.60193 3.05182
H 3.95936 -7.9895 3.19106
H 4.87962 -6.65153 3.36262
O 10.5298 6.93685 7.01105
H 10.4215 6.37718 6.18947
H 9.68868 6.90275 7.55083
O -3.77211 12.5711 8.02207
H -3.94781 12.6367 9.0043
H -3.6479 11.6117 7.76906
O 9.21631 -7.0211 12.3238
H 10.1148 -7.44873 12.2251
H 8.50783 -7.72661 12.3076
O 4.69843 2.08291 11.6332
H 5.16502 1.57623 10.9083
H 4.32321 1.43994 12.3008
O -13.2296 12.8856 -7.27606
H -12.9923 12.2273 -6.5617
H -13.1544 13.8139 -6.91217
O 10.3291 -6.97017 -9.9437
H 9.71082 -6.22539 -9.69275
H 10.1754 -7.74979 -9.33663
O 13.1891 1.10194 10.8034
H 13.7268 1.61218 10.1323
H 12.2829 1.5161 10.8888
O -0.861107 -5.52837 3.53234
H -0.0637467 -5.35795 2.95345
H -1.2192 -6.44315 3.34554
O 3.0073 -13.8388 -2.92958
H 2.73363 -12.8776 -2.89541
H 3.56146 -14.0563 -2.12612
O -11.2211 -8.82085 -8.42733
H -11.2726 -7.85517 -8.17286
H -11.9097 -9.01895 -9.12477
O -8.66341 -5.92893 -12.7318
H -9.55751 -5.60285 -13.0388
H -8.09827 -5.14884 -12.4635
O 5.1181 -3.9729 11.1982
H 5.3764 -3.60493 12.0914
H 4.38545 -4.64367 11.3132
O 9.02306 -2.1498 -2.98149
H 8.12733 -2.59384 -3.003
H 9.39991 -2.11457 -3.90707
O 11.9405 0.506526 -3.28931
H 11.0342 0.782301 -2.96921
H 12.4746 1.32006 -3.51936
O -12.107 10.435 -0.0862307
H -12.9854 9.99006 0.0883494
H -11.3765 9.91612 0.357706
O -11.5707 2.63341 12.2291
H -12.041 1.8861 11.7598
H -11.8189 2.6273 13.1978
O -14.8654 7.16059 6.91886
H -14.4839 6.93909 7.81628
H -14.7254 8.13211 6.72777
O 11.0602 -7.73084 1.29806
H 10.9099 -8.40837 0.578133
H 11.5873 -8.14455 2.04034
O 11.1297 -2.96594 -1.38
H 10.4437 -2.43903 -1.88176
H 11.3853 -3.7728 -1.91253
O -4.50342 8.10447 -0.688964
H -4.69454 9.07591 -0.548553
H -5.28797 7.67112 -1.13239
O -6.12863 -13.4543 -0.838605
H -5.45621 -13.9694 -1.37004
H -7.03806 -13.5883 -1.23218
O 11.691 -0.124073 -14.0297
H 12.2951 -0.917892 -13.9602
H 10.8002 -0.347462 -13.6341
O -10.6246 -9.83129 4.4941
H -10.5638 -10.5217 3.77331
H -10.2483 -8.96701 4.1603
O -13.6153 -11.5735 -11.3418
H -12.7257 -12.0255 -11.4068
H -13.4997 -10.5894 -11.4766
O 13.7411 14.9137 -8.52946
H 13.6726 14.2055 -7.82685
H 13.9965 14.4951 -9.40092
O 1.99354 4.73873 9.40347
H 1.86257 4.83619 10.39
H 2.61108 5.45425 9.07692
O -3.42874 -9.53697 12.4483
H -3.77955 -10.4668 12.3373
H -4.18281 -8.92133 12.6771
O 10.1087 9.36931 9.75157
H 10.926 8.81006 9.61277
H 9.69444 9.14118 10.6326
O -7.65298 0.870521 -13.0297
H -8.33417 1.59949 -12.9625
H -7.76818 0.235236 -12.2661
O 12.4275 11.3836 -2.47272
H 12.3525 12.3797 -2.42655
H 11.5934 11.0048 -2.87371
O -14.1339 2.3119 5.62322
H -14.0458 1.87064 4.73021
H -14.0887 3.30446 5.51046
O -8.68081 -1.93491 -1.12802
H -7.77562 -2.34498 -1.23942
H -8.66771 -0.998193 -1.47777
O 8.32036 -5.39333 0.116984
H 9.12571 -4.88689 0.424999
H 8.48416 -6.37443 0.219732
O 13.845 12.0754 12.4834
H 14.7704 12.1456 12.8559
H 13.3619 11.3228 12.9308
O -1.3356 13.661 6.65318
H -2.18095 13.2796 7.02716
H -0.824365 14.1164 7.38202
O 10.2966 11.5323 13.5807
H 10.3523 12.5197 13.4326
H 9.33852 11.2464 13.5652
O -5.5602 4.79592 10.661
H -6.28508 4.15479 10.9129
H -5.15872 4.5189 9.78805
O -3.90738 -12.1209 6.56072
H -4.81444 -11.9551 6.17385
H -3.61879 -13.0539 6.34557
O -3.72279 12.0275 4.49943
H -3.07885 12.6485 4.05264
H -4.52462 12.5415 4.80416
O 7.62286 10.8162 14.0461
H 7.26581 9.90425 14.2479
H 7.11057 11.4979 14.5685
O 10.5246 5.45304 4.58742
H 10.7425 4.54325 4.23422
H 11.3701 5.96983 4.72148
O 2.34937 -4.24284 14.9856
H 2.00987 -4.62299 -14.2619
H 3.25578 -3.84635 -14.9768
O 14.6501 -14.3269 -13.2914
H 14.3845 -13.3638 -13.3335
H -14.6336 -14.4697 -13.8396
O -2.02901 6.41315 13.8519
H -2.44808 5.98692 13.0502
H -1.92432 5.73104 14.5756
O -2.10096 -5.94498 14.1128
H -1.9809 -5.81057 13.1292
H -2.98667 -5.57568 14.394
O 8.6474 -4.83744 14.0055
H 8.97217 -5.4527 13.2872
H 8.28503 -5.37547 14.7665
O 10.5068 -10.7329 8.55166
H 10.1147 -10.1438 9.25816
H 9.79672 -11.3366 8.1892
O -3.7026 -6.53992 -1.12119
H -3.55064 -6.30756 -2.08185
H -4.5312 -7.09369 -1.03926
O -0.691991 -5.2269 11.3914
H -1.42609 -5.51746 10.7777
H -0.784914 -4.24987 11.5831
O 13.764 13.4513 -6.14031
H 14.2546 12.5846 -6.23015
H 14.3743 14.141 -5.75064
O -13.6257 0.664283 11.3738
H -14.4465 1.1269 11.7088
H -13.6868 0.553702 10.3818
O -12.2323 -14.891 11.4983
H -13.1146 -14.8653 11.9683
H -11.6445 -14.1639 11.8528
O -7.31268 -8.48976 -12.5424
H -7.64674 -7.56744 -12.7365
H -6.45269 -8.64213 -13.0294
O 6.17156 6.35007 -9.56003
H 5.58109 7.00588 -10.0304
H 6.31804 6.64981 -8.61735
O -11.6631 7.62963 -4.31837
H -11.6457 8.51793 -3.85949
H -11.9158 6.91976 -3.66095
O 8.65487 9.2713 -7.49374
H 8.14401 10.0748 -7.79919
H 9.44526 9.13224 -8.09031
O -0.259397 -9.59226 0.74564
H 0.544412 -9.00006 0.801684
H -0.112061 -10.408 1.30495
O 5.92483 6.29249 0.692301
H 5.78816 6.48395 -0.27961
H 5.43825 5.45431 0.938537
O 4.395 -8.65944 11.3498
H 3.98818 -9.27836 10.6779
H 4.06208 -8.89359 12.2632
O -9.29997 6.33573 -7.60231
H -8.78268 6.54805 -6.77328
H -9.04807 6.97814 -8.32605
O 11.1954 -6.15205 4.83805
H 11.1904 -5.35939 5.44764
H 10.2608 -6.48747 4.71989
O 5.28775 11.3795 0.50808
H 5.68846 11.5509 -0.391912
H 5.96438 11.5772 1.21733
O 9.57215 -1.97679 -5.8613
H 8.65648 -1.59763 -5.9944
H 9.53997 -2.97065 -5.96696
O 13.1676 9.45632 -11.0096
H 12.8676 8.72975 -11.6277
H 13.8358 10.0359 -11.476
O 11.2553 -14.7905 2.56338
H 11.0218 -13.8216 2.48133
H 10.4447 14.7622 2.37706
O -5.99006 -7.76521 -1.4175
H -6.12952 -8.5916 -0.871993
H -6.33972 -6.97289 -0.917592
O -13.6437 -9.5226 9.6129
H -14.6436 -9.5213 9.6211
H -13.3139 -8.75391 9.06493
O 7.70852 -7.32807 -11.6874
H 8.45046 -7.41427 -11.0225
H 7.24436 -8.20841 -11.7849
O -7.04658 -3.19105 12.1029
H -7.35649 -3.24271 11.1535
H -7.83782 -3.0979 12.7072
O 6.34414 -0.738452 12.5967
H 6.236 -1.61226 13.0707
H 6.60541 -0.905136 11.6459
O -7.55009 -7.28715 12.6739
H -7.79294 -6.84527 11.8103
H -7.17687 -8.19639 12.4896
O 4.90841 13.904 -8.08373
H 4.24881 14.6525 -8.15179
H 4.52701 13.1742 -7.51642
O -11.233 0.719502 -8.41227
H -11.2668 0.728186 -9.41163
H -11.5215 1.61029 -8.06125
O -13.2783 4.316 10.9554
H -13.3031 5.25507 11.2982
H -12.4486 3.86361 11.2825
O 9.3469 12.4367 5.40413
H 9.68128 11.9545 6.2138
H 8.46799 12.8663 5.61133
O 3.4236 0.272607 13.4061
H 3.90854 0.737655 14.1467
H 2.7443 -0.351206 13.7926
O 9.3965 13.2586 -9.44291
H 10.1612 12.9622 -10.0151
H 8.57859 13.3645 -10.0084
O -12.484 -4.41616 11.8475
H -11.6253 -3.92678 11.9994
H -12.2884 -5.37045 11.6216
O -5.41641 -11.7151 12.4542
H -5.83595 -12.5277 12.0499
H -4.65915 -11.9905 13.0464
O -8.15294 10.3026 -5.79304
H -7.52839 9.53942 -5.95855
H -8.4802 10.6611 -6.66729
O -14.5538 -2.66303 -0.322706
H 14.6447 -2.27248 -0.465916
H -13.8789 -2.13354 -0.836636
O 13.8035 2.55559 -3.82842
H 13.1581 3.10476 -3.29749
H 13.9677 2.99533 -4.71137
O -5.99715 7.15133 11.823
H -5.76318 6.34649 11.2776
H -6.83123 7.56794 11.4615
O 1.45992 -5.43419 -12.907
H 1.96656 -6.02823 -12.2822
H 0.721068 -4.97987 -12.4094
O -5.58572 10.77 -0.39655
H -5.25016 10.8973 -1.3299
H -4.88997 11.0774 0.252601
O 11.1531 -5.00331 2.18773
H 11.2073 -5.13954 3.17689
H 11.0011 -5.88337 1.73791
O 1.03498 -9.40201 6.97371
H 0.974454 -8.6545 6.31227
H 1.92626 -9.37524 7.42631
O -8.9807 -12.2208 -5.24667
H -9.23764 -11.2551 -5.28347
H -8.90379 -12.5809 -6.17638
O -10.8028 11.6646 2.69643
H -10.8997 12.4241 2.05325
H -9.84116 11.5651 2.95214
O 7.44507 -9.58519 -6.3695
H 6.99975 -10.2283 -5.74653
H 6.74958 -9.08408 -6.8844
O -9.60778 -7.26355 3.94081
H -10.2606 -6.57361 3.62815
H -8.88543 -7.37257 3.25797
O 12.6238 10.1457 13.882
H 12.9525 9.57164 13.1321
H 11.6783 10.418 13.7035
O -0.879015 -12.5713 -13.9346
H -0.278708 -13.1336 -13.3659
H -1.45248 -11.9985 -13.3489
O -4.06909 12.7435 10.6738
H -3.76722 13.626 11.0344
H -4.1702 12.0929 11.4265
O 8.7112 -8.22652 -4.43452
H 8.63708 -7.23837 -4.30028
H 8.1292 -8.50361 -5.19902
O 9.18146 -9.85257 2.2701
H 9.21549 -9.15398 1.55542
H 10.0518 -9.8686 2.76223
O 8.72275 -7.49085 5.40168
H 9.16149 -7.6497 6.28611
H 8.50392 -8.3687 4.97571
O -7.99048 -1.97819 5.93869
H -8.752 -2.62607 5.92176
H -8.28957 -1.12327 6.36249
O 7.35221 -0.602242 2.46469
H 8.06598 -0.47702 3.15375
H 7.75785 -0.553663 1.55198
O -1.57736 -0.338493 14.0626
H -1.40643 -0.355322 13.0775
H -0.708738 -0.250523 14.5501
O -3.91768 12.0758 -13.381
H -4.22011 12.2813 -14.3117
H -3.27639 12.7798 -13.0758
O -14.579 0.22561 -6.64875
H 14.658 -0.204389 -6.41053
H -14.6817 1.22008 -6.62813
O 5.08792 -11.3289 -10.3655
H 4.57107 -10.4949 -10.1724
H 4.56708 -11.9056 -10.9949
O 7.37073 6.24637 -1.97989
H 8.05569 6.95692 -1.81895
H 6.75243 6.53857 -2.70945
O 5.03725 9.62938 -7.9374
H 5.47423 8.90666 -7.40197
H 5.73329 10.1304 -8.45161
O -5.54514 -14.412 8.76044
H -5.60174 -13.4213 8.88405
H -4.58632 -14.6955 8.77555
O -10.6086 -12.8601 -0.168619
H -11.453 -12.4012 -0.444906
H -10.6656 -13.1094 0.798101
O -6.45481 -10.7063 -0.311394
H -7.18992 -10.6943 0.366413
H -6.42218 -11.6035 -0.751766
O 10.6817 -13.7141 5.19023
H 11.5319 -13.6182 5.70795
H 10.7693 -14.4712 4.54288
O 5.88922 11.8845 -2.29095
H 5.3565 11.1133 -2.63924
H 6.2147 12.438 -3.05753
O 0.325923 10.339 -12.1089
H -0.278061 10.7052 -12.8168
H 0.11488 10.7735 -11.2333
O -4.40631 -7.36982 -8.15202
H -3.66044 -6.75846 -8.41634
H -4.17381 -7.82767 -7.29396
O 12.7215 5.70246 -0.525775
H 11.9566 6.23043 -0.156934
H 13.5053 5.77593 0.0908859
O -11.9373 -9.30864 14.8061
H -12.5713 -9.71942 14.1509
H -11.3124 -8.69403 14.3248
O -11.1462 3.55534 -12.8214
H -11.1972 4.54974 -12.7292
H -10.5735 3.32246 -13.6073
O 13.2482 -8.41139 5.67139
H 14.0794 -8.92378 5.45572
H 13.3202 -7.48668 5.29769
O -3.83667 4.19757 14.348
H -3.62218 3.69791 -14.9206
H -3.45092 3.71232 13.5634
O -5.3488 -12.2197 3.60543
H -5.93405 -11.7035 4.23071
H -5.35519 -13.1857 3.86387
O -1.1539 -7.06568 -13.4453
H -0.84647 -6.17163 -13.1195
H -1.77334 -6.94296 -14.2206
O 3.6911 -12.1082 -13.7068
H 3.80369 -12.9439 -13.1692
H 3.18518 -11.4326 -13.1705
O 9.89193 12.14 9.97502
H 10.8444 12.4243 9.86598
H 9.83444 11.1428 9.92956
O -9.8928 -7.96705 13.6581
H -10.2724 -7.05569 13.817
H -8.9974 -7.88354 13.2208
O -12.9809 -7.35989 5.72804
H -13.5135 -8.20581 5.75321
H -12.2742 -7.43181 5.02421
O -3.28067 -5.01349 10.3944
H -4.00884 -5.69601 10.4566
H -3.41588 -4.31669 11.0987
O 6.50565 8.35076 -15.0534
H 5.56576 8.02968 14.9385
H 7.14078 7.6219 14.7989
O -7.38584 10.1576 -10.0811
H -8.0685 10.7233 -9.61849
H -6.47336 10.4005 -9.7519
O 2.9309 -13.8297 7.66395
H 2.8241 -13.0561 7.03934
H 2.0303 -14.1359 7.97234
O -6.60829 -8.94679 -4.36672
H -6.03375 -8.63924 -3.60825
H -7.50202 -8.50191 -4.30954
O -3.24077 10.1551 -11.5412
H -3.57517 10.7639 -12.2606
H -2.81301 9.35217 -11.9561
O 13.6967 4.60079 3.30435
H 13.3032 3.89482 3.89314
H 14.1668 4.1689 2.53464
O -9.74146 11.7674 7.32927
H -9.59296 12.6616 7.7515
H -9.51363 11.0474 7.98469
O 8.76854 1.86784 -7.81645
H 8.97957 2.64439 -8.41006
H 8.51722 1.07863 -8.37675
O -4.10473 -12.5253 -4.55573
H -4.87325 -13.1458 -4.39995
H -3.26585 -13.0567 -4.67343
O -5.90283 -10.4244 -14.8231
H -6.75864 -10.5332 14.7791
H -5.55399 -11.324 -14.5607
O 10.4073 10.4884 7.13154