LAMMPS data file via write_data, version 15 May 2015, timestep = 8008000

2611 atoms
6 atom types
1749 bonds
4 bond types
894 angles
3 angle types
44 dihedrals
3 dihedral types
10 impropers
1 improper types

-1.5158235916310899e+01 1.5158235916310899e+01 xlo xhi
-1.5158235916310899e+01 1.5158235916310899e+01 ylo yhi
-1.5158235916310899e+01 1.5158235916310899e+01 zlo zhi

Masses

1 15.9994
2 1.00794
3 12.0107
4 1.00794
5 12.0107
6 12.0107

Bond Coeffs # harmonic

1 1000 1
2 469 1.4
3 367 1.08
4 469 0.7

Angle Coeffs # harmonic

1 100 109.47
2 35 120
3 63 120

Dihedral Coeffs # opls

1 0 7.25 0 0
2 0 7.25 0 0
3 0 7.25 0 0

Improper Coeffs # cvff

1 2.5 -1 2

Atoms # full

1162 388 1 -8.1999999999999995e-01 -8.9526644426251227e+00 -1.3993833682007585e+01 -9.7734842063975531e+00 -2 1 0
2379 793 2 4.0999999999999998e-01 -7.7352997558249923e+00 -8.9506038669646806e+00 -9.6906556091416327e+00 0 2 -5
1645 549 1 -8.1999999999999995e-01 -8.8998597987903310e+00 -7.6571140237496360e+00 -1.0546473181101071e+01 1 4 2
1647 549 2 4.0999999999999998e-01 -9.3365588552327239e+00 -6.8761647550747238e+00 -1.0099926177372183e+01 1 4 2
1646 549 2 4.0999999999999998e-01 -9.2496595792091814e+00 -7.7462781461073122e+00 -1.1479040555961848e+01 1 4 2
984 328 2 4.0999999999999998e-01 -9.6647492274637408e+00 -1.0479463955894349e+01 -7.6796698385712716e+00 -1 1 1
1982 661 2 4.0999999999999998e-01 -1.2030895243988009e+01 -1.4596983505523243e+01 -1.0471136294944563e+01 0 1 -1
2195 732 2 4.0999999999999998e-01 -1.3308497384247998e+01 -1.0856295591164134e+01 -9.5845800280668279e+00 1 2 2
1942 648 1 -8.1999999999999995e-01 -1.1791946354166178e+01 -8.8128206430427358e+00 -8.9021961737324027e+00 0 6 -2
1974 658 2 4.0999999999999998e-01 -1.2813206522464885e+01 -8.3831968590057873e+00 -1.1994028373609435e+01 5 1 0
1973 658 2 4.0999999999999998e-01 -1.1330501480055878e+01 -7.8391761747031188e+00 -1.2409037432144446e+01 5 1 0
1972 658 1 -8.1999999999999995e-01 -1.1966302605267581e+01 -7.9779444049783628e+00 -1.1649766498177589e+01 5 1 0
318 106 2 4.0999999999999998e-01 -1.3363816141568121e+01 -7.9868844758167423e+00 -1.5079189554046572e+01 0 5 1
433 145 1 -8.1999999999999995e-01 -1.0552340715126228e+01 -5.3621657337848845e+00 -9.7390602719303967e+00 1 3 2
1980 660 2 4.0999999999999998e-01 -1.0015075293416032e+01 -6.8919708987244164e+00 -1.4074775765175588e+01 0 4 0
1978 660 1 -8.1999999999999995e-01 -9.9175728525164661e+00 -7.7674414062392598e+00 -1.3601450592106149e+01 0 4 0
1943 648 2 4.0999999999999998e-01 -1.1890488102798384e+01 -8.4987145990806354e+00 -9.8464519558124337e+00 0 6 -2
2332 778 1 -8.1999999999999995e-01 -1.4545440134232347e+01 -9.1006789599157685e+00 -1.2338830873746154e+01 1 1 1
2194 732 1 -8.1999999999999995e-01 -1.3766342996074158e+01 -1.0792084584309130e+01 -1.0471285376421918e+01 1 2 2
435 145 2 4.0999999999999998e-01 -1.1064358955418356e+01 -5.2198273767259167e+00 -1.0586154834412575e+01 1 3 2
1979 660 2 4.0999999999999998e-01 -1.0246615492990866e+01 -8.5041789242493344e+00 -1.4192162720941777e+01 0 4 0
1319 440 2 4.0999999999999998e-01 -1.4276040013769313e+01 -1.0722488885629090e+01 -1.4396303728389075e+01 -2 2 -4
1226 409 2 4.0999999999999998e-01 -8.1376242204044047e+00 -1.2569503064385911e+01 -1.0784124742839918e+01 0 2 1
639 213 2 4.0999999999999998e-01 -9.9328875644132832e+00 -1.2983883881839157e+01 -1.2393104212088204e+01 0 5 -2
637 213 1 -8.1999999999999995e-01 -1.0512734458326943e+01 -1.3037762466246406e+01 -1.3206041305839674e+01 0 5 -2
2196 732 2 4.0999999999999998e-01 -1.4732925431190493e+01 -1.1025345564032115e+01 -1.0364985106635803e+01 1 2 2
2334 778 2 4.0999999999999998e-01 -1.4092904248345627e+01 -9.7976799997483308e+00 -1.1782599914345338e+01 1 1 1
638 213 2 4.0999999999999998e-01 -1.0954544331911535e+01 -1.3934165426237287e+01 -1.3241507238567515e+01 0 5 -2
1163 388 2 4.0999999999999998e-01 -8.9109430483091998e+00 -1.4217226680345489e+01 -8.7996531350488318e+00 -2 1 0
2333 778 2 4.0999999999999998e-01 -1.4911480897742901e+01 -9.5222150982973695e+00 -1.3168477484925923e+01 1 1 1
2311 771 1 -8.1999999999999995e-01 -1.0364897593119544e+01 -1.0947510072915662e+01 -9.4432888793003400e+00 3 4 1
2496 832 2 4.0999999999999998e-01 -1.1633628930374137e+01 -5.8487043664150455e+00 -8.2935277393775539e+00 0 5 -1
2313 771 2 4.0999999999999998e-01 -9.9255504593328165e+00 -1.0736887581410020e+01 -1.0316561058229849e+01 3 4 1
1225 409 1 -8.1999999999999995e-01 -8.2387487142737363e+00 -1.1677237052729488e+01 -1.1224155706744005e+01 0 2 1
1227 409 2 4.0999999999999998e-01 -7.6916379514335622e+00 -1.0999444082308848e+01 -1.0732974925971062e+01 0 2 1
649 217 1 -8.1999999999999995e-01 -1.5005599940440677e+01 -5.9411298637465073e+00 -8.7539397861007266e+00 0 1 1
1981 661 1 -8.1999999999999995e-01 -1.1729416741906316e+01 -1.3653830515744163e+01 -1.0331260514979119e+01 0 1 -1
651 217 2 4.0999999999999998e-01 -1.4064602290685439e+01 -5.9142101544024843e+00 -8.4166108485673234e+00 0 1 1
1881 627 2 4.0999999999999998e-01 -1.1942575187832981e+01 -1.1786023252075914e+01 -1.4012675411689413e+01 -1 5 0
2507 836 2 4.0999999999999998e-01 -1.3077385015223788e+01 -1.3313443841356406e+01 -8.9195737878257191e+00 3 2 0
1983 661 2 4.0999999999999998e-01 -1.2142785313834569e+01 -1.3065258532417316e+01 -1.1026027746811902e+01 0 1 -1
1377 459 2 4.0999999999999998e-01 -7.8253017399089053e+00 -8.4717276561532309e+00 -1.3713926118786066e+01 -1 2 -3
2009 670 2 4.0999999999999998e-01 -1.4008173292560613e+01 -5.6450920861216289e+00 -1.4745703854069120e+01 1 1 0
2471 824 2 4.0999999999999998e-01 -1.4011236531771710e+01 -1.4400786351649922e+01 -1.4066947168125957e+01 -2 2 1
1879 627 1 -8.1999999999999995e-01 -1.2522969252322879e+01 -1.1371609435344116e+01 -1.4713671829857782e+01 -1 5 0
1862 621 2 4.0999999999999998e-01 -9.9287967474466825e+00 -1.3062045152641794e+01 -1.4984219925743071e+01 1 -3 -1
2008 670 1 -8.1999999999999995e-01 -1.4704071892965686e+01 -5.1364231544936505e+00 -1.4238778699937175e+01 1 1 0
1944 648 2 4.0999999999999998e-01 -1.0979647311607744e+01 -9.3911015616390934e+00 -8.8263441630138715e+00 0 6 -2
2506 836 1 -8.1999999999999995e-01 -1.3793765396415999e+01 -1.2856714929301582e+01 -8.3921366604725911e+00 3 2 0
1340 447 2 4.0999999999999998e-01 -1.2524090384896809e+01 -5.2535206438476578e+00 -1.3293754367345606e+01 2 0 2
2470 824 1 -8.1999999999999995e-01 -1.4983026363627195e+01 -1.4168944880563583e+01 -1.4110145636723102e+01 -2 2 1
2312 771 2 4.0999999999999998e-01 -1.0667789096926839e+01 -1.1900530777498590e+01 -9.4438517230031671e+00 3 4 1
2495 832 2 4.0999999999999998e-01 -1.2441185355943659e+01 -7.2680137823287172e+00 -8.2892044179542026e+00 0 5 -1
1164 388 2 4.0999999999999998e-01 -9.8996274763645538e+00 -1.3801818735050926e+01 -1.0031133793088047e+01 -2 1 0
364 122 1 -8.1999999999999995e-01 -1.5051692518217916e+01 -1.4285374560672922e+01 -1.1262666668334999e+01 0 6 1
2494 832 1 -8.1999999999999995e-01 -1.2368655813067589e+01 -6.3685664062593172e+00 -7.8582450609076657e+00 0 5 -1
365 122 2 4.0999999999999998e-01 -1.5055349214022748e+01 -1.4350048472837402e+01 -1.2260562443253272e+01 0 6 1
779 260 2 4.0999999999999998e-01 -9.1304180786098570e+00 -5.0884223224841527e+00 -1.2330455038525200e+01 -2 1 0
243 81 2 4.0999999999999998e-01 -1.6953284108333584e+00 -1.4405124001067469e+01 -1.3470678268915190e+01 0 1 -1
1678 560 1 -8.1999999999999995e-01 -4.5167568483621263e+00 -1.1443361834904639e+01 -1.2173110769719750e+01 0 3 -1
50 17 2 4.0999999999999998e-01 -9.2541655893765018e-01 -1.4100773956239298e+01 -8.0746445802943203e+00 -4 0 -2
1064 355 2 4.0999999999999998e-01 -7.5167475201900738e+00 -1.3619097184586822e+01 -1.3664443994273237e+01 2 2 0
2377 793 1 -8.1999999999999995e-01 -7.0825506128354565e+00 -9.6927033829777258e+00 -9.5383436421463283e+00 0 2 -5
1044 348 2 4.0999999999999998e-01 -8.1485145361253331e-01 -1.2951691883762043e+01 -1.1986363579246449e+01 2 2 0
2109 703 2 4.0999999999999998e-01 -1.6546827189360638e+00 -6.9870468580534268e+00 -8.2316436524253085e+00 2 1 0
2436 812 2 4.0999999999999998e-01 -7.5460707066014603e+00 -1.1456481029751139e+01 -1.2845886293681000e+01 0 0 -1
2378 793 2 4.0999999999999998e-01 -6.1650495886663101e+00 -9.3870466238272936e+00 -9.7928192936421024e+00 0 2 -5
718 240 1 -8.1999999999999995e-01 -1.6105958171643131e-01 -6.8844869339643040e+00 -1.5060296915358574e+01 4 2 3
1811 604 2 4.0999999999999998e-01 -1.7243611359590485e+00 -1.0415514576400490e+01 -9.7762776370877695e+00 2 2 1
241 81 1 -8.1999999999999995e-01 -2.1435679503305529e+00 -1.3747189492159553e+01 -1.2865537317215644e+01 0 1 -1
1680 560 2 4.0999999999999998e-01 -3.7586240451225876e+00 -1.1634782441099581e+01 -1.2796476528822300e+01 0 3 -1
94 32 1 -8.1999999999999995e-01 -2.8279958382730257e+00 -1.1519331670328910e+01 -1.4217526272730549e+01 -2 0 6
1184 395 2 4.0999999999999998e-01 -6.7362481518139212e+00 -5.5462282370486804e+00 -1.1745464578910513e+01 3 1 1
624 208 2 4.0999999999999998e-01 -4.8025413778807700e+00 -1.3189410753177487e+01 -1.1524286035898797e+01 3 3 -3
2186 729 2 4.0999999999999998e-01 -3.5968400612479812e-01 -1.2610218520282118e+01 -9.0952865579139370e+00 4 5 -1
95 32 2 4.0999999999999998e-01 -1.8592797761480053e+00 -1.1287047061349945e+01 -1.4304848106106199e+01 -2 0 6
153 51 2 4.0999999999999998e-01 -2.1123430698535071e+00 -6.0693817694132317e+00 -1.0040068696221159e+01 1 7 1
151 51 1 -8.1999999999999995e-01 -1.3586386463937234e+00 -6.7250474565878431e+00 -9.9950775845056619e+00 1 7 1
152 51 2 4.0999999999999998e-01 -1.0107830854763424e+00 -6.8967779549866268e+00 -1.0916759297869742e+01 1 7 1
623 208 2 4.0999999999999998e-01 -3.6354885659291050e+00 -1.4330880683387450e+01 -1.1483796323381650e+01 3 3 -3
2185 729 1 -8.1999999999999995e-01 -2.1736605783618224e-01 -1.1620558062715503e+01 -9.0776850966806464e+00 4 5 -1
2276 759 2 4.0999999999999998e-01 -3.2422431292276848e+00 -6.8362607813525056e+00 -1.2906060893268313e+01 3 2 2
1376 459 2 4.0999999999999998e-01 -6.7029826947035485e+00 -9.6275247603832668e+00 -1.3447208554719948e+01 -1 2 -3
2275 759 1 -8.1999999999999995e-01 -2.3691092624486334e+00 -6.7288850597143650e+00 -1.3381560383119631e+01 3 2 2
2434 812 1 -8.1999999999999995e-01 -6.8798344192950083e+00 -1.1605550008436916e+01 -1.3576570727189214e+01 0 0 -1
622 208 1 -8.1999999999999995e-01 -4.5690713858843566e+00 -1.4107393189332761e+01 -1.1203674013618468e+01 3 3 -3
1810 604 1 -8.1999999999999995e-01 -2.7152326986983581e+00 -1.0484823073806881e+01 -9.8918714031752408e+00 2 2 1
49 17 1 -8.1999999999999995e-01 -1.4758888681719817e+00 -1.4470537514531502e+01 -8.8231412245724563e+00 -4 0 -2
2277 759 2 4.0999999999999998e-01 -2.0333503002157531e+00 -5.7954540554464540e+00 -1.3255209561618255e+01 3 2 2
1207 403 1 -8.1999999999999995e-01 -3.5646693817156585e+00 -1.2595933803861740e+01 -8.4450884412671865e+00 0 2 1
1328 443 2 4.0999999999999998e-01 -4.6002802918450900e+00 -8.2403973354717337e+00 -8.9983903425909091e+00 1 2 3
517 173 1 -8.1999999999999995e-01 -8.2960560684016471e-02 -1.0868463987398494e+01 -1.4844289185680008e+01 2 1 -1
1208 403 2 4.0999999999999998e-01 -2.8501315991438965e+00 -1.3278791091752568e+01 -8.2929906760264060e+00 0 2 1
494 165 2 4.0999999999999998e-01 -4.1155387281596312e+00 -7.1382760901352853e+00 -1.4618835680656693e+01 2 -1 3
1329 443 2 4.0999999999999998e-01 -3.8761353157205640e+00 -9.3274854988961486e+00 -9.9784202758422840e+00 1 2 3
1812 604 2 4.0999999999999998e-01 -3.0361551450053650e+00 -1.1349676956864396e+01 -9.5058291762930054e+00 2 2 1
495 165 2 4.0999999999999998e-01 -5.6051597995486340e+00 -7.7683906144994257e+00 -1.4843758047684425e+01 2 -1 3
2435 812 2 4.0999999999999998e-01 -5.9868718724463914e+00 -1.1811761270831379e+01 -1.3176462095956802e+01 0 0 -1
1327 443 1 -8.1999999999999995e-01 -4.5349892491917707e+00 -8.5763057831375598e+00 -9.9380150770035733e+00 1 2 3
719 240 2 4.0999999999999998e-01 -9.7750223798023406e-01 -7.1684286081283863e+00 -1.4557514103590457e+01 4 2 3
1994 665 2 4.0999999999999998e-01 -4.9562747845212378e+00 -7.5206164770477875e+00 -1.1197832616693294e+01 3 -1 0
1995 665 2 4.0999999999999998e-01 -5.9075110513523761e+00 -7.4580851833902724e+00 -1.2523669959270805e+01 3 -1 0
1993 665 1 -8.1999999999999995e-01 -5.2541829074600024e+00 -6.9495849596461223e+00 -1.1962793939627243e+01 3 -1 0
1375 459 1 -8.1999999999999995e-01 -6.8841183352430573e+00 -8.6443572331231735e+00 -1.3423469817103831e+01 -1 2 -3
96 32 2 4.0999999999999998e-01 -3.2946011607653283e+00 -1.1333393067524350e+01 -1.5082221818081024e+01 -2 0 6
1063 355 1 -8.1999999999999995e-01 -7.3470949819854692e+00 -1.4329853209246869e+01 -1.2981775734672475e+01 2 2 0
242 81 2 4.0999999999999998e-01 -2.4986844859828778e+00 -1.2984870865252642e+01 -1.3406605325227577e+01 0 1 -1
1209 403 2 4.0999999999999998e-01 -4.4623927125784011e+00 -1.3023995634203633e+01 -8.3409349678087938e+00 0 2 1
1679 560 2 4.0999999999999998e-01 -4.3458942240571083e+00 -1.0581736887464757e+01 -1.1695198161462748e+01 0 3 -1
2034 678 2 4.0999999999999998e-01 -7.4197710365856393e+00 -5.7586145328824490e+00 -8.1338424512919740e+00 2 4 -2
1065 355 2 4.0999999999999998e-01 -6.4455601980811430e+00 -1.4190243891297014e+01 -1.2572219464996101e+01 2 2 0
1185 395 2 4.0999999999999998e-01 -7.1970455398082960e+00 -5.1608094506240061e+00 -1.0227003716254725e+01 3 1 1
1070 357 2 4.0999999999999998e-01 -6.9174271694276808e+00 -1.1196812511463101e+01 -7.6316415108448075e+00 -1 3 1
378 126 2 4.0999999999999998e-01 -8.4004041325998369e+00 -5.3024121051162325e+00 -1.3494201384543238e+00 -1 1 1
982 328 1 -8.1999999999999995e-01 -9.3899023839681472e+00 -1.0073807967683020e+01 -6.8079505719497515e+00 -1 1 1
983 328 2 4.0999999999999998e-01 -9.8098383558042315e+00 -1.0582587841416363e+01 -6.0564262132963318e+00 -1 1 1
863 288 2 4.0999999999999998e-01 -1.2804980943626507e+01 -6.8398157854813508e+00 -6.1719097594293011e+00 0 3 3
922 308 1 -8.1999999999999995e-01 -1.3438750048215498e+01 -1.3865878712653149e+01 -5.8774783355921763e+00 1 1 1
553 185 1 -8.1999999999999995e-01 -1.0647420503988737e+01 -1.1682697772624808e+01 -5.0091057984992187e+00 2 3 1
2281 761 1 -8.1999999999999995e-01 -1.3027601421330298e+01 -1.0618649656441068e+01 -6.3127181532619030e+00 -1 -1 -3
862 288 1 -8.1999999999999995e-01 -1.3151802544927870e+01 -7.1357105354319010e+00 -5.2818798980461761e+00 0 3 3
2283 761 2 4.0999999999999998e-01 -1.2447636670498628e+01 -1.1427891169274666e+01 -6.2191172899197298e+00 -1 -1 -3
864 288 2 4.0999999999999998e-01 -1.4110076245893813e+01 -7.4072734010977879e+00 -5.3710830484340235e+00 0 3 3
179 60 2 4.0999999999999998e-01 -1.2337346062562087e+01 -9.8655897290520755e+00 -4.9645910589441993e+00 2 3 1
180 60 2 4.0999999999999998e-01 -1.2263867929159167e+01 -8.3381529831014376e+00 -4.3917532034592615e+00 2 3 1
923 308 2 4.0999999999999998e-01 -1.2796000023555612e+01 -1.4385894497476196e+01 -5.3149411889048359e+00 1 1 1
178 60 1 -8.1999999999999995e-01 -1.2129226258975610e+01 -9.3026810445620107e+00 -4.1647085644308142e+00 2 3 1
924 308 2 4.0999999999999998e-01 -1.4359519248420279e+01 -1.3951236051332515e+01 -5.4968338182792547e+00 1 1 1
1094 365 2 4.0999999999999998e-01 -1.2035732464465116e+01 -6.4506265533809000e+00 -4.0026097960863041e+00 -1 -1 -2
1837 613 1 -8.1999999999999995e-01 -1.3722390895420254e+01 -1.4806016818737467e+01 -1.9288682383841795e+00 0 4 2
101 34 2 4.0999999999999998e-01 -8.3296660774250384e+00 -8.1666872657792382e+00 -6.9119481093363078e+00 -1 0 -1
418 140 1 -8.1999999999999995e-01 -9.3831098343118349e+00 -1.4210926699401320e+01 -4.8706153960701766e+00 -1 0 2
1093 365 1 -8.1999999999999995e-01 -1.1478104153829110e+01 -5.6718389238812055e+00 -3.7153250165084160e+00 -1 -1 -2
734 245 2 4.0999999999999998e-01 -8.7400720584530660e+00 -7.1568545195361146e+00 -4.0735398747660110e+00 2 -1 -1
554 185 2 4.0999999999999998e-01 -1.0364355624790740e+01 -1.2641763888958273e+01 -5.0014559934419793e+00 2 3 1
1045 349 1 -8.1999999999999995e-01 -1.5079728795804092e+01 -9.1456481189084720e+00 -2.8693819892275236e+00 -4 2 -1
555 185 2 4.0999999999999998e-01 -1.0609478482349237e+01 -1.1316546523043808e+01 -4.0793285526074659e+00 2 3 1
971 324 2 4.0999999999999998e-01 -1.1332153648878091e+01 -9.6753837650699133e+00 -2.7828152443488712e+00 0 1 -1
140 47 2 4.0999999999999998e-01 -1.0710711812534299e+01 -1.1516762826452441e+01 -1.3940722992425165e+00 6 0 -2
2282 761 2 4.0999999999999998e-01 -1.2826451002538647e+01 -1.0162899956895064e+01 -7.1797952850182654e+00 -1 -1 -3
139 47 1 -8.1999999999999995e-01 -1.0734775833877549e+01 -1.2409296062807366e+01 -9.4374197248885316e-01 6 0 -2
1839 613 2 4.0999999999999998e-01 -1.4551008411478989e+01 -1.4269450926881939e+01 -2.0884993653582296e+00 0 4 2
218 73 2 4.0999999999999998e-01 -1.4345600103038208e+01 -6.7868115857088345e+00 -6.2541414077914226e-01 -3 -2 -1
141 47 2 4.0999999999999998e-01 -1.1685287922432648e+01 -1.2690826928706457e+01 -8.1236778449926206e-01 6 0 -2
217 73 1 -8.1999999999999995e-01 -1.5125265709292988e+01 -7.0513182600364512e+00 -1.1929966012667563e+00 -3 -2 -1
970 324 1 -8.1999999999999995e-01 -1.0845576253891355e+01 -1.0060747515393199e+01 -1.9987685041776384e+00 0 1 -1
100 34 1 -8.1999999999999995e-01 -7.8206525695085904e+00 -7.3069611724120858e+00 -6.9539999365504013e+00 -1 0 -1
1095 365 2 4.0999999999999998e-01 -1.0562350413826863e+01 -5.7545317359169914e+00 -4.1084523360655343e+00 -1 -1 -2
972 324 2 4.0999999999999998e-01 -1.0080842235373023e+01 -9.4642694866634400e+00 -1.7550721914846541e+00 0 1 -1
419 140 2 4.0999999999999998e-01 -8.9689654532363932e+00 -1.4231894692281788e+01 -5.7805807000891729e+00 -1 0 2
733 245 1 -8.1999999999999995e-01 -8.8838726429312231e+00 -6.4114028840038255e+00 -4.7243972507609300e+00 2 -1 -1
735 245 2 4.0999999999999998e-01 -8.4863618039259521e+00 -6.6590269060716132e+00 -5.6079466357529704e+00 2 -1 -1
1297 433 1 -8.1999999999999995e-01 -8.0213383094222657e+00 -8.4032583181165119e+00 -3.2597401597905229e+00 0 0 -2
1047 349 2 4.0999999999999998e-01 -1.4247900232918477e+01 -9.5342815425650116e+00 -3.2656361417093276e+00 -4 2 -1
1299 433 2 4.0999999999999998e-01 -8.2109045128731815e+00 -8.6397864497824397e+00 -2.3067914836556689e+00 0 0 -2
1003 335 1 -8.1999999999999995e-01 -8.5560869768682100e+00 -8.9266645448223763e+00 -7.2232235598423600e-01 -2 0 0
128 43 2 4.0999999999999998e-01 -1.3055888118133156e+01 -1.5089934183411403e+01 -3.9979700832137333e-01 0 2 -4
1615 539 1 -8.1999999999999995e-01 -8.0794912780689359e+00 -1.3988540695720065e+01 -7.1852591236384127e+00 4 2 4
219 73 2 4.0999999999999998e-01 -1.4947827962257731e+01 -7.9435873631883842e+00 -1.6081637148881551e+00 -3 -2 -1
2118 706 2 4.0999999999999998e-01 -1.2000154738103635e+01 -9.8620236443178317e+00 -5.6485161322217436e-01 0 3 0
1005 335 2 4.0999999999999998e-01 -8.2796899239006390e+00 -9.8039514486928709e+00 -3.2993934458072260e-01 -2 0 0
2508 836 2 4.0999999999999998e-01 -1.3698581261193691e+01 -1.3094055149084907e+01 -7.4253886835507279e+00 3 2 0
376 126 1 -8.1999999999999995e-01 -7.5993767596013821e+00 -5.4608309495202896e+00 -7.7214145226360564e-01 -1 1 1
1616 539 2 4.0999999999999998e-01 -7.8553672248047341e+00 -1.3067662298251507e+01 -6.8662866428139910e+00 4 2 4
77 26 2 4.0999999999999998e-01 -1.4952505246703076e+01 -1.0586489064297098e+01 -6.3599031342727574e+00 2 6 -1
728 243 2 4.0999999999999998e-01 -9.6311654812977423e+00 -1.3761954693507702e+01 -1.1972888575032847e-01 3 -1 1
420 140 2 4.0999999999999998e-01 -8.7097037365021972e+00 -1.4502167305659684e+01 -4.1911338371029085e+00 -1 0 2
615 205 2 4.0999999999999998e-01 -1.0427204767574384e+01 -5.4410722208922078e+00 -2.0329729491796371e+00 2 -1 1
1074 358 2 4.0999999999999998e-01 -1.3663743929252304e+01 -5.1465049327558461e+00 -4.5859396182098191e+00 -2 1 1
2059 687 1 -8.1999999999999995e-01 -7.7988335733172995e+00 -1.5146098615023506e+01 -2.5708548352081717e+00 -2 0 0
1004 335 2 4.0999999999999998e-01 -8.2240825674314753e+00 -8.1827380691404699e+00 -1.4237536040626253e-01 -2 0 0
1168 390 1 -8.1999999999999995e-01 -2.0572159898368820e+00 -1.4904788075906959e+01 -1.9876699316248487e+00 -1 3 -1
2108 703 2 4.0999999999999998e-01 -1.0971181525096352e+00 -6.3394630203231639e+00 -6.8401113136227796e+00 2 1 0
1617 539 2 4.0999999999999998e-01 -7.2390203531297264e+00 -1.4466866781038132e+01 -7.4398270618167155e+00 4 2 4
1113 371 2 4.0999999999999998e-01 -3.1224304658875202e+00 -1.1728240988729359e+01 -5.4532303551227006e+00 -2 1 -2
919 307 1 -8.1999999999999995e-01 -4.4669692545883422e-01 -1.3393423495603697e+01 -6.3087319678533245e+00 4 -1 0
2340 780 2 4.0999999999999998e-01 -2.8195919875824114e+00 -5.9720908575561822e+00 -4.7307581932581773e+00 2 2 -1
1 1 1 -8.1999999999999995e-01 -1.8496051270316016e+00 -1.1412931886291965e+01 -1.7387989473182550e+00 1 4 -3
147 49 2 4.0999999999999998e-01 -5.1879792468517749e+00 -1.3570383274984632e+01 -1.7982029787811573e+00 0 0 -3
1111 371 1 -8.1999999999999995e-01 -3.6203859334619803e+00 -1.1110453148300897e+01 -6.0618111835054620e+00 -2 1 -2
59 20 2 4.0999999999999998e-01 -4.5779374627572373e+00 -6.7085674510797606e+00 -7.4588499407897322e+00 0 2 -1
838 280 1 -8.1999999999999995e-01 -3.2699164764519946e+00 -8.6348748508059039e+00 -5.2614879922170665e+00 3 -1 3
2161 721 1 -8.1999999999999995e-01 -1.3149877872022131e-01 -1.3279614697081838e+01 -4.2782224696766669e-01 0 2 -1
1112 371 2 4.0999999999999998e-01 -3.6880663548439578e+00 -1.1521173739250152e+01 -6.9710526361611631e+00 -2 1 -2
1524 508 2 4.0999999999999998e-01 -5.2820785040328051e+00 -9.4921146830023488e+00 -2.4441604939328840e+00 0 5 -2
803 268 2 4.0999999999999998e-01 -2.5691057954228746e+00 -1.3654931889416419e+01 -3.8229030551766261e+00 -2 3 -2
58 20 1 -8.1999999999999995e-01 -5.0214473405928199e+00 -7.6047561732167992e+00 -7.4471531129869932e+00 0 2 -1
920 307 2 4.0999999999999998e-01 -1.1670543348286788e+00 -1.3479223002697195e+01 -5.6204618919178717e+00 4 -1 0
804 268 2 4.0999999999999998e-01 -2.2061866875860066e+00 -1.2069375041374805e+01 -3.6783192303255312e+00 -2 3 -2
1071 357 2 4.0999999999999998e-01 -5.6654836156003903e+00 -1.1270099137080347e+01 -6.5857583013774637e+00 -1 3 1
1069 357 1 -8.1999999999999995e-01 -6.4338050152446495e+00 -1.1777123071129088e+01 -6.9764000721747781e+00 -1 3 1
1271 424 2 4.0999999999999998e-01 -3.7036099784101939e+00 -8.5084217123159753e+00 -7.5662259763024409e-01 5 1 -1
60 20 2 4.0999999999999998e-01 -4.5695798600473143e+00 -8.1915284324247253e+00 -6.7752110532698318e+00 0 2 -1
1298 433 2 4.0999999999999998e-01 -7.2488988689576574e+00 -8.9454540583665150e+00 -3.5904260526664924e+00 0 0 -2
2163 721 2 4.0999999999999998e-01 -8.1525160256527585e-01 -1.3786982633256706e+01 -9.5227615273306832e-01 0 2 -1
2107 703 1 -8.1999999999999995e-01 -1.6874896990568882e+00 -7.0440567610327331e+00 -7.2338131901534899e+00 2 1 0
2338 780 1 -8.1999999999999995e-01 -2.4801071167626354e+00 -5.4565629633667481e+00 -3.9440097931919311e+00 2 2 -1
146 49 2 4.0999999999999998e-01 -3.8813520106248216e+00 -1.4036695379875521e+01 -9.3687635610425701e-01 0 0 -3
1761 587 2 4.0999999999999998e-01 -4.5765584570349223e+00 -6.2079516179301262e+00 -1.6539203585575688e+00 -1 0 0
1759 587 1 -8.1999999999999995e-01 -5.0227448058359325e+00 -7.0382869806022210e+00 -1.3200746187405219e+00 -1 0 0
839 280 2 4.0999999999999998e-01 -3.3274103653526623e+00 -9.5854526135232945e+00 -5.5665919805298056e+00 3 -1 3
254 85 2 4.0999999999999998e-01 -1.5499898725729810e+00 -6.7927482549768747e+00 -2.9363597459405657e+00 0 2 0
255 85 2 4.0999999999999998e-01 -1.1399358342698633e+00 -8.3686677547890440e+00 -3.0585837373931373e+00 0 2 0
3 1 2 4.0999999999999998e-01 -2.1494823658913891e+00 -1.0596081783857885e+01 -1.2460296271115094e+00 1 4 -3
2 1 2 4.0999999999999998e-01 -1.2258226128763638e+00 -1.1940088364069338e+01 -1.1617430829473552e+00 1 4 -3
2060 687 2 4.0999999999999998e-01 -7.1520659179903436e+00 -1.4393005874352751e+01 -2.6914160074523057e+00 -2 0 0
102 34 2 4.0999999999999998e-01 -6.8448731372897189e+00 -7.5018499963066034e+00 -7.0533221733813658e+00 -1 0 -1
1522 508 1 -8.1999999999999995e-01 -5.5665723774013056e+00 -9.7905406894020039e+00 -3.3552023213187798e+00 0 5 -2
577 193 1 -8.1999999999999995e-01 -5.4237695621910103e+00 -1.3419599234492903e+01 -3.6247600492664667e+00 -1 5 1
578 193 2 4.0999999999999998e-01 -4.9254236789482118e+00 -1.4089513378651787e+01 -4.1750858414519794e+00 -1 5 1
579 193 2 4.0999999999999998e-01 -5.1686610067579792e+00 -1.2496335332536233e+01 -3.9119802240477721e+00 -1 5 1
1760 587 2 4.0999999999999998e-01 -5.9771705382730325e+00 -6.8379143687294590e+00 -1.0989086687214176e+00 -1 0 0
145 49 1 -8.1999999999999995e-01 -4.8371945740289597e+00 -1.3748611925566154e+01 -8.7886805310080796e-01 0 0 -3
802 268 1 -8.1999999999999995e-01 -2.4934275314362644e+00 -1.2786644359974650e+01 -4.3131495316585067e+00 -2 3 -2
253 85 1 -8.1999999999999995e-01 -8.5486122580299373e-01 -7.4753995802966573e+00 -2.7110258327819885e+00 0 2 0
1523 508 2 4.0999999999999998e-01 -4.9115993167649474e+00 -9.4589476717184517e+00 -4.0342077887119885e+00 0 5 -2
840 280 2 4.0999999999999998e-01 -2.5756284122374709e+00 -8.1542819656257883e+00 -5.7971993155305306e+00 3 -1 3
1270 424 1 -8.1999999999999995e-01 -3.1424263638861767e+00 -9.2632319172234041e+00 -4.1702494795486267e-01 5 1 -1
1343 448 2 4.0999999999999998e-01 -2.4566122571991400e-01 -1.0720795465488912e+01 -6.3076382174536274e+00 0 3 0
1058 353 2 4.0999999999999998e-01 -6.8232691171918329e+00 -1.1410442066493280e+01 -1.1055294328920873e-01 0 2 0
2339 780 2 4.0999999999999998e-01 -3.2533684600129114e+00 -5.0855968339464841e+00 -3.4297695046786512e+00 2 2 -1
264 88 2 4.0999999999999998e-01 -4.9091318945603355e+00 -1.5092050918389509e+01 -6.5139256671317725e+00 1 4 2
560 187 2 4.0999999999999998e-01 -9.0200215527784362e+00 -6.8111166197447304e+00 1.9708769534387809e+00 0 4 -5
448 150 1 -8.1999999999999995e-01 -1.0400351796430657e+01 -7.1266980733406022e+00 3.2100641427282195e+00 -1 2 3
559 187 1 -8.1999999999999995e-01 -8.1557403747942736e+00 -6.8960727666713328e+00 1.4751022553958837e+00 0 4 -5
368 123 2 4.0999999999999998e-01 -1.0587463021961018e+01 -9.6864544448409067e+00 5.2870258373602699e+00 0 4 0
834 278 2 4.0999999999999998e-01 -9.1465386122866263e+00 -1.0642267261615682e+01 1.4252662400985283e+00 -3 4 0
369 123 2 4.0999999999999998e-01 -8.9814608765263912e+00 -9.6488768091299555e+00 4.9938529624060148e+00 0 4 0
367 123 1 -8.1999999999999995e-01 -9.8731202730612893e+00 -9.3032588641301288e+00 4.7014768155332636e+00 0 4 0
1835 612 2 4.0999999999999998e-01 -1.0921823564845550e+01 -8.4635007311044816e+00 7.2810292223644435e+00 0 2 -1
450 150 2 4.0999999999999998e-01 -1.0118861874456403e+01 -7.9405679783096881e+00 3.7183664789928361e+00 -1 2 3
310 104 1 -8.1999999999999995e-01 -1.3997917291164979e+01 -9.4278615219493318e+00 5.3359284965839624e+00 -4 4 1
2393 798 2 4.0999999999999998e-01 -1.3490330970971867e+01 -8.2362760544844491e+00 2.7882500077377639e+00 -2 1 -1
2392 798 1 -8.1999999999999995e-01 -1.2877175085829174e+01 -7.7327170928379889e+00 2.1795954999798877e+00 -2 1 -1
833 278 2 4.0999999999999998e-01 -9.9088891163838717e+00 -1.0173846459788425e+01 2.7912856117866998e+00 -3 4 0
2117 706 2 4.0999999999999998e-01 -1.1430614002795501e+01 -1.0018794529531061e+01 9.5753187901570946e-01 0 3 0
832 278 1 -8.1999999999999995e-01 -1.0009184415335607e+01 -1.0672267722380543e+01 1.9301763650516275e+00 -3 4 0
2116 706 1 -8.1999999999999995e-01 -1.2219274286781381e+01 -9.7503148562993829e+00 4.0442638125172969e-01 0 3 0
449 150 2 4.0999999999999998e-01 -1.1351417674832023e+01 -7.2283331942093874e+00 2.9182832915569801e+00 -1 2 3
2394 798 2 4.0999999999999998e-01 -1.2594910490718849e+01 -8.3258582911457832e+00 1.4256045725326576e+00 -2 1 -1
1102 368 1 -8.1999999999999995e-01 -1.0112506615109474e+01 -5.0861004556771015e+00 5.0449091056080153e+00 -3 1 -2
1103 368 2 4.0999999999999998e-01 -1.0057966804441447e+01 -5.6965682569452323e+00 4.2547530907432236e+00 -3 1 -2
2357 786 2 4.0999999999999998e-01 -1.2468922375742601e+01 -5.2151526863948252e+00 3.6298157992356650e-01 1 1 2
956 319 2 4.0999999999999998e-01 -9.6425801480119464e+00 -1.4988375397318087e+01 4.4225892231173223e+00 -4 0 -1
727 243 1 -8.1999999999999995e-01 -9.3803202999351498e+00 -1.4544495369258090e+01 4.5009464450943426e-01 3 -1 1
842 281 2 4.0999999999999998e-01 -1.0956389520352211e+01 -1.3278430443402007e+01 6.5018711946941909e+00 -1 1 -2
299 100 2 4.0999999999999998e-01 -1.4867604396433270e+01 -6.4417415502429911e+00 4.7404156668807484e+00 -2 4 -4
2402 801 2 4.0999999999999998e-01 -1.4000868131474055e+01 -1.0159459964701981e+01 4.2892468110470716e-01 3 1 -2
311 104 2 4.0999999999999998e-01 -1.3131524697571294e+01 -9.7520392727679752e+00 5.7157504361383378e+00 -4 4 1
1514 505 2 4.0999999999999998e-01 -1.1301437538719000e+01 -1.1875109198827111e+01 2.2123251469650693e+00 0 1 -1
1513 505 1 -8.1999999999999995e-01 -1.1770341356033621e+01 -1.2707942636990650e+01 2.5064505291380588e+00 0 1 -1
2358 786 2 4.0999999999999998e-01 -1.3284712871005063e+01 -6.3948254408818279e+00 1.1436628873163546e+00 1 1 2
1515 505 2 4.0999999999999998e-01 -1.1340303090067080e+01 -1.3056101840217833e+01 3.3394236988261898e+00 0 1 -1
442 148 1 -8.1999999999999995e-01 -1.2230915123570606e+01 -5.4040867830451322e+00 6.9436421259339713e+00 0 2 -2
443 148 2 4.0999999999999998e-01 -1.2973904995061419e+01 -5.8664367588288826e+00 6.4597096571164929e+00 0 2 -2
312 104 2 4.0999999999999998e-01 -1.4143471610444260e+01 -8.4753484960465428e+00 5.6033699616612491e+00 -4 4 1
1096 366 1 -8.1999999999999995e-01 -1.4438893614564462e+01 -1.2693404698127807e+01 1.7241495735410890e+00 0 4 3
592 198 1 -8.1999999999999995e-01 -1.4328251038482419e+01 -1.3736259273282432e+01 6.2021003202223017e+00 2 4 1
164 55 2 4.0999999999999998e-01 -8.9742400628205452e+00 -5.7769432407580261e+00 6.0911807318532940e+00 1 0 2
594 198 2 4.0999999999999998e-01 -1.4553679616619632e+01 -1.3668459725665816e+01 5.2302066897279627e+00 2 4 1