LAMMPS data file via write_data, version 15 May 2015, timestep = 23005000

2611 atoms
6 atom types
1749 bonds
4 bond types
894 angles
3 angle types
44 dihedrals
3 dihedral types
10 impropers
1 improper types

-1.5075594236256578e+01 1.5075594236256578e+01 xlo xhi
-1.5075594236256578e+01 1.5075594236256578e+01 ylo yhi
-1.5075594236256578e+01 1.5075594236256578e+01 zlo zhi

Masses

1 15.9994
2 1.00794
3 12.0107
4 1.00794
5 12.0107
6 12.0107

Bond Coeffs # harmonic

1 1000 1
2 469 1.4
3 367 1.08
4 469 0.7

Angle Coeffs # harmonic

1 100 109.47
2 35 120
3 63 120

Dihedral Coeffs # opls

1 0 7.25 0 0
2 0 7.25 0 0
3 0 7.25 0 0

Improper Coeffs # cvff

1 2.5 -1 2

Atoms # full

2362 788 1 -8.1999999999999995e-01 -1.2434725293419037e+01 -1.3672017230080932e+01 -8.2856888648490976e+00 10 2 0
2363 788 2 4.0999999999999998e-01 -1.2159399157169286e+01 -1.4358254443699906e+01 -8.9589155340532383e+00 10 2 0
2094 698 2 4.0999999999999998e-01 -1.0095019845634646e+01 -1.4592777848809536e+01 -1.2370785845107438e+01 -3 1 5
2092 698 1 -8.1999999999999995e-01 -1.0075016373244306e+01 -1.4129841031201121e+01 -1.1484642791170184e+01 -3 1 5
2212 738 1 -8.1999999999999995e-01 -7.9940901332538861e+00 -7.5844324001706349e+00 -7.6930824167835112e+00 5 -2 8
197 66 2 4.0999999999999998e-01 -1.1165436206930844e+01 -1.0637830884524881e+01 -1.0310210676854808e+01 11 2 -6
196 66 1 -8.1999999999999995e-01 -1.0991533278900324e+01 -9.6840898715583545e+00 -1.0065065806527524e+01 11 2 -6
198 66 2 4.0999999999999998e-01 -1.1846128950166193e+01 -9.1669014603925802e+00 -1.0111353348360698e+01 11 2 -6
1618 540 1 -8.1999999999999995e-01 -1.1751674902596418e+01 -1.2217048723900724e+01 -1.0733952567138628e+01 4 7 3
2093 698 2 4.0999999999999998e-01 -1.0795103567236634e+01 -1.3436645495862873e+01 -1.1454401110706803e+01 -3 1 5
369 123 2 4.0999999999999998e-01 -6.8384173020373016e+00 -1.2564653988172374e+01 -1.2289110923474459e+01 2 7 0
2356 786 1 -8.1999999999999995e-01 -1.0181718229946004e+01 -9.0949746057332632e+00 -1.2661501804279162e+01 2 -6 5
2358 786 2 4.0999999999999998e-01 -1.0323236979224653e+01 -9.2963429955155661e+00 -1.1692283899546215e+01 2 -6 5
661 221 1 -8.1999999999999995e-01 -1.3445503928680251e+01 -8.2587939666508809e+00 -9.5012073903436374e+00 3 1 1
2096 699 2 4.0999999999999998e-01 -1.4157607032779028e+01 -1.0295309316784028e+01 -1.0985551923197322e+01 0 -2 3
2357 786 2 4.0999999999999998e-01 -1.1043555562408596e+01 -8.7921498207724618e+00 -1.3068310995524865e+01 2 -6 5
2095 699 1 -8.1999999999999995e-01 -1.4172091021791884e+01 -1.1118229981006307e+01 -1.1553488479118201e+01 0 -2 3
2354 785 2 4.0999999999999998e-01 -1.0942678959878148e+01 -1.3630388052402218e+01 -1.3933553618881401e+01 6 2 1
93 31 2 4.0999999999999998e-01 -8.7540489482656589e+00 -1.3804432120454946e+01 -1.0475764845451792e+01 0 6 2
2169 723 2 4.0999999999999998e-01 -6.6147869506244810e+00 -9.8431508565977932e+00 -1.1874266851608708e+01 4 7 0
1619 540 2 4.0999999999999998e-01 -1.2581761525555468e+01 -1.1833888518555494e+01 -1.1139050835185234e+01 4 7 3
367 123 1 -8.1999999999999995e-01 -6.0851807114255170e+00 -1.3148759339800897e+01 -1.2591461246816857e+01 2 7 0
492 164 2 4.0999999999999998e-01 -6.7867425397585279e+00 -1.4843466773823966e+01 -1.2759541055509660e+01 0 3 3
1029 343 2 4.0999999999999998e-01 -7.1059815308170027e+00 -1.0550523235696094e+01 -9.3963303449452340e+00 7 3 5
1027 343 1 -8.1999999999999995e-01 -7.2031860175432127e+00 -1.1160908845273241e+01 -8.6102382048648334e+00 7 3 5
2472 824 2 4.0999999999999998e-01 -8.1454867721926441e+00 -1.1559927444198266e+01 -1.3750573204330587e+01 0 2 2
2471 824 2 4.0999999999999998e-01 -8.8712743734552681e+00 -1.0294082690094257e+01 -1.3017504561433197e+01 0 2 2
2470 824 1 -8.1999999999999995e-01 -8.0012171867762500e+00 -1.0765931453474188e+01 -1.3160050704945531e+01 0 2 2
91 31 1 -8.1999999999999995e-01 -7.9636822890748089e+00 -1.3715627314697690e+01 -9.8696341504706560e+00 0 6 2
1086 362 2 4.0999999999999998e-01 -6.1099471078313847e+00 -1.4072359957073681e+01 -9.7682484161588974e+00 7 6 0
1665 555 2 4.0999999999999998e-01 -7.5798307151031841e+00 -8.0616582547976741e+00 -1.0758269673739214e+01 8 3 -3
1028 343 2 4.0999999999999998e-01 -7.3821478838770904e+00 -1.2091106396313201e+01 -8.9306524960119411e+00 7 3 5
2261 754 2 4.0999999999999998e-01 -6.0055846234335348e+00 -9.0740679525013554e+00 -1.4414615099024298e+01 3 3 -2
662 221 2 4.0999999999999998e-01 -1.4363101547854720e+01 -7.9370233604074949e+00 -9.7345278469895540e+00 3 1 1
2168 723 2 4.0999999999999998e-01 -5.4910347629124630e+00 -9.2741813064689591e+00 -1.0835048454695002e+01 4 7 0
2167 723 1 -8.1999999999999995e-01 -6.3967721432707911e+00 -9.6912506450382043e+00 -1.0910235729768331e+01 4 7 0
1620 540 2 4.0999999999999998e-01 -1.1968368181412959e+01 -1.2612930958483970e+01 -9.8416065490506703e+00 4 7 3
2560 854 1 -8.1999999999999995e-01 -7.0747353492494440e+00 -7.7441752621586062e+00 -1.4616334723841300e+01 4 5 3
92 31 2 4.0999999999999998e-01 -8.0820134749407249e+00 -1.4314619028465502e+01 -9.0776955154954280e+00 0 6 2
2352 784 2 4.0999999999999998e-01 -5.3837149650021470e+00 -9.8986832756997529e+00 -7.8387832311898435e+00 6 7 2
1299 433 2 4.0999999999999998e-01 -1.3280749652381207e+01 -1.0701186550551512e+01 -1.3963282568521628e+01 6 2 -4
362 121 2 4.0999999999999998e-01 -8.9871410627259927e+00 -1.0415245119112043e+01 -7.8740549496218879e+00 1 7 -2
2355 785 2 4.0999999999999998e-01 -1.2323723427614524e+01 -1.2762487984725666e+01 -1.3856185241877263e+01 6 2 1
1084 362 1 -8.1999999999999995e-01 -5.1606279436461016e+00 -1.4386444963886056e+01 -9.7580560812988999e+00 7 6 0
163 55 1 -8.1999999999999995e-01 -1.2733931477730124e+01 -8.5661780293277374e+00 -1.3470187939287609e+01 9 3 2
363 121 2 4.0999999999999998e-01 -1.0177956042064256e+01 -9.4817956352178907e+00 -8.4881819440513020e+00 1 7 -2
2260 754 1 -8.1999999999999995e-01 -5.5610508408931860e+00 -9.8852812766065945e+00 -1.4034769296426129e+01 3 3 -2
1297 433 1 -8.1999999999999995e-01 -1.3290749629974853e+01 -1.1361419012863786e+01 -1.4714250766655187e+01 6 2 -4
1136 379 2 4.0999999999999998e-01 -5.5334567782423214e+00 -1.2860278938668031e+01 -1.4672912688679059e+01 8 -3 -4
2364 788 2 4.0999999999999998e-01 -1.2956259551811367e+01 -1.4112454085689546e+01 -7.5549512015338172e+00 10 2 0
164 55 2 4.0999999999999998e-01 -1.2408694115030713e+01 -8.1148302063601978e+00 -1.4301130726227049e+01 9 3 2
361 121 1 -8.1999999999999995e-01 -9.6803700438621654e+00 -9.7281710757444095e+00 -7.6565164544775088e+00 1 7 -2
1371 457 2 4.0999999999999998e-01 -1.4627105359581677e+01 -1.3567592743304765e+01 -9.0387377184220234e+00 0 1 5
368 123 2 4.0999999999999998e-01 -5.2305102797349665e+00 -1.2828870039451006e+01 -1.2182597655772328e+01 2 7 0
2262 754 2 4.0999999999999998e-01 -6.2346599452048110e+00 -1.0617165143530169e+01 -1.3932022339714917e+01 3 3 -2
2353 785 1 -8.1999999999999995e-01 -1.1806686567560707e+01 -1.3512682741442914e+01 -1.3444067710508806e+01 6 2 1
165 55 2 4.0999999999999998e-01 -1.3374992376871701e+01 -7.9648225291262627e+00 -1.2993351908905655e+01 9 3 2
2213 738 2 4.0999999999999998e-01 -8.7050332715275509e+00 -8.2816445957578448e+00 -7.6013482428725281e+00 5 -2 8
1946 649 2 4.0999999999999998e-01 -1.4771553643244117e+01 -1.2355941802330943e+01 -1.5051346836137689e+01 9 4 -3
1617 539 2 4.0999999999999998e-01 -5.7452937022933561e+00 -5.2928749393753787e+00 -1.1483564791693778e+01 7 2 4
754 252 1 -8.1999999999999995e-01 -6.1195855082858603e+00 -2.7217764297667735e-01 -1.1452652255144075e+01 6 6 -1
663 221 2 4.0999999999999998e-01 -1.2931448061769968e+01 -7.5167438010794605e+00 -9.0710117533134138e+00 3 1 1
1664 555 2 4.0999999999999998e-01 -8.5852939261280738e+00 -7.4089587494126734e+00 -1.1867119211476389e+01 8 3 -3
1663 555 1 -8.1999999999999995e-01 -8.2170682096101224e+00 -7.3133214259773807e+00 -1.0942336281122625e+01 8 3 -3
2211 737 2 4.0999999999999998e-01 -5.9728055466429790e+00 -4.1005488385359961e+00 -8.3449111254998876e+00 3 -2 -2
477 159 2 4.0999999999999998e-01 -1.2665142455809807e+01 -3.9632908123592170e+00 -1.0712651400555544e+01 6 2 -2
1829 610 2 4.0999999999999998e-01 -5.0490256232886495e+00 -2.9594656859940791e+00 -1.4488873647652072e+01 6 0 4
2214 738 2 4.0999999999999998e-01 -8.1848623840164141e+00 -7.0172702450091506e+00 -8.4942647811299814e+00 5 -2 8
755 252 2 4.0999999999999998e-01 -6.3576593988333467e+00 -1.1858515912738241e+00 -1.1782016640344532e+01 6 6 -1
1452 484 2 4.0999999999999998e-01 -1.2738367927479452e+01 -2.8831346553419213e+00 -1.4496875579922326e+01 2 9 -1
213 71 2 4.0999999999999998e-01 -1.4166720912102535e+01 -4.8289247221757172e+00 -1.4555216869045687e+01 11 3 4
2296 766 1 -8.1999999999999995e-01 -1.4093158567198426e+01 -9.1154665439165683e-01 -9.2872875074584371e+00 4 6 5
2297 766 2 4.0999999999999998e-01 -1.3357714449871112e+01 -1.5277856634710236e+00 -9.5689461174650177e+00 4 6 5
211 71 1 -8.1999999999999995e-01 -1.4902075758444973e+01 -5.5053117314648965e+00 -1.4513816525524904e+01 11 3 4
1121 374 2 4.0999999999999998e-01 -1.2096513595385719e+01 -4.7589763771948945e-01 -1.3849043409430509e+01 0 1 3
862 288 1 -8.1999999999999995e-01 -1.0512074612962071e+01 -4.8012272716420252e+00 -1.2120839932126682e+01 4 3 3
1511 504 2 4.0999999999999998e-01 -1.0360559173607285e+01 -2.4349656274534706e+00 -8.1773035127629381e+00 0 4 1
212 71 2 4.0999999999999998e-01 -1.4774038583072356e+01 -6.0881628684962159e+00 -1.3711413158753878e+01 11 3 4
2298 766 2 4.0999999999999998e-01 -1.4835219127529712e+01 -9.5043658977173173e-01 -9.9564615093724882e+00 4 6 5
1353 451 2 4.0999999999999998e-01 -1.3846366950070502e+01 -6.1810693578079050e+00 -1.1826365630092097e+01 5 0 0
2198 733 2 4.0999999999999998e-01 -6.8259867757879338e+00 -2.8229601870652790e+00 -1.3657373010121088e+01 2 -4 -1
2197 733 1 -8.1999999999999995e-01 -6.5981749050162524e+00 -2.7874402682000099e+00 -1.2684336405317481e+01 2 -4 -1
1450 484 1 -8.1999999999999995e-01 -1.2879249474690051e+01 -3.8457343757575533e+00 -1.4728207251287911e+01 2 9 -1
1158 386 2 4.0999999999999998e-01 -1.2101109469320123e+01 -1.9389993171364015e+00 -1.2073136763601054e+01 6 11 0
1120 374 1 -8.1999999999999995e-01 -1.2180790763039681e+01 -1.2996488881301911e+00 -1.4409660364383868e+01 0 1 3
1775 592 2 4.0999999999999998e-01 -5.2463012347630666e+00 -9.0097232267622118e-01 -9.8696225183420943e+00 5 5 -3
1190 397 2 4.0999999999999998e-01 -8.5827053582531683e+00 -4.6254730622937483e+00 -8.8687828141488403e+00 6 3 -3
2209 737 1 -8.1999999999999995e-01 -6.6965898995036337e+00 -4.7388977698346633e+00 -8.0829817455927664e+00 3 -2 -2
475 159 1 -8.1999999999999995e-01 -1.2891850019235500e+01 -4.9361217679483769e+00 -1.0666135169647408e+01 6 2 -2
1157 386 2 4.0999999999999998e-01 -1.1550650427123617e+01 -1.9591259623918358e+00 -1.0535895740458017e+01 6 11 0
1510 504 1 -8.1999999999999995e-01 -1.0501488205139207e+01 -1.9163475687543077e+00 -9.0205914081211205e+00 0 4 1
1139 380 2 4.0999999999999998e-01 -1.1329376530642389e+01 -5.7550497307268866e+00 -8.7783320022263371e+00 -1 -1 2
1138 380 1 -8.1999999999999995e-01 -1.2149166900709192e+01 -6.1192524849476868e+00 -8.3364493926091807e+00 -1 -1 2
621 207 2 4.0999999999999998e-01 -9.4420458851217699e+00 -2.4980323427746391e+00 -1.0365303604094406e+01 -2 3 5
1156 386 1 -8.1999999999999995e-01 -1.2295314746269458e+01 -2.2422871508765336e+00 -1.1140258991627613e+01 6 11 0
863 288 2 4.0999999999999998e-01 -1.0816951490532006e+01 -4.5355588586744187e+00 -1.3035405685186163e+01 4 3 3
2199 733 2 4.0999999999999998e-01 -7.4113541017951432e+00 -3.0025318091775137e+00 -1.2143563467337025e+01 2 -4 -1
864 288 2 4.0999999999999998e-01 -1.1308118428961281e+01 -4.9911867687193379e+00 -1.1546218506896839e+01 4 3 3
1351 451 1 -8.1999999999999995e-01 -1.4480403399108495e+01 -6.8249560496652055e+00 -1.2254580368362262e+01 5 0 0
1615 539 1 -8.1999999999999995e-01 -5.4222938177439435e+00 -5.7751128222557053e+00 -1.0669268914775699e+01 7 2 4
1616 539 2 4.0999999999999998e-01 -6.1433204492172671e+00 -5.7792463948056039e+00 -9.9764026581092082e+00 7 2 4
1191 397 2 4.0999999999999998e-01 -8.9179526698039204e+00 -5.6940132188845443e+00 -1.0057206721142526e+01 6 3 -3
1189 397 1 -8.1999999999999995e-01 -9.2810847862819745e+00 -5.2325928030570363e+00 -9.2477708607748177e+00 6 3 -3
1512 504 2 4.0999999999999998e-01 -1.0483499319394673e+01 -9.3750755642446570e-01 -8.8168543318855832e+00 0 4 1
2561 854 2 4.0999999999999998e-01 -7.2932921314675667e+00 -6.8797580855723339e+00 -1.4163591952024456e+01 4 5 3
619 207 1 -8.1999999999999995e-01 -8.7866267496701624e+00 -2.9632251842313195e+00 -1.0960267064128105e+01 -2 3 5
476 159 2 4.0999999999999998e-01 -1.2956691648968183e+01 -5.2178467419807681e+00 -9.7088542551515449e+00 6 2 -2
620 207 2 4.0999999999999998e-01 -9.2311583834228372e+00 -3.7435942290704300e+00 -1.1400012379006084e+01 -2 3 5
2210 737 2 4.0999999999999998e-01 -6.2872973463140074e+00 -5.5836696917080086e+00 -7.7383077476129607e+00 3 -2 -2
1140 380 2 4.0999999999999998e-01 -1.2411868397244440e+01 -5.5228551900236162e+00 -7.5779915260924797e+00 -1 -1 2
203 68 2 4.0999999999999998e-01 -1.0299047621198955e+01 -1.4498453306960574e+01 -2.8369711448847141e+00 5 1 -5
606 202 2 4.0999999999999998e-01 -9.9027750838290114e+00 -9.6801971425241433e+00 -5.9232131874278284e+00 0 0 -1
604 202 1 -8.1999999999999995e-01 -1.0092013943857440e+01 -9.7285475909329513e+00 -4.9424935215499310e+00 0 0 -1
605 202 2 4.0999999999999998e-01 -9.6074977242051283e+00 -1.0509117012295871e+01 -4.5476321043916972e+00 0 0 -1
2288 763 2 4.0999999999999998e-01 -1.4727839492887313e+01 -9.6810969574073020e+00 -6.4494440668115853e+00 0 5 -4
2201 734 2 4.0999999999999998e-01 -8.8876102809013346e+00 -1.3639279956474114e+01 -5.6428965612020292e+00 -1 4 -1
932 311 2 4.0999999999999998e-01 -1.2482605913196082e+01 -1.1317358156663666e+01 -3.3044403103692765e-01 1 -2 -2
931 311 1 -8.1999999999999995e-01 -1.1869920438516822e+01 -1.0527390984944045e+01 -3.0745528581763182e-01 1 -2 -2
933 311 2 4.0999999999999998e-01 -1.1702103446084539e+01 -1.0208485822361208e+01 -1.2402452093702099e+00 1 -2 -2
1397 466 2 4.0999999999999998e-01 -1.1347755492208888e+01 -1.2179103956673684e+01 -2.9086228405063359e+00 4 2 0
1396 466 1 -8.1999999999999995e-01 -1.1760849714934727e+01 -1.1323897330640159e+01 -3.2215684054833531e+00 4 2 0
1398 466 2 4.0999999999999998e-01 -1.1072658118858921e+01 -1.0775601704747093e+01 -3.6966730062644721e+00 4 2 0
372 124 2 4.0999999999999998e-01 -1.1290905898001490e+01 -1.3129027591892816e+01 -5.5982090626939414e+00 -2 1 2
1485 495 2 4.0999999999999998e-01 -1.1400676230073453e+01 -8.6788904603411865e+00 -4.4857536678292629e+00 4 3 -1
1484 495 2 4.0999999999999998e-01 -1.2755994204627161e+01 -8.3724146456371429e+00 -5.3434866951635662e+00 4 3 -1
1483 495 1 -8.1999999999999995e-01 -1.2170228866265354e+01 -8.0505817247392528e+00 -4.5996703992600647e+00 4 3 -1
892 298 1 -8.1999999999999995e-01 -1.4427431381974159e+01 -1.1523714391131142e+01 -3.7475115414291160e+00 2 -1 1
2287 763 1 -8.1999999999999995e-01 -1.4096428471621886e+01 -8.9166767028809328e+00 -6.5796052709724453e+00 0 5 -4
1941 647 2 4.0999999999999998e-01 -8.4388534219852858e+00 -1.2229762039301342e+01 -4.1820314122272837e+00 1 1 -1
2200 734 1 -8.1999999999999995e-01 -8.0071472835485196e+00 -1.3422964957084922e+01 -5.2210519442503784e+00 -1 4 -1
2202 734 2 4.0999999999999998e-01 -7.2774011491194948e+00 -1.3902940488265509e+01 -5.7079340704212420e+00 -1 4 -1
2223 741 2 4.0999999999999998e-01 -1.4164205905415145e+01 -1.5066955187026721e+01 -5.6052706490526916e+00 11 6 -1
1939 647 1 -8.1999999999999995e-01 -8.6903700605624046e+00 -1.1588418100692985e+01 -3.4572021610532548e+00 1 1 -1
1940 647 2 4.0999999999999998e-01 -8.4050345882109720e+00 -1.1956788928442695e+01 -2.5724158937785901e+00 1 1 -1
1024 342 1 -8.1999999999999995e-01 -8.4349235170815753e+00 -8.9765287688042239e+00 -1.5050257079780902e+00 1 4 -4
894 298 2 4.0999999999999998e-01 -1.4661493353417669e+01 -1.0929868419990623e+01 -4.5172661125793674e+00 2 -1 1
1346 449 2 4.0999999999999998e-01 -8.1613955461885830e+00 -8.8342221825538640e+00 -4.0884831037123153e+00 1 -2 -5
1538 513 2 4.0999999999999998e-01 -5.5007116168551473e+00 -1.1804322900178772e+01 -5.7907112393590783e+00 0 1 0
1200 400 2 4.0999999999999998e-01 -1.4637495406911153e+01 -1.3283435918492135e+01 -6.6109350626717323e-01 8 0 -4
1345 449 1 -8.1999999999999995e-01 -7.2183698410586299e+00 -8.5030346318982062e+00 -4.0572186657774232e+00 1 -2 -5
1537 513 1 -8.1999999999999995e-01 -5.6353342175958421e+00 -1.2297988347827136e+01 -6.6498569330068680e+00 0 1 0
1800 600 2 4.0999999999999998e-01 -6.9821204343625833e+00 -1.2844637249250932e+01 -1.6105860172638984e+00 0 3 1
1798 600 1 -8.1999999999999995e-01 -7.9246963135397976e+00 -1.2729014769620814e+01 -1.2973093207523867e+00 0 3 1
1026 342 2 4.0999999999999998e-01 -7.5244982986953488e+00 -8.7244165867370889e+00 -1.8329365372684485e+00 1 4 -4
1534 512 1 -8.1999999999999995e-01 -1.2357962016444199e+01 -1.4449075075487393e+01 -3.1249483874297290e-01 5 5 -2
1611 537 2 4.0999999999999998e-01 -6.2509846054092524e+00 -1.0119047182123582e+01 -4.2881452885444613e+00 -2 4 2
1535 512 2 4.0999999999999998e-01 -1.1695135762371773e+01 -1.4082808979714541e+01 -9.6554205159676165e-01 5 5 -2
1741 581 1 -8.1999999999999995e-01 -5.7866833182208843e+00 -9.9849112325314522e+00 -9.4990907870266383e-01 4 -1 2
204 68 2 4.0999999999999998e-01 -9.5903750769252341e+00 -1.3367950889996965e+01 -1.8955532133684496e+00 5 1 -5
1743 581 2 4.0999999999999998e-01 -5.7954201296492691e+00 -1.0927247460083425e+01 -1.2844030835932791e+00 4 -1 2
202 68 1 -8.1999999999999995e-01 -1.0459376600397658e+01 -1.3796173260232127e+01 -2.1433880542904920e+00 5 1 -5
1799 600 2 4.0999999999999998e-01 -7.9562105265135346e+00 -1.2803762870596051e+01 -3.0062496513997594e-01 0 3 1
1524 508 2 4.0999999999999998e-01 -5.6885357950363051e+00 -8.0633472434772955e+00 -1.2003626487527441e+00 -2 5 4
506 169 2 4.0999999999999998e-01 -5.3083488540889814e+00 -1.1977569063058459e+01 -3.2785453325994744e+00 0 0 3
1609 537 1 -8.1999999999999995e-01 -5.5026810923478102e+00 -1.0762100544874960e+01 -4.4508855201770139e+00 -2 4 2
505 169 1 -8.1999999999999995e-01 -5.4145065706267523e+00 -1.2661176300204966e+01 -2.5564844999016536e+00 0 0 3
2221 741 1 -8.1999999999999995e-01 -1.4288299234104343e+01 -1.4668992314440137e+01 -6.5142186971732716e+00 11 6 -1
893 298 2 4.0999999999999998e-01 -1.3443776287173232e+01 -1.1473336652679082e+01 -3.5747547672078959e+00 2 -1 1
623 208 2 4.0999999999999998e-01 -1.4764673576937678e+01 -1.2035657469126622e+01 -6.5698417686524202e+00 9 3 0
370 124 1 -8.1999999999999995e-01 -1.0626120455296101e+01 -1.3243454775000604e+01 -6.3364006906724182e+00 -2 1 2
1601 534 2 4.0999999999999998e-01 -6.2198834942956047e+00 -1.4578896419614740e+01 -3.0008664440846076e+00 0 5 2
1878 626 2 4.0999999999999998e-01 -9.1175047240388434e+00 -7.5870863518904299e+00 -5.6316242931954719e-01 5 1 -4
1025 342 2 4.0999999999999998e-01 -8.7086595375734959e+00 -9.8456842681469485e+00 -1.9168477767298189e+00 1 4 -4
1199 400 2 4.0999999999999998e-01 -1.4531673718711350e+01 -1.1655685420975987e+01 -7.3692424070742568e-01 8 0 -4
1198 400 1 -8.1999999999999995e-01 -1.4121311094512535e+01 -1.2483641139261433e+01 -3.5475673804402774e-01 8 0 -4
371 124 2 4.0999999999999998e-01 -1.1107332399230753e+01 -1.3316684026434809e+01 -7.2099180845631379e+00 -2 1 2
2289 763 2 4.0999999999999998e-01 -1.3555446637566567e+01 -9.0683650213404636e+00 -7.4068231631509187e+00 0 5 -4
1539 513 2 4.0999999999999998e-01 -6.4657058345088494e+00 -1.1966853992234061e+01 -7.0979564380673033e+00 0 1 0
947 316 2 4.0999999999999998e-01 -1.4767131678315303e+01 -6.3087010852548389e+00 -6.8069978888880751e+00 2 5 0
946 316 1 -8.1999999999999995e-01 -1.4846426746115604e+01 -5.3363055919410396e+00 -7.0263593245662559e+00 2 5 0
1250 417 2 4.0999999999999998e-01 -1.2592531131978308e+01 -7.0299394841051512e+00 -3.3468992333471004e+00 4 -2 -3
767 256 2 4.0999999999999998e-01 -9.5712119428979108e+00 -2.1593190483390590e+00 -2.3414443698188272e+00 -1 4 -3
766 256 1 -8.1999999999999995e-01 -1.0450841689441733e+01 -2.0850889515681086e+00 -1.8716555817429263e+00 -1 4 -3
512 171 2 4.0999999999999998e-01 -7.4548444383920733e+00 -8.5856410019213847e-01 -3.2079245335396518e+00 3 -4 3
1347 449 2 4.0999999999999998e-01 -7.2176460480563458e+00 -7.5062083513914670e+00 -3.9778652587922778e+00 1 -2 -5
629 210 2 4.0999999999999998e-01 -1.1443298248013219e+01 -5.5920156246649277e+00 -2.3820810351681487e-02 6 0 1
1846 616 1 -8.1999999999999995e-01 -7.3219769531263870e+00 -2.7250380509091627e+00 -5.8418159720970291e+00 -4 1 -2
347 116 2 4.0999999999999998e-01 -1.1721832864620851e+01 -1.1707512179979549e+00 -7.9728075943325294e-01 1 3 -5
1249 417 1 -8.1999999999999995e-01 -1.2927036994393912e+01 -6.4018822166975937e+00 -2.6443253653262868e+00 4 -2 -3
74 25 2 4.0999999999999998e-01 -1.2122987059515465e+01 -5.0592618783480621e+00 -4.9535486664146688e+00 8 -2 4
2556 852 2 4.0999999999999998e-01 -1.0870821251277629e+01 -1.3280619342673461e-01 -3.6473277932537567e+00 -1 4 0
2100 700 2 4.0999999999999998e-01 -1.2684048797440163e+01 -6.9744952900979644e+00 -1.0153321923659338e+00 -5 3 4
630 210 2 4.0999999999999998e-01 -1.2592669739409981e+01 -4.7937695989863620e+00 -8.6540779919934430e-01 6 0 1
1072 358 1 -8.1999999999999995e-01 -7.0136078635375689e+00 -5.0483272277533757e+00 -4.5775520819438640e+00 -1 2 -1
1074 358 2 4.0999999999999998e-01 -7.3343406517015337e+00 -4.1176860894416922e+00 -4.7536137430264738e+00 -1 2 -1
912 304 2 4.0999999999999998e-01 -1.4932753661932693e+01 -4.1502494674962378e+00 -5.7943653827495432e+00 4 0 4
911 304 2 4.0999999999999998e-01 -1.4073636629756891e+01 -3.8433425121903060e+00 -4.4400218967387417e+00 4 0 4
768 256 2 4.0999999999999998e-01 -1.0559825058626991e+01 -2.8562167467850124e+00 -1.2444038939466822e+00 -1 4 -3
1251 417 2 4.0999999999999998e-01 -1.3911516693633958e+01 -6.5297813812723646e+00 -2.5243184363900575e+00 4 -2 -3
11 4 2 4.0999999999999998e-01 -1.1982597111312728e+01 -3.3584841997897499e+00 -3.2389262061059227e+00 -1 0 5
910 304 1 -8.1999999999999995e-01 -1.4918725594917907e+01 -3.6400490647228469e+00 -4.9344474065799506e+00 4 0 4
1481 494 2 4.0999999999999998e-01 -1.0379250792856945e+01 -3.2438040409113924e+00 -5.9152745108441245e+00 -1 -1 2
25 9 1 -8.1999999999999995e-01 -5.6541247478636638e+00 -6.8565750168550377e+00 -6.7388274922171618e+00 6 3 5
2519 840 2 4.0999999999999998e-01 -7.5991872045013871e+00 -4.1779932571616865e+00 -4.8948457423264280e-01 1 0 3
1634 545 2 4.0999999999999998e-01 -6.6804642851893945e+00 -5.9531020325603201e+00 -1.6132808975725599e+00 2 -3 3
10 4 1 -8.1999999999999995e-01 -1.2687772113472677e+01 -3.9955865721811090e+00 -3.5500353730013270e+00 -1 0 5
511 171 1 -8.1999999999999995e-01 -7.8329274460835032e+00 -1.7553883982133414e+00 -2.9783171208197121e+00 3 -4 3
2088 696 2 4.0999999999999998e-01 -5.5448631713238559e+00 -3.1416755786425750e+00 -5.7884068522833818e+00 4 6 2
1847 616 2 4.0999999999999998e-01 -8.1643691252768065e+00 -2.1883507002233475e+00 -5.7938342617834540e+00 -4 1 -2
26 9 2 4.0999999999999998e-01 -6.5605923161798678e+00 -7.2433983501906969e+00 -6.9080740453816762e+00 6 3 5
1482 494 2 4.0999999999999998e-01 -1.0904439192057703e+01 -1.6981475601990521e+00 -5.8747360257944621e+00 -1 -1 2
1633 545 1 -8.1999999999999995e-01 -7.2463505693062222e+00 -5.1964614422756927e+00 -1.9407375610319271e+00 2 -3 3
1522 508 1 -8.1999999999999995e-01 -5.3437025858210010e+00 -7.1404806100073861e+00 -1.3717318077776852e+00 -2 5 4
513 171 2 4.0999999999999998e-01 -7.1197197378871495e+00 -2.3221075560456530e+00 -2.5658558451712690e+00 3 -4 3
1073 358 2 4.0999999999999998e-01 -6.6869144779120759e+00 -5.4552538950494220e+00 -5.4305715719212024e+00 -1 2 -1
2235 745 2 4.0999999999999998e-01 -1.4729399297401020e+01 -6.6183142517868276e-03 -5.8413251832389914e+00 5 5 11
73 25 1 -8.1999999999999995e-01 -1.1295176398393005e+01 -5.1477757916314548e+00 -5.5074935563455636e+00 8 -2 4
1848 616 2 4.0999999999999998e-01 -7.1767762732441325e+00 -3.0341341227005305e+00 -6.7816758160963744e+00 -4 1 -2
1877 626 2 4.0999999999999998e-01 -9.2058758438559849e+00 -6.0238608250026147e+00 -1.0268829407466562e+00 5 1 -4
1876 626 1 -8.1999999999999995e-01 -9.2966383658650500e+00 -6.6528528688333921e+00 -2.5481344023502750e-01 5 1 -4
2554 852 1 -8.1999999999999995e-01 -1.1320294868777969e+01 -3.9269564655989697e-01 -4.5019570012788286e+00 -1 4 0
75 25 2 4.0999999999999998e-01 -1.1115638760598058e+01 -6.1151183713758464e+00 -5.6863083020799170e+00 8 -2 4
1480 494 1 -8.1999999999999995e-01 -1.0213669454737140e+01 -2.3161778488242870e+00 -6.2500170946444076e+00 -1 -1 2
1635 545 2 4.0999999999999998e-01 -7.3305504667499735e+00 -5.2495532255454815e+00 -2.9357510254328822e+00 2 -3 3
12 4 2 4.0999999999999998e-01 -1.2643219163999200e+01 -4.8335960534562670e+00 -3.0062382749389638e+00 -1 0 5
628 210 1 -8.1999999999999995e-01 -1.1652624605872345e+01 -4.7534756577750308e+00 -5.2680524379060500e-01 6 0 1
346 116 1 -8.1999999999999995e-01 -1.2347413546376664e+01 -7.3124126826073521e-01 -1.5273444002542291e-01 1 3 -5
2098 700 1 -8.1999999999999995e-01 -1.2734805510401761e+01 -7.3273690648080230e+00 -8.1060277583549833e-02 -5 3 4
84 28 2 4.0999999999999998e-01 -1.3577138909683390e+01 -2.1015471529394052e+00 -1.1376064036302935e-01 -3 2 -6
2234 745 2 4.0999999999999998e-01 -1.3977542138688476e+01 -7.3331496083438807e-02 -7.2893515520148622e+00 5 5 11
1100 367 2 4.0999999999999998e-01 -8.8297131256797350e+00 -1.1232781723142640e+01 4.4815249713613099e+00 2 1 -4
547 183 1 -8.1999999999999995e-01 -1.2078482903314931e+01 -9.8610278706724230e+00 6.5265125465184539e+00 2 2 1
1915 639 1 -8.1999999999999995e-01 -1.0137177563496296e+01 -1.1583003456293925e+01 5.2882855396796167e+00 1 9 3
1916 639 2 4.0999999999999998e-01 -1.0957614795575751e+01 -1.1216496038694570e+01 5.7270510905266718e+00 1 9 3
876 292 2 4.0999999999999998e-01 -1.1573570869935375e+01 -1.4120998646460176e+01 5.0970413105395735e+00 1 6 -2
455 152 2 4.0999999999999998e-01 -1.3292298219867568e+01 -1.3733877513722852e+01 4.5629105489530843e+00 7 -3 -5
549 183 2 4.0999999999999998e-01 -1.1991627568524891e+01 -9.7959334211085221e+00 7.5205844997144737e+00 2 2 1
1917 639 2 4.0999999999999998e-01 -1.0196220927966650e+01 -1.2580561882188533e+01 5.2515261391826442e+00 1 9 3
1762 588 1 -8.1999999999999995e-01 -1.0725693901872727e+01 -8.5119889025489002e+00 3.2152766472259806e+00 6 9 5
771 257 2 4.0999999999999998e-01 -1.4116138327700245e+01 -1.1479355378698987e+01 1.1996976170464677e+00 1 0 -4
905 302 2 4.0999999999999998e-01 -8.8003826615651288e+00 -1.3635591022142840e+01 2.5326101187269963e+00 -3 10 1
1099 367 1 -8.1999999999999995e-01 -7.8933284254659206e+00 -1.1199866325219871e+01 4.1321534810219127e+00 2 1 -4
1101 367 2 4.0999999999999998e-01 -7.7621956599989703e+00 -1.0357833408700159e+01 3.6089471144002800e+00 2 1 -4
1764 588 2 4.0999999999999998e-01 -1.1014550701855651e+01 -8.6721369689048480e+00 4.1591381185442451e+00 6 9 5
874 292 1 -8.1999999999999995e-01 -1.0581776764448808e+01 -1.4094852957124747e+01 5.2220253130891550e+00 1 6 -2
226 76 1 -8.1999999999999995e-01 -1.2768948746968919e+01 -1.1921647565335848e+01 4.0467358534202305e+00 4 -1 -2
548 183 2 4.0999999999999998e-01 -1.2934459399525617e+01 -9.4320958356403644e+00 6.2379268852518450e+00 2 2 1
228 76 2 4.0999999999999998e-01 -1.1802168882266082e+01 -1.1814067352248603e+01 3.8149529134561000e+00 4 -1 -2
227 76 2 4.0999999999999998e-01 -1.3294613756418892e+01 -1.1175311395178394e+01 3.6385462225843845e+00 4 -1 -2
904 302 1 -8.1999999999999995e-01 -8.5833360192271897e+00 -1.3364954988880175e+01 1.5947364435025335e+00 -3 10 1
1763 588 2 4.0999999999999998e-01 -1.0711793559017405e+01 -9.3800844002091885e+00 2.7191142495905609e+00 6 9 5
2160 720 2 4.0999999999999998e-01 -9.7300602580542694e+00 -1.1663718238186512e+01 1.8909702832302244e+00 -2 5 1
2099 700 2 4.0999999999999998e-01 -1.2143820144933676e+01 -8.1294383827951489e+00 4.8539061335244327e-03 -5 3 4
934 312 1 -8.1999999999999995e-01 -5.9235169428027135e+00 -1.2176647214770934e+01 6.0517027608472702e+00 -2 -2 6
936 312 2 4.0999999999999998e-01 -6.7500312218829084e+00 -1.1867621800892190e+01 5.5812374614808533e+00 -2 -2 6
935 312 2 4.0999999999999998e-01 -5.5236159403828378e+00 -1.2945401145458598e+01 5.5526469704526527e+00 -2 -2 6
2195 732 2 4.0999999999999998e-01 -6.8250948257600790e+00 -1.2450739344935080e+01 1.6698691502068250e+00 4 3 1
920 307 2 4.0999999999999998e-01 -1.4531397139992885e+01 -7.6240492160482454e+00 5.8568074958771632e-01 7 2 -1
308 103 2 4.0999999999999998e-01 -1.3924001753111961e+01 -1.1827204663859781e+01 5.8989685693332596e+00 1 4 0
2158 720 1 -8.1999999999999995e-01 -1.0472608837379763e+01 -1.1019387613216793e+01 2.0737810291110677e+00 -2 5 1
2196 732 2 4.0999999999999998e-01 -6.5119699987717610e+00 -1.0880171136090063e+01 1.9889121959268508e+00 4 3 1
1934 645 2 4.0999999999999998e-01 -6.1645646035715238e+00 -8.9604713802058384e+00 3.2507760165848651e+00 2 2 3
309 103 2 4.0999999999999998e-01 -1.5037720408396201e+01 -1.0803846781924896e+01 6.5145086527887308e+00 1 4 0
1933 645 1 -8.1999999999999995e-01 -6.9662089379000207e+00 -8.9560950784292004e+00 2.6530241130099235e+00 2 2 3
307 103 1 -8.1999999999999995e-01 -1.4594037405774277e+01 -1.1692667659395672e+01 6.6289769045082032e+00 1 4 0
2194 732 1 -8.1999999999999995e-01 -6.1225482764453680e+00 -1.1739249499482510e+01 1.6568049608117335e+00 4 3 1
2159 720 2 4.0999999999999998e-01 -1.1081154879602451e+01 -1.0978582242327514e+01 1.2813374815412928e+00 -2 5 1
906 302 2 4.0999999999999998e-01 -8.5442101639680814e+00 -1.4177947678969733e+01 1.0138128570225255e+00 -3 10 1
454 152 1 -8.1999999999999995e-01 -1.3138255181846358e+01 -1.4707771985780145e+01 4.7295251957048059e+00 7 -3 -5
2385 795 2 4.0999999999999998e-01 -9.5377598510287385e+00 -8.0098687048725559e+00 6.0248158124304041e+00 7 -4 4