2611
Atoms. Timestep: 23000000
O -13.902 5.63335 10.7267
H -14.4531 6.19018 10.1053
H -14.1802 5.81258 11.6704
O -5.07386 14.7173 14.5823
H -4.53358 14.5576 13.7561
H -4.75136 -14.4704 -14.9825
O 14.08 3.17335 9.8218
H 13.6327 2.93626 10.6842
H 14.8322 3.80778 9.99986
O -12.6281 -4.13964 -4.18516
H -13.011 -3.41019 -3.61832
H -12.3981 -4.92376 -3.60876
O -6.84303 9.30116 2.82955
H -6.051 9.46952 2.24276
H -7.43215 8.61358 2.40511
O 6.27787 8.66774 -1.17241
H 6.0374 8.12841 -1.97944
H 7.24471 8.53149 -0.956436
O 8.66895 6.69797 5.00501
H 9.49466 7.05189 5.44427
H 8.52279 5.74927 5.28537
O 7.92777 12.5727 9.56607
H 8.87322 12.2891 9.72628
H 7.31011 11.9828 10.0861
O -4.06414 -7.35105 -5.26539
H -4.86106 -7.95254 -5.20947
H -4.12884 -6.64558 -4.55962
O -14.4682 14.7121 -7.85955
H -14.9306 13.8831 -7.54481
H -14.6211 14.8267 -8.84113
O 8.74321 -13.776 5.41682
H 9.13588 -14.1213 6.26921
H 8.26129 -12.9182 5.59529
O 1.63417 7.00655 -4.74038
H 1.41252 7.90141 -4.35295
H 1.04887 6.30967 -4.32593
O -4.99336 3.65272 8.39155
H -5.60309 2.99654 8.83613
H -5.45781 4.53415 8.30582
O -11.2705 13.524 -12.5891
H -11.7561 14.1343 -13.215
H -11.1978 12.6149 -12.9993
O 3.93775 6.227 -0.835922
H 4.45117 6.41658 -1.67285
H 4.39381 5.50005 -0.322563
O 13.725 7.3874 -13.8423
H 13.0535 8.1284 -13.8382
H 14.5981 7.72682 -13.4924
O 14.646 -14.0136 12.9739
H -14.9096 -14.4492 12.2019
H 13.7616 -14.4554 13.1247
O -4.56212 13.3971 -9.89215
H -3.83672 14.0459 -9.66228
H -4.1768 12.6389 -10.4181
O 11.7133 -3.35941 -3.12625
H 12.4273 -3.92722 -2.71657
H 12.0059 -3.05969 -4.0343
O 9.14063 -2.63783 -4.27936
H 9.82124 -3.09575 -3.70746
H 9.43319 -1.69845 -4.45817
O -14.7397 6.66233 -7.76797
H 15.004 6.07956 -8.53277
H -14.9613 7.61455 -7.97817
O 8.03577 7.42878 14.7347
H 8.56885 8.11611 -14.7904
H 7.91411 6.6226 -14.7047
O 11.2603 13.4611 -2.87529
H 10.8423 13.5066 -1.968
H 10.5824 13.7087 -3.56742
O -10.3369 6.97621 9.18021
H -9.76617 6.8187 8.37435
H -10.7908 6.12356 9.43901
O -10.7941 -4.96539 -6.10744
H -11.5216 -4.78094 -5.44664
H -10.5487 -5.93415 -6.07133
O 9.5217 9.56838 -14.5105
H 9.35316 10.199 14.7504
H 9.33828 10.0321 -13.6437
O -7.8039 2.99229 -7.88014
H -7.94922 3.84577 -7.37969
H -7.30164 3.18197 -8.72379
O -14.7291 -3.99127 2.56887
H 14.9869 -4.59897 3.3032
H -13.7636 -4.16133 2.37187
O 7.7861 -7.47249 -3.84324
H 6.91165 -7.82324 -3.50813
H 7.66136 -6.5431 -4.1906
O -5.91163 13.715 -0.499005
H -5.09242 13.3355 -0.0690385
H -6.10932 13.2128 -1.34082
O -7.05355 -11.5027 -10.2349
H -6.55301 -11.1459 -11.0236
H -8.01412 -11.6327 -10.4807
O -3.4902 -6.05668 7.60812
H -3.75787 -6.93332 7.20834
H -4.24575 -5.40711 7.52335
O -2.76352 -3.84897 11.3933
H -1.8948 -4.15769 11.7806
H -3.25497 -4.63157 11.0112
O -7.13179 2.39344 -0.306728
H -6.88583 1.50768 -0.700326
H -6.83582 3.1249 -0.921025
O 0.965877 13.8864 9.21584
H 0.555589 13.4704 8.4043
H 1.4979 14.689 8.94615
O 1.09398 14.6792 4.97043
H 1.61123 14.0401 5.53958
H 0.32677 -14.971 5.49557
O -4.53851 0.755751 12.6021
H -4.21109 -0.00139908 12.0368
H -3.94352 0.858135 13.3992
O 13.087 -5.56498 -0.0823285
H 13.6099 -4.7132 -0.0493777
H 12.2386 -5.41585 -0.590193
O -3.02462 -6.56621 12.9833
H -3.20174 -6.54682 11.9993
H -2.98694 -7.51513 13.2965
O 2.02357 -1.70082 12.7095
H 1.2455 -2.31586 12.5817
H 1.82403 -1.06054 13.4513
O 5.56614 8.802 -14.9314
H 6.45652 8.44555 14.804
H 4.89015 8.61451 14.3744
O 6.0845 7.32762 -8.02113
H 6.38207 6.41433 -7.74304
H 6.86184 7.95584 -7.98832
O 12.8161 1.42849 -9.27451
H 12.4708 2.15959 -8.68605
H 13.6635 1.06287 -8.88952
O -13.5742 -7.82695 13.0916
H -14.5337 -7.70096 12.8397
H -13.3661 -7.27445 13.8987
O -11.4216 4.50441 7.51648
H -11.4582 4.36999 8.50672
H -12.3309 4.35908 7.12654
O 5.8511 -9.13237 -8.34687
H 4.99571 -9.51965 -8.69083
H 6.24244 -9.74552 -7.66066
O -6.00559 1.9698 10.4169
H -6.12453 1.16422 9.8365
H -5.44167 1.73075 11.2074
O -0.815502 -0.403809 13.0187
H -1.49044 -0.115424 12.3395
H -1.04017 -1.32288 13.3424
O -0.819114 -10.0138 14.8679
H -0.319479 -10.1868 14.0191
H -0.563971 -10.6988 -14.4681
O -6.57057 5.977 7.39958
H -7.56753 5.99473 7.32383
H -6.1659 6.03213 6.48679
O 14.5157 13.2769 -5.32259
H -14.5316 13.2826 -5.56083
H 13.982 12.9602 -6.10673
O -2.19397 13.0955 14.4352
H -2.87534 12.3969 14.6536
H -1.96147 13.0422 13.464
O 2.1888 12.9121 6.6531
H 3.10525 12.7931 7.03513
H 1.68141 12.0539 6.73045
O -5.74918 -12.6095 3.3064
H -6.48976 -13.2473 3.09509
H -4.87893 -13.1019 3.32022
O -11.5633 -6.42015 -13.3329
H -10.7105 -6.01549 -13.6629
H -12.3082 -6.18253 -13.9563
O 6.159 -0.800488 -4.75449
H 6.27684 -0.72607 -3.76425
H 6.99273 -0.493373 -5.21337
O 12.9085 13.384 9.49047
H 12.68 13.2006 8.53436
H 13.3052 14.2985 9.56886
O -8.76298 10.6352 13.79
H -9.35643 10.3133 14.5277
H -7.82896 10.316 13.9503
O 10.2996 5.85903 8.99469
H 10.6838 5.8629 9.91792
H 9.3033 5.79213 9.04856
O 6.22018 -14.5447 11.7226
H 6.26144 -14.9963 12.6138
H 5.78735 14.8634 11.0593
O 3.47716 9.19364 4.04079
H 3.85856 9.56961 4.88528
H 3.7112 8.22385 3.97216
O 6.38601 12.0613 -6.55923
H 6.98938 12.8482 -6.42984
H 5.47857 12.3787 -6.83446
O 11.6537 5.5875 -10.1232
H 12.6363 5.6283 -10.3041
H 11.1806 6.25329 -10.7002
O -1.98712 -13.0963 -2.62912
H -1.25061 -12.7026 -3.17913
H -1.75133 -14.0356 -2.37976
O 13.062 -5.00351 -9.77826
H 13.1371 -4.97509 -10.775
H 12.1018 -4.91329 -9.51369
O -9.96583 -10.841 -10.1273
H -10.6138 -11.5763 -10.3262
H -10.2722 -9.99808 -10.5695
O 11.5315 -14.8471 13.5081
H 10.5553 -14.9404 13.7041
H 11.9332 14.265 13.377
O -9.95522 14.8707 -1.20112
H -9.41427 14.6331 -2.00791
H -9.3686 -14.6994 -0.526704
O 10.8998 -0.924694 9.84462
H 10.3405 -1.73099 9.65221
H 11.2005 -0.514432 8.98366
O 14.5684 -14.0879 -0.488134
H -14.7433 -13.3832 -0.425785
H 14.0116 -13.9303 -1.30368
O -13.212 -5.9239 14.8135
H -13.8903 -5.34381 -14.7539
H -12.4718 -5.3547 14.4557
O -11.6441 0.989292 2.29086
H -11.4293 1.17029 1.33112
H -11.3437 0.0662484 2.53127
O 2.27431 -14.3106 -10.419
H 2.04964 -14.466 -9.45702
H 2.54389 14.8429 -10.8422
O 1.6949 -3.61226 6.04011
H 2.29516 -3.00805 5.51608
H 1.02403 -3.06418 6.53964
O 1.21315 -14.0113 14.495
H 1.22624 -13.2814 -14.84
H 0.404686 -13.9105 13.9151
O -13.1473 -12.5726 1.89403
H -13.5206 -12.3508 0.993257
H -13.3291 -11.8185 2.52512
O 3.19651 -14.0193 12.2169
H 3.95136 -13.5116 12.6322
H 2.41482 -14.0238 12.8405
O -10.228 2.45278 -4.39377
H -9.78711 3.00549 -3.68658
H -11.1497 2.20413 -4.0961
O 11.1429 -9.50019 -5.1823
H 11.5329 -8.58449 -5.0857
H 11.7892 -10.1767 -4.8294
O -5.94442 -5.43191 13.1876
H -6.57541 -5.85812 13.8358
H -5.08789 -5.94763 13.1681
O -3.24979 -12.4722 -9.0597
H -2.98292 -11.8518 -9.79712
H -2.96613 -13.4034 -9.28857
O 2.61492 -5.33128 3.28269
H 3.21792 -5.77081 2.61695
H 1.70088 -5.73203 3.22003
O -4.7317 8.92871 11.6765
H -4.02064 8.24086 11.5307
H -5.48076 8.77556 11.032
O 13.5968 -6.22824 4.5212
H 12.8816 -6.86694 4.80482
H 14.1824 -6.66529 3.83846
O 12.2447 5.8946 6.81908
H 12.1007 6.08151 5.84731
H 11.4917 6.28521 7.34872
O -13.3386 6.40537 -4.85466
H -12.4163 6.75939 -5.0095
H -13.9725 6.83389 -5.49846
O -3.06816 9.02779 -12.2216
H -3.32692 8.0688 -12.3372
H -3.84893 9.54348 -11.8688
O -9.13744 -14.4027 11.7973
H -9.89624 -14.2629 12.4334
H -9.13071 14.6639 11.4905
O -4.12314 -2.7796 -4.39106
H -4.34008 -3.65787 -3.96495
H -4.61774 -2.69773 -5.25632
O -2.51908 9.8787 0.53896
H -2.19963 9.53287 1.4212
H -2.30042 9.21637 -0.177632
O 1.25817 -2.0057 -14.4055
H 0.74224 -1.88184 -13.5579
H 0.714414 -2.54156 14.9671
O 11.8288 0.194027 7.66392
H 11.8484 1.18488 7.53048
H 12.4827 -0.238898 7.04347
O 9.20527 -11.575 -13.689
H 9.77269 -11.6009 -14.5121
H 8.25791 -11.3805 -13.9433
O 5.75101 14.2142 -9.33746
H 5.4843 14.291 -10.2982
H 4.94754 13.9918 -8.78523
O 12.8792 -7.19012 -14.8607
H 12.3438 -7.92457 -14.4435
H 13.1366 -7.45215 14.2277
O 1.7591 -13.0962 -0.679265
H 1.56111 -13.3292 0.272834
H 1.54362 -12.1327 -0.838367
O 8.93038 -0.705894 11.8127
H 8.9069 0.13038 12.3605
H 9.6549 -0.635009 11.1271
O -5.72068 -2.98474 12.2772
H -6.61843 -2.6062 12.5025
H -5.65369 -3.91736 12.6318
O 9.84478 -6.12484 13.0104
H 9.73871 -6.93096 13.5926
H 9.3841 -5.34486 13.434
O 12.5409 2.25235 1.21272
H 12.0197 2.99773 0.797036
H 11.9103 1.58836 1.61452
O 6.15279 3.34884 3.74213
H 6.73403 2.68279 3.27466
H 6.60111 3.64974 4.58383
O 3.44079 1.56164 10.5933
H 3.51591 1.58657 9.59648
H 4.35161 1.46163 10.9938
O -13.8025 -14.9067 3.3821
H -14.0539 14.2483 2.94477
H -13.5821 -14.2293 2.68024
O -9.24174 -11.2269 13.3584
H -9.84446 -11.8123 12.8161
H -8.78526 -11.776 14.0584
O 9.09284 14.8964 11.8474
H 9.87035 -14.9811 11.2345
H 8.24188 14.9576 11.3257
O 7.60322 -4.73897 -3.48535
H 8.02655 -3.87595 -3.76098
H 6.76079 -4.55071 -2.9805
O 9.47221 -7.90093 2.80111
H 9.74526 -7.05107 2.35036
H 9.29618 -7.72306 3.76929
O 0.981428 -7.09287 10.647
H 0.767492 -6.87088 9.69573
H 1.96164 -7.2698 10.7357
O -10.3648 6.10565 -12.5567
H -9.42709 5.83108 -12.7694
H -10.9834 5.33838 -12.7261
O 10.8585 11.774 -12.1577
H 11.2229 12.6077 -12.5726
H 9.86958 11.7352 -12.3011
O 7.63368 2.29496 1.58665
H 7.99933 1.79584 0.801046
H 8.19249 3.10696 1.75512
O -1.33892 -8.03561 0.938047
H -1.10692 -8.95074 1.26775
H -1.04412 -7.35501 1.60876
O 12.0224 -11.8003 8.48934
H 12.5634 -11.0768 8.91797
H 11.6976 -11.4891 7.59626
O -6.22303 11.515 -8.97636
H -7.07401 11.1661 -9.36894
H -6.02939 12.4211 -9.35236
O 10.953 -13.1245 10.7029
H 11.5586 -12.5433 10.1594
H 10.9357 -12.7967 11.6474
O -8.69076 -1.12769 0.923033
H -8.2711 -0.946229 0.0336799
H -8.12482 -1.77577 1.43263
O 7.56868 -12.798 -9.4904
H 6.70789 -13.1041 -9.89705
H 7.37591 -12.2276 -8.69202
O 1.16744 6.96834 6.99451
H 0.51357 6.79842 7.73178
H 2.07201 7.14075 7.38441
O 4.38887 -12.6626 -5.33171
H 3.67071 -13.3466 -5.45975
H 4.01859 -11.8803 -4.83086
O 7.78166 -0.272836 7.6947
H 7.28351 0.581043 7.84545
H 7.70813 -0.536264 6.73284
O -8.96909 -10.7706 -7.57587
H -8.53965 -9.89454 -7.35651
H -9.25814 -10.7697 -8.53318
O -14.3283 -5.57701 10.9618
H 14.9796 -5.06116 10.4831
H -14.6525 -6.50655 11.1375
O -8.08566 -14.0366 -12.3473
H -7.11962 -13.7841 -12.2926
H -8.17054 14.9855 -12.3421
O -7.8738 -12.6282 -5.62674
H -7.71829 -12.2448 -6.53712
H -8.84855 -12.8163 -5.50632
O -2.49555 -4.68824 14.8982
H -3.09796 -5.31885 14.4089
H -2.87638 -3.76449 14.8577
O 3.47604 -8.09151 -0.151746
H 3.60835 -7.93293 0.826689
H 3.08401 -9.0007 -0.292031
O 11.9848 10.7002 -6.68968
H 12.3798 10.0016 -6.09304
H 11.1612 10.3384 -7.12656
O 4.81128 -8.13569 -4.4676
H 5.01226 -7.75682 -5.37095
H 4.29877 -7.46503 -3.93138
O -4.04378 0.389659 -5.05519
H -4.40734 -0.168269 -5.8012
H -3.97813 -0.164905 -4.22565
O 1.54821 5.88022 10.0557
H 1.05305 6.51629 10.6475
H 1.08286 4.9951 10.0545
O 4.78422 -10.5703 -12.0524
H 3.83934 -10.4639 -11.7428
H 5.26128 -11.2125 -11.4524
O 10.4752 -2.34862 -0.0437535
H 10.5529 -3.32165 -0.260929
H 10.487 -1.81621 -0.890153
O 13.4457 -3.84702 10.4126
H 13.0425 -2.93742 10.3121
H 12.7247 -4.53833 10.364
O -10.5953 12.4211 -10.0735
H -11.1161 13.0056 -9.45139
H -10.5107 12.8719 -10.9621
O -0.442004 4.77916 -3.85416
H -0.240405 4.20113 -4.64487
H -1.02824 4.27926 -3.21666
O -5.03724 5.37721 -0.552633
H -5.74241 6.06598 -0.384361
H -4.25734 5.80368 -1.01075
O -0.240274 -6.04346 -13.1808
H -0.50013 -5.66751 -14.0702
H -1.06365 -6.23741 -12.6475
O 10.9379 14.3159 -0.202219
H 11.7811 13.9216 0.163088
H 10.9901 -14.7048 -0.15816
O -2.86531 10.6193 12.8432
H -3.45015 9.99045 12.3309
H -3.39166 11.0341 13.5854
O 13.6484 -7.68504 12.208
H 13.1576 -7.53521 11.3497
H 13.6341 -8.65894 12.4345
O 0.928403 -13.7575 -7.71974
H 0.322927 -12.9622 -7.68846
H 1.3779 -13.8692 -6.83348
O -12.5377 6.38519 2.69496
H -12.8771 5.45101 2.80498
H -13.2652 6.96274 2.32475
O 3.80608 4.27312 10.1547
H 3.48905 3.37757 10.4669
H 3.03574 4.91037 10.1327
O 13.4778 -0.27187 -0.396906
H 14.4584 -0.421494 -0.270178
H 13.1747 0.472729 0.197789
O 3.43263 9.95486 -12.6566
H 4.37703 9.65194 -12.5288
H 2.89177 9.70817 -11.8525
O -4.24761 5.14601 12.223
H -3.5905 5.80186 12.5945
H -3.76 4.34192 11.8829
O -10.0286 12.9326 2.68113
H -9.42777 13.2349 1.94114
H -9.53323 12.2982 3.27461
O 5.91748 -4.54735 -7.47573
H 5.5125 -4.00638 -6.73862
H 6.9137 -4.53483 -7.38975
O 2.50749 -0.379938 6.00177
H 2.7139 -0.922248 5.18734
H 1.68845 -0.743536 6.44556
O 8.82323 3.47118 -11.9263
H 8.20152 3.81136 -11.2208
H 9.66363 3.13908 -11.498
O -10.0686 5.26504 3.91931
H -10.0985 4.26647 3.9635
H -10.941 5.60964 3.5728
O -10.7048 -14.0187 1.98753
H -11.2276 -13.1947 1.76926
H -11.2474 -14.8275 1.76096
O -14.617 2.3678 0.859659
H 14.45 2.4056 1.16497
H -14.3602 1.41709 0.685794
O 14.6162 13.0348 6.4322
H 14.5074 13.9363 6.01336
H 13.8385 12.4567 6.18541
O -13.7146 -10.1571 8.49534
H -13.1376 -9.4348 8.87655
H -13.1398 -10.9149 8.18663
O 6.70727 -2.26271 0.675314
H 7.50956 -1.83515 1.09187
H 6.55567 -3.16055 1.0887
O -0.917061 7.89486 10.2103
H -1.14295 8.78915 9.82407
H -1.10577 7.18251 9.53437
O 9.57033 1.38242 5.39769
H 8.88674 0.663788 5.27015
H 10.3655 1.00555 5.87282
O -12.4843 -3.91795 -11.6931
H -11.6725 -4.44012 -11.9544
H -13.2929 -4.32372 -12.119
O -4.63507 6.93581 9.13932
H -4.3992 6.14882 9.7094
H -5.39119 6.69262 8.53176
O 12.0647 -11.9179 13.8125
H 12.5953 -11.6957 14.6304
H 11.8603 -12.8968 13.8036
O 3.47721 6.37202 -13.0805
H 3.36242 6.93112 -13.9016
H 3.9638 5.5306 -13.3155
O 13.658 -13.9148 8.32849
H 13.0117 -13.1625 8.45608
H 13.8002 -14.07 7.35088
O -5.94361 12.7285 -13.8552
H -5.46359 13.5374 -14.1947
H -6.87997 12.9764 -13.6067
O -7.22535 -9.28905 8.21042
H -7.67334 -9.70128 9.00374
H -7.88488 -9.2002 7.46401
O 9.6664 3.42378 -1.11075
H 8.80189 3.79723 -0.774354
H 10.4282 3.92489 -0.700182
O -6.90605 6.06878 10.9981
H -7.05426 7.05106 10.8834
H -6.05404 5.91646 11.4989
O -5.00926 -0.689464 -7.51716
H -5.57927 -0.361396 -8.27046
H -5.13499 -1.67561 -7.40904
O -4.29285 -11.9847 -3.77028
H -4.1191 -11.564 -4.66069
H -3.45996 -12.4324 -3.44493
O 8.1905 -2.30185 -7.76301
H 8.20967 -3.13925 -7.21676
H 8.13333 -1.50919 -7.15605
O -7.7158 -0.570482 -1.7003
H -7.40297 0.147908 -2.32163
H -7.03144 -1.29857 -1.66113
O 14.4041 10.3458 7.23912
H -14.9674 11.0965 7.37323
H 14.5236 9.96242 6.32332
O -12.5506 -5.176 8.88089
H -11.648 -5.55591 8.67835
H -12.9665 -5.68762 9.63271
O -14.1472 5.65864 -12.8969
H -13.4659 4.98515 -13.1835
H 14.962 5.35499 -13.1818
O -2.76922 -7.26323 4.08533
H -3.2259 -6.94149 4.91474
H -2.9966 -8.22476 3.93125
O -1.34969 6.21014 -6.1009
H -1.50392 5.63749 -5.29574
H -2.01941 5.97989 -6.80691
O 4.17737 11.4587 13.3057
H 3.95384 10.9486 12.4751
H 3.62906 11.1128 14.067
O -0.887965 -11.9468 -7.22501
H -1.79753 -12.2277 -7.53122
H -0.761627 -10.9716 -7.40653
O -9.66411 11.3801 -0.525599
H -9.91879 11.4411 -1.49069
H -10.4396 11.0341 0.00252306
O 2.33239 11.2484 -8.16357
H 2.45711 10.339 -7.76666
H 1.36838 11.3825 -8.39312
O -8.12482 -12.7716 -14.9965
H -8.51234 -12.7015 -14.0773
H -7.60701 -13.6234 14.9426
O 7.69241 14.5785 14.0517
H 8.27408 14.5904 13.2384
H 8.26464 14.5235 14.87
O -12.6813 -10.1418 4.2307
H -13.4633 -10.7304 4.4358
H -12.4336 -9.62009 5.04708
O -0.549922 12.9627 -13.331
H -1.25422 13.1289 -14.0212
H -0.509016 11.985 -13.1252
O 12.8329 -1.21751 11.6855
H 11.9355 -0.931287 11.3496
H 13.5254 -1.02728 10.9896
O -11.4844 14.5382 4.56926
H -10.9519 13.8778 4.04
H -12.3707 14.6813 4.12864
O 2.03279 8.2219 -0.386352
H 1.30398 8.05758 0.278341
H 2.64389 7.43081 -0.413322
O -11.6528 10.0209 4.22333
H -10.7109 9.75189 4.42419
H -11.7601 10.148 3.23726
O 4.58686 4.53954 -9.06168
H 4.6135 5.00909 -8.17918
H 5.52007 4.39521 -9.39074
O 9.99378 -13.9765 -9.75339
H 9.07941 -13.7295 -9.43264
H 10.6514 -13.2879 -9.44813
O -11.983 -1.45907 1.27346
H -12.4879 -2.09208 1.86032
H -11.383 -1.97662 0.663455
O -7.00957 1.08321 -6.08083
H -6.32882 0.43104 -6.41438
H -7.26714 1.70409 -6.8212
O -1.0272 14.4124 -2.27568
H -0.828196 13.9048 -1.4374
H -0.822462 13.8391 -3.06904
O 1.94999 13.5728 -14.4587
H 1.0646 13.4395 -14.0133
H 1.91285 14.3876 14.9812
O 3.4049 -1.30065 9.78432
H 2.51385 -1.11602 10.199
H 4.09438 -1.39199 10.5028
O 0.927235 -1.27124 -8.95371
H 0.708539 -0.506449 -8.34769
H 0.305618 -2.03216 -8.76776
O -4.92025 -14.3409 -5.94917
H -4.80585 -13.7709 -5.13553
H -5.44064 -13.8371 -6.63861
O 9.17934 10.543 6.72969
H 9.43026 11.2512 6.06974
H 8.37847 10.0455 6.39639
O -0.256373 -11.1834 4.9302
H -1.1867 -11.5386 5.02159
H 0.256203 -11.753 4.28765
O 4.56095 13.4403 -13.689
H 5.16344 12.6831 -13.9415
H 3.66884 13.3154 -14.1232
O 2.87541 -11.811 5.01559
H 2.94609 -11.1432 5.75657
H 3.10511 -12.72 5.36313
O -10.2889 -10.5263 -5.11411
H -10.6019 -11.4382 -4.84884
H -9.92533 -10.5564 -6.0452
O 10.278 -6.80985 -3.46257
H 9.31767 -7.03882 -3.62178
H 10.3455 -5.87004 -3.12764
O -11.4615 10.5012 -6.12882
H -10.4954 10.6593 -5.92479
H -11.5402 9.86998 -6.9004
O 8.5315 -0.89096 -13.9172
H 8.24229 -1.42588 -13.1234
H 9.07749 -1.46653 -14.526
O 11.3587 7.30938 -7.62201
H 11.2115 6.48201 -8.16401
H 11.9755 7.10457 -6.862
O -9.34869 -1.81422 -12.3957
H -9.44638 -2.80581 -12.4806
H -9.49187 -1.54545 -11.4432
O 14.5174 -10.0197 -6.81493
H 14.9791 -10.8982 -6.93808
H 14.3272 -9.61489 -7.7093
O 6.44321 -11.4171 -13.9997
H 5.8197 -10.9748 -13.355
H 6.12574 -12.3469 -14.1858
O -10.9877 -1.54866 -1.65916
H -10.6517 -1.90326 -2.53171
H -10.2122 -1.28174 -1.087
O -2.47526 -12.1684 0.0879633
H -2.57197 -12.2651 -0.902644
H -3.36312 -11.9432 0.489144
O -8.82498 -0.139957 9.80502
H -9.39739 -0.959464 9.83232
H -9.38618 0.650584 9.55989
O -11.859 0.81524 12.8141
H -12.2939 1.5818 13.2866
H -10.8682 0.949624 12.8027
O -14.5017 -6.07314 -8.45798
H 14.705 -5.73256 -8.93248
H -13.9443 -5.3004 -8.15448
O -11.3864 1.78651 10.4157
H -12.2167 1.69794 9.86556
H -11.571 1.47983 11.3495
O 9.71865 11.8151 -5.30862
H 9.91498 12.7713 -5.52548
H 10.5322 11.2601 -5.48222
O 7.62313 8.44884 -11.7786
H 6.90477 7.75633 -11.7125
H 7.25103 9.34069 -11.5215
O 4.55839 -2.94897 -5.58689
H 5.26397 -2.32998 -5.24192
H 3.9691 -3.23648 -4.83187
O -12.0978 -12.3473 8.34496
H -12.6788 -13.1356 8.54734
H -11.1784 -12.6625 8.10976
O 13.7507 8.75338 -2.38167
H 13.2368 8.81062 -3.23761
H 14.7202 8.61493 -2.58362
O -10.9593 -8.11971 -11.3546
H -10.5206 -7.44116 -10.7655
H -11.827 -7.75586 -11.6934
O 4.11211 -3.29889 7.71773
H 3.63092 -4.17414 7.66895
H 3.7582 -2.76634 8.48657
O 4.45942 4.56391 12.7747
H 4.32361 4.51722 11.785
H 5.3263 4.12616 13.0132
O -0.621309 10.0525 -12.6341
H -1.53279 9.71303 -12.4019
H 0.0648204 9.55557 -12.1028
O -9.33007 -5.37568 12.3116
H -9.89346 -5.12439 13.0986
H -9.44919 -4.69759 11.5863
O -7.91132 -3.74103 4.72844
H -8.48984 -3.03982 5.14512
H -7.05983 -3.82174 5.24655
O -7.86301 11.6377 11.1805
H -7.36129 12.494 11.3031
H -8.55339 11.5501 11.8986
O 11.3611 10.1494 3.24679
H 10.4967 9.65406 3.33357
H 12.0778 9.65836 3.742
O -3.73904 -12.2527 -12.9428
H -4.45312 -12.1581 -13.6364
H -3.52616 -11.3542 -12.5588
O 1.52091 -5.81108 7.97756
H 1.48195 -5.1804 7.2025
H 0.619744 -6.22058 8.11969
O -1.84531 10.8617 -5.80017
H -2.68039 10.7456 -5.26244
H -1.43464 9.96686 -5.97535
O 7.38029 -8.26471 6.16161
H 7.71029 -9.14053 6.51378
H 7.22482 -7.63626 6.92376
O -11.5661 -8.6975 9.19676
H -11.1085 -8.61966 10.0825
H -11.3678 -7.88625 8.64673
O -2.58657 13.3187 1.04603
H -2.1731 14.2213 1.16605
H -1.97234 12.6194 1.41166
O -6.02578 1.90786 -13.215
H -5.51672 2.50723 -12.5973
H -6.28513 1.07251 -12.7304
O 11.5312 -2.58037 3.95381
H 11.2511 -2.95847 4.83616
H 11.7041 -3.32674 3.31111
O 11.2309 13.5157 -9.99257
H 10.712 14.3591 -10.1316
H 10.8784 12.8036 -10.5999
O 10.6283 -8.44816 -1.09668
H 11.5428 -8.41896 -0.693326
H 10.5723 -7.78618 -1.84411
O 1.36158 -13.506 7.94699
H 2.16029 -13.4009 7.35453
H 0.586853 -13.8347 7.40686
O 0.137214 11.5247 0.394777
H 0.476529 11.0343 1.19749
H -0.776169 11.1909 0.161726
O -12.713 12.7853 -5.79075
H -12.1879 11.9618 -6.00521
H -12.1422 13.5928 -5.93955
O -3.27771 -13.4692 10.1651
H -2.74052 -12.7255 9.76721
H -3.89532 -13.8418 9.47257
O 10.3385 -5.21868 -0.468605
H 10.5237 -5.27507 0.512473
H 9.52538 -5.75864 -0.68588
O 10.1468 -14.3644 7.73679
H 10.3477 -13.8519 8.57165
H 10.496 14.7213 7.82612
O -6.8157 -10.2414 14.6728
H -7.5703 -10.5617 14.1001
H -6.3896 -9.44321 14.247
O -6.97776 10.4652 -0.433284
H -6.94774 11.0793 -1.22194
H -7.92969 10.2546 -0.210905
O -10.5294 -6.61826 2.64205
H -9.89437 -6.397 1.90194
H -10.7446 -7.59448 2.61592
O -4.06717 4.23571 -14.3685
H -5.00176 4.06206 -14.6789
H -3.42446 3.99828 14.9216
O -0.791789 -6.94839 8.37806
H -0.628487 -7.93255 8.30909
H -1.77533 -6.77065 8.34573
O -5.51793 10.617 7.347
H -4.84787 9.8877 7.20867
H -6.42087 10.2993 7.05758
O -11.8646 13.6905 0.245845
H -12.7301 13.7058 -0.25484
H -11.1372 14.0565 -0.334595
O -6.8589 -0.570021 -12.1052
H -7.65344 -1.16813 -12.2099
H -6.02183 -1.10354 -12.2262
O -2.85732 2.6472 -5.20408
H -3.23852 1.72437 -5.14886
H -1.89393 2.5947 -5.46696
O -14.8904 5.40309 13.1368
H -15.0067 5.90338 13.9948
H 14.2566 5.37427 12.6471
O 14.9471 -9.2412 6.13474
H -14.6918 -9.56451 7.00159
H 14.3702 -8.44153 6.30107
O -13.8359 -1.88029 -2.37386
H -12.8673 -1.87524 -2.12535
H -14.393 -1.89346 -1.54351
O -14.0487 -11.7 -0.570382
H -14.7574 -10.9953 -0.537383
H -13.3785 -11.466 -1.27462
O 8.56258 -4.79117 -6.7013
H 8.8688 -4.31981 -5.87423
H 8.7591 -5.7683 -6.62018
O 6.37194 1.99111 -7.75916
H 5.84939 1.42064 -8.3928
H 5.81965 2.17922 -6.94702
O -1.48802 -2.41529 -9.04743
H -2.06793 -2.78079 -8.31935
H -1.86191 -1.54413 -9.36568
O 13.8421 12.67 -2.71493
H 12.9073 12.987 -2.87523
H 14.3295 12.6152 -3.58637
O -8.06849 -14.8174 -9.0412
H -7.47881 -14.1503 -8.58597
H -7.6958 14.9884 -9.94444
O 9.71246 14.9591 -5.0557
H 9.26169 -14.7814 -4.20746
H 9.0765 -14.956 -5.82047
O 4.42236 -2.65162 13.8371
H 3.56403 -2.48385 13.3522
H 4.23518 -3.15098 14.683
O -0.358978 0.871366 10.2602
H -0.231711 0.0073348 10.7473
H -1.00129 0.737138 9.5056
O -4.04701 -5.26648 -7.26044
H -4.1667 -5.94108 -6.53204
H -3.17624 -5.42823 -7.72476
O 9.02828 12.7089 5.18419
H 9.24905 12.9701 4.24449
H 8.11568 13.0444 5.41775
O 12.0024 -2.08125 14.1296
H 12.3745 -1.57445 13.352
H 12.5299 -2.92009 14.264
O 7.86608 -5.02503 5.6573
H 7.92374 -5.44783 6.56168
H 6.93457 -5.11665 5.30532
O 5.62074 3.89476 -2.64839
H 6.04986 3.81395 -1.74877
H 4.66577 3.60397 -2.58948
O -1.95705 8.24257 -14.9121
H -1.06987 7.83154 14.8967
H -1.82347 9.04561 -14.3314
O -0.594928 12.6325 3.08926
H -0.120105 13.4865 3.30192
H 0.0651124 11.8817 3.06312
O 6.73619 -6.30481 8.02825
H 6.99492 -5.75816 8.82463
H 5.74122 -6.40045 7.99862
O -12.6075 12.6846 14.5879
H -12.319 13.642 14.5987
H -13.0284 12.4732 13.7058
O 1.67259 -6.9322 -5.26929
H 1.03777 -6.57585 -5.95485
H 2.60859 -6.86472 -5.61475
O 6.47941 -11.0061 3.22544
H 7.47771 -11.008 3.16742
H 6.09524 -10.7125 2.35009
O -4.12069 3.86293 5.8242
H -3.12213 3.83082 5.86724
H -4.50167 3.57176 6.70173
O 13.5183 -11.8586 -13.3663
H 13.381 -12.2632 -12.4622
H 14.3532 -12.2286 -13.7738
O -5.79348 -0.530836 4.64397
H -6.10788 -1.08373 3.87232
H -5.88521 0.439047 4.41836
O -12.3506 -3.50447 11.521
H -12.8082 -2.62191 11.4128
H -12.9833 -4.2399 11.2785
O 4.37372 11.6202 9.3914
H 3.58113 11.3047 8.86964
H 4.07712 12.2801 10.0817
O -3.91394 -14.3844 2.81958
H -4.06012 14.6484 2.7354
H -2.95155 -14.1742 2.64741
O 6.0291 -8.19227 14.9666
H 6.17585 -7.44357 14.3201
H 6.63824 -8.95232 14.7402
O 3.67998 9.7704 6.79052
H 3.41779 9.05782 7.44126
H 4.29075 10.423 7.23897
O 11.9743 3.70901 3.78374
H 11.1194 3.21314 3.63149
H 12.5418 3.65497 2.96215
O 1.12102 -14.3978 2.35058
H 0.94912 -14.7909 3.25384
H 2.07938 -14.1199 2.28491
O 9.96649 9.38041 -7.95634
H 10.2787 9.52448 -8.89536
H 10.3952 8.55674 -7.58521
O -9.1445 -4.82114 -12.0862
H -9.48302 -5.50233 -11.4371
H -8.27918 -5.13455 -12.4773
O -1.27503 11.2405 10.8341
H -1.71247 10.6707 11.5298
H -1.2788 12.1945 11.1339
O -12.8459 1.82314 -5.25531
H -13.1965 1.98901 -6.17703
H -12.4076 0.924912 -5.22203
O 1.61671 4.24292 -8.47866
H 1.00689 4.54215 -9.21254
H 2.52731 4.63005 -8.62331
O -9.32374 -13.4204 4.92138
H -8.54191 -14.0408 4.85931
H -10.159 -13.9109 4.67304
O 3.42413 -8.00188 2.678
H 4.40436 -8.15641 2.80152
H 3.01757 -7.72734 3.5494
O -0.725421 13.7585 11.4884
H -0.404559 14.0379 10.5834
H -0.645892 14.5277 12.1224
O 7.48253 14.9685 8.48783
H 7.41929 14.1041 8.98668
H 8.43143 -14.8912 8.21515
O 2.70638 12.579 -0.199598
H 1.81287 12.2746 0.130517
H 3.30509 11.787 -0.319055
O 4.26154 0.610044 7.95334
H 3.81426 0.412699 7.081
H 4.09673 -0.143028 8.59029
O 14.8616 -9.62596 -4.18184
H -14.4347 -10.3176 -4.19481
H 14.4494 -9.55743 -5.09032
O 7.67236 10.8307 -4.0215
H 8.50558 11.0871 -4.51137
H 6.87617 11.0205 -4.59599
O -4.12071 12.0809 -7.20444
H -3.83044 11.1529 -6.97094
H -4.92641 12.0394 -7.7953
O -5.19716 -14.2475 -11.6022
H -4.91736 14.9326 -11.1344
H -4.42461 -13.8817 -12.1212
O -8.91083 -12.1777 0.519146
H -9.18092 -12.0361 1.4715
H -8.0218 -12.6346 0.489231
O 4.16226 13.5641 11.6697
H 4.07719 12.9926 12.4859
H 3.79626 14.4748 11.8609
O -14.9673 -3.76655 -6.06923
H -14.098 -3.94041 -5.60642
H 14.4368 -4.54262 -5.92702
O 6.4403 14.4262 5.12502
H 6.21453 14.5782 4.16279
H 7.23722 14.9776 5.37157
O 12.2042 -14.3312 -5.49951
H 11.2553 -14.5726 -5.29619
H 12.655 14.9165 -5.94983
O 12.8423 -8.43434 0.437169
H 12.8712 -7.45824 0.2218
H 13.55 -8.91165 -0.0837962
O 0.0869044 5.84041 2.43045
H 0.652363 5.64091 3.23073
H -0.252552 4.98446 2.04044
O -10.683 -14.5803 -9.70893
H -9.71331 -14.6388 -9.47185
H -10.7762 -14.3774 -10.6837
O 10.0008 -8.12146 -12.1934
H 9.60083 -7.26124 -12.5096
H 9.28769 -8.68939 -11.7823
O -12.163 -10.2635 -2.34754
H -12.5137 -9.32705 -2.35957
H -11.8787 -10.5248 -3.26997
O -5.92436 -10.0973 4.45576
H -6.06016 -11.0498 4.18301
H -6.59932 -9.5197 3.99669
O 14.5954 -11.1763 4.19771
H 13.875 -11.7484 4.58988
H 14.6762 -10.3321 4.72757
O 7.60596 -4.82466 -14.7573
H 8.38874 -4.36397 14.8428
H 7.91098 -5.33808 -13.9552
O -1.30413 -7.81427 -1.85339
H -1.09058 -8.00054 -0.894392
H -0.608541 -8.23299 -2.43718
O 13.5684 -6.00934 -5.40099
H 13.86 -6.48015 -4.56836
H 13.0993 -6.65589 -6.0026
O -2.5384 -6.81828 -11.8847
H -2.52496 -7.63345 -11.3057
H -3.43192 -6.73792 -12.3265
O 10.0202 3.52944 -4.09223
H 9.22887 4.11259 -4.2759
H 10.1405 3.43223 -3.10427
O 11.8758 2.62318 14.8116
H 10.9911 2.37322 -14.8135
H 12.339 1.80007 14.4831
O 0.181055 -1.30781 6.96956
H -0.426501 -0.80041 6.35849
H -0.33955 -1.64176 7.75533
O -4.10691 5.08528 -4.45478
H -5.06266 4.8127 -4.34423
H -3.55515 4.28222 -4.67981
O -11.118 7.07037 13.0136
H -10.7714 7.66357 12.287
H -11.4828 6.23015 12.6124
O -10.0083 9.16251 11.5548
H -9.35618 9.01803 10.8105
H -9.54612 9.6093 12.3208
O 8.95427 -2.6173 8.25467
H 8.29843 -3.2738 8.62732
H 8.56227 -1.69801 8.28986
O -13.097 9.62964 -2.31664
H -13.5702 9.63137 -1.43572
H -12.5626 10.4698 -2.40958
O -13.9207 -7.06096 -10.8537
H -14.1311 -6.92476 -9.88559
H -14.1583 -7.99566 -11.1181
O -11.5379 -13.759 12.9633
H -11.568 -12.7963 12.6943
H -12.1194 -14.2945 12.3508
O 11.9695 -12.732 -7.70606
H 12.0925 -13.4595 -7.03099
H 11.3685 -12.0267 -7.33027
O 14.0261 -1.13656 2.79274
H 14.5265 -1.98615 2.95957
H 13.0559 -1.27693 2.99001
O -2.73766 -10.7386 9.6191
H -2.87309 -10.3828 8.69441
H -1.78365 -10.6093 9.88956
O -0.626008 -5.6105 12.2424
H 0.0551016 -6.0224 11.6371
H -1.11132 -6.33123 12.7374
O 2.10731 -5.14745 -9.17115
H 1.85636 -4.75312 -8.28712
H 3.03861 -4.87024 -9.40747
O -6.48123 -0.108132 8.60901
H -7.2856 -0.18228 9.19849
H -6.73134 0.359291 7.7611
O 5.44007 5.11083 1.587
H 5.84824 4.31468 2.03368
H 4.79939 5.55313 2.2146
O -2.10914 -14.8239 -10.004
H -1.50244 -14.3946 -10.673
H -1.69542 14.3456 -9.67532
O 3.24552 -9.85388 7.22789
H 3.10807 -9.94855 8.21386
H 3.82693 -9.06063 7.04705
O 6.1661 -11.5098 -7.14281
H 5.30093 -11.9837 -6.979
H 6.70098 -11.491 -6.29809
O 3.17064 -5.13735 -14.563
H 3.45454 -5.40859 -13.6434
H 2.55737 -5.83106 -14.9407
O 6.94546 -4.43246 10.1555
H 6.3729 -3.67662 9.83791
H 7.01701 -4.40036 11.1524
O 10.319 7.26628 -11.6873
H 9.38259 7.56436 -11.5024
H 10.3966 6.98491 -12.6437
O -0.00843014 -14.554 -11.797
H 0.975226 -14.4575 -11.645
H -0.218056 14.515 -12.0307
O -7.96546 -8.53454 -2.55731
H -8.53221 -9.35727 -2.51379
H -7.00545 -8.78402 -2.43033
O -5.735 -9.02684 -9.94324
H -6.12319 -9.92389 -9.73205
H -4.7523 -9.11843 -10.1042
O -8.29049 3.62034 10.4856
H -7.50731 3.01454 10.6256
H -8.00166 4.57069 10.6013
O 10.5114 -10.1452 6.5928
H 9.57128 -10.2893 6.90157
H 10.7349 -10.8124 5.88225
O 5.73091 1.93868 13.5181
H 5.75141 1.10403 14.0684
H 6.17007 1.76726 12.6362
O -2.63289 -12.1774 5.25684
H -3.07217 -11.3829 4.83747
H -3.31372 -12.7055 5.7644
O -1.02034 -14.1718 6.50531
H -1.52511 -14.9993 6.75138
H -1.66351 -13.4622 6.2176
O -8.91619 -1.27128 5.61353
H -9.38277 -0.435714 5.90355
H -8.02189 -1.03823 5.23155
O 10.748 1.07295 -4.63778
H 11.676 1.0926 -4.26571
H 10.3669 1.99745 -4.63186
O 13.6712 -0.525618 -11.1505
H 13.3196 0.0817047 -10.4381
H 13.0611 -0.498747 -11.9424
O -1.88319 8.75952 -2.25099
H -0.985811 8.64707 -2.67766
H -2.15027 9.72257 -2.28533
O -2.21186 12.2869 -10.6664
H -1.96706 11.9664 -11.5815
H -1.563 11.9197 -10
O -14.3027 10.31 4.50445
H -14.7515 9.4437 4.28496
H -13.3367 10.1441 4.7024
O 1.84181 14.5993 -1.97081
H 1.76413 13.8924 -1.2678
H 1.76069 -14.5171 -1.54684
O -3.29894 8.59749 -9.06686
H -3.44021 9.28154 -9.78247
H -3.97776 7.86951 -9.16296
O -2.67865 2.18476 8.36062
H -2.77145 1.26132 7.98826
H -3.58643 2.57061 8.52507
O -7.28612 -4.26224 -4.71093
H -6.96303 -4.10099 -5.64346
H -7.93806 -3.54814 -4.4559
O -8.34384 7.09494 -9.36614
H -9.30879 7.33382 -9.25743
H -8.22648 6.55216 -10.1978
O -8.01208 7.16569 -4.59563
H -7.90919 8.1187 -4.88052
H -7.61928 6.5653 -5.29222
O 5.29124 12.1991 6.72706
H 5.56876 12.7521 5.94146
H 5.7334 12.5482 7.55327
O -6.03418 -13.1516 -8.45795
H -5.07001 -13.2551 -8.7022
H -6.4493 -12.4452 -9.03126
O -3.77626 -0.544357 8.33618
H -3.63328 -0.974636 7.44489
H -4.74489 -0.322227 8.44753
O 3.2195 1.95955 14.8765
H 4.14587 1.78761 14.5415
H 2.57998 1.95039 14.1078
O 1.62825 10.5902 2.55135
H 2.43937 11.1481 2.37586
H 1.84668 9.88855 3.22959
O 4.58243 3.70768 -13.5449