2611
Atoms. Timestep: 8000000
O -1.39327 -14.7505 -2.28105
H -2.12926 -14.4181 -1.69124
H -0.545483 -14.2684 -2.05989
O 2.50303 -7.08101 -5.3704
H 2.93926 -7.11869 -4.47134
H 2.89525 -6.32882 -5.89992
O -4.6711 3.48437 -12.0317
H -5.16191 3.28163 -12.879
H -5.26893 3.99582 -11.4144
O -14.9007 -14.5837 10.2715
H -14.0096 -14.8407 10.6458
H -15.0027 -14.9734 9.35626
O 5.84572 2.30101 8.25781
H 6.76775 2.49826 8.59093
H 5.27601 1.98967 9.01842
O 14.4239 1.70736 -4.45553
H 13.6958 1.23686 -3.95697
H 14.0382 2.16182 -5.25847
O -13.9533 9.26149 8.12869
H -13.946 10.2326 7.89024
H -14.0693 8.71543 7.299
O 7.76105 -4.94235 9.22528
H 7.17027 -5.08607 10.0192
H 7.70911 -3.9853 8.94004
O 5.3572 -2.79575 -6.77703
H 6.11236 -3.43862 -6.64867
H 5.25579 -2.59078 -7.75054
O 8.57407 -6.37705 7.26193
H 8.08373 -6.01554 8.05497
H 8.45681 -5.75676 6.48636
O -6.52979 -10.6874 11.4538
H -5.84139 -10.5121 12.1576
H -6.44505 -10.0052 10.7275
O 2.51115 11.0696 -7.41155
H 2.80971 10.5909 -8.23727
H 2.34686 12.0325 -7.62544
O -11.236 -0.672375 -4.65813
H -11.463 -0.426441 -5.60046
H -12.0755 -0.734902 -4.11845
O 7.95547 -6.1245 -10.1351
H 8.41766 -5.27431 -9.88295
H 7.69137 -6.08711 -11.0989
O 2.24569 -14.7614 3.16414
H 2.91834 14.6219 2.99308
H 2.62636 -13.8779 2.89116
O 1.31296 -6.82353 12.8522
H 1.05347 -7.66892 13.3191
H 0.551988 -6.17574 12.8883
O -4.12455 14.2059 -9.43675
H -4.19365 13.694 -8.58045
H -4.61546 13.717 -10.1579
O 14.9437 -8.19331 -14.7916
H -14.3866 -8.29993 -14.1661
H 14.8895 -8.99015 14.7099
O 7.19319 -14.8886 2.35272
H 6.36796 14.714 2.09127
H 7.15154 -13.9606 1.98223
O -7.098 -10.1413 -7.57527
H -7.11139 -9.14363 -7.50884
H -6.55909 -10.5183 -6.82197
O -8.67588 9.17633 -11.8402
H -8.57136 10.1092 -11.4954
H -9.40722 9.15291 -12.5218
O -13.1685 -0.314418 3.58003
H -13.1452 -0.410791 4.57512
H -14.0321 0.10898 3.30625
O 10.8892 1.30851 -8.34119
H 10.1701 1.4738 -7.6662
H 10.5708 1.59577 -9.24458
O -1.36639 7.13806 10.5121
H -2.24346 7.50499 10.202
H -1.09971 6.37244 9.92665
O -1.77965 9.2599 -5.29117
H -1.06941 9.93965 -5.47424
H -2.16701 8.94129 -6.15631
O 13.7192 -10.0767 -6.37275
H 14.5947 -10.433 -6.04632
H 13.3872 -9.37727 -5.73988
O 5.45041 -8.00241 3.62758
H 6.40008 -7.89218 3.33431
H 5.06226 -7.10656 3.84394
O 7.75409 11.487 2.45754
H 7.20759 11.3894 3.2893
H 8.68756 11.7504 2.70103
O 7.42215 11.4238 -6.79069
H 6.82814 11.3455 -5.99003
H 7.43345 10.5539 -7.28369
O 1.09694 -4.29876 10.3602
H 0.329742 -4.33456 9.71976
H 1.06343 -3.4408 10.8728
O -9.58761 2.40763 6.23871
H -9.86681 3.09549 6.90872
H -8.59114 2.40935 6.15469
O -2.70594 -13.0528 13.4014
H -3.25218 -12.9591 12.569
H -1.78595 -12.6964 13.2382
O -3.62536 7.91308 -3.41963
H -3.51809 6.91889 -3.4096
H -3.17837 8.28838 -4.23164
O -7.60451 -9.51169 -2.3355
H -8.17379 -10.267 -2.66027
H -6.66987 -9.63075 -2.67061
O 8.56508 2.50312 9.44759
H 9.36711 3.04775 9.20237
H 8.6734 1.57326 9.09596
O -0.65742 11.0155 -0.691149
H -0.897634 10.0466 -0.750172
H 0.223817 11.1129 -0.22859
O 11.8203 7.41257 9.72222
H 12.1923 6.81848 9.00898
H 10.8378 7.53071 9.5787
O 3.29628 14.0218 -2.14618
H 3.11472 13.3975 -1.38642
H 2.81813 13.7002 -2.96346
O 4.37413 9.56284 4.34592
H 3.71059 9.94553 4.98879
H 3.93731 9.42869 3.45643
O 15.0016 -0.220898 -9.80727
H -14.1663 -0.497515 -10.0279
H 14.9044 0.764853 -9.94459
O 6.04601 4.14779 1.19669
H 5.72471 4.60093 2.02822
H 6.47122 4.82194 0.592757
O 5.84039 9.86944 -2.31196
H 5.57422 8.90556 -2.32165
H 5.8778 10.2143 -3.24986
O -14.2328 13.8866 0.058826
H -14.0522 14.8358 -0.198851
H -14.9294 13.5033 -0.547699
O -0.94738 0.343575 -13.3232
H -0.0212405 0.0991445 -13.0359
H -0.938385 1.25325 -13.7385
O -13.1019 9.87738 -1.89586
H -13.4358 10.6628 -2.41707
H -12.4504 9.36106 -2.45171
O -6.47101 -0.114977 -3.77612
H -7.35551 -0.358783 -3.37833
H -6.59518 0.626159 -4.43591
O -11.2933 -12.922 0.34107
H -11.4027 -11.9334 0.237435
H -11.4281 -13.1736 1.29946
O -6.28032 -4.25879 3.973
H -6.6442 -4.80064 4.73063
H -6.41311 -4.75453 3.11473
O -5.41646 14.1386 -0.455746
H -4.67386 13.6816 -0.945298
H -5.87522 14.7806 -1.07012
O -7.4957 -3.24603 0.0586701
H -7.89224 -3.01965 0.948348
H -7.11504 -2.41978 -0.356566
O 1.53107 -7.65345 -9.51363
H 1.13208 -6.9972 -8.8732
H 2.20014 -7.18864 -10.0936
O -3.23881 1.02798 -11.4046
H -2.73314 0.733494 -12.2155
H -3.66472 1.91531 -11.5814
O 3.69616 3.42767 -4.25579
H 3.05561 4.18151 -4.40219
H 4.1738 3.56005 -3.38725
O -1.03841 8.46978 -0.234969
H -0.362361 7.88508 -0.683409
H -0.75849 8.63869 0.710087
O -9.04502 -9.52573 5.89785
H -9.79906 -8.87593 5.99379
H -8.19255 -9.09273 6.19079
O -5.30074 -0.130573 -9.80279
H -6.28244 -0.2268 -9.96719
H -4.8674 0.281639 -10.6042
O 7.06867 3.47412 -8.20116
H 6.13684 3.55671 -7.84773
H 7.63108 4.21531 -7.83461
O 5.3766 -2.88184 -12.9398
H 4.98004 -2.34159 -13.682
H 4.98497 -3.8019 -12.9511
O 12.0792 -8.88996 1.62122
H 11.5972 -9.18007 0.794443
H 12.4424 -9.69263 2.09428
O -12.0624 -9.96595 -2.16354
H -11.1746 -9.8197 -2.59975
H -11.9967 -9.74327 -1.19086
O 9.07611 -13.2302 -9.7161
H 9.26751 -14.2078 -9.80367
H 8.57261 -12.9157 -10.5208
O 1.49088 13.7467 7.38576
H 0.513483 13.5412 7.33594
H 1.71687 14.4558 6.71781
O -14.3865 5.70341 -15.0009
H -15.0405 5.29485 14.4656
H -13.4976 5.79589 14.6535
O -9.73568 -7.27888 11.0836
H -8.87406 -6.84304 11.3437
H -10.2886 -7.43878 11.9014
O -2.65692 12.49 0.267337
H -1.791 12.0178 0.102304
H -3.19097 12.5119 -0.577842
O -11.7727 2.28416 14.3772
H -12.6233 1.7972 14.1787
H -11.1716 1.69753 14.9199
O -2.81796 10.7464 -8.09212
H -3.78807 10.5399 -7.96454
H -2.55539 10.5441 -9.03559
O -0.912224 -8.13427 3.28554
H -0.69682 -7.72835 4.17371
H -0.13079 -8.67 2.96558
O 13.9598 13.2408 -4.07355
H 12.9824 13.0318 -4.04185
H 14.0879 14.1954 -4.34254
O 5.48083 -7.4781 -10.6589
H 6.09073 -7.08408 -11.3465
H 4.78116 -6.80808 -10.4108
O -5.0256 1.34512 5.4271
H -5.06554 1.69617 6.36261
H -5.05301 2.10944 4.78283
O 12.1179 -12.9352 9.19284
H 11.8389 -12.24 8.53035
H 12.0045 -13.8436 8.79044
O 12.9811 -7.85667 -1.31587
H 13.9376 -8.13361 -1.2233
H 12.3951 -8.66639 -1.28462
O -0.495371 -11.029 7.37015
H -0.72372 -11.1625 6.40576
H 0.166875 -10.2846 7.45593
O -12.32 -1.23063 -10.2959
H -11.8641 -1.68781 -9.53225
H -12.2927 -1.82132 -11.1024
O 13.9581 5.34399 -4.35571
H 14.7006 5.82701 -3.89151
H 14.342 4.69888 -5.01642
O -11.9844 3.72644 3.86064
H -10.9968 3.63205 3.73481
H -12.4601 3.31925 3.08099
O 3.07016 13.5905 -12.7179
H 4.00549 13.9413 -12.7634
H 2.78695 13.5195 -11.7614
O -9.1392 10.2863 9.80953
H -8.16641 10.4228 9.62228
H -9.47469 11.0294 10.3885
O 7.7183 2.92006 12.1997
H 7.50381 3.87002 12.4269
H 7.86748 2.83847 11.2143
O -1.12458 -14.1796 -13.028
H -0.40073 -14.4642 -13.6565
H -1.87289 -13.7661 -13.5467
O 10.2108 -13.6602 -0.0104751
H 9.79232 -12.8307 0.359291
H 9.79725 -14.4625 0.419933
O -5.16369 4.80463 -3.28931
H -5.81245 4.63898 -2.54655
H -5.38266 4.20902 -4.06217
O -3.93252 -10.8484 0.44771
H -3.72498 -10.8379 1.42589
H -3.66684 -9.97417 0.0412521
O -2.32649 -10.8451 -2.85246
H -2.04286 -10.1001 -2.24866
H -1.8389 -10.7729 -3.72255
O -5.66855 10.521 -7.60967
H -6.43288 10.9379 -7.11771
H -5.96898 9.6635 -8.02733
O 5.63374 2.66502 3.93138
H 5.79492 1.72904 3.61835
H 4.66028 2.7892 4.12367
O -5.79925 11.6368 -10.4337
H -5.15376 11.4231 -11.167
H -5.53143 11.1508 -9.60179
O -12.5498 3.01556 8.71092
H -13.1777 2.23832 8.75218
H -12.0813 3.11254 9.58904
O -3.22002 14.0732 13.6379
H -2.61568 14.8484 13.4541
H -2.92057 13.283 13.1031
O -4.726 -7.80772 -8.90004
H -4.01271 -7.23874 -8.49078
H -4.3181 -8.41356 -9.58312
O 10.743 5.47018 -3.30059
H 10.2954 5.3076 -2.42122
H 11.148 6.3845 -3.30448
O -10.7584 2.54561 11.5908
H -11.5386 1.98168 11.32
H -10.7697 2.67626 12.5822
O 1.62733 -8.57241 8.82234
H 2.30813 -8.86033 8.1488
H 2.09076 -8.24798 9.64696
O 10.3016 9.47448 7.86932
H 9.76771 8.66288 8.10655
H 10.4278 10.0403 8.68413
O 4.99838 7.41989 -2.19985
H 4.41679 6.99594 -1.50555
H 5.12291 6.78565 -2.9629
O 12.6921 -0.768279 -10.7565
H 13.0066 -0.464463 -11.6558
H 13.3982 -0.57722 -10.0745
O 4.73047 -11.5918 -12.0434
H 4.89403 -11.5746 -13.0298
H 5.22347 -12.3612 -11.6372
O 7.72216 -4.18255 -7.29976
H 8.50252 -4.07039 -6.68456
H 8.02729 -4.08263 -8.24682
O 12.8971 -8.40851 6.81874
H 13.2382 -9.21791 6.34067
H 13.3252 -8.34888 7.72048
O 11.7263 -8.78849 -10.8493
H 10.7283 -8.84457 -10.8775
H 12.0327 -8.77476 -9.89751
O 10.8125 -2.30821 -9.62767
H 11.4543 -1.71405 -10.1125
H 11.232 -2.6297 -8.77876
O 4.58843 -9.42492 10.9944
H 3.96265 -8.64774 10.9281
H 4.06941 -10.2772 10.9298
O 13.473 -10.6708 4.82901
H 12.5488 -10.552 5.19192
H 13.4552 -10.5746 3.83381
O 4.9088 -1.61439 10.2066
H 4.62223 -0.659185 10.1326
H 5.81295 -1.7241 9.79373
O -13.7773 -11.5883 -12.0344
H -12.9088 -12 -12.3106
H -13.6413 -10.6148 -11.8509
O 1.21467 0.0818675 7.98969
H 0.455743 -0.542524 7.80483
H 2.07987 -0.374205 7.78124
O -3.68077 -13.5036 9.95449
H -4.40552 -13.2679 10.6019
H -3.36491 -12.6753 9.4917
O -5.00984 2.19198 8.16713
H -5.14804 1.35091 8.69011
H -5.33944 2.97263 8.69814
O 2.38644 13.0249 -4.63168
H 1.61239 13.2535 -5.22213
H 3.21679 13.451 -4.99073
O 7.14433 8.11191 12.3674
H 6.31243 7.75691 11.9408
H 7.40669 8.96892 11.9239
O -7.68884 9.50475 5.73414
H -8.26206 9.82404 6.48879
H -8.26666 9.27339 4.95144
O 9.36981 14.1494 -10.2743
H 9.64958 13.5944 -11.0577
H 8.52635 13.7776 -9.8866
O 5.63064 11.2614 -10.913
H 4.89474 10.9975 -10.2895
H 6.15719 12.0097 -10.5095
O -0.530484 -14.6722 3.53516
H -1.09514 14.661 3.23806
H 0.435115 -14.8969 3.40418
O 0.999757 11.5274 -12.8931
H 1.79742 12.1288 -12.9381
H 0.220182 11.9743 -13.3319
O 6.85977 13.1305 -9.0728
H 5.98185 13.5805 -8.9092
H 7.2935 12.9176 -8.19725
O 0.431807 7.27583 -4.70779
H 0.843979 7.47971 -3.81978
H -0.496067 7.64754 -4.73781
O -2.90686 3.87098 -7.928
H -2.73286 4.28111 -8.82329
H -2.39822 4.37159 -7.22751
O 10.1702 8.21357 -11.1758
H 9.6453 8.9605 -11.584
H 9.83345 8.03595 -10.2511
O 6.98598 -12.1545 4.19994
H 7.28363 -11.2012 4.25192
H 7.04197 -12.47 3.25265
O -13.4513 13.8189 -12.031
H -14.3285 14.0475 -11.6088
H -13.5286 13.8992 -13.0248
O -10.6706 -11.6537 4.77792
H -10.5678 -10.9369 5.46753
H -9.80965 -11.7645 4.28138
O -11.0005 12.6149 7.29378
H -11.2884 13.4609 6.8449
H -10.1096 12.7535 7.72624
O 10.5355 9.52877 -8.34738
H 11.3098 9.5431 -8.97997
H 10.7496 10.087 -7.54576
O -6.43798 -5.411 1.41595
H -6.65442 -6.29474 1.00102
H -6.64483 -4.67859 0.76725
O 3.45286 -11.8183 10.8642
H 3.19412 -12.2199 11.7428
H 3.25095 -12.4658 10.1294
O -13.6797 12.254 -3.44064
H -14.5749 12.6137 -3.70388
H -12.9853 12.9621 -3.56832
O 0.657404 14.4478 -6.69888
H 1.08303 14.5036 -7.60208
H -0.170816 13.8902 -6.75455
O 10.5231 -2.7932 4.19531
H 10.8961 -3.70964 4.05043
H 10.7907 -2.46368 5.10074
O -2.35654 -6.10744 -10.3899
H -2.80433 -5.86347 -9.52962
H -1.52677 -5.56041 -10.5005
O -8.11811 13.5436 13.0606
H -8.22792 12.6143 13.4134
H -7.29912 13.9567 13.4588
O 11.2914 -14.8265 -15.049
H 12.2077 15.0399 -14.7262
H 10.7863 -14.3728 -14.3148
O -13.2207 -0.863025 -13.6192
H -14.1801 -0.580847 -13.6249
H -13.1574 -1.83368 -13.8513
O 2.19971 5.49211 -5.48744
H 1.61929 6.26861 -5.24211
H 1.68504 4.86177 -6.06864
O -13.0945 -9.42043 12.4768
H -12.731 -10.0972 11.8365
H -14.0839 -9.34293 12.3537
O 2.99101 -13.1481 13.2502
H 2.83477 -13.3726 14.2121
H 3.68619 -13.7605 12.8737
O 11.0589 2.67931 -3.9492
H 10.7469 2.00558 -3.27931
H 10.7291 3.58652 -3.68796
O 8.93453 -2.70858 13.9335
H 9.79742 -3.21083 13.877
H 8.51085 -2.87303 14.8243
O -11.6166 14.7856 -3.02646
H -11.3544 -14.4375 -3.42218
H -10.9064 14.1086 -3.21938
O 7.61136 11.4923 12.5898
H 6.70105 11.2379 12.2633
H 7.72678 12.4829 12.517
O 3.97661 8.59154 1.91325
H 3.35387 8.60881 1.131
H 4.83169 8.14556 1.64878
O -7.58044 0.605477 2.74295
H -6.84732 0.00162592 3.05586
H -8.38002 0.0583591 2.49526
O 3.16407 3.03508 14.0701
H 3.25296 2.0424 14.1519
H 4.03458 3.46809 14.3041
O -9.51151 -5.65815 -10.1457
H -9.90903 -6.54577 -9.91302
H -10.2072 -5.08433 -10.5778
O -9.39834 -6.61288 4.08905
H -9.32944 -6.07088 4.92661
H -8.51157 -7.02872 3.88723
O -9.97354 -6.44546 -0.410757
H -9.91164 -5.57596 0.0793014
H -9.09395 -6.91874 -0.362304
O 14.788 -5.45304 7.18874
H 14.4214 -4.549 6.96883
H 14.3647 -6.1377 6.59537
O 5.15339 6.58378 -10.324
H 5.00205 7.41468 -9.78851
H 4.96147 6.76879 -11.2878
O -13.6014 -7.78518 5.71504
H -14.006 -8.0109 4.82885
H -14.0321 -8.33773 6.42859
O 11.4409 11.1803 -14.4754
H 11.6271 11.8072 14.8712
H 11.1849 10.2849 -14.8397
O -8.40274 2.02601 -13.9176
H -9.36486 1.78194 -13.796
H -8.31495 3.02092 -13.9672
O 9.97491 4.31794 6.62135
H 10.269 4.5244 7.55457
H 9.41259 5.06895 6.27524
O 12.1995 5.17138 -8.63494
H 12.4382 5.88583 -9.29267
H 12.2094 4.28155 -9.09114
O -14.748 3.1577 -11.7642
H -13.9048 2.69127 -11.4967
H 14.6886 3.09309 -11.0216
O -7.34646 -2.66085 -6.84302
H -7.79628 -3.49535 -7.16128
H -7.93964 -1.87499 -7.01789
O 1.88931 12.4058 -10.3576
H 2.32587 11.5355 -10.1296
H 1.05103 12.2329 -10.8747
O -10.7352 11.4776 -5.56282
H -10.8432 12.2246 -6.2189
H -10.441 11.8479 -4.68168
O 9.82134 -7.25176 1.49638
H 9.96411 -6.295 1.24291
H 10.6825 -7.7522 1.40748
O 2.11218 9.79548 -2.38163
H 2.47033 9.91754 -3.30729
H 2.61157 10.3886 -1.75011
O 11.6655 -13.534 3.35635
H 10.8776 -14.0531 3.02517
H 11.9376 -13.8783 4.25496
O 5.72121 -3.38818 -1.45157
H 6.00351 -3.68936 -0.540743
H 5.7174 -2.38876 -1.48587
O 6.9572 -0.49645 13.9136
H 7.53479 -1.31041 13.8513
H 7.53372 0.314505 14.0136
O -9.51692 11.1918 4.30476
H -9.47205 11.1457 3.30682
H -10.0949 10.4509 4.647
O 0.684446 -8.94764 -11.845
H 0.3088 -8.17598 -12.3582
H 0.912938 -8.6515 -10.9176
O 3.54473 -5.62284 -10.7096
H 3.55356 -5.26783 -11.6445
H 3.16758 -4.93099 -10.0939
O -6.98634 3.32922 6.32291
H -6.40067 3.24613 7.1292
H -6.70404 4.12452 5.78642
O 13.8233 -8.51833 9.60893
H 13.3616 -7.76693 10.0804
H 13.778 -9.34327 10.1723
O -2.369 13.8626 2.52761
H -2.39573 13.586 1.56699
H -2.81485 13.1646 3.088
O -10.894 -1.75055 3.6172
H -11.1224 -2.41383 4.32987
H -11.6372 -1.0874 3.52845
O 12.2577 10.9199 6.83371
H 12.9262 10.3454 6.36145
H 11.4615 10.3686 7.083
O -11.3024 -3.7545 -11.4135
H -12.1341 -3.86764 -11.9571
H -10.6196 -3.25702 -11.9486
O 2.49086 -14.1945 -14.3936
H 2.48812 -13.4993 -13.6747
H 2.52801 14.9999 -13.9782
O -7.11895 8.81496 -3.10508
H -6.64232 8.45602 -2.30258
H -7.68137 9.59702 -2.8366
O -7.35648 1.47659 13.6213
H -7.87604 1.47934 14.4757
H -7.49486 2.34451 13.1443
O 5.18379 8.38585 -8.02144
H 6.1582 8.17331 -7.94821
H 4.70833 8.0552 -7.20619
O 14.2316 4.32466 13.1114
H 13.3887 3.81994 12.9252
H 14.6212 4.65217 12.2506
O 2.77277 0.220791 14.7586
H 3.42865 -0.494173 14.5163
H 3.17977 0.82968 -14.6638
O -2.70942 -6.08385 7.89428
H -3.0499 -6.21303 6.96293
H -1.74886 -6.35832 7.93908
O -7.83064 -5.43398 11.7673
H -7.43308 -5.99849 12.4907
H -7.09827 -4.99836 11.244
O -13.6467 6.39344 7.05035
H -13.6143 5.46495 6.68038
H -12.8033 6.58119 7.55386
O -14.2026 -2.65567 -5.27244
H -14.8342 -3.32078 -4.87398
H -13.9799 -1.95809 -4.59143
O -8.74569 1.3535 -11.1795
H -8.60971 1.62945 -12.1311
H -9.06666 2.13725 -10.6478
O 13.6232 -14.8003 -13.4866
H 14.0414 -14.238 -12.7732
H 14.3387 14.8279 -13.9988
O -8.35993 -12.6733 -0.29708
H -7.83044 -13.3843 0.165728
H -9.31043 -12.7116 0.0113056
O -10.1987 -4.32822 -3.41903
H -9.23506 -4.36772 -3.68317
H -10.7702 -4.34674 -4.23943
O -11.1089 -9.07256 3.31959
H -10.6093 -8.20918 3.39093
H -11.2499 -9.45256 4.23377
O 14.1968 0.0803433 -14.0151
H 13.8627 0.965013 -13.6899
H 13.5952 -0.257588 -14.7389
O -4.23679 -4.4645 14.7698
H -5.02746 -4.61393 -14.7397
H -3.50149 -5.09027 15.0301
O -7.87314 -0.661087 -9.98689
H -8.03746 0.129902 -10.5763
H -8.25104 -0.483883 -9.07816
O -1.06048 10.6115 4.62603
H -0.299147 11.2349 4.44758
H -1.91262 11.1323 4.6775
O 5.26075 0.835854 -11.1673
H 6.17063 0.421206 -11.1529
H 4.90661 0.894922 -10.2339
O -5.83363 -13.3932 -1.36521
H -5.04723 -12.7967 -1.20485
H -5.88194 -13.6273 -2.33624
O -0.001482 -6.38008 8.26864
H 0.734435 -7.04785 8.38055
H 0.382686 -5.50871 7.96345
O -14.9525 8.07631 -0.826338
H -14.1914 8.55913 -1.25948
H -14.8118 8.05199 0.163416
O 7.90918 8.09955 -7.80073
H 8.765 8.61556 -7.83714
H 7.91982 7.38647 -8.50174
O 10.3185 8.2939 -2.5298
H 10.2226 8.30351 -3.52516
H 9.52089 7.84908 -2.1224
O -14.548 14.4511 7.16942
H 14.5982 14.232 6.97968
H -14.0639 14.6038 6.30783
O 10.5199 11.3135 9.73239
H 10.668 10.7795 10.5648
H 10.259 12.2473 9.97737
O 7.79069 5.72195 12.9076
H 8.71436 5.345 12.8387
H 7.7946 6.67252 12.5971
O 2.98921 9.45208 -14.4237
H 2.86523 10.4369 -14.3024
H 3.69481 9.28731 14.9904
O 8.47464 -3.54434 -10.0772
H 9.37048 -3.11384 -10.1875
H 7.76824 -2.94508 -10.4539
O 2.81103 10.304 12.0939
H 2.46859 10.8181 12.8804
H 2.08201 9.72255 11.7328
O 3.98108 -6.83961 0.0696126
H 4.91686 -7.19013 0.107891
H 3.89347 -6.05548 0.684018
O -6.46946 -4.54479 -2.29413
H -6.93038 -4.02938 -1.57168
H -6.37381 -3.9684 -3.10569
O -14.5309 3.20118 -2.4007
H -14.7686 2.76272 -3.26746
H 14.7527 3.28576 -1.83413
O 5.451 1.61715 12.6762
H 6.0288 0.878615 13.0236
H 5.93521 2.48786 12.7624
O -4.12906 -13.7554 -14.3772
H -3.77879 -13.9662 14.8134
H -4.18421 -14.5964 -13.8389
O 3.5041 4.32064 -9.43748
H 4.18657 5.00603 -9.69144
H 2.58917 4.7169 -9.51426
O 12.3918 -4.42143 -13.5209
H 12.3426 -4.42458 -12.5222
H 12.4226 -5.36308 -13.8561
O -5.69233 2.09138 -14.3012
H -6.54615 1.83877 -13.846
H -5.51253 1.45361 -15.0501
O 1.45748 0.227547 -12.0505
H 2.28446 0.626133 -12.447
H 1.6697 -0.153976 -11.1508
O -10.8926 14.8417 -12.9218
H -11.2058 14.5995 -13.8401
H -11.5025 14.4328 -12.2429
O -6.57658 11.3959 8.10487
H -5.63195 11.6587 8.30134
H -6.86979 11.8214 7.24874
O 1.5545 -9.67026 2.59413
H 2.44368 -9.88266 2.99941
H 1.0459 -10.518 2.4433
O 11.8944 12.3908 13.1424
H 12.7608 12.1068 12.7316
H 11.7029 13.3402 12.8936
O 14.3634 -7.40145 -9.66178
H 13.7527 -7.55981 -10.4377
H 14.9956 -6.65842 -9.88141
O 7.63158 1.40441 0.755208
H 7.11612 2.21244 1.04054
H 8.12696 1.60627 -0.0897011
O -5.84231 10.8577 4.4566
H -6.50832 11.3897 3.93369
H -6.3205 10.2967 5.13237
O 4.11415 -3.13757 7.47296
H 4.62582 -2.49933 8.04817
H 3.50608 -2.62554 6.86625
O -5.92277 7.35904 -0.0528671
H -5.14209 7.95196 -0.250385
H -5.92246 7.11994 0.918136
O -12.9778 1.08151 10.9976
H -12.7766 0.107714 11.1036
H -13.6935 1.3463 11.644
O 2.45486 -1.51829 5.75249
H 3.16266 -0.951207 5.33124
H 1.73518 -1.70464 5.08365
O -3.9106 9.41294 3.31794
H -4.5639 10.0408 3.74101
H -3.0024 9.83144 3.31142
O -0.218756 10.1789 -9.84329
H 0.402541 9.53823 -9.39212
H -0.415816 10.9417 -9.22746
O -0.700328 -1.86552 7.27278
H -1.1062 -2.59849 7.81871
H -1.37787 -1.51866 6.62421
O 12.6372 -6.37792 10.7504
H 11.8731 -5.9122 10.3039
H 13.3455 -5.71069 10.9807
O -1.55437 -1.62365 -14.976
H -2.5519 -1.68323 -14.9386
H -1.22952 -1.01454 -14.2525
O -2.68903 -7.11465 -14.6134
H -2.73548 -7.92139 14.9007
H -3.18914 -7.29168 -13.7658
O 11.4994 -9.41418 -7.92384
H 10.7652 -10.0792 -7.78714
H 12.3278 -9.73274 -7.46304
O -10.5458 8.90344 0.605245
H -11.1344 8.09513 0.591835
H -10.0674 8.98197 -0.269409
O 0.0786762 8.19776 -7.8807
H 0.512885 8.38683 -6.99995
H -0.913704 8.16294 -7.76244
O 8.35914 10.2471 -12.3146
H 7.56629 10.0488 -11.7383
H 8.10625 10.1435 -13.2765
O 7.59097 12.4601 6.8743
H 7.25003 12.9156 7.6967
H 8.54965 12.7056 6.73047
O 11.7166 -5.6722 -10.6294
H 12.0859 -5.4175 -9.73564
H 10.8814 -6.20779 -10.5045
O 5.93667 5.90869 -4.42067
H 5.39535 5.36006 -5.05785
H 6.90284 5.85628 -4.67325
O -0.831657 6.31285 -12.3583
H -1.63331 6.13029 -12.9275
H -0.750211 7.2974 -12.2032
O -1.55687 -3.78173 8.88668
H -1.7907 -3.89594 9.85223
H -1.90518 -4.56055 8.365
O -2.62922 -9.51988 14.0535
H -3.03407 -10.1125 14.7499
H -2.68358 -9.96853 13.1615
O 0.0472624 -9.03948 14.3635
H 0.0562405 -8.71423 -14.7941
H -0.89616 -9.20814 14.078
O -3.96786 8.88419 -0.809296
H -3.03911 8.85603 -0.439634
H -3.9578 8.57387 -1.75989
O -8.68291 8.67882 12.4297
H -8.07727 7.97643 12.8037
H -8.94002 8.43391 11.4949
O -11.1814 -14.5381 2.69025
H -10.3158 -14.442 3.18164
H -11.2069 14.6775 2.23035
O 14.2238 -1.80418 -7.57563
H 14.6134 -1.42428 -8.41463
H 14.9571 -1.98723 -6.92076
O -9.86136 -7.86366 -2.98425
H -10.0128 -7.20187 -2.25
H -9.1085 -8.4725 -2.73418
O -6.05042 4.14605 9.73218
H -5.55233 4.27551 10.5896
H -7.03314 4.13047 9.91667
O -0.392645 2.6269 -14.6543
H 0.19906 2.78474 14.6584
H -1.32743 2.90361 -14.8771
O 3.45727 -6.75514 -2.66528
H 4.02848 -6.11108 -3.17412
H 3.80069 -6.83815 -1.72977
O -2.73108 -10.7767 2.97931
H -2.32843 -11.5234 3.50865
H -2.20896 -9.93818 3.13538
O 9.35658 -2.01681 -1.80531
H 9.71047 -1.60724 -2.64616
H 9.64729 -2.97214 -1.75188
O 5.21702 5.21605 14.2734
H 6.11166 5.30778 13.8361
H 4.70483 6.06826 14.1665
O -2.61325 2.43655 11.4229
H -2.02875 2.07344 10.6973
H -3.11695 1.68664 11.8518
O 5.06512 -2.18098 -10.0627
H 4.34463 -1.63891 -9.63023
H 4.81157 -2.37707 -11.01
O 2.52835 10.3111 6.26211
H 1.64509 9.88202 6.45127
H 3.10011 10.2722 7.08161
O 1.52981 -2.31188 -7.95263
H 0.608344 -2.14724 -8.30449
H 1.49949 -2.3741 -6.95502
O 14.8227 -11.9606 8.14347
H 14.0303 -12.4276 8.53602
H -15.022 -12.406 7.2863
O 14.4175 9.64528 5.33518
H 14.1943 9.02543 4.58287
H -14.8475 10.1453 5.11754
O -4.98623 4.49483 14.9164
H -5.08772 3.52362 -14.9713
H -5.83125 4.97745 -14.9566
O 12.5205 -7.07288 -14.5128
H 12.1142 -7.51597 14.7914
H 13.5174 -7.10245 -14.5862
O -11.7006 -6.16592 -14.0675
H -10.8404 -6.32846 -13.5841
H -12.3367 -6.91349 -13.8764
O 14.3534 -4.32195 11.3548
H 14.3001 -3.98474 12.2947
H -14.8185 -4.20375 11.0106
O -1.35001 -12.0579 -8.53138
H -2.27542 -12.3695 -8.74709
H -0.780843 -12.1105 -9.35193
O 7.03544 8.61717 4.65596
H 6.16714 9.09809 4.53428
H 7.79212 9.25971 4.53516
O 10.1286 13.0671 0.0290443
H 11.1275 13.0256 0.00651577
H 9.7802 13.2163 -0.896377
O 1.93672 -11.3482 -4.20131
H 2.07883 -10.8885 -3.32468
H 1.7011 -10.671 -4.89844
O -6.44122 5.12466 -10.9216
H -7.16505 5.03726 -10.2371
H -6.62306 5.9204 -11.4993
O -1.2456 0.611754 9.52936
H -1.08719 0.254453 10.4498
H -0.374491 0.676826 9.04258
O -3.67497 13.8166 -6.46355
H -4.34183 13.1602 -6.11077
H -2.75014 13.4781 -6.28996
O -5.13074 3.85774 -5.87156
H -5.9018 3.22102 -5.87983
H -4.38714 3.48797 -6.42864
O -9.28196 -13.8582 10.124
H -10.136 -13.8566 9.60381
H -9.46101 -13.5541 11.0597
O 2.15158 -2.24594 -13.4458
H 1.91635 -1.45425 -12.882
H 2.80281 -1.96998 -14.1528
O 12.452 -9.45468 -13.3669
H 12.3403 -8.58551 -13.8487
H 12.3486 -9.3063 -12.3834
O 13.7096 2.94916 -14.1846
H 13.3973 3.89537 -14.2696
H 14.371 2.88222 -13.4377
O -5.18983 10.8703 0.616965
H -4.43858 11.4845 0.375358
H -5.03101 9.9721 0.207024
O 6.44277 7.30317 1.28175
H 7.04267 6.90389 1.97508
H 6.99521 7.65917 0.528026
O 0.73791 5.69444 -9.2447
H 0.207261 5.70929 -10.0922
H 0.68461 6.58969 -8.80232
O -5.20847 6.96096 2.55724
H -5.7172 6.76596 3.3958
H -4.54214 7.68574 2.73254
O -13.0542 -12.3674 3.02604
H -12.6018 -11.8361 3.74229
H -12.4626 -13.1244 2.74859
O 8.47873 -1.91202 11.1755
H 8.55858 -2.68429 11.8058
H 7.98435 -1.16659 11.6227
O -3.03514 -9.24363 -5.85933
H -2.0493 -9.15707 -6.00301
H -3.2969 -10.2071 -5.91598
O -11.6195 -13.9725 9.05376
H -11.6658 -14.2737 8.1013
H -12.0553 -13.0768 9.14165
O 4.53014 -1.92415 14.4647
H 4.25464 -2.49435 13.6908
H 5.35459 -1.41175 14.2244
O -12.2165 12.6829 1.12174
H -13.0261 13.1185 0.72822
H -12.4387 11.7448 1.38753
O -2.38843 -7.16033 11.5083
H -3.19821 -6.57438 11.5389
H -1.62116 -6.69173 11.9462
O 11.9652 8.02092 -0.359917
H 11.3138 8.25 -1.08328
H 11.7541 8.55367 0.459629
O -1.22347 12.4457 -3.11215
H -1.19604 13.4364 -2.97871
H -1.04852 11.9871 -2.24091
O 10.5968 -4.70007 9.73983
H 9.60261 -4.62723 9.81943
H 10.8949 -4.27348 8.88594
O -13.6113 -8.54441 -5.69685
H -13.3098 -9.21878 -6.37091
H -14.1199 -9.0048 -4.96924
O -14.195 -2.3875 -1.32292
H -13.4699 -1.9525 -0.789022
H -13.8537 -3.24197 -1.71458
O -14.6597 12.6237 13.1758
H -13.8133 12.1415 13.402
H 14.9047 12.071 12.5401
O -11.4884 2.18155 -4.94985
H -11.3071 1.29086 -4.53293
H -10.9877 2.89033 -4.45287
O 4.06236 5.72793 7.70874
H 4.59811 5.26286 7.00397
H 4.6791 6.19608 8.34159
O -10.6084 0.920076 0.820561
H -10.3976 0.850549 1.79562
H -11.393 1.52649 0.691616
O -2.41328 -9.91659 11.3073
H -2.49669 -8.92423 11.2163
H -1.53712 -10.2137 10.9277
O -11.3386 -12.5049 -13.4136
H -11.5284 -13.4867 -13.4021
H -11.1436 -12.2141 -14.3503
O 1.10777 6.92384 4.53859
H 0.538825 6.40725 5.17848
H 2.04848 6.95179 4.87667
O -0.936149 -8.72451 -1.53072
H -0.136224 -8.53353 -0.9618
H -1.76855 -8.54004 -1.00813
O -9.73608 6.04467 -5.73217
H -10.4159 5.9254 -6.45579
H -9.00087 6.63795 -6.06006
O -12.4223 1.74854 -10.1365
H -12.0882 0.810522 -10.2288
H -12.7312 1.90146 -9.19772
O 13.7909 6.26406 8.24545
H 14.1322 5.63698 8.94567
H 14.4401 6.30056 7.48569
O 4.58806 7.68804 11.5834
H 4.33171 8.6525 11.5191
H 3.77904 7.14188 11.8007
O -9.55462 0.485976 9.50635
H -8.66284 0.0366016 9.45338
H -9.43735 1.421 9.84099
O -14.5712 8.43015 -5.41057
H 14.5367 8.5178 -5.45088
H -14.304 8.07381 -4.51523
O -14.1288 -3.63999 -12.3144
H -14.6217 -3.54597 -13.1793
H -14.744 -3.42733 -11.5553
O 7.79864 -7.09695 3.54401
H 7.89288 -6.28649 4.12219
H 8.43962 -7.03684 2.77879
O 10.2175 -12.7344 -4.33434
H 10.3188 -13.7132 -4.15633
H 9.35014 -12.4143 -3.95326
O -1.08521 -13.9935 -5.03292
H -1.28153 -14.3781 -4.13092
H -0.201044 -14.3324 -5.3545
O -13.3928 -12.1609 -3.31161
H -13.1864 -12.7839 -2.55711
H -13.0009 -11.2615 -3.11798
O -6.81695 3.0839 1.65675
H -7.21042 2.20419 1.9238
H -6.41401 3.00576 0.744856
O 3.47311 6.02928 -0.514013
H 3.66514 5.10162 -0.834279
H 3.06653 5.98931 0.39874
O 5.22865 -7.07264 6.5118
H 6.00358 -7.64695 6.24784
H 5.27241 -6.88413 7.4929
O -8.09841 -5.27769 6.09501
H -8.49308 -5.56236 6.96863
H -7.91338 -4.2952 6.11721
O -0.618785 6.31531 6.49988
H -0.534623 5.98297 7.43929
H -1.34131 5.80791 6.03029
O 9.18404 0.217686 5.02168
H 9.81951 0.985619 5.10218
H 9.52393 -0.553975 5.5593
O -5.13515 3.8305 3.73091
H -5.35585 4.77244 3.98403
H -5.45998 3.65 2.80251
O -4.69764 13.8846 10.8244
H -5.62904 13.9104 10.4613
H -4.53733 14.6945 11.3888
O 2.02904 5.62028 12.3155
H 1.62393 6.37534 12.8311
H 1.78005 4.75211 12.7448
O 8.53188 -10.8114 10.5315
H 8.89542 -10.0787 9.95614
H 8.28273 -10.4402 11.426
O -11.1683 -14.747 6.30325
H -11.9103 -14.7679 5.63322
H -10.3537 -14.3439 5.88609
O 4.60271 4.64873 -6.9469
H 4.00424 4.1406 -6.32751
H 4.19712 4.66845 -7.86075
O 0.0242672 -7.96954 6.00062
H 1.02205 -7.97457 6.06707
H -0.355197 -7.3952 6.72599
O -14.4367 8.67549 -9.40759
H -13.6213 8.17598 -9.70015
H -14.3215 9.64837 -9.60819
O 4.25194 -14.8032 -9.78205
H 3.31704 15.0295 -9.55231
H 4.47866 -13.9523 -9.30819
O -11.0527 -9.83685 0.448341
H -10.0634 -9.88818 0.585057
H -11.4976 -9.61083 1.31491
O 7.96512 6.52614 -10.1809
H 6.97562 6.41362 -10.0901
H 8.23036 6.38594 -11.1349
O 11.7367 6.23046 3.76805
H 10.9831 6.33043 3.11832
H 11.4908 6.66695 4.63349
O 4.64081 10.5476 8.6103
H 5.60179 10.3067 8.47436
H 4.49282 11.497 8.33327
O -9.01451 -12.0821 -2.86367
H -8.54658 -12.4174 -2.04594
H -9.1591 -12.8404 -3.4994
O 14.2523 11.5316 -13.579
H 13.4167 11.8581 -13.1372
H 14.8312 12.312 -13.8154
O 12.7123 -10.8205 11.1741
H 13.1499 -11.3933 11.8672
H 12.2501 -11.4019 10.5045
O -2.85114 4.7822 5.75896
H -3.59528 5.39152 6.03282
H -3.05591 4.3877 4.86316
O 8.61764 -1.19208 0.82952
H 8.33402 -0.234149 0.873679
H 8.74917 -1.45706 -0.12573
O -10.4686 -3.58124 9.11833
H -11.2786 -3.96528 9.56143
H -10.5721 -3.64056 8.12546
O -13.759 7.33757 1.7424
H -13.3167 7.16606 2.62273
H -13.173 7.00332 1.00423
O -8.31488 -10.3139 0.877168
H -8.54696 -10.5795 1.81291
H -8.19537 -11.1342 0.317782
O -6.94599 -12.5691 6.62299
H -6.45086 -13.1259 7.29
H -7.77721 -12.2057 7.04367
O 11.8781 6.18584 -6.10398
H 12.0519 5.60971 -6.90267
H 12.1389 5.69255 -5.2741
O -6.84515 -8.56136 9.77232
H -6.95811 -8.7849 8.80418
H -6.46944 -7.63875 9.85974
O 5.01022 -7.91074 -13.912
H 4.60493 -8.51015 -13.2217
H 5.1305 -8.41842 -14.7651
O -9.12174 0.0698598 -7.53197
H -9.45681 1.00107 -7.67547
H -9.89817 -0.549623 -7.4162
O 9.8518 -1.90112 6.73563
H 10.4897 -2.5786 7.10188
H 9.72526 -1.16738 7.40319
O 4.73296 -13.9633 -0.205294
H 4.34347 -14.8595 -0.417917
H 4.29053 -13.5929 0.611425
O 6.7057 -8.76324 -6.63401
H 6.23097 -7.97412 -7.02382
H 7.06128 -8.52524 -5.73017
O 5.88521 -6.67802 13.5094
H 5.04465 -6.20625 13.7757
H 5.74063 -7.66658 13.5527
O -9.07221 -11.8895 7.9098
H -9.03323 -12.6153 8.59667
H -9.77652 -11.2269 8.16459
O -7.73895 -11.5005 3.39287
H -6.90344 -11.8243 2.94892
H -7.50228 -11.0115 4.23242
O -11.8402 6.38848 0.150469
H -11.1975 5.83696 0.682204
H -12.2367 5.82903 -0.577443
O 0.091366 -13.1664 -10.6482
H 0.932144 -12.9913 -11.1605
H -0.515309 -13.7467 -11.1916
O -14.8658 -9.86925 -3.61529
H 14.5261 -10.4927 -3.29096
H -14.2315 -9.66972 -2.86832
O 4.72306 -5.10677 4.44245
H 4.67268 -5.71708 5.23302
H 5.14484 -4.24207 4.71525
O 7.865 -3.63697 -13.7615
H 6.9697 -3.31556 -13.453
H 8.02565 -4.56058 -13.4134
O 3.51404 -5.29501 13.9508
H 3.44994 -4.4595 13.4051
H 2.99908 -6.02597 13.503
O -8.57604 -14.0408 3.96398
H -7.82367 -14.653 4.20715
H -8.26653 -13.0918 4.02486
O -11.0697 -2.21449 -8.03784
H -10.2669 -2.80576 -8.11494
H -11.8275 -2.7315 -7.63968
O -8.37368 13.9786 -13.338
H -9.28995 14.2943 -13.0913
H -7.80805 14.7632 -13.5922
O 10.9908 7.00219 6.08184
H 11.6265 6.95054 6.85207
H 10.0555 6.87683 6.41264
O -9.20614 -14.0789 -4.79843
H -8.33639 -14.5209 -4.57878
H -9.10643 -13.5462 -5.63881
O 14.4634 -4.40529 -3.46407
H -14.8133 -4.6822 -2.97396
H 13.7133 -4.28833 -2.81315
O -13.0209 -0.808481 6.12196
H -13.5689 -1.18233 6.87026
H -12.1441 -0.486741 6.47936
O -12.1142 -3.56115 15.01
H -12.0203 -4.50846 -14.787
H -11.229 -3.22576 14.6875
O 12.2855 -1.21911 14.7112
H 11.4707 -1.57747 -14.9363
H 12.9395 -1.96144 14.5653
O 11.2838 10.7141 -1.90385
H 10.9375 9.82366 -2.19901
H 11.052 11.4055 -2.58821
O 14.3935 -7.20214 -6.95284
H 14.2548 -7.34253 -7.93319
H -14.9061 -7.71615 -6.65287
O 6.08994 -2.88869 5.51246
H 6.00834 -1.9377 5.21415
H 5.51946 -3.03459 6.32072
O -12.0582 -6.75769 -4.14483
H -12.8173 -7.19788 -4.62436