LAMMPS data file via write_data, version 15 May 2015, timestep = 1190000

4560 atoms
7 atom types
5040 bonds
3 bond types
7200 angles
2 angle types
10560 dihedrals
3 dihedral types
2400 impropers
1 improper types

-1.0763502675555259e-01 4.1387635026745990e+01 xlo xhi
-4.0433884491974936e-02 3.5938433884472119e+01 ylo yhi
-3.5711112484589691e-01 2.9555111124838550e+01 zlo zhi
-6.7234083837551181e-02 -1.7036217651000683e+01 -4.1707816797290791e-02 xy xz yz

Masses

1 12.0107
2 1.008
3 12.0107
4 12.0107
5 12.0107
6 12.0107
7 12.0107

Pair Coeffs # lj/cut/coul/long

1 0 3.55
2 0 2.42
3 0 3.55
4 0 3.55
5 0 3.55
6 0 0
7 0 3.55

Bond Coeffs # harmonic

1 469 1.4
2 367 1.08
3 469 0.7

Angle Coeffs # harmonic

1 35 120
2 63 120

Dihedral Coeffs # opls

1 0 7.25 0 0
2 0 7.25 0 0
3 0 7.25 0 0

Improper Coeffs # cvff

1 2.5 -1 2

Atoms # full

219 13 3 0.0000000000000000e+00 -1.6968553128297370e-01 3.0709557993775998e+00 3.1653905600991425e+00 1 0 0
220 13 4 -9.0300000000000005e-02 3.1343169710573826e-01 4.1149875123068611e+00 2.3542736885327704e+00 1 0 0
224 13 2 9.0300000000000005e-02 4.8214342646845121e-01 5.1205466036492000e+00 2.7909647190785392e+00 1 0 0
580 33 4 -9.0300000000000005e-02 2.6750642598713119e+00 6.7676312636016771e+00 3.9730717122688208e+00 1 0 0
228 13 3 0.0000000000000000e+00 -5.1951952441877847e-01 1.8492384377739257e+00 2.5706169259950413e+00 1 0 0
989 53 4 -9.0300000000000005e-02 -1.3406478752422220e+00 7.0513506297795034e+00 3.5121281575306376e+00 1 0 0
600 34 2 9.0300000000000005e-02 2.4528907438931835e-01 6.0301414682793757e+00 6.8922651651027689e+00 1 0 0
245 14 4 -9.0300000000000005e-02 -4.9129578043988360e+00 1.4122317349564735e+00 9.0645075038999661e+00 1 0 0
227 13 4 -9.0300000000000005e-02 -1.7902803249012966e-01 1.5495995248166874e+00 1.2684604795802843e+00 1 0 0
4390 233 1 -9.0300000000000005e-02 2.4774954619194629e+00 8.0274578927713647e-01 5.5387034509400470e+00 1 1 0
733 13 6 0.0000000000000000e+00 -4.0337772115075832e-01 2.4376667512456520e+00 2.9387546416833699e+00 1 0 0
987 53 4 -9.0300000000000005e-02 -7.9183247507677090e-01 7.9773389152308027e+00 1.3329793813700876e+00 1 0 0
230 13 1 -9.0300000000000005e-02 7.1321432617977198e-01 3.7823552764314972e+00 1.0134228302349721e+00 1 0 0
217 13 7 -9.0300000000000005e-02 -1.3029425134618122e+00 2.4064712144118525e+00 5.1650955201737387e+00 1 0 0
218 13 5 -9.0300000000000005e-02 -5.6391437999178740e-01 3.3856096291106348e+00 4.4864477053255225e+00 1 0 0
221 13 1 -9.0300000000000005e-02 -1.6037750115305089e+00 1.1270382735262341e+00 4.6326976172931937e+00 1 0 0
222 13 2 9.0300000000000005e-02 -1.5775992362960651e+00 2.7396848769825546e+00 6.1746496730036204e+00 1 0 0
223 13 2 9.0300000000000005e-02 -2.7064363839685734e-01 4.3650131719754119e+00 4.9682647912957618e+00 1 0 0
248 14 1 -9.0300000000000005e-02 -3.4396647119371178e+00 3.3270154448484055e+00 8.7502392498092263e+00 1 0 0
4380 233 4 -9.0300000000000005e-02 2.5706977040435177e+00 1.1265316135938184e+00 4.1584181469863628e+00 1 1 0
244 14 1 -9.0300000000000005e-02 -4.0855426767639953e+00 2.2201777928951349e+00 8.2366556093573067e+00 1 0 0
603 34 2 9.0300000000000005e-02 1.2013110745569797e+00 3.6513705349048058e+00 7.7246318423125651e+00 1 0 0
4396 234 5 -9.0300000000000005e-02 -7.5123311866138831e-01 1.9646736852250851e-01 9.2361287030410448e+00 1 1 0
4394 233 2 9.0300000000000005e-02 1.9193649670820370e+00 1.4456114498557928e+00 6.2389984963903888e+00 1 1 0
579 33 3 0.0000000000000000e+00 3.3600688993167380e+00 5.8209359070084012e+00 3.1733252145891697e+00 1 0 0
252 14 2 9.0300000000000005e-02 -2.7166377437835427e+00 3.9033892357619568e+00 8.1256907663896136e+00 1 0 0
581 33 1 -9.0300000000000005e-02 4.5501333391922776e+00 3.9228081137655435e+00 1.5025898921347796e+00 1 0 0
596 34 5 -9.0300000000000005e-02 -5.3037862656288315e-01 6.3439741514166279e+00 8.8938909263091883e+00 1 0 0
577 33 7 -9.0300000000000005e-02 4.1466011849683593e+00 5.1639112759846544e+00 9.9326657311186350e-01 1 0 0
588 33 3 0.0000000000000000e+00 3.9107358916202339e+00 4.6769835784117095e+00 3.7668317195264960e+00 1 0 0
589 33 4 -9.0300000000000005e-02 4.5125198281911203e+00 3.7291059924126597e+00 2.8856881640349910e+00 1 0 0
593 33 2 9.0300000000000005e-02 4.9829100416644740e+00 2.7595122350827905e+00 3.1542000995582495e+00 1 0 0
753 33 6 0.0000000000000000e+00 3.6375782218812232e+00 5.1820486523890201e+00 3.3073352882346216e+00 1 0 0
4383 233 2 9.0300000000000005e-02 2.9814015887274943e+00 1.4033035311756012e+00 1.4507173637568129e+00 1 1 0
4379 233 3 0.0000000000000000e+00 3.2291167783588794e+00 2.6097386633970365e-01 3.2818612156692586e+00 1 1 0
578 33 5 -9.0300000000000005e-02 3.4666942199015542e+00 6.1359383489261283e+00 1.8060169729073063e+00 1 0 0
226 13 1 -9.0300000000000005e-02 4.9482241946436850e-01 2.4859368869549989e+00 5.1508628701392745e-01 1 0 0
4384 233 2 9.0300000000000005e-02 2.1077016751487254e+00 1.9620417717331147e+00 3.6122632619453152e+00 1 1 0
586 33 1 -9.0300000000000005e-02 3.0863027352488741e+00 5.3472232684115513e+00 5.9639801783931699e+00 1 0 0
587 33 4 -9.0300000000000005e-02 3.7692667008250651e+00 4.4411161335600164e+00 5.1653949133540156e+00 1 0 0
585 33 2 9.0300000000000005e-02 5.0217367707114304e+00 3.1729848526866657e+00 9.1356541812769265e-01 1 0 0
591 33 2 9.0300000000000005e-02 3.0103403163017584e+00 5.0402095086243435e+00 7.0339796347812067e+00 1 0 0
592 33 2 9.0300000000000005e-02 4.2668755863402037e+00 3.5878732717679100e+00 5.6848744534816342e+00 1 0 0
590 33 1 -9.0300000000000005e-02 2.5519789217600048e+00 6.5337467173918586e+00 5.3615450508008955e+00 1 0 0
601 34 2 9.0300000000000005e-02 -9.4176714801419870e-01 7.3296305774193140e+00 8.7328315705283153e+00 1 0 0
234 13 2 9.0300000000000005e-02 1.1541784201095735e+00 4.5033750742655858e+00 3.1798366649273291e-01 1 0 0
229 13 4 -9.0300000000000005e-02 -1.2122706123742000e+00 8.5560341437216725e-01 3.3285087549822228e+00 1 0 0
1009 54 2 9.0300000000000005e-02 -3.3392677582254757e+00 7.2722766072188350e+00 7.0337312608426537e+00 1 0 0
985 53 2 9.0300000000000005e-02 -1.8998059660147091e+00 6.4878594476165263e+00 5.4535196719439698e+00 1 0 0
599 34 1 -9.0300000000000005e-02 5.7621764484870752e-01 4.3282008816340625e+00 8.2939045755201128e+00 1 0 0
4401 234 2 9.0300000000000005e-02 -9.9135158124913314e-01 1.1663669910264240e+00 8.8431831861217063e+00 1 1 0
225 13 2 9.0300000000000005e-02 -2.2322395648373154e+00 3.9985897731067926e-01 5.1456611903406735e+00 1 0 0
595 34 7 -9.0300000000000005e-02 1.2793007276952295e-01 5.6177825866422797e+00 7.8830414289348276e+00 1 0 0
981 53 1 -9.0300000000000005e-02 -1.2946293303175231e+00 7.2092779073642861e+00 4.8890070123271849e+00 1 0 0
4378 233 5 -9.0300000000000005e-02 3.4355565587647527e+00 5.1901396171880532e-01 1.9236487907505966e+00 1 1 0
582 33 2 9.0300000000000005e-02 4.2175371112459130e+00 5.2934107640203694e+00 -9.7031798299970273e-02 1 0 0
583 33 2 9.0300000000000005e-02 3.0057033050462985e+00 7.0551526784863077e+00 1.4773104433451019e+00 1 0 0
993 53 2 9.0300000000000005e-02 -1.8995362251488199e+00 6.2382082368103218e+00 3.0019712452186389e+00 1 0 0
232 13 2 9.0300000000000005e-02 -3.3349566346555365e-01 5.5865505969772156e-01 8.4624819569793175e-01 1 0 0
1493 53 6 0.0000000000000000e+00 -5.5879546060658614e-01 8.6662356843389166e+00 2.9992103558772891e+00 1 0 0
1064 57 2 9.0300000000000005e-02 7.1637042459306510e+00 6.4216027911411633e+00 9.4143891990627315e-01 1 0 0
1005 54 4 -9.0300000000000005e-02 -4.5140613404843135e+00 7.2136730056005378e+00 8.8777549230571964e+00 1 0 0
594 33 2 9.0300000000000005e-02 1.9706149367878791e+00 7.3613094599151871e+00 5.8616173831222014e+00 1 0 0
977 53 7 -9.0300000000000005e-02 -7.6975393620035781e-01 8.3456704415943825e+00 5.5121314802946335e+00 1 0 0
982 53 2 9.0300000000000005e-02 -7.3848582372724847e-01 8.5452636709846459e+00 6.5845393146797884e+00 1 0 0
1004 54 1 -9.0300000000000005e-02 -3.5751840185072608e+00 7.7955511926566254e+00 7.9964010796822933e+00 1 0 0
988 53 3 0.0000000000000000e+00 -7.6465628918773210e-01 8.0594146323477442e+00 2.7249446243537450e+00 1 0 0
584 33 2 9.0300000000000005e-02 2.2904847065631979e+00 7.6699684958732135e+00 3.4739665500168737e+00 1 0 0
1010 54 2 9.0300000000000005e-02 -5.1609172295956354e+00 6.3577208141732768e+00 8.5619825635955991e+00 1 0 0
986 53 1 -9.0300000000000005e-02 -2.1440426404848661e-01 8.8842159800811551e+00 5.3244659789686133e-01 1 0 0
1353 73 2 9.0300000000000005e-02 4.8987580558624622e+00 8.7759719815346369e+00 2.9294223472600747e+00 1 0 0
249 14 2 9.0300000000000005e-02 -3.9636407364539679e+00 1.9780017868102544e+00 7.2507518440114644e+00 1 0 0
303 17 2 9.0300000000000005e-02 7.7881431622398773e+00 1.4611585634477722e+00 1.7372611192767329e-01 1 0 0
607 34 4 -9.0300000000000005e-02 4.3978272838651655e-01 3.7649364560283898e+00 9.5980516083475571e+00 1 0 0
4382 233 2 9.0300000000000005e-02 4.2356375477377446e+00 3.5128378578055661e-02 6.5627547715814250e-02 1 1 0
235 14 7 -9.0300000000000005e-02 -5.3900832622886767e+00 2.3560069197384359e+00 1.3135132826459246e+01 1 0 0
236 14 5 -9.0300000000000005e-02 -4.5494983206855002e+00 3.1558820576015019e+00 1.2331696255707874e+01 1 0 0
597 34 3 0.0000000000000000e+00 -6.8241002722817967e-01 5.8674418554758896e+00 1.0227045925609282e+01 1 0 0
734 14 6 0.0000000000000000e+00 -4.6303184141698619e+00 2.3380339900135358e+00 1.0482401507305337e+01 1 0 0
239 14 1 -9.0300000000000005e-02 -5.9747239829576007e+00 1.2124522968923586e+00 1.2581144987442082e+01 1 0 0
240 14 2 9.0300000000000005e-02 -5.4686582352956048e+00 2.5518806608126869e+00 1.4244069932095972e+01 1 0 0
243 14 2 9.0300000000000005e-02 -6.6041295099552464e+00 6.1409114349339866e-01 1.3203604691446790e+01 1 0 0
4416 235 4 -9.0300000000000005e-02 -5.8509746552623625e+00 9.0887542198772819e-01 1.9040215353424252e+01 1 1 0
4420 235 2 9.0300000000000005e-02 -6.1219149560707953e+00 1.8945137870840132e+00 1.8709723674189714e+01 1 1 0
237 14 3 0.0000000000000000e+00 -4.4991533613771768e+00 2.9277589195125224e+00 1.0911947641781840e+01 1 0 0
4402 234 2 9.0300000000000005e-02 -1.8680496051642050e+00 1.7457650280951855e+00 1.1031754452455663e+01 1 1 0
267 15 2 9.0300000000000005e-02 -8.3477422472876466e+00 1.8369711763272532e+00 1.4493485992791676e+01 1 0 0
242 14 2 9.0300000000000005e-02 -3.2776955757443438e+00 4.6412895602181248e+00 1.0470254898522384e+01 1 0 0
255 15 3 0.0000000000000000e+00 -8.7049477971832125e+00 3.0660733921250833e+00 1.8218766281167408e+01 1 0 0
256 15 4 -9.0300000000000005e-02 -8.0519835705078560e+00 3.8684247286881610e+00 1.7200020908537553e+01 1 0 0
260 15 2 9.0300000000000005e-02 -7.5783834013684359e+00 4.7749407986833292e+00 1.7491936530703594e+01 1 0 0
268 15 2 9.0300000000000005e-02 -9.5683313708005588e+00 4.0213180525214826e-01 1.6408574659062001e+01 1 0 0
4414 235 5 -9.0300000000000005e-02 -4.8946191020888126e+00 3.4543334888126181e-01 1.6849247360365410e+01 1 1 0
264 15 3 0.0000000000000000e+00 -9.2766549033649941e+00 1.8402511208634700e+00 1.7807834790993162e+01 1 0 0
262 15 1 -9.0300000000000005e-02 -8.4775336751829578e+00 2.1789202960724814e+00 1.5540077506793088e+01 1 0 0
266 15 1 -9.0300000000000005e-02 -7.8676124688444027e+00 3.3799722920502817e+00 1.5902174857697293e+01 1 0 0
4408 234 1 -9.0300000000000005e-02 -1.6034261009075568e+00 4.3416816014806170e-01 1.2770181826774476e+01 1 1 0
238 14 4 -9.0300000000000005e-02 -3.7133781888294908e+00 3.7418602616056313e+00 1.0032221939989887e+01 1 0 0
263 15 4 -9.0300000000000005e-02 -9.1643654227678457e+00 1.3984809176984512e+00 1.6524820243534851e+01 1 0 0
735 15 6 0.0000000000000000e+00 -8.9331632462959440e+00 2.4150705869755642e+00 1.8062385249440222e+01 1 0 0
246 14 3 0.0000000000000000e+00 -5.0331384856138213e+00 1.7369383875182882e+00 1.0404097760865826e+01 1 0 0
265 15 4 -9.0300000000000005e-02 -1.0070075363918439e+01 1.1021059611420292e+00 1.8719630655414797e+01 1 0 0
604 34 1 -9.0300000000000005e-02 -9.3290297743965223e-01 4.9592545081583141e+00 1.2843700234137376e+01 1 0 0
605 34 4 -9.0300000000000005e-02 -4.0448042620738356e-01 4.0945260410933386e+00 1.1870598090953123e+01 1 0 0
606 34 3 0.0000000000000000e+00 -2.4924834563836029e-01 4.5696678618439144e+00 1.0580733748672435e+01 1 0 0
1006 54 3 0.0000000000000000e+00 -4.8236122344881238e+00 7.8035208397531042e+00 1.0140550024854662e+01 1 0 0
1007 54 4 -9.0300000000000005e-02 -5.7006598806382858e+00 7.1499176464226810e+00 1.1038323048667538e+01 1 0 0
611 34 2 9.0300000000000005e-02 8.5180069022374205e-01 2.8231136490413782e+00 9.8326985037988557e+00 1 0 0
610 34 2 9.0300000000000005e-02 2.0922293775068823e-02 3.1251210235074081e+00 1.2047683096326049e+01 1 0 0
241 14 2 9.0300000000000005e-02 -4.0102435269345555e+00 4.0001717677209383e+00 1.2827496698927787e+01 1 0 0
1029 55 2 9.0300000000000005e-02 -1.0204517463859466e+01 5.8108618535038659e+00 1.7952780946189485e+01 1 0 0
598 34 4 -9.0300000000000005e-02 -1.1796722435834788e+00 6.7650470186366096e+00 1.1219269058744905e+01 1 0 0
754 34 6 0.0000000000000000e+00 -4.2143911944914336e-01 5.2605862797833716e+00 1.0509958235408829e+01 1 0 0
609 34 2 9.0300000000000005e-02 -1.0863918672248234e+00 4.6191887795262021e+00 1.3886894333276596e+01 1 0 0
613 35 7 -9.0300000000000005e-02 -4.5902505390803032e+00 5.5686587786428863e+00 1.6068970470388134e+01 1 0 0
618 35 2 9.0300000000000005e-02 -4.4959580066042264e+00 6.0011872321865232e+00 1.5118108359950279e+01 1 0 0
615 35 3 0.0000000000000000e+00 -5.2285574256196323e+00 5.8026628462099046e+00 1.8420308320840928e+01 1 0 0
617 35 1 -9.0300000000000005e-02 -3.9723369722718687e+00 4.3382595225456120e+00 1.6356342585245603e+01 1 0 0
621 35 2 9.0300000000000005e-02 -3.3520757012965419e+00 3.7608067366238758e+00 1.5692273319072083e+01 1 0 0
624 35 3 0.0000000000000000e+00 -4.7250132032489613e+00 4.4848720732855645e+00 1.8706276251083963e+01 1 0 0
625 35 4 -9.0300000000000005e-02 -4.0423117177386771e+00 3.8166904615631378e+00 1.7643775108415500e+01 1 0 0
629 35 2 9.0300000000000005e-02 -3.5691363181383702e+00 2.8630719233384485e+00 1.7813232829148241e+01 1 0 0
755 35 6 0.0000000000000000e+00 -4.9858512818538649e+00 5.1041654793474196e+00 1.8438753066561265e+01 1 0 0
270 15 2 9.0300000000000005e-02 -7.3193155655215509e+00 3.8433144295848147e+00 1.5151455263846694e+01 1 0 0
4398 234 4 -9.0300000000000005e-02 -1.5968608822478823e+00 7.5050127510479059e-01 1.1400024505604508e+01 1 1 0
4412 234 2 9.0300000000000005e-02 -1.9219003895007400e+00 1.1019725826285789e+00 1.3513360222049034e+01 1 1 0
614 35 5 -9.0300000000000005e-02 -5.1792548192042407e+00 6.3209812308742990e+00 1.7118946546018798e+01 1 0 0
247 14 4 -9.0300000000000005e-02 -5.7561903709493194e+00 8.9279628698258906e-01 1.1228122436491203e+01 1 0 0
4419 235 2 9.0300000000000005e-02 -5.1062103937124919e+00 1.3210731811385814e+00 1.6417438544067249e+01 1 1 0
1025 55 4 -9.0300000000000005e-02 -9.8034386549456141e+00 6.7326253514995411e+00 1.8327165428820038e+01 1 0 0
608 34 1 -9.0300000000000005e-02 -1.3444686774888694e+00 6.2539842633579577e+00 1.2464811114349933e+01 1 0 0
616 35 4 -9.0300000000000005e-02 -5.9335668534016976e+00 6.5273784796347094e+00 1.9391518406084959e+01 1 0 0
612 34 2 9.0300000000000005e-02 -1.7689100089077918e+00 6.8910866391035688e+00 1.3218861287102120e+01 1 0 0
269 15 2 9.0300000000000005e-02 -1.0494846600383056e+01 1.7437170712430564e-01 1.8510238010856671e+01 1 0 0
620 35 2 9.0300000000000005e-02 -6.4309306218600844e+00 7.4817381309772175e+00 1.9140018076895100e+01 1 0 0
254 15 5 -9.0300000000000005e-02 -8.9303867308905591e+00 3.5687312162462632e+00 1.9523169652498925e+01 1 0 0
1022 55 1 -9.0300000000000005e-02 -8.5468078161631720e+00 8.3837085777459954e+00 1.5213379857459019e+01 1 0 0
1023 55 4 -9.0300000000000005e-02 -9.1525276104450075e+00 7.4408246581196762e+00 1.6093263327129890e+01 1 0 0
619 35 2 9.0300000000000005e-02 -5.6179367473684874e+00 7.3301844700897529e+00 1.6958820823477009e+01 1 0 0
1015 55 3 0.0000000000000000e+00 -8.5019658874683923e+00 8.7925875109499056e+00 1.8070912850388950e+01 1 0 0
1494 54 6 0.0000000000000000e+00 -4.5651997156290953e+00 8.4102615613971423e+00 1.0300888400842625e+01 1 0 0
1003 54 2 9.0300000000000005e-02 -6.4906639535350221e+00 7.1082971844723639e+00 1.3040101262249859e+01 1 0 0
1495 55 6 0.0000000000000000e+00 -8.8100954125274953e+00 8.2976552063866134e+00 1.7628397817359939e+01 1 0 0
999 54 1 -9.0300000000000005e-02 -5.9241787322621473e+00 7.6859272698199756e+00 1.2303641691297369e+01 1 0 0
602 34 2 9.0300000000000005e-02 -1.2446484158323807e+00 7.8463941670158643e+00 1.0987420474340793e+01 1 0 0
1024 55 3 0.0000000000000000e+00 -9.0854074466050978e+00 7.6635905885015045e+00 1.7501033124716844e+01 1 0 0
1011 54 2 9.0300000000000005e-02 -6.1942678100223176e+00 6.2228583433747851e+00 1.0765118451403355e+01 1 0 0
4415 235 3 0.0000000000000000e+00 -5.1702295292444447e+00 -2.9974311994311182e-02 1.8161941790506475e+01 1 1 0
251 14 2 9.0300000000000005e-02 -6.2116504806937751e+00 8.5928988257229652e-02 1.0732560516549428e+01 1 0 0
1100 59 2 9.0300000000000005e-02 -1.1311371288518064e+00 6.5065407813150351e+00 1.5979039026658842e+01 1 0 0
995 54 7 -9.0300000000000005e-02 -5.3774514550427996e+00 8.9266159470309230e+00 1.2626449500282247e+01 1 0 0
280 16 1 -9.0300000000000005e-02 -1.2663414960501301e+01 2.3239736828950841e+00 2.3145577005132989e+01 1 0 0
4436 236 2 9.0300000000000005e-02 -9.0227244406364022e+00 1.3104929421035200e-01 2.2275255904901833e+01 1 1 0
258 15 2 9.0300000000000005e-02 -9.7792851701839254e+00 3.2518342969126630e+00 2.1361317882807448e+01 1 0 0
634 36 4 -9.0300000000000005e-02 -1.0194340123615422e+01 6.3993811059744674e+00 2.6153833416428885e+01 1 0 0
4433 236 3 0.0000000000000000e+00 -9.5169725112986860e+00 5.2569039765489295e-02 2.5574276712000181e+01 1 1 0
257 15 1 -9.0300000000000005e-02 -1.0162855499884856e+01 1.5951630021237704e+00 2.0005447300367674e+01 1 0 0
284 16 1 -9.0300000000000005e-02 -1.2069343750125080e+01 3.5151580713233628e+00 2.3642858012123984e+01 1 0 0
279 16 2 9.0300000000000005e-02 -1.4763776469544190e+01 5.9533465916974138e-01 2.8252032730276657e+01 1 0 0
231 13 2 9.0300000000000005e-02 -1.6320139720493156e+01 2.2483508368891516e+00 2.9361773195477284e+01 1 0 -1
288 16 2 9.0300000000000005e-02 -1.1444789260244972e+01 4.1200079060415629e+00 2.2969812910621634e+01 1 0 0
271 16 7 -9.0300000000000005e-02 -1.3788038265218976e+01 2.4922485303231698e+00 2.8059953921557572e+01 1 0 0
272 16 5 -9.0300000000000005e-02 -1.3198813092860007e+01 3.4254001852472076e+00 2.7159653214911277e+01 1 0 0
273 16 3 0.0000000000000000e+00 -1.3013609041305767e+01 3.0598227301213714e+00 2.5834490797375196e+01 1 0 0
274 16 4 -9.0300000000000005e-02 -1.2330830600949305e+01 3.9452352751466981e+00 2.4940689526672365e+01 1 0 0
275 16 1 -9.0300000000000005e-02 -1.4321512781012023e+01 1.2856183647691739e+00 2.7609671691192901e+01 1 0 0
1013 55 7 -9.0300000000000005e-02 -9.2982186380670910e+00 8.2030553878884032e+00 2.0247193494731253e+01 1 0 0
277 16 2 9.0300000000000005e-02 -1.2804510860197150e+01 4.3195418839836179e+00 2.7591758322298137e+01 1 0 0
278 16 2 9.0300000000000005e-02 -1.2160280192023812e+01 5.0238820180713200e+00 2.5216120606174204e+01 1 0 0
261 15 2 9.0300000000000005e-02 -1.0707360224675476e+01 1.0108145127010817e+00 2.0753462437158078e+01 1 0 0
282 16 3 0.0000000000000000e+00 -1.3466563624829323e+01 1.8402500673218427e+00 2.5326348998024002e+01 1 0 0
1043 56 4 -9.0300000000000005e-02 -1.4390510201952273e+01 7.1061649447657880e+00 2.6249619756608418e+01 1 0 0
736 16 6 0.0000000000000000e+00 -1.3232178347210114e+01 2.3947579265166969e+00 2.5722455261162317e+01 1 0 0
632 36 5 -9.0300000000000005e-02 -9.2364039355266456e+00 6.0884674705374602e+00 2.3896926066295155e+01 1 0 0
636 36 2 9.0300000000000005e-02 -8.4850919215174301e+00 5.5211649035538519e+00 2.1909141519489314e+01 1 0 0
4438 236 2 9.0300000000000005e-02 -1.0685209753344566e+01 1.7658737986185864e+00 2.6262366154239672e+01 1 1 0
253 15 7 -9.0300000000000005e-02 -9.6694315742937853e+00 2.8184640109646808e+00 2.0372860734655575e+01 1 0 0
623 35 4 -9.0300000000000005e-02 -4.8020895750813581e+00 3.9804915671571344e+00 2.0024458071762645e+01 1 0 0
627 35 2 9.0300000000000005e-02 -5.3926090069174908e+00 4.3950919858487767e+00 2.2047733864744401e+01 1 0 0
644 36 1 -9.0300000000000005e-02 -1.0411961416622084e+01 5.9346762939946789e+00 2.7402496911921983e+01 1 0 0
631 36 7 -9.0300000000000005e-02 -8.5601184914649853e+00 5.2534820468974059e+00 2.2958019719054320e+01 1 0 0
635 36 1 -9.0300000000000005e-02 -7.9367935682796489e+00 4.0608948039893296e+00 2.3391383671632990e+01 1 0 0
628 35 2 9.0300000000000005e-02 -4.2686312861408062e+00 3.0707937223732436e+00 2.0345399994977576e+01 1 0 0
639 36 2 9.0300000000000005e-02 -7.4988517395026637e+00 3.3972959928087541e+00 2.2583700473338236e+01 1 0 0
283 16 4 -9.0300000000000005e-02 -1.4121291111996179e+01 9.4925561389247970e-01 2.6258523462751466e+01 1 0 0
4430 235 2 9.0300000000000005e-02 -6.3864381237836199e+00 1.2430685757966680e+00 2.1143558970132780e+01 1 1 0
4444 236 1 -9.0300000000000005e-02 -1.0313735903340774e+01 3.1659420663937332e-01 2.7872957107277323e+01 1 1 0
1042 56 3 0.0000000000000000e+00 -1.3618898621570821e+01 7.7896860321396639e+00 2.5292239506268395e+01 1 0 0
633 36 3 0.0000000000000000e+00 -9.4473870319301518e+00 5.6264054733093909e+00 2.5215385305719934e+01 1 0 0
4437 236 2 9.0300000000000005e-02 -9.9929939725553112e+00 1.4192909594977425e+00 2.4076012308454956e+01 1 1 0
640 36 1 -9.0300000000000005e-02 -9.7855684650848644e+00 4.8352046706412546e+00 2.7864807436999953e+01 1 0 0
641 36 4 -9.0300000000000005e-02 -8.9800858884096719e+00 4.0262806694595046e+00 2.7036532575870790e+01 1 0 0
642 36 3 0.0000000000000000e+00 -8.8380605672840140e+00 4.4592849033664592e+00 2.5652472974836492e+01 1 0 0
643 36 4 -9.0300000000000005e-02 -8.0817529245331343e+00 3.6832823219378268e+00 2.4731101151283614e+01 1 0 0
622 35 1 -9.0300000000000005e-02 -5.4122928815864837e+00 4.7355678571340167e+00 2.1024195933891409e+01 1 0 0
646 36 2 9.0300000000000005e-02 -8.5522268320954939e+00 3.0947911283278970e+00 2.7333197134891922e+01 1 0 0
647 36 2 9.0300000000000005e-02 -7.5002166200459310e+00 2.8563664682546062e+00 2.5152538451958677e+01 1 0 0
756 36 6 0.0000000000000000e+00 -9.2922623402727460e+00 4.9557246391252265e+00 2.5376293500525350e+01 1 0 0
281 16 4 -9.0300000000000005e-02 -1.3372944093077512e+01 1.4628953546194647e+00 2.3978669077880387e+01 1 0 0
4434 236 4 -9.0300000000000005e-02 -1.0207571726285671e+01 8.1938057164475475e-01 2.6561103364178241e+01 1 1 0
1045 56 2 9.0300000000000005e-02 -1.2752554435713050e+01 7.6386436482676769e+00 2.1977835791546507e+01 1 0 0
1407 76 2 9.0300000000000005e-02 -8.3602056788772181e+00 8.7567834377930165e+00 2.4339449863884838e+01 1 0 0
648 36 2 9.0300000000000005e-02 -1.0917775169492266e+01 6.5141806131189535e+00 2.8131963664522591e+01 1 0 0
4432 236 5 -9.0300000000000005e-02 -9.5431928737049994e+00 5.1261262892676207e-01 2.4280376929880024e+01 1 1 0
1039 56 2 9.0300000000000005e-02 -1.5078006493299831e+01 7.0002384596498715e+00 2.8219223706386785e+01 1 0 0
626 35 1 -9.0300000000000005e-02 -6.0451063028636041e+00 5.9313121752194542e+00 2.0651877850081206e+01 1 0 0
4448 236 2 9.0300000000000005e-02 -1.0977729193857023e+01 7.8845231727019194e-01 2.8534510093314619e+01 1 1 0
4426 235 1 -9.0300000000000005e-02 -6.0151935991139496e+00 5.3493135064443276e-01 2.0413821344871920e+01 1 1 0
276 16 2 9.0300000000000005e-02 -1.3838319442324776e+01 2.6428220240011164e+00 2.9086979105409767e+01 1 0 0
630 35 2 9.0300000000000005e-02 -6.6873495564134799e+00 6.4773563961946845e+00 2.1345326202560130e+01 1 0 0
1021 55 2 9.0300000000000005e-02 -1.0441487627910293e+01 6.3829432828358303e+00 2.0276757981869796e+01 1 0 0
637 36 2 9.0300000000000005e-02 -9.6824753703825515e+00 6.9887690168169669e+00 2.3584894553510335e+01 1 0 0
645 36 2 9.0300000000000005e-02 -1.0046410830802234e+01 4.5793359163163201e+00 2.8847583598905409e+01 1 0 0
638 36 2 9.0300000000000005e-02 -1.0572406843918678e+01 7.3512421794998613e+00 2.5834506981373146e+01 1 0 0
1017 55 1 -9.0300000000000005e-02 -9.9190192250795768e+00 7.0163309617540817e+00 1.9692389393424904e+01 1 0 0
1035 56 1 -9.0300000000000005e-02 -1.4507228121640887e+01 7.6126518124175293e+00 2.7513633364835218e+01 1 0 0
1018 55 2 9.0300000000000005e-02 -9.2837587370446890e+00 8.3387271940911205e+00 2.1354801593040477e+01 1 0 0
1496 56 6 0.0000000000000000e+00 -1.3376341564280510e+01 8.4585994168155221e+00 2.5445635007196078e+01 1 0 0
1040 56 1 -9.0300000000000005e-02 -1.2817564862608320e+01 7.9959155645108630e+00 2.2982577771482124e+01 1 0 0
1041 56 4 -9.0300000000000005e-02 -1.3475343090249995e+01 7.2807869359635520e+00 2.3991534384258440e+01 1 0 0
259 15 2 9.0300000000000005e-02 -8.5491730489318112e+00 4.4782015119434009e+00 1.9863296515793312e+01 1 0 0
1047 56 2 9.0300000000000005e-02 -1.5010367499490071e+01 6.2546567275203033e+00 2.5899302470599618e+01 1 0 0
285 16 2 9.0300000000000005e-02 -1.2571562587828655e+01 2.0453843898556641e+00 2.2057694502052801e+01 1 0 0
287 16 2 9.0300000000000005e-02 -1.4408886651996612e+01 3.8179627331266022e-03 2.5840163539064765e+01 1 0 0
1031 56 7 -9.0300000000000005e-02 -1.3780851398673637e+01 8.7954682609999271e+00 2.7847387310795494e+01 1 0 0
979 53 3 0.0000000000000000e+00 -1.8752028750438265e-01 9.1853618475038914e+00 3.3516409440593469e+00 1 0 0
980 53 4 -9.0300000000000005e-02 5.7695053349673309e-01 1.0021780213047219e+01 2.5049908091858986e+00 1 0 0
984 53 2 9.0300000000000005e-02 1.1885656957140400e+00 1.0780680816429706e+01 2.9815111186120600e+00 1 0 0
1361 74 2 9.0300000000000005e-02 -1.0423655282724100e+00 1.3335546362382237e+01 8.5429636194686900e+00 1 0 0
990 53 1 -9.0300000000000005e-02 4.8747709810136519e-01 9.9771455472225021e+00 1.1599183024077722e+00 1 0 0
2253 93 6 0.0000000000000000e+00 -3.6249166039077085e-01 1.4258680270462824e+01 2.9932193602852553e+00 1 0 0
994 53 2 9.0300000000000005e-02 1.0565810157034832e+00 1.0652172178394574e+01 5.0935036426146296e-01 1 0 0
1741 93 1 -9.0300000000000005e-02 -1.4736227298632898e+00 1.3466670364909826e+01 4.9250903637109280e+00 1 0 0
978 53 5 -9.0300000000000005e-02 -1.6113519904266305e-01 9.3026242682326110e+00 4.7067769127882837e+00 1 0 0
983 53 2 9.0300000000000005e-02 2.0922879582644649e-01 1.0245429097955665e+01 5.0891550061030282e+00 1 0 0
1012 54 2 9.0300000000000005e-02 -2.3864585457484244e+00 9.4972731796651431e+00 7.5461122856106257e+00 1 0 0
1363 74 2 9.0300000000000005e-02 1.0119125966387310e+00 9.5942068435446153e+00 7.6810929880597918e+00 1 0 0
1745 93 2 9.0300000000000005e-02 -2.0579882892740136e+00 1.2939878040149274e+01 5.6467479343807705e+00 1 0 0
1753 93 2 9.0300000000000005e-02 -1.9917492559079704e+00 1.2086748560688937e+01 3.4083309537163027e+00 1 0 0
1338 73 5 -9.0300000000000005e-02 3.6488219666040189e+00 1.2267761022996385e+01 1.6759271656171824e+00 1 0 0
1339 73 3 0.0000000000000000e+00 3.4156321697401104e+00 1.1886830793617269e+01 3.0623543766703105e+00 1 0 0
1340 73 4 -9.0300000000000005e-02 2.8088677626016656e+00 1.2795060221529480e+01 3.9390095430467795e+00 1 0 0
1341 73 1 -9.0300000000000005e-02 4.9689116235487001e+00 1.0281128568788949e+01 1.3392806828482877e+00 1 0 0
1337 73 7 -9.0300000000000005e-02 4.4327995704228922e+00 1.1475552676374978e+01 8.3639086578125799e-01 1 0 0
1343 73 2 9.0300000000000005e-02 3.2008981953326581e+00 1.3223473826364545e+01 1.3419140809938734e+00 1 0 0
1348 73 3 0.0000000000000000e+00 3.8872879306537693e+00 1.0653667170557249e+01 3.4807845136098026e+00 1 0 0
1349 73 4 -9.0300000000000005e-02 4.6394819874735580e+00 9.8109581362002771e+00 2.5993240836343618e+00 1 0 0
1513 73 6 0.0000000000000000e+00 3.6833252904388734e+00 1.1281884580604002e+01 3.2562794663884151e+00 1 0 0
1356 74 5 -9.0300000000000005e-02 -6.6232990918196855e-01 1.2332967391431712e+01 8.8176592112571726e+00 1 0 0
1354 73 2 9.0300000000000005e-02 2.1153839634079197e+00 1.3188907233099908e+01 5.8923796585839519e+00 1 0 0
1346 73 1 -9.0300000000000005e-02 2.9783671845870527e+00 1.1050098351353645e+01 5.6536783563981823e+00 1 0 0
1347 73 4 -9.0300000000000005e-02 3.6652757194911074e+00 1.0244358764066062e+01 4.7893249568518446e+00 1 0 0
1350 73 1 -9.0300000000000005e-02 2.5795817046877088e+00 1.2415106168374955e+01 5.2229433419349673e+00 1 0 0
1351 73 2 9.0300000000000005e-02 2.7919568343371615e+00 1.0728409933847695e+01 6.6491835750485695e+00 1 0 0
1352 73 2 9.0300000000000005e-02 3.9510565010388525e+00 9.2322623615720705e+00 5.1388701955824647e+00 1 0 0
1345 73 2 9.0300000000000005e-02 5.5616813826919396e+00 9.6732601282519326e+00 6.6392788344390707e-01 1 0 0
1355 74 7 -9.0300000000000005e-02 -3.0949880955830622e-02 1.1420822661179992e+01 7.9487162510901186e+00 1 0 0
1359 74 1 -9.0300000000000005e-02 5.7575924001570478e-01 1.0314199811437273e+01 8.4191863465671926e+00 1 0 0
1360 74 2 9.0300000000000005e-02 -2.3819448539742716e-02 1.1620319127815669e+01 6.8554086174580879e+00 1 0 0
1747 93 4 -9.0300000000000005e-02 -6.0856486487591877e-01 1.3237446233991850e+01 1.2884418916298566e+00 1 0 0
1748 93 3 0.0000000000000000e+00 -7.7465485009327162e-01 1.3728359257226380e+01 2.6286869179827153e+00 1 0 0
1342 73 2 9.0300000000000005e-02 4.5274397077622508e+00 1.1939196962878869e+01 -1.2072177148202884e-01 1 0 0
1746 93 1 -9.0300000000000005e-02 1.8917269579693952e-01 1.3933439426561057e+01 3.7989374114048902e-01 1 0 0
1765 94 4 -9.0300000000000005e-02 -5.2395852466822301e+00 1.3760962834134952e+01 8.6251307394364538e+00 1 0 0
1749 93 4 -9.0300000000000005e-02 -1.4806876308090977e+00 1.3054273826033185e+01 3.6010128579615732e+00 1 0 0
1764 94 1 -9.0300000000000005e-02 -4.4808507096846126e+00 1.4611473774477735e+01 7.7950484738292438e+00 1 0 0
1344 73 2 9.0300000000000005e-02 2.5503913618777827e+00 1.3737350476297777e+01 3.4754629447968739e+00 1 0 0
1737 93 7 -9.0300000000000005e-02 -8.4747544770288163e-01 1.4650956602606183e+01 5.3371180960136089e+00 1 0 0