LAMMPS data file via write_data, version 15 May 2015, timestep = 23005000

2611 atoms
6 atom types
1749 bonds
4 bond types
894 angles
3 angle types
44 dihedrals
3 dihedral types
10 impropers
1 improper types

-1.4895413929986688e+01 1.4895413929986688e+01 xlo xhi
-1.4895413929986688e+01 1.4895413929986688e+01 ylo yhi
-1.4895413929986688e+01 1.4895413929986688e+01 zlo zhi

Masses

1 15.9994
2 1.00794
3 12.0107
4 1.00794
5 12.0107
6 12.0107

Bond Coeffs # harmonic

1 1000 1
2 469 1.4
3 367 1.08
4 469 0.7

Angle Coeffs # harmonic

1 100 109.47
2 35 120
3 63 120

Dihedral Coeffs # opls

1 0 7.25 0 0
2 0 7.25 0 0
3 0 7.25 0 0

Improper Coeffs # cvff

1 2.5 -1 2

Atoms # full

848 283 2 4.0999999999999998e-01 -1.2862923725781341e+01 -1.3182095231482192e+01 -9.9061120136365535e+00 4 7 -1
2515 839 1 -8.1999999999999995e-01 -9.6415870985437877e+00 -1.2774604765811409e+01 -1.3174177126471282e+01 -2 2 5
200 67 2 4.0999999999999998e-01 -1.0635148743727672e+01 -8.7069422107645735e+00 -1.3380862247412416e+01 -4 2 5
847 283 1 -8.1999999999999995e-01 -1.3418935247969900e+01 -1.2715403086001521e+01 -1.0593932049111519e+01 4 7 -1
849 283 2 4.0999999999999998e-01 -1.3363991312051814e+01 -1.3212232271359387e+01 -1.1460066383028034e+01 4 7 -1
2527 843 1 -8.1999999999999995e-01 -8.3782707560652234e+00 -1.1405309032288333e+01 -1.1287241302453541e+01 -2 -4 1
1931 644 2 4.0999999999999998e-01 -1.0363276913138669e+01 -1.2514317647927015e+01 -7.2701908304177794e+00 -7 -3 2
436 146 1 -8.1999999999999995e-01 -1.2536035137171382e+01 -1.3695134828272760e+01 -1.2947818507266383e+01 -3 -3 5
235 79 1 -8.1999999999999995e-01 -1.3004926640408556e+01 -1.0843862100264900e+01 -1.4249114534182885e+01 5 3 1
1988 663 2 4.0999999999999998e-01 -1.1038500727636851e+01 -9.7786324333883581e+00 -1.0806347785280749e+01 -1 0 2
2517 839 2 4.0999999999999998e-01 -9.1815503004799268e+00 -1.2272326421093236e+01 -1.2441968571459602e+01 -2 2 5
392 131 2 4.0999999999999998e-01 -1.3337049631345378e+01 -1.1370024889134225e+01 -9.5045100311716464e+00 0 1 -1
391 131 1 -8.1999999999999995e-01 -1.3358034479447824e+01 -1.0762089964843216e+01 -8.7107710803739256e+00 0 1 -1
393 131 2 4.0999999999999998e-01 -1.3678186193781304e+01 -1.1269455370793331e+01 -7.9106898494224769e+00 0 1 -1
1987 663 1 -8.1999999999999995e-01 -1.0243848947020275e+01 -9.5932462980602260e+00 -1.0228241153310055e+01 -1 0 2
2185 729 1 -8.1999999999999995e-01 -1.2297450574010544e+01 -8.9776795775624976e+00 -1.2530086324423593e+01 1 5 -2
2186 729 2 4.0999999999999998e-01 -1.2551876854328777e+01 -9.6336942219317763e+00 -1.3240690867811399e+01 1 5 -2
2529 843 2 4.0999999999999998e-01 -9.0651312001470163e+00 -1.0798747559029945e+01 -1.0886800753007094e+01 -2 -4 1
1989 663 2 4.0999999999999998e-01 -9.9364439692313660e+00 -8.6531340929464626e+00 -1.0375679086004039e+01 -1 0 2
1804 602 1 -8.1999999999999995e-01 -1.2303564435948443e+01 -8.5694578418484610e+00 -7.6693714201749259e+00 4 -7 -2
1608 536 2 4.0999999999999998e-01 -8.7798408222173077e+00 -1.0173338847012486e+01 -8.8030461710107168e+00 1 -2 -1
2187 729 2 4.0999999999999998e-01 -1.3123726816715862e+01 -8.5686658886107345e+00 -1.2142759435772986e+01 1 5 -2
1930 644 1 -8.1999999999999995e-01 -9.9196476428721354e+00 -1.2822343794199552e+01 -8.1118319210041498e+00 -7 -3 2
1932 644 2 4.0999999999999998e-01 -9.3346999316366972e+00 -1.2092903540560338e+01 -8.4665146451595916e+00 -7 -3 2
1607 536 2 4.0999999999999998e-01 -8.0353027600604818e+00 -9.8141053071987834e+00 -7.3947260858068846e+00 1 -2 -1
237 79 2 4.0999999999999998e-01 -1.3977848776785100e+01 -1.0788275648891418e+01 -1.4473568102274129e+01 5 3 1
1606 536 1 -8.1999999999999995e-01 -8.2216771051697091e+00 -1.0538827654018705e+01 -8.0581180258447880e+00 1 -2 -1
2408 803 2 4.0999999999999998e-01 -9.4803641655536417e+00 -9.3533992562996175e+00 -5.3070895246966501e+00 -4 6 5
199 67 1 -8.1999999999999995e-01 -9.7236119205624494e+00 -8.7498577519167302e+00 -1.3789892352242514e+01 -4 2 5
2409 803 2 4.0999999999999998e-01 -1.0205149870287819e+01 -1.0634726364195117e+01 -6.0139400071799880e+00 -4 6 5
2516 839 2 4.0999999999999998e-01 -9.0815392147914302e+00 -1.2744248033323817e+01 -1.4002109244095553e+01 -2 2 5
490 164 1 -8.1999999999999995e-01 -7.5676539747192528e+00 -8.9615440704200360e+00 -5.6808304032710009e+00 -1 -3 -1
1806 602 2 4.0999999999999998e-01 -1.1597538203711808e+01 -8.6581407998114290e+00 -6.9667271154265658e+00 4 -7 -2
2333 778 2 4.0999999999999998e-01 -1.4066723072523287e+01 -1.2470352680120275e+01 -5.9814429652205359e+00 -4 -3 7
1036 346 1 -8.1999999999999995e-01 -8.7358349735738585e+00 -7.5019318003684745e+00 -1.1059827976211780e+01 0 6 3
1002 334 2 4.0999999999999998e-01 -9.1192775403843349e+00 -1.4298100788861547e+01 -8.2068267610789487e+00 6 7 -4
2528 843 2 4.0999999999999998e-01 -7.7092787049048832e+00 -1.0862239448401660e+01 -1.1794756646252713e+01 -2 -4 1
1805 602 2 4.0999999999999998e-01 -1.2548276383963486e+01 -9.4763948291040006e+00 -8.0123409671273134e+00 4 -7 -2
438 146 2 4.0999999999999998e-01 -1.2829843770143830e+01 -1.4648520487636018e+01 -1.3016948933105626e+01 -3 -3 5
554 185 2 4.0999999999999998e-01 -1.1285162090300847e+01 -1.3720477370658040e+01 -8.4953533615016248e+00 2 0 1
1986 662 2 4.0999999999999998e-01 -1.4778257439145838e+01 -8.0847215041049889e+00 -1.0495924152001226e+01 -3 -1 3
437 146 2 4.0999999999999998e-01 -1.1541071304585934e+01 -1.3645784836219956e+01 -1.3035330217012923e+01 -3 -3 5
845 282 2 4.0999999999999998e-01 -9.2302840945006395e+00 -1.4673188097550996e+01 -1.3544805806750897e+01 4 4 0
1037 346 2 4.0999999999999998e-01 -8.5022141768180930e+00 -8.0977261067349104e+00 -1.1828266131551533e+01 0 6 3
994 332 1 -8.1999999999999995e-01 -1.0783359072547817e+01 -1.2368607898626621e+01 -5.5351447814346901e+00 5 0 5
1038 346 2 4.0999999999999998e-01 -7.9799916869397194e+00 -7.4904812517742414e+00 -1.0405139859386800e+01 0 6 3
236 79 2 4.0999999999999998e-01 -1.2846061942059432e+01 -1.1625810811426312e+01 -1.3646316911224805e+01 5 3 1
553 185 1 -8.1999999999999995e-01 -1.2207877457251387e+01 -1.4105232896450397e+01 -8.5199766007433873e+00 2 0 1
1575 525 2 4.0999999999999998e-01 -1.3717700940894771e+01 -7.6093866491277948e+00 -8.7543352557429976e+00 -2 2 4
995 332 2 4.0999999999999998e-01 -1.1704437813288013e+01 -1.2626203603339956e+01 -5.2430743032584566e+00 5 0 5
201 67 2 4.0999999999999998e-01 -9.5165812961585416e+00 -7.8785439551756902e+00 -1.4234861268009666e+01 -4 2 5
555 185 2 4.0999999999999998e-01 -1.2312240668552628e+01 -1.4768706308925832e+01 -7.7790595410232495e+00 2 0 1
2407 803 1 -8.1999999999999995e-01 -1.0336373896966478e+01 -9.6964279680099299e+00 -5.6939039076498172e+00 -4 6 5
2332 778 1 -8.1999999999999995e-01 -1.3436638682609740e+01 -1.2485575445502882e+01 -5.2050354099313445e+00 -4 -3 7
1598 533 2 4.0999999999999998e-01 -1.3171744781822461e+01 -1.4263668738913617e+01 -5.0715743589736757e+00 -1 2 2
230 77 2 4.0999999999999998e-01 -1.0659072388401221e+01 -1.9200760242924453e-01 -9.4758054829125165e+00 -1 2 2
1149 383 2 4.0999999999999998e-01 -1.0565987317158175e+01 -2.9920320903041144e+00 -1.4486432077834481e+01 4 -5 3
1629 543 2 4.0999999999999998e-01 -1.2189452519555264e+01 -5.3457884257514134e+00 -1.4603595102309191e+01 -2 3 3
2435 812 2 4.0999999999999998e-01 -1.2334417788075278e+01 -1.4393124437279727e+00 -8.1368610793656480e+00 0 -5 -5
720 240 2 4.0999999999999998e-01 -8.4235396575717942e+00 -3.4251506340453197e-01 -1.2399581954983171e+01 0 2 0
1767 589 2 4.0999999999999998e-01 -1.1802274073659751e+01 -6.0563530286307259e+00 -6.5112845118614757e+00 3 -1 -2
1148 383 2 4.0999999999999998e-01 -9.8977756517265796e+00 -3.1359217501630567e+00 -1.3003347423444259e+01 4 -5 3
216 72 2 4.0999999999999998e-01 -7.9021485469843249e+00 -3.8673219964537005e+00 -1.2131611102293947e+01 -3 -6 4
666 222 2 4.0999999999999998e-01 -8.6682206218176905e+00 -9.0615885318644196e-01 -9.8638858515981660e+00 -6 3 0
1765 589 1 -8.1999999999999995e-01 -1.2045168471041567e+01 -5.1152926683261999e+00 -6.2757968225506229e+00 3 -1 -2
403 135 1 -8.1999999999999995e-01 -1.4756643694605161e+01 -4.5767131993329890e-01 -5.1719744102789953e+00 0 3 -3
14 5 2 4.0999999999999998e-01 -8.7820378524695748e+00 -3.1000856884728805e+00 -6.9011433466184382e+00 -2 2 1
215 72 2 4.0999999999999998e-01 -7.7769118032709175e+00 -4.2532298220196534e+00 -1.0549795044144146e+01 -3 -6 4
719 240 2 4.0999999999999998e-01 -9.6946172635518266e+00 -1.0817437619495038e+00 -1.3109971843383097e+01 0 2 0
13 5 1 -8.1999999999999995e-01 -8.1117579658937622e+00 -2.8679575190273727e+00 -7.6060462511710387e+00 -2 2 1
1487 496 2 4.0999999999999998e-01 -9.8577392866355087e+00 -4.8738756242258550e+00 -1.0207454698767926e+01 3 2 7
1488 496 2 4.0999999999999998e-01 -1.0171514284418976e+01 -6.4512838589213626e+00 -1.0490438160834760e+01 3 2 7
1573 525 1 -8.1999999999999995e-01 -1.4162309411190947e+01 -7.0185233513205691e+00 -9.4275741629491900e+00 -2 2 4
1486 496 1 -8.1999999999999995e-01 -1.0558267698509265e+01 -5.5865477490898314e+00 -1.0169969724833603e+01 3 2 7
1725 575 2 4.0999999999999998e-01 -1.3398150928645496e+01 -2.1348622955175820e+00 -1.1100312225781494e+01 2 2 -4
1724 575 2 4.0999999999999998e-01 -1.3246009616815638e+01 -3.1284906989586094e+00 -9.8133364273503076e+00 2 2 -4
1627 543 1 -8.1999999999999995e-01 -1.3126928070522620e+01 -5.3512754055671614e+00 -1.4255520097710141e+01 -2 3 3
665 222 2 4.0999999999999998e-01 -9.2832254355152521e+00 -2.3808128801109785e+00 -1.0201399802653114e+01 -6 3 0
65 22 2 4.0999999999999998e-01 -1.3485742323548711e+01 -6.3598003952823454e+00 -1.1048591913194905e+01 -2 0 9
66 22 2 4.0999999999999998e-01 -1.2341264563777997e+01 -5.2243694477171694e+00 -1.1308819407226908e+01 -2 0 9
1723 575 1 -8.1999999999999995e-01 -1.3550488177498558e+01 -2.2253477221451377e+00 -1.0116110776405302e+01 2 2 -4
664 222 1 -8.1999999999999995e-01 -9.4330242662305395e+00 -1.5290717843157253e+00 -9.6992602472503844e+00 -6 3 0
718 240 1 -8.1999999999999995e-01 -9.2811113748453788e+00 -1.9742008022250346e-01 -1.2893104930254188e+01 0 2 0
1555 519 1 -8.1999999999999995e-01 -1.2889616601678368e+01 -4.5788150109899046e+00 -8.9330449295036587e+00 1 1 5
15 5 2 4.0999999999999998e-01 -8.5331379297251679e+00 -2.2606850588734293e+00 -8.2796231429725218e+00 -2 2 1
1965 655 2 4.0999999999999998e-01 -1.0750937584968508e+01 -3.7958414922188712e+00 -5.7204121108502530e+00 1 -4 3
2022 674 2 4.0999999999999998e-01 -1.3500480686095285e+01 -1.1640413308009023e+00 -1.3239436140464122e+01 -3 -1 12
1556 519 2 4.0999999999999998e-01 -1.2800447506855802e+01 -4.4506543985859857e+00 -7.9452845895858664e+00 1 1 5
2021 674 2 4.0999999999999998e-01 -1.2256154261650632e+01 -2.2155111299388217e+00 -1.3352635752636360e+01 -3 -1 12
64 22 1 -8.1999999999999995e-01 -1.2958548051493347e+01 -5.8771563453619144e+00 -1.1747997140829559e+01 -2 0 9
1964 655 2 4.0999999999999998e-01 -1.0700900445099318e+01 -2.2850580453678120e+00 -6.3382962358466468e+00 1 -4 3
1963 655 1 -8.1999999999999995e-01 -1.0161718181003561e+01 -3.0105039120556096e+00 -5.9104440204040625e+00 1 -4 3
2436 812 2 4.0999999999999998e-01 -1.3131809747480430e+01 -1.0070143553421751e+00 -6.7789083658339315e+00 0 -5 -5
2434 812 1 -8.1999999999999995e-01 -1.2306331661681334e+01 -1.4431695820996868e+00 -7.1372396321003171e+00 0 -5 -5
1628 543 2 4.0999999999999998e-01 -1.3113363886597204e+01 -5.4752764251006081e+00 -1.3263307166804360e+01 -2 3 3
214 72 1 -8.1999999999999995e-01 -8.3772402522883347e+00 -3.8697590480908186e+00 -1.1251651630434827e+01 -3 -6 4
2020 674 1 -8.1999999999999995e-01 -1.3071672269026875e+01 -1.9688707902071911e+00 -1.2829046526618431e+01 -3 -1 12
1147 383 1 -8.1999999999999995e-01 -1.0513026265259299e+01 -2.5901507219869835e+00 -1.3572247604223955e+01 4 -5 3
1557 519 2 4.0999999999999998e-01 -1.2038056233617542e+01 -4.9546487087728295e+00 -9.2986139794776115e+00 1 1 5
455 152 2 4.0999999999999998e-01 -1.4699253969317260e+01 -2.9467886807049926e+00 -1.3204548560615120e+01 -4 -4 5
1574 525 2 4.0999999999999998e-01 -1.3937653359532968e+01 -6.0636771572159702e+00 -9.2330358215944237e+00 -2 2 4
1601 534 2 4.0999999999999998e-01 -1.4626053789472557e+01 -1.4382813735506836e+00 -8.9640938919945228e+00 -1 -1 3
456 152 2 4.0999999999999998e-01 -1.4456924903563074e+01 -4.3630579073152749e+00 -1.3980569980562928e+01 -4 -4 5
1766 589 2 4.0999999999999998e-01 -1.2609466951461815e+01 -5.1133310616409133e+00 -5.4501999885100521e+00 3 -1 -2
1327 443 1 -8.1999999999999995e-01 -7.4477443903874585e+00 -3.9228158443313941e+00 -1.4174869602168121e+01 -5 6 3
1329 443 2 4.0999999999999998e-01 -7.4620445913813569e+00 -4.8242231424028326e+00 -1.4607659556302314e+01 -5 6 3
1452 484 2 4.0999999999999998e-01 -1.1406139725673125e+01 -1.3415404223211628e+01 -8.2190600411901826e-01 -1 5 -1
1934 645 2 4.0999999999999998e-01 -1.0449012594156251e+01 -1.1781363741070098e+01 3.1743968663526445e-01 -2 2 2
1451 484 2 4.0999999999999998e-01 -1.0799564579981478e+01 -1.2463566345808829e+01 -2.0020849315109075e+00 -1 5 -1
1450 484 1 -8.1999999999999995e-01 -1.1210363240427213e+01 -1.2472195223881601e+01 -1.0903740499981556e+00 -1 5 -1
2334 778 2 4.0999999999999998e-01 -1.3728174694614779e+01 -1.1811895117830215e+01 -4.5259122141252757e+00 -4 -3 7
730 244 1 -8.1999999999999995e-01 -9.2519105363206045e+00 -1.2168338323152879e+01 -3.4342399321316588e+00 -4 1 3
521 174 2 4.0999999999999998e-01 -1.3643511974637581e+01 -9.8544078811117259e+00 3.4382544641208099e+00 -2 2 2
731 244 2 4.0999999999999998e-01 -8.4474059123054630e+00 -1.2563691379820703e+01 -3.8775400824809836e+00 -4 1 3
996 332 2 4.0999999999999998e-01 -1.0194338636379626e+01 -1.2271139237662556e+01 -4.7328969694873617e+00 5 0 5
1654 552 1 -8.1999999999999995e-01 -1.3415337970236154e+01 -1.0615173937512488e+01 -9.2870928646950190e-01 1 1 11
1656 552 2 4.0999999999999998e-01 -1.2549116563177762e+01 -1.1095136113867555e+01 -1.0677903419455443e+00 1 1 11
522 174 2 4.0999999999999998e-01 -1.4682939202026869e+01 -1.0919846800868486e+01 2.7665535766522353e+00 -2 2 2
1138 380 1 -8.1999999999999995e-01 -1.1490608592450091e+01 -1.2042673241775953e+01 3.3496344243519864e+00 -2 6 -3
752 251 2 4.0999999999999998e-01 -1.3859383391107805e+01 -1.4137840314151463e+01 5.0707558479479786e-01 -1 3 -1
1773 591 2 4.0999999999999998e-01 -1.2711445310235334e+01 -1.3681040955044505e+01 2.7334864805403427e+00 1 1 0
1139 380 2 4.0999999999999998e-01 -1.2372578553705102e+01 -1.1587632734843119e+01 3.4725729680238828e+00 -2 6 -3
1935 645 2 4.0999999999999998e-01 -1.0883454704980114e+01 -1.1585885383359827e+01 1.8794254135707504e+00 -2 2 2
1566 522 2 4.0999999999999998e-01 -1.1048587182199308e+01 -9.6430398793314165e+00 1.7795605342873024e+00 2 -1 -4
1655 552 2 4.0999999999999998e-01 -1.3956059267198331e+01 -1.0653041598263611e+01 -1.7690861533039222e+00 1 1 11
1564 522 1 -8.1999999999999995e-01 -1.1766613233193921e+01 -8.9985013422572351e+00 2.0423444931773247e+00 2 -1 -4
1010 337 2 4.0999999999999998e-01 -7.9545729063537491e+00 -9.1410722547175425e+00 -2.1198250352731627e+00 0 3 -1
2007 669 2 4.0999999999999998e-01 -8.4060526595334846e+00 -1.1166799005293207e+01 7.8622487032484933e-01 -4 3 -2
1933 645 1 -8.1999999999999995e-01 -1.0249614852093881e+01 -1.1289468427705408e+01 1.1649810043142850e+00 -2 2 2
753 251 2 4.0999999999999998e-01 -1.3762768617216722e+01 -1.2754157950451159e+01 -3.5480591529021233e-01 -1 3 -1
2384 795 2 4.0999999999999998e-01 -1.3090844854852016e+01 -8.7720166635219314e+00 -4.3409855603652581e-01 3 2 -3
732 244 2 4.0999999999999998e-01 -8.9955416650650690e+00 -1.1317173026748808e+01 -2.9761576174682887e+00 -4 1 3
2383 795 1 -8.1999999999999995e-01 -1.3064115583162137e+01 -7.8639692570496242e+00 -1.6028947905015301e-02 3 2 -3
1009 337 1 -8.1999999999999995e-01 -8.3332056910557313e+00 -1.0059249729267172e+01 -2.0030599273977341e+00 0 3 -1
751 251 1 -8.1999999999999995e-01 -1.4141839640686097e+01 -1.3679350849362367e+01 -3.3557059021660329e-01 -1 3 -1
2368 790 1 -8.1999999999999995e-01 -9.0260571523698481e+00 -1.3651666277162805e+01 3.8570217770429664e+00 3 7 4
1565 522 2 4.0999999999999998e-01 -1.2257555606464216e+01 -8.6952663290743821e+00 1.2256004276657464e+00 2 -1 -4
1771 591 1 -8.1999999999999995e-01 -1.3197871849812913e+01 -1.4304566841644448e+01 2.1213987154836218e+00 1 1 0
823 275 1 -8.1999999999999995e-01 -1.2523380764427761e+01 -8.6971867099881486e+00 -4.3872881920858831e+00 -4 1 0
825 275 2 4.0999999999999998e-01 -1.3295272434428410e+01 -9.2355618846002727e+00 -4.7254925205159832e+00 -4 1 0
824 275 2 4.0999999999999998e-01 -1.1672749066700947e+01 -9.0564564138726062e+00 -4.7712123433249172e+00 -4 1 0
520 174 1 -8.1999999999999995e-01 -1.3952475639105492e+01 -1.0805504863851350e+01 3.4399001898020813e+00 -2 2 2
1955 652 2 4.0999999999999998e-01 -8.2445467353984068e+00 -7.6501431950998864e+00 2.3627662134808105e+00 -2 -5 2
1956 652 2 4.0999999999999998e-01 -9.2112309977517999e+00 -8.7345168446241246e+00 1.6168396508768552e+00 -2 -5 2
793 265 1 -8.1999999999999995e-01 -9.6370808133362154e+00 -1.0321513881097308e+01 4.3647909871844561e+00 -2 -4 -1
1011 337 2 4.0999999999999998e-01 -8.0964482844524213e+00 -1.0404417508252752e+01 -1.0948463609928556e+00 0 3 -1
794 265 2 4.0999999999999998e-01 -8.8696381540457612e+00 -1.0366622683521044e+01 3.7252257494420000e+00 -2 -4 -1
992 331 2 4.0999999999999998e-01 -1.1871310625096868e+01 -7.8376591227005257e+00 3.4812187234767862e+00 -3 2 6
1140 380 2 4.0999999999999998e-01 -1.0786058408305658e+01 -1.1546787408650825e+01 3.8573282592180469e+00 -2 6 -3
2369 790 2 4.0999999999999998e-01 -8.6967895384435607e+00 -1.3346536247382470e+01 4.7506241814442198e+00 3 7 4
1954 652 1 -8.1999999999999995e-01 -8.4681423485471825e+00 -8.0780071065447530e+00 1.4869898646456008e+00 -2 -5 2
1820 607 2 4.0999999999999998e-01 -1.4321209275005289e+01 -1.2042645984310781e+01 4.6759342542883893e+00 5 -2 -2
2370 790 2 4.0999999999999998e-01 -8.3287706224513514e+00 -1.3467614965681619e+01 3.1642279026416595e+00 3 7 4
2448 816 2 4.0999999999999998e-01 -1.4573462826309123e+01 -1.0408594837525316e+01 5.3886959479489605e-01 -2 3 4
278 93 2 4.0999999999999998e-01 -7.4783417507859786e+00 -3.7332363768871026e+00 -4.4991994915726536e+00 2 4 -4
2493 831 2 4.0999999999999998e-01 -8.2052424901863219e+00 -4.7377392247468553e+00 2.1961036222115311e+00 1 4 2
1409 470 2 4.0999999999999998e-01 -8.5314225028925854e+00 -1.6263697072179184e+00 -3.0374039617796686e+00 0 4 3
1962 654 2 4.0999999999999998e-01 -1.4555036258770464e+01 -4.6489860223756736e+00 3.7256096004173429e+00 1 3 5
1091 364 2 4.0999999999999998e-01 -1.2527759623858154e+01 -1.9430365055627536e+00 3.6853244031224150e+00 -4 -2 9
404 135 2 4.0999999999999998e-01 -1.4431907340648314e+01 -1.2090974452834029e+00 -4.5975600854505192e+00 0 3 -3
1755 585 2 4.0999999999999998e-01 -1.3937643008743533e+01 -5.3901413399829501e-01 7.0315951346657712e-01 3 -1 0
1538 513 2 4.0999999999999998e-01 -1.1842350922380133e+01 -3.0933273745228718e-01 2.9962742898993611e-01 0 6 0
1410 470 2 4.0999999999999998e-01 -7.4522983166459582e+00 -2.7956334088404535e+00 -2.6698926776834906e+00 0 4 3
1334 445 2 4.0999999999999998e-01 -9.0698555281337221e+00 -2.6434931700511655e-01 2.2986657778680417e+00 -1 -1 1
1753 585 1 -8.1999999999999995e-01 -1.3198018992490258e+01 -1.2054599002354500e+00 6.0906848670800429e-01 3 -1 0
354 118 2 4.0999999999999998e-01 -1.4151312037297066e+01 -6.7772570990804670e+00 -2.0390721529387825e+00 -6 2 -2
1090 364 1 -8.1999999999999995e-01 -1.2528824121475443e+01 -2.4685713141575967e+00 2.8345255045377193e+00 -4 -2 9
1754 585 2 4.0999999999999998e-01 -1.2924403576639136e+01 -1.5298049424379414e+00 1.5145968835126631e+00 3 -1 0
748 250 1 -8.1999999999999995e-01 -1.0694835103262648e+01 -4.4645679071950202e+00 4.8759896338971416e+00 -6 2 -1
1307 436 2 4.0999999999999998e-01 -1.1679527873126517e+01 -5.5941336968103990e+00 -2.5828371668292451e+00 -3 3 5
267 89 2 4.0999999999999998e-01 -8.1941699008378706e+00 -1.9228009940837421e+00 1.9022381575788039e+00 -1 0 4
2385 795 2 4.0999999999999998e-01 -1.2784107343448262e+01 -7.1902493315623497e+00 -6.9994674953404790e-01 3 2 -3
265 89 1 -8.1999999999999995e-01 -8.9420966702589730e+00 -1.6403826928871439e+00 1.3014951143187581e+00 -1 0 4
749 250 2 4.0999999999999998e-01 -1.1416527788124446e+01 -5.1252205291281303e+00 4.6692421961870174e+00 -6 2 -1
1471 491 1 -8.1999999999999995e-01 -1.2323601624313453e+01 -5.0513015027153827e+00 7.3939649956620279e-01 -2 0 -3
1462 488 1 -8.1999999999999995e-01 -1.4013760954939611e+01 -4.9574293169870849e+00 -4.3265384892079464e+00 -2 -1 1
1975 659 1 -8.1999999999999995e-01 -1.0776762282587312e+01 -2.0997133209505190e+00 -2.1087171263883455e+00 -2 3 2
750 250 2 4.0999999999999998e-01 -1.0055620472907867e+01 -4.4180649705999091e+00 4.1083380932650897e+00 -6 2 -1
2304 768 2 4.0999999999999998e-01 -1.3213250917969408e+01 -3.9520745131919242e+00 -9.0447044729002712e-01 -3 0 6
1960 654 1 -8.1999999999999995e-01 -1.3762916136377717e+01 -4.9577363148200231e+00 3.1990493461161442e+00 1 3 5
1539 513 2 4.0999999999999998e-01 -1.0215898688187083e+01 -3.3665690602104803e-01 4.4335518675668695e-01 0 6 0
1961 654 2 4.0999999999999998e-01 -1.3308832443374925e+01 -5.7035917643279337e+00 3.6864448563563883e+00 1 3 5
2492 831 2 4.0999999999999998e-01 -9.6626554817258299e+00 -4.4974856147178208e+00 1.4997009661896605e+00 1 4 2
266 89 2 4.0999999999999998e-01 -9.3993689923031738e+00 -2.4507071044552156e+00 9.3499391830764012e-01 -1 0 4
1473 491 2 4.0999999999999998e-01 -1.2262737871983630e+01 -6.0481838779702475e+00 6.8872219518853406e-01 -2 0 -3
2303 768 2 4.0999999999999998e-01 -1.3447712579392993e+01 -2.3435802805064814e+00 -7.4786525131177584e-01 -3 0 6
1042 348 1 -8.1999999999999995e-01 -1.0053964148809680e+01 -3.9124046885581052e+00 -9.0473841883513373e-02 -5 -2 -2
1472 491 2 4.0999999999999998e-01 -1.2792752019579670e+01 -4.7884317122856999e+00 1.5825122349220884e+00 -2 0 -3
1043 348 2 4.0999999999999998e-01 -1.0967089707658037e+01 -4.1579583009937071e+00 2.3502860839746731e-01 -5 -2 -2
2491 831 1 -8.1999999999999995e-01 -9.1941388346924064e+00 -4.7605491290569919e+00 2.3431086188904295e+00 1 4 2
1044 348 2 4.0999999999999998e-01 -1.0130404296295351e+01 -3.4200644643141818e+00 -9.5754058116752994e-01 -5 -2 -2
1092 364 2 4.0999999999999998e-01 -1.2974607237691679e+01 -3.3504754549874853e+00 2.9880483209201287e+00 -4 -2 9
1463 488 2 4.0999999999999998e-01 -1.4081787493486980e+01 -5.6475577564610919e+00 -3.6060234817283021e+00 -2 -1 1
2058 686 2 4.0999999999999998e-01 -8.9733869183431629e+00 -5.3911590720978833e+00 -5.7479730081511171e-01 0 -2 2
991 331 1 -8.1999999999999995e-01 -1.2481532224484695e+01 -7.3831501646839541e+00 4.1301393338244736e+00 -3 2 6
1308 436 2 4.0999999999999998e-01 -1.1814727544632134e+01 -7.1929834162459141e+00 -2.8864022455948586e+00 -3 3 5
2056 686 1 -8.1999999999999995e-01 -8.2543053648910991e+00 -6.0717801004038989e+00 -7.1523765675171980e-01 0 -2 2
1306 436 1 -8.1999999999999995e-01 -1.2106897431779975e+01 -6.4482443707503201e+00 -2.2863628846048538e+00 -3 3 5
568 190 1 -8.1999999999999995e-01 -1.0584708011730545e+01 -4.5311452341498395e+00 -3.2757961833721936e+00 2 -2 -4
569 190 2 4.0999999999999998e-01 -9.7221887653793111e+00 -4.6567627895937100e+00 -3.7660282995797694e+00 2 -2 -4
570 190 2 4.0999999999999998e-01 -1.0651228262115811e+01 -3.5863121764341432e+00 -2.9549967065893750e+00 2 -2 -4
2057 686 2 4.0999999999999998e-01 -8.3970463665437425e+00 -6.8408837288918800e+00 -9.2219700113895797e-02 0 -2 2
1976 659 2 4.0999999999999998e-01 -1.0749606304968530e+01 -1.5885778193300073e+00 -1.2496188773919688e+00 -2 3 2
1977 659 2 4.0999999999999998e-01 -1.1665739958344560e+01 -1.9675640821989600e+00 -2.5472396443776670e+00 -2 3 2
1689 563 2 4.0999999999999998e-01 -1.3543954874844935e+01 -2.3607988791548138e+00 -2.9943589367209942e+00 -5 0 6
1687 563 1 -8.1999999999999995e-01 -1.3211077272665623e+01 -2.1585301602971843e+00 -3.9154054232306823e+00 -5 0 6
1688 563 2 4.0999999999999998e-01 -1.3087763425896801e+01 -3.0128517416971548e+00 -4.4203559645493442e+00 -5 0 6
2302 768 1 -8.1999999999999995e-01 -1.3483868180522993e+01 -3.1160801600243939e+00 -1.3818869210176157e+00 -3 0 6
1408 470 1 -8.1999999999999995e-01 -7.8674669838497602e+00 -2.2723573925130900e+00 -3.4141130375842401e+00 0 4 3
906 302 2 4.0999999999999998e-01 -1.2066657031632470e+01 -3.9963597658237937e-01 -4.7278587876671700e+00 -3 2 -1
1540 514 1 -8.1999999999999995e-01 -7.5076006913202695e+00 -7.2630434910466555e+00 4.1855679086812287e+00 7 -1 5
1464 488 2 4.0999999999999998e-01 -1.4717240175119773e+01 -4.2603356101314613e+00 -4.1878874931514058e+00 -2 -1 1
2233 745 1 -8.1999999999999995e-01 -8.7047854300202729e+00 -1.2490304140841900e+01 6.4481207487466783e+00 4 3 -2
1066 356 1 -8.1999999999999995e-01 -1.0260563550140523e+01 -1.4168592111346177e+01 1.2101510605734553e+01 -5 2 -2
399 133 2 4.0999999999999998e-01 -7.4638645657167420e+00 -9.9937304335700645e+00 1.4405135544288076e+01 -6 1 -1
2235 745 2 4.0999999999999998e-01 -8.7473298969170230e+00 -1.2910688510864432e+01 7.3544946565931433e+00 4 3 -2
2234 745 2 4.0999999999999998e-01 -9.3976368223194484e+00 -1.1772337119801470e+01 6.3808375646336053e+00 4 3 -2
863 288 2 4.0999999999999998e-01 -9.0127157182122897e+00 -1.3486311832644050e+01 1.3452272653182636e+01 -2 7 -4
1881 627 2 4.0999999999999998e-01 -1.1679860689049708e+01 -8.9049772448886522e+00 6.6768932557518461e+00 0 -1 5
2377 793 1 -8.1999999999999995e-01 -9.8885948683246383e+00 -8.8049481758934114e+00 6.5860759841509342e+00 0 4 3
1178 393 2 4.0999999999999998e-01 -7.8489518464934731e+00 -1.2586208579780410e+01 9.8976898952445396e+00 0 2 8
1177 393 1 -8.1999999999999995e-01 -8.7462943173215422e+00 -1.2805168987122352e+01 9.5144411882268329e+00 0 2 8
1179 393 2 4.0999999999999998e-01 -9.4250320664366551e+00 -1.2159978391186764e+01 9.8652843317655083e+00 0 2 8
1734 578 2 4.0999999999999998e-01 -8.4492161459385784e+00 -1.0050003024810774e+01 1.1942243996456007e+01 -3 2 1
2354 785 2 4.0999999999999998e-01 -1.3026615478745262e+01 -1.3908241369375570e+01 9.3472778291323557e+00 -1 1 0
1063 355 1 -8.1999999999999995e-01 -1.1347471219756809e+01 -1.1325115916000673e+01 1.0301112816393921e+01 -2 -7 3
2223 741 2 4.0999999999999998e-01 -1.3124201200760263e+01 -1.2245036904213865e+01 1.2694632982282396e+01 -2 2 -1
1064 355 2 4.0999999999999998e-01 -1.2024011363209057e+01 -1.1106654999623018e+01 1.1004401528565520e+01 -2 -7 3
949 317 1 -8.1999999999999995e-01 -7.8867002679907534e+00 -1.0092458678868173e+01 8.3829343898409014e+00 2 5 -4
2128 710 1 -8.1999999999999995e-01 -8.9806728145898838e+00 -1.0265665971469545e+01 1.3665442458324456e+01 1 7 1
689 230 2 4.0999999999999998e-01 -1.3547883677282121e+01 -1.1012612304807732e+01 8.1371249746622460e+00 1 1 4
1107 369 2 4.0999999999999998e-01 -8.6636125470064833e+00 -1.4506488512931144e+01 1.1736677013039831e+01 2 0 6
1065 355 2 4.0999999999999998e-01 -1.1813055920033626e+01 -1.1499373193522441e+01 9.4334077756749828e+00 -2 -7 3
1733 578 2 4.0999999999999998e-01 -7.5904119388318128e+00 -8.7989148590287467e+00 1.1338932399563191e+01 -3 2 1
951 317 2 4.0999999999999998e-01 -8.0267055674674008e+00 -9.8487198489200392e+00 9.3426409370052284e+00 2 5 -4
1874 625 2 4.0999999999999998e-01 -1.3325624313838894e+01 -1.4215060949613934e+01 1.1435620087879556e+01 1 -4 3
2221 741 1 -8.1999999999999995e-01 -1.2937971017392504e+01 -1.3212792568665824e+01 1.2864379934784051e+01 -2 2 -1
1320 440 2 4.0999999999999998e-01 -1.0742463080583766e+01 -8.8041945539560800e+00 1.1898137636352963e+01 -5 2 6
464 155 2 4.0999999999999998e-01 -1.2789214211139832e+01 -1.0500915408004168e+01 1.3698386463067621e+01 -1 3 2
1880 627 2 4.0999999999999998e-01 -1.3133024557977111e+01 -9.1398417350340946e+00 7.3839325399825135e+00 0 -1 5
2378 793 2 4.0999999999999998e-01 -9.3133647482137381e+00 -9.2817130306933961e+00 7.2507956733003773e+00 0 4 3
2222 741 2 4.0999999999999998e-01 -1.2060966969594443e+01 -1.3305767218084952e+01 1.3335831237697235e+01 -2 2 -1
465 155 2 4.0999999999999998e-01 -1.3256461201701553e+01 -9.5208245981873780e+00 1.2478610515374779e+01 -1 3 2
2130 710 2 4.0999999999999998e-01 -9.2518220385174601e+00 -1.1225696125644212e+01 1.3595679046329309e+01 1 7 1
1879 627 1 -8.1999999999999995e-01 -1.2623740807191050e+01 -8.5790902329767214e+00 6.7310662063111444e+00 0 -1 5
1068 356 2 4.0999999999999998e-01 -1.0855144469091801e+01 -1.3809515274389407e+01 1.1382077423203942e+01 -5 2 -2
463 155 1 -8.1999999999999995e-01 -1.2975449345500374e+01 -1.0450435024370407e+01 1.2717155119285191e+01 -1 3 2
688 230 1 -8.1999999999999995e-01 -1.3865337127034500e+01 -1.0139356061563598e+01 8.5068459380036678e+00 1 1 4
2353 785 1 -8.1999999999999995e-01 -1.3021417556514120e+01 -1.3223518081928946e+01 8.6184611520967209e+00 -1 1 0
1922 641 2 4.0999999999999998e-01 -8.1108238973313007e+00 -1.4300262092856032e+01 8.6002808493634681e+00 1 2 5
1732 578 1 -8.1999999999999995e-01 -8.0230584025325022e+00 -9.6734355206757030e+00 1.1119666796125834e+01 -3 2 1
864 288 2 4.0999999999999998e-01 -7.5250963637375285e+00 -1.3250402570414275e+01 1.4083213716110752e+01 -2 7 -4
862 288 1 -8.1999999999999995e-01 -8.5023374169671868e+00 -1.3295039010180854e+01 1.4290708956057564e+01 -2 7 -4
690 230 2 4.0999999999999998e-01 -1.4669452282403991e+01 -1.0293109579357226e+01 9.0811328347024443e+00 1 1 4
2355 785 2 4.0999999999999998e-01 -1.3281792835723328e+01 -1.3654420131999091e+01 7.7544155026679853e+00 -1 1 0
757 253 1 -8.1999999999999995e-01 -1.4283285050844079e+01 -7.9414675572315581e+00 1.2245015026322033e+01 -9 4 0
758 253 2 4.0999999999999998e-01 -1.3308979391376694e+01 -7.9603328881749214e+00 1.2020472548056045e+01 -9 4 0
2379 793 2 4.0999999999999998e-01 -9.9596302870595306e+00 -7.8398632877172174e+00 6.8382898179357667e+00 0 4 3
795 265 2 4.0999999999999998e-01 -9.4154979157094623e+00 -9.6893163442203623e+00 5.1072692941980442e+00 -2 -4 -1
1819 607 1 -8.1999999999999995e-01 -1.4635495142036426e+01 -1.2742556783261660e+01 5.3173358514385285e+00 5 -2 -2