2611
Atoms. Timestep: 8000000
O 0.201051 -12.0756 9.31649
H 0.399112 -11.3281 9.9505
H 1.03299 -12.319 8.81784
O -5.55008 -13.7849 -1.04537
H -5.78762 -12.8557 -0.762187
H -4.79951 -14.1245 -0.478501
O -3.08596 -14.3213 0.0939643
H -2.23977 -13.8305 -0.113618
H -3.14388 -14.484 1.07895
O -9.66344 -3.57846 14.2545
H -9.30175 -4.06916 -14.677
H -9.02346 -3.66153 13.4906
O -2.80349 4.4172 -11.4041
H -3.53884 4.27857 -10.7408
H -3.10262 4.10071 -12.3043
O 1.04205 8.43072 -11.8966
H 1.60494 8.00376 -12.6043
H 0.312344 8.96228 -12.3267
O 4.06248 8.58562 -9.55876
H 5.01831 8.39885 -9.78574
H 3.78279 9.44908 -9.97853
O 2.45229 -14.4636 -2.62741
H 3.20657 -14.3684 -3.27703
H 2.68563 -13.9959 -1.77485
O 6.35691 2.62924 9.18522
H 6.08732 1.91037 8.54448
H 5.6816 2.6911 9.92016
O -14.2381 0.81651 5.09478
H -13.85 -0.101945 5.01809
H -13.818 1.29236 5.86752
O 6.7644 -14.2497 -0.930578
H 6.70563 -13.6387 -1.72006
H 7.71091 -14.5493 -0.81067
O -14.4632 -2.01791 6.0505
H 14.3217 -2.31742 6.21796
H -14.0077 -1.84512 6.92382
O 5.43338 11.637 2.68789
H 5.10766 11.3388 1.79067
H 4.67061 11.6423 3.33454
O -12.8864 14.7843 0.419415
H -13.6152 -14.7746 1.08394
H -12.0828 14.4197 0.889792
O 8.89925 1.91555 -10.9064
H 9.76121 2.08101 -10.4272
H 8.31867 2.72686 -10.8378
O -3.84379 -3.16309 -7.23991
H -3.93728 -3.10429 -6.24602
H -3.0766 -2.59449 -7.53675
O -2.47971 10.1187 -8.46408
H -1.4978 9.99844 -8.31772
H -2.71105 9.86 -9.40193
O -14.565 0.902139 -9.40985
H 14.7668 1.27417 -10.251
H -13.7451 0.373512 -9.62988
O -4.37141 6.63536 -14.7369
H -4.82332 6.10298 -14.0211
H -3.55013 6.15353 14.6818
O 3.80214 -10.7002 -11.3622
H 4.0928 -10.7711 -12.3164
H 4.34939 -10.0039 -10.8979
O 14.3313 10.3858 9.47702
H -14.4439 10.6854 9.57557
H 13.7463 11.1801 9.31314
O -9.81744 9.80973 7.57432
H -8.88529 10.107 7.781
H -10.1434 9.20518 8.30116
O 6.96336 2.95554 13.1866
H 7.61391 2.36685 13.6664
H 6.33215 3.36243 13.8469
O -6.60239 12.7387 2.54219
H -5.65046 12.7916 2.24045
H -6.70454 11.986 3.19264
O -8.35724 2.87235 -4.70887
H -8.84564 2.02772 -4.9281
H -8.60031 3.16772 -3.78492
O 9.88634 -3.56708 4.16017
H 10.4655 -2.76979 4.33018
H 9.02761 -3.27199 3.74121
O 6.59705 -1.52064 -14.1917
H 7.33749 -1.14558 -13.634
H 5.77658 -0.960622 -14.0767
O -1.96592 6.88609 6.35765
H -2.49283 6.61526 5.55203
H -1.22773 7.50164 6.08165
O 6.8488 9.60454 12.7546
H 6.89527 9.65817 13.7521
H 7.77512 9.5852 12.3783
O -14.1324 -7.39535 -6.5097
H -14.6292 -7.34179 -5.64348
H -13.5263 -8.19058 -6.49766
O 5.37423 -12.119 -7.98884
H 5.39159 -12.9095 -8.60113
H 5.93652 -12.3085 -7.1839
O 12.6022 -9.95016 -3.86003
H 11.9666 -10.4749 -4.42627
H 12.4522 -10.1727 -2.89672
O 7.79258 10.3094 -0.721097
H 6.85271 10.0487 -0.500415
H 8.42717 9.68155 -0.270389
O -14.5963 -6.11136 13.4667
H -13.6611 -6.3555 13.2104
H 14.6413 -6.93009 13.7716
O 1.23446 7.63152 -1.22923
H 1.80258 7.32524 -1.99306
H 0.457127 8.15352 -1.58034
O 14.0776 -10.1929 -7.68153
H -14.8034 -10.7143 -7.55087
H 14.1319 -9.33685 -7.16747
O -5.49715 -13.35 10.8584
H -5.20224 -13.5224 11.7982
H -6.49415 -13.4073 10.8061
O -9.14697 4.62548 9.47284
H -8.17203 4.83067 9.38686
H -9.26273 3.6852 9.79297
O 2.99704 13.1096 14.3739
H 3.58005 12.5148 13.8205
H 2.89648 13.9946 13.9192
O -0.951685 0.729201 8.69861
H -0.335706 1.39531 9.11917
H -0.436664 -0.0917304 8.45197
O -3.32747 -13.4591 -10.7521
H -3.71401 -13.3085 -11.662
H -4.01045 -13.898 -10.1683
O -12.4338 -2.39505 4.17506
H -13.234 -2.4664 4.7706
H -12.718 -2.49538 3.22155
O 14.2042 6.96246 -3.46601
H 14.0256 7.65858 -4.16138
H 14.6919 7.37649 -2.69744
O 11.5084 14.061 11.7581
H 10.7538 14.6881 11.5649
H 11.9017 14.278 12.6516
O 2.81137 -11.2499 -4.87992
H 3.26555 -12.0964 -5.15778
H 3.4485 -10.4845 -4.97066
O -0.015182 -2.87362 11.5233
H -0.770135 -2.48885 10.9922
H -0.375813 -3.52169 12.1941
O -1.08752 2.2008 -4.20093
H -0.500552 2.99437 -4.04059
H -0.584003 1.51436 -4.72561
O 6.99559 -14.3459 11.1487
H 6.25752 -14.7564 10.6133
H 6.80177 -13.3757 11.2946
O -10.1704 -1.01653 -14.7682
H -10.0054 -1.98276 14.758
H -10.7165 -0.614267 14.2211
O 14.1489 -12.4104 -0.0717507
H 14.6872 -12.7516 -0.842434
H 14.7632 -12.0496 0.630043
O 0.226418 4.92867 -4.05503
H 0.126837 5.91467 -4.18882
H -0.168554 4.67036 -3.1734
O -9.33851 9.98941 -8.35466
H -8.84249 9.76151 -7.51678
H -9.43932 9.1681 -8.91618
O 1.78483 11.7301 11.192
H 2.4586 11.5328 11.9041
H 1.19623 12.4819 11.4891
O -5.02593 0.208826 -6.61276
H -5.07431 1.13041 -6.99791
H -4.12346 0.0640817 -6.20705
O 9.17652 14.2751 -0.403884
H 8.62013 13.998 0.379468
H 10.0973 13.8968 -0.309174
O 1.85575 -14.0414 -13.685
H 1.74868 -13.9077 -14.6702
H 1.17856 -14.7029 -13.3628
O 5.36631 11.691 -10.0662
H 5.34345 11.9822 -9.10985
H 4.43164 11.6098 -10.4124
O -3.46841 -12.4664 6.52237
H -3.97568 -13.0201 7.18275
H -2.98488 -11.7346 7.00265
O 5.03183 8.9612 -14.4192
H 5.71274 9.69328 -14.4398
H 4.52315 8.95484 14.444
O 7.77855 4.53893 7.74089
H 7.20272 4.49275 6.92462
H 7.38495 3.96542 8.45934
O 3.06801 11.7933 3.96875
H 2.66952 10.9789 3.54695
H 2.69931 12.6115 3.52754
O 3.57246 8.0957 8.85015
H 4.21891 8.10758 9.61301
H 4.03136 8.41091 8.01944
O -4.86315 -6.83406 -1.80717
H -5.83105 -6.94691 -1.58258
H -4.72604 -6.99994 -2.78374
O 7.31397 11.4573 10.0567
H 7.11951 11.8579 10.9521
H 7.95286 12.045 9.56027
O -12.6943 -6.61779 -10.6505
H -13.3458 -7.34933 -10.4493
H -13.0769 -6.0139 -11.3498
O -13.8969 2.14958 7.68457
H -13.2074 2.75948 7.29398
H -13.5671 1.78881 8.55694
O -5.00629 -10.9264 -8.17343
H -5.92842 -10.6094 -7.95164
H -4.42488 -10.1401 -8.38274
O -7.68669 -9.29158 13.1081
H -8.20269 -8.72109 13.7471
H -8.31813 -9.87552 12.5979
O 3.57554 3.92 -1.8418
H 4.1101 3.10425 -2.06271
H 3.83233 4.66394 -2.45874
O 14.2969 -12.8802 5.13912
H 14.6253 -11.9857 4.8358
H -14.6467 -13.4628 5.36533
O 4.96055 2.92591 11.2565
H 5.86609 3.07824 11.6525
H 4.27641 3.42694 11.7866
O 10.208 11.2864 -5.81277
H 10.4576 12.1742 -5.42606
H 11.0015 10.6782 -5.79071
O -3.81765 -3.89646 10.1939
H -3.71015 -3.09038 9.61192
H -3.49905 -3.68532 11.1179
O -7.24816 -5.37633 5.60064
H -6.38942 -5.80804 5.87669
H -7.11581 -4.38783 5.52737
O -5.61825 9.56906 -11.1197
H -5.56427 10.5085 -10.7814
H -5.77455 8.94697 -10.3525
O -2.177 -3.95478 -2.45962
H -1.84274 -4.88628 -2.60304
H -2.85194 -3.95275 -1.72175
O -5.46438 10.8821 -0.321835
H -6.05022 11.1556 -1.08472
H -5.43228 9.88407 -0.267379
O -11.3111 -3.39213 8.58107
H -11.3742 -3.89817 9.44128
H -10.6251 -3.81981 7.99235
O 12.0902 -1.10845 2.04733
H 12.9715 -0.638745 2.09839
H 11.3702 -0.504201 2.38865
O -7.24774 5.3744 12.4053
H -6.29222 5.6415 12.2803
H -7.83311 5.95617 11.8406
O 0.636785 3.94689 5.4415
H 0.00130454 4.0322 6.2089
H 0.543495 4.74149 4.84157
O 4.97203 4.97118 -4.99696
H 5.28402 5.31391 -4.11084
H 4.41312 5.66833 -5.44597
O 6.73557 12.8462 12.749
H 6.97567 13.7926 12.9649
H 7.55884 12.2791 12.7753
O -2.1308 -0.657992 -11.8914
H -2.97672 -1.11509 -11.6166
H -2.10564 0.261063 -11.498
O 0.51365 5.68082 3.11802
H 0.394064 6.627 3.41876
H 1.00464 5.66746 2.24695
O 0.420785 13.2207 0.499791
H 0.224188 12.6881 -0.323434
H -0.368361 13.1897 1.11322
O 3.21745 13.097 -12.3996
H 3.97897 13.7318 -12.2688
H 3.02599 13.0028 -13.3766
O -12.9898 0.0414927 -13.4626
H -13.5634 -0.777664 -13.4657
H -12.0279 -0.224911 -13.5238
O 8.87572 -11.8729 9.87899
H 8.57332 -11.7402 8.93509
H 8.12036 -11.6711 10.5025
O 7.24943 5.16654 -6.97019
H 6.76192 5.25891 -6.10197
H 6.88723 4.38236 -7.47405
O 11.0141 -5.92204 9.57238
H 11.8074 -5.54745 10.0523
H 11.1121 -6.9138 9.48988
O 8.92875 -4.62925 -8.65266
H 9.78349 -4.24247 -8.9988
H 8.8077 -4.36679 -7.69534
O 14.4636 -4.0546 -10.5426
H 14.6966 -3.59522 -11.3998
H 14.3536 -3.37359 -9.81866
O -11.1608 7.32102 6.53291
H -12.0445 7.31938 6.06491
H -10.8141 8.25743 6.58713
O -3.64588 14.2399 9.84218
H -3.78815 -14.6508 10.3761
H -2.96985 14.4141 9.12619
O 0.40771 -1.50307 8.91745
H -0.037797 -2.3921 8.81185
H 0.998619 -1.52007 9.72402
O -0.93353 9.31781 -2.43371
H -0.874109 8.45184 -2.93028
H -1.88174 9.63545 -2.42986
O -0.19885 -5.9859 10.7091
H -0.876124 -6.47586 11.258
H 0.666426 -5.94226 11.2085
O -10.1503 -9.0502 -1.63832
H -9.3659 -8.61329 -1.1981
H -10.767 -9.41089 -0.9386
O 8.39393 4.43001 -13.0443
H 7.7688 5.21048 -13.0352
H 9.11685 4.58981 -13.7165
O -8.00785 -13.3482 -14.7758
H -7.45031 -13.6076 -13.9873
H -7.55277 -12.6131 14.4458
O -13.4698 5.34675 -0.44357
H -14.4546 5.17368 -0.462478
H -12.9897 4.51129 -0.176285
O -1.68129 -6.75593 -1.67076
H -2.62781 -6.8723 -1.36981
H -1.56503 -7.17092 -2.57313
O -4.84435 -6.35978 9.67869
H -4.61344 -5.40227 9.85151
H -4.01565 -6.91707 9.73045
O -7.92977 -5.44635 -8.04417
H -8.65967 -5.54478 -7.36773
H -8.18933 -5.9198 -8.88588
O -13.5649 5.7268 5.56761
H -13.0346 5.07733 6.11256
H -13.7361 5.33992 4.66151
O -14.6489 12.315 -1.59623
H 14.4401 12.9907 -1.22211
H -13.9552 12.0942 -0.910601
O 13.7406 6.88443 12.8371
H 13.33 7.69218 12.4141
H 13.8737 6.17628 12.1436
O 7.43331 9.89283 -14.0553
H 8.41987 10.0559 -14.0662
H 7.07159 10.0978 -13.1459
O -7.95421 -1.7218 -3.48616
H -8.65177 -2.36741 -3.79697
H -7.27498 -1.59168 -4.20847
O 4.104 -6.13242 9.37328
H 3.36115 -5.50206 9.59872
H 4.92274 -5.88094 9.88944
O -14.6683 -5.84153 -2.46306
H -13.7966 -6.32454 -2.38076
H 14.5277 -5.96134 -1.62237
O 12.4036 -5.04258 -3.0707
H 12.0093 -4.21863 -3.47767
H 13.4012 -4.97442 -3.08029
O 5.79332 -9.40667 -7.75486
H 6.77437 -9.23041 -7.83538
H 5.63796 -10.3901 -7.66084
O 5.36566 2.83998 5.25729
H 4.36916 2.8366 5.1737
H 5.63572 2.28979 6.04745
O 5.1803 9.21303 -0.993236
H 5.66522 9.3422 -1.8582
H 4.23663 9.52959 -1.08966
O 10.8 -0.985153 5.69719
H 9.85074 -0.680933 5.77705
H 11.4094 -0.19442 5.75508
O 9.10717 -0.428184 -2.21857
H 9.96673 -0.556266 -1.72384
H 8.68659 -1.31869 -2.39212
O -7.38715 8.88646 -3.62069
H -8.07301 8.29045 -4.03827
H -6.60008 8.96835 -4.23211
O -9.27814 5.87989 -2.59987
H -9.25524 6.67565 -1.99469
H -8.49272 5.29174 -2.40701
O 13.476 -3.97886 3.54195
H 13.3666 -3.71279 4.49967
H 12.8853 -3.41105 2.96868
O 4.50121 -13.6718 3.31999
H 3.53462 -13.4154 3.31988
H 4.65478 -14.3927 3.99574
O 2.76905 2.5294 4.26493
H 2.60157 2.18126 3.34257
H 1.91948 2.89935 4.64094
O -13.3061 -14.2935 6.79863
H -13.4452 -14.837 7.62648
H -12.6621 -14.764 6.19538
O 5.12814 -5.24352 -1.86145
H 4.58745 -6.05586 -2.07999
H 5.90879 -5.50545 -1.29401
O -10.3628 11.4712 -4.71859
H -11.0449 12.1729 -4.51284
H -9.52659 11.9067 -5.05194
O 14.8006 -11.5311 -4.82778
H -14.3599 -11.1859 -4.07734
H 13.9366 -11.0283 -4.85427
O -6.36716 -11.0764 -0.475728
H -7.12392 -10.8924 -1.10299
H -5.51787 -10.7188 -0.864072
O -1.44923 -9.8275 3.06948
H -2.34252 -9.9074 2.62715
H -1.12673 -10.7358 3.33579
O -0.973089 -3.80293 9.04252
H -1.96938 -3.71689 9.04337
H -0.701374 -4.53667 9.66527
O -1.60907 3.36631 11.7342
H -1.00154 2.87018 12.3545
H -1.1021 4.10635 11.2923
O -13.9395 -13.2108 -2.30477
H -13.2088 -13.3615 -1.6389
H -13.7845 -12.3443 -2.77924
O 9.60142 11.2223 3.19336
H 9.28127 11.9898 3.74871
H 10.5205 11.4186 2.85171
O 11.9536 -2.74338 -13.37
H 12.609 -2.0611 -13.0461
H 12.4311 -3.6021 -13.5563
O 7.53935 0.0235214 -4.46087
H 8.12998 -0.110124 -3.66506
H 7.06078 0.89763 -4.37773
O -9.18615 0.17547 -1.57913
H -10.1704 0.00239812 -1.54402
H -8.79575 -0.281098 -2.37859
O 1.10065 13.5456 -9.34388
H 1.85783 13.1982 -9.89705
H 0.247474 13.4665 -9.85948
O -7.83853 -5.69593 -11.5258
H -7.44405 -6.42972 -10.9727
H -8.72357 -5.42965 -11.1439
O -4.37442 8.6353 4.04015
H -4.10412 8.99775 3.1482
H -3.95409 7.73826 4.1767
O -5.13316 -0.0450269 0.836685
H -6.11963 0.0164454 0.988672
H -4.95004 -0.102118 -0.14475
O -6.23249 -1.88022 -5.66909
H -5.70933 -1.22631 -6.21562
H -5.63269 -2.62469 -5.3758
O 1.66029 7.50619 -9.19311
H 2.5318 7.99657 -9.19078
H 1.24322 7.57199 -10.0996
O -11.7118 -14.6727 14.8378
H -12.692 -14.5342 14.6961
H -11.526 14.0755 -14.7728
O -3.75737 10.663 -2.55017
H -4.2034 10.7208 -1.65701
H -3.39213 11.5601 -2.79898
O -9.23196 9.63343 13.4479
H -9.56764 10.5379 13.1846
H -8.25344 9.68608 13.6472
O -3.60906 -1.07315 -2.14242
H -2.74 -1.54965 -2.27544
H -3.4418 -0.0903052 -2.06465
O 12.9638 2.86273 -13.0567
H 12.7014 3.24996 -12.1729
H 13.6771 3.42869 -13.47
O 0.454162 -8.05565 8.92352
H 0.317144 -7.16184 9.35053
H -0.425662 -8.41458 8.61194
O 2.72711 5.66022 9.42046
H 3.03826 6.58141 9.1868
H 2.64194 5.11554 8.58614
O 2.64416 11.3013 -2.31873
H 2.73253 12.1154 -2.8927
H 1.68911 11.1889 -2.04436
O -12.4355 -11.0986 6.11859
H -12.8306 -11.8775 6.60558
H -12.0493 -10.454 6.77845
O -12.6261 8.29154 -6.53816
H -12.8089 7.80366 -7.39172
H -11.9408 9.0015 -6.70023
O 11.4712 -3.53444 -9.10245
H 12.2502 -3.84931 -8.56013
H 11.0413 -2.75488 -8.64695
O 6.20386 -11.7078 3.26023
H 5.62731 -12.522 3.32837
H 6.45045 -11.5531 2.30353
O 0.566707 1.82393 -7.27297
H 0.415757 1.71682 -8.2557
H 1.47285 2.21663 -7.11579
O -9.39368 4.92145 5.91104
H -9.76954 5.84371 5.82063
H -9.48106 4.43899 5.03949
O -7.16047 -9.43967 -7.31101
H -8.08669 -9.17915 -7.58348
H -7.18065 -9.82668 -6.38914
O -5.66133 3.45668 -4.68951
H -6.55146 3.00221 -4.72316
H -5.28319 3.51786 -5.61324
O 13.7912 -4.79619 10.8154
H 14.6626 -5.22788 10.5822
H 13.3922 -5.25758 11.6079
O 13.4223 -7.24553 7.2516
H 12.617 -7.50496 7.78469
H 13.7555 -6.3555 7.5628
O 10.4731 -10.0131 -13.6478
H 9.82884 -10.7609 -13.8085
H 11.3724 -10.3899 -13.426
O -3.59857 -11.0424 -4.20119
H -2.96708 -11.6606 -4.66921
H -3.32167 -10.0957 -4.36586
O 0.330334 9.67624 10.3344
H 0.709111 9.18182 9.55205
H 0.749719 10.5823 10.3909
O 3.67049 0.0283116 10.1213
H 2.93063 -0.0137036 10.7927
H 4.27427 0.795394 10.3381
O -13.8704 7.29431 -14.2147
H -13.7078 7.85477 14.6975
H -14.85 7.27394 -14.0145
O -4.17128 -3.30255 7.23772
H -4.80452 -4.07555 7.27624
H -3.87023 -3.16501 6.29408
O -2.85106 -14.7488 -7.72655
H -2.07629 14.6651 -7.17569
H -3.62296 -14.5375 -7.12695
O -12.9275 -14.4328 9.59719
H -13.446 -14.4847 10.4506
H -12.7897 -13.474 9.3487
O -12.9649 -10.6429 -2.88835
H -13.3731 -9.8216 -2.48985
H -12.326 -11.0484 -2.2346
O 6.54996 10.749 5.15094
H 6.15983 10.7574 4.23021
H 7.2849 11.4248 5.20769
O -8.10056 -7.80884 3.69659
H -8.54223 -8.67479 3.93127
H -7.76104 -7.37143 4.5293
O 4.17807 11.434 12.7901
H 5.10847 11.6601 12.5016
H 4.13261 10.4672 13.0413
O 6.01635 -0.945803 -10.8571
H 5.68422 -0.51271 -11.6951
H 5.65251 -1.87523 -10.7955
O -14.3728 2.91102 -5.53824
H -14.3897 3.36836 -4.6491
H -13.5875 3.23597 -6.06533
O 0.0841501 13.3852 7.95667
H 0.895614 13.0597 7.47128
H -0.631221 12.6877 7.91513
O 10.4973 6.64868 -13.3688
H 10.2143 6.40895 -12.4401
H 9.69154 6.88239 -13.913
O 10.0959 -8.11091 -11.5999
H 10.1222 -8.62252 -12.4587
H 10.5718 -8.62856 -10.8888
O 3.84453 11.785 0.163043
H 4.03207 12.736 0.408729
H 3.56467 11.7374 -0.795823
O -11.9672 4.1466 -6.05571
H -11.1574 4.5197 -6.50852
H -11.8033 4.09289 -5.0707
O 4.08775 -2.64508 13.2116
H 3.60474 -2.84741 14.0635
H 4.56791 -1.77234 13.2998
O 13.6527 -1.52696 -8.78722
H 14.2727 -0.751567 -8.90748
H 12.714 -1.23472 -8.97013
O 8.04413 13.0633 6.71074
H 8.44071 12.1479 6.64196
H 8.06806 13.3662 7.66347
O -13.1954 7.99871 9.81724
H -13.1486 7.75513 10.786
H -12.288 8.2718 9.49795
O 1.91015 -6.18069 3.50462
H 2.39819 -5.54246 4.09999
H 1.56277 -6.94462 4.04845
O 9.64002 -8.61778 12.2488
H 9.2326 -8.02834 11.5513
H 9.90637 -8.06485 13.0384
O 12.8462 -2.51401 11.4971
H 13.2611 -3.34377 11.1238
H 12.2802 -2.75062 12.2868
O -14.426 -5.04639 7.24146
H -14.264 -4.06598 7.35363
H -14.4452 -5.27175 6.26737
O -0.140043 13.7658 -6.79261
H 0.29037 13.5962 -7.67917
H 0.563209 13.9912 -6.11835
O 8.39058 8.84094 2.51454
H 8.83648 9.68611 2.80925
H 7.92471 8.4208 3.29329
O 3.47396 7.09295 -5.77295
H 2.73932 6.5757 -6.212
H 3.13449 7.49948 -4.92471
O 3.64341 7.15765 2.86754
H 4.44413 7.67089 2.55861
H 3.48941 6.3809 2.25684
O -11.0507 -12.1002 -1.65675
H -10.0921 -11.9291 -1.88427
H -11.1479 -12.1848 -0.665086
O 6.29303 -0.963829 2.2446
H 5.37824 -0.802349 2.61486
H 6.26813 -0.884096 1.24809
O 0.679525 2.43541 13.5665
H 1.43632 3.02288 13.8531
H 0.49241 1.76074 14.2806
O -12.1022 -5.54086 -14.2637
H -12.2394 -4.62527 -13.8856
H -12.3755 -5.54869 14.4986
O 5.18786 -8.6406 -10.313
H 5.9587 -8.02927 -10.4922
H 5.30524 -9.07163 -9.41836
O -4.2723 -2.49097 -11.0212
H -4.09536 -3.43612 -10.7466
H -5.12232 -2.17501 -10.5997
O 7.78813 -8.84953 8.64518
H 7.71031 -9.81064 8.3802
H 7.10215 -8.31198 8.15478
O -11.1092 7.87355 12.7116
H -10.32 8.37287 13.0691
H -11.0828 6.9293 13.0397
O -12.0972 12.769 -13.448
H -12.6581 12.0894 -13.9209
H -11.6643 12.3477 -12.6511
O 11.087 -9.30578 4.46195
H 10.3558 -8.65232 4.26623
H 11.9227 -9.02141 3.99214
O 2.15971 14.0112 2.74953
H 1.81497 13.633 1.89039
H 1.7009 -14.845 2.9395
O -13.9722 4.72538 -7.80744
H -13.6851 5.536 -8.31782
H -13.2217 4.41624 -7.22324
O 2.41743 4.40278 7.27265
H 2.79535 3.47785 7.2315
H 1.78832 4.54013 6.50756
O 4.71509 -5.53329 13.086
H 4.56512 -4.61573 13.4542
H 5.29567 -5.47573 12.2738
O 11.6682 -12.5427 6.83853
H 10.9937 -11.8568 6.56551
H 12.5568 -12.3128 6.44153
O -8.78353 -1.49064 -6.78055
H -8.85476 -1.87279 -7.7019
H -7.82075 -1.43635 -6.51574
O 7.56775 -10.1736 5.06063
H 7.37542 -10.8123 4.31558
H 7.9865 -9.34482 4.68945
O 4.44563 3.16849 14.8467
H 3.67645 2.61409 -14.5597
H 4.10619 4.04502 14.5054
O 4.45278 -13.1967 12.8289
H 4.50026 -14.0866 12.3753
H 4.99837 -12.5325 12.3178
O -14.6358 14.044 -10.5783
H -14.2237 13.1657 -10.3358
H -13.9418 14.636 -10.988
O 5.69937 5.6937 -10.6919
H 5.82631 6.01798 -11.6293
H 6.39735 6.09911 -10.1016
O -4.92746 1.741 -9.2083
H -5.67916 1.08153 -9.20084
H -4.19368 1.40335 -9.79785
O 12.6821 10.8865 -3.05026
H 13.569 11.2935 -2.83158
H 12.2478 10.5622 -2.20986
O 1.58544 -14.2369 7.87346
H 2.00874 -14.4495 6.99275
H 0.960054 14.7501 8.12927
O -4.20071 -11.5696 9.26304
H -4.73465 -12.2205 9.80262
H -4.79988 -11.1088 8.60827
O -11.6413 3.33049 -13.6065
H -12.3758 3.22217 -12.9366
H -11.9199 2.92157 -14.4755
O 0.495807 -11.8285 -6.41515
H 0.814538 -12.5135 -7.07034
H 1.25768 -11.544 -5.83328
O 13.9534 -6.87992 -0.26197
H 14.0649 -6.23142 0.491044
H 13.1709 -7.47435 -0.0768686
O 8.18999 -2.90382 -2.38193
H 7.64663 -3.70772 -2.62381
H 8.81707 -3.1367 -1.63859
O 2.01091 -5.51243 12.1675
H 2.99584 -5.63527 12.2893
H 1.55655 -5.56018 13.057
O -3.747 -6.24719 12.737
H -4.45261 -6.94932 12.6413
H -2.84733 -6.65559 12.5827
O -14.8269 -14.1839 2.464
H 13.9545 -13.8858 2.61328
H -14.5776 -14.8605 3.1569
O -4.99069 -13.4923 -6.44161
H -5.39807 -13.2684 -5.55622
H -4.84199 -12.6515 -6.96225
O -10.5894 2.51464 1.63162
H -9.59361 2.4337 1.58877
H -10.9152 2.16079 2.50836
O -3.27928 -10.8185 -1.20119
H -2.34501 -10.4918 -1.05829
H -3.37787 -11.1457 -2.14097
O -5.95091 4.48129 8.64336
H -5.04627 4.20373 8.96676
H -5.97384 5.4745 8.52927
O 13.8076 3.87452 -9.91602
H 13.8436 4.58069 -10.6232
H 14.4312 4.11542 -9.17232
O -4.80575 -13.8803 13.4309
H -4.86492 -14.8422 13.6981
H -5.41552 -13.3362 14.0072
O -2.39551 1.64018 -10.6268
H -1.52004 1.48962 -10.1675
H -2.49275 2.61028 -10.8492
O 1.51995 -2.40621 -7.33612
H 1.49959 -2.06699 -6.39563
H 2.43256 -2.75843 -7.54373
O 8.93387 -10.8842 -4.40542
H 9.39566 -10.0189 -4.21026
H 9.60753 -11.563 -4.69755
O -14.6308 7.80756 7.04014
H -14.2039 7.58255 7.91597
H -14.1596 7.32061 6.30474
O 1.03231 -7.82021 -7.5807
H 1.54453 -8.43374 -8.18171
H 1.66288 -7.36932 -6.94897
O 12.535 11.2924 13.4066
H 12.8575 10.4023 13.0845
H 13.0487 12.0184 12.9494
O 13.9399 1.25997 -6.93542
H 14.4511 1.78055 -6.25153
H 14.4009 1.32927 -7.82012
O 13.353 -14.4251 -3.80807
H 14.0783 -13.766 -4.00671
H 13.3595 -14.6439 -2.83232
O 1.95676 -9.20799 6.73697
H 1.63975 -8.61475 7.47696
H 2.95535 -9.17993 6.69185
O -1.96261 12.5276 14.2107
H -0.965268 12.4612 14.1808
H -2.34771 12.1397 13.3732
O -12.4844 12.6213 8.30704
H -12.744 13.4076 8.86771
H -11.8459 12.9155 7.59581
O -4.74187 13.2782 14.3026
H -3.75898 13.1106 14.3791
H -5.11331 12.7425 13.5442
O 8.6867 2.31018 10.4637
H 9.43472 1.82899 10.0066
H 7.92671 2.42851 9.82463
O 4.31529 -2.49928 -8.1059
H 4.95146 -3.19065 -8.44839
H 4.78238 -1.91701 -7.44047
O 12.533 -3.87833 0.215012
H 12.1287 -4.68098 -0.223528
H 13.517 -4.01874 0.324939
O 9.26805 6.73766 8.2814
H 8.63068 5.96938 8.34066
H 9.62602 6.80269 7.34994
O -3.27438 -8.8824 -8.39207
H -2.49365 -9.27416 -7.90526
H -3.60004 -8.07311 -7.90318
O -5.40624 8.7762 10.9026
H -4.79955 9.25398 10.2672
H -4.98785 7.90981 11.1752
O 6.60641 -12.2724 -2.85681
H 6.19748 -11.438 -3.22626
H 7.52182 -12.3933 -3.24078
O 13.9729 -12.7807 -13.2027
H 13.2516 -13.1825 -12.6385
H 14.0799 -11.8144 -12.9686
O -8.16047 -13.631 11.2399
H -8.42561 -12.6705 11.3255
H -8.76397 -14.1948 11.8037
O -13.0156 2.11592 14.0713
H -13.1922 1.17275 14.3527
H -13.3587 2.2564 13.1425
O 6.48677 2.62984 -13.3266
H 7.21185 3.29251 -13.514
H 5.63133 2.94705 -13.736
O -10.3058 11.8641 -10.9933
H -9.81087 12.7129 -11.1793
H -10.3207 11.6961 -10.0076
O 12.9432 9.13861 11.2436
H 12.0798 8.90892 10.7946
H 13.4918 9.71384 10.6368
O -5.7243 -4.30737 14.1352
H -5.09857 -3.88912 14.7937
H -5.23082 -4.98583 13.591
O -0.0168204 -2.07645 -10.2106
H -0.822265 -1.7877 -10.7282
H -0.302638 -2.43537 -9.3221
O 8.71234 -9.38081 -7.5424
H 9.1507 -8.49414 -7.39519
H 9.32302 -9.97098 -8.07038
O 1.2018 -1.76274 14.0513
H 1.46254 -2.18739 13.1843
H 1.88855 -1.97533 14.7464
O 7.82449 -12.6146 -6.20232
H 8.67366 -13.0073 -6.55541
H 8.03704 -11.952 -5.48414
O -0.16688 11.7309 -1.97602
H -0.489728 10.7864 -2.03729
H -0.366269 12.2075 -2.83222
O -6.43315 9.76453 13.1272
H -5.99722 9.31723 13.9081
H -6.09162 9.36074 12.2785
O -8.06599 13.617 -11.7495
H -7.81436 12.8543 -12.3453
H -7.2591 14.1796 -11.5695
O -8.92133 13.5402 14.7172
H -8.33109 12.9616 -14.4441
H -8.64593 14.4961 14.8188
O -13.9473 -1.9148 1.92634
H -14.1826 -1.1921 1.27647
H -14.233 -2.79974 1.55859
O -11.3582 14.7393 -8.52174
H -10.6556 14.0637 -8.29847
H -10.9217 -14.1361 -8.82009
O 7.53457 -5.32067 7.86126
H 6.80036 -5.99851 7.89965
H 8.09031 -5.47714 7.04476
O -14.3107 11.0224 -13.6339
H 14.4724 11.1545 -13.3225
H -13.8943 10.2684 -13.1258
O -11.28 11.1793 -0.533731
H -10.7394 10.9032 0.260902
H -11.2004 10.4847 -1.24872
O -12.0778 7.40599 -4.03398
H -11.7031 6.5122 -3.78746
H -12.118 7.48737 -5.02985
O -4.17753 -7.72071 -10.6725
H -4.77932 -8.42893 -11.0416
H -3.69891 -8.07542 -9.86928
O -10.3333 -0.972318 -11.8767
H -10.2006 -0.894911 -12.8648
H -9.76947 -0.290728 -11.4102
O 2.98968 -7.90192 -12.2884
H 3.85707 -7.95039 -11.7931
H 2.61322 -8.82252 -12.3922
O -13.7015 -8.7005 -13.9266
H -12.7375 -8.44611 -13.8499
H -13.8494 -9.19153 -14.7851
O 4.95814 -14.2758 -9.6456
H 5.36733 -14.7595 -10.4193
H 4.08785 -13.8719 -9.92754
O 7.33096 13.4851 1.77526
H 6.45098 13.0345 1.92562
H 7.93721 13.2989 2.54841
O 6.38297 -7.59214 -13.1973
H 7.2152 -7.15128 -13.5335
H 6.34784 -8.53486 -13.529
O -11.5235 -8.35346 7.16723
H -11.5437 -7.71317 7.9351
H -12.3761 -8.28034 6.64976
O 5.86738 10.162 -3.55132
H 6.4955 9.71889 -4.19093
H 5.53224 11.0154 -3.95058
O -8.34648 -11.6211 -2.43393
H -8.84319 -11.0154 -3.05557
H -7.71705 -12.194 -2.95888
O -6.19047 7.17612 7.8635
H -6.23657 6.92295 6.89717
H -6.74694 7.99188 8.02125
O -1.9388 3.88245 3.3294
H -1.07569 4.36996 3.19755
H -1.78797 3.09238 3.92357
O 4.93165 0.431493 -13.0945
H 5.612 1.1613 -13.1617
H 4.01583 0.831654 -13.0607
O 14.6578 -6.23414 2.67583
H -14.3124 -6.44647 3.29753
H 14.3446 -5.29862 2.8391
O 1.25318 4.36937 -13.2126
H 1.92063 4.70691 -12.5488
H 0.922147 5.13126 -13.7693
O -5.90991 -6.61022 -6.71077
H -6.67342 -6.11484 -7.1251
H -5.12372 -6.58788 -7.32836
O 12.6052 1.60009 -1.67774
H 13.356 0.960443 -1.51312
H 12.1209 1.33791 -2.51246
O -6.58075 12.4904 12.428
H -7.48515 12.907 12.5204
H -6.61764 11.541 12.7398
O -7.88109 14.407 -2.06774
H -7.09613 -14.8472 -1.66401
H -7.74687 13.4181 -2.00322
O -3.41884 0.694509 -14.7042
H -2.8956 0.312123 -13.9427
H -3.21661 0.181459 14.1857
O -8.99654 7.4984 -10.484
H -8.09191 7.49066 -10.0578
H -9.28226 6.55966 -10.6766
O 0.548232 8.42264 12.7624
H 0.505222 9.0148 11.9577
H 0.0955801 8.87283 13.5321
O -8.13665 4.91875 -13.6278
H -8.24835 4.22814 -14.3424
H -8.26213 5.82928 -14.0218
O -6.11351 10.7365 5.21271
H -5.79565 9.79124 5.28693
H -6.98536 10.7575 4.72338
O -8.44582 -5.84264 -3.81645
H -8.90153 -4.96696 -3.97624
H -7.49717 -5.7864 -4.12776
O 2.98891 2.54891 -10.0499
H 2.91843 2.38814 -9.06539
H 3.95115 2.64814 -10.3033
O 2.81415 -12.7399 -0.209832
H 3.41638 -13.5059 0.0149545
H 2.8009 -12.0918 0.551579
O -0.0987051 -8.76303 -3.57456
H 0.494732 -8.1645 -4.11271
H 0.438235 -9.20771 -2.85765
O -7.67369 -11.3926 8.54801
H -7.87643 -12.0531 7.8251
H -6.94173 -10.7819 8.24582
O 10.2335 -7.59856 14.6457
H 10.1395 -8.49022 -14.6357
H 9.48428 -7.00243 -14.79
O 8.45324 14.2771 9.17855
H 8.2679 14.7401 10.0453
H 8.78817 -14.7825 8.51058
O 3.37369 12.0947 9.07578
H 3.04014 11.9912 10.0128
H 2.81678 11.537 8.46027
O -7.95119 -4.24553 12.2481
H -7.23012 -4.72017 12.7529
H -7.53868 -3.59838 11.607
O 7.91875 6.91345 -8.9919
H 8.48307 7.70497 -8.75729
H 7.84117 6.31197 -8.19679
O -14.2668 -2.87679 -2.27263
H -14.1167 -3.49936 -3.04067
H 14.569 -2.42917 -2.37514
O 11.301 0.429248 -6.35152
H 11.0187 0.748886 -5.44702
H 12.2571 0.676388 -6.50891
O -10.9601 -7.60104 -12.8677
H -11.2982 -7.51035 -11.9309
H -11.1998 -6.78228 -13.3893
O -1.46872 14.0203 -10.4449
H -1.77324 14.7196 -9.79816
H -2.2215 13.3892 -10.6324
O 9.41745 6.86842 5.49161
H 8.52182 7.19171 5.18611
H 10.1216 7.51867 5.20641
O -10.5657 10.9344 5.22194
H -10.4329 10.5396 6.13105
H -10.84 11.8919 5.31121
O -8.26339 3.08087 13.9781
H -7.79865 3.82847 13.5037
H -9.1422 2.90086 13.5362
O 1.97405 6.05584 0.780574
H 2.7366 5.43859 0.586856
H 1.99445 6.82246 0.138789
O 1.69231 -13.1753 13.4853
H 1.07205 -13.2589 12.7054
H 2.62808 -13.0513 13.1552
O 9.7714 10.759 6.99378
H 10.3749 9.97069 6.87382
H 10.3183 11.5956 7.02563
O 1.09432 -10.1741 11.1107
H 0.94302 -9.84578 12.0431
H 1.05163 -9.40348 10.4749
O 14.1546 0.672373 9.66074
H 14.0403 0.854934 8.68422
H 13.6342 1.34364 10.1885
O -10.2405 -5.49276 4.7114
H -9.28491 -5.71057 4.90995
H -10.3113 -4.53886 4.4197
O -13.8987 -3.39731 12.4394
H -14.419 -4.17228 12.7982
H -13.0586 -3.72968 12.0109
O 12.5678 9.25759 7.67162
H 12.9077 8.43001 7.2249
H 13.265 9.60965 8.2961
O 10.2906 9.77103 -11.2327
H 9.93867 9.19217 -10.4972
H 10.7036 10.5933 -10.8411
O 10.2085 -11.6842 -8.8309
H 9.24897 -11.8871 -9.02618
H 10.7837 -12.4222 -9.18386
O -3.83456 -4.28011 -0.188424
H -4.75072 -3.95737 -0.426146
H -3.90698 -5.09793 0.38249
O -0.767992 5.70429 -0.663792
H -0.56241 5.15213 0.144204
H -0.149722 6.48956 -0.69699
O 13.5603 -9.14899 -12.544
H 13.3199 -8.25792 -12.159
H 14.5472 -9.18919 -12.7004
O -7.0335 -7.46599 8.63464
H -6.3697 -6.83412 9.03479
H -7.9404 -7.28031 9.01289
O 8.59389 -5.72555 5.51336
H 9.16597 -5.12369 4.95614
H 7.98345 -6.24926 4.91914
O -2.3411 -6.07213 2.86696
H -2.70112 -6.44761 2.01291
H -1.4048 -5.75227 2.72192
O 14.1846 9.51432 0.390093
H 14.5591 8.78625 -0.184081
H -14.8354 10.2051 0.553948
O 12.2447 -10.7748 -1.43879
H 12.6515 -11.6466 -1.16602
H 12.0385 -10.2336 -0.623535
O 0.162862 -12.1384 -12.7396
H 0.723779 -12.8868 -13.0936
H -0.388798 -12.4688 -11.9738
O 13.3686 -8.67431 3.05888
H 13.8943 -7.85575 2.82747
H 13.9249 -9.27713 3.63084
O 12.2706 -13.8986 3.62698
H 11.4809 -13.302 3.48417
H 12.7902 -13.5797 4.4196
O 6.90987 5.02675 1.33505
H 6.54146 5.95577 1.36986
H 6.96235 4.65407 2.26153
O 8.08742 -5.62946 2.12805
H 7.92014 -4.7244 2.51908
H 9.07206 -5.80039 2.09249
O 3.03307 -3.15117 -14.0825
H 2.30005 -3.19111 -13.4035
H 3.80367 -3.70902 -13.7744
O 3.01768 1.77754 7.79649
H 2.28869 1.42443 7.21007
H 3.37726 1.03679 8.36393
O 5.8942 5.44771 5.72297
H 5.84721 4.70844 5.0512
H 4.97362 5.65807 6.05204
O 2.11159 10.91 -7.47091
H 2.47632 11.7448 -7.88338
H 2.86726 10.3078 -7.21332
O 11.2495 0.0879746 13.5828
H 10.4401 0.656797 13.7286
H 11.9967 0.417386 14.1601
O 8.7364 3.10293 -3.73196
H 7.83223 2.71709 -3.91528
H 8.63534 3.98483 -3.27147
O -1.12974 -9.77572 -7.0238
H -0.794408 -10.6447 -6.65992
H -0.357104 -9.22949 -7.34733
O -7.04496 -3.32858 0.824292
H -6.76172 -3.05802 -0.0958035
H -7.04422 -2.52719 1.42244
O 7.42719 2.69979 -0.219633
H 8.38517 2.41617 -0.26267
H 7.34802 3.52207 0.343917
O -10.4435 1.69007 7.3559
H -10.4111 0.859976 6.79921
H -9.63799 1.72637 7.94739
O 10.2248 -9.91902 6.93029
H 10.669 -9.77942 6.04531
H 9.3203 -9.49267 6.92017
O -4.70232 11.213 9.40239
H -4.04172 11.7423 8.87006
H -4.76006 11.5864 10.3282
O -13.1262 -5.55252 -8.12194
H -13.4824 -6.25781 -7.50902
H -12.8417 -5.97254 -8.98372
O -11.7053 -9.82455 -10.018
H -12.5525 -9.30734 -9.89646
H -11.486 -9.88076 -10.992
O -6.29074 13.6711 6.11408
H -6.01877 12.709 6.13421
H -6.34644 13.9819 5.16525
O -8.07833 -13.6787 -8.3706
H -8.90976 -13.2376 -8.70859
H -7.95633 -13.4621 -7.40198
O 11.7618 5.59054 0.0134773
H 11.1099 5.1925 0.658909
H 11.4997 5.34414 -0.919592
O -8.46428 14.2979 8.87346
H -7.87609 13.6709 8.36272
H -7.93569 14.7303 9.60397
O 7.57637 -2.62836 11.3578
H 7.80317 -1.85434 11.949
H 7.18635 -2.2905 10.5012
O 1.70821 -9.35822 -9.73019
H 2.60935 -9.6159 -10.0788
H 1.01546 -9.54472 -10.4268
O 5.42865 -2.13091 -4.27766
H 6.12333 -1.41645 -4.3612
H 5.87335 -3.02598 -4.2447
O 11.407 -0.511715 10.7985
H 12.0385 -1.28289 10.8794
H 11.0344 -0.290174 11.6996
O 5.1353 -5.28863 -13.6356
H 5.38137 -6.13817 -13.1689
H 5.68528 -5.19268 -14.4652
O -7.15804 9.73913 8.69383
H -7.35788 9.72336 9.67354
H -6.34003 10.2903 8.52934
O 0.374516 0.784393 -10.0002
H 0.377028 -0.191774 -10.2173
H 1.20508 1.20829 -10.3615
O 2.37475 10.1696 1.73648
H 2.71207 9.24671 1.55058
H 2.79841 10.8139 1.09976
O -3.14589 9.67865 1.73305
H -3.48702 9.23287 0.905454
H -2.14601 9.68674 1.71929
O -11.9794 2.93411 -9.11287
H -12.7979 3.44095 -8.84225
H -12.1397 2.48767 -9.99321
O -1.9703 4.87261 13.9236
H -2.32637 4.3831 14.7196
H -1.89629 4.24261 13.1505
O -5.53179 -8.04836 12.1568
H -5.57434 -8.01325 11.1583
H -6.27828 -8.61695 12.5024
O -2.48326 -4.04944 12.9257
H -2.91843 -4.94748 12.8613
H -1.90207 -4.01824 13.7388
O 0.799214 -9.51045 13.7879
H 1.26497 -8.70557 14.1557
H 0.212981 -9.90789 14.4939