2611
Atoms. Timestep: 23000000
O -4.32882 -9.43831 8.66241
H -3.39107 -9.25807 8.9592
H -4.43972 -9.1463 7.71249
O 2.54615 5.3935 -7.0396
H 3.05885 6.10879 -7.51441
H 1.92342 5.81251 -6.37886
O -11.6477 14.0145 -11.3255
H -11.0659 14.8192 -11.2079
H -12.5452 14.2985 -11.6629
O 3.32822 14.4422 -5.92126
H 3.33373 14.7098 -4.95779
H 4.24499 14.1473 -6.1905
O -6.90789 -0.850338 -7.72998
H -7.29408 -1.19419 -6.87409
H -6.43909 0.0163545 -7.55967
O -2.62688 -0.533485 10.5873
H -2.97115 -0.0526929 11.3937
H -2.32961 -1.45183 10.8485
O 5.25877 1.76374 7.38214
H 5.31337 1.37003 6.46456
H 4.3402 1.62262 7.75126
O 14.9359 13.84 -9.78231
H -14.0026 13.6278 -9.56724
H 14.8144 14.8321 -9.81494
O 0.499387 9.7738 9.20929
H 1.06602 10.0644 8.43832
H 1.07265 9.6628 10.0211
O 8.37462 -10.2626 7.89255
H 7.93797 -9.4052 7.62028
H 8.52732 -10.8304 7.08371
O -0.522548 -5.64345 -13.0762
H -1.32191 -5.43964 -13.6413
H -0.504681 -6.62049 -12.864
O -1.46239 11.4897 9.66881
H -1.2203 11.743 10.6054
H -0.863819 10.7514 9.35795
O 5.05204 3.3888 11.0727
H 5.28506 3.00498 11.9661
H 4.07041 3.57588 11.036
O 1.2423 -5.87366 -3.99958
H 1.58002 -6.26448 -3.14334
H 1.97152 -5.88941 -4.68364
O -14.9061 3.80635 -14.9085
H 14.8798 3.56469 -13.944
H -14.1057 4.39566 14.8731
O -5.93295 -5.36067 14.9436
H -5.55421 -6.07062 14.3499
H -5.3051 -4.58304 -14.9161
O 4.0501 -14.4019 -13.8201
H 3.82644 14.9457 -14.6288
H 3.44389 -14.6588 -13.0675
O -11.1596 10.3702 -0.247332
H -11.1918 9.67527 0.471026
H -10.9632 9.93325 -1.12511
O -10.5889 7.56411 -11.8172
H -9.62239 7.31326 -11.8715
H -11.153 6.75457 -11.9795
O 5.38863 -9.95015 -11.2019
H 5.90089 -10.685 -10.7575
H 5.63374 -9.91153 -12.1706
O 0.549664 14.1829 -3.32065
H 0.155441 13.3747 -2.88308
H 1.54578 14.0978 -3.34197
O -10.9819 -7.50165 -9.53842
H -11.3201 -7.78714 -10.4351
H -10.1829 -8.05073 -9.29326
O 9.67397 -6.37742 2.34411
H 10.125 -5.93612 1.5684
H 10.3043 -7.02523 2.77179
O 7.72871 10.5138 -13.798
H 8.06438 10.1582 -14.6702
H 8.02172 9.90978 -13.0568
O -4.42127 -3.6814 -9.76843
H -4.57685 -3.97426 -8.82505
H -3.67004 -3.02187 -9.79309
O -4.84338 -3.99555 7.39879
H -5.08213 -4.53063 8.20911
H -3.88162 -3.72635 7.4486
O 12.1533 -5.92339 -11.284
H 12.1412 -6.16906 -10.3147
H 12.5383 -5.00673 -11.3907
O -7.55538 -1.05963 9.49393
H -8.14047 -0.579436 10.1474
H -6.88754 -1.6147 9.98974
O 0.0728922 6.02201 1.31392
H -0.563268 6.7795 1.16748
H 0.919036 6.1952 0.809961
O -13.6787 -2.29252 10.4319
H -13.6475 -2.72719 9.53185
H -13.8265 -2.98938 11.1336
O 14.7788 6.37481 -9.48388
H 14.4494 7.26587 -9.79598
H 14.0697 5.68596 -9.63415
O 9.00349 7.54146 -7.11477
H 9.79973 7.99039 -6.70931
H 8.52254 7.01735 -6.41197
O 14.1163 6.03427 2.94764
H 14.6653 5.34795 2.47064
H 13.2883 5.6061 3.30942
O 5.54666 -0.991144 -5.87628
H 6.37575 -1.54948 -5.9047
H 5.76597 -0.0872406 -5.50913
O -10.9586 -5.944 10.0554
H -11.4554 -6.79876 9.9053
H -11.6101 -5.20693 10.2348
O -5.96976 -5.76549 2.93908
H -6.62357 -6.5181 2.86129
H -5.63997 -5.70653 3.88126
O 1.87246 10.5344 4.13163
H 1.17889 11.2547 4.13497
H 1.76997 9.97682 3.30787
O 11.3501 10.2608 -14.4209
H 12.2318 9.80428 -14.3023
H 10.7848 9.7341 14.836
O 2.03856 14.4246 -8.75428
H 2.30014 14.0353 -7.8711
H 1.62993 -14.5654 -8.61322
O -12.8245 13.1232 9.86496
H -12.6705 13.4099 8.91944
H -12.8563 13.9287 10.4565
O 12.0751 11.5939 -1.10945
H 13.0293 11.8763 -1.01066
H 11.6918 11.3933 -0.207892
O -5.05877 -13.5903 4.1152
H -4.9231 -13.2014 3.20402
H -5.41447 -14.5211 4.03073
O -5.43963 6.3244 -12.4276
H -5.73597 7.11338 -11.8894
H -5.2704 6.60911 -13.3711
O -3.94349 7.83988 9.26359
H -3.84273 7.55675 8.30985
H -3.4709 7.18793 9.85651
O 11.9145 4.70582 -12.1021
H 12.8201 4.41874 -12.4143
H 11.2707 4.66708 -12.8662
O -10.5775 9.79411 -10.2784
H -11.49 10.0179 -9.93624
H -10.599 8.89966 -10.725
O 6.04597 -5.0664 -6.82991
H 6.20215 -4.35067 -7.51055
H 6.63513 -5.84957 -7.02859
O -7.84872 1.72851 8.22418
H -7.81895 0.857628 8.71471
H -7.33806 1.64661 7.36834
O 2.65001 -8.32499 8.80984
H 3.56773 -8.06248 8.51185
H 2.11169 -7.50281 8.9947
O -5.63624 -11.0388 -6.07347
H -6.38597 -11.6863 -6.20948
H -5.69402 -10.6503 -5.15384
O 6.33407 2.06238 -12.2529
H 6.94002 1.41189 -12.7108
H 6.75602 2.36676 -11.399
O 4.06062 -3.44378 3.6009
H 4.78554 -3.80443 3.01408
H 4.36755 -3.45118 4.55257
O 13.4947 11.006 10.8054
H 13.2743 11.3576 9.8956
H 12.7941 11.3005 11.4553
O 10.3072 13.2803 -2.28855
H 9.49105 13.5276 -1.76639
H 10.8451 12.6149 -1.77092
O 13.5245 14.4019 11.6547
H 13.2251 13.4498 11.5915
H 12.9024 14.9079 12.2521
O 8.21965 -14.9317 14.6293
H 8.02426 -14.6288 -14.3297
H 9.08291 -14.5309 14.3226
O -12.3239 4.87874 14.4326
H -12.2267 3.96153 14.0463
H -11.4188 5.28362 14.5619
O 0.105423 -13.7717 3.47203
H -0.817933 -13.9042 3.83229
H 0.443492 -12.871 3.74465
O -2.09215 -13.8641 -13.2169
H -1.2463 -13.8517 -13.7501
H -1.93701 -14.3505 -12.3571
O 7.70976 -4.08784 -13.7518
H 6.98227 -4.77248 -13.7077
H 8.59546 -4.53388 -13.6233
O -0.398424 2.58344 -5.862
H 0.00419231 3.09909 -6.61827
H -0.681305 3.21572 -5.14079
O 1.67263 -10.6725 8.32596
H 1.88037 -11.349 9.03247
H 1.90441 -9.75912 8.6606
O -0.935749 4.72016 -4.31408
H -0.279343 5.47003 -4.23188
H -1.86576 5.08511 -4.27138
O 0.966605 -13.4394 -0.895439
H 1.54326 -13.9038 -1.56755
H 0.531322 -12.6462 -1.32112
O -12.5531 13.0456 -8.89519
H -12.1578 13.3952 -9.74452
H -12.1684 12.1447 -8.69455
O -14.8535 3.5554 5.24801
H -14.8165 3.84923 4.29291
H -14.0532 2.9927 5.45489
O -7.17262 -8.62955 -12.7312
H -7.49298 -7.68583 -12.6493
H -6.80422 -8.93389 -11.8528
O -4.74567 -6.11974 -10.7956
H -4.69018 -5.15658 -10.5326
H -4.24638 -6.67595 -10.1314
O 7.59846 -6.35665 10.2989
H 7.58042 -6.21001 11.2879
H 8.46466 -6.02182 9.92804
O 8.99721 -6.95305 -4.29984
H 9.48964 -6.36665 -4.94293
H 8.61814 -6.39425 -3.56229
O -5.04371 10.2391 5.91451
H -5.46514 9.37554 5.6376
H -5.692 10.987 5.77233
O -9.0209 -2.56952 -10.9198
H -8.19808 -2.54779 -10.352
H -9.52454 -3.41544 -10.7446
O 9.37075 7.24257 1.85568
H 9.76905 7.06093 2.75473
H 10.0837 7.56864 1.23498
O 1.6256 -6.27839 6.16875
H 0.761161 -6.70868 6.4286
H 2.04306 -5.85648 6.97352
O -7.87095 -7.11621 6.83723
H -8.75222 -6.64389 6.85185
H -7.19742 -6.55046 6.3616
O 3.89103 -5.22093 -1.37469
H 3.33042 -5.48649 -0.590386
H 4.04239 -6.01677 -1.96091
O -11.0689 2.01169 -11.5073
H -10.7357 1.34599 -10.8397
H -11.5258 1.53227 -12.2566
O 10.5484 10.2063 5.11828
H 9.57525 10.0331 4.96718
H 10.7951 11.0907 4.72209
O -12.8 -9.63607 -14.6535
H -12.6336 -10.6125 -14.7906
H -13.7373 -9.49946 -14.333
O 5.01575 -10.1116 -4.56436
H 5.05752 -11.0771 -4.30764
H 5.7681 -9.61791 -4.12827
O 8.91743 -13.4887 -5.38579
H 9.75686 -12.9856 -5.59123
H 8.18335 -13.1714 -5.98614
O -11.7806 5.52863 -0.500381
H -12.469 4.89673 -0.144494
H -11.1536 5.78693 0.234567
O -1.05156 -3.23739 4.74574
H -1.69586 -3.38488 3.99536
H -1.50067 -3.44133 5.6156
O -0.641002 -14.8997 12.8997
H -1.59395 14.6998 12.9798
H -0.0378157 14.2157 13.0828
O 0.237199 -8.00966 2.78118
H 0.40532 -8.79062 2.17971
H 0.576263 -8.21665 3.69885
O 12.7367 4.1915 11.4612
H 12.5981 3.98601 12.43
H 12.0084 3.76738 10.923
O -9.82404 -8.30811 -5.49192
H -8.86117 -8.28346 -5.22323
H -10.3992 -8.1947 -4.68179
O -8.34086 -10.3398 9.57316
H -7.59045 -10.8075 9.10623
H -8.00378 -9.48907 9.97645
O -8.51805 -0.597023 2.23163
H -8.48633 -1.39281 2.83632
H -7.63548 -0.491027 1.77364
O 11.4641 -0.711782 1.24807
H 11.4833 0.0382619 0.587011
H 11.7452 -0.372279 2.14563
O -7.91478 -9.05706 5.02047
H -7.75944 -8.33152 5.69084
H -7.84397 -9.94728 5.47038
O -1.60708 -7.08234 -4.98206
H -1.15046 -6.24134 -4.69196
H -0.951654 -7.67153 -5.45451
O -8.60448 -4.95628 -5.64392
H -7.95505 -4.19791 -5.58865
H -9.11832 -5.01809 -4.7883
O 4.09386 0.176502 -2.49296
H 3.16925 0.506567 -2.68295
H 4.54335 -0.0685643 -3.35193
O 14.7301 -14.9088 8.81767
H 13.9322 -14.9415 8.21588
H 14.4373 14.8636 9.76632
O -6.86949 9.5736 -1.47991
H -7.59398 10.0026 -2.01935
H -7.01267 9.77365 -0.510678
O -0.157248 -11.2151 -1.67921
H -0.571908 -10.8986 -0.826077
H -0.692758 -10.8801 -2.45442
O 8.37052 12.2927 1.01248
H 8.09982 13.194 0.674369
H 7.68831 11.6151 0.738027
O -4.46889 -0.83249 8.326
H -3.78402 -0.426637 8.93111
H -5.24088 -1.16164 8.86971
O 2.40078 -12.2245 10.5001
H 1.62096 -12.835 10.6381
H 2.77731 -11.9589 11.3875
O 5.49399 -5.38412 -13.1197
H 4.89596 -4.94693 -12.448
H 5.46095 -6.37629 -12.9995
O -12.8399 -3.58144 8.17353
H -13.2629 -3.77043 7.28737
H -11.8451 -3.57285 8.07293
O 7.17345 1.78348 10.7164
H 6.45919 2.48276 10.7439
H 7.67751 1.8556 9.85575
O -4.58326 10.4882 9.83177
H -3.79354 10.9067 9.38324
H -4.49264 9.49271 9.80567
O -2.39428 4.14693 13.2288
H -1.81864 3.42724 12.8407
H -1.92048 4.57356 13.9991
O 1.08899 -11.1741 14.7679
H 2.05222 -11.183 14.4995
H 1.00929 -10.8576 -14.1785
O 13.9327 0.456728 6.44878
H 14.5392 0.785375 7.17274
H 13.0701 0.149371 6.85055
O 0.977717 -6.32521 14.7294
H 0.64885 -5.99095 -14.2791
H 0.203829 -6.65458 14.1885
O -8.00712 -12.2165 5.11268
H -8.98332 -12.1731 5.32501
H -7.88117 -12.2099 4.12069
O -11.5728 11.2403 -4.03631
H -10.7938 11.8369 -4.22861
H -11.275 10.4778 -3.46203
O 10.9347 -11.0255 -1.0177
H 10.7067 -10.179 -0.536777
H 10.5819 -10.9833 -1.95239
O -2.70734 -14.1687 -0.571261
H -1.73964 -14.2292 -0.815848
H -2.98273 14.8896 -0.0919996
O 8.42668 7.11133 -9.78977
H 8.46053 7.3538 -8.82024
H 7.98501 7.84768 -10.3023
O 10.4598 -11.5252 -6.22853
H 10.0038 -10.6608 -6.44005
H 11.281 -11.3451 -5.68711
O 10.4906 2.96703 -1.72469
H 10.9757 2.26682 -2.24846
H 10.6212 3.85828 -2.15892
O 9.53057 -1.89867 -6.29958
H 8.80511 -2.44315 -5.87866
H 9.12527 -1.13524 -6.80242
O -1.24384 11.92 -2.27408
H -0.716224 11.8985 -1.42491
H -2.13882 11.501 -2.1211
O 14.1788 -5.49311 -2.94537
H 14.3161 -6.40725 -2.56401
H 14.9107 -4.88798 -2.63227
O -6.09272 2.15465 -14.5233
H -6.54861 1.27962 -14.3608
H -6.09212 2.3532 14.3883
O 4.77273 -10.6146 -0.737931
H 4.78568 -9.68742 -1.11221
H 3.95018 -10.7386 -0.182976
O 0.100503 14.9223 7.91168
H 0.855905 14.7013 8.52849
H -0.660032 -14.5901 8.43865
O 13.7651 14.8138 -14.3072
H 13.6777 -14.3384 14.917
H 13.7959 13.9357 -14.7846
O 3.32192 -5.71124 -6.20203
H 4.20243 -5.36772 -5.87551
H 2.86756 -5.00314 -6.74248
O 11.0584 -9.23282 -3.4083
H 10.4823 -8.89548 -4.15271
H 10.9221 -8.66397 -2.59728
O 13.8074 0.78382 -0.471874
H 13.3134 1.36494 -1.11859
H 14.7917 0.897994 -0.605761
O -2.73187 -4.44011 -0.114636
H -2.51161 -4.85578 0.767769
H -2.90607 -3.4635 0.0111793
O 13.8185 -11.6067 -13.2146
H 14.56 -11.8511 -12.5898
H 13.9766 -10.688 -13.5763
O -12.0818 14.8381 -14.3616
H -12.6931 14.3463 -13.7415
H -11.1998 14.3687 -14.402
O 10.8086 2.30651 -5.46646
H 11.3292 1.79578 -4.7823
H 11.4389 2.73041 -6.1168
O 0.188535 -13.1358 -10.8955
H -0.516854 -13.8167 -10.6984
H 0.534195 -12.756 -10.0374
O -13.1045 -10.8747 -9.60448
H -13.1329 -9.879 -9.51628
H -13.1517 -11.1251 -10.5714
O 12.8201 -9.47749 5.86909
H 13.0962 -9.10748 6.75609
H 12.483 -10.4114 5.98787
O -7.50571 -10.2811 14.8006
H -8.14389 -10.9712 -14.7499
H -7.31536 -9.61685 -14.3683
O -9.39884 8.84636 8.90767
H -8.80539 9.5124 9.3595
H -10.1158 8.55513 9.54099
O -13.143 -0.170431 -6.1026
H -12.2691 -0.655804 -6.12744
H -13.5132 -0.102841 -7.02907
O 2.05995 -9.56344 -2.55883
H 1.40766 -10.15 -2.07882
H 1.89963 -9.62319 -3.54405
O 12.6789 -3.41209 -12.1728
H 13.5416 -2.9065 -12.1651
H 11.9162 -2.77121 -12.0861
O -7.37195 4.38779 -7.31412
H -6.75273 4.47445 -8.0945
H -8.13097 3.78355 -7.5564
O 11.2387 -14.4154 13.0188
H 11.3525 -13.4247 13.0928
H 10.5768 -14.622 12.2983
O 13.2786 -14.4562 -0.885895
H 13.683 14.5273 -0.777787
H 13.0012 -14.3261 -1.83775
O -0.710938 7.97157 6.94338
H -1.44799 8.53446 6.56943
H 0.0459584 8.55974 7.22815
O 9.09697 0.61008 3.24409
H 9.77733 0.945224 2.59239
H 8.31673 0.231479 2.74627
O 10.6598 -4.67443 -6.48956
H 10.2077 -3.88186 -6.89866
H 10.9342 -4.45518 -5.5533
O -10.254 0.020975 -14.053
H -9.7286 0.844911 -14.2652
H -9.63282 -0.75829 -13.9702
O 5.12602 -13.1085 9.40986
H 5.13891 -13.2392 8.41856
H 5.35568 -12.159 9.62384
O -12.5898 -12.3625 14.943
H -12.9185 -12.1872 14.015
H -12.455 -13.3453 -14.823
O -3.84652 -2.66516 4.82636
H -3.53182 -2.91356 5.74243
H -4.25166 -3.46559 4.38466
O -11.6139 7.6378 10.0475
H -11.4577 6.78343 10.5431
H -12.4827 8.03811 10.3389
O 6.82418 -2.96491 -8.35363
H 7.53503 -3.48807 -8.82365
H 6.99739 -1.98707 -8.47096
O 8.74456 12.7667 7.59408
H 8.87283 12.8061 6.60315
H 8.49803 13.674 7.93461
O 1.21903 0.931716 -12.0474
H 1.43738 0.165692 -12.652
H 1.54467 1.78348 -12.4578
O -12.2801 -1.66534 -11.1792
H -12.5528 -1.07314 -11.9374
H -11.3988 -2.08939 -11.3878
O 2.44347 1.27034 13.4343
H 2.85511 2.18153 13.449
H 2.78374 0.73833 14.2096
O 4.92819 -6.6561 9.80366
H 4.45173 -6.78887 10.6727
H 5.90975 -6.56604 9.97204
O -12.3943 -7.3735 13.8387
H -12.7736 -8.06139 14.4575
H -12.7891 -7.49088 12.9276
O -7.66596 -12.7221 -6.48172
H -8.20722 -11.9755 -6.86848
H -8.05019 -12.9893 -5.59803
O -14.5296 7.49666 -11.9587
H -13.6934 7.53932 -12.5053
H -14.4477 6.76634 -11.2806
O 2.13765 9.46323 -9.8668
H 2.26883 9.05377 -10.7696
H 1.53951 10.2606 -9.94619
O -2.21876 -10.0857 -0.131382
H -2.79229 -9.53601 -0.738699
H -2.55435 -10.0052 0.80715
O -2.73752 8.97606 3.63622
H -2.43526 9.5729 4.37942
H -2.94461 8.06831 4.00096
O 9.61974 -12.87 -12.0801
H 9.69099 -12.5802 -11.1257
H 10.2545 -13.6243 -12.2477
O -8.35321 -14.8706 5.97702
H -8.09649 -13.915 5.83243
H -9.00995 -14.9291 6.72882
O 9.27016 -9.45636 10.4513
H 8.70611 -9.84727 11.1787
H 8.88535 -9.70319 9.562
O -11.5423 -6.87218 -6.93879
H -11.325 -7.08559 -7.89125
H -11.0268 -7.4802 -6.33503
O -13.9123 -4.4988 -9.67228
H -12.9253 -4.34054 -9.6429
H -14.231 -4.44164 -10.6184
O -6.76185 -2.47689 6.22477
H -6.66975 -1.5032 6.43305
H -6.07874 -2.99409 6.74033
O 4.17678 -2.05237 13.0097
H 3.19742 -2.22766 13.1099
H 4.60093 -2.80699 12.5091
O 3.20915 -2.3261 8.78776
H 3.10347 -1.90198 7.88839
H 3.81601 -1.76569 9.35131
O 10.816 11.2187 1.19262
H 9.85425 11.4838 1.2601
H 11.331 11.6397 1.93927
O 10.0978 3.92422 -14.117
H 9.55698 4.7337 -14.3455
H 9.52853 3.10696 -14.2063
O -0.321248 8.37595 -8.70786
H 0.252808 8.26592 -9.51921
H -0.950879 9.14038 -8.84623
O -5.07462 -8.50661 -7.59829
H -5.0407 -7.76692 -6.92625
H -5.34453 -9.35629 -7.1454
O -1.57517 7.39739 -11.1973
H -1.5689 7.83148 -10.2965
H -2.1811 7.90659 -11.8085
O -14.0045 -9.81142 1.70164
H -14.7871 -9.3357 2.10301
H -13.697 -9.31917 0.887328
O 6.40533 4.57467 4.32513
H 5.4921 4.4688 4.71851
H 6.91465 3.7206 4.4304
O 14.7157 -12.9038 -9.3267
H 13.763 -12.7586 -9.59368
H -14.6578 -12.0604 -9.46861
O 11.297 -7.99606 4.16103
H 12.0171 -8.50247 4.63523
H 10.4054 -8.26419 4.52586
O 6.04893 -13.2521 14.5541
H 6.66944 -14.0212 14.4011
H 5.38219 -13.4968 -14.6336
O 3.94927 3.40243 -5.31092
H 4.25155 4.15854 -4.73052
H 3.47105 3.76634 -6.11018
O 7.80713 6.67044 -1.515
H 8.60972 6.71227 -2.11001
H 7.24518 7.48554 -1.65554
O 12.2805 -6.4782 -8.52082
H 13.1602 -6.69454 -8.09745
H 11.6746 -6.06776 -7.83937
O -6.34444 0.898083 -10.4246
H -6.58053 1.72639 -10.9326
H -5.54518 1.07563 -9.8505
O 8.99474 -8.76086 5.53425
H 8.66739 -7.82122 5.43503
H 8.22315 -9.36261 5.74034
O 11.4811 8.21336 8.7132
H 12.3763 8.28586 9.15292
H 11.1689 7.26398 8.74726
O -9.57112 -13.976 -11.1327
H -9.16834 -14.3914 -10.3172
H -8.92857 -13.3165 -11.5228
O 7.83538 2.18098 -1.75776
H 8.7879 2.38057 -1.52799
H 7.24061 2.50034 -1.02007
O 7.34975 -0.156309 -2.8705
H 7.67226 0.696032 -2.45888
H 6.54044 0.0281752 -3.4281
O 8.19168 -5.11096 12.6496
H 8.44131 -5.89793 13.2137
H 8.81202 -4.35119 12.8442
O 4.52041 10.3746 -4.65258
H 4.54376 11.3022 -4.27988
H 4.48107 10.4174 -5.65085
O -9.77667 -4.58157 -3.1716
H -9.87909 -4.89252 -2.22675
H -9.56561 -3.60416 -3.17981
O -5.70789 -0.786407 3.98829
H -6.03783 -1.28898 3.18923
H -5.00679 -1.32549 4.45496
O -2.3028 10.3323 6.02311
H -1.86493 11.1868 6.30234
H -3.29634 10.4403 6.05691
O -6.16979 -11.56 8.42431
H -5.8979 -11.9481 7.54375
H -5.46921 -10.9183 8.73629
O 9.68805 9.33211 -12.212
H 10.2493 9.67717 -12.9643
H 10.2397 8.73228 -11.6326
O 11.8354 11.0402 -9.57269
H 11.4878 11.9196 -9.89774
H 11.3658 10.7884 -8.72648
O -0.599805 1.01 9.44659
H -1.3005 0.32476 9.64509
H 0.00323091 1.10903 10.2381
O 9.7385 -5.8936 -13.3525
H 10.519 -6.31132 -12.8874
H 8.89263 -6.32092 -13.0334
O -5.00609 1.33316 -1.80639
H -4.23101 1.74181 -2.28824
H -5.52599 2.05049 -1.34263
O 1.82571 9.67224 11.5778
H 2.32336 8.92773 12.0228
H 2.20798 10.5493 11.8687
O -6.06399 -14.2331 -13.0347
H -5.42944 -13.4721 -13.1694
H -6.036 -14.5252 -12.0787
O 3.36319 13.3067 4.42559
H 2.52561 13.0349 3.95176
H 3.22791 13.228 5.41324
O 14.4778 3.33388 -12.2703
H -14.5066 3.44374 -11.8644
H 14.0503 2.50421 -11.9113
O -3.7596 8.79203 -12.1366
H -4.00391 9.71274 -11.8324
H -4.18041 8.61213 -13.0257
O -14.342 -5.65167 9.17736
H -13.935 -4.80746 8.82866
H -14.2546 -6.37257 8.48991
O -3.97912 -12.4262 -7.65738
H -4.74141 -11.9551 -7.21372
H -3.88275 -12.0942 -8.59568
O 5.51807 -7.26648 -10.8536
H 5.45582 -8.26289 -10.7967
H 4.96898 -6.85616 -10.1255
O 1.05469 -9.64797 11.8884
H 0.994446 -9.9904 12.826
H 1.18712 -10.4154 11.2611
O 0.393347 -11.1037 4.59705
H 0.737324 -10.1667 4.65828
H 0.618517 -11.597 5.43723
O -2.3329 -12.1019 6.65861
H -2.4709 -12.6604 7.47648
H -1.95974 -12.6706 5.92565
O 5.59384 -13.4896 6.82832
H 4.85952 -13.0669 6.29722
H 5.9277 -14.3009 6.34854
O -8.03472 3.98479 9.84871
H -8.38712 4.80003 9.38922
H -7.86084 3.2696 9.1718
O -0.270209 -11.3138 -6.25054
H -1.01739 -11.9782 -6.2367
H 0.604609 -11.7967 -6.28793
O 4.72043 -2.40297 -13.8313
H 4.56338 -2.24955 -14.8069
H 5.48997 -3.03031 -13.7122
O -1.99044 -14.491 -10.3246
H -2.06229 14.6226 -9.70069
H -2.89235 -14.0764 -10.4457
O 12.5406 14.7772 6.96286
H 12.9611 -14.7906 6.11536
H 11.6792 -14.6296 7.11402
O 14.4831 0.0194089 -3.83594
H 14.6408 -0.853776 -3.37485
H 14.9458 0.0165788 -4.7224
O 11.0378 3.36415 9.29211
H 11.816 3.71349 8.77032
H 11.1434 2.37924 9.42895
O -11.9053 8.90142 1.91245
H -11.2944 8.75324 2.69011
H -12.8545 8.79788 2.20976
O -3.87907 13.3562 5.45345
H -4.87696 13.4169 5.47502
H -3.56373 12.7814 6.20853
O -7.95053 -5.79795 -11.6813
H -7.09048 -5.90718 -11.183
H -8.67165 -5.52327 -11.0453
O 14.5549 10.0371 -2.21739
H -14.7346 10.6816 -2.68849
H 14.825 9.96965 -1.25696
O -9.34155 -0.28008 -9.63645
H -9.63229 -0.995654 -10.2716
H -8.34755 -0.311053 -9.53181
O 5.98125 13.9647 -6.41891
H 6.13255 13.8146 -7.39591
H 6.74009 13.5714 -5.89984
O 5.03161 -3.47347 6.19579
H 5.9974 -3.2298 6.28415
H 4.46697 -2.66722 6.37209
O -4.14085 3.14361 3.83164
H -3.23342 2.72351 3.82893
H -4.53025 3.08991 4.75111
O 13.3488 12.829 -7.6018
H 13.2102 11.839 -7.5771
H 13.9167 13.0665 -8.38981
O -13.2036 1.61662 7.63443
H -13.1106 1.95842 6.69931
H -12.3734 1.12263 7.89282
O 8.45182 9.85701 -3.91243
H 8.92007 10.7286 -3.76745
H 8.06185 9.83726 -4.83301
O 5.86056 -14.018 -11.24
H 5.04728 -13.8777 -11.8047
H 6.35034 -14.8302 -11.5569
O 14.4055 -9.83187 9.21165
H 14.5167 -10.8092 9.0315
H 14.255 -9.68826 10.1897
O 7.97959 -14.6957 8.41266
H 7.21342 -14.1049 8.66528
H 8.83994 -14.2493 8.6585
O 2.5557 6.30804 14.7232
H 2.50946 6.19322 -14.1762
H 1.71532 6.74181 14.3983
O -3.75492 -1.67041 0.0216626
H -3.84562 -1.75079 -0.970933
H -3.09543 -0.950818 0.238903
O -1.34782 -2.9051 -6.44365
H -2.29228 -2.86905 -6.77019
H -0.787762 -3.41209 -7.09881
O -3.67403 14.0333 -8.28618
H -4.31814 14.3586 -8.97846
H -4.0761 14.1462 -7.3776
O 13.9121 -12.7914 13.9958
H 13.7945 -12.0915 14.7002
H 14.7204 -12.579 13.4467
O -1.14815 11.8209 12.3483
H -1.85405 12.4716 12.628
H -0.261681 12.1178 12.7032
O 1.35691 1.09836 3.86514
H 1.78775 1.02074 2.96609
H 0.841362 1.95373 3.91496
O 13.5262 12.9437 -4.68045
H 13.6118 11.9479 -4.64937
H 13.063 13.2123 -5.52498
O -9.23934 4.62466 -12.0805
H -9.93316 3.91746 -12.2161
H -8.34806 4.19421 -11.9381
O -4.40388 4.01614 -11.3262
H -3.48097 3.75037 -11.6046
H -4.62317 4.91244 -11.7116
O 6.27016 -4.0252 2.31669
H 7.0026 -3.37741 2.10733
H 6.19842 -4.69688 1.57937
O 9.07041 -11.975 2.76797
H 8.91937 -11.2909 2.05446
H 9.63777 -12.7146 2.4059
O -11.1356 -12.2908 -4.74903
H -11.4118 -13.2403 -4.6
H -11.3023 -12.041 -5.70285
O 4.27828 1.21371 -14.2131
H 5.06875 1.10628 -13.6101
H 4.2917 2.1267 -14.6207
O -10.9894 3.13562 3.14847
H -10.3091 2.84627 3.82182
H -10.5981 3.84588 2.56336
O 0.272798 -13.8579 -14.7601
H -0.115067 -14.1726 14.2653
H 0.539431 -12.8978 -14.8435
O 11.3686 -13.0152 0.548171
H 11.1859 -12.2565 -0.0770714
H 11.9909 -13.6647 0.111264
O 8.43222 -6.4074 -7.45884
H 9.2837 -5.93443 -7.23256
H 8.59173 -7.03448 -8.22125
O -14.0408 -4.81912 5.95965
H -13.4962 -5.38549 5.34112
H 14.9221 -5.18538 6.01615
O -13.9823 -12.7821 -0.646769
H -14.8143 -13.3292 -0.738238
H -13.8085 -12.599 0.320805
O 3.20842 7.53609 -8.30527
H 2.78733 8.16047 -8.96312
H 3.12836 7.91823 -7.38468
O -13.6992 -7.36139 11.5177
H -13.8226 -8.29348 11.1772
H -14.2687 -6.73432 10.9862
O -2.43892 -13.9709 4.49266
H -3.40173 -13.7257 4.37935
H -2.3698 -14.9263 4.77961
O 11.3554 3.6721 -8.07524
H 11.9237 3.3511 -8.83283
H 10.3912 3.52696 -8.29707
O -7.25504 -7.96931 -4.91639
H -7.55806 -7.04733 -5.15732
H -6.26036 -7.97712 -4.81394
O -13.6593 6.99676 12.662
H -12.7934 6.52466 12.8274
H -14.3584 6.33007 12.4037
O 9.6491 8.45532 11.5593
H 10.2856 8.99182 11.0053
H 9.8746 7.48437 11.4797
O 3.65625 -4.558 -11.6215
H 2.69564 -4.79518 -11.7661
H 3.73303 -3.9411 -10.8383
O -1.88508 2.62376 -11.0365
H -1.63908 2.6603 -10.068
H -1.86419 1.67447 -11.3501
O 13.5565 6.95722 10.8257
H 13.5061 7.28953 11.7675
H 13.4557 5.96238 10.8175
O -13.5144 -11.7588 5.83274
H -13.9273 -11.9222 6.72869
H -14.1755 -11.9796 5.11576
O -6.26043 1.33387 5.72542
H -5.98485 0.505113 5.23844
H -5.46322 1.73722 6.17454
O 9.47554 -9.35376 -13.6302
H 9.24455 -10.3004 -13.4054
H 8.87742 -8.73488 -13.1211
O -10.5897 -8.52979 4.40511
H -9.63396 -8.45897 4.69039
H -11.1848 -8.3988 5.19799
O 5.84956 8.79711 -11.3889
H 5.45158 8.77654 -12.306
H 5.41856 8.09455 -10.8227
O -6.41093 -14.7027 -3.3165
H -5.98479 14.4353 -3.81684
H -6.97915 -14.1671 -3.94113
O 8.00323 -1.84707 -0.832737
H 7.92135 -1.29262 -1.66088
H 7.48564 -2.69502 -0.94682
O 2.31625 -1.52412 -13.0049
H 3.23595 -1.85827 -13.2109
H 2.21122 -1.42567 -12.0153
O -5.7704 2.04774 1.90264
H -5.22677 2.56949 2.56005
H -5.84631 1.09953 2.21097
O -1.65237 10.5719 -10.0177
H -0.721689 10.9363 -10.0489
H -2.22974 11.0771 -10.6591
O 8.42947 3.59023 -4.5448
H 9.26158 3.13136 -4.8562
H 8.30669 3.42934 -3.56553
O -5.60075 13.1113 11.2448
H -6.58409 13.2901 11.277
H -5.42539 12.1636 11.5112
O -14.5816 -1.8855 6.29804
H 14.9171 -2.54956 6.93407
H 14.7303 -1.07136 6.26588
O 14.6787 -8.14176 -2.5661
H 14.6885 -7.98284 -3.55331
H 14.4243 -9.09151 -2.3839
O 13.2889 -5.19693 2.33891
H 14.225 -4.87613 2.48268
H 12.6539 -4.60558 2.83591
O -5.40355 -1.28927 12.9746
H -5.033 -0.497645 12.4888
H -6.12819 -1.70725 12.4268
O -10.3036 5.51881 1.92632
H -10.2646 6.16197 2.69102
H -9.41719 5.49651 1.46402
O 12.3274 -12.1546 2.92944
H 12.3957 -12.87 2.23408
H 12.0861 -11.2877 2.49323
O 3.54029 -0.783356 6.11842
H 2.83146 -0.961438 5.43593
H 3.31794 0.0529728 6.61947
O 5.95526 12.8735 -13.4734
H 6.51591 13.6873 -13.3209
H 6.48283 12.0567 -13.2398
O -8.94654 13.6382 -13.4512
H -8.81081 14.3355 -14.1549
H -9.35118 14.0586 -12.6391
O -13.6098 -12.2949 -12.3935
H -13.7497 -13.2682 -12.2115
H -13.2266 -12.1789 -13.3098
O -10.341 -2.67539 7.70642
H -10.1563 -1.74202 7.39884
H -9.48277 -3.11532 7.97057
O -8.00961 -3.48482 -0.378765
H -8.74697 -4.14766 -0.508657
H -7.29216 -3.89099 0.187119
O 1.07255 3.62419 -2.29975
H 0.78227 2.95579 -2.98452
H 0.653178 4.5097 -2.4996
O 1.82608 0.786274 1.04237
H 1.81727 1.71529 0.67253
H 0.910272 0.390909 0.972204
O -8.88457 -14.3788 14.6532
H -9.63715 -14.6473 14.052
H -8.18039 -13.9125 14.1178
O -8.18264 1.53774 -5.12728
H -9.05209 1.95974 -5.384
H -7.68545 1.27023 -5.95262
O -1.15743 -4.42873 -4.11473
H -0.269573 -4.5588 -3.67345
H -1.07343 -3.74182 -4.83655
O -9.88517 4.30383 -5.34669
H -9.03355 4.80787 -5.49032
H -10.1076 4.29618 -4.3718
O 4.91328 8.68882 -14.0451
H 4.12581 8.1013 -14.2312
H 5.68449 8.4025 -14.6136
O 2.21544 14.5664 9.81081
H 2.81628 -14.6867 10.2916
H 1.9093 13.8557 10.4442
O -0.00740777 10.8241 -5.46362
H -0.799636 10.5659 -6.01644
H -0.0543216 11.7997 -5.24923
O -1.42455 2.44074 4.23464
H -0.815864 3.12148 4.6421
H -1.65948 1.75119 4.91966
O -7.36083 -13.5854 -0.846903
H -7.0098 -14.2529 -1.50345
H -6.86015 -13.67 0.0145367
O -7.0685 9.3975 -7.44924
H -6.98145 9.082 -6.50435
H -6.85235 10.3727 -7.49627
O 1.10601 9.50653 1.60545
H 1.92991 9.59755 1.04612
H 1.06893 8.58721 1.99711
O 13.0318 -7.93191 13.5268
H 12.1994 -8.14156 13.0139
H 13.2039 -6.94737 13.495
O -0.47679 1.88335 13.0504
H -0.903644 1.59055 13.9059
H 0.431121 1.4715 12.9728
O 7.82141 2.11638 8.06814
H 8.36205 2.03463 7.2309
H 6.85569 2.22413 7.8321
O -12.4712 0.448278 -3.47345
H -12.7021 0.480533 -4.44586
H -12.4712 -0.502022 -3.16222
O 11.4893 5.36711 6.01169
H 12.1838 4.86292 6.5249
H 10.6158 5.31792 6.49598
O 14.3295 9.83889 -9.79067
H 14.6729 9.91568 -10.7267
H 13.382 10.1566 -9.75616
O -1.18559 8.02026 11.4151
H -0.808928 8.87838 11.0662
H -1.25432 7.35855 10.6685
O 0.438793 13.1098 3.91777
H 0.347518 14.1019 3.83195
H -0.461819 12.6837 3.83279
O 0.476545 1.61939 -9.30261
H 0.858109 1.38 -10.1954
H 0.09646 0.800717 -8.87221
O -2.54025 -9.07758 11.943
H -1.83589 -9.73076 12.2208
H -3.43174 -9.53052 11.9386
O -14.7251 13.1971 -0.67097
H -14.2805 12.8418 -1.4932
H -14.7335 12.4895 0.0355573
O -14.4941 0.672096 14.6051
H -14.1404 1.52896 -14.9116
H -14.5592 0.745415 13.61
O -5.55196 -0.609864 -12.4802
H -6.03024 -0.725093 -13.3507
H -6.16566 -0.181694 -11.8168
O -8.99089 6.72806 -3.81854
H -8.04842 6.71453 -3.48462
H -9.53298 6.05623 -3.31385
O 12.0225 -9.30881 -9.00257
H 12.1201 -8.32093 -8.88206
H 12.2502 -9.77307 -8.14667
O -4.28 -12.112 -13.0865
H -3.98921 -11.2187 -13.4291
H -3.59647 -12.8005 -13.3287
O -11.583 -0.0328099 9.95407
H -11.3119 -0.70883 10.6392
H -12.4551 -0.303033 9.5461
O 1.43199 6.7939 5.841
H 1.92707 6.90722 6.7024
H 0.548602 7.25865 5.90066
O -10.9607 -10.3474 8.71521
H -10.0312 -10.22 9.06124
H -10.9538 -10.3003 7.71637
O 12.7691 0.195469 3.38678
H 13.5562 -0.415393 3.47191
H 12.502 0.523302 4.29296
O 0.551403 -7.00649 11.727
H 0.596463 -7.98486 11.5252
H -0.0987744 -6.84901 12.4702
O 9.38401 -7.64124 13.9315
H 9.80547 -7.93759 14.7885
H 10.0485 -7.72042 13.1884
O -12.9201 6.45522 7.40639
H -12.9781 7.06043 8.20029
H -13.5035 6.80808 6.67494
O -8.05277 13.6153 1.37903
H -8.27941 13.2702 0.468268
H -7.56225 14.4826 1.29432
O -8.59591 -12.8732 -3.90042
H -8.57907 -12.9253 -2.90195
H -9.53739 -12.7439 -4.21159
O -3.0788 -8.76198 -3.01225
H -2.59509 -7.94624 -3.32933
H -2.66799 -9.57472 -3.42532
O -3.30899 -9.64266 -14.2733
H -3.17472 -9.64315 14.6275
H -3.72912 -8.77919 -13.9943
O -6.18011 -1.62892 0.851187
H -5.21759 -1.65544 0.581413
H -6.75055 -1.90826 0.0788468
O -12.9077 1.55116 4.70874
H -13.2194 0.610734 4.57316
H -12.2717 1.80003 3.9784
O 7.30978 -1.0984 14.1761
H 7.74488 -1.43847 13.3424
H 6.54626 -1.69584 14.4211
O 6.63259 12.9871 11.417
H 6.60065 12.7975 10.4357
H 6.49137 13.9648 11.5723
O 4.04925 -9.34165 3.81967
H 4.00839 -8.34264 3.80379
H 3.43822 -9.68896 4.53097
O -13.1535 -6.5115 4.0982
H -12.4529 -6.79368 3.44284
H -13.6024 -7.32142 4.47564
O -13.7797 -9.94999 -4.65645
H -14.7312 -10.1562 -4.42842
H -13.3582 -10.7502 -5.08299
O 1.66997 -4.16752 2.68859
H 2.45166 -3.87356 3.23857
H 0.82147 -3.92077 3.15666
O -10.0215 14.3037 -8.06757
H -10.5373 13.4585 -8.20742
H -10.6101 -14.8026 -8.25928
O 1.41862 3.40111 8.1212
H 0.458821 3.63879 8.27029
H 1.99065 4.20415 8.28804
O 4.65224 -0.747983 -11.4141
H 4.24847 0.166002 -11.4533
H 4.67296 -1.14284 -12.3326
O -11.7609 -8.18766 -3.46588
H -11.7136 -8.91358 -2.77978
H -12.407 -8.44852 -4.18311
O -1.00567 -11.077 13.2987
H -1.85384 -11.4654 13.6588
H -0.309658 -11.0731 14.0167
O 7.77178 -1.42387 11.4546
H 7.99425 -2.38927 11.3188
H 7.39709 -1.0459 10.6081
O 11.119 -7.89563 11.5859
H 10.6797 -8.48077 10.9043
H 11.1635 -6.958 11.2412
O 2.96349 -9.60835 -11.7845
H 3.05946 -9.59177 -12.7797
H 3.82285 -9.91016 -11.3718
O -11.1959 2.01236 -6.96115
H -11.6852 2.7981 -6.58284
H -11.6639 1.16927 -6.69651
O 14.6393 -12.9626 -4.01048
H -14.7997 -13.2141 -4.8659
H 13.8509 -13.5597 -3.86248
O 2.39101 7.15763 3.35841
H 2.03779 7.2169 4.29204
H 3.31895 7.52909 3.32891
O -2.59867 -2.59985 7.38241
H -3.15054 -1.81835 7.67333
H -1.65329 -2.46998 7.68127
O -6.0659 -9.37839 -10.1984
H -5.26692 -9.88611 -10.5206
H -5.88117 -9.00908 -9.28772
O -5.56708 -14.1992 0.892959
H -5.07612 14.8259 0.98259
H -4.92332 -13.44 0.988145
O -11.009 -3.72203 2.16182
H -11.9259 -3.38591 2.37688
H -10.4685 -2.98248 1.76078
O -11.8728 -14.3058 -1.82237
H -11.2388 -14.4571 -1.06403
H -12.6573 -13.7761 -1.50027
O 4.18528 -0.777439 1.38663
H 3.80025 -1.45938 2.00843
H 3.47707 -0.117531 1.13582
O 5.41305 12.574 -3.54112
H 5.90838 12.083 -2.82449
H 6.04249 12.805 -4.28298
O -3.75377 -2.76397 -12.5595
H -4.28785 -1.99162 -12.2158
H -2.95087 -2.89871 -11.9789
O -6.64787 12.0316 -10.6971
H -7.63135 12.2122 -10.689
H -6.36919 11.6639 -9.8099
O -1.91306 0.597888 -14.8668
H -2.03054 -0.28756 14.5753
H -1.83581 0.462534 -13.879
O -12.3124 -12.0235 10.2393
H -11.6701 -12.7894 10.2666
H -11.9039 -11.2638 9.73324
O -10.9964 14.4142 12.72
H -10.9947 13.4236 12.8568
H -11.9391 14.7475 12.7083
O 9.89548 -1.74836 5.10862
H 9.68989 -1.20366 4.29562
H 10.4309 -2.55087 4.8455
O 10.9891 2.4854 -10.5268
H 11.5821 1.71149 -10.749
H 11.3082 3.29974 -11.0115
O -11.5069 14.3147 1.9126
H -10.9818 14.789 1.20599
H -11.0517 14.4245 2.79618
O 2.42585 3.84419 10.8121
H 1.92392 3.21044 10.2236
H 2.02446 4.75703 10.7377
O 7.93305 3.69882 -7.96203
H 7.3314 3.30378 -7.26784
H 7.94395 4.69414 -7.8663
O -6.98689 -8.10504 9.14251
H -6.06752 -8.43189 8.92373
H -7.32506 -7.53523 8.39359
O -8.52991 11.1643 -3.13418
H -8.80535 10.3615 -3.66292
H -8.59257 11.9798 -3.70944
O -12.5989 -1.63525 4.43648
H -11.8646 -1.33788 5.04665
H -13.3004 -2.11157 4.96657