LAMMPS data file via write_data, version 15 May 2015, timestep = 1000000

4560 atoms
7 atom types
5040 bonds
3 bond types
7200 angles
2 angle types
10560 dihedrals
3 dihedral types
2400 impropers
1 improper types

-1.0763502675555259e-01 4.1387635026745990e+01 xlo xhi
-4.0433884491974936e-02 3.5938433884472119e+01 ylo yhi
-3.5711112484589691e-01 2.9555111124838550e+01 zlo zhi
-6.7234083837551181e-02 -1.7036217651000683e+01 -4.1707816797290791e-02 xy xz yz

Masses

1 12.0107
2 1.008
3 12.0107
4 12.0107
5 12.0107
6 12.0107
7 12.0107

Pair Coeffs # lj/cut/coul/long

1 0.07 3.55
2 0.03 2.42
3 0.07 3.55
4 0.07 3.55
5 0.07 3.55
6 0 0
7 0.07 3.55

Bond Coeffs # harmonic

1 469 1.4
2 367 1.08
3 469 0.7

Angle Coeffs # harmonic

1 35 120
2 63 120

Dihedral Coeffs # opls

1 0 7.25 0 0
2 0 7.25 0 0
3 0 7.25 0 0

Improper Coeffs # cvff

1 2.5 -1 2

Atoms # full

219 13 3 0.0000000000000000e+00 -2.8924353406108039e-01 3.0697980867528041e+00 3.1492521310900821e+00 1 0 0
220 13 4 -1.1500000000000000e-01 3.3921802778561982e-01 4.0673935027631254e+00 2.4252238501704317e+00 1 0 0
224 13 2 1.1500000000000000e-01 4.8897418594262709e-01 5.0696051198518477e+00 2.8279382875363668e+00 1 0 0
580 33 4 -1.1500000000000000e-01 2.6910811386071569e+00 6.7844786349329018e+00 3.9639165445797175e+00 1 0 0
228 13 3 0.0000000000000000e+00 -6.0176126921522943e-01 1.8380629168088491e+00 2.5753487554700660e+00 1 0 0
989 53 4 -1.1500000000000000e-01 -1.3422558038380545e+00 7.0712350468667111e+00 3.5219092042520512e+00 1 0 0
600 34 2 1.1500000000000000e-01 3.9439172599561267e-01 5.9972599117837673e+00 7.0602410752106159e+00 1 0 0
245 14 4 -1.1500000000000000e-01 -4.9059160776789064e+00 1.4030258170816652e+00 8.9955533542556143e+00 1 0 0
227 13 4 -1.1500000000000000e-01 -1.4987500350346650e-01 1.5582576817729634e+00 1.2692245887995295e+00 1 0 0
4390 233 1 -1.1500000000000000e-01 2.2453450509105028e+00 6.7648891277027201e-01 5.4667394504297215e+00 1 1 0
733 13 6 0.0000000000000000e+00 -3.9944914413805743e-01 2.4330280145082339e+00 2.9246302991777098e+00 1 0 0
1064 57 2 1.1500000000000000e-01 7.2489978772670778e+00 6.3075838784927720e+00 8.9657110774938831e-01 1 0 0
230 13 1 -1.1500000000000000e-01 6.7093282507179053e-01 3.8202691344025701e+00 1.0659650110705110e+00 1 0 0
217 13 7 -1.1500000000000000e-01 -1.1376685564430007e+00 2.3217632999721531e+00 5.2641606464242248e+00 1 0 0
218 13 5 -1.1500000000000000e-01 -6.0801638131468883e-01 3.3645243945653891e+00 4.4884164262649433e+00 1 0 0
221 13 1 -1.1500000000000000e-01 -1.4762551381910234e+00 1.1346175825311504e+00 4.6635992262699393e+00 1 0 0
222 13 2 1.1500000000000000e-01 -1.2413407518130017e+00 2.3837760522499920e+00 6.3032229362986003e+00 1 0 0
223 13 2 1.1500000000000000e-01 -4.2314440753533766e-01 4.2774681175230738e+00 4.9959716794626061e+00 1 0 0
248 14 1 -1.1500000000000000e-01 -3.4691481639162247e+00 3.3067118921375518e+00 8.6331834274017663e+00 1 0 0
4380 233 4 -1.1500000000000000e-01 2.5630980361014397e+00 1.1143772959345080e+00 4.1455424190717522e+00 1 1 0
244 14 1 -1.1500000000000000e-01 -4.1398981025935448e+00 2.1711237931383707e+00 8.1327366615652643e+00 1 0 0
603 34 2 1.1500000000000000e-01 1.1591812587907757e+00 3.4837443252456581e+00 7.5958396808490498e+00 1 0 0
4396 234 5 -1.1500000000000000e-01 -7.0840746787722519e-01 2.4108867764212463e-01 9.2647550333382576e+00 1 1 0
4394 233 2 1.1500000000000000e-01 1.5413878856059453e+00 1.2588351019433122e+00 6.0780285523826691e+00 1 1 0
579 33 3 0.0000000000000000e+00 3.3177239738243229e+00 5.8277621446009560e+00 3.1671171372300528e+00 1 0 0
252 14 2 1.1500000000000000e-01 -2.8554044181396927e+00 3.9895771714227637e+00 8.1232109430157138e+00 1 0 0
581 33 1 -1.1500000000000000e-01 4.6158898386227660e+00 4.0116064446710880e+00 1.5191610292998519e+00 1 0 0
596 34 5 -1.1500000000000000e-01 -5.1920397402300278e-01 6.3557009520937129e+00 8.8883054603783673e+00 1 0 0
577 33 7 -1.1500000000000000e-01 4.0815896016079272e+00 5.1622905247503441e+00 9.2943079441611065e-01 1 0 0
588 33 3 0.0000000000000000e+00 3.8281138734781561e+00 4.6360939908787868e+00 3.7011613977475175e+00 1 0 0
589 33 4 -1.1500000000000000e-01 4.4985385632345016e+00 3.7079972189112826e+00 2.8706907916234217e+00 1 0 0
593 33 2 1.1500000000000000e-01 4.7758776483233785e+00 2.7689262339970893e+00 3.2849848145747842e+00 1 0 0
753 33 6 0.0000000000000000e+00 3.5610328058533773e+00 5.1632103473395592e+00 3.3494840641147494e+00 1 0 0
4383 233 2 1.1500000000000000e-01 3.0670666373727720e+00 1.4250803055525911e+00 1.4078636146132040e+00 1 1 0
4379 233 3 0.0000000000000000e+00 3.2236304132808016e+00 2.0562430038070914e-01 3.2485989337938097e+00 1 1 0
578 33 5 -1.1500000000000000e-01 3.4777128354623468e+00 6.1005969963062086e+00 1.8011662071331198e+00 1 0 0
226 13 1 -1.1500000000000000e-01 5.3578237287540476e-01 2.5203418190287525e+00 4.9388935535353351e-01 1 0 0
4384 233 2 1.1500000000000000e-01 2.1412482298643543e+00 1.9636330619913780e+00 3.7550391400306662e+00 1 1 0
586 33 1 -1.1500000000000000e-01 3.2723523825379899e+00 5.4658146609734333e+00 5.9013643326401715e+00 1 0 0
587 33 4 -1.1500000000000000e-01 3.8069110157532906e+00 4.4298317795538127e+00 5.1274247857725062e+00 1 0 0
585 33 2 1.1500000000000000e-01 5.1293292494121072e+00 3.2437468541649048e+00 9.2218411645912290e-01 1 0 0
591 33 2 1.1500000000000000e-01 3.2632900788229522e+00 5.4241852228869307e+00 6.9571540393768201e+00 1 0 0
592 33 2 1.1500000000000000e-01 4.1933121583287054e+00 3.5460266705553152e+00 5.5792042946409426e+00 1 0 0
590 33 1 -1.1500000000000000e-01 2.7852287353648788e+00 6.6599567117075029e+00 5.3630965915819520e+00 1 0 0
584 33 2 1.1500000000000000e-01 2.1731828792551724e+00 7.6230529659905457e+00 3.4140468913235176e+00 1 0 0
234 13 2 1.1500000000000000e-01 1.1064373209417826e+00 4.5969768629192966e+00 4.5984994780606736e-01 1 0 0
229 13 4 -1.1500000000000000e-01 -1.2297213061492145e+00 8.5284029590681043e-01 3.3163006430334447e+00 1 0 0
249 14 2 1.1500000000000000e-01 -3.9460503101602238e+00 2.1001907667083750e+00 7.0121499833542096e+00 1 0 0
985 53 2 1.1500000000000000e-01 -1.7275772867442065e+00 6.3609448265616146e+00 5.5388645904075533e+00 1 0 0
599 34 1 -1.1500000000000000e-01 6.6663159399527139e-01 4.2087282693396926e+00 8.3133355375552416e+00 1 0 0
4401 234 2 1.1500000000000000e-01 -1.1238165513356710e+00 1.1890476816415481e+00 8.9049294451613488e+00 1 1 0
225 13 2 1.1500000000000000e-01 -1.8533490175479190e+00 3.5787974278178436e-01 5.2876060026355862e+00 1 0 0
595 34 7 -1.1500000000000000e-01 1.8039503974012838e-01 5.5243403376104707e+00 7.9683942842338862e+00 1 0 0
981 53 1 -1.1500000000000000e-01 -1.3537699681548370e+00 7.1466651887805428e+00 4.9410238075026252e+00 1 0 0
4378 233 5 -1.1500000000000000e-01 3.4304700776909804e+00 5.1761433539026691e-01 1.8838851036152588e+00 1 1 0
582 33 2 1.1500000000000000e-01 4.2221168160392741e+00 5.4761522611309355e+00 -1.1682458640730542e-01 1 0 0
583 33 2 1.1500000000000000e-01 3.1143540524537157e+00 7.0316833062994046e+00 1.4113867124208159e+00 1 0 0
987 53 4 -1.1500000000000000e-01 -7.8402965310750949e-01 7.9958694106692425e+00 1.3026622448733407e+00 1 0 0
232 13 2 1.1500000000000000e-01 -5.3163277063675674e-01 6.0946454756911128e-01 9.2206452585128207e-01 1 0 0
1493 53 6 0.0000000000000000e+00 -5.6063141550093509e-01 8.6909161431032924e+00 2.9935640649332473e+00 1 0 0
993 53 2 1.1500000000000000e-01 -1.7169707454872958e+00 6.1519406379898953e+00 3.0896746133412867e+00 1 0 0
1005 54 4 -1.1500000000000000e-01 -4.5114944863389050e+00 7.1891221903245937e+00 8.8622281801097458e+00 1 0 0
594 33 2 1.1500000000000000e-01 2.3653462623469763e+00 7.4414395487654783e+00 6.0237926913651743e+00 1 0 0
977 53 7 -1.1500000000000000e-01 -8.8165925838090731e-01 8.2923207085975932e+00 5.5462630036970451e+00 1 0 0
982 53 2 1.1500000000000000e-01 -9.7372584060822875e-01 8.2482506308953401e+00 6.5980817680696706e+00 1 0 0
1004 54 1 -1.1500000000000000e-01 -3.6440377237286845e+00 7.8876330593510788e+00 7.9493447844892096e+00 1 0 0
988 53 3 0.0000000000000000e+00 -7.9851131779028828e-01 8.0991484395651181e+00 2.7131148760233188e+00 1 0 0
1009 54 2 1.1500000000000000e-01 -3.5925868840306618e+00 7.5656561465727874e+00 6.9064328734826326e+00 1 0 0
601 34 2 1.1500000000000000e-01 -6.5412707254317937e-01 7.3163509562108784e+00 8.5174938719699629e+00 1 0 0
607 34 4 -1.1500000000000000e-01 3.9807984847141675e-01 3.7734173541321661e+00 9.6087297909455565e+00 1 0 0
1010 54 2 1.1500000000000000e-01 -4.9417016701469594e+00 6.2121638071176308e+00 8.6523839393137880e+00 1 0 0
1353 73 2 1.1500000000000000e-01 4.9432433325596152e+00 8.8278499131285066e+00 2.9386338689036227e+00 1 0 0
986 53 1 -1.1500000000000000e-01 -7.2885662439249432e-02 8.8983451890273457e+00 5.4591848964499434e-01 1 0 0
235 14 7 -1.1500000000000000e-01 -5.2104950812975348e+00 2.3160510435217150e+00 1.3121051668249141e+01 1 0 0
236 14 5 -1.1500000000000000e-01 -4.5153273570067824e+00 3.1688188489080598e+00 1.2243263288563547e+01 1 0 0
597 34 3 0.0000000000000000e+00 -7.4352794575843095e-01 5.8894335048686850e+00 1.0176577439271151e+01 1 0 0
734 14 6 0.0000000000000000e+00 -4.6626844204502582e+00 2.3288126707838250e+00 1.0488701482535701e+01 1 0 0
239 14 1 -1.1500000000000000e-01 -5.7646406564559900e+00 1.1325930840977927e+00 1.2626190952010537e+01 1 0 0
240 14 2 1.1500000000000000e-01 -5.3240075074816282e+00 2.5291864228970899e+00 1.4172679270349185e+01 1 0 0
243 14 2 1.1500000000000000e-01 -6.2743146837128947e+00 3.1288789549004575e-01 1.3189075002967472e+01 1 0 0
4416 235 4 -1.1500000000000000e-01 -5.8894324151748059e+00 8.6885136461318391e-01 1.9033091575404708e+01 1 1 0
4420 235 2 1.1500000000000000e-01 -6.3041465981165699e+00 1.7754543378046994e+00 1.8689479077434715e+01 1 1 0
237 14 3 0.0000000000000000e+00 -4.4284749172646576e+00 2.8810088054641212e+00 1.0838126019570064e+01 1 0 0
4402 234 2 1.1500000000000000e-01 -1.7562812092385771e+00 1.7549137051270731e+00 1.1012606649645974e+01 1 1 0
254 15 5 -1.1500000000000000e-01 -8.9505550164833583e+00 3.5753967354587131e+00 1.9506349540352254e+01 1 0 0
242 14 2 1.1500000000000000e-01 -3.2443120642114529e+00 4.6298934499195248e+00 1.0323342884228616e+01 1 0 0
255 15 3 0.0000000000000000e+00 -8.7753202984595013e+00 3.0644920342036790e+00 1.8185821107429952e+01 1 0 0
256 15 4 -1.1500000000000000e-01 -8.0445898107214866e+00 3.8430156243070361e+00 1.7223095221942160e+01 1 0 0
260 15 2 1.1500000000000000e-01 -7.5401861443153191e+00 4.6893357770733815e+00 1.7571368129017063e+01 1 0 0
1029 55 2 1.1500000000000000e-01 -1.0339055528068583e+01 5.9151939064678407e+00 1.7912780443620964e+01 1 0 0
4414 235 5 -1.1500000000000000e-01 -4.8894461032370549e+00 3.7972314619140091e-01 1.6855303656556472e+01 1 1 0
264 15 3 0.0000000000000000e+00 -9.3505158495285894e+00 1.8597744861517480e+00 1.7790635974320253e+01 1 0 0
262 15 1 -1.1500000000000000e-01 -8.4464869775148870e+00 2.2214338450230540e+00 1.5533336683224164e+01 1 0 0
266 15 1 -1.1500000000000000e-01 -7.8798320779271780e+00 3.4471209479957605e+00 1.5905270004094668e+01 1 0 0
4408 234 1 -1.1500000000000000e-01 -1.8350903917328445e+00 3.4637463693227022e-01 1.2702726916816415e+01 1 1 0
238 14 4 -1.1500000000000000e-01 -3.7053518928435896e+00 3.7229619858175123e+00 9.9536857689387972e+00 1 0 0
263 15 4 -1.1500000000000000e-01 -9.1283255791341009e+00 1.3984718520301500e+00 1.6515589296830591e+01 1 0 0
735 15 6 0.0000000000000000e+00 -8.9218421838983186e+00 2.3999017415939727e+00 1.8052853144173433e+01 1 0 0
246 14 3 0.0000000000000000e+00 -5.0315671174158716e+00 1.7182637093483841e+00 1.0337977001734467e+01 1 0 0
265 15 4 -1.1500000000000000e-01 -1.0013404147884803e+01 1.1009168118948138e+00 1.8723995010446203e+01 1 0 0
604 34 1 -1.1500000000000000e-01 -1.0701848598229136e+00 4.9395295211028492e+00 1.2812110912276164e+01 1 0 0
605 34 4 -1.1500000000000000e-01 -4.2497922234579555e-01 4.0743369895759116e+00 1.1910236911645113e+01 1 0 0
606 34 3 0.0000000000000000e+00 -2.9744210246318215e-01 4.5808954707084384e+00 1.0569072958533983e+01 1 0 0
1007 54 4 -1.1500000000000000e-01 -5.6608710285840838e+00 7.0716116305078680e+00 1.1010667820434682e+01 1 0 0
620 35 2 1.1500000000000000e-01 -6.2896872610848904e+00 7.4998413539733209e+00 1.9232640954462209e+01 1 0 0
611 34 2 1.1500000000000000e-01 6.9961186743999892e-01 2.7544194858476949e+00 9.9338117264341044e+00 1 0 0
610 34 2 1.1500000000000000e-01 -2.4766759308519681e-02 3.1542256556756847e+00 1.2247670264758264e+01 1 0 0
241 14 2 1.1500000000000000e-01 -4.1043147192855525e+00 4.0849248866734467e+00 1.2554577738052217e+01 1 0 0
1011 54 2 1.1500000000000000e-01 -6.1338227878250713e+00 6.1282604122091273e+00 1.0773441166246378e+01 1 0 0
598 34 4 -1.1500000000000000e-01 -1.1432407825184177e+00 6.7623025254134248e+00 1.1194833975092450e+01 1 0 0
754 34 6 0.0000000000000000e+00 -4.3804387083006979e-01 5.3157091568562693e+00 1.0460528451125203e+01 1 0 0
609 34 2 1.1500000000000000e-01 -1.2077811200887902e+00 4.4793057342649538e+00 1.3734390383382339e+01 1 0 0
613 35 7 -1.1500000000000000e-01 -4.5784275637202700e+00 5.5648139198682758e+00 1.6072626740784191e+01 1 0 0
618 35 2 1.1500000000000000e-01 -4.5665796777814132e+00 5.8789284278912284e+00 1.5086300935279082e+01 1 0 0
615 35 3 0.0000000000000000e+00 -5.1728432325600346e+00 5.8099187121033884e+00 1.8374999793654219e+01 1 0 0
617 35 1 -1.1500000000000000e-01 -3.8738409958047253e+00 4.3766450030312418e+00 1.6341324459628112e+01 1 0 0
621 35 2 1.1500000000000000e-01 -3.2812804107226929e+00 3.8589721473230876e+00 1.5621046025977776e+01 1 0 0
624 35 3 0.0000000000000000e+00 -4.6828853917553186e+00 4.5202260206111342e+00 1.8691917407480993e+01 1 0 0
625 35 4 -1.1500000000000000e-01 -4.0150094199629285e+00 3.8177747085828706e+00 1.7639331962808367e+01 1 0 0
629 35 2 1.1500000000000000e-01 -3.6732498645128464e+00 2.8182411545798471e+00 1.7733861607838652e+01 1 0 0
755 35 6 0.0000000000000000e+00 -4.9416136344639430e+00 5.1494415508937621e+00 1.8462242444281969e+01 1 0 0
270 15 2 1.1500000000000000e-01 -7.2167629266068394e+00 3.9610058258282130e+00 1.5250971023967168e+01 1 0 0
4398 234 4 -1.1500000000000000e-01 -1.5416329676820197e+00 7.6072906615810321e-01 1.1416732231485669e+01 1 1 0
4412 234 2 1.1500000000000000e-01 -2.2631099232153362e+00 1.0062444057514179e+00 1.3483559183527666e+01 1 1 0
614 35 5 -1.1500000000000000e-01 -5.1704998153138693e+00 6.3488326367253025e+00 1.7094454652972175e+01 1 0 0
247 14 4 -1.1500000000000000e-01 -5.7661436667083272e+00 9.0426172732138310e-01 1.1236898364365565e+01 1 0 0
4419 235 2 1.1500000000000000e-01 -5.2022996083337087e+00 1.3658594012924461e+00 1.6566315392370569e+01 1 1 0
1025 55 4 -1.1500000000000000e-01 -9.8415705694112532e+00 6.7901133394407811e+00 1.8319077857869377e+01 1 0 0
608 34 1 -1.1500000000000000e-01 -1.3876797116312920e+00 6.2326987344970082e+00 1.2490219080253441e+01 1 0 0
616 35 4 -1.1500000000000000e-01 -5.8855967219689971e+00 6.4849986940156379e+00 1.9401298218188380e+01 1 0 0
612 34 2 1.1500000000000000e-01 -1.8167367797823948e+00 6.9230762834827573e+00 1.3270730160322994e+01 1 0 0
269 15 2 1.1500000000000000e-01 -1.0349139365684385e+01 9.4123606709433219e-02 1.8435813344623593e+01 1 0 0
1022 55 1 -1.1500000000000000e-01 -8.4961777179520741e+00 8.3583730592117718e+00 1.5293011025303796e+01 1 0 0
267 15 2 1.1500000000000000e-01 -8.2075825959088320e+00 1.8058972442652605e+00 1.4582534947642886e+01 1 0 0
1006 54 3 0.0000000000000000e+00 -4.7584750056245291e+00 7.7342483229353558e+00 1.0133126159830104e+01 1 0 0
1023 55 4 -1.1500000000000000e-01 -9.1234699620040072e+00 7.4340140990348287e+00 1.6112022385127929e+01 1 0 0
619 35 2 1.1500000000000000e-01 -5.6292992485058164e+00 7.2477727112969061e+00 1.6845874261849044e+01 1 0 0
1015 55 3 0.0000000000000000e+00 -8.4900145297074978e+00 8.7922260877095830e+00 1.8028798491581544e+01 1 0 0
1494 54 6 0.0000000000000000e+00 -4.5719558135670910e+00 8.3889947154744231e+00 1.0252160535976046e+01 1 0 0
1003 54 2 1.1500000000000000e-01 -6.7693309752242534e+00 7.2176752534337769e+00 1.2899762116879952e+01 1 0 0
1495 55 6 0.0000000000000000e+00 -8.8075531270506566e+00 8.3088308469718815e+00 1.7656545152915296e+01 1 0 0
999 54 1 -1.1500000000000000e-01 -6.0151075695396328e+00 7.6017970526026888e+00 1.2239493521586201e+01 1 0 0
602 34 2 1.1500000000000000e-01 -1.3871964687367058e+00 7.7039657459452249e+00 1.0912405978463372e+01 1 0 0
1024 55 3 0.0000000000000000e+00 -9.1654887401408001e+00 7.7137607201181169e+00 1.7487575901166796e+01 1 0 0
4415 235 3 0.0000000000000000e+00 -5.1302817454267826e+00 -2.1734480742097821e-03 1.8205623730130995e+01 1 1 0
1389 75 2 1.1500000000000000e-01 -3.1312476639747988e+00 8.8403443586363455e+00 1.6977095902696338e+01 1 0 0
340 19 2 1.1500000000000000e-01 -1.2740551644847713e+00 6.3186395466701906e-01 1.6236583578058326e+01 1 0 0
268 15 2 1.1500000000000000e-01 -9.5388267809376668e+00 4.4748873321190280e-01 1.6286575163028111e+01 1 0 0
995 54 7 -1.1500000000000000e-01 -5.4991368832636800e+00 8.8309160192319922e+00 1.2613687180262794e+01 1 0 0
251 14 2 1.1500000000000000e-01 -6.2269386305858534e+00 1.8417076157090581e-02 1.0790745737135698e+01 1 0 0
280 16 1 -1.1500000000000000e-01 -1.2638546623200261e+01 2.2655959953827391e+00 2.3117537196874213e+01 1 0 0
1042 56 3 0.0000000000000000e+00 -1.3592889669575831e+01 7.7827217150774484e+00 2.5251390294273499e+01 1 0 0
258 15 2 1.1500000000000000e-01 -1.0092531558794457e+01 3.1071679864517954e+00 2.1353405835380045e+01 1 0 0
634 36 4 -1.1500000000000000e-01 -1.0204919184576960e+01 6.3511021537919046e+00 2.6103328302760616e+01 1 0 0
4433 236 3 0.0000000000000000e+00 -9.5765436214165440e+00 8.5780790767603560e-02 2.5643563149896593e+01 1 1 0
257 15 1 -1.1500000000000000e-01 -1.0314093965684242e+01 1.5525682555464511e+00 1.9981082083686882e+01 1 0 0
284 16 1 -1.1500000000000000e-01 -1.2089805364327846e+01 3.4205144999199035e+00 2.3572305039075928e+01 1 0 0
279 16 2 1.1500000000000000e-01 -1.4958822303185881e+01 6.4686141959623444e-01 2.8142263024092600e+01 1 0 0
1047 56 2 1.1500000000000000e-01 -1.4849733964579995e+01 6.1288490931314357e+00 2.6082273424702958e+01 1 0 0
288 16 2 1.1500000000000000e-01 -1.1512961102091328e+01 3.9463169206059963e+00 2.2876797075337937e+01 1 0 0
271 16 7 -1.1500000000000000e-01 -1.3901686862218479e+01 2.5996492364220116e+00 2.8035661769111325e+01 1 0 0
272 16 5 -1.1500000000000000e-01 -1.3132560922162643e+01 3.4451556852278857e+00 2.7182298198966556e+01 1 0 0
273 16 3 0.0000000000000000e+00 -1.2971783168052468e+01 3.0550235898476208e+00 2.5793307164446361e+01 1 0 0
274 16 4 -1.1500000000000000e-01 -1.2290465948644165e+01 3.8994927979834189e+00 2.4893832189612390e+01 1 0 0
275 16 1 -1.1500000000000000e-01 -1.4304826536398037e+01 1.2940923088604530e+00 2.7516394345805601e+01 1 0 0
259 15 2 1.1500000000000000e-01 -8.4823478467492475e+00 4.5424538340843004e+00 1.9805549932574390e+01 1 0 0
277 16 2 1.1500000000000000e-01 -1.2907740443483805e+01 4.4379825451535559e+00 2.7547757879411414e+01 1 0 0
278 16 2 1.1500000000000000e-01 -1.1894211168588233e+01 4.8532031465950958e+00 2.5179305609151303e+01 1 0 0
261 15 2 1.1500000000000000e-01 -1.0809427179171479e+01 9.2276406949741352e-01 2.0721680098619348e+01 1 0 0
282 16 3 0.0000000000000000e+00 -1.3464333279897712e+01 1.8450336368600606e+00 2.5355113515169805e+01 1 0 0
1043 56 4 -1.1500000000000000e-01 -1.4384879685378971e+01 7.1166502215340550e+00 2.6258086318420585e+01 1 0 0
736 16 6 0.0000000000000000e+00 -1.3216265107254378e+01 2.3981173460469760e+00 2.5742352194472641e+01 1 0 0
632 36 5 -1.1500000000000000e-01 -9.2636043528513525e+00 6.0991445155661532e+00 2.3849515492148473e+01 1 0 0
636 36 2 1.1500000000000000e-01 -8.7859299255726118e+00 5.4933234214490785e+00 2.1939496214956122e+01 1 0 0
4438 236 2 1.1500000000000000e-01 -1.0707924443576729e+01 1.7363269901790370e+00 2.6297813855092574e+01 1 1 0
253 15 7 -1.1500000000000000e-01 -9.7740603837761064e+00 2.7887448706778000e+00 2.0403124139002021e+01 1 0 0
623 35 4 -1.1500000000000000e-01 -4.7808572561829195e+00 3.9642287841590713e+00 2.0013256504896869e+01 1 0 0
627 35 2 1.1500000000000000e-01 -5.5517339253968281e+00 4.3402726640285216e+00 2.1957001945938529e+01 1 0 0
644 36 1 -1.1500000000000000e-01 -1.0404357953308343e+01 5.9309996901835378e+00 2.7428830694438329e+01 1 0 0
631 36 7 -1.1500000000000000e-01 -8.5158602229867579e+00 5.3169372237093198e+00 2.2943172892268560e+01 1 0 0
635 36 1 -1.1500000000000000e-01 -7.8242256212615349e+00 4.1527895758110596e+00 2.3391306129760451e+01 1 0 0
628 35 2 1.1500000000000000e-01 -4.4195158945884847e+00 3.0180365600843246e+00 2.0276857124516820e+01 1 0 0
639 36 2 1.1500000000000000e-01 -7.1942412516692373e+00 3.5901253704687464e+00 2.2696739539927389e+01 1 0 0
283 16 4 -1.1500000000000000e-01 -1.4086126272739726e+01 9.4385208436271228e-01 2.6188427073181753e+01 1 0 0
4430 235 2 1.1500000000000000e-01 -6.6725554715518820e+00 1.1654629741960962e+00 2.0970748824607639e+01 1 1 0
4444 236 1 -1.1500000000000000e-01 -1.0254516183484135e+01 3.9560146341847041e-01 2.7907851972136225e+01 1 1 0
231 13 2 1.1500000000000000e-01 -1.6232231463803842e+01 2.2801323182552071e+00 2.9397482702881192e+01 1 0 -1
633 36 3 0.0000000000000000e+00 -9.4393295307973979e+00 5.6171664518411761e+00 2.5144371557388524e+01 1 0 0
4437 236 2 1.1500000000000000e-01 -1.0115339160766826e+01 1.3667229915279324e+00 2.4013996030488880e+01 1 1 0
640 36 1 -1.1500000000000000e-01 -9.8593322876323377e+00 4.7067377160576269e+00 2.7877052372215118e+01 1 0 0
641 36 4 -1.1500000000000000e-01 -8.9998171843991841e+00 4.0269975395017035e+00 2.7006008869280361e+01 1 0 0
642 36 3 0.0000000000000000e+00 -8.8314155486434842e+00 4.4769963648379321e+00 2.5661741186764328e+01 1 0 0
643 36 4 -1.1500000000000000e-01 -8.0368514408235683e+00 3.7089671737100742e+00 2.4737116982220723e+01 1 0 0
622 35 1 -1.1500000000000000e-01 -5.4207830448690721e+00 4.7426528498240135e+00 2.1027037278827166e+01 1 0 0
646 36 2 1.1500000000000000e-01 -8.4650447536006688e+00 3.0820958627583619e+00 2.7366271537052441e+01 1 0 0
647 36 2 1.1500000000000000e-01 -7.5800844378385097e+00 2.7537574788722461e+00 2.5006013439246203e+01 1 0 0
756 36 6 0.0000000000000000e+00 -9.2113838074444310e+00 4.9900488705163886e+00 2.5391617439057836e+01 1 0 0
281 16 4 -1.1500000000000000e-01 -1.3383681245333328e+01 1.4734687548526819e+00 2.3996404025338002e+01 1 0 0
4434 236 4 -1.1500000000000000e-01 -1.0244334742345728e+01 8.6268749026590497e-01 2.6582354298769904e+01 1 1 0
4436 236 2 1.1500000000000000e-01 -8.7900255621084291e+00 7.7735646478579765e-02 2.2283656778752100e+01 1 1 0
1045 56 2 1.1500000000000000e-01 -1.2374683826543198e+01 7.5230662424983183e+00 2.2011999094971589e+01 1 0 0
648 36 2 1.1500000000000000e-01 -1.1041401519273649e+01 6.5254575886037305e+00 2.8146669256518003e+01 1 0 0
4432 236 5 -1.1500000000000000e-01 -9.6057725042368265e+00 4.9081687278366903e-01 2.4272965052021281e+01 1 1 0
1039 56 2 1.1500000000000000e-01 -1.5240555122598124e+01 7.1263590666319985e+00 2.8276717390432566e+01 1 0 0
626 35 1 -1.1500000000000000e-01 -6.0397411371366916e+00 5.9313681252792740e+00 2.0686493842180408e+01 1 0 0
4448 236 2 1.1500000000000000e-01 -1.0792972784537994e+01 9.3732744826022052e-01 2.8702389828423712e+01 1 1 0
4426 235 1 -1.1500000000000000e-01 -6.0908122675136971e+00 4.8547941516690196e-01 2.0361737146623437e+01 1 1 0
276 16 2 1.1500000000000000e-01 -1.4180937993894517e+01 2.8901304029128330e+00 2.9096193141206655e+01 1 0 0
630 35 2 1.1500000000000000e-01 -6.6389481461429796e+00 6.4699896607003780e+00 2.1327672328642532e+01 1 0 0
1021 55 2 1.1500000000000000e-01 -1.0266458823167593e+01 6.3195899115998664e+00 2.0344226193717468e+01 1 0 0
637 36 2 1.1500000000000000e-01 -9.7086562794108389e+00 7.0624834409742157e+00 2.3633156615507492e+01 1 0 0
645 36 2 1.1500000000000000e-01 -9.9415234672671886e+00 4.3357032455502162e+00 2.8888562414527797e+01 1 0 0
638 36 2 1.1500000000000000e-01 -1.0543435872369873e+01 7.3165316534794957e+00 2.5772479087525159e+01 1 0 0
1017 55 1 -1.1500000000000000e-01 -9.8037836704194579e+00 6.9740953974174067e+00 1.9717942408079416e+01 1 0 0
1035 56 1 -1.1500000000000000e-01 -1.4617946083049429e+01 7.6344412771380039e+00 2.7543018295483947e+01 1 0 0
1018 55 2 1.1500000000000000e-01 -9.3328136798949082e+00 8.3737161345680953e+00 2.1290525764598687e+01 1 0 0
1496 56 6 0.0000000000000000e+00 -1.3377503452032823e+01 8.4280118715170111e+00 2.5464264357912235e+01 1 0 0
1040 56 1 -1.1500000000000000e-01 -1.2606423407668158e+01 7.9899878270558986e+00 2.3003869272437520e+01 1 0 0
1041 56 4 -1.1500000000000000e-01 -1.3402187907008768e+01 7.2365011877235998e+00 2.3967254662902899e+01 1 0 0
1407 76 2 1.1500000000000000e-01 -8.1632294367880824e+00 8.7135834208342775e+00 2.4360582258897189e+01 1 0 0
1013 55 7 -1.1500000000000000e-01 -9.2522323789495591e+00 8.1688220911566241e+00 2.0219167834378712e+01 1 0 0
287 16 2 1.1500000000000000e-01 -1.4381184894152730e+01 -3.8617913525181055e-02 2.5890413458223044e+01 1 0 0
285 16 2 1.1500000000000000e-01 -1.2565343792491012e+01 1.8953829891685900e+00 2.2119247149021149e+01 1 0 0
1031 56 7 -1.1500000000000000e-01 -1.4093406092789140e+01 8.9141046761335296e+00 2.7837541725707343e+01 1 0 0
991 53 2 1.1500000000000000e-01 -1.7033499625933846e+01 8.8162621048602325e+00 2.9371201140501800e+01 1 0 -1
1046 56 2 1.1500000000000000e-01 -1.3659384108384016e+01 6.2144983112789189e+00 2.3776386195236579e+01 1 0 0
979 53 3 0.0000000000000000e+00 -1.5647077019274147e-01 9.1630973957620458e+00 3.3090796362217536e+00 1 0 0
980 53 4 -1.1500000000000000e-01 5.8625646513293339e-01 1.0048381607787483e+01 2.5349034418319683e+00 1 0 0
984 53 2 1.1500000000000000e-01 1.0270041913978618e+00 1.0960416045561029e+01 2.8439646696633440e+00 1 0 0
1361 74 2 1.1500000000000000e-01 -1.1089295102737635e+00 1.3324914567547395e+01 8.4583222495318893e+00 1 0 0
990 53 1 -1.1500000000000000e-01 5.3636356881046898e-01 9.9751978976129028e+00 1.1349395593718379e+00 1 0 0
2253 93 6 0.0000000000000000e+00 -3.6206091646129202e-01 1.4269297218868948e+01 2.9544635754771233e+00 1 0 0
994 53 2 1.1500000000000000e-01 1.1612024942251227e+00 1.0554064140007499e+01 4.6150961593819018e-01 1 0 0
1741 93 1 -1.1500000000000000e-01 -1.6257160248561739e+00 1.3531544523396036e+01 4.9198751468207806e+00 1 0 0
978 53 5 -1.1500000000000000e-01 -1.8093557481140410e-01 9.2498561441062641e+00 4.7514591644926227e+00 1 0 0
983 53 2 1.1500000000000000e-01 3.5025919228796543e-01 1.0052458801508562e+01 5.1994266867505408e+00 1 0 0
1012 54 2 1.1500000000000000e-01 -2.6000682998621780e+00 9.6927060365063049e+00 7.6078396280216678e+00 1 0 0
1363 74 2 1.1500000000000000e-01 1.0384820041692073e+00 9.4755000587185929e+00 7.9057298718496440e+00 1 0 0
1745 93 2 1.1500000000000000e-01 -2.2562383825726586e+00 1.2942390485876363e+01 5.6063937902108947e+00 1 0 0
1742 93 2 1.1500000000000000e-01 -1.1989157637737846e+00 1.5141029893885781e+01 6.2864088236293494e+00 1 0 0
1338 73 5 -1.1500000000000000e-01 3.7119406601293834e+00 1.2298997202330325e+01 1.6388795995776817e+00 1 0 0
1339 73 3 0.0000000000000000e+00 3.5752623589486205e+00 1.1916381912236714e+01 3.0227084935173445e+00 1 0 0
1340 73 4 -1.1500000000000000e-01 2.8370366620950587e+00 1.2780462624323386e+01 3.9038506025029500e+00 1 0 0
1341 73 1 -1.1500000000000000e-01 4.8350812430593608e+00 1.0185533640794908e+01 1.2492608853771157e+00 1 0 0
1337 73 7 -1.1500000000000000e-01 4.4165482000004266e+00 1.1471625882647579e+01 7.7445456901483789e-01 1 0 0
1343 73 2 1.1500000000000000e-01 3.4026339808384014e+00 1.3303230360900592e+01 1.2463635208064170e+00 1 0 0
1348 73 3 0.0000000000000000e+00 4.0106546460164472e+00 1.0617823252213007e+01 3.4538142520994923e+00 1 0 0
1349 73 4 -1.1500000000000000e-01 4.6702064766679134e+00 9.7894039864722835e+00 2.5689925742458088e+00 1 0 0
1513 73 6 0.0000000000000000e+00 3.7599741633296206e+00 1.1220455895172277e+01 3.1310569586925818e+00 1 0 0
1356 74 5 -1.1500000000000000e-01 -6.8946806545792860e-01 1.2389924276492623e+01 8.8246665808710407e+00 1 0 0
1354 73 2 1.1500000000000000e-01 1.9559380360486913e+00 1.3135119942024485e+01 5.7125537511761282e+00 1 0 0
1346 73 1 -1.1500000000000000e-01 2.8962594493484892e+00 1.1081222741793580e+01 5.6371341713857008e+00 1 0 0
1347 73 4 -1.1500000000000000e-01 3.6539471007420676e+00 1.0248625115730224e+01 4.7339350602126444e+00 1 0 0
1350 73 1 -1.1500000000000000e-01 2.5424559298309037e+00 1.2376674779603791e+01 5.1760360684358835e+00 1 0 0
1351 73 2 1.1500000000000000e-01 2.5844172845464941e+00 1.0730109554276897e+01 6.6206488917744180e+00 1 0 0
1352 73 2 1.1500000000000000e-01 3.8707781770626792e+00 9.2733736246292562e+00 5.2279131952643212e+00 1 0 0
1345 73 2 1.1500000000000000e-01 5.4520306585155787e+00 9.6376394053919725e+00 5.9637589179035821e-01 1 0 0
1355 74 7 -1.1500000000000000e-01 -3.5810512483061885e-02 1.1440133013192336e+01 8.0134901329994488e+00 1 0 0
1359 74 1 -1.1500000000000000e-01 5.8455262344817083e-01 1.0269051814600392e+01 8.5080019222008048e+00 1 0 0
1360 74 2 1.1500000000000000e-01 -1.0110894717886687e-01 1.1544604672529195e+01 6.9207727246877671e+00 1 0 0
1747 93 4 -1.1500000000000000e-01 -6.1927948440787328e-01 1.3238474837205304e+01 1.2767543236145604e+00 1 0 0
1748 93 3 0.0000000000000000e+00 -7.2674396988488021e-01 1.3760086893077720e+01 2.6203924164397341e+00 1 0 0
2105 113 2 1.1500000000000000e-01 5.5181584219600328e+00 1.5525066928145430e+01 1.1076873740335156e+00 1 0 0
1746 93 1 -1.1500000000000000e-01 1.1417616863835306e-01 1.3926241025880268e+01 3.2497783122064472e-01 1 0 0
2127 114 4 -1.1500000000000000e-01 6.3872237059215564e-01 1.5532577493050635e+01 9.4909775208127041e+00 1 0 0
1749 93 4 -1.1500000000000000e-01 -1.4618735638963614e+00 1.3041015523858063e+01 3.6079783961786198e+00 1 0 0
1753 93 2 1.1500000000000000e-01 -1.9181679499707867e+00 1.2142958855934642e+01 3.4251576633224619e+00 1 0 0
1344 73 2 1.1500000000000000e-01 2.4590152598738100e+00 1.3680837109139830e+01 3.4964686552899420e+00 1 0 0