LAMMPS (15 May 2015)
Reading data file ...
  triclinic box = (-0.107635 -0.0404339 -0.357111) to (41.3876 35.9384 29.5551) with tilt (-0.0672341 -17.0362 -0.0417078)
  5 by 4 by 3 MPI processor grid
  reading atoms ...
  4560 atoms
  reading velocities ...
  4560 velocities
  scanning bonds ...
  3 = max bonds/atom
  scanning angles ...
  3 = max angles/atom
  scanning dihedrals ...
  8 = max dihedrals/atom
  scanning impropers ...
  1 = max impropers/atom
  reading bonds ...
  5040 bonds
  reading angles ...
  7200 angles
  reading dihedrals ...
  10560 dihedrals
  reading impropers ...
  2400 impropers
Finding 1-2 1-3 1-4 neighbors ...
 Special bond factors lj:   0          0          0         
 Special bond factors coul: 0          0          0         
  4 = max # of 1-2 neighbors
  8 = max # of 1-3 neighbors
  20 = max # of 1-4 neighbors
  16 = max # of special neighbors
4560 atoms in group all
720 atoms in group C
480 atoms in group S
1920 atoms in group H
720 atoms in group Si
240 atoms in group Na
240 atoms in group Ba
240 atoms in group O
4560 atoms in group naphthalene
1200 atoms in group fixed
960 atoms in group CO
Setting atom values ...
  720 settings made for charge
Setting atom values ...
  720 settings made for charge
Setting atom values ...
  1920 settings made for charge
Setting atom values ...
  480 settings made for charge
Setting atom values ...
  240 settings made for charge
Setting atom values ...
  240 settings made for charge
Setting atom values ...
  240 settings made for charge
Finding 1-2 1-3 1-4 neighbors ...
 Special bond factors lj:   0          0          0.5       
 Special bond factors coul: 0          0          0.5       
  4 = max # of 1-2 neighbors
  8 = max # of 1-3 neighbors
  20 = max # of 1-4 neighbors
  16 = max # of special neighbors
PPPM initialization ...
  G vector (1/distance) = 0.246499
  grid = 16 16 20
  stencil order = 5
  estimated absolute RMS force accuracy = 0.00242397
  estimated relative force accuracy = 7.2997e-06
  using double precision FFTs
  3d grid and FFT values/proc = 1053 112
Neighbor list info ...
  4 neighbor list requests
  update every 1 steps, delay 0 steps, check yes
  master list distance cutoff = 12
Setting up run ...
Memory usage per processor = 13.288 Mbytes
Step Temp Density PotEng E_vdwl E_tail E_coul E_long Press Volume Xy Xz Yz E_mol E_bond E_angle E_dihed 14[1] 14[2] 14[3] msd[4] msd2[4] msd3[4] msd4[4] naphthal Cella Cellb Cellc CellAlpha CellBeta CellGamma 27[2] 27[3] 28[1] 28[2] 28[3] 
       0          298    1.2509986    2087.5869   -1173.1339   -211.49952    2070.8667    -2308.979    790.88859    44657.537 -0.067234084   -17.036218 -0.041707817     3498.833    1521.0094     935.4334    889.67826    28.379601    18.846571    14.337846 2.3535127e-29 2.3910021e-29 2.7538641e-29 3.294809e-29          298     41.49527    35.978931    34.423473    90.016431    119.66323    90.107069    18.846182    14.337739    28.379557    18.849013    14.339638 
    1000    296.29845    1.2509986    1916.1082   -1212.9924   -211.49952    2067.8098   -2309.6076    181.65166    44657.537 -0.067234084   -17.036218 -0.041707817    3370.8984    1500.8771    880.52485    838.34207    28.382426    18.845275    14.337709 0.0028200287 0.0028177274 0.0027387786 0.0027259107    296.29845     41.49527    35.978931    34.423473    90.016431    119.66323    90.107069     18.84499    14.337205    28.381743    18.846644    14.338065 
    2000    300.67928    1.2509986    1919.4778   -1194.2116   -211.49952    2072.6519    -2309.331    518.20328    44657.537 -0.067234084   -17.036218 -0.041707817    3350.3686    1475.6737    899.07569    832.41171    28.378616     18.84762    14.337083 0.0028252944 0.0028243351 0.0030249125 0.0030182574    300.67928     41.49527    35.978931    34.423473    90.016431    119.66323    90.107069    18.847137     14.33759    28.378039    18.850748    14.340797 
    3000    296.38124    1.2509986    1999.6314   -1229.6961   -211.49952    2071.8434   -2309.7171   -1129.6687    44657.537 -0.067234084   -17.036218 -0.041707817    3467.2012    1538.6593    905.05521    868.59761    28.378425    18.845881    14.336884 0.0028585238 0.0028567004 0.0027219312 0.0027116174    296.38124     41.49527    35.978931    34.423473    90.016431    119.66323    90.107069    18.847359    14.337217    28.382682    18.849742    14.339519 
    4000    295.33418    1.2509986    1969.8697   -1213.2492   -211.49952    2074.6248   -2309.1926    114.77228    44657.537 -0.067234084   -17.036218 -0.041707817    3417.6867    1472.2661    924.24711    868.46208     28.38078    18.846091    14.338003 0.0029871263 0.0029847487 0.0029504119 0.0029387856    295.33418     41.49527    35.978931    34.423473    90.016431    119.66323    90.107069    18.847693    14.337434      28.3794    18.849943    14.336362 
    5000    301.66391    1.2509986    1987.5601   -1195.5373   -211.49952    2072.3709   -2309.8813    1112.6712    44657.537 -0.067234084   -17.036218 -0.041707817    3420.6078    1522.7195    861.77722    887.39431    28.379999     18.84471     14.33677  0.002963396 0.0029617158 0.0031097495 0.0031031131    301.66391     41.49527    35.978931    34.423473    90.016431    119.66323    90.107069    18.845914    14.336582    28.379723    18.847798    14.337372 
    6000    292.21622    1.2509986    1933.4219   -1204.2577   -211.49952    2075.8433   -2309.0562   -1.9743964    44657.537 -0.067234084   -17.036218 -0.041707817    3370.8925    1522.4985    857.53734    841.78047    28.379516     18.84639     14.33771 0.0028498898 0.0028464863 0.0029406735 0.0029349346    292.21622     41.49527    35.978931    34.423473    90.016431    119.66323    90.107069    18.845599     14.33877    28.381717    18.847978    14.339648 
    7000    298.05886    1.2509986     1993.783   -1222.4821   -211.49952    2071.7659   -2309.4106    791.05687    44657.537 -0.067234084   -17.036218 -0.041707817    3453.9098    1513.3154    896.17208    888.85463    28.378257    18.845485    14.337516 0.0027219179 0.0027194405 0.0027556212 0.0027454896    298.05886     41.49527    35.978931    34.423473    90.016431    119.66323    90.107069    18.845534    14.338909    28.377732    18.848793    14.342237 
    8000    293.19111    1.2509986    2009.9057   -1205.8571   -211.49952    2069.9413   -2309.7483   -824.89091    44657.537 -0.067234084   -17.036218 -0.041707817    3455.5699    1527.8577    945.25822     832.4364    28.379765     18.84543    14.336719 0.0030540261 0.0030534173 0.0029147261 0.0029083183    293.19111     41.49527    35.978931    34.423473    90.016431    119.66323    90.107069     18.84686    14.337443    28.381788    18.848394     14.34066 
    9000    294.90959    1.2509986    1961.5226   -1206.5135   -211.49952    2071.6658   -2310.0012    1073.4029    44657.537 -0.067234084   -17.036218 -0.041707817    3406.3715    1519.0285    900.91738    838.96322     28.38087    18.846136    14.337325 0.0029189958 0.0029187591 0.0028090924 0.0028026672    294.90959     41.49527    35.978931    34.423473    90.016431    119.66323    90.107069    18.846461    14.337423     28.38059    18.846929    14.340646 
   10000    298.17339    1.2509986     1910.628   -1207.8538   -211.49952    2074.6261   -2309.4071   -179.40594    44657.537 -0.067234084   -17.036218 -0.041707817    3353.2628    1526.6318    863.01159    820.77721    28.380455    18.845692    14.338036 0.0027311194 0.0027295466 0.0027175277 0.0027106214    298.17339     41.49527    35.978931    34.423473    90.016431    119.66323    90.107069    18.846931    14.337702    28.378653    18.847718    14.337537 
   11000     301.4847    1.2509986    1906.7853   -1199.0584   -211.49952    2070.7643   -2309.3179    954.86553    44657.537 -0.067234084   -17.036218 -0.041707817    3344.3973    1446.2294    866.69488    874.63561    28.378562    18.846576    14.337645  0.002888773 0.0028881483  0.002900364 0.0028875969     301.4847     41.49527    35.978931    34.423473    90.016431    119.66323    90.107069    18.846647     14.33816    28.376913    18.848643    14.337263 
   12000    295.49689    1.2509986    1954.8397    -1203.027   -211.49952    2071.2519   -2309.6168   -329.52728    44657.537 -0.067234084   -17.036218 -0.041707817    3396.2317    1518.1772    883.79783    849.07458    28.379158    18.845846    14.337365 0.0027722374 0.0027712881 0.0027660266 0.0027451954    295.49689     41.49527    35.978931    34.423473    90.016431    119.66323    90.107069    18.846137      14.3375    28.377853     18.84528    14.337639 
   13000    295.44243    1.2509986    2007.3477   -1216.7449   -211.49952    2075.9425   -2309.5537    190.53638    44657.537 -0.067234084   -17.036218 -0.041707817    3457.7037    1524.0903    894.28982    887.55884    28.378969    18.845159    14.337306 0.0030177721 0.0030173084 0.0033207461 0.0033098962    295.44243     41.49527    35.978931    34.423473    90.016431    119.66323    90.107069    18.846751    14.338032    28.382368    18.848994    14.341354 
   14000    299.33056    1.2509986    1993.0364   -1202.0607   -211.49952    2074.1896   -2309.0991    2198.2175    44657.537 -0.067234084   -17.036218 -0.041707817    3430.0067    1537.1041    885.18513     857.4601    28.379012    18.845653    14.337238 0.0028554913 0.0028547946 0.0027741688 0.0027735766    299.33056     41.49527    35.978931    34.423473    90.016431    119.66323    90.107069     18.84664    14.338356    28.379709    18.848319    14.339934 
   15000    302.70169    1.2509986    1974.6152   -1185.9456   -211.49952    2074.7785   -2309.1668    1132.6048    44657.537 -0.067234084   -17.036218 -0.041707817     3394.949    1495.1897     914.8945    837.29708    28.377644    18.846136    14.337258 0.0028435556 0.0028394659 0.0028152726 0.0028026521    302.70169     41.49527    35.978931    34.423473    90.016431    119.66323    90.107069    18.846986    14.337242    28.377116    18.850705    14.341589 
   16000    291.32169    1.2509986    1984.5853   -1196.7226   -211.49952    2074.3093   -2309.4774    686.36164    44657.537 -0.067234084   -17.036218 -0.041707817     3416.476     1529.099    892.32499    852.59067    28.381544    18.846248    14.337833 0.0028314873 0.0028301287 0.0028526946 0.0028337816    291.32169     41.49527    35.978931    34.423473    90.016431    119.66323    90.107069    18.846645    14.337866    28.375365    18.849336    14.338523 
   17000     297.8038    1.2509986    2017.0221   -1206.9547   -211.49952    2069.3214   -2309.6994    1135.7075    44657.537 -0.067234084   -17.036218 -0.041707817    3464.3549    1557.1423    907.54269    849.79873    28.380719    18.844898     14.33782 0.0028977552 0.0028965357 0.0032913309 0.0032782243     297.8038     41.49527    35.978931    34.423473    90.016431    119.66323    90.107069    18.846668    14.337951    28.381297    18.850428    14.336796 
   18000    293.31338    1.2509986     2096.709     -1192.08   -211.49952    2072.2931   -2309.0746   -656.52631    44657.537 -0.067234084   -17.036218 -0.041707817    3525.5704    1556.2538    920.24846    896.18755    28.380295    18.845912    14.338047 0.0028077717 0.0028062834 0.0027991881 0.0027922482    293.31338     41.49527    35.978931    34.423473    90.016431    119.66323    90.107069    18.846372     14.33839    28.381924    18.849556     14.33862 
   19000    298.68665    1.2509986    1912.5573   -1212.1382   -211.49952    2072.8495   -2309.3527    682.81053    44657.537 -0.067234084   -17.036218 -0.041707817    3361.1987    1502.3763    899.25821     817.9058    28.377882    18.844947    14.336694 0.0029240579 0.0029221964 0.0029303715 0.0029261845    298.68665     41.49527    35.978931    34.423473    90.016431    119.66323    90.107069    18.845739    14.336661    28.380235    18.850198    14.341162 
   20000    300.76237    1.2509986    1928.8638   -1204.3764   -211.49952    2072.2064   -2309.4507    392.46922    44657.537 -0.067234084   -17.036218 -0.041707817    3370.4845    1535.3023    892.74045    800.99576    28.378067    18.847592    14.337153 0.0028548817 0.0028522073 0.0028692863 0.0028631784    300.76237     41.49527    35.978931    34.423473    90.016431    119.66323    90.107069    18.847216    14.337868    28.379165    18.848349    14.341986 
   21000    297.22161    1.2509986    2042.7737    -1205.859   -211.49952    2071.9022   -2309.5557   -1069.6502    44657.537 -0.067234084   -17.036218 -0.041707817    3486.2862    1587.4728    879.29914    866.68718    28.379557    18.846952    14.337493 0.0027815021 0.0027804169 0.0028844331 0.0028730524    297.22161     41.49527    35.978931    34.423473    90.016431    119.66323    90.107069    18.846849     14.33843    28.377896    18.849705    14.342492 
   22000    293.56023    1.2509986     1950.242   -1199.4654   -211.49952    2073.3244   -2309.2925    418.80902    44657.537 -0.067234084   -17.036218 -0.041707817    3385.6755    1522.2177    882.47412    832.61618    28.380933     18.84659    14.338144 0.0029796351 0.0029791336 0.0029268077 0.0029264033    293.56023     41.49527    35.978931    34.423473    90.016431    119.66323    90.107069    18.846549    14.338303    28.380148    18.849043    14.339869 
   23000    296.34434    1.2509986    1986.4294   -1197.2472   -211.49952    2074.1938   -2309.6182    1792.5354    44657.537 -0.067234084   -17.036218 -0.041707817     3419.101    1503.7297    890.38403    877.14434    28.379124    18.845541    14.337074 0.0028666146 0.0028658809 0.0030676496 0.0030617063    296.34434     41.49527    35.978931    34.423473    90.016431    119.66323    90.107069    18.845702    14.337566    28.378208     18.84764    14.341134 
   24000    302.51661    1.2509986    2030.3356   -1196.9346   -211.49952    2070.5263   -2309.4528    102.49643    44657.537 -0.067234084   -17.036218 -0.041707817    3466.1967    1512.9977    924.79006    874.20657    28.379554    18.845573    14.337901  0.002791987 0.0027914636  0.002686033 0.0026824063    302.51661     41.49527    35.978931    34.423473    90.016431    119.66323    90.107069    18.846904    14.337707    28.377995    18.848033    14.340117 
   25000    300.69505    1.2509986    2039.8712   -1210.8341   -211.49952    2071.0179   -2309.3509   -1050.0147    44657.537 -0.067234084   -17.036218 -0.041707817    3489.0382    1533.6047    915.35604    893.22106    28.378392    18.847363    14.337008 0.0027891692 0.0027879967 0.0026584663  0.002650359    300.69505     41.49527    35.978931    34.423473    90.016431    119.66323    90.107069    18.847105    14.337307    28.382185    18.850101    14.339525 
   26000    300.32128    1.2509986    2021.9735   -1178.7994   -211.49952     2071.632   -2309.3441    2331.3447    44657.537 -0.067234084   -17.036218 -0.041707817     3438.485    1540.9696    887.46332    862.29552    28.378785    18.845415    14.337297 0.0028210453 0.0028207977 0.0029292708 0.0029246875    300.32128     41.49527    35.978931    34.423473    90.016431    119.66323    90.107069    18.846191    14.337716    28.379108    18.847714     14.34128 
   27000    299.92272    1.2509986    1950.2613   -1201.9488   -211.49952    2069.0912   -2309.3838   -441.05277    44657.537 -0.067234084   -17.036218 -0.041707817    3392.5026    1515.0906    884.09428    846.67522    28.377423     18.84558    14.336389 0.0029781947 0.0029777233 0.0029597422 0.0029494281    299.92272     41.49527    35.978931    34.423473    90.016431    119.66323    90.107069    18.846297    14.337082    28.378975    18.848488    14.336524 
   28000     299.5584    1.2509986    1957.2212   -1220.2063   -211.49952    2072.3235   -2309.2852   -76.580712    44657.537 -0.067234084   -17.036218 -0.041707817    3414.3892    1548.1252    911.08566    816.50151     28.38008    18.846963    14.337515 0.0029093567 0.0029062053 0.0030650666 0.0030570748     299.5584     41.49527    35.978931    34.423473    90.016431    119.66323    90.107069    18.847623    14.337215    28.381943    18.849977    14.340807 
   29000    296.81843    1.2509986     2042.028   -1218.8426   -211.49952    2072.6686   -2309.5086   -649.25597    44657.537 -0.067234084   -17.036218 -0.041707817    3497.7106    1522.0206    918.30666    901.55623    28.379542    18.843903    14.337121 0.0029545668 0.0029536496  0.003061485 0.0030504781    296.81843     41.49527    35.978931    34.423473    90.016431    119.66323    90.107069    18.845381    14.337452    28.379034    18.846408    14.341626 
   30000    301.15856    1.2509986    1947.9979   -1231.4094   -211.49952    2074.0243   -2309.5878   -1333.9781    44657.537 -0.067234084   -17.036218 -0.041707817    3414.9707    1517.7045    899.17729    852.12758    28.377546    18.844427    14.336668 0.0028093684 0.0028026424 0.0027927108 0.0027836231    301.15856     41.49527    35.978931    34.423473    90.016431    119.66323    90.107069    18.846012    14.336619    28.379524    18.846117    14.340476 
   31000    302.05718    1.2509986    1956.2062   -1211.1785   -211.49952    2074.7772   -2308.7853   -151.25379    44657.537 -0.067234084   -17.036218 -0.041707817    3401.3928    1509.9589    869.58129    868.11439    28.379434    18.845747    14.337389 0.0027186524 0.0027185878 0.0026319598 0.0026316746    302.05718     41.49527    35.978931    34.423473    90.016431    119.66323    90.107069    18.845947    14.337827     28.37983    18.848616    14.339869 
   32000     306.3138    1.2509986    1956.5011   -1208.5868   -211.49952    2072.4467   -2309.7094    264.19268    44657.537 -0.067234084   -17.036218 -0.041707817    3402.3506    1499.5853    887.39362    865.50606    28.376621    18.847219     14.33645 0.0029417204 0.0029387783 0.0029807406 0.0029667763     306.3138     41.49527    35.978931    34.423473    90.016431    119.66323    90.107069    18.847542    14.338032    28.378767    18.849704    14.343225 
   33000    292.45859    1.2509986    1986.8274     -1187.06   -211.49952    2074.8337   -2309.0912    929.49111    44657.537 -0.067234084   -17.036218 -0.041707817    3408.1449    1511.0839    908.69266    838.70397    28.378594    18.846099     14.33713 0.0028620299 0.0028607607 0.0029009941 0.0028950013    292.45859     41.49527    35.978931    34.423473    90.016431    119.66323    90.107069    18.846929    14.337108    28.378416    18.848886      14.3418 
   34000    296.05894    1.2509986    1992.3521   -1189.2396   -211.49952    2072.2275   -2309.2979    1153.9816    44657.537 -0.067234084   -17.036218 -0.041707817    3418.6622    1501.4149    919.00241    848.74192    28.380383    18.846219    14.337996 0.0027993207 0.0027990594 0.0029924359 0.0029890119    296.05894     41.49527    35.978931    34.423473    90.016431    119.66323    90.107069    18.846592    14.337439    28.380684    18.849303      14.3382 
   35000    292.49296    1.2509986    1912.6977   -1223.1616   -211.49952    2073.3895   -2309.5147     6.138998    44657.537 -0.067234084   -17.036218 -0.041707817    3371.9844    1488.3751    901.13925    834.97242    28.381409    18.845149    14.337838 0.0029267403 0.0029254936 0.0029278638 0.0029228375    292.49296     41.49527    35.978931    34.423473    90.016431    119.66323    90.107069    18.847257    14.337569    28.377384    18.849012     14.34019 
   36000    299.56834    1.2509986    2018.4647   -1199.1901   -211.49952    2071.2869   -2309.4151    508.77075    44657.537 -0.067234084   -17.036218 -0.041707817     3455.783    1526.9529    912.81605    867.09919    28.381346    18.846257    14.338324 0.0029274418 0.0029269652 0.0027302098 0.0027283899    299.56834     41.49527    35.978931    34.423473    90.016431    119.66323    90.107069    18.846789    14.337813    28.379936     18.85014    14.339001 
   37000    302.71958    1.2509986    1976.7135   -1185.8321   -211.49952     2072.416    -2309.562    246.69031    44657.537 -0.067234084   -17.036218 -0.041707817    3399.6916     1534.336    910.42742    813.83411    28.378422    18.845304    14.337082 0.0028001124 0.0027987582  0.002653644  0.002653079    302.71958     41.49527    35.978931    34.423473    90.016431    119.66323    90.107069    18.845773    14.337576    28.379449    18.848424    14.339184 
   38000    301.11528    1.2509986     2042.947   -1181.2076   -211.49952    2074.7936   -2309.1917    1596.2933    44657.537 -0.067234084   -17.036218 -0.041707817    3458.5527    1512.1969    916.80313    875.71938    28.379337     18.84573    14.337019  0.002827334 0.0028261736 0.0027112314 0.0027085619    301.11528     41.49527    35.978931    34.423473    90.016431    119.66323    90.107069    18.846454    14.337822    28.380699    18.849265    14.338498 
   39000    298.62126    1.2509986     1892.236   -1219.6666   -211.49952    2075.0096   -2309.5024   -735.42896    44657.537 -0.067234084   -17.036218 -0.041707817    3346.3954    1484.6624    898.03277    820.70621     28.37826    18.846631    14.337649 0.0028926408 0.0028901432 0.0029600872 0.0029438805    298.62126     41.49527    35.978931    34.423473    90.016431    119.66323    90.107069    18.845476    14.337633    28.380773    18.847392    14.343116 
   40000    302.75815    1.2509986    2073.0619   -1185.0881   -211.49952    2073.9182   -2309.6019    1076.2125    44657.537 -0.067234084   -17.036218 -0.041707817    3493.8338    1531.2227    911.26419    891.43905    28.379309    18.844288    14.337652 0.0029107241 0.0029102495 0.0028137683 0.0028064068    302.75815     41.49527    35.978931    34.423473    90.016431    119.66323    90.107069     18.84557    14.337483    28.376938    18.848345    14.339877 
   41000     302.3127    1.2509986    1925.5621   -1195.2404   -211.49952    2071.3226   -2309.7601    1965.7437    44657.537 -0.067234084   -17.036218 -0.041707817      3359.24     1467.177    875.32634    864.37415    28.378751    18.847091     14.33724 0.0028304486 0.0028301221 0.0028545502 0.0028544805     302.3127     41.49527    35.978931    34.423473    90.016431    119.66323    90.107069    18.846664    14.337805    28.379812       18.849    14.339703 
   42000    297.62317    1.2509986    1952.9196   -1192.5695   -211.49952    2075.2363   -2309.4316    2535.5606    44657.537 -0.067234084   -17.036218 -0.041707817    3379.6845    1471.1358    868.00051    890.95469    28.379156    18.845968    14.336555 0.0028057314 0.0028044488 0.0027494548 0.0027448545    297.62317     41.49527    35.978931    34.423473    90.016431    119.66323    90.107069    18.845901    14.337537    28.380134    18.847118    14.340459 
   43000    305.69905    1.2509986    1968.7925   -1194.2729   -211.49952     2074.587   -2309.4395    1325.2251    44657.537 -0.067234084   -17.036218 -0.041707817    3397.9179    1496.7829    870.16608    875.77214    28.380134    18.846867    14.338009 0.0029494498 0.0029485411 0.0029534791 0.0029511475    305.69905     41.49527    35.978931    34.423473    90.016431    119.66323    90.107069    18.846812    14.338366    28.379166    18.850484    14.339764 
   44000    298.33921    1.2509986    2058.7073   -1221.0939   -211.49952    2070.4275   -2309.1738   -1183.1849    44657.537 -0.067234084   -17.036218 -0.041707817    3518.5476    1563.8395    912.79712     883.7145    28.379641    18.846392    14.337457 0.0028440084 0.0028409225  0.002982873 0.0029647225    298.33921     41.49527    35.978931    34.423473    90.016431    119.66323    90.107069     18.84791    14.337477      28.3765    18.851897     14.34034 
   45000    304.55702    1.2509986    1969.0367   -1180.9979   -211.49952    2068.9337   -2309.5901    1059.0315    44657.537 -0.067234084   -17.036218 -0.041707817     3390.691    1507.9202     869.3494     861.1821    28.380171    18.846176    14.337834  0.002911978 0.0029115275 0.0029233735 0.0029227632    304.55702     41.49527    35.978931    34.423473    90.016431    119.66323    90.107069     18.84667    14.337671    28.378887    18.849082    14.340036 
   46000    299.18718    1.2509986    1962.6171   -1184.7319   -211.49952    2071.6438   -2309.3225    1793.6924    44657.537 -0.067234084   -17.036218 -0.041707817    3385.0277    1474.5308    856.98881    897.80574    28.378432    18.844451    14.337791 0.0028855387 0.0028838187 0.0029606112 0.0029423154    299.18718     41.49527    35.978931    34.423473    90.016431    119.66323    90.107069    18.846122    14.338363     28.37546    18.850242    14.339552 
   47000     300.3956    1.2509986    1912.6721   -1233.6828   -211.49952    2072.5547    -2309.628   -1606.1287    44657.537 -0.067234084   -17.036218 -0.041707817    3383.4282    1534.1313     863.7913    838.60814    28.380074      18.8473    14.337511 0.0028974945 0.0028974913 0.0029098499 0.0029085538     300.3956     41.49527    35.978931    34.423473    90.016431    119.66323    90.107069    18.846228    14.337715    28.379448    18.850063    14.339211 
   48000     302.4643    1.2509986    2025.3372   -1189.6197   -211.49952     2071.488   -2309.3987    615.56605    44657.537 -0.067234084   -17.036218 -0.041707817    3452.8676    1510.0122    915.00871    877.62298    28.379248    18.844636    14.336733 0.0028314114 0.0028290589 0.0030861535 0.0030670706     302.4643     41.49527    35.978931    34.423473    90.016431    119.66323    90.107069    18.845166    14.336615     28.37954    18.844987    14.337941 
   49000    299.30494    1.2509986    1974.4336   -1171.7168   -211.49952    2068.4451   -2309.4544    2714.5186    44657.537 -0.067234084   -17.036218 -0.041707817    3387.1597    1462.9491    909.06772    864.36734    28.378129    18.844578     14.33685 0.0027922806 0.0027897171 0.0028571758 0.0028550779    299.30494     41.49527    35.978931    34.423473    90.016431    119.66323    90.107069    18.846983    14.337661    28.378856    18.848008    14.340411 
   50000    298.87108    1.2509986    2024.1434   -1211.2575   -211.49952    2074.7603   -2309.2662   -11.143637    44657.537 -0.067234084   -17.036218 -0.041707817    3469.9068    1521.4872    918.89488    881.58102    28.378738    18.847115    14.336729 0.0028789625  0.002875171  0.002962133  0.002952144    298.87108     41.49527    35.978931    34.423473    90.016431    119.66323    90.107069    18.846448    14.336624     28.37666    18.847903     14.33903 
   51000    292.23472    1.2509986    1911.8316   -1211.9407   -211.49952    2071.7215   -2309.3374    -193.8563    44657.537 -0.067234084   -17.036218 -0.041707817    3361.3881    1479.8023    869.69185    860.86453      28.3801      18.8461     14.33765 0.0028963631 0.0028956009 0.0029938984 0.0029865433    292.23472     41.49527    35.978931    34.423473    90.016431    119.66323    90.107069    18.846707    14.338435    28.379334    18.847286    14.341717 
   52000    306.24017    1.2509986    1955.8247   -1227.8246   -211.49952    2071.4818   -2309.5546   -140.75474    44657.537 -0.067234084   -17.036218 -0.041707817    3421.7222    1511.9285     869.3031    885.88248    28.378997    18.846649    14.336838 0.0028849586 0.0028824371 0.0030467431  0.003027105    306.24017     41.49527    35.978931    34.423473    90.016431    119.66323    90.107069    18.845602    14.337287    28.379532      18.8446    14.339238 
   53000     298.8327    1.2509986    1972.9072   -1217.8765   -211.49952    2068.3005   -2309.7907   -880.35467    44657.537 -0.067234084   -17.036218 -0.041707817    3432.2739    1537.3451    873.79163    870.86139    28.381681     18.84485    14.337936 0.0028954143 0.0028932813 0.0028678054  0.002858893     298.8327     41.49527    35.978931    34.423473    90.016431    119.66323    90.107069    18.845744    14.337826    28.376626     18.84929    14.340134 
   54000    301.60725    1.2509986    1972.6526   -1181.2338   -211.49952    2071.6186   -2309.5133    5.6686205    44657.537 -0.067234084   -17.036218 -0.041707817    3391.7811    1484.2359    891.97461    864.85557    28.380779    18.845569      14.3371 0.0029711386 0.0029683718 0.0028959866 0.0028920605    301.60725     41.49527    35.978931    34.423473    90.016431    119.66323    90.107069    18.846958    14.337642    28.379103     18.85089    14.339197 
   55000    299.53354    1.2509986    1992.8979   -1205.5543   -211.49952    2071.0803   -2309.3765   -268.57825    44657.537 -0.067234084   -17.036218 -0.041707817    3436.7484    1531.4181    884.31002    868.99432    28.380356    18.846911    14.338233 0.0028549612 0.0028526674 0.0030477728 0.0030251814    299.53354     41.49527    35.978931    34.423473    90.016431    119.66323    90.107069    18.846385    14.339195    28.377059    18.846991     14.34314 
   56000    299.94645    1.2509986    1972.3506   -1212.1304   -211.49952    2070.4438    -2309.491    703.91457    44657.537 -0.067234084   -17.036218 -0.041707817    3423.5281    1547.2907    896.23093    833.20976    28.380665    18.845779    14.337937 0.0027794344 0.0027793598 0.0027542429 0.0027491826    299.94645     41.49527    35.978931    34.423473    90.016431    119.66323    90.107069    18.845959    14.337581    28.379429    18.849797    14.337534 
   57000    291.94152    1.2509986    2009.2924   -1188.0779   -211.49952    2070.5151    -2309.652   -159.61836    44657.537 -0.067234084   -17.036218 -0.041707817    3436.5072    1542.7868    884.26153    859.56575    28.379613    18.845009    14.337392 0.0028497075 0.0028469343  0.002744566 0.0027355845    291.94152     41.49527    35.978931    34.423473    90.016431    119.66323    90.107069    18.846144    14.337058    28.376873    18.848208    14.338575 
   58000    295.10082    1.2509986    1904.7859   -1227.2993   -211.49952    2072.0645   -2309.4873   -924.02637    44657.537 -0.067234084   -17.036218 -0.041707817    3369.5081    1458.0953    904.66888    858.97914    28.378444    18.844659    14.337459 0.0028985772 0.0028982298  0.002880145 0.0028532404    295.10082     41.49527    35.978931    34.423473    90.016431    119.66323    90.107069     18.84594    14.338274    28.381581    18.846856    14.343899 
   59000    297.07355    1.2509986    1966.0413   -1185.9357   -211.49952    2071.2892   -2309.3438    303.43248    44657.537 -0.067234084   -17.036218 -0.041707817    3390.0316    1550.2234    864.55713    832.06516    28.380823    18.846662    14.337793 0.0028509948 0.0028502613 0.0026841331 0.0026794292    297.07355     41.49527    35.978931    34.423473    90.016431    119.66323    90.107069    18.846893    14.337303    28.379852    18.851016    14.338861 
   60000    295.11757    1.2509986    1990.9273   -1211.0088   -211.49952     2075.455   -2309.4412    567.41375    44657.537 -0.067234084   -17.036218 -0.041707817    3435.9223    1523.3624    884.15936    874.87095    28.381181    18.846354    14.337241 0.0028778222 0.0028752367 0.0028565442 0.0028539787    295.11757     41.49527    35.978931    34.423473    90.016431    119.66323    90.107069    18.846732    14.337057    28.380628    18.848139    14.340447 
   61000    295.06243    1.2509986    1919.5413   -1197.0657   -211.49952    2074.5356   -2309.7542    919.21987    44657.537 -0.067234084   -17.036218 -0.041707817    3351.8256    1512.5053    844.82312    848.75288    28.379313    18.845053    14.337382 0.0028157853 0.0028148451 0.0028787815 0.0028684587    295.06243     41.49527    35.978931    34.423473    90.016431    119.66323    90.107069    18.847053    14.337414    28.382524     18.84889    14.338413 
   62000     303.2141    1.2509986    1971.7707   -1217.5248   -211.49952    2071.9758   -2309.3848   -571.78192    44657.537 -0.067234084   -17.036218 -0.041707817    3426.7044    1510.8912    900.93387    858.31584    28.379072    18.846627    14.336789 0.0028858986  0.002883623 0.0028170898 0.0028148361     303.2141     41.49527    35.978931    34.423473    90.016431    119.66323    90.107069     18.84705    14.337067     28.37834     18.84963    14.340264 
   63000    295.42637    1.2509986    2031.0487   -1208.5254   -211.49952    2068.6968   -2309.5896   -37.326374    44657.537 -0.067234084   -17.036218 -0.041707817    3480.4668    1503.2971    911.66922    907.27538    28.379992    18.845481    14.338192 0.0028924605 0.0028906445 0.0033479912  0.003338955    295.42637     41.49527    35.978931    34.423473    90.016431    119.66323    90.107069    18.846721    14.338919    28.381332    18.849922    14.341887 
   64000    300.10471    1.2509986    1880.7687   -1216.9948   -211.49952    2074.8257   -2309.5337   -258.09822    44657.537 -0.067234084   -17.036218 -0.041707817    3332.4715    1451.5631    865.10027    868.48907    28.380229    18.845382     14.33751 0.0028860908 0.0028853055 0.0028371393 0.0028142634    300.10471     41.49527    35.978931    34.423473    90.016431    119.66323    90.107069     18.84538    14.337367     28.37928    18.852229    14.336109 
   65000    295.07027    1.2509986    2046.5818   -1195.0236   -211.49952    2072.0974   -2309.3387   -527.04086    44657.537 -0.067234084   -17.036218 -0.041707817    3478.8467    1563.7853    908.20608    856.25596    28.381854    18.844902    14.337829 0.0028550367 0.0028541521 0.0029069921 0.0028786532    295.07027     41.49527    35.978931    34.423473    90.016431    119.66323    90.107069    18.845796    14.338559    28.379421    18.847029    14.344576 
   66000    292.46678    1.2509986    1920.7308   -1208.7862   -211.49952    2071.6913   -2309.4921   -202.02783    44657.537 -0.067234084   -17.036218 -0.041707817    3367.3178    1530.5818    886.56066    811.07888    28.378964    18.844219    14.336999 0.0028599153 0.0028583121 0.0027899338 0.0027805754    292.46678     41.49527    35.978931    34.423473    90.016431    119.66323    90.107069    18.845193    14.337396    28.382261    18.847661    14.339173 
   67000    302.48137    1.2509986    1957.5958   -1214.2108   -211.49952    2069.7483   -2309.4854   -594.77137    44657.537 -0.067234084   -17.036218 -0.041707817    3411.5437    1498.4294    900.19812    861.48157    28.380145     18.84589    14.337516 0.0027819644 0.0027813934 0.0028657719 0.0028457073    302.48137     41.49527    35.978931    34.423473    90.016431    119.66323    90.107069    18.846032    14.337108    28.380933    18.846268    14.336377 
   68000    295.39009    1.2509986    1971.3608   -1211.6434   -211.49952    2071.6545   -2309.8013   -363.25657    44657.537 -0.067234084   -17.036218 -0.041707817     3421.151    1492.9278    896.60884    882.64338    28.380478    18.846724    14.338183 0.0029050527 0.0029036541 0.0027294607 0.0027224258    295.39009     41.49527    35.978931    34.423473    90.016431    119.66323    90.107069    18.845854    14.338801    28.377568    18.847929    14.338257 
   69000    296.40503    1.2509986    2041.7403   -1224.7718   -211.49952    2069.6992   -2309.2449   -2793.1196    44657.537 -0.067234084   -17.036218 -0.041707817    3506.0578    1554.4885    894.43191    902.19489    28.382157    18.844818    14.337896 0.0029009055 0.0029003254 0.0030317757 0.0030218846    296.40503     41.49527    35.978931    34.423473    90.016431    119.66323    90.107069    18.845494    14.337649    28.380458    18.846795    14.337598 
   70000     293.1469    1.2509986    1951.3182   -1195.2955   -211.49952    2070.6899   -2309.3759    741.51194    44657.537 -0.067234084   -17.036218 -0.041707817    3385.2997    1481.7663    874.94241    878.02959    28.380962     18.84674     14.33712 0.0028619453 0.0028609767 0.0029759624 0.0029667799     293.1469     41.49527    35.978931    34.423473    90.016431    119.66323    90.107069    18.846422    14.336801    28.376762     18.84789    14.339972 
   71000    303.15156    1.2509986    2016.6271   -1196.3103   -211.49952    2070.0456    -2309.654    27.299967    44657.537 -0.067234084   -17.036218 -0.041707817    3452.5458    1527.8901    912.21948    858.01344    28.380673    18.844972    14.337738 0.0028420042 0.0028400274 0.0030141601 0.0030075463    303.15156     41.49527    35.978931    34.423473    90.016431    119.66323    90.107069    18.845841    14.338247    28.377098     18.84826    14.339698 
   72000    294.15008    1.2509986    1972.5439   -1183.6566   -211.49952    2073.1838   -2309.2004    1654.7712    44657.537 -0.067234084   -17.036218 -0.041707817    3392.2172    1510.8845     901.8502    833.10406     28.37972    18.847625    14.337698 0.0029514607 0.0029507499  0.003263012 0.0032419757    294.15008     41.49527    35.978931    34.423473    90.016431    119.66323    90.107069    18.846744    14.338151    28.375895    18.848566    14.342363 
   73000    303.20525    1.2509986     2032.413   -1195.5363   -211.49952    2071.4618   -2309.4294   -509.35327    44657.537 -0.067234084   -17.036218 -0.041707817    3465.9169    1540.4611    905.69105    866.45814    28.378364    18.845254    14.336058 0.0029424817 0.0029407279 0.0029481482 0.0029357437    303.20525     41.49527    35.978931    34.423473    90.016431    119.66323    90.107069    18.845937    14.336893    28.376587    18.849106    14.341529 
   74000    300.96705    1.2509986    2013.2407   -1177.8254   -211.49952    2070.8714   -2309.6106    1766.1855    44657.537 -0.067234084   -17.036218 -0.041707817    3429.8053    1516.5618    888.28389    875.92916    28.381766    18.845803    14.337489 0.0027790417 0.0027768856 0.0028007936 0.0027971244    300.96705     41.49527    35.978931    34.423473    90.016431    119.66323    90.107069    18.845788    14.337416    28.380892    18.848865    14.341003 
   75000    298.95504    1.2509986    1963.6817   -1194.6316   -211.49952    2070.8952   -2309.3006    917.04322    44657.537 -0.067234084   -17.036218 -0.041707817    3396.7187    1525.6674    878.67987    845.29062    28.381014     18.84544    14.337764 0.0027043489 0.0027031484 0.0028642188 0.0028570524    298.95504     41.49527    35.978931    34.423473    90.016431    119.66323    90.107069    18.846106     14.33836    28.382012    18.849092    14.338574 
   76000    297.89211    1.2509986    1945.0218   -1233.6917   -211.49952    2072.1732    -2309.615   -985.71738    44657.537 -0.067234084   -17.036218 -0.041707817    3416.1554     1508.185    898.77718    862.98261    28.381481    18.845594     14.33823 0.0028324747 0.0028316516 0.0030273523 0.0030181174    297.89211     41.49527    35.978931    34.423473    90.016431    119.66323    90.107069    18.846809    14.338038    28.376885    18.850029    14.340669 
   77000    296.34908    1.2509986    1967.3927    -1231.098   -211.49952    2072.4886   -2309.2969   -267.45856    44657.537 -0.067234084   -17.036218 -0.041707817     3435.299    1536.6209    892.80801    855.60272    28.378937    18.845324    14.337619 0.0028318669 0.0028307851 0.0028713238  0.002862205    296.34908     41.49527    35.978931    34.423473    90.016431    119.66323    90.107069    18.845601    14.338074    28.377919    18.850142     14.34191 
   78000    298.30917    1.2509986    1988.5463   -1202.5342   -211.49952    2070.3538   -2309.3454    544.08071    44657.537 -0.067234084   -17.036218 -0.041707817    3430.0721    1560.7493    864.18123    859.68292    28.381339    18.845216    14.338162  0.002789406  0.002789063 0.0029241044 0.0029195251    298.30917     41.49527    35.978931    34.423473    90.016431    119.66323    90.107069    18.846029    14.337942    28.378873    18.847988    14.337888 
   79000    301.59227    1.2509986    1972.3302    -1222.758   -211.49952    2071.3424   -2309.3969   -1453.8718    44657.537 -0.067234084   -17.036218 -0.041707817    3433.1428    1541.0126    905.75644    842.57079    28.381766    18.845212    14.337756 0.0029194152 0.0029188013 0.0028815522  0.002874713    301.59227     41.49527    35.978931    34.423473    90.016431    119.66323    90.107069    18.846355     14.33699    28.377882    18.847504    14.338313 
   80000    299.35465    1.2509986    2053.4316   -1194.4476   -211.49952    2070.5106     -2309.34    561.36373    44657.537 -0.067234084   -17.036218 -0.041707817    3486.7087    1546.9183     907.2717    873.96619    28.380302    18.846695    14.337289 0.0027123336 0.0027102031 0.0025156871 0.0025149254    299.35465     41.49527    35.978931    34.423473    90.016431    119.66323    90.107069    18.846633    14.336358    28.379199     18.84865    14.338929 
   81000    299.77872    1.2509986    1892.2427   -1206.7234   -211.49952    2073.0113   -2309.4615    32.238762    44657.537 -0.067234084   -17.036218 -0.041707817    3335.4163    1470.5884    873.61015    843.21114    28.380489    18.846028    14.337241  0.002799814 0.0027972993 0.0027790061 0.0027711415    299.77872     41.49527    35.978931    34.423473    90.016431    119.66323    90.107069    18.845951    14.337114    28.377616    18.847768    14.338041 
   82000    290.67899    1.2509986    2046.5232    -1212.295   -211.49952    2074.3034   -2309.2936   -219.69765    44657.537 -0.067234084   -17.036218 -0.041707817    3493.8084    1549.7531     910.9396    875.11308    28.380933    18.847583    14.337758 0.0028217865 0.0028212617 0.0030514635 0.0030462613    290.67899     41.49527    35.978931    34.423473    90.016431    119.66323    90.107069    18.846641    14.337532    28.378276    18.847436    14.340675 
   83000     299.1138    1.2509986    2060.3077   -1183.7739   -211.49952    2075.3988   -2309.2567    951.69133    44657.537 -0.067234084   -17.036218 -0.041707817    3477.9395    1501.7917    924.92504    893.63553     28.37757    18.845239      14.3372 0.0029250443 0.0029229471 0.0028094157 0.0028009036     299.1138     41.49527    35.978931    34.423473    90.016431    119.66323    90.107069    18.844825    14.338232    28.381824     18.84731    14.340326 
   84000    294.47939    1.2509986    1949.1502   -1205.2242   -211.49952     2073.069   -2309.5849   -526.58415    44657.537 -0.067234084   -17.036218 -0.041707817    3390.8903    1513.6084    887.10641    843.65714    28.380615    18.844539    14.337576  0.002727664 0.0027230854 0.0027989456 0.0027557652    294.47939     41.49527    35.978931    34.423473    90.016431    119.66323    90.107069    18.844781    14.338415    28.379987    18.845553    14.345208 
   85000    293.11909    1.2509986    1973.5653   -1206.2847   -211.49952    2071.7848   -2309.2163    810.49493    44657.537 -0.067234084   -17.036218 -0.041707817    3417.2814    1489.3482    899.16412    873.82715    28.379032    18.845599    14.338101 0.0028446244 0.0028396264 0.0028728805 0.0028703497    293.11909     41.49527    35.978931    34.423473    90.016431    119.66323    90.107069    18.846228    14.339042    28.380526    18.848586    14.340825 
   86000    296.86383    1.2509986    2028.3156   -1193.1386   -211.49952    2067.9706   -2309.8709   -1146.5331    44657.537 -0.067234084   -17.036218 -0.041707817    3463.3547    1522.4542     913.4733    870.35144    28.380128    18.846039    14.337447 0.0028889764 0.0028860179  0.002932621 0.0029278767    296.86383     41.49527    35.978931    34.423473    90.016431    119.66323    90.107069     18.84474    14.337009    28.379421    18.846951    14.340328 
   87000    298.24096    1.2509986    1972.3272   -1204.0512   -211.49952    2072.9167   -2309.2191   -81.498039    44657.537 -0.067234084   -17.036218 -0.041707817    3412.6808    1516.1622     923.1167     829.0577    28.379529    18.845114    14.337903 0.0029212211 0.0029208273 0.0030832148 0.0030771976    298.24096     41.49527    35.978931    34.423473    90.016431    119.66323    90.107069    18.845821    14.337996    28.381973    18.848677    14.339893 
   88000    293.33674    1.2509986    2002.0514   -1233.6949   -211.49952    2070.3017   -2309.5205   -2517.6238    44657.537 -0.067234084   -17.036218 -0.041707817    3474.9651    1521.6195    924.94377    878.62737    28.378965    18.845602    14.337778 0.0029514776 0.0029504845  0.002915312 0.0029044782    293.33674     41.49527    35.978931    34.423473    90.016431    119.66323    90.107069    18.845983    14.338715    28.379051    18.846085    14.338223 
   89000    293.61435    1.2509986    2026.2102   -1200.4671   -211.49952    2070.2218   -2309.6011    34.043923    44657.537 -0.067234084   -17.036218 -0.041707817    3466.0567    1526.6732    879.86963    900.56899    28.380345     18.84534    14.337857 0.0028750844 0.0028741446   0.00278274 0.0027647483    293.61435     41.49527    35.978931    34.423473    90.016431    119.66323    90.107069    18.846319      14.3375    28.375461    18.847998    14.339206 
   90000    300.76959    1.2509986    2012.8549   -1178.9228   -211.49952    2065.6544    -2309.664   -595.99568    44657.537 -0.067234084   -17.036218 -0.041707817    3435.7872    1540.5127    878.60725    863.37409    28.379918    18.845894    14.337345 0.0028087625 0.0028059166 0.0030063358 0.0029874532    300.76959     41.49527    35.978931    34.423473    90.016431    119.66323    90.107069    18.846059    14.338901    28.380119    18.845906    14.342624 
   91000    298.46068    1.2509986    1934.1229   -1208.8195   -211.49952    2072.1851   -2309.2012   -1410.9283    44657.537 -0.067234084   -17.036218 -0.041707817    3379.9585    1482.2979    882.02046    867.23283    28.376691     18.84426    14.336996    0.0028873 0.0028858822 0.0029520097 0.0029435385    298.46068     41.49527    35.978931    34.423473    90.016431    119.66323    90.107069    18.846492    14.337267    28.380499    18.847899     14.33712 
   92000    297.28387    1.2509986    1938.4594   -1207.1267   -211.49952    2072.6203   -2309.2921    1093.6896    44657.537 -0.067234084   -17.036218 -0.041707817    3382.2579    1504.4786    869.52817     858.0153    28.377781     18.84656    14.335909 0.0027958228 0.0027923377 0.0026006032 0.0025973155    297.28387     41.49527    35.978931    34.423473    90.016431    119.66323    90.107069    18.847625     14.33678    28.380471    18.849316    14.338102 
   93000    306.21338    1.2509986    2003.1922   -1228.7626   -211.49952    2072.3365   -2309.4612    -1863.535    44657.537 -0.067234084   -17.036218 -0.041707817    3469.0795    1552.6765    903.81679    861.72183    28.380649    18.845972    14.338808  0.002825243 0.0028233423 0.0025663904 0.0025539164    306.21338     41.49527    35.978931    34.423473    90.016431    119.66323    90.107069    18.846952    14.338851    28.378705    18.848964    14.343066 
   94000    302.81673    1.2509986    1971.3862   -1223.0319   -211.49952    2071.0953   -2309.6584    350.20154    44657.537 -0.067234084   -17.036218 -0.041707817    3432.9812    1497.6025     902.1301    877.41322    28.377083    18.847009    14.337268  0.002866488  0.002863742 0.0026754357 0.0026745871    302.81673     41.49527    35.978931    34.423473    90.016431    119.66323    90.107069    18.847619    14.338513    28.378909    18.848372    14.339775 
   95000    296.88351    1.2509986    1948.8819    -1229.142   -211.49952    2067.6541   -2309.5516   -2354.0519    44657.537 -0.067234084   -17.036218 -0.041707817    3419.9214    1543.7274    904.57967    830.35198    28.378845    18.845248    14.337645  0.002911573 0.0029111907 0.0027422538 0.0027385622    296.88351     41.49527    35.978931    34.423473    90.016431    119.66323    90.107069    18.845999    14.338244    28.379978     18.84767    14.340946 
   96000    298.60772    1.2509986    1986.3376   -1213.1518   -211.49952    2072.6267   -2309.4912    -757.1107    44657.537 -0.067234084   -17.036218 -0.041707817    3436.3539    1550.5036    890.44474    847.77203    28.381273    18.845265    14.337419 0.0029181155 0.0029169415 0.0029753504 0.0029630359    298.60772     41.49527    35.978931    34.423473    90.016431    119.66323    90.107069    18.846089    14.337273    28.378903    18.845844    14.338279 
   97000     294.0662    1.2509986    2055.9326   -1185.1374   -211.49952    2070.3796   -2309.4125    1007.7851    44657.537 -0.067234084   -17.036218 -0.041707817    3480.1028    1509.1646    932.14457    885.10855    28.379074    18.846176    14.337353 0.0027785755 0.0027777533 0.0028738354  0.002870362     294.0662     41.49527    35.978931    34.423473    90.016431    119.66323    90.107069    18.846941     14.33725    28.381121    18.848203    14.339031 
   98000    305.18436    1.2509986    1951.9344   -1205.6369   -211.49952    2072.2614   -2309.6115   -312.22643    44657.537 -0.067234084   -17.036218 -0.041707817    3394.9215    1528.8654    904.31705    818.78718    28.379525    18.845389    14.337113 0.0029244217 0.0029229806 0.0027588766 0.0027463939    305.18436     41.49527    35.978931    34.423473    90.016431    119.66323    90.107069    18.845488    14.337468    28.379475    18.846231    14.337461 
   99000    301.29535    1.2509986    1972.9361   -1200.7225   -211.49952    2067.6292    -2309.665   -349.40455    44657.537 -0.067234084   -17.036218 -0.041707817    3415.6944    1517.6428    901.72506    847.38254    28.380116    18.844887    14.338672 0.0027955933 0.0027926603 0.0027279852 0.0027196135    301.29535     41.49527    35.978931    34.423473    90.016431    119.66323    90.107069     18.84505    14.339003    28.381506    18.847556    14.341203 
  100000    298.54973    1.2509986    2025.2432   -1211.1817   -211.49952    2072.9277   -2309.4251   -1640.4243    44657.537 -0.067234084   -17.036218 -0.041707817    3472.9222    1557.7244    914.16333    851.10785    28.378007    18.845138    14.336822   0.00288359 0.0028808241 0.0027348252 0.0027323625    298.54973     41.49527    35.978931    34.423473    90.016431    119.66323    90.107069    18.845748    14.337137    28.380008    18.848263    14.338336 
  101000    298.69932    1.2509986    1933.5128   -1187.6437   -211.49952    2075.4542   -2309.6095     1663.785    44657.537 -0.067234084   -17.036218 -0.041707817    3355.3118    1486.1808    879.40195    841.16723    28.380246    18.842845    14.337958 0.0029013459 0.0028979348 0.0029411762 0.0029330826    298.69932     41.49527    35.978931    34.423473    90.016431    119.66323    90.107069    18.844448    14.337815    28.377289    18.849004    14.341356 
  102000    296.22698    1.2509986    1947.0645   -1203.4664   -211.49952    2069.6922   -2309.4021   -114.23236    44657.537 -0.067234084   -17.036218 -0.041707817    3390.2408    1494.0129    886.18534    862.03862    28.383117    18.845491    14.338731 0.0028411324  0.002839992 0.0028252842 0.0028154928    296.22698     41.49527    35.978931    34.423473    90.016431    119.66323    90.107069     18.84672    14.337629    28.379556    18.848936     14.33651 
  103000    302.00921    1.2509986    1991.7915   -1199.0633   -211.49952    2075.9526   -2309.3405     1087.781    44657.537 -0.067234084   -17.036218 -0.041707817    3424.2428      1495.31    886.87508    887.57578    28.378288    18.844787    14.336852 0.0028867517  0.002886488 0.0028048799 0.0027935066    302.00921     41.49527    35.978931    34.423473    90.016431    119.66323    90.107069    18.845712    14.337945    28.377193    18.849442    14.342005 
  104000    291.17911    1.2509986    2002.1855   -1215.1523   -211.49952    2070.4424   -2309.6112    -393.1942    44657.537 -0.067234084   -17.036218 -0.041707817    3456.5067    1527.5403    914.33827      869.317    28.381191    18.847106    14.337456 0.0028381461 0.0028351821 0.0027026437 0.0026911784    291.17911     41.49527    35.978931    34.423473    90.016431    119.66323    90.107069    18.847527    14.337842    28.380682    18.851648    14.337834 
  105000    295.37313    1.2509986    2039.7305   -1197.5145   -211.49952    2071.2608   -2309.5852    554.20655    44657.537 -0.067234084   -17.036218 -0.041707817    3475.5694    1531.2582    921.57078    871.24412    28.382821    18.845721    14.338734 0.0028600371 0.0028568142 0.0028460104 0.0028309159    295.37313     41.49527    35.978931    34.423473    90.016431    119.66323    90.107069    18.845537    14.339119    28.379341    18.845954    14.342024 
  106000    299.24291    1.2509986    1951.1924   -1198.6568   -211.49952    2066.8442   -2309.6832   -250.92465    44657.537 -0.067234084   -17.036218 -0.041707817    3392.6882    1513.7238    877.62212    855.22839    28.383265     18.84533    14.338607 0.0030408786 0.0030334903 0.0030472145 0.0030319507    299.24291     41.49527    35.978931    34.423473    90.016431    119.66323    90.107069     18.84537    14.338261    28.382402    18.846366    14.340033 
  107000    291.70653    1.2509986    1958.0733   -1204.6708   -211.49952    2070.3763   -2309.3335    740.35635    44657.537 -0.067234084   -17.036218 -0.041707817    3401.7013    1473.1195    906.75642    869.77745     28.38055    18.847162    14.337741 0.0028440238 0.0028437972 0.0027581302 0.0027506821    291.70653     41.49527    35.978931    34.423473    90.016431    119.66323    90.107069      18.8463    14.337642    28.380979    18.850552     14.33789 
  108000    298.99861    1.2509986    2018.5198   -1208.5734   -211.49952    2074.7346   -2309.1927    949.23133    44657.537 -0.067234084   -17.036218 -0.041707817    3461.5512    1504.4002    925.27589     879.5614    28.381014    18.847348    14.337056 0.0027927301 0.0027887803 0.0028397279 0.0028359754    298.99861     41.49527    35.978931    34.423473    90.016431    119.66323    90.107069    18.847173    14.337008    28.379878    18.850124    14.338085 
  109000    300.39084    1.2509986    1961.0401   -1216.6526   -211.49952    2071.7743    -2309.422     1442.893    44657.537 -0.067234084   -17.036218 -0.041707817    3415.3404    1496.4112    926.90805     844.1052    28.380801     18.84566    14.337253 0.0028123158 0.0028109732 0.0027965857 0.0027799242    300.39084     41.49527    35.978931    34.423473    90.016431    119.66323    90.107069     18.84562    14.338084    28.382839     18.84659    14.339761 
  110000    304.84585    1.2509986    1990.8834   -1186.3849   -211.49952    2071.4732   -2309.4647     58.38638    44657.537 -0.067234084   -17.036218 -0.041707817    3415.2599    1469.8133    914.34973     877.3596     28.38068    18.844042    14.337444 0.0029382517 0.0029355521  0.003117766 0.0030995103    304.84585     41.49527    35.978931    34.423473    90.016431    119.66323    90.107069    18.844843    14.337887    28.383337    18.847022    14.339601 
  111000    297.37621    1.2509986    1883.5282   -1210.3514   -211.49952    2070.0773   -2309.6266   -141.26466    44657.537 -0.067234084   -17.036218 -0.041707817     3333.429     1470.726    886.26046    831.18305    28.376443    18.845302    14.336122 0.0028047201 0.0027949922 0.0028031492 0.0027876872    297.37621     41.49527    35.978931    34.423473    90.016431    119.66323    90.107069    18.845956    14.336218    28.376383    18.847234    14.338147 
  112000    297.40745    1.2509986    2019.8455   -1202.3677   -211.49952    2073.6877   -2309.2701    49.090725    44657.537 -0.067234084   -17.036218 -0.041707817    3457.7956    1511.9049    907.06396    885.18178    28.381828    18.845127    14.337904 0.0026825085 0.0026815009  0.002692221 0.0026587347    297.40745     41.49527    35.978931    34.423473    90.016431    119.66323    90.107069    18.845699    14.337701    28.381168    18.843739    14.337885 
  113000    296.14736    1.2509986     2005.271   -1198.3042   -211.49952    2075.1119   -2309.0109    227.85101    44657.537 -0.067234084   -17.036218 -0.041707817    3437.4742    1494.4868    900.26834    890.26316    28.380542    18.847399    14.337661  0.002817204 0.0028168485 0.0028965392 0.0028870568    296.14736     41.49527    35.978931    34.423473    90.016431    119.66323    90.107069    18.846046    14.337446    28.381092    18.848585    14.342273 
  114000    304.66123    1.2509986    1876.0793   -1221.0941   -211.49952    2072.4694   -2309.1588   -2391.8728    44657.537 -0.067234084   -17.036218 -0.041707817    3333.8629    1477.9936    867.75417    845.04697    28.379617    18.846517    14.337623 0.0027436143 0.0027419159 0.0028453554 0.0028201714    304.66123     41.49527    35.978931    34.423473    90.016431    119.66323    90.107069    18.845309    14.338637    28.379447    18.846833    14.344157 
  115000    296.61022    1.2509986    1995.8121    -1218.124   -211.49952     2070.703   -2309.8118   -2152.4437    44657.537 -0.067234084   -17.036218 -0.041707817    3453.0449     1547.377    894.67775    859.78731     28.37924    18.845324    14.337083 0.0028634622 0.0028627303 0.0026931564 0.0026830695    296.61022     41.49527    35.978931    34.423473    90.016431    119.66323    90.107069    18.845544     14.33771    28.381696    18.848453    14.341918 
  116000    296.86365    1.2509986    1932.6494   -1215.0897   -211.49952      2073.01    -2309.269    248.58978    44657.537 -0.067234084   -17.036218 -0.041707817    3383.9981    1451.5653    883.93796    887.00438    28.377944    18.844902    14.336928 0.0028327562 0.0028315831 0.0028502941 0.0028493035    296.86365     41.49527    35.978931    34.423473    90.016431    119.66323    90.107069    18.846192    14.337418    28.378757    18.848825    14.339076 
  117000    294.49462    1.2509986    1942.2973   -1190.7626   -211.49952    2075.2729   -2308.8626    1071.1798    44657.537 -0.067234084   -17.036218 -0.041707817    3366.6496    1476.8664    877.59185    861.34257    28.377942    18.845608    14.336391  0.002803956 0.0028014033 0.0030410493 0.0030225229    294.49462     41.49527    35.978931    34.423473    90.016431    119.66323    90.107069    18.845618    14.336885    28.379504     18.84539    14.337315 
  118000    291.58833    1.2509986    1993.3565    -1214.549   -211.49952     2069.961   -2309.5733   -220.97243    44657.537 -0.067234084   -17.036218 -0.041707817    3447.5178    1545.5133     894.8137    858.90486    28.380156    18.844315    14.337289 0.0029763358 0.0029744212 0.0028994669 0.0028920432    291.58833     41.49527    35.978931    34.423473    90.016431    119.66323    90.107069    18.845375    14.337886    28.380357    18.846409    14.339577 
  119000    305.71725    1.2509986    1982.2166   -1200.0005   -211.49952    2067.5917   -2309.5888   -139.51366    44657.537 -0.067234084   -17.036218 -0.041707817    3424.2143    1509.0999    877.46563    881.08561    28.378332    18.845105    14.337004  0.002767616  0.002767004   0.00297381  0.002969414    305.71725     41.49527    35.978931    34.423473    90.016431    119.66323    90.107069    18.846829    14.337321    28.380689    18.849591    14.341305 
  120000     297.2124    1.2509986    1907.9664   -1220.8701   -211.49952    2071.4403   -2309.8848   -529.44713    44657.537 -0.067234084   -17.036218 -0.041707817    3367.2809    1479.3761    880.28604    857.85192    28.379105    18.846446    14.337188 0.0029098678 0.0029058155 0.0027747577 0.0027711213     297.2124     41.49527    35.978931    34.423473    90.016431    119.66323    90.107069    18.847111    14.337619    28.379493     18.84738    14.338655 
  121000    307.24926    1.2509986    1988.3466   -1212.0753   -211.49952    2074.3085   -2309.3514    565.96427    44657.537 -0.067234084   -17.036218 -0.041707817    3435.4649    1532.6226    877.02495     870.0622    28.379871     18.84653     14.33708 0.0029234749 0.0029226737 0.0029798403 0.0029644895    307.24926     41.49527    35.978931    34.423473    90.016431    119.66323    90.107069    18.846935    14.337289    28.376284    18.846863    14.339782 
  122000    294.88571    1.2509986    1998.3031   -1228.4327   -211.49952    2071.8002    -2309.429   -2461.2276    44657.537 -0.067234084   -17.036218 -0.041707817    3464.3647    1583.9762     882.4974    849.30949    28.380473    18.847538    14.338056 0.0029556668 0.0029536508 0.0030607788  0.003053592    294.88571     41.49527    35.978931    34.423473    90.016431    119.66323    90.107069    18.847532    14.338073    28.379452    18.850672    14.341742 
  123000    293.53339    1.2509986    1997.2095   -1208.3623   -211.49952    2075.1885    -2309.041    608.43075    44657.537 -0.067234084   -17.036218 -0.041707817    3439.4244    1507.8329    913.62246    866.64397    28.379721     18.84547    14.337588 0.0028344749 0.0028331051 0.0026871177 0.0026776211    293.53339     41.49527    35.978931    34.423473    90.016431    119.66323    90.107069    18.845585    14.337768    28.376715    18.847999    14.339012 
  124000    300.28109    1.2509986    1905.1745   -1213.4855   -211.49952    2070.4105   -2309.4696    46.295717    44657.537 -0.067234084   -17.036218 -0.041707817    3357.7191    1514.0648    872.03943    826.85061    28.381367    18.845326    14.337614 0.0028976448 0.0028958461  0.002896638 0.0028898546    300.28109     41.49527    35.978931    34.423473    90.016431    119.66323    90.107069    18.845729    14.337471    28.377515    18.848113    14.338294 
  125000    297.54678    1.2509986    1895.4843    -1216.625   -211.49952    2070.3209   -2309.4925   -588.54277    44657.537 -0.067234084   -17.036218 -0.041707817    3351.2809    1472.4838    875.13856    855.75263    28.378707    18.845912    14.337234  0.002945914 0.0029418527 0.0029554891 0.0029386179    297.54678     41.49527    35.978931    34.423473    90.016431    119.66323    90.107069    18.846761    14.338153    28.377028    18.846582    14.341776 
  126000    307.90723    1.2509986    1931.7422   -1202.0105   -211.49952    2071.4248    -2309.136    53.153809    44657.537 -0.067234084   -17.036218 -0.041707817    3371.4638    1499.4167     880.7157    846.85913    28.379278    18.845739    14.336795 0.0029866014 0.0029846633 0.0030152531 0.0030005254    307.90723     41.49527    35.978931    34.423473    90.016431    119.66323    90.107069    18.846358     14.33647    28.380269    18.850507    14.336176 
  127000    290.12239    1.2509986    2044.9537   -1209.7645   -211.49952    2071.9025   -2309.3368     38.94041    44657.537 -0.067234084   -17.036218 -0.041707817    3492.1525    1507.4703    925.16321    900.14998     28.37654    18.845375     14.33623 0.0028491145  0.002848486 0.0027449833 0.0027376087    290.12239     41.49527    35.978931    34.423473    90.016431    119.66323    90.107069    18.846353    14.337461    28.377365     18.84741    14.339681 
  128000    298.33348    1.2509986    1971.4609    -1210.398   -211.49952      2071.88   -2309.6828    371.71504    44657.537 -0.067234084   -17.036218 -0.041707817    3419.6617    1551.5214    886.26585     832.4909    28.378518    18.844996    14.336873 0.0029375102 0.0029343609 0.0029605478 0.0029529013    298.33348     41.49527    35.978931    34.423473    90.016431    119.66323    90.107069    18.846072    14.337257    28.378088    18.848478    14.341919 
  129000    293.05057    1.2509986    1935.2155   -1225.8405   -211.49952    2070.6133   -2309.9006   -794.49843    44657.537 -0.067234084   -17.036218 -0.041707817    3400.3434    1509.3839    887.91233    852.46127    28.379066    18.845706    14.337072 0.0028434597 0.0028411385 0.0031497274 0.0031419648    293.05057     41.49527    35.978931    34.423473    90.016431    119.66323    90.107069    18.845651    14.337181    28.377144    18.848009    14.338672 
  130000    300.16965    1.2509986    1985.0062   -1198.7475   -211.49952    2069.6085   -2309.7913    255.60598    44657.537 -0.067234084   -17.036218 -0.041707817    3423.9365    1528.8436    885.65069    861.27121    28.381117     18.84606    14.337436  0.002783205 0.0027823964  0.002593141 0.0025833144    300.16965     41.49527    35.978931    34.423473    90.016431    119.66323    90.107069    18.846676    14.337766    28.382123    18.850714    14.339052 
  131000    295.91419    1.2509986    2003.3572   -1203.1249   -211.49952    2074.8798   -2309.3944    1531.8585    44657.537 -0.067234084   -17.036218 -0.041707817    3440.9966     1537.505    890.25802    862.49113    28.380281    18.846718    14.337218 0.0029465372  0.002945901 0.0031240685 0.0031017703    295.91419     41.49527    35.978931    34.423473    90.016431    119.66323    90.107069    18.846927     14.33753    28.374872    18.848423     14.33969 
  132000    302.38711    1.2509986    2031.5664   -1219.3727   -211.49952    2065.8111   -2309.6014   -1962.8624    44657.537 -0.067234084   -17.036218 -0.041707817    3494.7294     1557.636    886.86955    895.37584    28.381734    18.845708    14.337912 0.0028479724  0.002847891 0.0029775602  0.002972975    302.38711     41.49527    35.978931    34.423473    90.016431    119.66323    90.107069    18.846025    14.337698    28.380768    18.850051    14.341066 
  133000    297.71063    1.2509986    2021.4304   -1206.4308   -211.49952    2073.6173   -2309.4385   0.44902432    44657.537 -0.067234084   -17.036218 -0.041707817    3463.6824    1539.8966    890.13104      882.505    28.379947    18.845166    14.337066 0.0027144798 0.0027138944 0.0028497576 0.0028443316    297.71063     41.49527    35.978931    34.423473    90.016431    119.66323    90.107069     18.84618    14.337027    28.381596    18.847888    14.339619 
  134000    292.20024    1.2509986    2014.1361   -1207.8385   -211.49952    2072.8231   -2309.2577   -1301.9074    44657.537 -0.067234084   -17.036218 -0.041707817    3458.4092    1551.4799    927.40802    834.90129    28.380608    18.845057    14.337701 0.0028475451 0.0028470229  0.002908957 0.0028977202    292.20024     41.49527    35.978931    34.423473    90.016431    119.66323    90.107069    18.845676    14.337481    28.376246    18.848518    14.339458 
  135000    299.77882    1.2509986    1962.5652   -1217.7347   -211.49952     2075.642   -2309.5393   -159.26979    44657.537 -0.067234084   -17.036218 -0.041707817    3414.1972    1516.6451    865.52689    882.99607    28.382406    18.845908    14.338418 0.0027493692 0.0027447477 0.0029170219 0.0029159064    299.77882     41.49527    35.978931    34.423473    90.016431    119.66323    90.107069    18.847788    14.338472    28.380157    18.849575      14.3403 
  136000    296.95737    1.2509986    1947.3502   -1219.9462   -211.49952    2072.7838    -2309.298   -1599.7817    44657.537 -0.067234084   -17.036218 -0.041707817    3403.8106    1543.4405    873.95582    837.14349    28.378802    18.846963    14.337267 0.0028099124 0.0028057523  0.002782752 0.0027710443    296.95737     41.49527    35.978931    34.423473    90.016431    119.66323    90.107069    18.847302    14.337563     28.37624    18.848424    14.340238 
  137000    295.73382    1.2509986    1945.0173   -1190.9207   -211.49952    2069.2851   -2309.6673    764.98158    44657.537 -0.067234084   -17.036218 -0.041707817    3376.3202    1480.1823    885.55451    863.09222    28.378038    18.845657    14.336753 0.0028325624 0.0028311346 0.0027495112 0.0027398389    295.73382     41.49527    35.978931    34.423473    90.016431    119.66323    90.107069    18.845746    14.337018    28.376751    18.847834    14.338996 
  138000    299.31856    1.2509986    1959.1823   -1200.4601   -211.49952    2072.6977   -2309.4807    134.20768    44657.537 -0.067234084   -17.036218 -0.041707817    3396.4254    1507.4164    887.05208    851.84606    28.377832    18.846067    14.336874 0.0029256916 0.0029194662 0.0027413021 0.0027377255    299.31856     41.49527    35.978931    34.423473    90.016431    119.66323    90.107069    18.848398    14.337503    28.378537    18.850575    14.339326 
  139000    291.01835    1.2509986    1944.3245   -1192.9884   -211.49952    2072.7485   -2309.3278    682.53337    44657.537 -0.067234084   -17.036218 -0.041707817    3373.8922    1458.7903     895.0601    874.25446    28.379617    18.845923    14.337304 0.0029637269 0.0029602411 0.0029678041 0.0029641647    291.01835     41.49527    35.978931    34.423473    90.016431    119.66323    90.107069    18.845205    14.338006    28.379831    18.847494    14.338517 
  140000    300.59659    1.2509986     1953.865   -1199.8585   -211.49952    2069.7687   -2309.3828   -651.99605    44657.537 -0.067234084   -17.036218 -0.041707817    3393.3375    1530.1498    887.40599    827.11667    28.381996    18.846944    14.338855 0.0028834258  0.002881367  0.003167696 0.0031638637    300.59659     41.49527    35.978931    34.423473    90.016431    119.66323    90.107069    18.847019    14.338766    28.378672    18.848085    14.341118 
  141000    298.32994    1.2509986    1992.6969   -1206.9752   -211.49952    2067.0087    -2310.012    -318.4894    44657.537 -0.067234084   -17.036218 -0.041707817    3442.6754    1534.8496    917.52208    842.15939    28.380211    18.845772    14.337244 0.0028539274 0.0028511298 0.0028718109 0.0028331408    298.32994     41.49527    35.978931    34.423473    90.016431    119.66323    90.107069     18.84681    14.338054     28.38467    18.845487    14.339936 
  142000     306.4045    1.2509986    2007.3843   -1215.3951   -211.49952    2071.9314   -2308.9552   -1167.3835    44657.537 -0.067234084   -17.036218 -0.041707817    3459.8032    1525.7026    911.19784    869.47004    28.380265    18.844827    14.337059 0.0028281621 0.0028275005  0.002763606 0.0027535707     306.4045     41.49527    35.978931    34.423473    90.016431    119.66323    90.107069    18.845546    14.337285    28.378572    18.846625    14.337804 
  143000    303.90857    1.2509986    1951.9796   -1201.4721   -211.49952    2072.3278   -2309.5444    682.60117    44657.537 -0.067234084   -17.036218 -0.041707817    3390.6683    1511.7669    878.31443     848.8533    28.380489    18.845946    14.337142 0.0028933493 0.0028931277 0.0030444069 0.0030243193    303.90857     41.49527    35.978931    34.423473    90.016431    119.66323    90.107069    18.846464    14.338069    28.379088    18.849039    14.344095 
  144000    300.02846    1.2509986    2003.5922   -1198.6161   -211.49952    2070.6161   -2309.4476    9.2363414    44657.537 -0.067234084   -17.036218 -0.041707817    3441.0398    1509.7014     917.2206    860.53016    28.381173      18.8451      14.3379  0.002935299 0.0029346154 0.0027922001 0.0027909306    300.02846     41.49527    35.978931    34.423473    90.016431    119.66323    90.107069      18.8462    14.337462    28.380108    18.849276    14.340585 
  145000    292.46261    1.2509986    1979.0433     -1166.11   -211.49952    2071.7171   -2308.9124    1911.5331    44657.537 -0.067234084   -17.036218 -0.041707817    3382.3486    1470.5079    908.08536    857.56408    28.381672    18.844853    14.337573 0.0028725499 0.0028679421 0.0027348879 0.0027164719    292.46261     41.49527    35.978931    34.423473    90.016431    119.66323    90.107069    18.845901    14.337856    28.381206    18.846483    14.342687 
  146000    300.50542    1.2509986    1951.1549   -1192.7214   -211.49952    2070.1896   -2309.4789     109.2524    44657.537 -0.067234084   -17.036218 -0.041707817    3383.1656    1493.2507    881.98729    858.25224    28.380983    18.844953    14.338662 0.0029329022 0.0029319298 0.0031669603 0.0031343178    300.50542     41.49527    35.978931    34.423473    90.016431    119.66323    90.107069    18.845798     14.33825    28.378738    18.845751    14.344257 
  147000    294.03257    1.2509986    2012.5516   -1205.1867   -211.49952     2071.028   -2309.3936   -1565.7807    44657.537 -0.067234084   -17.036218 -0.041707817    3456.1039    1500.1471    903.31633    899.99229    28.381618    18.844381    14.338146  0.002772142 0.0027716197 0.0028500993 0.0028452829    294.03257     41.49527    35.978931    34.423473    90.016431    119.66323    90.107069    18.845794    14.337142    28.379126    18.850381    14.337977 
  148000    300.12125    1.2509986    2027.5165   -1214.0467   -211.49952    2069.0118   -2309.6608   -470.22704    44657.537 -0.067234084   -17.036218 -0.041707817    3482.2122    1541.3512    917.45297     874.0095    28.377958    18.846036    14.336946 0.0028717617 0.0028663465 0.0030206098 0.0030077093    300.12125     41.49527    35.978931    34.423473    90.016431    119.66323    90.107069     18.84675    14.336757    28.376368    18.848086    14.338268 
  149000    297.62633    1.2509986    2013.7107   -1198.1822   -211.49952    2070.2895   -2309.3605   -21.830357    44657.537 -0.067234084   -17.036218 -0.041707817    3450.9639    1554.2669    899.67314    848.47893     28.38093    18.845536    14.337761 0.0027587812 0.0027572692 0.0024738733 0.0024601999    297.62633     41.49527    35.978931    34.423473    90.016431    119.66323    90.107069     18.84583    14.338269    28.379154    18.846683    14.342481 
  150000    302.29321    1.2509986    2021.2803   -1187.1053   -211.49952    2076.1526   -2308.8703    1077.0519    44657.537 -0.067234084   -17.036218 -0.041707817    3441.1033    1510.2317    936.38163    849.85549    28.379683    18.846936    14.337623 0.0027757066 0.0027755215  0.002760072 0.0027353936    302.29321     41.49527    35.978931    34.423473    90.016431    119.66323    90.107069    18.846529    14.337989    28.374605    18.848656    14.339819 
  151000     299.7423    1.2509986    2000.9076   -1214.1944   -211.49952    2069.3778   -2309.8666   -1309.1443    44657.537 -0.067234084   -17.036218 -0.041707817    3455.5907    1535.4261    911.43614    857.68815     28.38059    18.847049    14.337662 0.0028987546 0.0028966936 0.0025947564 0.0025896978     299.7423     41.49527    35.978931    34.423473    90.016431    119.66323    90.107069    18.847458    14.338138    28.380599    18.847778    14.341202 
  152000    294.36026    1.2509986    2012.4965   -1203.5097   -211.49952    2072.9239   -2309.2017     -557.855    44657.537 -0.067234084   -17.036218 -0.041707817     3452.284     1557.822    886.71159    856.45988    28.381014    18.846184    14.338251 0.0028402942 0.0028387218 0.0027028045 0.0027018706    294.36026     41.49527    35.978931    34.423473    90.016431    119.66323    90.107069    18.846826    14.338702    28.378764    18.848492    14.339823 
  153000    301.53065    1.2509986    1969.7144   -1194.9192   -211.49952    2069.2204   -2309.8288    321.05022    44657.537 -0.067234084   -17.036218 -0.041707817    3405.2419    1512.2727    906.79883    841.82899    28.379756    18.845825      14.3379  0.002820002 0.0028187109 0.0027923151 0.0027855409    301.53065     41.49527    35.978931    34.423473    90.016431    119.66323    90.107069    18.846293     14.33867    28.377316    18.849031    14.340962 
  154000    296.48511    1.2509986    2010.3874   -1219.2043   -211.49952    2072.3933   -2309.4532   -67.587413    44657.537 -0.067234084   -17.036218 -0.041707817    3466.6516    1548.3359    870.05426    893.47621    28.379439    18.845782    14.337452 0.0027673611 0.0027670167 0.0027767989 0.0027711135    296.48511     41.49527    35.978931    34.423473    90.016431    119.66323    90.107069    18.846221    14.337763    28.378398    18.847175    14.338655 
  155000    303.68127    1.2509986    1947.4287   -1203.0159   -211.49952    2072.0384   -2309.1979    617.32283    44657.537 -0.067234084   -17.036218 -0.041707817    3387.6042    1453.6821    892.64499    884.45839    28.381484    18.846142    14.337979 0.0029139605 0.0029129692  0.002717219  0.002713938    303.68127     41.49527    35.978931    34.423473    90.016431    119.66323    90.107069    18.846618    14.337545     28.37799    18.848623     14.34046 
  156000     298.5661    1.2509986    1970.1031     -1209.65   -211.49952    2070.8854   -2309.3924   -491.92902    44657.537 -0.067234084   -17.036218 -0.041707817    3418.2602    1534.2244     882.9665    853.12336    28.378354     18.84738    14.337162 0.0029446944 0.0029394328 0.0027225333 0.0027105942     298.5661     41.49527    35.978931    34.423473    90.016431    119.66323    90.107069    18.847462    14.337717    28.377157    18.849127    14.342122 
  157000    295.72208    1.2509986    1985.6582   -1210.9957   -211.49952    2074.2089   -2309.3021    460.87346    44657.537 -0.067234084   -17.036218 -0.041707817    3431.7472      1550.82    873.42512    856.96275    28.378052    18.845807    14.336692 0.0028284371 0.0028257889 0.0025839378 0.0025797015    295.72208     41.49527    35.978931    34.423473    90.016431    119.66323    90.107069    18.847251    14.336698    28.378466    18.848699    14.337921 
  158000    295.50701    1.2509986    1997.5311   -1179.2505   -211.49952    2072.3234   -2309.2527    2153.1175    44657.537 -0.067234084   -17.036218 -0.041707817    3413.7109    1532.5273    871.46392    860.24406    28.380326    18.845715    14.337201 0.0028006018 0.0027996424 0.0026538887 0.0026348428    295.50701     41.49527    35.978931    34.423473    90.016431    119.66323    90.107069    18.847036    14.337308    28.378129    18.845266    14.337914 
  159000    299.38663    1.2509986    2002.0219   -1214.6336   -211.49952    2075.4283   -2309.1613   -761.12768    44657.537 -0.067234084   -17.036218 -0.041707817    3450.3885    1566.0055    905.15861    836.25026    28.377512    18.847009    14.336813 0.0029390442 0.0029383479 0.0029264397 0.0029181042    299.38663     41.49527    35.978931    34.423473    90.016431    119.66323    90.107069    18.846789     14.33811    28.376688    18.848737    14.339464 
  160000    293.37597    1.2509986    1936.4047   -1201.9874   -211.49952    2072.2923   -2309.4992   -111.57224    44657.537 -0.067234084   -17.036218 -0.041707817     3375.599    1497.9109    853.98771    876.59238    28.380187    18.844735    14.337007 0.0029525034 0.0029508962 0.0029813062 0.0029654057    293.37597     41.49527    35.978931    34.423473    90.016431    119.66323    90.107069    18.845766    14.337592    28.381114    18.848829    14.343304 
  161000    299.90404    1.2509986    2055.8741   -1194.7646   -211.49952    2069.8361   -2309.8963    798.50312    44657.537 -0.067234084   -17.036218 -0.041707817     3490.699    1607.4231    906.96997    828.93994    28.381027    18.846115     14.33713 0.0028449489   0.00284206 0.0028331596 0.0028327559    299.90404     41.49527    35.978931    34.423473    90.016431    119.66323    90.107069    18.847226    14.336703    28.380069    18.849273    14.339909 
  162000    295.47574    1.2509986    1954.4721   -1197.4902   -211.49952    2067.3292   -2309.9167   -429.99245    44657.537 -0.067234084   -17.036218 -0.041707817    3394.5498    1505.8312    896.86689    847.73406    28.380362    18.845848    14.337614 0.0028911797 0.0028909177 0.0029334703 0.0029244483    295.47574     41.49527    35.978931    34.423473    90.016431    119.66323    90.107069    18.846271    14.337272    28.381645    18.850354    14.337947 
  163000    298.05634    1.2509986    1997.9083   -1192.9363   -211.49952    2075.1478   -2309.1216    762.44123    44657.537 -0.067234084   -17.036218 -0.041707817    3424.8184    1539.7986    882.17425    854.18925    28.382229    18.846255    14.339017 0.0027723308 0.0027660339 0.0028213547 0.0028005717    298.05634     41.49527    35.978931    34.423473    90.016431    119.66323    90.107069    18.845979    14.339079    28.381434    18.847227    14.343389 
  164000    298.53228    1.2509986    1928.3307    -1218.125   -211.49952    2070.4748   -2309.0175   -496.81322    44657.537 -0.067234084   -17.036218 -0.041707817    3384.9984    1483.2664    877.09909    876.65206    28.378559    18.846307    14.337721 0.0028237612  0.002823309 0.0030992727 0.0030988739    298.53228     41.49527    35.978931    34.423473    90.016431    119.66323    90.107069    18.846623    14.337586    28.378954    18.848851     14.33954 
  165000    295.25017    1.2509986    1962.9217   -1217.9384   -211.49952    2071.1248   -2309.3497    29.733402    44657.537 -0.067234084   -17.036218 -0.041707817    3419.0849    1445.4658     924.9376    893.23748    28.381468    18.846278    14.337985 0.0028707278 0.0028679304  0.002866907 0.0028547306    295.25017     41.49527    35.978931    34.423473    90.016431    119.66323    90.107069     18.84746    14.337804    28.376158    18.849327    14.338911 
[...]
  961000    304.46106    1.2509986    1973.4658   -1195.3895   -211.49952    2072.8466   -2309.3451    1337.9561    44657.537 -0.067234084   -17.036218 -0.041707817    3405.3538    1505.1559    901.03728    854.24165     28.37752    18.847189    14.336913 0.0030232283 0.0030224645 0.0031468504 0.0031447341    304.46106     41.49527    35.978931    34.423473    90.016431    119.66323    90.107069    18.846557     14.33846    28.378388    18.849495    14.340358 
  962000    295.92454    1.2509986    1945.4205   -1198.4701   -211.49952    2068.9671   -2309.7079   -532.86689    44657.537 -0.067234084   -17.036218 -0.041707817    3384.6314    1478.2611    899.68311    857.47513    28.381455     18.84606    14.337676 0.0027837775 0.0027832429 0.0028492843  0.002848033    295.92454     41.49527    35.978931    34.423473    90.016431    119.66323    90.107069    18.846529    14.337431    28.379478    18.849458    14.340661 
  963000    298.38982    1.2509986    1971.2046   -1210.0374   -211.49952    2070.7344   -2309.8534   -408.08772    44657.537 -0.067234084   -17.036218 -0.041707817     3420.361    1516.6207    873.13269    878.90646    28.379202    18.846371    14.337557 0.0027726964 0.0027700058 0.0028256341 0.0028234408    298.38982     41.49527    35.978931    34.423473    90.016431    119.66323    90.107069    18.847065    14.337993    28.378123    18.848942    14.340003 
  964000    301.81151    1.2509986     1947.542   -1210.0299   -211.49952    2068.0911   -2309.7949    1185.4915    44657.537 -0.067234084   -17.036218 -0.041707817    3399.2757    1507.4873    904.72591     841.7298    28.376774    18.844556    14.336933   0.00283536 0.0028331649 0.0030431859 0.0030383447    301.81151     41.49527    35.978931    34.423473    90.016431    119.66323    90.107069    18.844719    14.337558    28.380576    18.847779    14.341148 
  965000       296.31    1.2509986    1954.7643   -1170.4058   -211.49952    2069.1747   -2309.8094    1705.9966    44657.537 -0.067234084   -17.036218 -0.041707817    3365.8048    1471.6076    867.71444    872.17799    28.381441    18.846606    14.337213 0.0029075311 0.0029048551 0.0028362584  0.002832688       296.31     41.49527    35.978931    34.423473    90.016431    119.66323    90.107069    18.846645    14.337467    28.379514    18.847331    14.338778 
  966000    301.26005    1.2509986    1967.4716   -1205.9009   -211.49952    2072.4822   -2309.5929    344.04174    44657.537 -0.067234084   -17.036218 -0.041707817    3410.4832    1513.8871    871.30122    871.76121    28.380988    18.845988    14.339275 0.0028476433 0.0028454798 0.0029028343 0.0028633542    301.26005     41.49527    35.978931    34.423473    90.016431    119.66323    90.107069     18.84505     14.33865    28.376712     18.84397    14.342079 
  967000    297.62776    1.2509986    2014.1893    -1198.726   -211.49952    2074.5397   -2309.1836    860.43433    44657.537 -0.067234084   -17.036218 -0.041707817    3447.5592    1486.6255    936.46307    871.22799    28.380687    18.847313    14.338266 0.0028765758  0.002874189 0.0030837842 0.0030698814    297.62776     41.49527    35.978931    34.423473    90.016431    119.66323    90.107069     18.84746    14.338004    28.381318    18.850061    14.342753 
  968000    297.41977    1.2509986    1934.9959   -1212.2281   -211.49952    2070.0811   -2309.3786   -340.72709    44657.537 -0.067234084   -17.036218 -0.041707817    3386.5214    1494.0276    881.88313    858.54662    28.379935    18.844788    14.337023 0.0028582656 0.0028577966 0.0028933038 0.0028904157    297.41977     41.49527    35.978931    34.423473    90.016431    119.66323    90.107069    18.846862    14.337817    28.380968    18.848131    14.339981 
  969000    296.50721    1.2509986     1959.857    -1192.092   -211.49952    2075.1573   -2308.9387     1336.478    44657.537 -0.067234084   -17.036218 -0.041707817    3385.7304     1505.389    867.24783    861.26167    28.379995    18.845519    14.337484  0.002850145 0.0028490576 0.0030683817 0.0030470495    296.50721     41.49527    35.978931    34.423473    90.016431    119.66323    90.107069    18.845955    14.336768    28.377393    18.845699    14.337258 
  970000    296.56393    1.2509986    1947.0405   -1215.5762   -211.49952    2071.0423   -2309.3702    40.842053    44657.537 -0.067234084   -17.036218 -0.041707817    3400.9447    1507.1168     877.6575    867.97755    28.379618    18.846101     14.33739 0.0028976357 0.0028964011 0.0027402567 0.0027389275    296.56393     41.49527    35.978931    34.423473    90.016431    119.66323    90.107069    18.847151    14.337309    28.380461    18.849041    14.338924 
  971000    293.82676    1.2509986    1978.6466    -1211.195   -211.49952    2071.5944   -2309.7377   -524.73418    44657.537 -0.067234084   -17.036218 -0.041707817    3427.9849    1506.0866    903.64293    862.16643    28.380472    18.844923    14.338176 0.0028315768 0.0028298559 0.0024301456 0.0024147389    293.82676     41.49527    35.978931    34.423473    90.016431    119.66323    90.107069    18.845734     14.33855    28.377809    18.847447    14.342785 
  972000    297.67632    1.2509986    1950.3096   -1219.0075   -211.49952    2073.3413   -2309.3888   -175.24196    44657.537 -0.067234084   -17.036218 -0.041707817    3405.3646    1574.7584     857.5786    828.14509     28.37887    18.845236    14.337567 0.0028979262 0.0028956751 0.0028848154 0.0028724779    297.67632     41.49527    35.978931    34.423473    90.016431    119.66323    90.107069    18.845701    14.338199    28.378201    18.845812    14.340142 
  973000    301.01199    1.2509986    2039.0789   -1209.8704   -211.49952    2075.3556   -2309.1413   -423.38514    44657.537 -0.067234084   -17.036218 -0.041707817     3482.735    1569.7789    871.64933    882.95598     28.38128     18.84629     14.33806 0.0029170605 0.0029164629 0.0030100932 0.0030046145    301.01199     41.49527    35.978931    34.423473    90.016431    119.66323    90.107069    18.846866      14.3376    28.381687    18.849683    14.338938 
  974000    301.25877    1.2509986    1977.3658   -1205.2581   -211.49952    2074.8489   -2309.3266    1439.9731    44657.537 -0.067234084   -17.036218 -0.041707817    3417.1015    1498.8427    917.91022     853.5578    28.380263    18.846368    14.337611 0.0028147717 0.0028144571 0.0029453014 0.0029447791    301.25877     41.49527    35.978931    34.423473    90.016431    119.66323    90.107069    18.846163    14.337621    28.380233    18.848852    14.339836 
  975000    298.77121    1.2509986    1999.2243   -1215.6133   -211.49952    2073.3304   -2309.3873    133.04659    44657.537 -0.067234084   -17.036218 -0.041707817    3450.8945    1510.4413     882.6411    898.93038    28.379053    18.846904    14.336832 0.0027698572 0.0027691961 0.0026675036  0.002658598    298.77121     41.49527    35.978931    34.423473    90.016431    119.66323    90.107069    18.846596    14.337152    28.382107    18.850559    14.339746 
  976000    296.75215    1.2509986    1992.0837   -1226.5846   -211.49952    2073.0442   -2309.6218   -1167.4805    44657.537 -0.067234084   -17.036218 -0.041707817    3455.2458    1527.7375    894.47963    882.56912    28.380656    18.844091    14.337267 0.0027841076 0.0027835601 0.0026437894 0.0026412397    296.75215     41.49527    35.978931    34.423473    90.016431    119.66323    90.107069    18.845475    14.337675    28.379582    18.847815    14.338583 
  977000    290.64514    1.2509986    2010.2341   -1211.3687   -211.49952    2070.5822   -2309.6867   -320.92646    44657.537 -0.067234084   -17.036218 -0.041707817    3460.7074    1567.0008    907.61962    841.57687    28.380146    18.845567    14.336918 0.0029219303 0.0029207344 0.0028655356 0.0028518946    290.64514     41.49527    35.978931    34.423473    90.016431    119.66323    90.107069    18.845695    14.336793    28.377709     18.84732    14.336925 
  978000    303.32495    1.2509986    1880.8385   -1208.7114   -211.49952    2070.6536   -2309.4046    466.37839    44657.537 -0.067234084   -17.036218 -0.041707817    3328.3009    1491.0516    872.50527    821.29204    28.381723    18.845319    14.338538 0.0028332208 0.0028308642 0.0029785515 0.0029717344    303.32495     41.49527    35.978931    34.423473    90.016431    119.66323    90.107069    18.846238    14.338829    28.380543    18.848277    14.341941 
  979000    299.16635    1.2509986    1980.0672   -1211.1584   -211.49952    2072.5353   -2309.5543   -156.85053    44657.537 -0.067234084   -17.036218 -0.041707817    3428.2447    1513.6144    917.21137    851.04347    28.380295    18.844979    14.337519 0.0027968343  0.002794317 0.0029581508  0.002936273    299.16635     41.49527    35.978931    34.423473    90.016431    119.66323    90.107069    18.845078    14.336677        28.38    18.845168    14.337011 
  980000    295.36063    1.2509986    1951.1321   -1216.8478   -211.49952    2072.2832   -2309.2995   -1845.2356    44657.537 -0.067234084   -17.036218 -0.041707817    3404.9961     1487.609    898.57927    869.85431    28.379139    18.847544    14.337108 0.0028584905 0.0028564602  0.002942928 0.0029340118    295.36063     41.49527    35.978931    34.423473    90.016431    119.66323    90.107069     18.84715    14.337131    28.378014    18.847195    14.337841 
  981000    296.57772    1.2509986    1910.8724   -1214.0527   -211.49952    2073.3069   -2309.5362   -169.02788    44657.537 -0.067234084   -17.036218 -0.041707817    3361.1543    1449.1079    916.42939    848.20974    28.379694     18.84681    14.337556 0.0027762893 0.0027706885 0.0026640836  0.002614643    296.57772     41.49527    35.978931    34.423473    90.016431    119.66323    90.107069    18.848488     14.33827     28.38079     18.85166    14.346034 
  982000    297.75061    1.2509986    2044.1517   -1193.6552   -211.49952    2069.5346    -2309.634   -385.93557    44657.537 -0.067234084   -17.036218 -0.041707817    3477.9063    1602.7835    877.85738    849.01632    28.379324    18.844386    14.338078 0.0027546603 0.0027535284 0.0028518718  0.002833584    297.75061     41.49527    35.978931    34.423473    90.016431    119.66323    90.107069    18.845427    14.338264    28.382166    18.847283    14.342552 
  983000    296.59386    1.2509986     2068.988   -1211.7773   -211.49952    2071.2063   -2309.6407   -1160.6948    44657.537 -0.067234084   -17.036218 -0.041707817    3519.1997    1567.8552    918.67149    874.35971    28.378616    18.844687    14.337471 0.0028429617 0.0028417095 0.0027913619 0.0027887154    296.59386     41.49527    35.978931    34.423473    90.016431    119.66323    90.107069    18.845557    14.337703    28.379301    18.847525    14.340243 
  984000    297.97989    1.2509986    2020.3453    -1205.325   -211.49952      2072.41   -2309.5037   -475.21676    44657.537 -0.067234084   -17.036218 -0.041707817     3462.764    1502.8982    923.66119     885.2059    28.379304    18.846845    14.337291 0.0027619314 0.0027612938 0.0028981598 0.0028944418    297.97989     41.49527    35.978931    34.423473    90.016431    119.66323    90.107069    18.846789    14.337341    28.381114    18.847949    14.340037 
  985000    302.11325    1.2509986    1949.6958   -1204.9405   -211.49952    2071.4552    -2309.912    242.17846    44657.537 -0.067234084   -17.036218 -0.041707817    3393.0931     1526.228    883.31246      835.958    28.378964    18.845362    14.337453 0.0028678513 0.0028666264 0.0029392862 0.0029334263    302.11325     41.49527    35.978931    34.423473    90.016431    119.66323    90.107069    18.847103    14.338316    28.378018    18.847751    14.341016 
  986000    306.70027    1.2509986    2002.0759   -1209.8873   -211.49952      2070.52   -2309.5247   -936.01099    44657.537 -0.067234084   -17.036218 -0.041707817    3450.9679    1515.1683    916.82718    868.34478    28.380752    18.844812    14.338397 0.0028420429 0.0028417267 0.0028857136 0.0028736518    306.70027     41.49527    35.978931    34.423473    90.016431    119.66323    90.107069    18.846215    14.338139    28.377903    18.846442     14.33799 
  987000    297.11755    1.2509986    2000.0117   -1210.1159   -211.49952    2072.9443   -2309.2423    546.66515    44657.537 -0.067234084   -17.036218 -0.041707817    3446.4256    1480.4923    913.13926    896.05828    28.378894    18.844429    14.337694 0.0028195428 0.0028191934 0.0026590239 0.0026447357    297.11755     41.49527    35.978931    34.423473    90.016431    119.66323    90.107069    18.845849    14.338184    28.383075    18.847636    14.339755 
  988000    297.36776    1.2509986    2088.5861    -1191.562   -211.49952    2073.7153   -2309.7391    1144.3502    44657.537 -0.067234084   -17.036218 -0.041707817    3516.1719     1537.058    937.59985    880.10226    28.379604    18.845722    14.337291 0.0029071542 0.0029031963 0.0030236133 0.0030110211    297.36776     41.49527    35.978931    34.423473    90.016431    119.66323    90.107069    18.847158    14.338491    28.382795    18.848806    14.341073 
  989000    296.29787    1.2509986    1932.9142   -1228.0756   -211.49952    2072.7288   -2309.3477   -1983.9496    44657.537 -0.067234084   -17.036218 -0.041707817    3397.6088    1530.1492    896.99461    828.60482     28.38135    18.844536    14.338555 0.0027745204 0.0027732857 0.0029747992  0.002956496    296.29787     41.49527    35.978931    34.423473    90.016431    119.66323    90.107069    18.845142    14.338073     28.37858    18.844886    14.340203 
  990000    300.71799    1.2509986    1997.5819   -1192.8337   -211.49952    2074.2444   -2309.1447     778.4383    44657.537 -0.067234084   -17.036218 -0.041707817    3425.3159    1505.6822    872.93922    891.17634    28.379945    18.845303    14.337928 0.0028402184  0.002836607 0.0028749634 0.0028596555    300.71799     41.49527    35.978931    34.423473    90.016431    119.66323    90.107069    18.846366    14.338072    28.378901    18.845543    14.341323 
  991000    305.90605    1.2509986    1980.1339   -1217.1213   -211.49952    2075.9267   -2309.0005   -949.55172    44657.537 -0.067234084   -17.036218 -0.041707817     3430.329    1526.0358    895.53587     856.4264    28.380966    18.845828    14.337445 0.0027268762 0.0027238228 0.0026354216 0.0026321798    305.90605     41.49527    35.978931    34.423473    90.016431    119.66323    90.107069    18.847119    14.337602    28.380594    18.848912     14.33817 
  992000    304.36615    1.2509986    1944.2219   -1191.6221   -211.49952    2068.7802   -2309.5626    990.35457    44657.537 -0.067234084   -17.036218 -0.041707817    3376.6265    1488.2535    902.08539    841.47416    28.380243     18.84669    14.337936 0.0028291687 0.0028267988 0.0030321295 0.0030318052    304.36615     41.49527    35.978931    34.423473    90.016431    119.66323    90.107069     18.84723    14.338181    28.379487    18.849275    14.340139 
  993000    305.29346    1.2509986     1954.985   -1216.6622   -211.49952    2070.7739   -2309.4676   -233.39469    44657.537 -0.067234084   -17.036218 -0.041707817    3410.3408    1508.4866    887.91481    868.00748    28.379007    18.846753    14.336752 0.0028945591 0.0028935706 0.0029638188 0.0029554653    305.29346     41.49527    35.978931    34.423473    90.016431    119.66323    90.107069    18.846341    14.337147    28.382195    18.848756    14.340789 
  994000    303.45037    1.2509986    1976.7096   -1207.8347   -211.49952    2074.9827   -2309.2604    454.77849    44657.537 -0.067234084   -17.036218 -0.041707817    3418.8221    1476.0148    938.01317    854.95027    28.381076    18.843984     14.33737 0.0028281135 0.0028263684 0.0025732535 0.0025708767    303.45037     41.49527    35.978931    34.423473    90.016431    119.66323    90.107069    18.844996    14.337243    28.379461    18.847626    14.338972 
  995000    297.53916    1.2509986    1932.9817   -1197.3913   -211.49952    2072.0604   -2309.4862    1181.2726    44657.537 -0.067234084   -17.036218 -0.041707817    3367.7987    1524.1688    859.72032    840.00711    28.379481    18.846788    14.336891 0.0027625835 0.0027617611 0.0028132432  0.002808659    297.53916     41.49527    35.978931    34.423473    90.016431    119.66323    90.107069    18.846333    14.337165    28.377871    18.848601    14.338384 
  996000    302.05955    1.2509986    1879.1454   -1213.9177   -211.49952    2069.5764   -2309.7349   -85.931023    44657.537 -0.067234084   -17.036218 -0.041707817    3333.2216     1486.104    873.82543    827.95063    28.381847    18.844847    14.338138 0.0029815293 0.0029768698 0.0029943417 0.0029863178    302.05955     41.49527    35.978931    34.423473    90.016431    119.66323    90.107069     18.84481    14.338675    28.378971    18.847301    14.341817 
  997000    291.85754    1.2509986    1988.6187   -1195.0848   -211.49952    2069.7699   -2309.2694    492.13351    44657.537 -0.067234084   -17.036218 -0.041707817     3423.203    1512.3789    898.43284     859.7881    28.379459    18.846326    14.338276 0.0028155522 0.0028132554 0.0028208295 0.0027967548    291.85754     41.49527    35.978931    34.423473    90.016431    119.66323    90.107069    18.846309    14.339242    28.379682    18.846246    14.343688 
  998000    296.96259    1.2509986    2035.1299   -1206.2039   -211.49952    2071.3486   -2309.3246    644.83358    44657.537 -0.067234084   -17.036218 -0.041707817    3479.3098    1528.0721    912.73514    884.73092    28.378736    18.844218    14.337541 0.0027220317 0.0027214637 0.0026625549   0.00265443    296.96259     41.49527    35.978931    34.423473    90.016431    119.66323    90.107069    18.846598    14.338335    28.378583    18.847016    14.341424 
  999000    292.46764    1.2509986    2008.5713     -1213.52   -211.49952    2071.2264    -2309.677   -1613.3244    44657.537 -0.067234084   -17.036218 -0.041707817     3460.542    1560.0142    903.73396    847.70086    28.379488     18.84639    14.337404 0.0028791967 0.0028787448 0.0028037668 0.0027992342    292.46764     41.49527    35.978931    34.423473    90.016431    119.66323    90.107069     18.84558    14.337447    28.380321     18.84837    14.341518 
 1000000    292.27234    1.2509986    1963.1211   -1195.1693   -211.49952    2073.8094   -2309.5137    1273.7165    44657.537 -0.067234084   -17.036218 -0.041707817    3393.9947    1476.2282    910.46506     854.8609    28.378251    18.843772    14.337316 0.0029763708   0.00297431 0.0028909158 0.0028774923    292.27234     41.49527    35.978931    34.423473    90.016431    119.66323    90.107069    18.845064    14.337949    28.381578    18.845975    14.339971 
Loop time of 3005.87 on 60 procs for 1000000 steps with 4560 atoms

Pair  time (%) = 544.683 (18.1206)
Bond  time (%) = 59.0818 (1.96555)
Kspce time (%) = 1574.78 (52.3902)
Neigh time (%) = 3.35896 (0.111747)
Comm  time (%) = 563.538 (18.7479)
Outpt time (%) = 3.09537 (0.102978)
Other time (%) = 257.332 (8.56096)

Nlocal:    76 ave 84 max 70 min
Histogram: 5 4 18 2 4 12 3 7 1 4
Nghost:    3989.78 ave 4067 max 3886 min
Histogram: 4 7 7 2 0 3 8 13 11 5
Neighs:    28104.3 ave 31317 max 25690 min
Histogram: 4 8 10 8 8 7 4 5 4 2

Total # of neighbors = 1686261
Ave neighs/atom = 369.794
Ave special neighs/atom = 10.6316
Neighbor list builds = 1538
Dangerous builds = 0
System init for write_data ...
PPPM initialization ...
  G vector (1/distance) = 0.246499
  grid = 16 16 20
  stencil order = 5
  estimated absolute RMS force accuracy = 0.00242397
  estimated relative force accuracy = 7.2997e-06
  using double precision FFTs
  3d grid and FFT values/proc = 1053 112
