LAMMPS data file via write_data, version 15 May 2015, timestep = 23005000

2611 atoms
6 atom types
1749 bonds
4 bond types
894 angles
3 angle types
44 dihedrals
3 dihedral types
10 impropers
1 improper types

-1.4955719879199799e+01 1.4955719879199799e+01 xlo xhi
-1.4955719879199799e+01 1.4955719879199799e+01 ylo yhi
-1.4955719879199799e+01 1.4955719879199799e+01 zlo zhi

Masses

1 15.9994
2 1.00794
3 12.0107
4 1.00794
5 12.0107
6 12.0107

Bond Coeffs # harmonic

1 1000 1
2 469 1.4
3 367 1.08
4 469 0.7

Angle Coeffs # harmonic

1 100 109.47
2 35 120
3 63 120

Dihedral Coeffs # opls

1 0 7.25 0 0
2 0 7.25 0 0
3 0 7.25 0 0

Improper Coeffs # cvff

1 2.5 -1 2

Atoms # full

1306 436 1 -8.1999999999999995e-01 -9.6841879098142911e+00 -1.2760874805691687e+01 -1.2543987033584692e+01 2 2 -3
828 276 2 4.0999999999999998e-01 -8.5286093366402547e+00 -1.0608293694115266e+01 -1.1055627051683762e+01 3 2 -1
826 276 1 -8.1999999999999995e-01 -9.1016072355974273e+00 -1.0196375048067278e+01 -1.1764152864803425e+01 3 2 -1
827 276 2 4.0999999999999998e-01 -9.2894954659201670e+00 -9.2429106045196932e+00 -1.1528322456203998e+01 3 2 -1
1382 461 2 4.0999999999999998e-01 -9.8727778878733332e+00 -1.0079100050531684e+01 -1.3582642706236900e+01 -6 4 -3
1398 466 2 4.0999999999999998e-01 -9.3399500268196132e+00 -6.8266445653771903e+00 -8.3903042939854870e+00 0 -3 -2
561 187 2 4.0999999999999998e-01 -1.0107559744634310e+01 -7.5449754282496846e+00 -1.0840822100937038e+01 5 6 -3
559 187 1 -8.1999999999999995e-01 -9.9750605399622181e+00 -7.7799007018490380e+00 -1.1803768805021507e+01 5 6 -3
1396 466 1 -8.1999999999999995e-01 -9.3767880938706476e+00 -7.4002688554675045e+00 -9.2086015314861775e+00 0 -3 -2
1188 396 2 4.0999999999999998e-01 -1.1247716586707963e+01 -7.0816383329602619e+00 -9.5429808215182081e+00 -4 9 2
560 187 2 4.0999999999999998e-01 -1.0078280523760451e+01 -6.9583797180844069e+00 -1.2364537093551458e+01 5 6 -3
528 176 2 4.0999999999999998e-01 -1.3179172975936764e+01 -6.7927828622487461e+00 -7.5330572159163038e+00 5 4 2
1187 396 2 4.0999999999999998e-01 -1.2713201825612158e+01 -6.4728688227742310e+00 -9.9282239881573524e+00 -4 9 2
1186 396 1 -8.1999999999999995e-01 -1.2165975247777716e+01 -6.8845834413430484e+00 -9.1994946627433993e+00 -4 9 2
1554 518 2 4.0999999999999998e-01 -8.0969040284086056e+00 -1.1044957795621565e+01 -8.0691025295959342e+00 -1 3 -1
2110 704 1 -8.1999999999999995e-01 -1.3554067854837154e+01 -5.0909931649142841e+00 -1.4359882098529745e+01 1 7 2
1397 466 2 4.0999999999999998e-01 -8.5092374392354149e+00 -7.8862682934497590e+00 -9.3143029908178967e+00 0 -3 -2
2273 758 2 4.0999999999999998e-01 -1.4028231067660732e+01 -1.3273665841862631e+01 -1.0932888060834435e+01 -1 2 7
151 51 1 -8.1999999999999995e-01 -9.6921711345917654e+00 -1.0954111584684600e+01 -8.5339919828149782e+00 -1 3 -1
153 51 2 4.0999999999999998e-01 -9.9212697858201988e+00 -1.0378383548932257e+01 -9.3188890665088415e+00 -1 3 -1
1307 436 2 4.0999999999999998e-01 -8.8785243357671391e+00 -1.2966494741740904e+01 -1.3099539947063970e+01 2 2 -3
152 51 2 4.0999999999999998e-01 -1.0485037909805822e+01 -1.1023095977794723e+01 -7.9285038826460390e+00 -1 3 -1
1224 408 2 4.0999999999999998e-01 -1.4512752497805927e+01 -1.1145206757571508e+01 -9.8391372007767242e+00 -1 0 2
2272 758 1 -8.1999999999999995e-01 -1.4555378133347372e+01 -1.2431206029453186e+01 -1.1044197298778535e+01 -1 2 7
203 68 2 4.0999999999999998e-01 -1.4724015299427062e+01 -7.3751198796042798e+00 -9.7916988749076346e+00 2 0 -2
1488 496 2 4.0999999999999998e-01 -9.8114461486144346e+00 -5.8544930493800909e+00 -1.4340221557581376e+01 -5 -1 4
1222 408 1 -8.1999999999999995e-01 -1.4565036774660003e+01 -1.0595776448012762e+01 -9.0052277061542831e+00 -1 0 2
1308 436 2 4.0999999999999998e-01 -9.5758671860041211e+00 -1.1861857241657660e+01 -1.2119668445718911e+01 2 2 -3
1486 496 1 -8.1999999999999995e-01 -9.4966371255461048e+00 -5.4546400679878673e+00 -1.3479393305440739e+01 -5 -1 4
1376 459 2 4.0999999999999998e-01 -1.2409616746824602e+01 -5.1073079830193748e+00 -1.2130114469623869e+01 -1 0 5
1826 609 2 4.0999999999999998e-01 -7.5212730747637400e+00 -1.4257353709469985e+01 -1.4632765082796732e+01 -1 2 3
2171 724 2 4.0999999999999998e-01 -7.5393299739149935e+00 -1.2826140453464104e+01 -1.0475960978669573e+01 4 1 -1
1825 609 1 -8.1999999999999995e-01 -7.4930146219726312e+00 -1.3479189976481367e+01 -1.4005329894494327e+01 -1 2 3
2255 752 2 4.0999999999999998e-01 -1.4728059109941773e+01 -6.5509486323037240e+00 -1.3530639439723039e+01 4 3 6
612 204 2 4.0999999999999998e-01 -7.7178807904602174e+00 -7.3456721228992281e+00 -1.3442150391645825e+01 2 -1 -6
1381 461 1 -8.1999999999999995e-01 -1.0376096237142582e+01 -9.9920888934592096e+00 -1.4442358953763563e+01 -6 4 -3
915 305 2 4.0999999999999998e-01 -1.3090132392680735e+01 -1.0828900558648904e+01 -8.0314824827967044e+00 2 2 -1
1377 459 2 4.0999999999999998e-01 -1.0809250057796476e+01 -5.4319451365400546e+00 -1.2139945332364466e+01 -1 0 5
1383 461 2 4.0999999999999998e-01 -1.0923170892710811e+01 -9.1551760688908530e+00 -1.4425078619806316e+01 -6 4 -3
820 274 1 -8.1999999999999995e-01 -1.4265964959203592e+01 -5.8008530212174954e+00 -1.1091272980075082e+01 2 -4 3
36 12 2 4.0999999999999998e-01 -1.0197631096763562e+01 -1.4244746342131942e+01 -1.3284709183699848e+01 2 3 4
625 209 1 -8.1999999999999995e-01 -1.1862276278138058e+01 -7.6989076370089409e+00 -1.4596405045168005e+01 -2 3 -1
2112 704 2 4.0999999999999998e-01 -1.2686541216820050e+01 -5.1406459533455759e+00 -1.4854800783806994e+01 1 7 2
204 68 2 4.0999999999999998e-01 -1.4743001868565523e+01 -8.9445304218813817e+00 -9.3408667568746626e+00 2 0 -2
1375 459 1 -8.1999999999999995e-01 -1.1564130998924018e+01 -5.0625619462697760e+00 -1.1597982970811527e+01 -1 0 5
665 222 2 4.0999999999999998e-01 -7.6685057792421913e+00 -1.1050830084817187e+01 -1.3307815420103577e+01 -3 2 6
626 209 2 4.0999999999999998e-01 -1.2631776819544399e+01 -7.3691097659126257e+00 -1.4049491254309352e+01 -2 3 -1
1528 510 1 -8.1999999999999995e-01 -1.2860519437940681e+01 -1.4809660915516506e+01 -1.2286266421217960e+01 4 4 3
1529 510 2 4.0999999999999998e-01 -1.1985796338660753e+01 -1.4619823281713861e+01 -1.1840358907530595e+01 4 4 3
809 270 2 4.0999999999999998e-01 -1.2884287256869834e+01 -9.5940267867780662e+00 -1.4932693765929148e+01 -1 8 2
2267 756 2 4.0999999999999998e-01 -1.3102201987667625e+01 -1.1818534197978366e+01 -1.4872508036382156e+01 3 2 -1
2268 756 2 4.0999999999999998e-01 -1.1477240255962077e+01 -1.1968975910183691e+01 -1.4931889820161432e+01 3 2 -1
178 60 1 -8.1999999999999995e-01 -4.3386130308122191e+00 -5.0276683810235472e+00 -1.1623565138179440e+01 5 5 -4
2188 730 1 -8.1999999999999995e-01 -1.0024789129333289e+00 -1.2036095863151955e+01 -7.6731730056549710e+00 -1 -7 0
483 161 2 4.0999999999999998e-01 -5.8370115114353851e+00 -8.3980432101272253e+00 -9.4368371879282762e+00 3 2 -3
1603 535 1 -8.1999999999999995e-01 -1.2653657134263963e+00 -7.2198849123882631e+00 -1.4869214788140050e+01 0 0 2
1085 362 2 4.0999999999999998e-01 -1.9513752674664762e+00 -1.0415770176493012e+01 -8.0730086680931255e+00 4 -3 2
1792 598 1 -8.1999999999999995e-01 -3.8078948333038465e+00 -9.5378298180631802e+00 -1.4575669609971937e+01 3 7 3
128 43 2 4.0999999999999998e-01 -3.5385595689963996e+00 -1.3691279897356859e+01 -8.7318315690561317e+00 -1 1 -2
1827 609 2 4.0999999999999998e-01 -6.6322137478922585e+00 -1.3492344736945533e+01 -1.3496545841126110e+01 -1 2 3
1084 362 1 -8.1999999999999995e-01 -2.1011085521617030e+00 -9.4368298070114047e+00 -7.9341994250851098e+00 4 -3 2
2190 730 2 4.0999999999999998e-01 -2.4475811706221684e-01 -1.1932713922079966e+01 -8.3175204787821730e+00 -1 -7 0
1793 598 2 4.0999999999999998e-01 -3.8627330778582625e+00 -8.5519693916955681e+00 -1.4417289224760315e+01 3 7 3
804 268 2 4.0999999999999998e-01 -4.4972966723321974e+00 -5.7945513351830655e+00 -1.3486374368224995e+01 4 6 5
2553 851 2 4.0999999999999998e-01 -1.1549137880395239e+00 -1.3475131175645680e+01 -1.4032970030358804e+01 -3 6 -1
1727 576 2 4.0999999999999998e-01 -1.0137102893718684e+00 -9.7558125956122819e+00 -1.3123021899654283e+01 -3 2 4
964 322 1 -8.1999999999999995e-01 -4.8086393870270943e+00 -1.1969605928779060e+01 -1.1175319029738734e+01 0 2 4
664 222 1 -8.1999999999999995e-01 -6.9152679230767191e+00 -1.0764134372914842e+01 -1.3899803864694498e+01 -3 2 6
223 75 1 -8.1999999999999995e-01 -7.1297128103653495e+00 -1.3724111482303417e+01 -7.9224216950789197e+00 -2 1 -2
404 135 2 4.0999999999999998e-01 -7.7724915365965508e-01 -6.3026418934262196e+00 -1.0943697251786485e+01 -1 2 1
482 161 2 4.0999999999999998e-01 -6.3703727092651707e+00 -7.9934326165258138e+00 -7.9473825269349199e+00 3 2 -3
1552 518 1 -8.1999999999999995e-01 -7.1705727335815581e+00 -1.0924712193484481e+01 -7.7120819375088212e+00 -1 3 -1
2170 724 1 -8.1999999999999995e-01 -7.3589235746963837e+00 -1.1849795596109669e+01 -1.0595193544764708e+01 4 1 -1
966 322 2 4.0999999999999998e-01 -4.3979587394256470e+00 -1.1097685532471745e+01 -1.1441980499837863e+01 0 2 4
1298 433 2 4.0999999999999998e-01 -1.9222835881594271e+00 -6.6002894792867579e+00 -9.3529569980588416e+00 2 1 -2
1494 498 2 4.0999999999999998e-01 -5.8703786448840294e+00 -7.8611312782271980e+00 -1.1656333389165251e+01 1 0 0
1728 576 2 4.0999999999999998e-01 -2.4132228944087313e+00 -1.0052432565013508e+01 -1.3910448416871263e+01 -3 2 4
2312 771 2 4.0999999999999998e-01 -2.6670726456701566e+00 -9.4040922193961851e+00 -1.0315159532199804e+01 8 0 9
965 322 2 4.0999999999999998e-01 -4.1609644797581247e+00 -1.2485451366180797e+01 -1.0614575688926347e+01 0 2 4
129 43 2 4.0999999999999998e-01 -2.5839879807990762e+00 -1.2369741062611736e+01 -8.8266347554549220e+00 -1 1 -2
1299 433 2 4.0999999999999998e-01 -1.6010897267998718e+00 -8.1848514966513299e+00 -9.1234857435383017e+00 2 1 -2
127 43 1 -8.1999999999999995e-01 -2.9507290329711537e+00 -1.3150095493320334e+01 -9.3331526401889100e+00 -1 1 -2
1358 453 2 4.0999999999999998e-01 -4.6351908722120108e+00 -1.3611410989193930e+01 -1.2011344039114718e+01 2 -4 3
1297 433 1 -8.1999999999999995e-01 -1.8258916821099049e+00 -7.4875322829564848e+00 -9.8040901604223087e+00 2 1 -2
1794 598 2 4.0999999999999998e-01 -4.6209909892259446e+00 -9.9816712265621419e+00 -1.4198984288928923e+01 3 7 3
666 222 2 4.0999999999999998e-01 -6.7017786898616496e+00 -1.1496809852602563e+01 -1.4546040087347762e+01 -3 2 6
1604 535 2 4.0999999999999998e-01 -2.0993225245939442e+00 -7.0515653230916007e+00 -1.4343670468166639e+01 0 0 2
1492 498 1 -8.1999999999999995e-01 -5.1494930161391839e+00 -7.7904399663911432e+00 -1.0966885029232749e+01 1 0 0
2552 851 2 4.0999999999999998e-01 -1.6286460202929884e+00 -1.2203406995503940e+01 -1.3124699868293948e+01 -3 6 -1
803 268 2 4.0999999999999998e-01 -5.3799273334160027e+00 -6.8669870626905336e+00 -1.4345155036311382e+01 4 6 5
611 204 2 4.0999999999999998e-01 -7.0128420474599888e+00 -8.8186190020435333e+00 -1.3444809072040909e+01 2 -1 -6
610 204 1 -8.1999999999999995e-01 -6.8462205605655235e+00 -7.8335725374808147e+00 -1.3488775855145384e+01 2 -1 -6
1726 576 1 -8.1999999999999995e-01 -1.6514268064273327e+00 -1.0468918030292437e+01 -1.3414244199478976e+01 -3 2 4
1553 518 2 4.0999999999999998e-01 -6.7166004567640840e+00 -1.0183185515277355e+01 -8.2061058809643992e+00 -1 3 -1
2313 771 2 4.0999999999999998e-01 -2.1708597584539149e+00 -1.0137824217051973e+01 -1.1687044976033286e+01 8 0 9
2311 771 1 -8.1999999999999995e-01 -2.9627617503413948e+00 -9.9293845319168650e+00 -1.1113061946013705e+01 8 0 9
224 75 2 4.0999999999999998e-01 -6.9779054265079026e+00 -1.2736615743876047e+01 -7.8797706486547225e+00 -2 1 -2
1357 453 1 -8.1999999999999995e-01 -4.7301794592851980e+00 -1.4570090303271005e+01 -1.2279529475184921e+01 2 -4 3
1493 498 2 4.0999999999999998e-01 -4.3696768105247639e+00 -8.3532047286100628e+00 -1.1241101779702817e+01 1 0 0
2172 724 2 4.0999999999999998e-01 -6.3906066878001582e+00 -1.1712829774835223e+01 -1.0804035805087665e+01 4 1 -1
481 161 1 -8.1999999999999995e-01 -6.5041485949652635e+00 -8.6105125468260351e+00 -8.7228364064658166e+00 3 2 -3
802 268 1 -8.1999999999999995e-01 -4.4529210096839549e+00 -6.5682085428622603e+00 -1.4118432711111350e+01 4 6 5
179 60 2 4.0999999999999998e-01 -4.6182937807657520e+00 -5.9396074949996116e+00 -1.1323301779105144e+01 5 5 -4
1713 571 2 4.0999999999999998e-01 -4.4678970398761031e-01 -1.0978920345020429e+01 -1.4480286916848796e+01 -1 4 1
2551 851 1 -8.1999999999999995e-01 -1.3849887860080248e+00 -1.3173128187976459e+01 -1.3107836659804459e+01 -3 6 -1
914 305 2 4.0999999999999998e-01 -1.2731900296788154e+01 -1.0303840974794351e+01 -6.5272744829989229e+00 2 2 -1
143 48 2 4.0999999999999998e-01 -1.2051562055378179e+01 -9.8344101458860766e+00 -3.4230986710548432e+00 -3 4 -3
144 48 2 4.0999999999999998e-01 -1.1133134700109624e+01 -9.1785193937087541e+00 -4.6033350885143722e+00 -3 4 -3
142 48 1 -8.1999999999999995e-01 -1.1189631629791037e+01 -9.3685136011531291e+00 -3.6231704816686676e+00 -3 4 -3
928 310 1 -8.1999999999999995e-01 -9.2920399797880222e+00 -5.5978271911692961e+00 -7.0348137189742852e+00 0 1 3
1847 616 2 4.0999999999999998e-01 -1.1855496742401995e+01 -1.3561047777369458e+01 -2.9488312632468734e+00 0 2 2
1846 616 1 -8.1999999999999995e-01 -1.2257596961616358e+01 -1.3832046413917565e+01 -3.8234097321731415e+00 0 2 2
2300 767 2 4.0999999999999998e-01 -1.3982395685219128e+01 -8.0362153562610370e+00 -3.6932587669184169e+00 0 -1 0
1682 561 2 4.0999999999999998e-01 -9.8033321143884287e+00 -1.0270095146270744e+01 -2.4779988832528268e+00 -3 8 4
237 79 2 4.0999999999999998e-01 -1.2032243641682340e+01 -5.3871924809733525e+00 -3.8413728435122891e+00 -1 -4 2
1154 385 2 4.0999999999999998e-01 -1.2848245059763569e+01 -6.2954247557640937e+00 -2.2738245332779670e+00 -5 3 5
1891 631 1 -8.1999999999999995e-01 -1.1064950401704721e+01 -1.3577902146751278e+01 -1.3938501664698588e+00 2 -4 -5
428 143 2 4.0999999999999998e-01 -1.3828819232054220e+01 -1.3525883823355155e+01 -4.3736119823728750e+00 -5 2 5
526 176 1 -8.1999999999999995e-01 -1.3851790489780790e+01 -6.7423113221130428e+00 -6.7947817441862757e+00 5 4 2
2043 681 2 4.0999999999999998e-01 -9.0162119788647281e+00 -1.0651671601263180e+01 -4.7649453339186643e-01 0 4 0
235 79 1 -8.1999999999999995e-01 -1.1900350915655741e+01 -5.2086118060320743e+00 -4.8164244636778779e+00 -1 -4 2
2299 767 1 -8.1999999999999995e-01 -1.4235362025037876e+01 -7.3818841564013926e+00 -2.9806080253013665e+00 0 -1 0
236 79 2 4.0999999999999998e-01 -1.2306396764243972e+01 -5.9511119475027456e+00 -5.3491840016105172e+00 -1 -4 2
44 15 2 4.0999999999999998e-01 -9.5275126406170010e+00 -1.3936017513922691e+01 -4.1519728418642075e+00 4 0 -2
43 15 1 -8.1999999999999995e-01 -8.8959911120912203e+00 -1.3278856133591807e+01 -3.7404732697653493e+00 4 0 -2
1893 631 2 4.0999999999999998e-01 -1.0511483995642653e+01 -1.4317561763485894e+01 -1.0109784983487291e+00 2 -4 -5
45 15 2 4.0999999999999998e-01 -8.6989016207918723e+00 -1.2550275006075186e+01 -4.3964745646357493e+00 4 0 -2
550 184 1 -8.1999999999999995e-01 -7.6578505262923864e+00 -1.1338969510975570e+01 -5.2179643443544794e+00 -1 5 6
551 184 2 4.0999999999999998e-01 -7.5042364147285303e+00 -1.1124195415401234e+01 -6.1824783396905385e+00 -1 5 6
23 8 2 4.0999999999999998e-01 -1.2445203443441642e+01 -1.0195825377436194e+01 -8.1330340193945361e-01 1 4 2
2016 672 2 4.0999999999999998e-01 -1.0436087877430356e+01 -6.4367528436390042e+00 -2.2274871589609333e+00 -6 2 -1
1113 371 2 4.0999999999999998e-01 -1.3456827172596112e+01 -8.2381686380949599e+00 -5.7140728607124878e+00 -4 2 3
1164 388 2 4.0999999999999998e-01 -1.4729660129279191e+01 -1.4041274996536272e+01 -2.4970279707871654e+00 0 2 1
2015 672 2 4.0999999999999998e-01 -9.7084842816423613e+00 -7.8430718390682026e+00 -2.6268858994652984e+00 -6 2 -1
1715 572 2 4.0999999999999998e-01 -8.1772167991556941e+00 -1.3599953380063937e+01 -2.0693868521625980e+00 3 5 -1
2014 672 1 -8.1999999999999995e-01 -9.5949126814731205e+00 -6.9718461717564040e+00 -2.1493090297921444e+00 -6 2 -1
930 310 2 4.0999999999999998e-01 -9.9334404187738983e+00 -5.8451595193116344e+00 -6.3085599490577700e+00 0 1 3
1676 559 2 4.0999999999999998e-01 -7.5708990987902558e+00 -6.1619526127511399e+00 -1.9792117179202897e+00 2 6 5
527 176 2 4.0999999999999998e-01 -1.4648146855473541e+01 -6.2227033034868882e+00 -7.1043563001218129e+00 5 4 2
1112 371 2 4.0999999999999998e-01 -1.4460994036452711e+01 -9.4395042207082973e+00 -5.2502829627226379e+00 -4 2 3
1714 572 1 -8.1999999999999995e-01 -7.6449706671632445e+00 -1.3923580939818471e+01 -1.2870878945312381e+00 3 5 -1
1111 371 1 -8.1999999999999995e-01 -1.3506442902617538e+01 -9.1448282763468072e+00 -5.2951231920270327e+00 -4 2 3
359 120 2 4.0999999999999998e-01 -1.2965439517022549e+01 -1.4286314559371597e+01 -7.0404929786953856e+00 -1 2 3
1848 616 2 4.0999999999999998e-01 -1.1930068516389857e+01 -1.4743409866001800e+01 -4.0727166255814247e+00 0 2 2
1153 385 1 -8.1999999999999995e-01 -1.2349623748591315e+01 -5.4595578614081131e+00 -2.0442259698198839e+00 -5 3 5
1683 561 2 4.0999999999999998e-01 -9.3035092165141116e+00 -1.1824463836508681e+01 -2.4501800123884934e+00 -3 8 4
929 310 2 4.0999999999999998e-01 -8.3624381557988592e+00 -5.8367296573527003e+00 -6.7541386709271372e+00 0 1 3
719 240 2 4.0999999999999998e-01 -7.6711081555235303e+00 -8.1826355984535191e+00 -3.2061762496576875e+00 4 3 4
1681 561 1 -8.1999999999999995e-01 -9.1189273600966736e+00 -1.0901280672087163e+01 -2.1130233061820487e+00 -3 8 4
1716 572 2 4.0999999999999998e-01 -8.0704752442634806e+00 -1.3605420306127282e+01 -4.3989751484538075e-01 3 5 -1
22 8 1 -8.1999999999999995e-01 -1.3154057364362316e+01 -1.0252828901521394e+01 -1.5163603845779114e+00 1 4 2
429 143 2 4.0999999999999998e-01 -1.4842468629130913e+01 -1.3257648588941995e+01 -5.6255002972531774e+00 -5 2 5
427 143 1 -8.1999999999999995e-01 -1.4784632682573957e+01 -1.3538050423054454e+01 -4.6673550956765748e+00 -5 2 5
24 8 2 4.0999999999999998e-01 -1.3844123456107221e+01 -9.5480192827129837e+00 -1.3518473040442345e+00 1 4 2
913 305 1 -8.1999999999999995e-01 -1.2419987815108268e+01 -1.0869879501680824e+01 -7.2903756419648298e+00 2 2 -1
1831 611 1 -8.1999999999999995e-01 -1.4688729534970067e+01 -6.5437503609909751e+00 -5.5746859878244237e-01 5 -1 4
358 120 1 -8.1999999999999995e-01 -1.2144731647761452e+01 -1.3774625455524413e+01 -6.7862782117896554e+00 -1 2 3
360 120 2 4.0999999999999998e-01 -1.2325274171431206e+01 -1.2794253224964583e+01 -6.8655655139883169e+00 -1 2 3
1677 559 2 4.0999999999999998e-01 -7.7420071586659445e+00 -5.1825757600510673e+00 -3.2746659753777685e+00 2 6 5
1832 611 2 4.0999999999999998e-01 -1.4519662186172194e+01 -6.9164128310876585e+00 -1.4699110718119925e+00 5 -1 4
1892 631 2 4.0999999999999998e-01 -1.1860321412323835e+01 -1.3419560497925366e+01 -8.0876448776806420e-01 2 -4 -5
225 75 2 4.0999999999999998e-01 -7.8378143604521826e+00 -1.3981198219795658e+01 -7.2647660790374200e+00 -2 1 -2
1967 656 2 4.0999999999999998e-01 -5.6766967321495496e+00 -1.3918516011601039e+01 -7.5504525049646176e-01 2 1 2
746 249 2 4.0999999999999998e-01 -3.8102501552086370e+00 -5.8929196289948305e+00 -2.3004659951574027e+00 -6 2 1
2189 730 2 4.0999999999999998e-01 -6.4149348177728172e-01 -1.2113709532921696e+01 -6.7438302540498878e+00 -1 -7 0
1675 559 1 -8.1999999999999995e-01 -7.2071488987882715e+00 -5.3569538804311474e+00 -2.4479066333119057e+00 2 6 5
552 184 2 4.0999999999999998e-01 -7.4554649577220609e+00 -1.0533591356175432e+01 -4.6608122121789197e+00 -1 5 6
1617 539 2 4.0999999999999998e-01 -8.0694598694362796e-01 -1.2102958391434839e+01 -4.6607837053255441e+00 2 2 3
1905 635 2 4.0999999999999998e-01 -1.5566268733681401e+00 -5.7676079486791263e+00 -7.2077313614865899e+00 -5 -4 -2
2162 721 2 4.0999999999999998e-01 -9.1547431406423208e-01 -5.8235434381233429e+00 -3.2770788729823206e+00 1 -3 5
2359 787 1 -8.1999999999999995e-01 -4.3446820033161497e+00 -6.3663439961904462e+00 -6.2101861214721836e+00 -8 2 1
2350 784 1 -8.1999999999999995e-01 -6.9359922721848335e+00 -6.9655632969724204e+00 -6.3018380356604222e+00 1 -1 0
2163 721 2 4.0999999999999998e-01 -7.7295666053487722e-01 -6.0505695310457543e+00 -4.8879193200236948e+00 1 -3 5
1903 635 1 -8.1999999999999995e-01 -1.3755375267362737e+00 -6.4596013159192616e+00 -6.5089007973721689e+00 -5 -4 -2
2361 787 2 4.0999999999999998e-01 -4.5365279563990413e+00 -5.6589608119038921e+00 -5.5298800182753602e+00 -8 2 1
1976 659 2 4.0999999999999998e-01 -2.0944169951954787e+00 -1.2855135748982445e+01 -5.3346278977302042e-01 0 3 -3
1904 635 2 4.0999999999999998e-01 -4.9517565294544852e-01 -6.8967553725094408e+00 -6.6929432834891074e+00 -5 -4 -2
1994 665 2 4.0999999999999998e-01 -2.7928984215952788e+00 -1.2301636029387126e+01 -3.1143454264552553e+00 -1 1 0
1975 659 1 -8.1999999999999995e-01 -2.8162788396143394e+00 -1.2571392634324647e+01 -1.1646661832340524e+00 0 3 -3
2351 784 2 4.0999999999999998e-01 -5.9994509008874015e+00 -6.6153102138140696e+00 -6.2868232876209209e+00 1 -1 0
890 297 2 4.0999999999999998e-01 -6.4912056902252040e+00 -1.4522609994971315e+01 -5.3603838865429125e+00 -5 3 2
2352 784 2 4.0999999999999998e-01 -6.9962163811805844e+00 -7.7808652826945037e+00 -5.7259317629332358e+00 1 -1 0
2059 687 1 -8.1999999999999995e-01 -3.4789726930681777e+00 -9.6651054234925979e+00 -5.5771705538764085e+00 6 4 -3
1229 410 2 4.0999999999999998e-01 -1.8837007255361620e+00 -1.4226402587816954e+01 -4.6981943314239807e+00 -4 1 3
2165 722 2 4.0999999999999998e-01 -8.4850287830607485e-01 -8.2805419852454136e+00 -4.5156869351347027e+00 2 4 -1
2360 787 2 4.0999999999999998e-01 -3.3556478721500547e+00 -6.4575378589570800e+00 -6.3264074788497009e+00 -8 2 1
1498 500 1 -8.1999999999999995e-01 -2.4523086292362439e+00 -8.8885117536080678e+00 -1.7128893259785460e+00 2 6 2
2166 722 2 4.0999999999999998e-01 -2.0867940529309390e+00 -9.3287168176380124e+00 -4.7017619057125746e+00 2 4 -1
1499 500 2 4.0999999999999998e-01 -1.9615464015231208e+00 -9.0051172596600679e+00 -2.5763520291780750e+00 2 6 2
1086 362 2 4.0999999999999998e-01 -2.6526918139728153e+00 -9.2973183790476863e+00 -7.1118219998610011e+00 4 -3 2
891 297 2 4.0999999999999998e-01 -6.6150931337307650e+00 -1.2965971944795886e+01 -4.8826920615936888e+00 -5 3 2
745 249 1 -8.1999999999999995e-01 -2.9978804987645180e+00 -6.2520258304191856e+00 -2.7599337045622683e+00 -6 2 1
1209 403 2 4.0999999999999998e-01 -5.6755697047990274e+00 -8.9730401324728177e+00 -1.3253038011544369e+00 -2 1 4
2164 722 1 -8.1999999999999995e-01 -1.3543922686395042e+00 -9.0305802252675491e+00 -4.0896225619157942e+00 2 4 -1
2430 810 2 4.0999999999999998e-01 -4.8722767661648518e+00 -1.2626745906271156e+01 -5.6083504105550492e+00 5 1 1
889 297 1 -8.1999999999999995e-01 -5.9823699525275469e+00 -1.3724869567653803e+01 -5.0367965116695483e+00 -5 3 2
1993 665 1 -8.1999999999999995e-01 -2.5159656092378686e+00 -1.2368451505303367e+01 -4.0729153008236576e+00 -1 1 0
2061 687 2 4.0999999999999998e-01 -4.2055507421116776e+00 -9.5047788677184890e+00 -4.9090447594527671e+00 6 4 -3
2428 810 1 -8.1999999999999995e-01 -4.2930811605181596e+00 -1.2094936886458378e+01 -6.2261885607027931e+00 5 1 1
747 249 2 4.0999999999999998e-01 -2.8716104503894844e+00 -7.2124179479100858e+00 -2.5115086701850018e+00 -6 2 1
1995 665 2 4.0999999999999998e-01 -3.3063091363682808e+00 -1.2196477005574504e+01 -4.6609580444562866e+00 -1 1 0
1500 500 2 4.0999999999999998e-01 -1.7958029999675684e+00 -8.7334404196756541e+00 -9.7467152535202395e-01 2 6 2
1977 659 2 4.0999999999999998e-01 -3.7093381566995678e+00 -1.2749274806229284e+01 -7.5136798258757054e-01 0 3 -3
720 240 2 4.0999999999999998e-01 -6.4051886309986852e+00 -9.2125395006281181e+00 -3.2645307674685782e+00 4 3 4
2429 810 2 4.0999999999999998e-01 -4.0971399078968638e+00 -1.2633577121506365e+01 -7.0456310810681533e+00 5 1 1
2060 687 2 4.0999999999999998e-01 -3.5149985208760395e+00 -1.0615136928111825e+01 -5.8872583832084135e+00 6 4 -3
1207 403 1 -8.1999999999999995e-01 -5.1091785248389385e+00 -8.9999976719653887e+00 -2.1490067771751704e+00 -2 1 4
2161 721 1 -8.1999999999999995e-01 -2.7395177127855774e-01 -5.8556492574661334e+00 -4.0435189234827078e+00 1 -3 5
1208 403 2 4.0999999999999998e-01 -4.1497878231597589e+00 -9.1124608514812344e+00 -1.8902911438030383e+00 -2 1 4
718 240 1 -8.1999999999999995e-01 -7.1646321705228999e+00 -8.8219252040175142e+00 -3.7847980067710676e+00 4 3 4
270 90 2 4.0999999999999998e-01 -7.1060525123074569e-01 -1.1413950209539912e+01 -2.5903865474142620e+00 4 2 -2
1928 643 2 4.0999999999999998e-01 -2.0361562667693178e-02 -9.3933592201060279e+00 -6.9573557660629897e+00 0 4 -1
269 90 2 4.0999999999999998e-01 -2.0679460511710168e-01 -1.2167346057367572e+01 -1.2319947310433612e+00 4 2 -2
2505 835 2 4.0999999999999998e-01 -5.3174042792040499e+00 -1.4626997080325827e+01 -7.3673630388265305e+00 4 -1 0
1636 546 1 -8.1999999999999995e-01 -1.0611628718334639e+01 -6.7214940231477893e+00 3.8336458420128938e+00 -3 7 2
2080 694 1 -8.1999999999999995e-01 -8.8144762521693689e+00 -1.3287175124602834e+01 1.1764615166180246e+00 1 3 -1
2068 690 1 -8.1999999999999995e-01 -1.4393625131861148e+01 -8.6297494917809203e+00 1.5609212568715929e+00 -1 -1 3
2070 690 2 4.0999999999999998e-01 -1.3453488016848635e+01 -8.7583691312841783e+00 1.2453082168723615e+00 -1 -1 3
2169 723 2 4.0999999999999998e-01 -8.3140951580927229e+00 -1.1231430680944047e+01 4.9558727362448334e+00 2 0 4
2081 694 2 4.0999999999999998e-01 -9.8064316230680824e+00 -1.3413811661357034e+01 1.1767253328021621e+00 1 3 -1
2233 745 1 -8.1999999999999995e-01 -1.1382490064169888e+01 -1.1182132113649240e+01 5.8457002633032413e+00 -1 4 1
2411 804 2 4.0999999999999998e-01 -8.6161667913359423e+00 -9.1027050767058597e+00 7.1772508625945388e+00 2 -2 2
2127 709 2 4.0999999999999998e-01 -1.3004964053128004e+01 -1.3373378514222445e+01 9.2451086368534341e-01 1 0 -1
2082 694 2 4.0999999999999998e-01 -8.4243678108206037e+00 -1.3709145420350414e+01 1.9948555769290355e+00 1 3 -1
1436 479 2 4.0999999999999998e-01 -7.9780664841249385e+00 -1.3900834832428849e+01 4.6930561835085687e+00 6 -5 3
1435 479 1 -8.1999999999999995e-01 -8.7361355752388086e+00 -1.3253954022264010e+01 4.7760552906912803e+00 6 -5 3
575 192 2 4.0999999999999998e-01 -1.1566607466110305e+01 -1.2700785535880980e+01 4.9307087741361837e+00 -4 5 4
1637 546 2 4.0999999999999998e-01 -9.8420158317033497e+00 -6.5837058525047780e+00 4.4571222149870362e+00 -3 7 2
2149 717 1 -8.1999999999999995e-01 -1.3995848331739030e+01 -6.2529480974678471e+00 6.6465269357444594e+00 7 0 4
1638 546 2 4.0999999999999998e-01 -1.0320057301721963e+01 -7.2907725727351664e+00 3.0649324092816226e+00 -3 7 2
2151 717 2 4.0999999999999998e-01 -1.4214447010149765e+01 -5.3582264872501195e+00 6.2570397488310601e+00 7 0 4
2125 709 1 -8.1999999999999995e-01 -1.2635556983915855e+01 -1.2570702631133425e+01 1.3927652199972069e+00 1 0 -1
1384 462 1 -8.1999999999999995e-01 -1.2228089048611322e+01 -8.2910249138275915e+00 5.6185780189924461e+00 -2 -1 -5
1385 462 2 4.0999999999999998e-01 -1.1620367478072248e+01 -7.8952733157627035e+00 4.9300525002306532e+00 -2 -1 -5
434 145 2 4.0999999999999998e-01 -1.0883290577421269e+01 -7.1197768187513439e+00 7.2634694449876083e+00 6 1 6
1386 462 2 4.0999999999999998e-01 -1.2781028625274434e+01 -9.0117140597810241e+00 5.2003946578546891e+00 -2 -1 -5
1437 479 2 4.0999999999999998e-01 -9.5782588498839054e+00 -1.3683761437340365e+01 4.4503155807636059e+00 6 -5 3
584 195 2 4.0999999999999998e-01 -8.5809878594824127e+00 -6.1469747347964727e+00 1.7579653816934542e+00 -2 10 9
1766 589 2 4.0999999999999998e-01 -1.2367114441039295e+01 -1.0691564866330804e+01 8.5937269469984123e-01 4 0 1
2150 717 2 4.0999999999999998e-01 -1.3159729736873103e+01 -6.6045137823639912e+00 6.2254336287691725e+00 7 0 4
2041 681 1 -8.1999999999999995e-01 -8.8898557496353625e+00 -1.0625772266991000e+01 5.1515843007475759e-01 0 4 0
574 192 1 -8.1999999999999995e-01 -1.1734638237480336e+01 -1.3554913281766810e+01 4.4385260694132835e+00 -4 5 4
2234 745 2 4.0999999999999998e-01 -1.0454892296766065e+01 -1.0814988331400109e+01 5.7765611579250749e+00 -1 4 1
1765 589 1 -8.1999999999999995e-01 -1.1851295740084716e+01 -9.8363652732705003e+00 8.0860877718300728e-01 4 0 1
2122 708 1 -8.1999999999999995e-01 -8.4081573266042753e+00 -6.0779178221271852e+00 5.8734328671502940e+00 1 5 -6
2124 708 2 4.0999999999999998e-01 -7.7157112149644531e+00 -5.3641822115550966e+00 5.9788476751420045e+00 1 5 -6
2123 708 2 4.0999999999999998e-01 -8.2966536007585958e+00 -6.7598624300727082e+00 6.5962958499652284e+00 1 5 -6
1767 589 2 4.0999999999999998e-01 -1.0903309600428070e+01 -1.0002268099286223e+01 1.0802899900536662e+00 4 0 1
1214 405 2 4.0999999999999998e-01 -1.1273965133046838e+01 -1.4470936384780853e+01 3.0731126802511834e+00 3 1 -1
1213 405 1 -8.1999999999999995e-01 -1.0922762386327260e+01 -1.4820552419923889e+01 2.2045290202052588e+00 3 1 -1
576 192 2 4.0999999999999998e-01 -1.2175857077544567e+01 -1.4211109610031682e+01 5.0506900228507927e+00 -4 5 4
435 145 2 4.0999999999999998e-01 -9.8824762319669084e+00 -5.9229025739272192e+00 6.7812641271936567e+00 6 1 6
583 195 1 -8.1999999999999995e-01 -8.9494185368389978e+00 -5.8108757189958293e+00 8.9118482042662350e-01 -2 10 9
1219 407 1 -8.1999999999999995e-01 -1.4921309289693754e+01 -8.9342823941900917e+00 7.1275659400285019e+00 -2 -2 3
2042 681 2 4.0999999999999998e-01 -8.7208553036707528e+00 -1.1551348268796080e+01 8.5392098555784557e-01 0 4 0
2126 709 2 4.0999999999999998e-01 -1.2195194381859361e+01 -1.2854932294665174e+01 2.2444145662291550e+00 1 0 -1
1350 450 2 4.0999999999999998e-01 -8.8973270168615244e+00 -9.7664492644741578e+00 2.4855317992450292e+00 0 -2 6
963 321 2 4.0999999999999998e-01 -8.4074214758850996e+00 -1.3177164002362247e+01 6.8690053891972642e+00 -5 -4 4
2167 723 1 -8.1999999999999995e-01 -8.4578592641347825e+00 -1.0311856520750149e+01 5.3215606663460786e+00 2 0 4
2168 723 2 4.0999999999999998e-01 -8.6824943469435567e+00 -9.6871157556232781e+00 4.5737302310078487e+00 2 0 4