LAMMPS data file via write_data, version 15 May 2015, timestep = 8008000

2611 atoms
6 atom types
1749 bonds
4 bond types
894 angles
3 angle types
44 dihedrals
3 dihedral types
10 impropers
1 improper types

-1.4977206597813813e+01 1.4977206597813813e+01 xlo xhi
-1.4977206597813813e+01 1.4977206597813813e+01 ylo yhi
-1.4977206597813813e+01 1.4977206597813813e+01 zlo zhi

Masses

1 15.9994
2 1.00794
3 12.0107
4 1.00794
5 12.0107
6 12.0107

Bond Coeffs # harmonic

1 1000 1
2 469 1.4
3 367 1.08
4 469 0.7

Angle Coeffs # harmonic

1 100 109.47
2 35 120
3 63 120

Dihedral Coeffs # opls

1 0 7.25 0 0
2 0 7.25 0 0
3 0 7.25 0 0

Improper Coeffs # cvff

1 2.5 -1 2

Atoms # full

1471 491 1 -8.1999999999999995e-01 -7.5981795515843826e+00 -1.0666523894213430e+01 -1.1424091463458987e+01 2 7 -2
1473 491 2 4.0999999999999998e-01 -8.1614934721794494e+00 -1.0969207585627803e+01 -1.0655258914938475e+01 2 7 -2
391 131 1 -8.1999999999999995e-01 -1.1489380101468575e+01 -1.2591444956203665e+01 -1.2782124297747938e+01 3 0 2
1312 438 1 -8.1999999999999995e-01 -7.6051153584205453e+00 -1.4177518211482079e+01 -1.4207965346075003e+01 4 0 -2
1787 596 2 4.0999999999999998e-01 -8.5668728930632412e+00 -7.3773899324370147e+00 -1.0958572755664854e+01 3 2 -2
585 195 2 4.0999999999999998e-01 -1.1681884776089650e+01 -9.9754713964657782e+00 -9.2739752524166139e+00 2 7 0
584 195 2 4.0999999999999998e-01 -1.0923459011424317e+01 -8.5470334755241453e+00 -9.5000238116917153e+00 2 7 0
1933 645 1 -8.1999999999999995e-01 -8.4199583783540071e+00 -1.1089126719215784e+01 -8.6952802297556460e+00 2 1 -2
1934 645 2 4.0999999999999998e-01 -8.7690183148626168e+00 -1.2008870011817876e+01 -8.5156335325381107e+00 2 1 -2
653 218 2 4.0999999999999998e-01 -9.3627312483680782e+00 -9.7479922915649411e+00 -1.4103874489171821e+01 0 -1 -3
1935 645 2 4.0999999999999998e-01 -9.1868004924974898e+00 -1.0464759380271030e+01 -8.8441496343016439e+00 2 1 -2
392 131 2 4.0999999999999998e-01 -1.1210914675388244e+01 -1.2606086120402910e+01 -1.1821767006114680e+01 3 0 2
1788 596 2 4.0999999999999998e-01 -9.2287946675952792e+00 -6.7697541429967671e+00 -9.5949816405577550e+00 3 2 -2
654 218 2 4.0999999999999998e-01 -8.7567929900020953e+00 -1.0483080715306006e+01 -1.2777516217857396e+01 0 -1 -3
1529 510 2 4.0999999999999998e-01 -8.9052587831604697e+00 -1.4460820681247679e+01 -7.9031042305501957e+00 2 2 -3
583 195 1 -8.1999999999999995e-01 -1.0810309434438967e+01 -9.4919356639931749e+00 -9.1927771635548012e+00 2 7 0
1309 437 1 -8.1999999999999995e-01 -1.1103465196263080e+01 -5.7182651556716735e+00 -1.2168972919627892e+01 6 0 -2
1786 596 1 -8.1999999999999995e-01 -9.4208756150814139e+00 -7.0972090888000849e+00 -1.0520141986588234e+01 3 2 -2
1707 569 2 4.0999999999999998e-01 -1.1217423282391765e+01 -9.0862423446275784e+00 -1.2973805609765861e+01 2 3 -2
1310 437 2 4.0999999999999998e-01 -1.0518952041440512e+01 -6.3222995465505445e+00 -1.1627188500794984e+01 6 0 -2
652 218 1 -8.1999999999999995e-01 -9.5746567760550292e+00 -1.0356063307813836e+01 -1.3338772733921250e+01 0 -1 -3
1311 437 2 4.0999999999999998e-01 -1.0750311318616625e+01 -5.6623588333025960e+00 -1.3102889579245836e+01 6 0 -2
1705 569 1 -8.1999999999999995e-01 -1.2210055771994067e+01 -8.9884203305649102e+00 -1.3045604434314320e+01 2 3 -2
2296 766 1 -8.1999999999999995e-01 -1.3171709148572658e+01 -1.0964869383346088e+01 -9.4687544770729541e+00 4 5 -1
1706 569 2 4.0999999999999998e-01 -1.2529203482150667e+01 -8.3236463766792106e+00 -1.2370131406650625e+01 2 3 -2
913 305 1 -8.1999999999999995e-01 -1.3592999029537109e+01 -6.8926638240747540e+00 -1.1489970030764416e+01 2 3 -4
1426 476 1 -8.1999999999999995e-01 -7.7834888954481034e+00 -6.5249719673977484e+00 -8.4942273404015776e+00 -1 2 -2
2298 766 2 4.0999999999999998e-01 -1.3018463279154251e+01 -1.1640582683871710e+01 -8.7476645233955033e+00 4 5 -1
393 131 2 4.0999999999999998e-01 -1.0936624172629122e+01 -1.1922618729903569e+01 -1.3279292116217077e+01 3 0 2
915 305 2 4.0999999999999998e-01 -1.2916979405891865e+01 -6.1981050569452520e+00 -1.1736199716898177e+01 2 3 -4
648 216 2 4.0999999999999998e-01 -1.0445512461577621e+01 -8.2424658299471165e+00 -7.5976818619610587e+00 1 1 0
1387 463 1 -8.1999999999999995e-01 -1.4091413408160887e+01 -1.4329660581018672e+01 -8.4228556258715024e+00 1 3 0
1427 476 2 4.0999999999999998e-01 -7.5912174270313733e+00 -5.5436463922816372e+00 -8.5029046418450207e+00 -1 2 -2
1680 560 2 4.0999999999999998e-01 -1.3253183119277805e+01 -1.0508369697178626e+01 -1.3405545626944321e+01 4 3 -3
2297 766 2 4.0999999999999998e-01 -1.3904293346390533e+01 -1.1281029898245986e+01 -1.0071586477045368e+01 4 5 -1
1727 576 2 4.0999999999999998e-01 -1.3725107136993676e+01 -7.5463936506078433e+00 -9.7777190059361665e+00 3 3 0
666 222 2 4.0999999999999998e-01 -1.3095466409538908e+01 -1.3338053512892994e+01 -7.6479853340230752e+00 0 3 -2
1610 537 2 4.0999999999999998e-01 -1.1668160914423401e+01 -5.9891664174267198e+00 -8.0396995358631891e+00 2 3 -1
1114 372 1 -8.1999999999999995e-01 -1.0338488819446495e+01 -6.3191077004436824e+00 -1.4686380975476458e+01 3 -2 -3
914 305 2 4.0999999999999998e-01 -1.4435596821600045e+01 -6.7350446951800542e+00 -1.2004973582372878e+01 2 3 -4
1999 667 1 -8.1999999999999995e-01 -1.4687978759606843e+01 -1.3859311430450809e+01 -1.4784427643197102e+01 3 2 0
1389 463 2 4.0999999999999998e-01 -1.4957307127770781e+01 -1.4359184228426006e+01 -7.9234560862925800e+00 1 3 0
1728 576 2 4.0999999999999998e-01 -1.3874851741829458e+01 -9.0794919575717703e+00 -9.2355671898849838e+00 3 3 0
2381 794 2 4.0999999999999998e-01 -8.6163487701431656e+00 -1.4924257416915667e+01 -1.2968216444519626e+01 1 3 -1
1726 576 1 -8.1999999999999995e-01 -1.3890725886224308e+01 -8.1149823492352944e+00 -8.9719145517419374e+00 3 3 0
1678 560 1 -8.1999999999999995e-01 -1.3960916032220371e+01 -1.1103019828612400e+01 -1.3787054260150944e+01 4 3 -3
1679 560 2 4.0999999999999998e-01 -1.4230045624022154e+01 -1.1781693163349061e+01 -1.3103669114339535e+01 4 3 -3
1557 519 2 4.0999999999999998e-01 -1.4671363777373729e+01 -6.9416546256178755e+00 -7.6154521499956562e+00 0 4 -2
1528 510 1 -8.1999999999999995e-01 -9.0304499855091471e+00 -1.3514224704661995e+01 -7.6059061314000278e+00 2 2 -3
1609 537 1 -8.1999999999999995e-01 -1.2106115451488460e+01 -5.2591164725769559e+00 -8.5643578808520093e+00 2 3 -1
1115 372 2 4.0999999999999998e-01 -1.0015693550000464e+01 -7.2496684440964394e+00 -1.4513454994742320e+01 3 -2 -3
1556 519 2 4.0999999999999998e-01 -1.3925222819748784e+01 -5.4977421295911970e+00 -7.7739853305830318e+00 0 4 -2
647 216 2 4.0999999999999998e-01 -9.3301643491134509e+00 -7.0524791094605748e+00 -7.5159952459910402e+00 1 1 0
965 322 2 4.0999999999999998e-01 -1.3035974934336572e+01 -1.4645124692330700e+01 -1.4914243711541621e+01 1 0 1
1472 491 2 4.0999999999999998e-01 -7.4571718696608427e+00 -9.6782436355386565e+00 -1.1365248757419517e+01 2 7 -2
155 52 2 4.0999999999999998e-01 -2.9149087168414312e+00 -1.4145496565272277e+01 -8.7807816926964186e+00 3 2 -2
1313 438 2 4.0999999999999998e-01 -7.0678202564578489e+00 -1.3474829622337102e+01 -1.3741503977096675e+01 4 0 -2
850 284 1 -8.1999999999999995e-01 -4.7255982308600064e+00 -1.0959043718689912e+01 -1.4753678598185070e+01 1 3 2
2054 685 2 4.0999999999999998e-01 -4.4097891828330731e+00 -1.4229500721059573e+01 -1.0394395569862048e+01 3 1 0
1182 394 2 4.0999999999999998e-01 -4.6352905522967429e+00 -5.8312907546578394e+00 -1.2500337108979242e+01 3 5 2
471 157 2 4.0999999999999998e-01 -3.3802273738763091e+00 -5.0851415963616020e+00 -8.8639754087961968e+00 5 0 -3
2055 685 2 4.0999999999999998e-01 -5.9470388414883129e+00 -1.4780448852822241e+01 -1.0402276897797069e+01 3 1 0
870 290 2 4.0999999999999998e-01 -1.5722751664942987e+00 -9.5176145546294961e+00 -1.4837853557793286e+01 -1 -1 1
1506 502 2 4.0999999999999998e-01 -1.7977664894826990e+00 -1.3750375682754653e+01 -1.3428679141753715e+01 1 -2 0
2145 715 2 4.0999999999999998e-01 -1.0851185527753522e+00 -5.4678825308792653e+00 -1.1676278289135389e+01 4 3 1
1911 637 2 4.0999999999999998e-01 -2.9737740242765245e+00 -7.6474064417389576e+00 -1.1635033644004714e+01 0 3 -3
1883 628 2 4.0999999999999998e-01 -6.2264834624190968e-01 -8.1590979025189245e+00 -1.3284124836110772e+01 -1 1 -3
1866 622 2 4.0999999999999998e-01 -6.6905742802185610e+00 -1.3465300345140863e+01 -7.6147127061525843e+00 3 2 -5
470 157 2 4.0999999999999998e-01 -2.3120333275422293e+00 -6.1837338183573163e+00 -9.4285983057748002e+00 5 0 -3
649 217 1 -8.1999999999999995e-01 -6.1632338531205733e+00 -8.5742745680944061e+00 -1.4673367318241874e+01 3 1 -2
469 157 1 -8.1999999999999995e-01 -3.2192538291469983e+00 -5.7842827764699916e+00 -9.5606335849478299e+00 5 0 -3
156 52 2 4.0999999999999998e-01 -2.3495411928338736e+00 -1.3850219584608782e+01 -1.0284082555100554e+01 3 2 -2
671 224 2 4.0999999999999998e-01 -1.1652144521552312e+00 -1.2940516561031616e+01 -7.8425067789548333e+00 -1 2 -3
1181 394 2 4.0999999999999998e-01 -3.9014221291482798e+00 -6.0583927044508386e+00 -1.1059294338136475e+01 3 5 2
2461 821 1 -8.1999999999999995e-01 -6.1555176638243498e+00 -1.2436223347914920e+01 -1.2744572561152488e+01 3 2 0
2462 821 2 4.0999999999999998e-01 -5.8199223069172703e+00 -1.3054336649605034e+01 -1.2033689167069639e+01 3 2 0
2463 821 2 4.0999999999999998e-01 -6.7030737747295603e+00 -1.1712043980574055e+01 -1.2325299288930861e+01 3 2 0
2378 793 2 4.0999999999999998e-01 -6.9312614977182410e+00 -7.9750344168709404e+00 -1.2552335773254198e+01 2 1 -3
1428 476 2 4.0999999999999998e-01 -6.9720925667152169e+00 -7.0208838775403528e+00 -8.1847909617398891e+00 -1 2 -2
2377 793 1 -8.1999999999999995e-01 -7.0712793502367211e+00 -8.0864550317513526e+00 -1.1568453708770331e+01 2 1 -3
1910 637 2 4.0999999999999998e-01 -1.6125273438542145e+00 -7.8514870237223304e+00 -1.0756340818447114e+01 0 3 -3
852 284 2 4.0999999999999998e-01 -5.0744038144938308e+00 -1.1534268945646639e+01 -1.4013750141838386e+01 1 3 2
249 83 2 4.0999999999999998e-01 -4.1253555707073470e+00 -1.1711599608069758e+01 -8.5702377267434517e+00 1 1 0
2334 778 2 4.0999999999999998e-01 -6.6662443459033209e+00 -1.0823379737577921e+01 -8.3803162289191189e+00 1 5 -2
1865 622 2 4.0999999999999998e-01 -5.6443671528965975e+00 -1.3762729911132727e+01 -8.8327967529628904e+00 3 2 -5
1524 508 2 4.0999999999999998e-01 -4.8256305795168117e+00 -7.2631525570669817e+00 -8.8726345283853369e+00 2 0 -2
1348 450 1 -8.1999999999999995e-01 -5.5991010506970262e-01 -6.9389887637816745e+00 -9.4689189955880462e+00 1 0 -1
1504 502 1 -8.1999999999999995e-01 -2.1574430730843766e+00 -1.4672050192101812e+01 -1.3574255033982830e+01 1 -2 0
2053 685 1 -8.1999999999999995e-01 -5.3698889822039373e+00 -1.3969310174463956e+01 -1.0497122066497726e+01 3 1 0
1864 622 1 -8.1999999999999995e-01 -5.9431427991400501e+00 -1.4053398359009872e+01 -7.9237926460946735e+00 3 2 -5
248 83 2 4.0999999999999998e-01 -2.6070932161093303e+00 -1.1288729674632801e+01 -8.1426832064683570e+00 1 1 0
247 83 1 -8.1999999999999995e-01 -3.1661314797312308e+00 -1.1716617427511171e+01 -8.8529168074666007e+00 1 1 0
1909 637 1 -8.1999999999999995e-01 -2.3217123024054889e+00 -8.3193398125177502e+00 -1.1283800738991154e+01 0 3 -3
1882 628 1 -8.1999999999999995e-01 -1.1065557264879899e+00 -8.0430625983620150e+00 -1.4151542257285792e+01 -1 1 -3
2379 793 2 4.0999999999999998e-01 -6.3223977436945269e+00 -7.6460463414321032e+00 -1.1073216374795654e+01 2 1 -3
675 225 2 4.0999999999999998e-01 -2.2292888247939864e+00 -1.1060726214173130e+01 -1.0239509201079333e+01 3 0 -3
1522 508 1 -8.1999999999999995e-01 -5.3357766836255553e+00 -7.9229351332343558e+00 -8.3208362044296997e+00 2 0 -2
1965 655 2 4.0999999999999998e-01 -1.3511599382769663e+00 -1.1597657903743601e+01 -1.3946621162297646e+01 3 4 -1
674 225 2 4.0999999999999998e-01 -1.5523905520594372e+00 -9.9441172068923791e+00 -1.1220190353811184e+01 3 0 -3
154 52 1 -8.1999999999999995e-01 -2.6794940978168160e+00 -1.4558880781360394e+01 -9.6604048601855830e+00 3 2 -2
2333 778 2 4.0999999999999998e-01 -5.4504277479131229e+00 -9.7666668180056249e+00 -8.6484397907458295e+00 1 5 -2
673 225 1 -8.1999999999999995e-01 -1.4991358770014536e+00 -1.0890421620465638e+01 -1.0901261827189895e+01 3 0 -3
1884 628 2 4.0999999999999998e-01 -1.9918887771649629e+00 -7.6093305774041813e+00 -1.3983895504258079e+01 -1 1 -3
1963 655 1 -8.1999999999999995e-01 -1.0440706385122258e+00 -1.2135084816591215e+01 -1.3161183726577960e+01 3 4 -1
1350 450 2 4.0999999999999998e-01 -2.9582264924315993e-01 -7.7092803909637837e+00 -8.8884432312993873e+00 1 0 -1
1964 655 2 4.0999999999999998e-01 -1.2910906828267077e+00 -1.1661166902457119e+01 -1.2315946235435982e+01 3 4 -1
650 217 2 4.0999999999999998e-01 -5.4167231125457977e+00 -9.1873421544162355e+00 -1.4932043412817169e+01 3 1 -2
1180 394 1 -8.1999999999999995e-01 -4.3915346485934510e+00 -6.5083178001401834e+00 -1.1805887027229229e+01 3 5 2
2332 778 1 -8.1999999999999995e-01 -5.6744637415949963e+00 -1.0697135273742774e+01 -8.3584745822711657e+00 1 5 -2
851 284 2 4.0999999999999998e-01 -3.7427237233331194e+00 -1.0819910032610283e+01 -1.4632670177275102e+01 1 3 2
1505 502 2 4.0999999999999998e-01 -3.1452207451023693e+00 -1.4624750519328497e+01 -1.3722920883760823e+01 1 -2 0
1523 508 2 4.0999999999999998e-01 -4.7487426179815859e+00 -8.2705411260938231e+00 -7.5896696266895516e+00 2 0 -2
1092 364 2 4.0999999999999998e-01 -8.0870558768615908e+00 -1.0572186960546581e+01 -5.0348134586543498e+00 0 2 -4
1090 364 1 -8.1999999999999995e-01 -8.4015676454360246e+00 -1.1427530615943326e+01 -5.4465332338996699e+00 0 2 -4
2326 776 1 -8.1999999999999995e-01 -1.0002158403954837e+01 -1.4741330538040392e+01 -3.0440662688131077e+00 1 1 -4
1091 364 2 4.0999999999999998e-01 -8.9972367099821327e+00 -1.1224152655186078e+01 -6.2236170606135683e+00 0 2 -4
429 143 2 4.0999999999999998e-01 -9.2897037804454392e+00 -1.0815755265091877e+01 -1.3597934570127617e+00 2 1 0
2308 770 1 -8.1999999999999995e-01 -1.2912754535304114e+01 -9.7805852690997952e+00 -1.8499860890960225e+00 0 6 -3
427 143 1 -8.1999999999999995e-01 -9.5653086372111673e+00 -1.1522364860402416e+01 -2.0115513519169212e+00 2 1 0
2328 776 2 4.0999999999999998e-01 -9.3423294763778237e+00 -1.4097885809800944e+01 -2.6559320571332936e+00 1 1 -4
428 143 2 4.0999999999999998e-01 -9.4595572400541670e+00 -1.1175669300512537e+01 -2.9435719157676559e+00 2 1 0
1224 408 2 4.0999999999999998e-01 -1.3322442835618824e+01 -9.7180916503979127e+00 -3.4440729887185242e+00 2 2 -2
1222 408 1 -8.1999999999999995e-01 -1.3600997400236425e+01 -9.8282296176371879e+00 -4.3981801733376269e+00 2 2 -2
2310 770 2 4.0999999999999998e-01 -1.2233568964505420e+01 -1.0491142087338503e+01 -1.6659767002434567e+00 0 6 -3
557 186 2 4.0999999999999998e-01 -1.1760034175668727e+01 -1.1037452148925972e+01 -6.5379512964566420e+00 -1 2 -1
556 186 1 -8.1999999999999995e-01 -1.1628820871989557e+01 -1.0046345114571130e+01 -6.5148560002476739e+00 -1 2 -1
1977 659 2 4.0999999999999998e-01 -9.6726288095556860e+00 -6.2198175020896809e+00 -3.5749576473821474e+00 3 5 -4
1849 617 1 -8.1999999999999995e-01 -1.2498495556684519e+01 -7.1223323560769822e+00 -2.9821827486650250e+00 7 6 -5
1530 510 2 4.0999999999999998e-01 -9.5872921091248706e+00 -1.3496470133232101e+01 -6.7754513648856829e+00 2 2 -3
1851 617 2 4.0999999999999998e-01 -1.2902122336958815e+01 -8.0072254342477169e+00 -2.7496034381033247e+00 7 6 -5
2309 770 2 4.0999999999999998e-01 -1.3235009524749033e+01 -9.3955430712565633e+00 -9.8515217476229466e-01 0 6 -3
665 222 2 4.0999999999999998e-01 -1.1844205233176728e+01 -1.3240541914414125e+01 -6.6031985721507205e+00 0 3 -2
1002 334 2 4.0999999999999998e-01 -9.1321517827864973e+00 -8.4896276892163129e+00 -4.0340969635076398e+00 4 3 -2
2349 783 2 4.0999999999999998e-01 -1.1338547867988678e+01 -7.2716184507558719e+00 -4.2089336895836134e+00 -1 0 -3
1692 564 2 4.0999999999999998e-01 -1.0758447456036212e+01 -1.3899586478771354e+01 -4.4106692970709531e+00 1 3 -4
2347 783 1 -8.1999999999999995e-01 -1.0438102405645186e+01 -7.3903352803898512e+00 -4.6274402929618166e+00 -1 0 -3
1000 334 1 -8.1999999999999995e-01 -8.4328897993450838e+00 -9.1200701498188099e+00 -3.6970235942417631e+00 4 3 -2
2348 783 2 4.0999999999999998e-01 -1.0530911811618044e+01 -7.3919242985528237e+00 -5.6231447525442029e+00 -1 0 -3
1001 334 2 4.0999999999999998e-01 -7.9069864221502213e+00 -8.6772146242881227e+00 -2.9708362321718003e+00 4 3 -2
664 222 1 -8.1999999999999995e-01 -1.2415888041831327e+01 -1.2726512701981205e+01 -7.2427266890100048e+00 0 3 -2
1783 595 1 -8.1999999999999995e-01 -1.4445514144695171e+01 -5.4991919025135800e+00 -1.7078266027490745e+00 1 4 -2
776 259 2 4.0999999999999998e-01 -7.5225287817252404e+00 -9.2530560707755427e+00 -5.0727607077993042e-01 -3 -1 1
1850 617 2 4.0999999999999998e-01 -1.3042844597568154e+01 -6.3898698864090999e+00 -2.5732495846920891e+00 7 6 -5
1223 408 2 4.0999999999999998e-01 -1.2794609912447495e+01 -1.0005032307957229e+01 -4.9625590913694282e+00 2 2 -2
632 211 2 4.0999999999999998e-01 -9.5464550307748688e+00 -5.8535491831409932e+00 -1.1456767132323566e+00 3 1 -3
1690 564 1 -8.1999999999999995e-01 -1.0910797544402140e+01 -1.3994785999587851e+01 -5.3944223323790066e+00 1 3 -4
74 25 2 4.0999999999999998e-01 -9.6807020476979666e+00 -1.2528967356024795e+01 -3.3805945418631289e-01 0 -1 -1
646 216 1 -8.1999999999999995e-01 -1.0301550757564554e+01 -7.2691981061796636e+00 -7.4186051646141120e+00 1 1 0
4 2 1 -8.1999999999999995e-01 -1.2231413387840316e+01 -1.4881725410982614e+01 -1.0709293059736069e-01 1 -1 -4
5 2 2 4.0999999999999998e-01 -1.1875649140034426e+01 -1.4679131228379553e+01 -1.0194694535347839e+00 1 -1 -4
631 211 1 -8.1999999999999995e-01 -9.6705160824793133e+00 -6.0833304250302973e+00 -1.8035140650396997e-01 3 1 -3
1691 564 2 4.0999999999999998e-01 -1.0731565181322903e+01 -1.4939345987446972e+01 -5.6696053536516082e+00 1 3 -4
2106 702 2 4.0999999999999998e-01 -7.7173306399364563e+00 -5.9907173469841233e+00 -2.8140497141003777e+00 2 4 -3
1555 519 1 -8.1999999999999995e-01 -1.4631879864122379e+01 -6.0014597687548648e+00 -7.2770468617185360e+00 0 4 -2
178 60 1 -8.1999999999999995e-01 -9.4303356465088832e+00 -9.3392893467542688e+00 -2.4124194632711493e-01 4 -1 -2
1975 659 1 -8.1999999999999995e-01 -9.3669026617679947e+00 -5.5245913869676304e+00 -2.9243920030690624e+00 3 5 -4
558 186 2 4.0999999999999998e-01 -1.2133963506066676e+01 -9.6255907030728558e+00 -7.2684076677876019e+00 -1 2 -1
180 60 2 4.0999999999999998e-01 -9.5303257629001070e+00 -8.3476577317901128e+00 -3.2316993706026054e-01 4 -1 -2
1785 595 2 4.0999999999999998e-01 -1.4908692886967962e+01 -5.5109654342297425e+00 -2.5940378178408086e+00 1 4 -2
715 239 1 -8.1999999999999995e-01 -3.2286516295767242e+00 -8.5066678289303432e+00 -6.5549637867948825e+00 1 1 0
670 224 1 -8.1999999999999995e-01 -7.1272534862280601e-01 -1.2335295123230047e+01 -7.1875227236152694e+00 -1 2 -3
1711 571 1 -8.1999999999999995e-01 -5.7732273682122504e-01 -8.1267801449047603e+00 -5.3397162269001477e+00 1 2 0
326 109 2 4.0999999999999998e-01 -9.3462185236203865e-02 -5.1631441850846578e+00 -2.0168744077583689e-01 1 5 0
1363 455 1 -8.1999999999999995e-01 -5.0698775918975620e+00 -1.2256627288675650e+01 -7.1971962420182933e-01 0 3 -2
672 224 2 4.0999999999999998e-01 -1.2920049584057516e+00 -1.2225603722069421e+01 -6.3797811650898293e+00 -1 2 -3
955 319 1 -8.1999999999999995e-01 -4.5318855700762786e+00 -1.3368903291975325e+01 -5.8075647044820062e+00 4 -1 -2
2003 668 2 4.0999999999999998e-01 -7.4838874922540191e+00 -1.2961992167020478e+01 -4.9276454000309879e+00 1 3 -1
957 319 2 4.0999999999999998e-01 -5.0321631651914576e+00 -1.3522100742392128e+01 -4.9553344840423641e+00 4 -1 -2
956 319 2 4.0999999999999998e-01 -5.0917274723034520e+00 -1.3666644796384901e+01 -6.5808502535842397e+00 4 -1 -2
742 248 1 -8.1999999999999995e-01 -5.2809581851162548e+00 -1.0235998101889201e+01 -2.7575588189898514e+00 -2 3 0
2346 782 2 4.0999999999999998e-01 -3.7872900139850412e+00 -6.0677486821597508e+00 -6.8686730302528609e-01 -1 1 -2
2340 780 2 4.0999999999999998e-01 -3.0690301017509825e+00 -1.4958827268167491e+01 -7.3478600167845975e-01 2 5 -5
1713 571 2 4.0999999999999998e-01 -1.3192452829458183e+00 -7.7916245346908264e+00 -4.7589708920479126e+00 1 2 0
287 96 2 4.0999999999999998e-01 -3.3810496631273246e+00 -1.3820434016477680e+01 -2.7074271031807857e+00 5 3 -3
1948 650 1 -8.1999999999999995e-01 -7.0592036610839548e+00 -1.4252320223602533e+01 -1.7591506092659088e+00 -1 2 -3
1746 582 2 4.0999999999999998e-01 -4.9706040459924772e-01 -1.3779221603506473e+01 -2.1392973528032737e+00 3 2 -1
2105 702 2 4.0999999999999998e-01 -6.9424489318782960e+00 -7.0043472192942673e+00 -1.7948072107380497e+00 2 4 -3
827 276 2 4.0999999999999998e-01 -2.7907664405451005e+00 -1.2958779734281773e+01 -5.1069318243854216e+00 5 3 -4
1949 650 2 4.0999999999999998e-01 -6.5004208179987586e+00 -1.3641399523966570e+01 -1.1982753028278186e+00 -1 2 -3
2104 702 1 -8.1999999999999995e-01 -6.8364530892527657e+00 -6.2119070249922270e+00 -2.3955125560769943e+00 2 4 -3
501 167 2 4.0999999999999998e-01 -2.7743515474274947e+00 -7.5579627026207801e+00 -2.8156500134746807e+00 1 4 0
2171 724 2 4.0999999999999998e-01 -3.6958000118493679e+00 -5.6175903951800521e+00 -5.2936350993632306e+00 3 -1 -2
743 248 2 4.0999999999999998e-01 -5.4789542900398320e+00 -1.0038268483985032e+01 -3.7176338352555245e+00 -2 3 0
2004 668 2 4.0999999999999998e-01 -7.2240236020665618e+00 -1.3623752794143796e+01 -3.4575140475351454e+00 1 3 -1
775 259 1 -8.1999999999999995e-01 -6.8714905526073853e+00 -8.6648487087462271e+00 -9.8707269096887096e-01 -3 -1 1
2396 799 2 4.0999999999999998e-01 -5.4205332552781691e+00 -5.4818005422896725e+00 -3.1273675374061227e+00 4 2 1
1744 582 1 -8.1999999999999995e-01 -5.3757360138121513e-01 -1.4778399147662190e+01 -2.1324854568942602e+00 3 2 -1
826 276 1 -8.1999999999999995e-01 -2.0890128150526550e+00 -1.2309623191894515e+01 -4.8133656020369617e+00 5 3 -4
1394 465 2 4.0999999999999998e-01 -3.5783452518253451e+00 -9.7901790648088465e+00 -2.0730447230958369e+00 5 2 2
286 96 1 -8.1999999999999995e-01 -3.2559298625226347e+00 -1.2874367647693873e+01 -2.4085174454955762e+00 5 3 -3
717 239 2 4.0999999999999998e-01 -3.2795905204227953e+00 -7.5079447046856460e+00 -6.5540430724440100e+00 1 1 0
409 137 1 -8.1999999999999995e-01 -1.0445371689423411e+00 -1.1387712836855455e+01 -1.6611386987738399e+00 0 3 -1
368 123 2 4.0999999999999998e-01 -4.3891918354571953e+00 -9.8630290395325204e+00 -5.8541396538073798e+00 -1 1 -5
1365 455 2 4.0999999999999998e-01 -4.3329462360893061e+00 -1.2377695950329265e+01 -1.3847896301337901e+00 0 3 -2
716 239 2 4.0999999999999998e-01 -2.3070365459999405e+00 -8.7936565929945818e+00 -6.2936084887449493e+00 1 1 0
369 123 2 4.0999999999999998e-01 -5.4336849406827135e+00 -1.1110261115064407e+01 -5.9962271842788493e+00 -1 1 -5
500 167 2 4.0999999999999998e-01 -3.3910622564865083e+00 -7.6495519305679887e+00 -4.3249617158589864e+00 1 4 0
2002 668 1 -8.1999999999999995e-01 -6.9605433380771213e+00 -1.3647832415094115e+01 -4.4219008599061471e+00 1 3 -1
411 137 2 4.0999999999999998e-01 -1.7053906283820979e+00 -1.0639893419846619e+01 -1.7250316375807042e+00 0 3 -1
2514 838 2 4.0999999999999998e-01 -1.3770692084162715e+00 -5.8639691810641956e+00 -3.6597362888337965e+00 -1 0 -3
2468 823 2 4.0999999999999998e-01 -3.3640826742391408e+00 -1.4588782171147450e+01 -6.2806473260962630e+00 -1 4 0
777 259 2 4.0999999999999998e-01 -6.1897337981731990e+00 -9.2308614499557677e+00 -1.4506250847171689e+00 -3 -1 1
2345 782 2 4.0999999999999998e-01 -4.6340580856902065e+00 -6.4212283439736453e+00 -2.0377109197822261e+00 -1 1 -2
1393 465 1 -8.1999999999999995e-01 -2.9136502204168657e+00 -9.2815719245905832e+00 -1.5257396894335020e+00 5 2 2
288 96 2 4.0999999999999998e-01 -2.3391385493789336e+00 -1.2764625936067908e+01 -2.0244680184863046e+00 5 3 -3
499 167 1 -8.1999999999999995e-01 -2.6129142651661841e+00 -7.3402977116080148e+00 -3.7782524497088907e+00 1 4 0
367 123 1 -8.1999999999999995e-01 -5.1689713269422786e+00 -1.0326963026251352e+01 -5.4337199909310030e+00 -1 1 -5
744 248 2 4.0999999999999998e-01 -5.0326835971233237e+00 -1.1199791903926307e+01 -2.6600667142256924e+00 -2 3 0
32 11 2 4.0999999999999998e-01 -4.3205001698648005e-01 -1.1637589830053766e+01 -4.4538433730305815e+00 3 0 -1
828 276 2 4.0999999999999998e-01 -2.3675423737456143e+00 -1.1884531233373572e+01 -3.9521097724391989e+00 5 3 -4
1395 465 2 4.0999999999999998e-01 -3.3262946244680318e+00 -8.4273611354541043e+00 -1.2093663782403770e+00 5 2 2
410 137 2 4.0999999999999998e-01 -1.8588376866423495e-01 -1.1042288781416483e+01 -1.2824039202958577e+00 0 3 -1
2170 724 1 -8.1999999999999995e-01 -3.4975875501309286e+00 -5.9487263064365319e+00 -6.2161882434249645e+00 3 -1 -2
2172 724 2 4.0999999999999998e-01 -3.6423749933783469e+00 -5.2095064587162216e+00 -6.8739374986400392e+00 3 -1 -2
2046 682 2 4.0999999999999998e-01 -3.6329035966081413e-01 -8.9518443407660850e+00 -1.9127895403592259e+00 6 -4 -1
2344 782 1 -8.1999999999999995e-01 -4.1721492934589275e+00 -6.8072643134916095e+00 -1.2391747718266863e+00 -1 1 -2
2395 799 1 -8.1999999999999995e-01 -4.5142463032025759e+00 -5.2207110516511506e+00 -3.4598126105125857e+00 4 2 1
2512 838 1 -8.1999999999999995e-01 -8.7084051611210889e-01 -5.0350392870063185e+00 -3.8977514617095714e+00 -1 0 -3
711 237 2 4.0999999999999998e-01 -1.4405269643576993e+01 -1.4642549068470991e+01 5.2748228608383432e+00 1 0 -1
2148 716 2 4.0999999999999998e-01 -8.2017096476957008e+00 -1.3435223586637578e+01 1.3667134463150941e+00 3 1 -2
1843 615 1 -8.1999999999999995e-01 -1.4937803975992621e+01 -1.2852284781171758e+01 2.9196770553875755e+00 0 0 -2
165 55 2 4.0999999999999998e-01 -9.9547394161372225e+00 -6.2242670803328863e+00 6.4340138119316546e+00 2 0 -4
633 211 2 4.0999999999999998e-01 -9.7342492792636719e+00 -5.2423242931133203e+00 3.5694762280356684e-01 3 1 -3
517 173 1 -8.1999999999999995e-01 -1.1725223848595743e+01 -7.4111254605581687e+00 5.5733871730262230e-01 2 4 -2
532 178 1 -8.1999999999999995e-01 -1.0568743578810004e+01 -1.0859565392851110e+01 6.4159186427735033e+00 3 6 -1
534 178 2 4.0999999999999998e-01 -9.9153436790586547e+00 -1.0311025127839251e+01 6.9376615292499206e+00 3 6 -1
1100 367 2 4.0999999999999998e-01 -1.3614075715608907e+01 -5.5888026820983221e+00 2.5499161426936343e+00 2 1 -1
533 178 2 4.0999999999999998e-01 -1.0591762119169452e+01 -1.0539076933617137e+01 5.4689229665222125e+00 3 6 -1
75 25 2 4.0999999999999998e-01 -9.9998866747007771e+00 -1.2053267318404387e+01 1.1911799228334754e+00 0 -1 -1
73 25 1 -8.1999999999999995e-01 -9.5537172163712221e+00 -1.2749643356320094e+01 6.2900850358550287e-01 0 -1 -1
2094 698 2 4.0999999999999998e-01 -1.1561485982010668e+01 -6.9623967669920717e+00 3.6288329902435610e+00 3 1 -2
2092 698 1 -8.1999999999999995e-01 -1.0886160812209685e+01 -7.4072206878462801e+00 3.0405209413108718e+00 3 1 -2
2093 698 2 4.0999999999999998e-01 -1.1289368011360018e+01 -7.5802009481725152e+00 2.1418857123968653e+00 3 1 -2
1632 544 2 4.0999999999999998e-01 -1.4476369638133695e+01 -7.6646490700563303e+00 2.6138901889948709e+00 0 3 1
78 26 2 4.0999999999999998e-01 -8.0640720732890152e+00 -6.3490863468532908e+00 8.1180420802893138e-01 1 -1 -3
164 55 2 4.0999999999999998e-01 -8.9455705160461072e+00 -7.0494832109425305e+00 5.4504799414116842e+00 2 0 -4
105 35 2 4.0999999999999998e-01 -1.1790872211854445e+01 -1.3333455664749291e+01 2.8135604320465166e+00 3 0 0
1677 559 2 4.0999999999999998e-01 -1.2048467618008784e+01 -9.5987035438529311e+00 1.3327838373888188e+00 2 2 1
1630 544 1 -8.1999999999999995e-01 -1.4893815338365407e+01 -8.5316376574749082e+00 2.3416524887759724e+00 0 3 1
2551 851 1 -8.1999999999999995e-01 -1.3254381560402726e+01 -9.9605774842811563e+00 7.1581828262009939e+00 0 4 -3
519 173 2 4.0999999999999998e-01 -1.2536366329879232e+01 -6.9987363372561218e+00 1.4257787065334604e-01 2 4 -2
1675 559 1 -8.1999999999999995e-01 -1.1439957896407320e+01 -1.0387516183154769e+01 1.4195824761924474e+00 2 2 1
709 237 1 -8.1999999999999995e-01 -1.3734095250783486e+01 -1.3988797240024784e+01 4.9252846197642111e+00 1 0 -1
678 226 2 4.0999999999999998e-01 -1.1146262290995228e+01 -1.2731077705785079e+01 6.7429122152241181e+00 3 4 -5
1676 559 2 4.0999999999999998e-01 -1.1914487672011035e+01 -1.1122914157536169e+01 1.9033745678829330e+00 2 2 1
1099 367 1 -8.1999999999999995e-01 -1.3797611410780052e+01 -6.3057942698995184e+00 3.2224346927914826e+00 2 1 -1
103 35 1 -8.1999999999999995e-01 -1.2414045066370212e+01 -1.2872070821342307e+01 2.1820359755699901e+00 3 0 0
104 35 2 4.0999999999999998e-01 -1.2464972948416207e+01 -1.3388486584807124e+01 1.3271882701100690e+00 3 0 0
677 226 2 4.0999999999999998e-01 -1.2307104736627473e+01 -1.3805764237221554e+01 6.3376517049010257e+00 3 4 -5
1272 424 2 4.0999999999999998e-01 -7.6731863174635384e+00 -6.9189070058709738e+00 3.1781502582282091e+00 0 2 -1
518 173 2 4.0999999999999998e-01 -1.0905663043081770e+01 -6.9513123160020172e+00 2.1538039861590796e-01 2 4 -2
1270 424 1 -8.1999999999999995e-01 -8.1856205340006127e+00 -7.3474864007590703e+00 3.9223104297775091e+00 0 2 -1
1271 424 2 4.0999999999999998e-01 -9.1216216617008392e+00 -7.5294314304384358e+00 3.6209113712331860e+00 0 2 -1
163 55 1 -8.1999999999999995e-01 -9.3735202667940349e+00 -7.0341150196623499e+00 6.3541758637040804e+00 2 0 -4
676 226 1 -8.1999999999999995e-01 -1.1561006371331379e+01 -1.3611095329784263e+01 6.9744285265972703e+00 3 4 -5
1845 615 2 4.0999999999999998e-01 -1.4031742074463132e+01 -1.2860348960278815e+01 2.4965573290999910e+00 0 0 -2
179 60 2 4.0999999999999998e-01 -1.0047876102246921e+01 -9.6790903880318169e+00 4.6813986615888936e-01 4 -1 -2
2553 851 2 4.0999999999999998e-01 -1.3913353399345636e+01 -9.9289841163475376e+00 6.4066500403904652e+00 0 4 -3
2147 716 2 4.0999999999999998e-01 -7.7624190959180250e+00 -1.4159218406970144e+01 2.7629934438622126e+00 3 1 -2
1631 544 2 4.0999999999999998e-01 -1.4966514960431025e+01 -8.5681296232289661e+00 1.3449446220781649e+00 0 3 1