2611
Atoms. Timestep: 8000000
O -7.63636 7.66325 0.77049
H -8.4556 7.09262 0.827449
H -7.52247 7.99022 -0.167669
O -14.8531 13.6963 -2.48557
H 14.5996 12.9347 -2.88967
H -14.6435 14.3704 -3.1939
O 2.00424 12.0484 -4.34478
H 2.73233 12.6357 -3.99128
H 1.70769 12.3862 -5.23808
O 3.03232 4.03929 -9.14415
H 2.09719 4.3634 -9.00097
H 3.66816 4.80594 -9.05481
O 8.31408 -4.24136 -2.65136
H 9.25425 -4.04689 -2.37154
H 8.31436 -4.63241 -3.57174
O -3.5365 -2.49198 -13.4907
H -2.57818 -2.42969 -13.2119
H -3.72812 -1.79618 -14.183
O 3.61347 0.581324 6.10908
H 2.9843 0.0994056 6.71893
H 3.10538 0.953116 5.33214
O -5.99065 5.82455 5.01804
H -4.99909 5.87796 4.89982
H -6.29358 6.55706 5.6277
O -10.4649 5.8839 -3.3921
H -11.0893 6.32606 -2.74814
H -9.66739 6.46925 -3.53838
O 3.14499 -2.69718 -13.7574
H 2.56177 -1.88885 -13.8379
H 2.97621 -3.1438 -12.8787
O -0.272501 -12.1036 -5.34983
H -1.15508 -12.5142 -5.12088
H 0.365927 -12.2418 -4.59266
O -5.78776 9.89315 -0.618326
H -4.90033 10.3165 -0.800602
H -5.98294 9.93681 0.361479
O 13.9356 -6.05685 -5.3341
H 13.1163 -5.5378 -5.09056
H 14.372 -6.40046 -4.50249
O 14.0217 -5.18123 9.85808
H 13.2527 -4.58391 9.63055
H 14.167 -5.83504 9.11549
O -6.08471 1.69211 -14.9002
H -6.87359 1.4997 -14.3165
H -5.30056 1.15559 -14.5883
O 14.0783 14.8313 9.41895
H 14.4009 14.4775 10.2969
H 14.6522 -14.3586 9.1385
O 8.2785 3.45574 6.1946
H 7.35821 3.12862 5.97996
H 8.25738 3.97255 7.05045
O -1.00997 -1.67439 -12.4968
H -0.724063 -2.06339 -11.621
H -1.43437 -0.782136 -12.3425
O 9.17046 1.41911 14.647
H 9.45229 2.16479 -14.7085
H 9.9038 1.22176 13.9964
O 5.46146 6.39134 13.5169
H 6.23094 6.05046 12.9768
H 5.17123 7.27931 13.1602
O 0.353462 5.50147 0.207294
H 0.480308 4.78944 0.897909
H -0.126992 6.27849 0.614011
O 11.1844 -12.8193 6.98315
H 11.9027 -13.1561 6.37439
H 11.4449 -12.9913 7.9332
O 12.8413 -6.09636 12.094
H 13.3152 -6.00839 11.2178
H 12.9928 -7.01284 12.4644
O -5.83395 8.99996 4.12794
H -5.59424 8.84063 5.08563
H -5.73142 8.14907 3.61268
O -9.76053 -12.3237 1.49899
H -9.05323 -11.6943 1.17712
H -10.3571 -11.8511 2.14771
O -6.52079 -5.79161 2.33776
H -5.60098 -5.43493 2.50132
H -6.69941 -6.55188 2.96234
O 3.12854 1.90523 -13.765
H 2.77618 1.92026 -12.8292
H 3.90351 2.53284 -13.8395
O 1.75491 -6.85954 -0.554125
H 1.85894 -6.83534 -1.54842
H 2.58777 -6.51205 -0.123298
O 3.59563 -14.9178 1.67072
H 4.18165 14.6274 2.36718
H 3.38552 14.364 0.965938
O -10.0409 8.97316 6.19082
H -9.9444 8.66246 5.24521
H -9.70192 9.91062 6.2699
O 0.201566 10.5598 12.4484
H 0.74832 11.3923 12.5377
H 0.745546 9.77134 12.7356
O 5.24577 -12.5627 5.42654
H 4.89304 -11.7386 5.86969
H 6.24208 -12.506 5.36195
O 2.15993 9.27237 10.5398
H 2.43122 10.1003 11.0306
H 2.05532 9.48055 9.56731
O 6.19134 10.4805 12.5396
H 5.95346 9.74375 11.9066
H 7.00941 10.2258 13.0552
O -13.6244 -13.1678 -2.50652
H -13.9987 -13.6081 -3.32262
H -12.628 -13.1231 -2.57921
O -11.5963 -3.03379 -6.1622
H -12.0972 -3.04448 -7.02765
H -11.2515 -2.11139 -5.98799
O 6.39182 1.48562 2.44696
H 7.36612 1.30539 2.58216
H 6.2767 2.17925 1.73588
O -0.841773 1.66046 -9.64253
H -0.946476 2.55109 -9.2
H -0.752162 0.949942 -8.94457
O -4.48706 7.05608 -7.35248
H -4.149 6.61337 -6.52197
H -4.58374 6.37448 -8.0778
O -3.04522 -8.59494 12.594
H -3.7552 -9.28297 12.4438
H -3.15489 -7.85293 11.9326
O 4.24362 14.7296 6.12154
H 3.25702 14.702 6.2824
H 4.63734 -14.4442 6.59896
O -13.7369 -12.4088 3.18042
H -14.2794 -11.5735 3.26962
H -14.3094 -13.2019 3.3883
O 8.46706 12.6964 -14.6123
H 9.16122 12.3986 14.6917
H 8.48125 12.0933 -13.8147
O -3.81207 4.8203 -12.2041
H -4.10684 4.62559 -13.1397
H -3.18781 5.60152 -12.2071
O 0.372918 12.561 -9.37132
H 0.972613 11.8172 -9.66646
H 0.298996 13.2395 -10.1022
O 11.3178 -11.0012 -9.76356
H 10.6097 -11.6523 -10.0366
H 10.8943 -10.1246 -9.53495
O 3.27409 2.9741 1.08187
H 3.13571 2.38751 1.87986
H 3.766 3.80023 1.35676
O -1.45088 13.6949 -4.75089
H -1.59679 14.6298 -5.0744
H -0.480383 13.5587 -4.55186
O -4.19512 14.24 7.07484
H -3.22156 14.0223 7.00558
H -4.44683 14.8772 6.34633
O 11.0184 -4.36844 -2.69731
H 11.2978 -5.29762 -2.93939
H 11.2726 -4.18046 -1.7486
O -8.10826 -14.7663 6.95127
H -7.59302 -14.1014 6.41053
H -9.07866 -14.7058 6.71743
O -4.3421 14.0844 -10.0391
H -4.47179 14.3912 -9.09624
H -4.36071 14.8742 -10.6522
O 2.59084 -4.11333 -11.6423
H 1.84219 -4.7763 -11.6379
H 2.69447 -3.72156 -10.7281
O 9.8395 0.100529 -2.60064
H 10.4211 0.56241 -1.93096
H 9.41363 0.780516 -3.19753
O -10.7861 -7.65973 4.082
H -10.2206 -7.62996 3.2578
H -11.7202 -7.38357 3.85548
O 3.71316 -6.37576 12.5942
H 4.48047 -6.30101 11.9573
H 4.02614 -6.79784 13.445
O 10.5465 2.99045 1.22093
H 10.5639 3.60073 0.428919
H 11.1 3.38227 1.95583
O -9.19284 5.80523 5.72243
H -9.1299 6.52373 5.02975
H -8.62176 6.04745 6.50678
O 14.5147 11.4933 -9.21946
H 13.6582 11.0252 -9.43698
H -14.7378 11.2141 -9.86942
O -11.5962 -8.71367 0.455242
H -10.7389 -8.296 0.756093
H -11.4383 -9.22935 -0.386868
O -6.08439 7.87364 6.83654
H -5.24714 7.52071 7.25425
H -6.26564 8.79503 7.18036
O 12.5659 1.32832 -2.07442
H 13.0847 1.91416 -1.45179
H 12.8469 1.51171 -3.01645
O -10.5746 2.52862 12.6749
H -10.7053 3.49414 12.4497
H -10.0209 2.45174 13.5041
O -11.5099 2.4245 9.37646
H -11.2514 2.94686 10.1891
H -11.1329 2.86635 8.56239
O 6.40797 -8.53199 13.7177
H 5.95339 -8.07507 14.4823
H 6.41511 -9.51936 13.8761
O -6.37731 -11.3021 7.43588
H -5.9117 -11.9877 7.9955
H -6.42196 -11.6194 6.48861
O 5.54552 6.80258 -13.7446
H 5.45429 6.46258 -14.6806
H 5.10289 6.16522 -13.1138
O -6.96953 10.0698 8.16491
H -7.47203 10.1821 9.02217
H -7.10981 10.8747 7.58836
O 9.51422 13.2833 11.8293
H 9.88132 14.1152 12.2455
H 8.51562 13.2978 11.8803
O -0.11064 7.29415 7.36915
H -0.696627 8.00531 7.7576
H -0.134985 6.48483 7.95603
O 1.93081 -11.1422 4.72839
H 2.71035 -11.3817 4.14962
H 1.75808 -11.8826 5.37803
O 4.00034 14.0159 -6.68913
H 3.20635 13.4103 -6.63654
H 3.69382 14.9678 -6.69243
O 9.41757 12.9771 1.52703
H 9.13332 13.7637 2.07525
H 10.4075 12.858 1.60322
O 12.6886 -5.30146 -13.4599
H 13.5768 -4.93746 -13.1797
H 12.6489 -6.27915 -13.2536
O 8.87625 -10.8973 8.90593
H 8.84018 -11.6926 9.51113
H 9.82682 -10.6089 8.79078
O 9.41421 -8.80166 -14.3166
H 9.32333 -8.73098 14.6494
H 9.29445 -9.75455 -14.0379
O 2.43401 7.86029 -11.4551
H 2.88642 6.96947 -11.4974
H 2.23986 8.17988 -12.3825
O 5.14945 -2.96803 4.98891
H 5.12291 -3.62839 5.7394
H 5.51982 -2.10058 5.32115
O -0.88422 -14.758 9.78176
H -0.471101 -14.4314 10.6319
H -1.28747 -13.9867 9.2893
O 5.14259 1.28297 -6.72325
H 4.20997 1.60299 -6.89006
H 5.14423 0.285861 -6.64713
O 11.5902 10.3534 -3.05248
H 10.7816 10.4294 -3.63585
H 12.338 10.8864 -3.44833
O -6.24839 1.14569 -0.989283
H -5.85708 2.04123 -0.777383
H -6.93192 1.24332 -1.71266
O -1.59605 -5.95913 -13.5328
H -1.29976 -6.87991 -13.279
H -1.56036 -5.36434 -12.7297
O -7.57007 10.6858 -12.3298
H -8.23047 11.4336 -12.3984
H -7.56371 10.1673 -13.1848
O 1.30264 -14.8824 -1.64673
H 0.57899 -14.517 -1.06124
H 1.2443 14.0788 -1.66511
O 9.09034 1.11622 2.70208
H 9.63956 1.12103 3.53776
H 9.56344 1.63406 1.98931
O 6.20645 -0.900846 14.2849
H 5.46748 -0.24661 14.1239
H 6.92447 -0.767425 13.6018
O 1.42855 13.1153 -6.80903
H 0.791321 13.8674 -6.64075
H 1.45843 12.9167 -7.78865
O 9.58914 -6.12923 6.31407
H 9.61084 -5.33436 5.70766
H 8.64375 -6.32248 6.57658
O 4.26072 5.39188 -11.8191
H 4.1881 5.60006 -10.8437
H 4.37858 4.40643 -11.9418
O -7.31782 4.20887 -4.59773
H -6.4392 4.36719 -4.14719
H -7.28752 4.57838 -5.52648
O 7.14204 -9.14518 -11.3243
H 7.67631 -8.43087 -11.7764
H 6.53824 -8.72969 -10.644
O -1.66496 -0.184417 -6.25398
H -1.23076 -0.0896135 -5.35816
H -0.967761 -0.382187 -6.94306
O 12.1357 10.1379 -9.82929
H 11.8114 10.2202 -8.88695
H 11.3816 9.84463 -10.417
O 4.82818 0.652948 8.90228
H 3.95914 0.431048 8.46006
H 5.06882 -0.0724918 9.54715
O -5.71867 -10.44 4.55208
H -6.1754 -9.72608 4.02124
H -4.80888 -10.6073 4.17222
O -7.89595 5.10258 -6.99761
H -7.63437 4.61908 -7.83297
H -8.44848 5.9018 -7.23419
O -0.341594 4.59954 -6.2732
H -0.556682 4.01915 -5.48776
H -1.10698 4.58671 -6.91665
O 1.69968 5.92028 -7.24779
H 1.35961 6.43701 -8.03352
H 0.944074 5.41886 -6.82629
O 4.77322 10.8124 -2.81852
H 4.57284 11.7877 -2.91109
H 4.03463 10.3669 -2.31249
O -10.4265 -0.520745 -5.52846
H -9.50896 -0.79636 -5.2419
H -10.9953 -0.365013 -4.72079
O 12.685 -14.1262 4.96744
H 13.6519 -13.9392 4.794
H 12.1305 -13.7102 4.24665
O -4.82324 13.274 9.49433
H -4.44016 13.6367 8.64482
H -5.71238 13.6979 9.66678
O 3.33999 -11.0311 2.33382
H 3.34326 -11.6669 1.56193
H 4.21225 -10.5432 2.36748
O 5.86561 -8.00948 4.91183
H 5.57838 -7.09607 4.62337
H 6.23786 -7.96458 5.83889
O 1.43376 -2.94646 -3.31645
H 1.69766 -2.09995 -3.77883
H 1.58663 -2.85063 -2.33285
O 2.0933 -0.285605 8.40718
H 1.77552 -1.2317 8.46999
H 1.99761 0.158008 9.29828
O 9.21209 13.2354 4.98718
H 8.38953 12.7398 5.26604
H 8.95845 13.9846 4.37529
O -0.0164022 -7.24874 1.45827
H 0.545565 -6.7866 0.772234
H -0.831041 -7.62921 1.02053
O 11.1243 13.5251 -10.6991
H 10.7377 14.244 -11.2768
H 10.4597 13.2679 -9.99747
O -3.07583 -3.9235 7.78304
H -2.82703 -2.99856 8.07044
H -2.96478 -4.006 6.79264
O 0.891369 7.22485 -9.31488
H 1.45081 7.67324 -10.012
H 0.111161 6.77658 -9.75117
O -3.42348 -8.06328 2.79723
H -4.37788 -8.15572 3.08114
H -2.85068 -8.66637 3.3524
O -2.77247 -0.198374 6.56274
H -3.47643 -0.728355 6.0899
H -1.91236 -0.708494 6.55892
O 10.799 -2.02919 2.74505
H 10.7468 -1.73866 3.70049
H 11.1563 -1.27963 2.1878
O 8.96073 7.99868 8.23015
H 9.73195 8.04936 8.86472
H 8.73754 8.91685 7.90281
O -14.9142 8.97934 5.8327
H -14.5809 8.12083 5.44293
H 14.4321 9.42558 5.18077
O 5.41735 -1.76501 10.4587
H 5.98051 -1.44789 11.2218
H 5.97484 -2.31964 9.84094
O 5.36639 3.54491 -13.7518
H 6.00796 3.23234 -13.0513
H 5.77547 3.42397 -14.6562
O 0.377146 -14.4791 -6.59111
H 1.16162 -14.1402 -7.11053
H -0.143461 -13.7051 -6.2307
O 0.8015 0.637121 11.0963
H 0.824796 1.42621 11.7102
H 1.46568 -0.0442278 11.404
O 1.59125 6.62071 10.9521
H 1.53627 7.53807 10.5578
H 1.35908 5.94341 10.254
O -4.80355 -12.6886 -5.96682
H -5.42662 -12.0329 -5.54028
H -4.8501 -12.5942 -6.96128
O 8.47784 -5.88671 -4.87334
H 8.45507 -6.74912 -5.37907
H 9.40111 -5.50411 -4.90826
O -9.58103 14.8947 2.82925
H -10.4568 14.436 2.98026
H -9.72608 -14.2419 2.27977
O 5.53146 -6.2565 -5.74679
H 5.04123 -6.23834 -4.87537
H 6.4417 -5.86056 -5.62547
O -11.7981 7.27129 13.6723
H -12.5858 6.65688 13.718
H -11.2823 7.0901 12.835
O -0.826124 -0.0232279 3.13686
H -1.31044 0.676152 3.66253
H -0.700607 0.293707 2.19675
O 3.48908 -1.29436 3.43972
H 2.55096 -1.48312 3.7301
H 4.12821 -1.69333 4.09726
O 6.50044 -14.8262 0.781572
H 6.40241 -14.7438 1.77335
H 7.36021 14.6688 0.569015
O -14.5938 -10.8744 -9.01493
H -13.7508 -10.339 -9.06695
H -14.9598 -11.0101 -9.9356
O -5.06631 -13.0319 9.03455
H -5.02444 -13.9767 8.70952
H -5.12556 -13.0251 10.0328
O 8.52702 -12.7084 -3.4453
H 7.77964 -13.3496 -3.27128
H 9.31924 -12.9612 -2.88988
O -13.1005 5.19944 0.830627
H -12.7608 5.53475 -0.048151
H -13.4756 5.96296 1.35627
O -10.1089 6.16209 1.70725
H -9.79799 5.30676 2.12174
H -10.5777 5.96422 0.846395
O 9.12377 -10.3767 3.5155
H 8.63072 -10.4357 2.64748
H 9.2887 -9.41643 3.74053
O -3.96243 -12.878 2.16632
H -3.6269 -13.7145 1.73299
H -3.47798 -12.0892 1.78801
O -11.3237 12.2333 2.7286
H -11.6782 11.3763 3.10252
H -11.9225 12.9875 2.99828
O 12.6091 -1.13301 -1.36178
H 12.7001 -0.252002 -1.82607
H 12.6105 -1.86854 -2.03929
O 10.541 7.74995 10.425
H 10.6886 8.0441 11.3693
H 11.1167 6.95605 10.2294
O 3.90391 -7.15422 -7.76148
H 3.01294 -6.70016 -7.75726
H 4.39728 -6.92801 -6.92157
O 14.8894 7.38842 -7.41556
H 14.9787 7.08475 -8.36415
H -14.4678 6.84274 -6.83279
O -10.1818 -8.11669 -4.99864
H -10.3059 -7.20841 -4.59906
H -9.21141 -8.3578 -4.98345
O -13.4872 5.55509 -6.14399
H -12.7786 5.50931 -6.84815
H -13.367 4.79915 -5.50048
O -5.35311 -9.83883 12.0398
H -6.15889 -9.39214 11.6509
H -5.43241 -10.8289 11.9239
O -13.0062 9.72977 13.3495
H -12.7257 8.86921 13.7746
H -12.3265 10.0022 12.6685
O -7.28939 3.77897 -9.51964
H -7.29737 2.91296 -10.0196
H -7.92177 4.42044 -9.95395
O -6.77637 -7.22318 -0.0924935
H -7.576 -6.81138 -0.529569
H -6.72354 -6.92011 0.85902
O -10.0227 12.9666 -8.06745
H -10.2944 13.4851 -8.87821
H -10.2749 13.477 -7.24535
O -7.56831 -5.17748 11.1424
H -7.92539 -5.85872 10.5033
H -6.62942 -4.94347 10.8899
O -1.42469 -12.2171 11.5392
H -1.14937 -12.7415 12.3449
H -2.07018 -12.7545 10.9964
O 0.524888 4.48641 -11.9816
H 1.13666 4.63696 -12.7582
H 0.994645 3.93994 -11.2882
O -14.072 -2.35452 13.8577
H -14.7372 -2.63978 14.5477
H -14.2813 -2.80167 12.988
O 2.63123 -9.40714 -8.98727
H 3.27773 -8.64507 -8.95121
H 2.34977 -9.64967 -8.05884
O -2.6417 13.5753 4.02644
H -2.76604 13.6626 3.03805
H -2.87737 14.4401 4.46975
O 0.487288 -8.33546 4.27564
H 0.921516 -9.23337 4.3479
H 0.101113 -8.22469 3.35988
O -4.91303 -7.47433 -7.36377
H -5.86964 -7.26502 -7.56651
H -4.7712 -7.45985 -6.37398
O -2.19874 -10.9538 -7.99144
H -2.61383 -11.8265 -7.73418
H -2.91179 -10.3228 -8.2969
O -0.738835 1.40756 8.95989
H -0.0027033 1.01825 9.51358
H -0.354075 1.80954 8.12899
O -13.2518 13.9902 -13.4759
H -13.0916 14.8727 -13.918
H -13.526 14.1383 -12.5257
O 6.52991 2.36089 13.7958
H 7.20597 2.05034 14.4641
H 5.71708 1.78088 13.8498
O 12.9695 -0.0174531 11.2739
H 12.5325 -0.27058 10.4108
H 13.917 -0.337148 11.2742
O 4.43473 0.156518 -1.32498
H 4.75384 0.0353592 -0.385025
H 5.22016 0.177043 -1.9436
O 9.34632 -10.0699 -4.78402
H 9.71807 -9.83955 -3.88472
H 8.78307 -10.893 -4.71096
O 14.4381 0.679854 14.3597
H 14.1732 -0.283988 14.3301
H -14.5648 0.77133 14.0826
O 7.89669 -4.72668 -8.31385
H 8.18828 -4.51724 -7.3805
H 8.68061 -5.05153 -8.84298
O -1.24219 -9.69887 -3.22131
H -0.290773 -9.3915 -3.23991
H -1.48091 -9.98829 -2.29435
O -11.1417 9.22682 -13.831
H -11.3602 10.1908 -13.9825
H -11.1329 8.74529 -14.7074
O -11.3529 7.39282 10.8092
H -10.9839 7.45296 9.88169
H -12.3458 7.28221 10.7665
O 4.91934 2.34034 -10.8122
H 4.218 2.88776 -10.3556
H 5.8156 2.76004 -10.6687
O 14.7469 9.82342 -1.5204
H 14.9678 10.794 -1.61659
H 14.0812 9.56218 -2.21938
O -10.4405 -12.5256 10.5395
H -10.4294 -13.2064 9.80721
H -9.72157 -11.8497 10.3772
O -12.4896 -5.94119 6.63524
H -12.1194 -6.8416 6.4066
H -13.2559 -5.73179 6.02783
O 5.96632 -3.16736 -14.3178
H 4.96986 -3.25127 -14.3108
H 6.22684 -2.32878 -14.7963
O 7.87354 -3.64055 12.0516
H 7.41322 -4.13226 12.7908
H 8.3976 -2.87925 12.4335
O -3.29018 6.21498 4.69577
H -2.55876 5.73145 5.17666
H -3.05139 6.30381 3.72876
O 10.245 -8.67154 -8.90041
H 9.55176 -8.22592 -8.33401
H 10.3359 -8.17838 -9.7656
O -11.5574 -10.787 3.26862
H -11.486 -9.94523 2.73348
H -12.5206 -11.034 3.37455
O -13.1057 3.40373 -4.58047
H -12.1652 3.06397 -4.58022
H -13.681 2.79167 -5.12303
O -7.13306 1.73516 2.45258
H -6.37064 1.14828 2.72516
H -7.28416 2.43232 3.1534
O 1.359 2.42669 13.7435
H 1.84649 2.69822 14.5734
H 1.68895 2.96877 12.9707
O 12.0336 3.5094 -11.4616
H 12.6617 3.70099 -12.2158
H 12.1771 4.17661 -10.7307
O 6.15947 -0.546675 5.44587
H 6.50952 -0.161891 4.59181
H 5.33168 -0.0559887 5.71794
O -10.2983 7.21843 8.35992
H -9.52677 6.59743 8.49794
H -10.0628 7.89224 7.65957
O 1.16818 -12.833 7.17378
H 1.76347 -13.5548 7.52699
H 1.40785 -11.9628 7.60426
O -14.4111 -10.6731 -5.7788
H -13.8699 -10.7209 -4.93924
H -14.1021 -11.3798 -6.41526
O 0.996102 -9.21372 -11.3945
H 1.18067 -10.107 -11.8043
H 1.28845 -9.2189 -10.4382
O -11.6012 5.32134 -8.27335
H -11.1945 4.51129 -8.69583
H -11.0258 6.11806 -8.45816
O -5.17679 1.6122 5.21446
H -4.311 1.17278 4.975
H -5.42218 1.37502 6.15443
O 0.366269 -4.33392 -5.46338
H -0.562754 -3.9708 -5.53469
H 0.852523 -3.86321 -4.72717
O 10.5065 0.43984 -8.44171
H 9.5846 0.817056 -8.35327
H 10.6781 -0.200054 -7.69264
O 4.29128 8.06476 0.0401447
H 5.1408 7.67831 -0.319034
H 3.86044 7.40645 0.65741
O -3.21496 -14.0734 13.343
H -3.19201 -13.7422 14.2862
H -2.48708 -14.7457 13.208
O 0.864777 7.65088 13.3891
H 0.104534 7.05853 13.6559
H 1.2604 7.32 12.5324
O -13.61 -5.70316 14.5351
H -13.7145 -4.95599 -14.7678
H -14.0503 -6.52614 14.894
O -0.111836 14.363 -11.8598
H 0.583832 14.7448 -12.4683
H -0.990884 14.3333 -12.3356
O 13.8218 14.0358 -9.89159
H 14.3088 13.2145 -9.59415
H 12.9196 13.7808 -10.2393
O -13.9022 -14.6176 -11.0245
H -13.6636 -13.7945 -11.5398
H -14.8498 -14.5522 -10.7118
O -6.968 -14.3125 -12.0449
H -7.03643 -14.9411 -11.2702
H -7.78518 -14.3961 -12.6152
O -4.25828 -4.56067 -5.65149
H -5.22862 -4.78109 -5.75088
H -3.77111 -5.35589 -5.2905
O -9.29044 2.51775 -7.07227
H -8.76631 3.36923 -7.0551
H -10.1433 2.66141 -7.57423
O -10.7617 10.4954 -9.1972
H -10.5244 11.3109 -8.66926
H -10.0402 10.3083 -9.86388
O -14.5416 -2.19229 5.18139
H -13.8412 -2.36321 5.87437
H -14.3297 -1.34443 4.69533
O -13.2895 4.69599 -10.7541
H -12.7441 3.92817 -10.4179
H -12.6813 5.41263 -11.0955
O -0.932751 11.702 5.79214
H -1.16648 12.5032 6.34308
H -1.47095 11.7086 4.94933
O 6.85952 11.9437 -1.00468
H 7.09926 11.4469 -0.170559
H 6.53647 11.2976 -1.69622
O 1.10092 10.0832 8.03193
H 1.30647 10.1306 7.05442
H 0.110044 10.0515 8.16302
O -6.16238 10.3574 13.806
H -5.57337 9.6029 14.0955
H -6.7702 10.0447 13.0761
O 4.34816 9.46643 8.01584
H 4.31709 10.3639 7.57589
H 5.21347 9.36568 8.50685
O 8.95533 -6.191 -13.2983
H 8.99075 -5.50985 -14.0296
H 8.73606 -7.08601 -13.6868
O -9.70105 -6.80024 1.76256
H -9.61389 -6.60215 0.786248
H -9.69738 -5.9434 2.27814
O -7.43382 -1.55861 -14.7102
H -7.79985 -1.39613 14.3328
H -8.09972 -2.07534 -14.1721
O 5.71949 13.4344 -14.2434
H 5.59333 14.2871 -13.7365
H 6.69526 13.2243 -14.3047
O -2.13774 9.62531 1.50312
H -2.55333 8.93196 2.09183
H -1.19604 9.79051 1.79628
O 11.5448 -13.7056 -14.4315
H 12.0657 -12.8896 -14.181
H 12.1717 -14.4731 -14.5656
O -13.5575 -5.97348 -7.16478
H -13.689 -6.0666 -6.17783
H -14.3348 -6.38059 -7.64446
O -7.40414 -8.91838 -12.7744
H -6.65746 -9.21995 -12.1815
H -7.05971 -8.24359 -13.4271
O -12.1594 -13.9274 -14.9071
H -12.1816 -14.0103 14.056
H -11.5173 -13.2064 -14.6467
O -3.03385 6.77383 1.72187
H -2.93754 6.72291 0.727813
H -4.00266 6.8434 1.95976
O -2.73613 13.7565 -2.1939
H -2.25604 13.7139 -3.0701
H -3.17513 12.8767 -2.01124
O -12.4516 6.84136 -1.48753
H -12.3487 7.69775 -0.981559
H -13.1259 6.96353 -2.21584
O -14.548 -14.5176 -4.59314
H -14.062 -14.6468 -5.45748
H 14.4612 -14.2673 -4.77923
O 8.28377 2.05762 -0.509429
H 7.56003 2.53824 -0.0142107
H 9.17522 2.39645 -0.208532
O -7.41961 -12.0858 -10.2046
H -8.23761 -12.6122 -9.97276
H -7.08876 -12.3638 -11.1064
O -1.47665 -8.8419 -12.672
H -2.16694 -9.38476 -12.1937
H -0.620885 -8.86045 -12.155
O -14.7657 -11.7073 6.66248
H -14.8424 -12.696 6.53401
H -14.6183 -11.2666 5.77702
O -13.6099 11.2783 6.68665
H -14.391 11.8475 6.94336
H -13.9309 10.3644 6.43792
O -9.1266 -10.8935 12.8443
H -8.75966 -10.1145 12.3357
H -8.58787 -11.0326 13.6752
O 1.04175 -9.91195 1.86772
H 1.20127 -8.95645 1.61953
H 1.91066 -10.3424 2.11213
O 6.89875 -2.2012 -8.58402
H 7.45184 -2.06316 -7.7624
H 7.38196 -2.81063 -9.21261
O 4.47455 7.8235 11.0518
H 5.19494 8.29149 10.5399
H 3.58141 8.16145 10.755
O -11.7003 -4.04293 -12.6373
H -11.7796 -4.94804 -12.2196
H -12.6057 -3.72515 -12.9187
O -7.44276 -1.2326 10.3979
H -7.88493 -0.613395 9.74896
H -8.05672 -1.40119 11.169
O -3.54372 -4.13894 -2.11923
H -2.84164 -4.84806 -2.05393
H -3.10782 -3.25066 -2.26404
O -7.24707 14.339 9.51289
H -7.58511 14.8868 10.2782
H -7.57467 14.7299 8.65274
O -6.69757 3.73633 -12.4193
H -6.04509 3.29444 -11.8036
H -6.23764 3.98022 -13.2731
O -14.5079 -14.4963 6.51501
H -13.6335 -14.7887 6.90225
H 14.7897 14.7166 6.58479
O 8.02054 -10.9495 -1.6259
H 8.8381 -10.3835 -1.73227
H 8.0027 -11.6473 -2.34202
O -3.94166 -7.17164 -4.70618
H -3.37742 -7.88441 -5.12283
H -3.77217 -7.14572 -3.72098
O -14.1978 -3.82296 11.5076
H -13.4069 -4.37848 11.7643
H -14.8783 -4.40033 11.0564
O -5.34664 -8.99265 7.79988
H -5.94073 -9.7297 8.12213
H -5.2714 -9.03662 6.80367
O 7.44411 4.65252 12.298
H 7.96618 4.26696 11.5372
H 6.9156 3.92808 12.7405
O 7.6441 -11.1764 1.05626
H 6.73802 -10.9995 1.44066
H 7.59681 -11.1343 0.0582606
O 11.7071 5.06713 9.96019
H 12.2536 4.59435 9.26899
H 10.8402 4.58484 10.0869
O -8.78038 -7.28982 14.369
H -8.87971 -6.32402 14.1295
H -8.07441 -7.38839 -14.889
O -6.83355 -14.8554 3.27371
H -7.80581 14.9144 3.13662
H -6.35913 -14.8943 2.39426
O 2.29634 -7.91816 9.81121
H 2.25758 -7.26692 10.5691
H 3.21667 -8.30461 9.75055
O -5.01762 -9.78906 -3.23192
H -4.41247 -9.587 -4.00197
H -5.96976 -9.69248 -3.52197
O -8.2243 4.31413 -1.193
H -8.75445 3.89344 -0.456805
H -8.48285 3.90274 -2.06703
O 6.87616 -5.28481 13.9606
H 6.23306 -6.04808 14.0228
H 6.66967 -4.61597 14.6748
O -10.6957 14.1637 -0.464697
H -10.9922 14.858 0.191044
H -9.77313 14.3797 -0.784562
O 12.1577 8.48835 1.93657
H 11.789 9.08095 1.22036
H 11.6525 7.62537 1.94791
O 14.6157 11.0016 -13.8715
H 13.8219 11.1727 -13.288
H -14.753 11.8085 -13.8757
O -8.20348 9.87804 -1.87589
H -8.89305 10.2765 -1.27114
H -7.29851 9.9811 -1.46307
O 8.51864 12.6079 -7.93102
H 9.36399 12.725 -7.40978
H 8.05913 11.7698 -7.63706
O 14.7924 12.4809 1.36412
H -14.3776 12.0089 0.971508
H 14.7751 13.427 1.04069
O 7.30631 6.61568 -9.76193
H 7.91618 7.38656 -9.578
H 7.30183 6.42088 -10.7428
O 13.0498 -1.7057 -14.7634
H 13.3044 -1.52404 -13.8136
H 12.2828 -2.34698 -14.7861
O -7.3159 -8.56893 -5.43688
H -7.06705 -7.72996 -4.95292
H -7.6931 -8.3371 -6.33354
O 12.9387 2.68991 -4.72628
H 12.987 3.05542 -5.65585
H 13.5583 3.20427 -4.13332
O -9.15743 -2.50362 -8.87181
H -9.9963 -1.97234 -8.99039
H -8.76697 -2.71449 -9.76797
O -7.54302 9.58477 11.5745
H -6.94642 9.00356 11.0211
H -7.68122 10.4592 11.1095
O -7.27087 -3.18145 0.386158
H -6.66364 -3.85282 0.811087
H -8.09471 -3.07742 0.943375
O 8.44213 8.73051 14.0225
H 8.43868 8.59158 -14.9465
H 8.85529 7.93681 13.576
O -6.86478 1.10566 -10.6197
H -5.92785 1.43422 -10.7391
H -6.88585 0.413139 -9.89863
O 0.757737 -10.2322 8.44011
H 0.715479 -10.5591 9.38424
H 1.3215 -9.40733 8.3979
O -5.20848 4.2587 -14.6581
H -5.95 4.9283 -14.7006
H -5.59087 3.3353 -14.6917
O 6.61087 -1.94431 -11.9229
H 6.23883 -2.56798 -12.6104
H 5.91912 -1.26388 -11.681
O -1.71893 10.7378 10.6536
H -1.80304 11.732 10.5861
H -1.24721 10.5001 11.5027
O 8.82211 -13.3812 10.1815
H 8.58827 -14.2055 9.66595
H 9.81077 -13.2352 10.1462
O 4.87892 -8.64508 9.42603
H 5.52574 -8.5427 8.67028
H 5.24834 -9.28904 10.096
O 14.7362 6.50533 4.31608
H 13.7665 6.42445 4.08543
H -14.9509 5.73141 4.88787
O -0.0833805 -6.9464 -4.64215
H 0.102933 -6.02363 -4.97949
H -0.217883 -7.5638 -5.41723
O -5.6986 -4.94627 -10.3358
H -5.97491 -4.13437 -10.8501
H -5.49989 -4.68997 -9.38987
O -8.4112 12.2795 2.49202
H -8.17558 13.1257 2.97004
H -9.34596 12.0131 2.72708
O -2.43454 -13.6329 -4.41175
H -2.50802 -13.6231 -3.4145
H -3.3418 -13.5103 -4.81406
O -13.5432 -13.1833 -7.72443
H -13.8101 -14.0693 -8.10353
H -13.9025 -12.4512 -8.30317
O 1.58833 11.1363 5.50039
H 0.619261 11.3283 5.65558
H 1.68971 10.5765 4.67803
O 10.0476 -5.08344 -9.87242
H 10.6776 -5.85209 -9.76165
H 9.85964 -4.94393 -10.8447
O 8.5847 -14.6894 2.99573
H 8.97388 -13.874 2.56722
H 7.75382 -14.4402 3.49326
O -9.08715 6.73822 14.8081
H -9.98893 6.30846 14.8541
H -9.16232 7.62214 14.3466
O 12.5616 -9.84881 3.51609
H 12.3303 -10.7725 3.21044
H 11.8201 -9.22255 3.27502
O 7.65575 -8.09138 -6.80783
H 8.02941 -8.80593 -6.21638
H 6.76885 -7.79522 -6.45326
O -8.26306 -8.6548 11.609
H -8.09471 -8.11242 10.7859
H -8.55486 -8.05189 12.3515
O -1.45256 4.57593 -8.68383
H -1.21189 5.05223 -9.52955
H -2.40859 4.76187 -8.45704
O -11.024 -0.922406 1.73899
H -10.8894 -0.567779 0.813726
H -12.0027 -0.966485 1.9399
O -1.98036 4.9351 11.2987
H -1.36663 5.18277 12.0484
H -2.47775 4.10089 11.5369
O 3.57432 -13.6332 -4.4197
H 3.50778 -12.7411 -4.86657
H 2.73933 -13.8077 -3.8978
O 11.6556 -0.2333 8.76882
H 11.0407 0.554723 8.79966
H 11.1287 -1.05957 8.56946
O -3.57477 -8.63024 -14.6268
H -3.14645 -8.35864 14.4707
H -2.86589 -8.8673 -13.9625
O -12.4084 -8.17015 11.1262
H -12.5993 -8.30592 10.1541
H -11.9746 -8.99068 11.4985
O 10.9013 -12.9209 -2.11239
H 11.3923 -13.7765 -1.94836
H 11.5502 -12.1599 -2.11691
O 11.0814 -9.41629 8.83317
H 10.8975 -8.49942 9.18753
H 11.1582 -9.37934 7.8368
O 10.6486 -9.56113 -2.09399
H 11.41 -10.1499 -1.82266
H 10.3208 -9.05206 -1.29809
O -14.6136 0.651945 3.65036
H -14.5573 1.48625 3.1019
H 14.4644 0.621741 4.1218
O 1.3857 -6.6681 -14.5248
H 1.14232 -6.72197 -13.5564
H 0.939912 -5.87341 -14.9369
O -5.34317 4.82983 -2.23333
H -6.16609 4.52384 -1.7546
H -5.24154 5.81852 -2.12296
O 6.37453 -11.2138 13.5665
H 6.40261 -11.2077 14.5661
H 6.70943 -12.0935 13.229
O 0.258579 13.3878 -14.8791
H 0.330638 12.9665 -13.9751
H -0.656984 13.2292 14.7106
O 2.86149 12.7733 9.37468
H 3.04857 12.1999 10.1723
H 2.85278 12.2062 8.55111
O 1.46132 -0.531511 -13.7144
H 0.566469 -0.709813 -13.3051
H 1.35699 0.10218 -14.4809
O -14.8152 3.49027 3.14485
H 14.6808 4.0885 2.49108
H -13.9697 3.92574 3.45387
O 11.7421 -6.16806 8.06946
H 12.2978 -6.66725 7.40462
H 10.8275 -6.01846 7.69396
O 8.31539 11.0304 9.48956
H 8.94908 10.7706 10.2183
H 8.13622 12.013 9.53822
O 11.1205 -5.52867 -5.79687
H 11.5986 -5.08841 -6.55685
H 11.2894 -6.51396 -5.82276
O -14.5856 -1.34181 10.9305
H -14.5369 -2.29069 11.2424
H -13.6609 -0.970437 10.8472
O 9.00536 13.0861 -2.28502
H 8.26204 12.6051 -1.82011
H 9.85635 12.9557 -1.77625
O -9.46103 -4.26543 13.4352
H -8.63179 -4.34849 12.8825
H -10.2493 -4.12906 12.8352
O -8.7364 -3.59411 8.56211
H -9.40183 -3.44452 7.83077
H -7.94907 -2.99313 8.42443
O 4.63748 -5.54887 3.42727
H 4.64881 -4.56373 3.59872
H 3.83307 -5.95365 3.86212
O 0.295178 -4.64842 3.49183
H -0.110232 -5.25272 4.17774
H 0.266224 -5.09339 2.59674
O -2.76746 -4.16069 4.99869
H -2.7295 -3.9962 4.01303
H -1.98241 -4.71533 5.27454
O -13.949 5.46151 13.4387
H -14.3974 5.44873 12.5449
H -14.6113 5.21822 14.1473
O 12.7855 5.40062 -1.15228
H 13.0315 6.23523 -1.64518
H 12.0657 4.91843 -1.65169
O 5.89943 3.12083 -4.88081
H 5.85573 2.33752 -5.50092
H 4.97317 3.44236 -4.68415
O 11.5864 3.93212 13.4181
H 11.2742 3.02709 13.1292
H 12.2261 3.8363 14.1807
O -5.28414 1.56139 -4.30658
H -6.23545 1.55355 -3.99842
H -5.14346 0.828809 -4.97258
O -13.7364 12.5335 13.7056
H -13.2189 13.1525 14.2963
H -13.3004 11.6335 13.7025
O -6.07092 13.5224 -4.127
H -6.10445 12.8164 -4.83451
H -6.89138 13.4636 -3.55832
O 0.973278 -6.02011 11.8158
H 0.248719 -5.87406 12.4894
H 1.80802 -6.31266 12.2823
O 12.3528 -8.06623 -13.2313
H 12.8088 -8.937 -13.0475
H 11.6987 -8.18375 -13.9786
O -12.8441 -12.6049 -12.4544
H -12.3544 -11.7678 -12.2107
H -12.5846 -12.886 -13.3783
O 9.31384 5.75215 14.3453
H 10.1423 5.81029 13.7883
H 8.60306 5.26713 13.8358
O -9.49417 -3.17893 -13.9339
H -9.52129 -3.67101 -14.804
H -10.2765 -3.45001 -13.3731
O 2.22394 -0.631874 -10.799
H 2.14466 -0.802147 -11.7812
H 3.09684 -0.990308 -10.4679
O -11.0469 -0.736645 -9.3514
H -11.5207 -0.220623 -8.6378
H -10.8052 -0.122143 -10.1024
O -10.1862 -3.19453 -0.987691
H -10.618 -2.84882 -1.82079
H -10.7733 -2.99897 -0.202145
O -1.39181 6.17485 -10.7749
H -0.767703 5.62226 -11.3273
H -1.79445 6.89198 -11.3438
O -7.77475 3.06877 9.61584
H -7.44266 3.63755 10.3683
H -7.89997 3.6343 8.80066
O 11.3932 12.248 -0.676668
H 11.785 11.5001 -1.21257
H 11.7099 12.1816 0.26954
O 4.64489 11.0593 14.9262
H 5.0645 10.8132 14.0524
H 4.90867 11.9921 -14.7877
O -7.595 10.5632 -9.40064
H -6.95032 10.1431 -8.76197
H -7.55443 10.0851 -10.278
O 7.86086 6.21669 -12.4421
H 8.75701 6.4071 -12.843
H 7.14541 6.43888 -13.1045
O -9.65952 -10.6328 -8.1952
H -10.4356 -10.4851 -7.58216
H -9.23882 -11.5173 -7.99314
O -1.41432 13.8502 7.20352
H -1.13509 14.594 6.5963
H -0.973955 13.9638 8.09413
O 11.8953 -12.0913 12.3185
H 11.5167 -11.1958 12.5529
H 12.7576 -12.2267 12.8064
O 6.38147 3.69776 0.773504
H 6.97145 4.39558 1.17968
H 5.77939 4.12262 0.0974797
O 6.25559 -13.9202 -3.63718
H 6.19369 -14.5244 -2.8427
H 5.34656 -13.8002 -4.03627
O 14.5223 12.5467 -6.49869
H 14.4861 12.0871 -7.38607
H 14.4452 13.5348 -6.63173
O 10.1695 -14.1051 13.2811
H 10.768 -13.4588 12.8077
H 10.4184 -14.1423 14.2489
O -11.0519 5.09802 -13.7048
H -11.3848 5.80994 -13.0864
H -10.5813 4.39114 -13.1767
O -0.610598 -5.29398 13.7965
H -1.34425 -4.94388 13.2141
H -0.970276 -5.478 14.7113
O -3.33675 3.24402 8.29847
H -2.65497 2.69667 8.78387
H -4.07963 2.65145 7.98702
O 13.2558 7.9925 -3.89857
H 12.6623 8.71274 -3.53943
H 12.9166 7.69525 -4.7911
O -1.17763 -10.9414 -14.6966
H -1.21978 -10.5328 14.351
H -1.17063 -10.2174 -14.0068
O 11.6602 -3.52435 9.58168
H 11.374 -3.49746 10.5395
H 10.9869 -3.04474 9.01894
O 5.46668 6.33169 -3.80943
H 4.57644 6.37439 -4.26295
H 6.18792 6.25292 -4.49764
O 11.8125 -9.719 13.9287
H 10.9837 -9.23969 13.6402
H 12.6067 -9.12925 13.7821
O 0.129076 8.29313 4.80037
H 0.125837 7.80113 5.67097
H -0.498719 9.06967 4.85402
O -8.68189 -11.8972 -1.87875
H -8.07173 -11.9627 -1.08917
H -8.13892 -11.789 -2.71151
O -10.5302 7.90101 -8.67911
H -10.7497 8.84906 -8.90939
H -10.0279 7.87568 -7.81477
O 10.7998 9.36644 -0.255491
H 9.83155 9.15276 -0.385144
H 11.3209 9.04486 -1.04612
O 10.6661 -1.94354 -4.03468
H 10.7345 -2.90077 -3.75353
H 10.2597 -1.40712 -3.29498
O -8.86563 14.3867 -2.90456
H -9.00009 13.432 -3.16997
H -8.07893 14.4545 -2.29093
O 10.2072 3.52845 -13.7294
H 10.1638 4.48254 -14.0257
H 10.8233 3.45062 -12.9455
O -6.65168 9.07069 -7.16155
H -5.90566 8.41095 -7.25217
H -7.49218 8.59091 -6.90977
O 12.0395 5.19085 5.38736
H 12.3998 4.64666 6.14503
H 11.606 4.58611 4.71921
O 6.95023 -6.44448 -1.6189
H 6.00457 -6.21782 -1.85206
H 7.56624 -5.77965 -2.04146
O 3.06843 6.93687 7.67632
H 3.53905 7.81176 7.79081
H 2.09149 7.05842 7.85187
O -2.37464 13.3043 11.0374
H -1.81485 14.0102 10.6033
H -3.23936 13.214 10.5433
O -10.0197 -4.26417 5.9964
H -10.7167 -4.89594 6.33575
H -10.4529 -3.56255 5.43065
O -9.92009 2.01528 -14.7457
H -10.0524 1.10931 -14.3435
H -10.1622 2.71632 -14.0749
O 13.2747 -9.41911 -5.14159
H 13.6354 -9.95114 -5.90765
H 12.4613 -8.91819 -5.43735
O -11.2444 -12.4085 -6.32313
H -10.7106 -13.1707 -5.95695
H -12.1602 -12.7289 -6.56535
O 1.24095 -3.21918 11.3771
H 1.29636 -4.2132 11.4714
H 1.68319 -2.78478 12.1618