2611
Atoms. Timestep: 23000000
O 7.4111 -12.4499 -0.701675
H 6.71926 -12.8839 -1.2788
H 7.80915 -11.6713 -1.18677
O -4.24102 13.3411 13.1575
H -3.9217 14.288 13.1194
H -3.45522 12.7231 13.1327
O 3.20962 -9.88547 8.44771
H 2.88546 -9.33975 9.22046
H 3.28765 -10.843 8.72531
O 7.61152 13.7873 -4.64289
H 7.7401 13.8969 -5.62853
H 8.41008 13.3301 -4.25134
O 12.5144 4.23154 -4.06092
H 13.2701 4.88633 -4.06956
H 12.8691 3.3109 -4.22405
O -5.07458 -12.5333 1.58755
H -4.99622 -11.779 0.93573
H -4.16527 -12.7801 1.92264
O -3.22579 -2.98345 -13.3689
H -2.94227 -2.04394 -13.1767
H -2.7806 -3.60457 -12.7239
O -14.3878 -8.83213 3.6772
H -14.136 -9.26207 2.81014
H -13.5781 -8.75657 4.25925
O 6.34364 -6.93612 -9.57197
H 6.68823 -7.46995 -10.3442
H 5.36778 -7.11758 -9.45035
O 6.41974 7.77457 1.02982
H 6.28206 7.11413 0.291651
H 5.54184 8.1832 1.27952
O -14.1182 7.66107 -5.58863
H -14.5256 7.53703 -6.49346
H -14.0248 8.63795 -5.39624
O -6.80013 13.509 -12.3992
H -6.63292 13.051 -13.2724
H -6.98662 14.478 -12.5614
O -11.3649 -3.59118 -3.91747
H -10.8543 -3.31936 -3.10169
H -10.9373 -3.18976 -4.72743
O -5.43968 7.3988 5.05127
H -4.97965 7.43803 5.93833
H -4.77789 7.5817 4.32421
O -8.84415 -13.8432 -1.9076
H -7.88692 -14.0792 -1.74006
H -9.43035 -14.3743 -1.29571
O 2.14163 -1.05892 -4.88723
H 2.29967 -0.939318 -3.90705
H 1.23526 -0.708896 -5.12386
O 10.5561 3.12138 8.42902
H 10.144 3.25465 7.52764
H 10.8143 2.16155 8.53886
O 6.56058 14.2143 12.3049
H 6.55987 -14.774 11.6074
H 6.97048 13.3834 11.9286
O 8.45864 -9.72475 7.47409
H 7.56674 -9.33949 7.2372
H 8.34866 -10.391 8.21168
O 10.1359 -7.29413 -5.80885
H 10.9521 -6.80116 -5.50732
H 9.94104 -7.0644 -6.76242
O -0.220071 -10.2127 10.1604
H -0.588685 -9.59097 10.8514
H 0.279429 -10.953 10.6105
O -4.89675 -4.48545 2.51302
H -4.60909 -3.5277 2.51262
H -4.42902 -4.97428 1.77661
O -1.74326 8.96317 -11.9023
H -1.30304 8.07467 -12.0319
H -2.07795 9.30084 -12.782
O -3.43611 -2.97013 -9.48541
H -4.05471 -2.26524 -9.83252
H -2.50519 -2.60695 -9.44662
O -11.4907 12.0163 9.93931
H -12.4295 11.9639 9.59889
H -11.3514 12.8933 10.3992
O 12.8867 -11.956 -9.78176
H 13.1325 -12.0299 -10.7483
H 12.7675 -10.9928 -9.54084
O -5.87535 -4.85368 -6.09454
H -6.22456 -4.05869 -6.59059
H -6.18965 -5.69061 -6.54263
O 6.63958 -10.3139 -6.64256
H 6.09219 -10.8315 -5.98496
H 6.84645 -9.41074 -6.2663
O 3.44987 -2.60474 3.17222
H 3.81533 -1.75103 2.80119
H 2.63195 -2.40979 3.71354
O 8.55041 14.8453 -0.319303
H 8.74565 -14.6478 0.638316
H 8.15803 -14.0552 -0.765343
O -0.946261 7.18232 4.65019
H -1.34208 6.26911 4.55317
H -1.6556 7.82372 4.94255
O 9.09747 9.4408 -11.7067
H 8.68365 8.95185 -10.9388
H 10.0605 9.18324 -11.7858
O 0.953942 -9.32228 6.84571
H 1.80719 -9.74546 7.15052
H 0.566237 -9.8571 6.09492
O -11.2463 6.84618 9.0194
H -11.0712 7.75076 9.40813
H -12.063 6.88325 8.44357
O 7.16925 -3.02737 -0.523857
H 7.99105 -3.22352 0.0111152
H 6.56318 -3.82263 -0.507499
O -1.14042 7.27218 -2.85681
H -1.20758 8.20171 -3.21942
H -0.646463 7.28841 -1.98746
O -1.42645 3.41903 -10.4459
H -1.99982 2.75887 -10.9312
H -0.608275 3.61158 -10.9877
O 3.66424 -6.99227 1.84278
H 3.44666 -6.02257 1.73155
H 3.7905 -7.41085 0.943403
O -13.4219 12.1616 14.4609
H -13.1973 11.2875 -14.8132
H -12.5882 12.7024 14.3497
O -14.7593 -11.8955 9.33317
H -13.9958 -11.312 9.60999
H 14.1092 -11.3495 9.28531
O 10.2281 7.81321 -2.96543
H 9.79921 8.16999 -3.79536
H 9.54868 7.76552 -2.2332
O 1.13221 -6.7175 -0.0803859
H 2.04328 -6.96031 -0.413581
H 1.1292 -6.72821 0.919568
O -2.26571 -10.6569 -9.80403
H -3.25709 -10.7697 -9.73706
H -1.82798 -11.0774 -9.00928
O 7.7319 -5.22359 7.92349
H 7.51347 -5.75741 7.10657
H 7.2722 -5.6241 8.71614
O -4.79722 10.3088 -9.92466
H -4.36815 9.41945 -9.76661
H -4.63559 10.5937 -10.8695
O -5.34055 8.9083 -13.4974
H -5.73184 9.22064 -14.363
H -5.00412 9.69543 -12.9804
O -13.8388 -5.74638 10.9219
H -13.882 -6.61307 11.4189
H -13.3371 -5.87716 10.0668
O -12.0079 -9.39781 -3.90492
H -12.5367 -8.69569 -4.3818
H -11.6356 -10.0444 -4.57077
O 14.3464 7.77279 9.58318
H -14.8524 8.55095 9.95493
H 14.4434 6.98852 10.196
O -0.966922 -1.59113 -9.27831
H -0.519501 -1.09829 -8.53202
H -0.293078 -1.81101 -9.98374
O -9.3464 -12.1962 -8.64452
H -8.64503 -12.4447 -7.97642
H -8.95826 -12.2349 -9.56532
O 13.3394 14.3139 9.92874
H 14.1313 14.0267 10.4677
H 12.7757 -14.7678 10.4707
O -4.16291 9.60365 8.40497
H -3.22861 9.94801 8.49728
H -4.74337 10.3162 8.01084
O -4.67984 10.2623 -4.05458
H -4.25542 9.71829 -4.77841
H -5.61404 9.94069 -3.90011
O 11.7446 -11.7567 11.51
H 12.0929 -11.4992 10.6087
H 11.7686 -12.7519 11.6047
O 1.2264 10.5024 -5.67041
H 1.43778 11.3745 -5.22901
H 2.05854 10.1234 -6.07531
O 13.9047 -12.55 -12.2328
H 14.056 -13.1764 -12.9974
H 13.5028 -11.6998 -12.5728
O 1.04228 13.1452 7.7226
H 0.908959 12.1872 7.46858
H 0.518254 13.3466 8.55015
O 14.7533 0.49255 -9.54366
H -14.5326 1.37265 -9.76684
H 14.2963 0.556431 -8.65649
O -5.16043 -4.99602 -10.1522
H -4.55139 -5.72625 -10.4619
H -4.62779 -4.29872 -9.67254
O -7.32523 -12.0049 12.0812
H -7.59032 -11.0422 12.1371
H -6.76777 -12.2437 12.8763
O -14.6045 7.05454 -10.5103
H -14.0492 7.88542 -10.4751
H -14.0112 6.25344 -10.4314
O 14.6427 13.5875 12.7353
H -14.7154 13.3749 13.6488
H 14.4983 14.5738 12.6548
O 2.92597 -9.54641 13.0355
H 2.38189 -10.1538 13.6143
H 3.7408 -10.0309 12.7171
O 2.61436 12.8017 -1.50132
H 2.80653 12.9048 -2.47727
H 2.42134 11.8415 -1.29924
O -12.9248 -1.03701 -3.73879
H -12.7351 -1.73862 -4.42567
H -12.6643 -0.14055 -4.09724
O -4.20968 5.01068 9.91074
H -4.82017 4.76693 9.15714
H -3.26002 4.95033 9.60326
O 13.757 -7.47023 -7.73599
H 14.5728 -7.55649 -8.30792
H 13.9744 -6.9269 -6.92508
O 0.364778 7.25887 -0.464267
H 0.5519 6.27732 -0.424594
H -0.139585 7.53537 0.353777
O -11.0971 -4.22839 6.98662
H -10.1313 -4.32574 6.74648
H -11.6337 -4.07892 6.15607
O -3.71324 -8.37482 8.618
H -4.53074 -7.95224 8.22664
H -3.74013 -9.36191 8.46006
O -6.20937 -0.553422 3.53734
H -7.05546 -0.321105 3.05756
H -5.5735 -0.988692 2.89997
O -0.931635 5.06638 -4.82081
H -1.5436 4.27652 -4.86135
H -0.995805 5.49176 -3.91805
O 11.4964 3.10198 2.17947
H 10.5047 3.21107 2.11193
H 11.929 3.46858 1.35572
O -5.47277 -10.8941 -9.06084
H -5.00368 -10.6295 -8.21824
H -6.401 -10.5221 -9.0565
O -10.4639 -1.26858 1.09232
H -11.227 -0.638726 0.947526
H -9.95648 -0.99512 1.90947
O -10.6514 2.00641 6.80602
H -10.2221 1.94404 7.70703
H -11.6388 2.1219 6.91454
O 12.2517 3.50852 -0.583258
H 11.696 2.79967 -1.0177
H 13.1557 3.5317 -1.01021
O -10.4197 -6.11842 -4.76126
H -10.5768 -5.22098 -4.34899
H -10.5454 -6.05697 -5.75144
O -14.0459 -8.04591 12.1981
H -13.3217 -8.65544 12.5208
H -14.8334 -8.58896 11.9066
O -12.3071 -10.6447 9.66643
H -11.8609 -10.9506 8.82539
H -11.9313 -9.75938 9.94014
O 7.36048 0.369144 -4.45074
H 7.81173 1.17666 -4.07085
H 6.80667 0.63678 -5.23922
O -10.3579 13.2702 -12.1766
H -10.6207 12.3405 -11.9186
H -9.96734 13.7384 -11.3839
O 11.0046 1.27949 -1.99807
H 11.8786 0.82708 -2.17554
H 10.3086 0.591307 -1.793
O 5.32447 4.00466 -1.28578
H 5.06633 4.62816 -0.547784
H 5.14471 3.06214 -1.00404
O -11.5784 -1.12083 -14.1781
H -11.1423 -1.07602 -13.2793
H -12.4547 -0.639984 -14.1477
O -4.94678 4.77046 -7.5259
H -4.75976 5.51996 -6.89084
H -5.70989 4.2239 -7.18098
O 12.6555 -10.5449 9.15345
H 13.0982 -9.64849 9.1764
H 12.0931 -10.6179 8.32983
O 6.65613 -12.9252 14.5019
H 6.86296 -13.3491 -14.3212
H 6.3121 -13.6201 13.8705
O -0.0944828 -13.7626 -2.35968
H -0.669358 -13.0528 -2.76688
H 0.284272 -13.4299 -1.49601
O -12.0755 10.8013 6.43922
H -12.235 11.755 6.18429
H -12.9248 10.4022 6.78488
O 3.98147 7.8884 -13.6377
H 3.86553 7.33528 -12.8127
H 4.77844 8.48296 -13.5311
O -4.42694 -1.78513 1.83711
H -3.44925 -1.98519 1.90143
H -4.7495 -1.9923 0.913498
O -12.6747 -12.677 -14.0804
H -12.9665 -11.7206 -14.0717
H -13.2231 -13.1868 -14.7433
O -5.04007 13.1145 10.6513
H -5.0121 13.1954 11.6476
H -5.52748 12.2788 10.3983
O 11.5442 -14.0461 -10.9664
H 11.966 -13.3956 -10.3348
H 11.4067 -13.6072 -11.8544
O -0.702325 13.5529 1.02836
H 0.268911 13.3681 1.17861
H -0.970012 13.2159 0.125701
O -8.25843 -13.7418 -13.376
H -7.71222 -13.5714 -14.1962
H -9.0318 -14.3321 -13.6073
O 0.322606 0.644126 13.6664
H 0.189556 1.59091 13.9596
H 1.22094 0.551265 13.237
O -5.72031 12.9093 -5.05581
H -5.17048 12.7067 -4.24547
H -5.34816 12.4171 -5.84274
O 9.14219 -6.66066 14.4379
H 8.95725 -5.88964 13.8286
H 8.54758 -6.60182 -14.4652
O -14.7687 -6.00949 -0.244852
H 14.3049 -6.47994 0.371575
H -14.6671 -5.05774 0.0447709
O -0.363086 -12.159 -11.0272
H -0.950879 -11.4418 -10.6528
H -0.890135 -12.7246 -11.6615
O -8.65618 12.0092 1.85801
H -9.42191 12.5652 1.53457
H -9.00579 11.2357 2.3866
O -12.5019 10.3972 -7.35603
H -11.7206 10.7497 -6.84105
H -13.3499 10.6531 -6.89185
O 9.88044 -4.80648 -10.096
H 9.51759 -4.03315 -10.6159
H 10.8445 -4.6439 -9.88591
O 9.48939 -13.343 7.87491
H 9.53247 -12.6176 8.56191
H 10.4153 -13.6526 7.65856
O 2.28125 6.61854 13.9523
H 2.8199 6.27734 13.1819
H 2.56848 7.55065 14.173
O 6.09588 -5.64971 12.4258
H 6.9381 -5.75518 11.897
H 5.30906 -5.68253 11.8095
O 2.62835 -13.9283 -13.9862
H 2.9562 -14.6408 -14.6066
H 2.17795 -14.352 -13.2003
O 3.33864 -6.89434 -9.04851
H 2.98043 -7.80156 -9.26914
H 2.58078 -6.24649 -8.97126
O -4.07404 -11.2594 7.98603
H -4.88753 -10.8969 8.44089
H -4.33951 -11.6962 7.12653
O -13.1253 -3.50722 12.6856
H -13.2981 -2.64479 12.2098
H -13.3487 -4.27193 12.0812
O -0.299765 -6.71333 14.5459
H -1.15543 -6.8099 -14.6506
H 0.0312377 -5.77309 14.626
O -9.30518 10.0678 3.66898
H -8.5678 9.39586 3.73778
H -10.187 9.60615 3.76556
O 8.28887 -6.76531 10.7062
H 8.36962 -7.75684 10.8081
H 9.20166 -6.36018 10.6539
O 2.23831 -1.24801 -13.3296
H 2.5253 -0.866145 -14.2081
H 2.73232 -2.10067 -13.1594
O 3.06011 13.4131 14.1567
H 3.72468 12.9684 13.5562
H 2.14126 13.0844 13.9383
O 10.7882 -5.57245 -0.739976
H 11.6459 -5.73526 -1.22774
H 10.5899 -6.3516 -0.14533
O -11.8443 -14.2297 -7.8382
H -12.4201 -14.0248 -8.62972
H -12.0107 -13.5531 -7.12089
O 6.15003 5.82027 9.48859
H 6.69256 5.179 8.94595
H 6.49159 5.8338 10.4284
O -2.14748 11.8279 12.4619
H -2.42823 10.9443 12.0872
H -1.27859 11.7238 12.9459
O -7.93088 12.5486 -3.24141
H -7.75193 12.5573 -4.22525
H -7.07159 12.6728 -2.74522
O -5.67555 1.00159 -5.96501
H -6.17662 1.48656 -6.68178
H -4.81521 0.653206 -6.33713
O 8.5596 -2.92757 8.65373
H 9.46452 -2.72734 8.27815
H 8.25114 -3.81932 8.3226
O 9.1187 -14.4336 2.23407
H 10.0152 -14.3444 2.66796
H 8.42742 -14.6193 2.93242
O -9.99683 3.46506 -13.0801
H -10.4213 3.1021 -12.2505
H -9.35311 2.79321 -13.4465
O -0.946892 -4.02352 -2.79145
H -0.248041 -3.30829 -2.78303
H -1.33074 -4.10367 -3.71138
O -4.09119 6.46932 -14.4249
H -4.17474 7.37493 -14.009
H -5.0009 6.07053 -14.5407
O 1.33108 5.83224 -13.5347
H 0.369503 6.09077 -13.6273
H 1.81199 6.02558 -14.3899
O -13.373 1.66609 -4.87453
H -12.6295 1.36077 -5.46964
H -13.0791 2.47226 -4.36096
O -5.89685 -13.9387 9.51679
H -5.44602 -13.1464 9.92799
H -5.71097 -14.7516 10.0687
O 12.8548 8.99248 3.52675
H 12.9187 8.65793 4.46697
H 12.6277 8.23278 2.91737
O -10.0821 -4.77877 0.575421
H -9.31651 -4.88971 1.2092
H -9.95312 -3.94417 0.0398447
O -0.23247 -4.02921 -14.3303
H -0.69452 -4.41136 -13.53
H -0.342971 -3.03534 -14.336
O 2.53893 -4.43892 1.33379
H 2.47919 -3.80018 0.566667
H 2.85506 -3.95275 2.14849
O 0.738754 4.67515 4.81921
H 0.733723 4.66902 3.81923
H 1.51831 5.20991 5.14534
O 1.71973 9.47337 -13.8058
H 2.49427 8.84129 -13.8303
H 1.41782 9.59418 -12.8601
O -6.61573 7.6202 12.0542
H -6.6347 6.62616 12.1617
H -7.48837 7.93148 11.6779
O -3.73449 7.92926 -10.1621
H -3.38215 7.03662 -9.88086
H -3.03186 8.41668 -10.6805
O 8.42533 0.0137221 7.50399
H 8.79979 0.103979 8.42685
H 7.43405 -0.107075 7.55684
O 12.8926 -1.66772 -0.889264
H 13.6081 -1.06089 -1.23553
H 12.5142 -2.20208 -1.64508
O -12.4073 -12.6283 -5.84151
H -11.7525 -12.619 -5.08576
H -13.162 -13.2462 -5.621
O -11.906 -0.253368 9.21755
H -11.1795 0.329823 8.85422
H -12.0921 -0.00139075 10.1672
O -6.50656 -7.4026 8.37371
H -7.36031 -7.44524 7.85475
H -6.4913 -6.56656 8.92219
O 14.0546 10.8147 -2.92036
H 14.4839 9.9655 -2.61282
H 13.0643 10.7516 -2.79635
O 10.3178 -12.9617 -13.2207
H 10.0355 -13.9011 -13.0263
H 10.6686 -12.9058 -14.1555
O 12.6696 6.95388 -1.96097
H 11.713 7.08352 -2.22194
H 12.8389 5.98392 -1.78616
O 5.73619 1.59421 -0.0954646
H 6.7306 1.67824 -0.159689
H 5.43778 0.779229 -0.592248
O 8.39437 4.64377 -9.21112
H 8.17013 5.00629 -8.30651
H 9.23802 4.10965 -9.15641
O 1.3761 10.7419 9.46398
H 2.37294 10.8129 9.50021
H 1.09674 10.4334 8.55468
O -10.3702 -2.39468 -1.35481
H -10.1737 -1.77522 -0.594741
H -11.3479 -2.60388 -1.37015
O 11.0577 -14.3568 -7.4733
H 10.9304 -14.7317 -8.39158
H 10.2817 -13.7698 -7.24247
O -10.1369 13.0493 -1.51701
H -10.2233 12.1945 -1.00534
H -9.26664 13.0565 -2.00955
O -1.98417 9.86494 0.54335
H -1.81407 8.9271 0.845937
H -1.35246 10.0962 -0.196579
O -4.9857 12.1345 6.71696
H -5.65467 12.6718 7.23058
H -5.28482 12.0503 5.76645
O 6.93224 3.21963 -12.895
H 6.88068 2.23258 -12.743
H 6.69276 3.42365 -13.8442
O -11.7413 -3.87812 4.07184
H -11.7095 -4.69139 3.49079
H -12.6925 -3.59721 4.20018
O 4.13521 5.54243 0.670404
H 4.26362 5.80068 1.62793
H 4.00325 6.36551 0.117998
O 9.80272 12.2901 -0.813722
H 9.43533 13.2157 -0.722478
H 9.80451 11.8425 0.0805454
O -7.68598 -9.35672 -9.97191
H -8.18111 -10.1478 -10.3313
H -8.18393 -8.9781 -9.19169
O 10.9197 11.9158 11.1628
H 11.2901 12.0963 10.2516
H 11.6675 11.8817 11.8259
O 0.883165 5.3196 11.2786
H 1.75618 5.15451 10.8197
H 1.02391 5.94156 12.0489
O 0.0409904 10.4784 7.09968
H 0.150908 10.903 6.20096
H -0.8081 10.8002 7.5187
O 4.65634 -10.6462 11.1971
H 4.84951 -9.78553 10.7259
H 4.6086 -11.3886 10.5288
O -14.5248 5.36536 -4.33343
H -13.5886 5.02595 -4.2418
H -14.5059 6.34326 -4.54173
O 0.508374 -1.83955 -11.5249
H 0.758954 -1.6605 -12.4763
H 1.33759 -1.94753 -10.9765
O 9.01484 6.13716 -12.5051
H 8.36433 6.03526 -13.2578
H 8.70234 6.86121 -11.8902
O 3.45529 -1.51061 -2.48496
H 4.40226 -1.29884 -2.24323
H 3.4025 -2.44432 -2.83912
O 3.67361 8.01919 6.7504
H 4.35676 8.35424 6.1015
H 2.76449 8.07974 6.33823
O 8.96932 -6.93499 -8.65559
H 9.41393 -6.33839 -9.32374
H 8.00111 -7.03094 -8.88667
O 0.448266 -5.21145 2.83366
H 1.28779 -4.9782 2.34292
H 0.457531 -6.18393 3.06651
O -5.14814 -13.304 -10.0349
H -5.27268 -12.5471 -9.39333
H -4.48367 -13.9515 -9.66161
O 4.28552 0.651427 -4.52661
H 3.5502 0.0882052 -4.90361
H 4.70609 0.176664 -3.75347
O 1.89024 12.8947 1.14804
H 2.20035 13.0109 0.204457
H 2.33479 13.5747 1.73116
O -12.6687 -5.87996 -6.80056
H -12.678 -6.29944 -5.89282
H -12.923 -6.5625 -7.48576
O 8.12504 14.0876 9.10999
H 8.70783 14.7015 8.57756
H 8.52653 13.9486 10.0153
O 9.4773 -0.821954 -1.58001
H 9.41107 -1.21776 -2.49597
H 9.55483 -1.55546 -0.904747
O -13.9741 -14.6505 8.2728
H -14.485 -14.0469 8.88494
H -14.2229 -14.452 7.32482
O -5.18423 13.6482 -9.70541
H -5.74039 13.6863 -10.5356
H -5.72842 13.2696 -8.95674
O 11.8379 -14.5038 12.1033
H 12.5638 14.8389 12.688
H 10.9476 -14.7284 12.4994
O 1.57707 12.232 -9.00132
H 0.645678 12.4055 -8.68129
H 1.5573 11.5452 -9.72797
O 7.21659 -6.43568 -13.3497
H 7.11763 -7.22021 -12.7375
H 6.59518 -6.53851 -14.1264
O -7.42735 -10.5198 -6.43834
H -7.56538 -11.5067 -6.5218
H -7.29275 -10.2822 -5.47632
O -5.07669 0.379488 14.4094
H -4.25263 0.45242 13.8476
H -5.84915 0.787414 13.9227
O 8.12549 12.151 11.2843
H 9.12399 12.1894 11.2449
H 7.82753 11.1966 11.2645
O -10.6329 -9.25333 -11.6009
H -10.1102 -8.44967 -11.8855
H -10.9649 -9.12143 -10.6669
O 1.65746 -13.6088 7.74083
H 1.81258 -14.5959 7.78186
H 0.801777 -13.3862 8.20803
O -9.22317 -2.30764 -5.63769
H -8.35389 -2.22512 -5.15027
H -9.42468 -1.44824 -6.10766
O -10.1268 10.3902 13.43
H -9.3936 10.7221 12.8365
H -10.4775 11.147 13.9817
O 7.93212 -2.82533 -3.51452
H 7.75644 -3.19955 -2.60396
H 7.06924 -2.74293 -4.0132
O -10.9899 -13.5204 7.13765
H -11.1306 -12.5303 7.14595
H -11.6253 -13.9527 7.7775
O 4.57036 8.21611 9.41628
H 4.3476 8.2717 8.44297
H 4.95826 7.31687 9.6186
O -12.5956 10.2566 -1.77512
H -12.7811 9.39522 -1.30221
H -13.2375 10.9553 -1.45903
O -7.27603 -4.94324 0.216557
H -6.30584 -5.16647 0.311107
H -7.46366 -4.66442 -0.725295
O 13.3421 12.2746 -13.8027
H 14.1331 12.8416 -14.0326
H 13.0338 12.4923 -12.8766
O 5.83139 12.155 2.15913
H 6.13341 11.3736 2.7053
H 6.24555 12.1063 1.25021
O -13.1013 -1.19768 -6.92744
H -14.0611 -1.00567 -7.13221
H -12.7522 -1.87696 -7.57299
O -9.09874 8.22192 10.9752
H -10.0349 8.57218 11.0066
H -8.69626 8.42603 10.0828
O 5.69401 11.5685 -10.8243
H 5.42156 12.0593 -11.652
H 4.9964 10.8899 -10.5943
O -5.84982 4.88973 12.0473
H -5.37977 4.66691 12.9013
H -5.1783 4.98616 11.3126
O -4.08259 8.97161 13.08
H -4.71958 9.71446 13.286
H -4.59672 8.13759 12.8797
O 10.8626 2.56266 -9.4837
H 11.695 2.51972 -10.0361
H 11.0394 3.09405 -8.65521
O -7.2593 -7.17034 -13.9256
H -6.6853 -7.28385 -13.1146
H -8.0958 -6.68236 -13.6762
O -1.34751 13.8124 4.24247
H -1.37373 14.1076 3.28738
H -1.92162 14.4173 4.79422
O -11.9373 -9.44593 13.2419
H -11.5083 -10.1013 12.6202
H -11.7467 -9.70951 14.1875
O 8.69712 3.43117 1.21675
H 8.52011 2.67813 0.583014
H 8.54221 4.30234 0.750802
O 2.49388 9.07787 -7.89454
H 1.66675 8.87604 -8.41909
H 2.85784 8.23084 -7.50709
O -11.318 -6.9083 14.3187
H -10.61 -6.53574 13.7187
H -11.7905 -7.65614 13.8523
O -4.6507 5.75593 -0.9026
H -4.2189 6.32025 -1.60625
H -5.63239 5.94511 -0.879603
O 13.9605 -2.7124 7.24885
H 13.9451 -2.99712 6.29034
H -14.8037 -2.5111 7.52166
O 7.05027 5.29743 12.697
H 7.77923 4.74583 13.1025
H 6.75654 5.9944 13.3512
O 2.96141 6.32073 -11.4016
H 2.37655 5.98365 -12.1394
H 3.79767 5.77375 -11.3629
O -7.28636 1.56262 -3.71665
H -8.17589 1.14569 -3.90353
H -6.68829 1.4412 -4.50887
O -4.94501 -6.49607 -2.12103
H -5.3528 -7.38767 -2.31797
H -5.40936 -5.79135 -2.65747
O 10.9341 -7.39583 12.294
H 11.4314 -6.55873 12.0659
H 10.2307 -7.19071 12.9745
O -13.6421 10.4843 -12.676
H -14.1727 11.1442 -12.144
H -12.7905 10.276 -12.1948
O 14.1963 11.5731 3.92003
H 14.1163 10.5869 3.7752
H 13.5672 12.0521 3.30778
O 4.83627 -9.30525 -4.47265
H 4.77246 -8.58325 -5.16161
H 3.98993 -9.83792 -4.46868
O 6.25596 12.9026 -0.579783
H 5.59727 13.6253 -0.370431
H 7.17457 13.2941 -0.633421
O 14.4949 14.4926 2.90266
H 13.529 14.3576 3.12367
H 14.6348 -14.2773 2.57686
O -5.84111 -10.3136 -13.9271
H -6.01427 -9.66694 -13.1842
H -6.55085 -10.2175 -14.6249
O 10.0103 -9.36755 2.98844
H 10.62 -10.1038 3.28208
H 9.12874 -9.75341 2.71643
O 0.918081 9.08695 12.9175
H 0.707937 8.74775 13.8344
H 0.0693437 9.19727 12.4002
O -5.9525 -13.0366 14.351
H -5.09817 -13.3096 13.9087
H -5.74725 -12.5151 -14.5257
O -9.25755 7.23184 -0.254399
H -8.54291 7.34625 0.435689
H -8.92299 6.63692 -0.985263
O 1.39541 4.51269 -9.25138
H 0.682352 4.02738 -9.75739
H 2.15367 4.72732 -9.86702
O 8.98139 -9.43045 11.8318
H 8.4575 -9.41608 12.6835
H 9.78303 -8.8397 11.9236
O 11.1715 -8.15496 0.367887
H 10.4288 -8.49185 0.946615
H 11.3841 -8.83671 -0.332167
O -1.28127 -3.66964 4.40406
H -0.795272 -4.39309 3.9137
H -2.12292 -4.04044 4.7967
O -9.58403 1.35534 9.13549
H -8.67341 1.42946 8.72893
H -9.50712 1.38067 10.1322
O 14.5405 -3.44667 0.265304
H 14.4443 -3.56269 1.2539
H 13.7446 -2.95798 -0.0919646
O 12.2401 6.70177 -10.7243
H 11.7855 5.90299 -11.1184
H 13.1103 6.42325 -10.3178
O -8.47027 -8.1071 11.5702
H -7.76259 -7.47973 11.2452
H -8.09373 -8.6902 12.2901
O -9.6123 8.27806 -12.2651
H -9.09997 8.28092 -13.1239
H -9.04514 7.88759 -11.5399
O -0.0890646 3.34874 13.7564
H -0.399306 3.91991 14.5164
H -0.850401 3.18707 13.1285
O -3.60596 -4.6633 5.1318
H -4.32613 -4.18634 4.6279
H -3.97425 -5.00458 5.99662
O 2.77574 5.59807 6.19711
H 3.28665 6.41163 6.47481
H 3.30795 4.77987 6.41467
O 5.12364 11.9824 6.56408
H 4.55479 12.1897 5.76817
H 5.79342 12.7134 6.69459
O -7.1247 -9.79015 -3.74076
H -7.57517 -10.4825 -3.17704
H -7.1785 -8.90202 -3.28429
O 1.05109 -7.72456 -5.12965
H 0.221159 -8.19751 -5.42554
H 0.965908 -7.47358 -4.1654
O -11.2973 10.3508 -11.2212
H -11.3768 10.5871 -10.2527
H -10.5113 9.74697 -11.3536
O 8.15864 -6.22209 -2.08254
H 9.01142 -5.82571 -1.74242
H 7.94889 -5.83961 -2.9824
O 4.47189 -0.135495 2.09826
H 4.4767 0.390588 2.9487
H 4.90233 0.40074 1.37217
O 9.82954 -6.55439 2.7871
H 10.4289 -6.12493 3.46263
H 9.71921 -7.52351 3.00768
O 8.47079 12.3613 3.8286
H 8.10429 13.2811 3.96898
H 9.26273 12.2236 4.4235
O -7.69892 -2.0203 8.02584
H -7.4049 -1.1207 7.70289
H -8.58418 -1.93719 8.4835
O -11.9835 5.37073 14.6768
H -12.0382 5.56038 -14.0478
H -11.3349 6.00162 14.251
O -3.65978 -8.2107 -5.05513
H -4.48553 -8.29184 -4.49693
H -3.88289 -7.75295 -5.91578
O -0.678583 9.71363 -7.45943
H -0.0165962 10.2425 -6.92825
H -0.769827 8.79986 -7.06352
O 12.9482 -5.91063 -2.54225
H 12.7463 -6.55761 -3.27758
H 13.8004 -6.17469 -2.09053
O -8.04747 -3.95528 -14.388
H -8.91624 -3.49628 -14.5739
H -7.33282 -3.5636 14.7374
O 8.64801 -2.18094 -11.1496
H 8.39929 -2.69677 -11.9694
H 7.83126 -2.0229 -10.5946
O -10.0656 6.34577 12.8076
H -9.36058 6.86215 12.3215
H -10.4581 5.6596 12.1952
O -13.2724 3.31961 3.25809
H -13.9229 3.83551 2.70064
H -12.379 3.76792 3.22844
O 8.69135 -3.18644 3.41183
H 8.13237 -2.38958 3.64115
H 9.56081 -3.13627 3.90331
O -1.3773 8.56147 9.18613
H -1.39836 7.56236 9.22306
H -0.525247 8.86126 8.75698
O 5.6966 -10.3215 -9.33541
H 5.9218 -10.2419 -8.36434
H 5.602 -11.2871 -9.5776
O 10.1829 -3.0844 -4.86978
H 9.32157 -3.28521 -4.40302
H 10.031 -3.07054 -5.85811
O -13.4344 3.40181 9.94509
H -13.6299 4.38217 9.91826
H -12.964 3.17898 10.799
O 4.76423 14.3345 -5.87432
H 4.3479 13.6551 -6.47856
H 5.73907 14.4132 -6.08292
O 3.38731 4.84236 9.75523
H 2.78271 4.20933 9.27173
H 4.16506 5.07278 9.17038
O 4.77473 -12.4059 -5.57332
H 3.9349 -11.935 -5.30331
H 4.54622 -13.2992 -5.96047
O 11.8646 -9.59864 -8.68369
H 12.4767 -8.85565 -8.41294
H 11.3101 -9.87628 -7.89919
O 3.89075 -5.75255 6.09774
H 4.2985 -5.33432 5.28604
H 2.90584 -5.85716 5.95974
O -6.60336 -1.35574 -4.84873
H -6.14204 -1.54533 -3.98197
H -6.41468 -0.414158 -5.12776
O -12.2908 14.5897 -1.32505
H -11.5449 13.925 -1.28335
H -13.1609 14.1082 -1.43064
O -4.74633 -6.08817 14.1251
H -5.60329 -6.01459 14.6353
H -4.29463 -5.19629 14.1019
O -1.6347 9.04833 11.882
H -1.58844 8.91258 10.8923
H -2.53424 8.76608 12.2154
O 14.0339 -8.73113 14.5755
H 14.5298 -7.88359 14.7648
H 13.7071 -8.72214 13.6305
O 4.26221 -4.02249 -7.73109
H 4.35471 -4.43886 -6.8266
H 3.63108 -4.5655 -8.28503
O 14.5526 5.41901 10.89
H 13.7395 4.86343 10.7165
H 14.6402 5.58393 11.8725
O 8.10783 0.794134 0.289887
H 8.56199 0.436012 1.10568
H 8.41363 0.282929 -0.513348
O 14.8076 -5.06606 -10.4451
H -14.6583 -4.14224 -10.146
H 14.2205 -5.01342 -11.253
O 8.7674 7.30318 -9.65348
H 8.57499 6.32694 -9.55364
H 9.71764 7.48333 -9.39929
O -10.4507 -10.4973 -14.0987
H -10.5753 -10.3758 -13.1139
H -10.3328 -11.4692 -14.3023
O 13.3151 -4.48123 9.1169
H 13.5377 -3.76513 8.45533
H 13.866 -4.35573 9.94195
O -3.14901 4.15938 4.55623
H -3.24688 4.53931 5.47607
H -3.96548 3.63001 4.32564
O 3.64034 9.2607 12.9078
H 2.64481 9.16613 12.9095
H 4.01687 8.80667 12.1003
O 11.9874 3.19348 10.7744
H 11.813 3.95555 11.398
H 11.4972 3.34613 9.91629
O -8.51994 3.43666 2.12293
H -7.67011 3.96136 2.17296
H -8.56512 2.95818 1.24598
O -5.93654 4.77878 7.55421
H -5.94787 5.71937 7.8936
H -5.8743 4.78528 6.55615
O -2.70956 12.2343 -3.61564
H -2.01901 11.8464 -3.00519
H -3.25174 11.4963 -4.01739
O -2.62859 2.32745 -14.7118
H -2.66313 1.33375 -14.8186
H -2.55773 2.75717 14.0929
O 9.82423 -0.400327 -6.14665
H 9.49108 -0.864148 -5.32573
H 9.15586 -0.505023 -6.88309
O -6.94664 -1.02239 0.0921336
H -7.74962 -0.469486 -0.13047
H -7.17876 -1.67026 0.817679
O -13.196 -2.46998 8.2878
H -12.6085 -1.70602 8.55453
H -12.6291 -3.25358 8.03362
O -7.2383 2.2949 7.82261
H -6.71059 3.09998 7.5517
H -7.39052 1.71206 7.02439
O 14.8225 -0.284939 -2.14998
H -14.1455 -0.462143 -2.80232
H -14.8014 0.648682 -1.80098
O 7.25347 1.0221 5.14791
H 7.70664 0.72059 5.98681
H 7.11371 0.237363 4.54403
O 11.9816 10.732 1.53026
H 12.4124 9.92409 1.93239
H 12.5741 11.1052 0.816379
O -6.11692 4.80372 -14.6253
H -7.09876 4.87115 -14.4478
H -5.63492 4.62278 -13.768
O 7.14128 0.471734 -12.627
H 6.1423 0.428886 -12.6122
H 7.49016 0.440001 -11.6904
O 5.67713 11.8785 -3.08527
H 5.86749 12.4935 -3.85054
H 5.917 12.3311 -2.22638
O -7.38175 2.86656 -7.37595
H -7.84076 3.66174 -6.97967
H -7.99348 2.41953 -8.02863
O -4.7622 1.77368 4.23237
H -5.48335 2.39267 4.54353
H -5.16296 1.05206 3.66786
O -4.15437 -14.6115 -6.91565
H -3.5701 14.5361 -7.50555
H -4.68144 14.4977 -6.30964
O -7.34301 7.27696 -5.63187
H -7.40292 8.09088 -6.20978
H -6.40346 7.16686 -5.30758
O 0.837785 -5.88822 -11.6216
H 0.586663 -6.84159 -11.4541
H 1.58009 -5.62578 -11.0051
O 2.5443 -4.65577 -13.9828
H 2.68102 -5.64472 -14.0404
H 1.63383 -4.46603 -13.6152
O 2.99289 1.79258 10.3327
H 3.77678 2.16243 9.83398
H 2.87248 0.8283 10.0968
O 3.1358 -7.52068 -14.6434
H 4.10955 -7.33341 -14.7729
H 2.79769 -8.07063 14.2979
O -2.3879 -10.0311 4.45543
H -1.53988 -10.3196 4.90003
H -2.42876 -9.03218 4.43179
O -2.18298 3.81993 1.91921
H -2.4506 3.78677 2.88218
H -1.21013 3.60388 1.836
O -9.40095 -8.73357 -7.58537
H -8.58967 -9.10173 -7.13114
H -10.2196 -9.16601 -7.20751
O 8.60753 -12.5848 -7.29712
H 7.75478 -12.07 -7.20876
H 9.20309 -12.1319 -7.96061
O -8.28342 14.7452 3.56366
H -8.21174 14.5047 2.59565
H -7.97506 13.9752 4.12218
O 11.1744 -6.20871 5.43195
H 10.6065 -6.56547 6.17368
H 11.7623 -6.93805 5.08192
O 8.88597 8.40465 -5.25775
H 9.08955 8.96218 -6.06258
H 8.02159 8.70481 -4.8543
O -9.62945 -4.09471 -7.83461
H -8.81896 -4.04504 -8.41828
H -9.39222 -3.79975 -6.909
O 3.5963 0.608064 -9.12776
H 3.20483 1.30041 -8.52159
H 4.5438 0.847741 -9.33949
O 11.2489 0.762522 6.08811
H 11.9815 0.628306 6.75544
H 10.4057 0.348545 6.43106
O -8.8316 3.63892 5.14171
H -9.16704 3.28832 4.2673
H -9.49573 3.43274 5.86036
O 8.09844 -11.4042 -12.3828
H 9.00357 -11.7765 -12.5882
H 7.41309 -12.1273 -12.4696
O 11.3531 -11.4758 4.098
H 10.6586 -12.1108 4.43618
H 11.733 -11.823 3.24055
O 9.40328 2.5996 -6.25609
H 8.53301 2.7984 -6.7068
H 9.69747 1.67367 -6.493
O 9.5928 9.21119 10.2505
H 10.1532 8.45262 9.91809
H 10.1797 9.99471 10.4547
O -9.69814 5.48375 -8.85056
H -9.30274 5.49691 -9.76899
H -10.012 6.40216 -8.6096
O -9.10242 1.89189 -9.36155
H -8.30264 1.6526 -9.91212
H -9.87807 2.07924 -9.96429
O 14.5871 -5.295 3.67733
H -14.2434 -5.56644 3.27526
H 13.8408 -5.74609 3.1878
O -7.61348 -13.5761 7.46883
H -6.92492 -13.5931 8.19383
H -8.12498 -14.4354 7.47472
O -0.434986 -7.69696 -8.54264
H -0.463989 -8.16637 -7.66012
H -0.418846 -8.37296 -9.27938
O 1.28508 8.42383 5.47326
H 1.08091 9.17411 6.1021
H 0.452575 7.89715 5.30129
O 0.575735 -10.7168 0.058006
H 1.41191 -10.1758 0.148302
H -0.12073 -10.3604 0.680878
O 3.62205 0.722556 7.34725
H 2.96689 0.115419 7.79691
H 4.51952 0.621024 7.77651
O 13.2286 -1.93836 -12.259
H 13.557 -1.53745 -13.1142
H 12.3919 -1.47196 -11.9719
O 9.94675 12.2164 -4.36141
H 10.3882 11.5541 -3.75599
H 9.54331 11.7378 -5.14131
O -12.4575 5.14759 -9.56176
H -12.9068 5.19995 -8.66989
H -11.4935 5.39494 -9.46439
O 6.83782 9.44524 5.74258
H 6.32854 10.2368 5.4047
H 7.37561 9.71161 6.54249
O 4.13984 9.05422 2.31162
H 3.15827 8.92874 2.1674
H 4.41471 8.59163 3.15453
O -1.41442 7.06673 -7.20531
H -2.06569 6.58282 -7.78987
H -1.24749 6.53098 -6.37758
O 7.44707 -5.29209 2.21915
H 8.23854 -5.88719 2.07963
H 7.71497 -4.50642 2.77681
O -13.3731 4.54579 5.86707
H -12.941 3.8371 6.42479
H -13.4008 4.24824 4.91274
O -2.56559 -14.2024 5.94964
H -2.48783 -14.6667 6.83188
H -3.42748 -13.6965 5.91406
O 3.35965 -2.51598 7.00716
H 4.27474 -2.53201 6.60419
H 2.68391 -2.33481 6.29261
O -1.16075 6.84415 -13.7894
H -1.94222 6.38898 -14.2162
H -1.16921 7.81513 -14.0284
O 13.6569 -8.70446 -10.849
H 13.6001 -7.7156 -10.7113
H 14.6056 -8.9613 -11.0339
O 0.988439 -5.40021 -8.34824
H 0.720166 -6.19747 -7.80746
H 0.597589 -4.57458 -7.9413
O 2.71753 4.81914 -2.35215
H 2.8858 5.64778 -2.88608
H 3.59014 4.42927 -2.05792
O -10.8573 -4.04858 10.4164
H -10.5998 -4.59824 11.2112
H -11.5615 -4.52851 9.89326
O 2.94644 -9.62622 -9.85355
H 2.76554 -9.47385 -10.8252
H 3.93379 -9.63021 -9.69496
O 11.0369 4.36179 -7.26354
H 10.3536 3.76029 -6.84972
H 11.0407 5.24034 -6.78587
O -4.22161 1.56053 -3.1209
H -4.36988 0.571571 -3.12368
H -3.92127 1.84999 -2.21203
O -12.7743 11.8838 3.15089
H -12.3386 12.308 3.94476
H -13.7666 11.8856 3.27473
O 11.6761 7.61811 0.795579
H 11.2799 6.71706 0.972302
H 12.1688 7.60079 -0.0744389
O 10.0539 -12.3438 13.6369
H 10.368 -11.6419 12.9976
H 9.05744 -12.4148 13.5906
O -6.20079 7.18501 -11.3538
H -5.95408 7.69883 -12.1754
H -5.44391 7.21679 -10.701
O -8.63263 1.36696 0.0344153
H -7.75423 1.63525 -0.361134
H -9.37453 1.80463 -0.473584
O -6.83101 8.92901 -7.54229
H -7.31936 9.06901 -8.40365
H -6.48586 9.80619 -7.20843
O -3.40624 -3.48138 13.6186
H -2.50562 -3.42668 13.1874
H -3.30458 -3.42109 14.6116
O 7.97082 -5.55836 -4.72968
H 8.75296 -5.89304 -5.2553
H 7.24112 -5.28402 -5.35602
O -4.37688 7.39937 -6.731
H -3.77275 8.18834 -6.6188
H -5.20984 7.68233 -7.20653
O 8.97371 3.61509 14.2627
H 9.97349 3.63449 14.2531
H 8.64638 3.76664 -14.5096
O -2.20847 1.57107 -7.23045
H -2.62211 0.665252 -7.13868
H -1.48427 1.53855 -7.9193
O 5.11445 -4.66873 4.03022
H 5.75164 -5.18593 3.4588
H 4.69079 -3.94473 3.48583
O 13.5496 9.52118 -14.4789
H 14.3836 9.00869 -14.2744
H 13.6225 10.4426 -14.0972
O -7.19358 7.33792 1.41049
H -6.55333 7.97923 0.987603
H -7.38383 7.62682 2.34877
O -11.9776 -3.17315 -11.291
H -11.9595 -3.98073 -11.8805
H -12.5467 -3.3581 -10.4898
O 0.802128 -14.1205 5.13636
H 0.10794 -14.8154 4.94847
H 1.62437 -14.56 5.49797
O 3.42592 3.53441 -4.9852
H 3.05124 3.99476 -4.18039
H 3.63683 2.5838 -4.75742
O 4.43437 -1.19307 12.0315
H 5.1185 -1.28248 11.3076
H 3.65428 -1.78468 11.8278
O -3.38898 -8.2435 -7.86806
H -2.3935 -8.15016 -7.85016
H -3.64418 -9.15484 -7.545
O -5.83625 -7.70333 1.22122
H -4.86337 -7.48282 1.15112
H -6.15803 -7.5012 2.14623
O -4.92259 -10.4488 5.25095
H -3.93126 -10.402 5.12803
H -5.36838 -9.83218 4.602
O 6.38367 -10.6912 4.61487
H 6.75451 -9.79932 4.35602
H 7.11303 -11.375 4.59153