LAMMPS Description

       327 atoms
       271 bonds
       386 angles
        27 dihedrals
       224 impropers

        10 atom types
         7 bond types
         9 angle types
         2 dihedral types
         7 improper types

# Cell: 16.804566 16.804566 16.804566 90.0000 90.0000 90.0000
    0.000000    16.804566 xlo xhi
    0.000000    16.804566 ylo yhi
    0.000000    16.804566 zlo zhi

Masses

         1 12.01115	# c0x
         2 12.01115	# c3
         3 12.01115	# ct
         4 18.99840	# ff
         5 1.00797	# hc
         6 6.94000	# Li+
         7 14.00670	# nt
         8 15.99940	# o
         9 15.99940	# o=
        10 32.06400	# sf

Atoms

1 1 2 -0.03080000 10.676913 11.929356 6.408096 0 0 0	# C1	c3
2 1 3 0.34180000 10.445466 11.356284 4.996133 0 0 0	# C2	ct
3 1 7 -0.47000000 10.267080 10.913891 3.908296 0 0 0	# N	nt
4 1 5 0.05300000 11.708616 12.256333 6.500988 0 0 0	# H1	hc
5 1 5 0.05300000 10.470930 11.157831 7.151171 0 0 0	# H2	hc
6 1 5 0.05300000 10.013221 12.778876 6.572217 0 0 0	# H3	hc
7 2 2 -0.03080000 3.505132 14.190250 14.031474 0 0 0	# C1	c3
8 2 3 0.34180000 3.159048 15.354889 13.115364 0 0 0	# C2	ct
9 2 7 -0.47000000 2.883036 16.253386 12.413912 0 0 0	# N	nt
10 2 5 0.05300000 3.095894 13.267395 13.615792 0 0 0	# H1	hc
11 2 5 0.05300000 3.072347 14.376216 15.006484 0 0 0	# H2	hc
12 2 5 0.05300000 4.587965 14.101020 14.123326 0 0 0	# H3	hc
13 3 2 -0.03080000 10.058164 10.423030 14.775619 0 0 0	# C1	c3
14 3 3 0.34180000 11.452818 11.071973 14.709037 0 0 0	# C2	ct
15 3 7 -0.47000000 12.529158 11.572576 14.657502 0 0 0	# N	nt
16 3 5 0.05300000 9.312836 11.187116 14.994124 0 0 0	# H1	hc
17 3 5 0.05300000 10.045340 9.667632 15.561369 0 0 0	# H2	hc
18 3 5 0.05300000 9.828580 9.954972 13.818746 0 0 0	# H3	hc
19 4 2 -0.03080000 6.618509 8.374755 10.444000 0 0 0	# C1	c3
20 4 3 0.34180000 5.362028 8.355881 9.557230 0 0 0	# C2	ct
21 4 7 -0.47000000 4.392707 8.340502 8.874236 0 0 0	# N	nt
22 4 5 0.05300000 6.347362 8.690401 11.450832 0 0 0	# H1	hc
23 4 5 0.05300000 7.346716 9.070936 10.028764 0 0 0	# H2	hc
24 4 5 0.05300000 7.051253 7.376055 10.480913 0 0 0	# H3	hc
25 5 2 -0.03080000 0.724775 0.052695 10.659995 0 0 0	# C1	c3
26 5 3 0.34180000 1.598904 1.317532 10.614072 0 0 0	# C2	ct
27 5 7 -0.47000000 2.273513 2.293121 10.578086 0 0 0	# N	nt
28 5 5 0.05300000 1.360645 15.975588 10.605110 0 -1 0	# H1	hc
29 5 5 0.05300000 0.035850 0.057047 9.816032 0 0 0	# H2	hc
30 5 5 0.05300000 0.158662 0.034443 11.591133 0 0 0	# H3	hc
31 6 2 -0.03080000 15.819425 6.843280 8.562583 0 0 0	# C1	c3
32 6 3 0.34180000 15.464595 5.361293 8.438965 0 0 0	# C2	ct
33 6 7 -0.47000000 15.190971 4.216257 8.339565 0 0 0	# N	nt
34 6 5 0.05300000 15.231293 7.296015 9.360851 0 0 0	# H1	hc
35 6 5 0.05300000 15.596435 7.342762 7.619173 0 0 0	# H2	hc
36 6 5 0.05300000 0.080333 6.943589 8.792075 1 0 0	# H3	hc
37 7 2 -0.03080000 15.882406 14.377231 4.885229 0 0 0	# C1	c3
38 7 3 0.34180000 16.145305 13.343878 5.994771 0 0 0	# C2	ct
39 7 7 -0.47000000 16.344594 12.549941 6.855656 0 0 0	# N	nt
40 7 5 0.05300000 14.892376 14.808897 5.023626 0 0 0	# H1	hc
41 7 5 0.05300000 15.933791 13.890635 3.910695 0 0 0	# H2	hc
42 7 5 0.05300000 16.633110 15.166049 4.937896 0 0 0	# H3	hc
43 8 2 -0.03080000 9.028812 3.885246 7.486444 0 0 0	# C1	c3
44 8 3 0.34180000 9.252499 4.772310 6.249385 0 0 0	# C2	ct
45 8 7 -0.47000000 9.425326 5.456908 5.295442 0 0 0	# N	nt
46 8 5 0.05300000 9.218151 2.844090 7.226722 0 0 0	# H1	hc
47 8 5 0.05300000 7.999430 3.992725 7.829767 0 0 0	# H2	hc
48 8 5 0.05300000 9.710347 4.190785 8.279181 0 0 0	# H3	hc
49 9 2 -0.03080000 10.898898 2.586956 0.980768 0 0 0	# C1	c3
50 9 3 0.34180000 9.881767 1.471047 1.282588 0 0 0	# C2	ct
51 9 7 -0.47000000 9.097337 0.610482 1.515389 0 0 0	# N	nt
52 9 5 0.05300000 11.883743 2.148219 0.823098 0 0 0	# H1	hc
53 9 5 0.05300000 10.939959 3.278654 1.822082 0 0 0	# H2	hc
54 9 5 0.05300000 10.593275 3.124330 0.083485 0 0 0	# H3	hc
55 10 2 -0.03080000 7.964907 11.740048 5.621528 0 0 0	# C1	c3
56 10 3 0.34180000 7.795861 12.291880 4.195317 0 0 0	# C2	ct
57 10 7 -0.47000000 7.665626 12.717976 3.095257 0 0 0	# N	nt
58 10 5 0.05300000 8.979605 11.915402 5.958217 0 0 0	# H1	hc
59 10 5 0.05300000 7.762877 10.669907 5.624949 0 0 0	# H2	hc
60 10 5 0.05300000 7.269348 12.243563 6.290414 0 0 0	# H3	hc
61 11 2 -0.03080000 13.905708 7.061546 11.845946 0 0 0	# C1	c3
62 11 3 0.34180000 12.741590 7.203477 12.842337 0 0 0	# C2	ct
63 11 7 -0.47000000 11.844667 7.314299 13.611979 0 0 0	# N	nt
64 11 5 0.05300000 13.933400 6.043018 11.461612 0 0 0	# H1	hc
65 11 5 0.05300000 14.843808 7.283647 12.351904 0 0 0	# H2	hc
66 11 5 0.05300000 13.764349 7.758188 11.019079 0 0 0	# H3	hc
67 12 2 -0.03080000 15.067366 7.304369 5.767669 0 0 0	# C1	c3
68 12 3 0.34180000 13.686792 6.626013 5.716607 0 0 0	# C2	ct
69 12 7 -0.47000000 12.621873 6.102938 5.677345 0 0 0	# N	nt
70 12 5 0.05300000 15.366830 7.595708 4.763093 0 0 0	# H1	hc
71 12 5 0.05300000 15.799902 6.607562 6.177158 0 0 0	# H2	hc
72 12 5 0.05300000 15.013243 8.189980 6.400061 0 0 0	# H3	hc
73 13 2 -0.03080000 7.952491 3.504490 12.929779 0 0 0	# C1	c3
74 13 3 0.34180000 8.412255 2.034914 12.882813 0 0 0	# C2	ct
75 13 7 -0.47000000 8.766741 0.901941 12.847095 0 0 0	# N	nt
76 13 5 0.05300000 8.819456 4.153379 13.069376 0 0 0	# H1	hc
77 13 5 0.05300000 7.261134 3.640490 13.756514 0 0 0	# H2	hc
78 13 5 0.05300000 7.451359 3.759637 11.996798 0 0 0	# H3	hc
79 14 2 -0.03080000 1.271387 5.604667 16.413671 0 0 0	# C1	c3
80 14 3 0.34180000 16.790467 6.418398 16.577110 -1 0 0	# C2	ct
81 14 7 -0.47000000 15.794037 7.044213 16.696991 -1 0 0	# N	nt
82 14 5 0.05300000 1.371324 4.902956 0.435035 0 0 1	# H1	hc
83 14 5 0.05300000 2.135430 6.277179 16.400251 0 0 0	# H2	hc
84 14 5 0.05300000 1.217901 5.058014 15.482660 0 0 0	# H3	hc
85 15 2 -0.03080000 10.021276 15.154606 4.466310 0 0 0	# C1	c3
86 15 3 0.34180000 8.787760 16.034477 4.739314 0 0 0	# C2	ct
87 15 7 -0.47000000 7.836405 16.712997 4.949919 0 0 0	# N	nt
88 15 5 0.05300000 10.360676 15.311773 3.442625 0 0 0	# H1	hc
89 15 5 0.05300000 9.757703 14.106767 4.604176 0 0 0	# H2	hc
90 15 5 0.05300000 10.819134 15.422326 5.158767 0 0 0	# H3	hc
91 16 2 -0.03080000 3.609397 5.056744 12.097574 0 0 0	# C1	c3
92 16 3 0.34180000 4.979479 5.587835 11.649811 0 0 0	# C2	ct
93 16 7 -0.47000000 6.036353 5.998994 11.305432 0 0 0	# N	nt
94 16 5 0.05300000 2.909338 5.105461 11.266272 0 0 0	# H1	hc
95 16 5 0.05300000 3.238486 5.666528 12.915500 0 0 0	# H2	hc
96 16 5 0.05300000 3.710441 4.021413 12.428495 0 0 0	# H3	hc
97 17 2 -0.03080000 8.295291 5.364830 2.090530 0 0 0	# C1	c3
98 17 3 0.34180000 7.403628 6.312127 2.913003 0 0 0	# C2	ct
99 17 7 -0.47000000 6.716198 7.042922 3.547317 0 0 0	# N	nt
100 17 5 0.05300000 9.185429 5.899045 1.760606 0 0 0	# H1	hc
101 17 5 0.05300000 7.743582 5.009738 1.221916 0 0 0	# H2	hc
102 17 5 0.05300000 8.588895 4.514840 2.707029 0 0 0	# H3	hc
103 18 2 -0.03080000 15.845462 9.330817 12.170551 0 0 0	# C1	c3
104 18 3 0.34180000 16.238598 7.950098 11.620362 0 0 0	# C2	ct
105 18 7 -0.47000000 16.538699 6.883257 11.196429 0 0 0	# N	nt
106 18 5 0.05300000 14.764768 9.395202 12.235841 0 0 0	# H1	hc
107 18 5 0.05300000 16.217801 10.109355 11.503549 0 0 0	# H2	hc
108 18 5 0.05300000 16.275914 9.465051 13.161263 0 0 0	# H3	hc
109 19 2 -0.03080000 5.607746 15.784142 0.685790 0 0 0	# C1	c3
110 19 3 0.34180000 5.605981 14.357325 0.114510 0 0 0	# C2	ct
111 19 7 -0.47000000 5.606880 13.257492 16.478093 0 0 -1	# N	nt
112 19 5 0.05300000 6.257165 15.823909 1.559452 0 0 0	# H1	hc
113 19 5 0.05300000 4.593757 16.062935 0.973610 0 0 0	# H2	hc
114 19 5 0.05300000 5.974485 16.476809 16.733267 0 0 -1	# H3	hc
115 20 2 -0.03080000 14.639295 2.752219 4.388755 0 0 0	# C1	c3
116 20 3 0.34180000 13.936173 2.954695 5.744302 0 0 0	# C2	ct
117 20 7 -0.47000000 13.394127 3.110643 6.789544 0 0 0	# N	nt
118 20 5 0.05300000 14.909167 3.721473 3.970876 0 0 0	# H1	hc
119 20 5 0.05300000 13.966972 2.236344 3.703604 0 0 0	# H2	hc
120 20 5 0.05300000 15.539645 2.155157 4.532027 0 0 0	# H3	hc
121 21 2 -0.03080000 9.056788 3.861769 10.291981 0 0 0	# C1	c3
122 21 3 0.34180000 8.890539 5.198761 9.548274 0 0 0	# C2	ct
123 21 7 -0.47000000 8.762145 6.229772 8.974656 0 0 0	# N	nt
124 21 5 0.05300000 10.109541 3.587055 10.314054 0 0 0	# H1	hc
125 21 5 0.05300000 8.487998 3.084912 9.779237 0 0 0	# H2	hc
126 21 5 0.05300000 8.692971 3.967202 11.305910 0 0 0	# H3	hc
127 22 2 -0.03080000 16.426007 9.221952 8.491089 0 0 0	# C1	c3
128 22 3 0.34180000 1.016603 9.712521 8.885695 1 0 0	# C2	ct
129 22 7 -0.47000000 2.096523 10.086019 9.189524 1 0 0	# N	nt
130 22 5 0.05300000 15.753946 9.302163 9.343067 0 0 0	# H1	hc
131 22 5 0.05300000 16.492553 8.200207 8.186733 0 0 0	# H2	hc
132 22 5 0.05300000 16.043646 9.820674 7.664717 0 0 0	# H3	hc
133 23 2 -0.03080000 3.066631 2.431640 14.875633 0 0 0	# C1	c3
134 23 3 0.34180000 2.642246 1.083536 15.462012 0 0 0	# C2	ct
135 23 7 -0.47000000 2.308954 0.045611 15.920991 0 0 0	# N	nt
136 23 5 0.05300000 4.134231 2.579347 15.022257 0 0 0	# H1	hc
137 23 5 0.05300000 2.526689 3.205372 15.373487 0 0 0	# H2	hc
138 23 5 0.05300000 2.840349 2.461874 13.818378 0 0 0	# H3	hc
139 24 2 -0.03080000 0.848175 10.888888 5.687103 0 0 0	# C1	c3
140 24 3 0.34180000 1.970087 11.116394 4.655361 0 0 0	# C2	ct
141 24 7 -0.47000000 2.832687 11.291655 3.863881 0 0 0	# N	nt
142 24 5 0.05300000 0.137746 10.156592 5.300162 0 0 0	# H1	hc
143 24 5 0.05300000 0.341283 11.819090 5.864967 0 0 0	# H2	hc
144 24 5 0.05300000 1.276483 10.522685 6.626639 0 0 0	# H3	hc
145 25 2 -0.03080000 6.010978 10.333315 14.008106 0 0 0	# C1	c3
146 25 3 0.34180000 5.099273 10.800814 12.857815 0 0 0	# C2	ct
147 25 7 -0.47000000 4.396245 11.161503 11.970668 0 0 0	# N	nt
148 25 5 0.05300000 6.868576 9.800718 13.598458 0 0 0	# H1	hc
149 25 5 0.05300000 5.452818 9.669151 14.668321 0 0 0	# H2	hc
150 25 5 0.05300000 6.357062 11.199148 14.572170 0 0 0	# H3	hc
151 26 2 -0.03080000 3.151916 8.598405 13.473534 0 0 0	# C1	c3
152 26 3 0.34180000 2.754854 10.081755 13.562516 0 0 0	# C2	ct
153 26 7 -0.47000000 2.448372 11.226075 13.631604 0 0 0	# N	nt
154 26 5 0.05300000 2.879379 8.097832 14.392429 0 0 0	# H1	hc
155 26 5 0.05300000 4.226129 8.516411 13.325859 0 0 0	# H2	hc
156 26 5 0.05300000 2.631950 8.131643 12.635878 0 0 0	# H3	hc
157 27 2 -0.03080000 16.202891 15.342484 7.775231 0 0 0	# C1	c3
158 27 3 0.34180000 0.753856 14.616976 7.882660 1 0 0	# C2	ct
159 27 7 -0.47000000 1.799631 14.057455 7.965021 1 0 0	# N	nt
160 27 5 0.05300000 15.479974 14.690937 7.284724 0 0 0	# H1	hc
161 27 5 0.05300000 16.324209 16.253534 7.192648 0 0 0	# H2	hc
162 27 5 0.05300000 15.844855 15.596431 8.771122 0 0 0	# H3	hc
163 28 2 -0.03080000 0.065721 6.468292 3.250668 0 0 0	# C1	c3
164 28 3 0.34180000 0.951556 7.677034 2.900235 0 0 0	# C2	ct
165 28 7 -0.47000000 1.634542 8.609409 2.629837 0 0 0	# N	nt
166 28 5 0.05300000 15.835854 6.793547 3.351150 -1 0 0	# H1	hc
167 28 5 0.05300000 0.402311 6.030967 4.190674 0 0 0	# H2	hc
168 28 5 0.05300000 0.136270 5.724293 2.458523 0 0 0	# H3	hc
169 29 2 -0.03080000 3.727168 1.427027 12.410059 0 0 0	# C1	c3
170 29 3 0.34180000 4.281016 2.515256 11.482010 0 0 0	# C2	ct
171 29 7 -0.47000000 4.709327 3.352225 10.761259 0 0 0	# N	nt
172 29 5 0.05300000 2.693418 1.658744 12.670898 0 0 0	# H1	hc
173 29 5 0.05300000 4.331993 1.375014 13.317551 0 0 0	# H2	hc
174 29 5 0.05300000 3.764446 0.476979 11.897956 0 0 0	# H3	hc
175 30 2 -0.03080000 0.964516 2.501657 5.469153 0 0 0	# C1	c3
176 30 3 0.34180000 0.750874 2.639150 3.950593 0 0 0	# C2	ct
177 30 7 -0.47000000 0.586223 2.745224 2.779406 0 0 0	# N	nt
178 30 5 0.05300000 1.661144 3.267239 5.808206 0 0 0	# H1	hc
179 30 5 0.05300000 1.371974 1.515299 5.690824 0 0 0	# H2	hc
180 30 5 0.05300000 0.011835 2.624917 5.983722 0 0 0	# H3	hc
181 31 2 -0.03080000 11.915876 1.777197 10.702591 0 0 0	# C1	c3
182 31 3 0.34180000 11.625415 0.826248 9.534387 0 0 0	# C2	ct
183 31 7 -0.47000000 11.417021 0.097954 8.631389 0 0 0	# N	nt
184 31 5 0.05300000 12.600202 2.559597 10.369509 0 0 0	# H1	hc
185 31 5 0.05300000 12.376494 1.206289 11.531193 0 0 0	# H2	hc
186 31 5 0.05300000 10.973464 2.232383 11.041144 0 0 0	# H3	hc
187 32 2 -0.03080000 15.196437 13.748262 13.899474 0 0 0	# C1	c3
188 32 3 0.34180000 16.276817 14.769122 14.297820 0 0 0	# C2	ct
189 32 7 -0.47000000 0.306232 15.556552 14.604915 1 0 0	# N	nt
190 32 5 0.05300000 14.210704 14.202146 14.002697 0 0 0	# H1	hc
191 32 5 0.05300000 15.264352 12.875967 14.548769 0 0 0	# H2	hc
192 32 5 0.05300000 15.349208 13.443503 12.864681 0 0 0	# H3	hc
193 33 2 -0.03080000 0.714808 14.038125 10.190583 0 0 0	# C1	c3
194 33 3 0.34180000 16.055713 14.230881 9.751986 -1 0 0	# C2	ct
195 33 7 -0.47000000 14.925670 14.380018 9.413480 -1 0 0	# N	nt
196 33 5 0.05300000 1.364005 14.664881 9.579818 0 0 0	# H1	hc
197 33 5 0.05300000 0.996923 12.993586 10.065352 0 0 0	# H2	hc
198 33 5 0.05300000 0.819786 14.319421 11.237615 0 0 0	# H3	hc
199 34 2 -0.03080000 2.401129 4.944803 14.581460 0 0 0	# C1	c3
200 34 3 0.34180000 1.970665 6.407187 14.767457 0 0 0	# C2	ct
201 34 7 -0.47000000 1.630014 7.530795 14.926746 0 0 0	# N	nt
202 34 5 0.05300000 3.346750 4.896142 14.054682 0 0 0	# H1	hc
203 34 5 0.05300000 1.633305 4.407495 14.009822 0 0 0	# H2	hc
204 34 5 0.05300000 2.515428 4.492558 15.559265 0 0 0	# H3	hc
205 35 2 -0.03080000 3.444837 12.277718 15.789222 0 0 0	# C1	c3
206 35 3 0.34180000 2.455872 11.233292 16.312556 0 0 0	# C2	ct
207 35 7 -0.47000000 1.688117 10.428817 16.719488 0 0 0	# N	nt
208 35 5 0.05300000 3.903448 11.921414 14.865500 0 0 0	# H1	hc
209 35 5 0.05300000 4.216977 12.455635 16.534035 0 0 0	# H2	hc
210 35 5 0.05300000 2.914703 13.192681 15.598202 0 0 0	# H3	hc
211 36 2 -0.03080000 2.466229 8.931380 5.570795 0 0 0	# C1	c3
212 36 3 0.34180000 1.756888 8.016699 6.587161 0 0 0	# C2	ct
213 36 7 -0.47000000 1.211670 7.310685 7.369285 0 0 0	# N	nt
214 36 5 0.05300000 3.511480 9.043106 5.847129 0 0 0	# H1	hc
215 36 5 0.05300000 1.997125 9.891385 5.570578 0 0 0	# H2	hc
216 36 5 0.05300000 2.396416 8.497010 4.575041 0 0 0	# H3	hc
217 37 2 -0.03080000 13.328075 0.057377 4.839040 0 0 0	# C1	c3
218 37 3 0.34180000 13.997373 16.046964 3.716242 0 -1 0	# C2	ct
219 37 7 -0.47000000 14.513688 15.418425 2.850409 0 -1 0	# N	nt
220 37 5 0.05300000 13.936967 0.930966 5.066058 0 0 0	# H1	hc
221 37 5 0.05300000 13.234381 16.243610 5.731527 0 -1 0	# H2	hc
222 37 5 0.05300000 12.338712 0.378901 4.514517 0 0 0	# H3	hc
223 38 2 -0.03080000 4.139571 14.894427 9.561207 0 0 0	# C1	c3
224 38 3 0.34180000 3.818630 16.383056 9.332168 0 0 0	# C2	ct
225 38 7 -0.47000000 3.571070 0.726742 9.155425 0 1 0	# N	nt
226 38 5 0.05300000 4.820347 14.795028 10.406680 0 0 0	# H1	hc
227 38 5 0.05300000 4.607200 14.482057 8.667815 0 0 0	# H2	hc
228 38 5 0.05300000 3.218738 14.352211 9.771447 0 0 0	# H3	hc
229 39 2 -0.03080000 10.428705 7.903927 10.404477 0 0 0	# C1	c3
230 39 3 0.34180000 9.997602 9.198744 11.117477 0 0 0	# C2	ct
231 39 7 -0.47000000 9.664918 10.197454 11.667196 0 0 0	# N	nt
232 39 5 0.05300000 9.917206 7.830006 9.445157 0 0 0	# H1	hc
233 39 5 0.05300000 10.168716 7.044762 11.022356 0 0 0	# H2	hc
234 39 5 0.05300000 11.504850 7.919975 10.241024 0 0 0	# H3	hc
235 40 2 -0.03080000 8.238431 4.655284 15.327471 0 0 0	# C1	c3
236 40 3 0.34180000 6.716141 4.440365 15.244667 0 0 0	# C2	ct
237 40 7 -0.47000000 5.542674 4.274620 15.180055 0 0 0	# N	nt
238 40 5 0.05300000 8.538844 4.724645 16.371164 0 0 0	# H1	hc
239 40 5 0.05300000 8.503635 5.577926 14.811111 0 0 0	# H2	hc
240 40 5 0.05300000 8.750927 3.815560 14.857913 0 0 0	# H3	hc
241 41 2 -0.03080000 15.440734 16.745598 15.866060 0 0 0	# C1	c3
242 41 3 0.34180000 16.270402 1.103200 16.440296 0 1 0	# C2	ct
243 41 7 -0.47000000 0.105828 1.999467 0.078691 1 1 1	# N	nt
244 41 5 0.05300000 15.244276 0.122185 14.809316 0 1 0	# H1	hc
245 41 5 0.05300000 14.495996 16.672915 16.403662 0 0 0	# H2	hc
246 41 5 0.05300000 15.994350 15.814040 15.978408 0 0 0	# H3	hc
247 42 2 -0.03080000 5.249464 1.019421 7.128089 0 0 0	# C1	c3
248 42 3 0.34180000 3.984781 1.865037 6.899277 0 0 0	# C2	ct
249 42 7 -0.47000000 3.009862 2.517223 6.723202 0 0 0	# N	nt
250 42 5 0.05300000 5.246940 0.169646 6.445547 0 0 0	# H1	hc
251 42 5 0.05300000 5.264651 0.659467 8.156149 0 0 0	# H2	hc
252 42 5 0.05300000 6.132718 1.630151 6.944571 0 0 0	# H3	hc
253 43 2 -0.03080000 4.276828 10.197844 7.639188 0 0 0	# C1	c3
254 43 3 0.34180000 5.752466 10.527354 7.920690 0 0 0	# C2	ct
255 43 7 -0.47000000 6.890822 10.781435 8.138359 0 0 0	# N	nt
256 43 5 0.05300000 3.682832 10.407852 8.527200 0 0 0	# H1	hc
257 43 5 0.05300000 4.183119 9.144059 7.380588 0 0 0	# H2	hc
258 43 5 0.05300000 3.919547 10.808303 6.810411 0 0 0	# H3	hc
259 44 2 -0.03080000 11.110228 11.218265 1.154482 0 0 0	# C1	c3
260 44 3 0.34180000 11.102785 12.566382 0.417086 0 0 0	# C2	ct
261 44 7 -0.47000000 11.097693 13.607689 16.653971 0 0 -1	# N	nt
262 44 5 0.05300000 10.151358 10.719981 1.015686 0 0 0	# H1	hc
263 44 5 0.05300000 11.278403 11.389718 2.212674 0 0 0	# H2	hc
264 44 5 0.05300000 11.905396 10.591421 0.756720 0 0 0	# H3	hc
265 45 2 -0.03080000 3.718913 10.126061 1.640404 0 0 0	# C1	c3
266 45 3 0.34180000 5.221552 10.272799 1.348774 0 0 0	# C2	ct
267 45 7 -0.47000000 6.380977 10.386510 1.124009 0 0 0	# N	nt
268 45 5 0.05300000 3.463224 9.069854 1.713867 0 0 0	# H1	hc
269 45 5 0.05300000 3.148730 10.580847 0.838143 0 0 0	# H2	hc
270 45 5 0.05300000 3.482462 10.621891 2.576064 0 0 0	# H3	hc
271 46 2 -0.03080000 14.356959 10.704438 10.167116 0 0 0	# C1	c3
272 46 3 0.34180000 13.267592 9.759583 9.617570 0 0 0	# C2	ct
273 46 7 -0.47000000 12.428490 9.034366 9.191388 0 0 0	# N	nt
274 46 5 0.05300000 13.985986 11.726001 10.167959 0 0 0	# H1	hc
275 46 5 0.05300000 15.243806 10.643748 9.540213 0 0 0	# H2	hc
276 46 5 0.05300000 14.610559 10.413913 11.178890 0 0 0	# H3	hc
277 47 2 -0.03080000 7.483856 13.885748 8.090776 0 0 0	# C1	c3
278 47 3 0.34180000 8.638028 13.929429 9.108302 0 0 0	# C2	ct
279 47 7 -0.47000000 9.528137 13.962863 9.893208 0 0 0	# N	nt
280 47 5 0.05300000 7.789122 14.387351 7.172277 0 0 0	# H1	hc
281 47 5 0.05300000 6.613261 14.389940 8.507208 0 0 0	# H2	hc
282 47 5 0.05300000 7.232131 12.849065 7.872122 0 0 0	# H3	hc
283 48 2 -0.03080000 4.851632 2.426473 0.194739 0 0 0	# C1	c3
284 48 3 0.34180000 5.667839 3.452153 0.994993 0 0 0	# C2	ct
285 48 7 -0.47000000 6.296895 4.243316 1.612182 0 0 0	# N	nt
286 48 5 0.05300000 3.809075 2.743136 0.155991 0 0 0	# H1	hc
287 48 5 0.05300000 4.917423 1.453257 0.677437 0 0 0	# H2	hc
288 48 5 0.05300000 5.249736 2.356952 15.988439 0 0 -1	# H3	hc
289 49 2 -0.03080000 13.643030 11.695088 7.931921 0 0 0	# C1	c3
290 49 3 0.34180000 12.996720 12.726354 8.878041 0 0 0	# C2	ct
291 49 7 -0.47000000 12.499252 13.521648 9.607725 0 0 0	# N	nt
292 49 5 0.05300000 13.696284 10.731849 8.426863 0 0 0	# H1	hc
293 49 5 0.05300000 14.646994 12.022356 7.669223 0 0 0	# H2	hc
294 49 5 0.05300000 13.044240 11.603244 7.029449 0 0 0	# H3	hc
295 50 2 -0.03080000 13.461815 9.725107 13.429945 0 0 0	# C1	c3
296 50 3 0.34180000 14.592714 10.273533 14.320810 0 0 0	# C2	ct
297 50 7 -0.47000000 15.465059 10.695256 15.008038 0 0 0	# N	nt
298 50 5 0.05300000 13.567593 8.645953 13.335415 0 0 0	# H1	hc
299 50 5 0.05300000 13.518215 10.184891 12.443499 0 0 0	# H2	hc
300 50 5 0.05300000 12.500746 9.955275 13.879314 0 0 0	# H3	hc
301 51 6 1.00000000 0.904553 16.114350 0.877099 0 0 0	# Li	Li+
302 52 4 -0.16000000 13.525319 6.947361 3.456547 0 0 0	# F1	ff
303 52 1 0.60000000 12.535144 7.733261 2.672164 0 0 0	# C	c0x
304 52 4 -0.16000000 12.303613 7.070455 1.358204 0 0 0	# F2	ff
305 52 4 -0.16000000 11.250636 7.806910 3.424782 0 0 0	# F3	ff
306 52 10 0.79660000 13.164826 9.385805 2.405413 0 0 0	# S	sf
307 52 8 -0.07660000 12.102239 10.539137 3.174546 0 0 0	# O1	o
308 52 9 -0.42000000 14.617900 9.511182 3.034878 0 0 0	# O2	o=
309 52 9 -0.42000000 13.238610 9.679876 0.843467 0 0 0	# O3	o=
310 53 6 1.00000000 3.245424 9.281128 11.140929 0 0 0	# Li	Li+
311 54 4 -0.16000000 0.090508 2.429144 12.311994 0 0 0	# F1	ff
312 54 1 0.60000000 15.576609 3.048940 12.027247 -1 0 0	# C	c0x
313 54 4 -0.16000000 15.113450 3.817379 13.215101 -1 0 0	# F2	ff
314 54 4 -0.16000000 15.689728 3.963244 10.857013 -1 0 0	# F3	ff
315 54 10 0.79660000 14.389046 1.792986 11.669005 -1 0 0	# S	sf
316 54 8 -0.07660000 14.661575 1.159508 10.053881 -1 0 0	# O1	o
317 54 9 -0.42000000 14.508324 0.614522 12.730907 -1 0 0	# O2	o=
318 54 9 -0.42000000 12.957292 2.455588 11.770532 -1 0 0	# O3	o=
319 55 6 1.00000000 10.847491 8.041506 0.256590 0 0 0	# Li	Li+
320 56 4 -0.16000000 4.537056 6.895173 3.871521 0 0 0	# F1	ff
321 56 1 0.60000000 3.954391 6.380940 5.142406 0 0 0	# C	c0x
322 56 4 -0.16000000 2.751503 7.174676 5.491439 0 0 0	# F2	ff
323 56 4 -0.16000000 3.568822 4.953869 4.971379 0 0 0	# F3	ff
324 56 10 0.79660000 5.162930 6.521098 6.454745 0 0 0	# S	sf
325 56 8 -0.07660000 6.571926 5.568011 6.051048 0 0 0	# O1	o
326 56 9 -0.42000000 5.586629 8.044724 6.627687 0 0 0	# O2	o=
327 56 9 -0.42000000 4.533026 5.987685 7.814868 0 0 0	# O3	o=

Bonds

         1 1 1 2
         2 2 2 3
         3 3 1 4
         4 3 1 5
         5 3 1 6
         6 1 7 8
         7 2 8 9
         8 3 7 10
         9 3 7 11
        10 3 7 12
        11 1 13 14
        12 2 14 15
        13 3 13 16
        14 3 13 17
        15 3 13 18
        16 1 19 20
        17 2 20 21
        18 3 19 22
        19 3 19 23
        20 3 19 24
        21 1 25 26
        22 2 26 27
        23 3 25 28
        24 3 25 29
        25 3 25 30
        26 1 31 32
        27 2 32 33
        28 3 31 34
        29 3 31 35
        30 3 31 36
        31 1 37 38
        32 2 38 39
        33 3 37 40
        34 3 37 41
        35 3 37 42
        36 1 43 44
        37 2 44 45
        38 3 43 46
        39 3 43 47
        40 3 43 48
        41 1 49 50
        42 2 50 51
        43 3 49 52
        44 3 49 53
        45 3 49 54
        46 1 55 56
        47 2 56 57
        48 3 55 58
        49 3 55 59
        50 3 55 60
        51 1 61 62
        52 2 62 63
        53 3 61 64
        54 3 61 65
        55 3 61 66
        56 1 67 68
        57 2 68 69
        58 3 67 70
        59 3 67 71
        60 3 67 72
        61 1 73 74
        62 2 74 75
        63 3 73 76
        64 3 73 77
        65 3 73 78
        66 1 79 80
        67 2 80 81
        68 3 79 82
        69 3 79 83
        70 3 79 84
        71 1 85 86
        72 2 86 87
        73 3 85 88
        74 3 85 89
        75 3 85 90
        76 1 91 92
        77 2 92 93
        78 3 91 94
        79 3 91 95
        80 3 91 96
        81 1 97 98
        82 2 98 99
        83 3 97 100
        84 3 97 101
        85 3 97 102
        86 1 103 104
        87 2 104 105
        88 3 103 106
        89 3 103 107
        90 3 103 108
        91 1 109 110
        92 2 110 111
        93 3 109 112
        94 3 109 113
        95 3 109 114
        96 1 115 116
        97 2 116 117
        98 3 115 118
        99 3 115 119
       100 3 115 120
       101 1 121 122
       102 2 122 123
       103 3 121 124
       104 3 121 125
       105 3 121 126
       106 1 127 128
       107 2 128 129
       108 3 127 130
       109 3 127 131
       110 3 127 132
       111 1 133 134
       112 2 134 135
       113 3 133 136
       114 3 133 137
       115 3 133 138
       116 1 139 140
       117 2 140 141
       118 3 139 142
       119 3 139 143
       120 3 139 144
       121 1 145 146
       122 2 146 147
       123 3 145 148
       124 3 145 149
       125 3 145 150
       126 1 151 152
       127 2 152 153
       128 3 151 154
       129 3 151 155
       130 3 151 156
       131 1 157 158
       132 2 158 159
       133 3 157 160
       134 3 157 161
       135 3 157 162
       136 1 163 164
       137 2 164 165
       138 3 163 166
       139 3 163 167
       140 3 163 168
       141 1 169 170
       142 2 170 171
       143 3 169 172
       144 3 169 173
       145 3 169 174
       146 1 175 176
       147 2 176 177
       148 3 175 178
       149 3 175 179
       150 3 175 180
       151 1 181 182
       152 2 182 183
       153 3 181 184
       154 3 181 185
       155 3 181 186
       156 1 187 188
       157 2 188 189
       158 3 187 190
       159 3 187 191
       160 3 187 192
       161 1 193 194
       162 2 194 195
       163 3 193 196
       164 3 193 197
       165 3 193 198
       166 1 199 200
       167 2 200 201
       168 3 199 202
       169 3 199 203
       170 3 199 204
       171 1 205 206
       172 2 206 207
       173 3 205 208
       174 3 205 209
       175 3 205 210
       176 1 211 212
       177 2 212 213
       178 3 211 214
       179 3 211 215
       180 3 211 216
       181 1 217 218
       182 2 218 219
       183 3 217 220
       184 3 217 221
       185 3 217 222
       186 1 223 224
       187 2 224 225
       188 3 223 226
       189 3 223 227
       190 3 223 228
       191 1 229 230
       192 2 230 231
       193 3 229 232
       194 3 229 233
       195 3 229 234
       196 1 235 236
       197 2 236 237
       198 3 235 238
       199 3 235 239
       200 3 235 240
       201 1 241 242
       202 2 242 243
       203 3 241 244
       204 3 241 245
       205 3 241 246
       206 1 247 248
       207 2 248 249
       208 3 247 250
       209 3 247 251
       210 3 247 252
       211 1 253 254
       212 2 254 255
       213 3 253 256
       214 3 253 257
       215 3 253 258
       216 1 259 260
       217 2 260 261
       218 3 259 262
       219 3 259 263
       220 3 259 264
       221 1 265 266
       222 2 266 267
       223 3 265 268
       224 3 265 269
       225 3 265 270
       226 1 271 272
       227 2 272 273
       228 3 271 274
       229 3 271 275
       230 3 271 276
       231 1 277 278
       232 2 278 279
       233 3 277 280
       234 3 277 281
       235 3 277 282
       236 1 283 284
       237 2 284 285
       238 3 283 286
       239 3 283 287
       240 3 283 288
       241 1 289 290
       242 2 290 291
       243 3 289 292
       244 3 289 293
       245 3 289 294
       246 1 295 296
       247 2 296 297
       248 3 295 298
       249 3 295 299
       250 3 295 300
       251 4 303 302
       252 4 303 304
       253 4 303 305
       254 5 303 306
       255 6 307 306
       256 7 308 306
       257 7 309 306
       258 4 312 311
       259 4 312 313
       260 4 312 314
       261 5 312 315
       262 6 316 315
       263 7 317 315
       264 7 318 315
       265 4 321 320
       266 4 321 322
       267 4 321 323
       268 5 321 324
       269 6 325 324
       270 7 326 324
       271 7 327 324

Angles

         1 1 2 1 4
         2 1 2 1 5
         3 1 2 1 6
         4 2 5 1 4
         5 2 6 1 4
         6 2 6 1 5
         7 3 1 2 3
         8 1 8 7 10
         9 1 8 7 11
        10 1 8 7 12
        11 2 11 7 10
        12 2 12 7 10
        13 2 12 7 11
        14 3 7 8 9
        15 1 14 13 16
        16 1 14 13 17
        17 1 14 13 18
        18 2 17 13 16
        19 2 18 13 16
        20 2 18 13 17
        21 3 13 14 15
        22 1 20 19 22
        23 1 20 19 23
        24 1 20 19 24
        25 2 23 19 22
        26 2 24 19 22
        27 2 24 19 23
        28 3 19 20 21
        29 1 26 25 28
        30 1 26 25 29
        31 1 26 25 30
        32 2 29 25 28
        33 2 30 25 28
        34 2 30 25 29
        35 3 25 26 27
        36 1 32 31 34
        37 1 32 31 35
        38 1 32 31 36
        39 2 35 31 34
        40 2 36 31 34
        41 2 36 31 35
        42 3 31 32 33
        43 1 38 37 40
        44 1 38 37 41
        45 1 38 37 42
        46 2 41 37 40
        47 2 42 37 40
        48 2 42 37 41
        49 3 37 38 39
        50 1 44 43 46
        51 1 44 43 47
        52 1 44 43 48
        53 2 47 43 46
        54 2 48 43 46
        55 2 48 43 47
        56 3 43 44 45
        57 1 50 49 52
        58 1 50 49 53
        59 1 50 49 54
        60 2 53 49 52
        61 2 54 49 52
        62 2 54 49 53
        63 3 49 50 51
        64 1 56 55 58
        65 1 56 55 59
        66 1 56 55 60
        67 2 59 55 58
        68 2 60 55 58
        69 2 60 55 59
        70 3 55 56 57
        71 1 62 61 64
        72 1 62 61 65
        73 1 62 61 66
        74 2 65 61 64
        75 2 66 61 64
        76 2 66 61 65
        77 3 61 62 63
        78 1 68 67 70
        79 1 68 67 71
        80 1 68 67 72
        81 2 71 67 70
        82 2 72 67 70
        83 2 72 67 71
        84 3 67 68 69
        85 1 74 73 76
        86 1 74 73 77
        87 1 74 73 78
        88 2 77 73 76
        89 2 78 73 76
        90 2 78 73 77
        91 3 73 74 75
        92 1 80 79 82
        93 1 80 79 83
        94 1 80 79 84
        95 2 83 79 82
        96 2 84 79 82
        97 2 84 79 83
        98 3 79 80 81
        99 1 86 85 88
       100 1 86 85 89
       101 1 86 85 90
       102 2 89 85 88
       103 2 90 85 88
       104 2 90 85 89
       105 3 85 86 87
       106 1 92 91 94
       107 1 92 91 95
       108 1 92 91 96
       109 2 95 91 94
       110 2 96 91 94
       111 2 96 91 95
       112 3 91 92 93
       113 1 98 97 100
       114 1 98 97 101
       115 1 98 97 102
       116 2 101 97 100
       117 2 102 97 100
       118 2 102 97 101
       119 3 97 98 99
       120 1 104 103 106
       121 1 104 103 107
       122 1 104 103 108
       123 2 107 103 106
       124 2 108 103 106
       125 2 108 103 107
       126 3 103 104 105
       127 1 110 109 112
       128 1 110 109 113
       129 1 110 109 114
       130 2 113 109 112
       131 2 114 109 112
       132 2 114 109 113
       133 3 109 110 111
       134 1 116 115 118
       135 1 116 115 119
       136 1 116 115 120
       137 2 119 115 118
       138 2 120 115 118
       139 2 120 115 119
       140 3 115 116 117
       141 1 122 121 124
       142 1 122 121 125
       143 1 122 121 126
       144 2 125 121 124
       145 2 126 121 124
       146 2 126 121 125
       147 3 121 122 123
       148 1 128 127 130
       149 1 128 127 131
       150 1 128 127 132
       151 2 131 127 130
       152 2 132 127 130
       153 2 132 127 131
       154 3 127 128 129
       155 1 134 133 136
       156 1 134 133 137