LAMMPS data file via write_data, version 15 May 2015, timestep = 1000000

4560 atoms
7 atom types
5040 bonds
3 bond types
7200 angles
2 angle types
10560 dihedrals
3 dihedral types
2400 impropers
1 improper types

-1.0763502675555259e-01 4.1387635026745990e+01 xlo xhi
-4.0433884491974936e-02 3.5938433884472119e+01 ylo yhi
-3.5711112484589691e-01 2.9555111124838550e+01 zlo zhi
-6.7234083837551181e-02 -1.7036217651000683e+01 -4.1707816797290791e-02 xy xz yz

Masses

1 12.0107
2 1.008
3 12.0107
4 12.0107
5 12.0107
6 12.0107
7 12.0107

Pair Coeffs # lj/cut/coul/long

1 0.07 3.55
2 0.03 2.42
3 0.07 3.55
4 0.07 3.55
5 0.07 3.55
6 0 0
7 0.07 3.55

Bond Coeffs # harmonic

1 469 1.4
2 367 1.08
3 469 0.7

Angle Coeffs # harmonic

1 35 120
2 63 120

Dihedral Coeffs # opls

1 0 7.25 0 0
2 0 7.25 0 0
3 0 7.25 0 0

Improper Coeffs # cvff

1 2.5 -1 2

Atoms # full

219 13 3 0.0000000000000000e+00 -3.6437115568147016e-01 3.1167127957531426e+00 3.1178953416449717e+00 1 0 0
220 13 4 -1.1500000000000000e-01 2.9302834557904012e-01 4.0998008538894677e+00 2.3479720828206418e+00 1 0 0
224 13 2 1.1500000000000000e-01 4.9450859796743529e-01 5.1308501869427827e+00 2.7939984474970831e+00 1 0 0
580 33 4 -1.1500000000000000e-01 2.6678547210569779e+00 6.7669667761926187e+00 3.9841993266654745e+00 1 0 0
228 13 3 0.0000000000000000e+00 -6.1133422358844802e-01 1.8522003111819949e+00 2.5441798960258546e+00 1 0 0
989 53 4 -1.1500000000000000e-01 -1.3525005868261060e+00 7.0310160804000112e+00 3.5237356883146482e+00 1 0 0
600 34 2 1.1500000000000000e-01 2.2463773931900910e-01 5.9497608466023806e+00 6.9931185204894915e+00 1 0 0
245 14 4 -1.1500000000000000e-01 -4.9071596097302930e+00 1.4494643144050032e+00 9.0729118938567872e+00 1 0 0
227 13 4 -1.1500000000000000e-01 -2.0551759749664089e-01 1.5571199924050321e+00 1.2289218708684990e+00 1 0 0
4390 233 1 -1.1500000000000000e-01 2.2896592300551415e+00 7.1771070268970150e-01 5.4606136756361705e+00 1 1 0
733 13 6 0.0000000000000000e+00 -4.6020681971346855e-01 2.4192502715304918e+00 2.9475196984782466e+00 1 0 0
987 53 4 -1.1500000000000000e-01 -7.9150793647730355e-01 7.9510165309268839e+00 1.3476287996304770e+00 1 0 0
230 13 1 -1.1500000000000000e-01 6.8358090476822952e-01 3.8697219512267935e+00 1.0073717666256052e+00 1 0 0
217 13 7 -1.1500000000000000e-01 -1.0448869317694780e+00 2.3183768949869594e+00 5.2973343976188039e+00 1 0 0
218 13 5 -1.1500000000000000e-01 -5.6906206519638891e-01 3.3760070151238928e+00 4.4954154067546410e+00 1 0 0
221 13 1 -1.1500000000000000e-01 -1.4766040176288977e+00 1.1147239964327256e+00 4.7120315492328100e+00 1 0 0
222 13 2 1.1500000000000000e-01 -1.2330587297171194e+00 2.5092485368549684e+00 6.3353983440744708e+00 1 0 0
223 13 2 1.1500000000000000e-01 -1.1849678144325537e-01 4.2130913611588126e+00 5.0019623695371083e+00 1 0 0
248 14 1 -1.1500000000000000e-01 -3.5881403583306613e+00 3.4308747591675286e+00 8.7200554681192752e+00 1 0 0
4380 233 4 -1.1500000000000000e-01 2.5750849028617191e+00 1.0996057559869732e+00 4.1267550864083757e+00 1 1 0
244 14 1 -1.1500000000000000e-01 -4.1469554297449651e+00 2.2656485452188635e+00 8.2213039356954614e+00 1 0 0
603 34 2 1.1500000000000000e-01 1.0986092714312701e+00 3.5289707703933151e+00 7.5270129585511265e+00 1 0 0
4396 234 5 -1.1500000000000000e-01 -7.7316089904558094e-01 2.2763622469745937e-01 9.2566478654256041e+00 1 1 0
4394 233 2 1.1500000000000000e-01 1.5875181154830726e+00 1.2729999042014428e+00 6.0796121302380337e+00 1 1 0
579 33 3 0.0000000000000000e+00 3.3705100021781957e+00 5.8462294582231937e+00 3.1770835244273061e+00 1 0 0
252 14 2 1.1500000000000000e-01 -2.9441682884923983e+00 4.0963206767301479e+00 8.1543616048147260e+00 1 0 0
581 33 1 -1.1500000000000000e-01 4.6369689510273693e+00 4.0321676601533749e+00 1.4586514079509745e+00 1 0 0
596 34 5 -1.1500000000000000e-01 -5.1839498287885988e-01 6.3383044729710232e+00 8.8971540250807664e+00 1 0 0
577 33 7 -1.1500000000000000e-01 4.0431540596827862e+00 5.1809990159492418e+00 9.3248842611262273e-01 1 0 0
588 33 3 0.0000000000000000e+00 3.8781839497644941e+00 4.6603120976262664e+00 3.7301904318334564e+00 1 0 0
589 33 4 -1.1500000000000000e-01 4.5200516507338051e+00 3.7228084251420421e+00 2.8418408960910857e+00 1 0 0
593 33 2 1.1500000000000000e-01 5.0216741075376774e+00 2.9093643858535252e+00 3.3609581102585895e+00 1 0 0
753 33 6 0.0000000000000000e+00 3.6409709950497406e+00 5.2141057118393563e+00 3.2996824505145548e+00 1 0 0
4383 233 2 1.1500000000000000e-01 2.8590792144132182e+00 1.2572702923649759e+00 1.4552400595705159e+00 1 1 0
4379 233 3 0.0000000000000000e+00 3.3409333705335515e+00 2.5788157915062437e-01 3.2964327724803444e+00 1 1 0
578 33 5 -1.1500000000000000e-01 3.5031722236666312e+00 6.1347214496476781e+00 1.7932376216909618e+00 1 0 0
226 13 1 -1.1500000000000000e-01 4.4981125534860672e-01 2.5464631866846577e+00 4.8150465573423440e-01 1 0 0
4384 233 2 1.1500000000000000e-01 2.0629570282361542e+00 1.9904618384110451e+00 3.7806370873072925e+00 1 1 0
586 33 1 -1.1500000000000000e-01 3.1125711639800464e+00 5.3742702046946791e+00 5.9787691960111635e+00 1 0 0
587 33 4 -1.1500000000000000e-01 3.7928174233841960e+00 4.4425381418723449e+00 5.1521027525257770e+00 1 0 0
585 33 2 1.1500000000000000e-01 5.1323364564966232e+00 3.2922047310152345e+00 8.4938726843600643e-01 1 0 0
591 33 2 1.1500000000000000e-01 3.0927833866945207e+00 5.1873976041665877e+00 7.0191732667355131e+00 1 0 0
592 33 2 1.1500000000000000e-01 4.1401130782833828e+00 3.5747659450855105e+00 5.6597727614997835e+00 1 0 0
590 33 1 -1.1500000000000000e-01 2.5638287521492922e+00 6.5220768680443761e+00 5.3377391618884449e+00 1 0 0
1010 54 2 1.1500000000000000e-01 -5.0471514012375689e+00 6.3284584293614365e+00 8.4886479803884001e+00 1 0 0
234 13 2 1.1500000000000000e-01 1.1853253376701836e+00 4.5166262562703086e+00 3.7018304565163784e-01 1 0 0
229 13 4 -1.1500000000000000e-01 -1.2260081504888647e+00 8.7915151519814516e-01 3.3411955585944795e+00 1 0 0
993 53 2 1.1500000000000000e-01 -1.7450442583347670e+00 6.1913900374262720e+00 3.0576460288069423e+00 1 0 0
985 53 2 1.1500000000000000e-01 -1.9926247223695319e+00 6.4231683147029495e+00 5.4452725437181613e+00 1 0 0
599 34 1 -1.1500000000000000e-01 6.1614934056440163e-01 4.2031626425018942e+00 8.2892615017688378e+00 1 0 0
4401 234 2 1.1500000000000000e-01 -1.1047026100038115e+00 1.2055156727346155e+00 8.8924947288191358e+00 1 1 0
225 13 2 1.1500000000000000e-01 -1.8922597639001482e+00 3.7960979256618121e-01 5.3624727864495600e+00 1 0 0
595 34 7 -1.1500000000000000e-01 1.1832510427119836e-01 5.5110092030439697e+00 7.9343955384116978e+00 1 0 0
981 53 1 -1.1500000000000000e-01 -1.3737050769897570e+00 7.1902417444134628e+00 4.9200793868234047e+00 1 0 0
4378 233 5 -1.1500000000000000e-01 3.4288095515601773e+00 4.7959970383093536e-01 1.9180794173887676e+00 1 1 0
582 33 2 1.1500000000000000e-01 4.0184523780774235e+00 5.2547288029985193e+00 -1.8613340817816432e-01 1 0 0
583 33 2 1.1500000000000000e-01 3.2725722251243536e+00 7.1073194364572414e+00 1.2860000081409191e+00 1 0 0
233 13 2 1.1500000000000000e-01 -1.5079150733163122e+00 -4.1378252371387030e-02 2.8935746476786020e+00 1 0 0
232 13 2 1.1500000000000000e-01 -3.3135401269239340e-01 5.9565107306619458e-01 7.4774323212441596e-01 1 0 0
1493 53 6 0.0000000000000000e+00 -5.5119810197753760e-01 8.6821469776896247e+00 2.9687863212057333e+00 1 0 0
1009 54 2 1.1500000000000000e-01 -3.3900575701382754e+00 7.4543436231314733e+00 6.9604038313633092e+00 1 0 0
1005 54 4 -1.1500000000000000e-01 -4.5173271672303406e+00 7.2168159847722899e+00 8.8548977529432911e+00 1 0 0
594 33 2 1.1500000000000000e-01 1.9995849432128052e+00 7.1959393795002331e+00 5.9951617503300385e+00 1 0 0
977 53 7 -1.1500000000000000e-01 -7.4055857447447293e-01 8.2808068143582361e+00 5.5912307355120694e+00 1 0 0
982 53 2 1.1500000000000000e-01 -7.6400671672385645e-01 8.4040261083526886e+00 6.6743468409296014e+00 1 0 0
1004 54 1 -1.1500000000000000e-01 -3.6253722906223294e+00 7.8235311769636464e+00 7.9863575561246627e+00 1 0 0
988 53 3 0.0000000000000000e+00 -7.5020705610062310e-01 8.0571057909347825e+00 2.7502679254278979e+00 1 0 0
1064 57 2 1.1500000000000000e-01 7.1828027570344455e+00 6.3516206585481667e+00 9.3879779426867405e-01 1 0 0
601 34 2 1.1500000000000000e-01 -8.4178452372626733e-01 7.3610571189045277e+00 8.6525403401200176e+00 1 0 0
584 33 2 1.1500000000000000e-01 2.1616809171130793e+00 7.6968672011489581e+00 3.6745736569156833e+00 1 0 0
249 14 2 1.1500000000000000e-01 -4.1247167838503591e+00 1.9933330151907347e+00 7.1900197699933672e+00 1 0 0
1353 73 2 1.1500000000000000e-01 5.0776152484102175e+00 8.8108699219186555e+00 2.9199800376380556e+00 1 0 0
986 53 1 -1.1500000000000000e-01 -2.6657009015406885e-01 8.9020189685189628e+00 4.7783164087430530e-01 1 0 0
235 14 7 -1.1500000000000000e-01 -5.3230391914836606e+00 2.3055729097754849e+00 1.3187075414187751e+01 1 0 0
236 14 5 -1.1500000000000000e-01 -4.5710657037460098e+00 3.1797702113891151e+00 1.2332573589623395e+01 1 0 0
597 34 3 0.0000000000000000e+00 -6.1300000147226363e-01 5.9232476558471596e+00 1.0222774477015445e+01 1 0 0
734 14 6 0.0000000000000000e+00 -4.6205637920554832e+00 2.3149657046418062e+00 1.0494364434166529e+01 1 0 0
239 14 1 -1.1500000000000000e-01 -5.8699836667706498e+00 1.1037004156158627e+00 1.2635107461012545e+01 1 0 0
240 14 2 1.1500000000000000e-01 -5.3715342443354954e+00 2.5749840185443680e+00 1.4206869866807402e+01 1 0 0
243 14 2 1.1500000000000000e-01 -6.4910451564377407e+00 5.8503065806432575e-01 1.3374938539435911e+01 1 0 0
4416 235 4 -1.1500000000000000e-01 -5.8726690796492642e+00 8.8178255413797713e-01 1.9051762936542261e+01 1 1 0
4420 235 2 1.1500000000000000e-01 -6.1087968868874114e+00 1.8826858175293217e+00 1.8733165449477347e+01 1 1 0
237 14 3 0.0000000000000000e+00 -4.3767529121664150e+00 2.8350748849761085e+00 1.0959380335869547e+01 1 0 0
4402 234 2 1.1500000000000000e-01 -1.9605028262311857e+00 1.7329929046696839e+00 1.1026216414937652e+01 1 1 0
1029 55 2 1.1500000000000000e-01 -1.0433367469265082e+01 5.9480304873872774e+00 1.7954773292918414e+01 1 0 0
242 14 2 1.1500000000000000e-01 -3.3177383543927745e+00 4.6503138762934997e+00 1.0387278261462383e+01 1 0 0
255 15 3 0.0000000000000000e+00 -8.7699705337665534e+00 3.1161596760235621e+00 1.8152170858914022e+01 1 0 0
256 15 4 -1.1500000000000000e-01 -8.0293083635175080e+00 3.8784204887742892e+00 1.7173526443026212e+01 1 0 0
260 15 2 1.1500000000000000e-01 -7.5761766798017121e+00 4.8507381205589626e+00 1.7229768899852509e+01 1 0 0
267 15 2 1.1500000000000000e-01 -8.3729300781403211e+00 1.7285727299015667e+00 1.4510113813372373e+01 1 0 0
4414 235 5 -1.1500000000000000e-01 -4.9020751555131357e+00 3.7818764011973033e-01 1.6854658934263117e+01 1 1 0
264 15 3 0.0000000000000000e+00 -9.3466033120702985e+00 1.8821943106825960e+00 1.7788434480032791e+01 1 0 0
262 15 1 -1.1500000000000000e-01 -8.4451163043217772e+00 2.0959055002102440e+00 1.5503259762440905e+01 1 0 0
266 15 1 -1.1500000000000000e-01 -7.8604588938593665e+00 3.3466458948484474e+00 1.5866649900183358e+01 1 0 0
4408 234 1 -1.1500000000000000e-01 -1.8437465459141054e+00 3.4906007617212181e-01 1.2665631080780555e+01 1 1 0
238 14 4 -1.1500000000000000e-01 -3.7322852642693523e+00 3.7348193203745472e+00 1.0030147898254944e+01 1 0 0
263 15 4 -1.1500000000000000e-01 -9.1337048053028056e+00 1.3871663762146611e+00 1.6505436533589304e+01 1 0 0
735 15 6 0.0000000000000000e+00 -8.9458120180408933e+00 2.4147983440722189e+00 1.8083217038366485e+01 1 0 0
246 14 3 0.0000000000000000e+00 -5.0249223086106172e+00 1.7024482592532981e+00 1.0420622685384689e+01 1 0 0
265 15 4 -1.1500000000000000e-01 -1.0075034577691287e+01 1.1400336537434685e+00 1.8729841492366774e+01 1 0 0
604 34 1 -1.1500000000000000e-01 -9.8735866647712722e-01 4.8802655536528912e+00 1.2865974624520414e+01 1 0 0
605 34 4 -1.1500000000000000e-01 -4.1494315975191487e-01 4.1051105911201651e+00 1.1891196153638619e+01 1 0 0
606 34 3 0.0000000000000000e+00 -1.7189991184879805e-01 4.5979629844311178e+00 1.0575555772670477e+01 1 0 0
1006 54 3 0.0000000000000000e+00 -4.7933633520347971e+00 7.8170125111529689e+00 1.0093548048714222e+01 1 0 0
1007 54 4 -1.1500000000000000e-01 -5.6905818084404727e+00 7.1544968227757009e+00 1.1033802811526586e+01 1 0 0
607 34 4 -1.1500000000000000e-01 3.9597522563303134e-01 3.7191542863991214e+00 9.6268502553808180e+00 1 0 0
610 34 2 1.1500000000000000e-01 -1.5471770596467049e-01 3.0764721727337161e+00 1.2102332650325485e+01 1 0 0
241 14 2 1.1500000000000000e-01 -3.9564254409142108e+00 3.9254858888250808e+00 1.2821529929331151e+01 1 0 0
4415 235 3 0.0000000000000000e+00 -5.1628753405589540e+00 9.7231657313676528e-03 1.8200880848132943e+01 1 1 0
598 34 4 -1.1500000000000000e-01 -1.1391811385344859e+00 6.7616289961693798e+00 1.1225453482985170e+01 1 0 0
754 34 6 0.0000000000000000e+00 -4.3686277424369191e-01 5.2441611737388438e+00 1.0480014889802218e+01 1 0 0
609 34 2 1.1500000000000000e-01 -1.1713962236932387e+00 4.3875639799814010e+00 1.3869330873730709e+01 1 0 0
613 35 7 -1.1500000000000000e-01 -4.5829260548992821e+00 5.5919147607260964e+00 1.6082673701929707e+01 1 0 0
618 35 2 1.1500000000000000e-01 -4.7312543492859600e+00 5.9516542707383815e+00 1.5088483511576865e+01 1 0 0
615 35 3 0.0000000000000000e+00 -5.2256893194354186e+00 5.8018792177301490e+00 1.8437063439934466e+01 1 0 0
617 35 1 -1.1500000000000000e-01 -3.9469329669876627e+00 4.3578402507856318e+00 1.6388233800055726e+01 1 0 0
621 35 2 1.1500000000000000e-01 -3.4565905100457908e+00 3.8416873649675471e+00 1.5574916961583142e+01 1 0 0
624 35 3 0.0000000000000000e+00 -4.6718198041073142e+00 4.5181845500220321e+00 1.8712939735912784e+01 1 0 0
625 35 4 -1.1500000000000000e-01 -4.0128936747308144e+00 3.8021206362011117e+00 1.7662030921103806e+01 1 0 0
629 35 2 1.1500000000000000e-01 -3.5306868658789501e+00 2.9132065747483873e+00 1.7824083528771503e+01 1 0 0
755 35 6 0.0000000000000000e+00 -4.9744855563111656e+00 5.1156203901345778e+00 1.8441153117136189e+01 1 0 0
270 15 2 1.1500000000000000e-01 -7.3315573099902833e+00 3.9591909432612726e+00 1.5120487484202002e+01 1 0 0
4398 234 4 -1.1500000000000000e-01 -1.5941967654663971e+00 7.8471974692925639e-01 1.1378331351632255e+01 1 1 0
4412 234 2 1.1500000000000000e-01 -2.4194025473859142e+00 9.9563648330754551e-01 1.3273212375910209e+01 1 1 0
614 35 5 -1.1500000000000000e-01 -5.1965971703744573e+00 6.3161257757719333e+00 1.7138894801811340e+01 1 0 0
247 14 4 -1.1500000000000000e-01 -5.7756196852342985e+00 8.5924876250816895e-01 1.1246051663372944e+01 1 0 0
4419 235 2 1.1500000000000000e-01 -5.1640649434411552e+00 1.4022189783449845e+00 1.6568401477074886e+01 1 1 0
1025 55 4 -1.1500000000000000e-01 -9.8147309455271596e+00 6.7335300363494630e+00 1.8346639778411987e+01 1 0 0
608 34 1 -1.1500000000000000e-01 -1.2966980052315025e+00 6.2440468221681016e+00 1.2505950943099819e+01 1 0 0
616 35 4 -1.1500000000000000e-01 -5.9517205811815854e+00 6.5278701976291931e+00 1.9365066424149227e+01 1 0 0
612 34 2 1.1500000000000000e-01 -1.7453193565421676e+00 6.9915132332696199e+00 1.3135188837668268e+01 1 0 0
269 15 2 1.1500000000000000e-01 -1.0424189938439650e+01 1.8064732030197886e-01 1.8387845080266782e+01 1 0 0
611 34 2 1.1500000000000000e-01 5.7822192458721577e-01 2.6717757699618079e+00 9.9719563457916198e+00 1 0 0
254 15 5 -1.1500000000000000e-01 -8.9335162830019854e+00 3.5756924276028439e+00 1.9507369803610416e+01 1 0 0
1022 55 1 -1.1500000000000000e-01 -8.4921893232226626e+00 8.3475632766370644e+00 1.5326437511476177e+01 1 0 0
1023 55 4 -1.1500000000000000e-01 -9.1568053232683599e+00 7.4310520622760334e+00 1.6106056041468147e+01 1 0 0
619 35 2 1.1500000000000000e-01 -5.8221843358004834e+00 7.1490758880736376e+00 1.6860033408664776e+01 1 0 0
1015 55 3 0.0000000000000000e+00 -8.5197600958189348e+00 8.8026360576128173e+00 1.8059947192736136e+01 1 0 0
1494 54 6 0.0000000000000000e+00 -4.5730756919967437e+00 8.4566832353204830e+00 1.0314990763221973e+01 1 0 0
1003 54 2 1.1500000000000000e-01 -6.6932002004511482e+00 7.0521172024572216e+00 1.2885384506178701e+01 1 0 0
1495 55 6 0.0000000000000000e+00 -8.8279380095943871e+00 8.3181157167963935e+00 1.7643003055865204e+01 1 0 0
999 54 1 -1.1500000000000000e-01 -5.9770971860648556e+00 7.6602328408484315e+00 1.2278347535786406e+01 1 0 0
602 34 2 1.1500000000000000e-01 -1.4759794601304135e+00 7.7508963080068671e+00 1.0944918843464048e+01 1 0 0
1024 55 3 0.0000000000000000e+00 -9.1312712376362697e+00 7.6587389068552367e+00 1.7477979058331311e+01 1 0 0
620 35 2 1.1500000000000000e-01 -6.5327806095997207e+00 7.4399736186209662e+00 1.9120203579130077e+01 1 0 0
1011 54 2 1.1500000000000000e-01 -6.1584185233214477e+00 6.2282612638375729e+00 1.0707066286867665e+01 1 0 0
251 14 2 1.1500000000000000e-01 -6.3287845721323164e+00 6.4350184835090474e-02 1.0906014935667836e+01 1 0 0
268 15 2 1.1500000000000000e-01 -9.5533997574632625e+00 3.6905316021758738e-01 1.6283881507920256e+01 1 0 0
995 54 7 -1.1500000000000000e-01 -5.4517641414477129e+00 8.9276024667008240e+00 1.2625427119685190e+01 1 0 0
1100 59 2 1.1500000000000000e-01 -1.1339604618588428e+00 6.5305405873708846e+00 1.5963277489102104e+01 1 0 0
340 19 2 1.1500000000000000e-01 -1.2627691727378298e+00 6.2252655833607629e-01 1.6142954829407206e+01 1 0 0
1389 75 2 1.1500000000000000e-01 -3.1576091962431239e+00 8.8520359021145758e+00 1.7043966255965561e+01 1 0 0
280 16 1 -1.1500000000000000e-01 -1.2704553379232424e+01 2.3155323330734996e+00 2.3089368223734240e+01 1 0 0
1045 56 2 1.1500000000000000e-01 -1.2516702826242954e+01 7.4880266694210613e+00 2.2045690064672581e+01 1 0 0
258 15 2 1.1500000000000000e-01 -9.7367846370354947e+00 3.1588156720948493e+00 2.1398243137381279e+01 1 0 0
634 36 4 -1.1500000000000000e-01 -1.0180685031550919e+01 6.3984639784761885e+00 2.6195621946233661e+01 1 0 0
4433 236 3 0.0000000000000000e+00 -9.5768827413442654e+00 2.8721144194003199e-02 2.5630073334298128e+01 1 1 0
257 15 1 -1.1500000000000000e-01 -1.0251546055665271e+01 1.5315744244261131e+00 2.0054273978330894e+01 1 0 0
284 16 1 -1.1500000000000000e-01 -1.2212741651521350e+01 3.5337364757184977e+00 2.3579472596686958e+01 1 0 0
279 16 2 1.1500000000000000e-01 -1.4660735296508056e+01 6.3352745992736170e-01 2.8416648921741896e+01 1 0 0
1047 56 2 1.1500000000000000e-01 -1.4784877416620565e+01 6.1107996912772782e+00 2.6143828737145068e+01 1 0 0
288 16 2 1.1500000000000000e-01 -1.1796545577433772e+01 4.2579674078318241e+00 2.2926522658529660e+01 1 0 0
271 16 7 -1.1500000000000000e-01 -1.3802757202474949e+01 2.5156636306810340e+00 2.8084221879630611e+01 1 0 0
272 16 5 -1.1500000000000000e-01 -1.3173641041868287e+01 3.4120781447866486e+00 2.7186236473435525e+01 1 0 0
273 16 3 0.0000000000000000e+00 -1.2944261912056914e+01 3.0546912062895788e+00 2.5845426211636262e+01 1 0 0
274 16 4 -1.1500000000000000e-01 -1.2300336147367782e+01 3.9314606525431133e+00 2.4943956948738958e+01 1 0 0
275 16 1 -1.1500000000000000e-01 -1.4270129736846879e+01 1.2620669027558096e+00 2.7648229288974406e+01 1 0 0
259 15 2 1.1500000000000000e-01 -8.4954430680807125e+00 4.5889750434363936e+00 1.9637285829837904e+01 1 0 0
277 16 2 1.1500000000000000e-01 -1.2788131971577915e+01 4.4128444565423681e+00 2.7510851737828421e+01 1 0 0
278 16 2 1.1500000000000000e-01 -1.1946949710797163e+01 4.8665665100364883e+00 2.5167085288470574e+01 1 0 0
261 15 2 1.1500000000000000e-01 -1.0687070011628496e+01 8.2978798178028801e-01 2.0700150448681871e+01 1 0 0
282 16 3 0.0000000000000000e+00 -1.3462557848390523e+01 1.8510264417180824e+00 2.5368891547295231e+01 1 0 0
1043 56 4 -1.1500000000000000e-01 -1.4384526234865390e+01 7.1069805908097798e+00 2.6234268749694152e+01 1 0 0
736 16 6 0.0000000000000000e+00 -1.3221605586237960e+01 2.4003658144733300e+00 2.5723451724601180e+01 1 0 0
632 36 5 -1.1500000000000000e-01 -9.2571969539204737e+00 6.0967777756754176e+00 2.3868400875549575e+01 1 0 0
636 36 2 1.1500000000000000e-01 -8.6541433755142645e+00 5.5961210826609591e+00 2.1947543880148231e+01 1 0 0
4438 236 2 1.1500000000000000e-01 -1.0805311623660558e+01 1.6195858581264131e+00 2.6111379589930085e+01 1 1 0
253 15 7 -1.1500000000000000e-01 -9.7045699195124975e+00 2.8343624606921658e+00 2.0421267951329668e+01 1 0 0
623 35 4 -1.1500000000000000e-01 -4.7569091302228035e+00 3.9591106187697198e+00 2.0023549434678433e+01 1 0 0
627 35 2 1.1500000000000000e-01 -5.5075047210277130e+00 4.2709088504312387e+00 2.1962887741297397e+01 1 0 0
644 36 1 -1.1500000000000000e-01 -1.0352715404894337e+01 5.9114168657373360e+00 2.7511236876065670e+01 1 0 0
631 36 7 -1.1500000000000000e-01 -8.6177130133908584e+00 5.2641291920235309e+00 2.2957129695654508e+01 1 0 0
635 36 1 -1.1500000000000000e-01 -7.9816167964980025e+00 4.0922525845262312e+00 2.3390160871964984e+01 1 0 0
628 35 2 1.1500000000000000e-01 -4.4423021074692164e+00 2.9964310316764946e+00 2.0337635686827596e+01 1 0 0
639 36 2 1.1500000000000000e-01 -7.6600990136684892e+00 3.4015370101419906e+00 2.2641765832306504e+01 1 0 0
283 16 4 -1.1500000000000000e-01 -1.4101167781571814e+01 9.4848814029815998e-01 2.6263204483233213e+01 1 0 0
4430 235 2 1.1500000000000000e-01 -6.6934772769003530e+00 1.2030374755845952e+00 2.0984452675607375e+01 1 1 0
4444 236 1 -1.1500000000000000e-01 -1.0376271387080028e+01 2.8873402948554328e-01 2.7824045189024840e+01 1 1 0
638 36 2 1.1500000000000000e-01 -1.0538509080001086e+01 7.3305289129577078e+00 2.5708097687946761e+01 1 0 0
633 36 3 0.0000000000000000e+00 -9.3938570131710755e+00 5.6861170780624839e+00 2.5245391327056726e+01 1 0 0
4437 236 2 1.1500000000000000e-01 -9.9806823666506226e+00 1.3001555233342033e+00 2.3894242101716152e+01 1 1 0
640 36 1 -1.1500000000000000e-01 -9.7416875540771244e+00 4.7159556156058828e+00 2.7918635711686068e+01 1 0 0
641 36 4 -1.1500000000000000e-01 -8.9632954389153952e+00 4.0094975408524220e+00 2.7042493087235311e+01 1 0 0
642 36 3 0.0000000000000000e+00 -8.8526261607680929e+00 4.4676686909759029e+00 2.5665812597091026e+01 1 0 0
643 36 4 -1.1500000000000000e-01 -8.0959301528913734e+00 3.6893275211824581e+00 2.4745707559261461e+01 1 0 0
622 35 1 -1.1500000000000000e-01 -5.4503566177363130e+00 4.7043655106195192e+00 2.0982555784206383e+01 1 0 0
646 36 2 1.1500000000000000e-01 -8.4589395350375653e+00 3.0770352160335572e+00 2.7322965503031597e+01 1 0 0
647 36 2 1.1500000000000000e-01 -7.6813776285619300e+00 2.7515579565787518e+00 2.5137783154188870e+01 1 0 0
756 36 6 0.0000000000000000e+00 -9.3041174037018326e+00 4.9505546035037575e+00 2.5367176751582907e+01 1 0 0
281 16 4 -1.1500000000000000e-01 -1.3370852892273984e+01 1.4551048143434513e+00 2.3979358799288292e+01 1 0 0
4434 236 4 -1.1500000000000000e-01 -1.0206594332747713e+01 8.0457231369955484e-01 2.6552357347445078e+01 1 1 0
285 16 2 1.1500000000000000e-01 -1.2588405312405499e+01 2.2275197278078998e+00 2.1984899324424159e+01 1 0 0
231 13 2 1.1500000000000000e-01 -1.6180522883399760e+01 2.1395928699409459e+00 2.9486111873853375e+01 1 0 -1
648 36 2 1.1500000000000000e-01 -1.1075944580606564e+01 6.3184017990825456e+00 2.8199400001812961e+01 1 0 0
4432 236 5 -1.1500000000000000e-01 -9.5521970217279701e+00 4.6687587903366712e-01 2.4277485359979124e+01 1 1 0
1039 56 2 1.1500000000000000e-01 -1.5146325863097756e+01 7.0904846708226072e+00 2.8183810219240755e+01 1 0 0
626 35 1 -1.1500000000000000e-01 -6.0472305318728328e+00 5.9661037410330664e+00 2.0702648496610092e+01 1 0 0
4448 236 2 1.1500000000000000e-01 -1.1082434748090328e+01 6.6419304866297191e-01 2.8563866320973432e+01 1 1 0
4426 235 1 -1.1500000000000000e-01 -6.1743286940466628e+00 4.6367198515767843e-01 2.0372832336836986e+01 1 1 0
276 16 2 1.1500000000000000e-01 -1.3977681489848646e+01 2.7304135516925165e+00 2.9166478090214664e+01 1 0 0
630 35 2 1.1500000000000000e-01 -6.6445996972855159e+00 6.2997378238356125e+00 2.1503381530980789e+01 1 0 0
1021 55 2 1.1500000000000000e-01 -1.0316284204553563e+01 6.2239379012286689e+00 2.0265454675229108e+01 1 0 0
637 36 2 1.1500000000000000e-01 -9.7380509768989061e+00 6.9403144846871774e+00 2.3512618057984771e+01 1 0 0
645 36 2 1.1500000000000000e-01 -9.9485183637213375e+00 4.2386061819885885e+00 2.8943547384606489e+01 1 0 0
1042 56 3 0.0000000000000000e+00 -1.3590421532224815e+01 7.7966860039997163e+00 2.5271532917584267e+01 1 0 0
1017 55 1 -1.1500000000000000e-01 -9.8517183696338453e+00 6.9710236093983848e+00 1.9684698119786166e+01 1 0 0
1035 56 1 -1.1500000000000000e-01 -1.4466537560138217e+01 7.6759156899027836e+00 2.7554572492139762e+01 1 0 0
1018 55 2 1.1500000000000000e-01 -9.2474858975562988e+00 8.1819439367085138e+00 2.1423642611479586e+01 1 0 0
1496 56 6 0.0000000000000000e+00 -1.3386543228756151e+01 8.4642782588705536e+00 2.5429169916815933e+01 1 0 0
1040 56 1 -1.1500000000000000e-01 -1.2693944733278482e+01 8.0156536212581457e+00 2.2990780402346193e+01 1 0 0
1041 56 4 -1.1500000000000000e-01 -1.3458276224904775e+01 7.3184191972198116e+00 2.3978597998606038e+01 1 0 0
1407 76 2 1.1500000000000000e-01 -8.5306106133755932e+00 8.7207814986205925e+00 2.4336028717246659e+01 1 0 0
1013 55 7 -1.1500000000000000e-01 -9.1750918326163617e+00 8.0590575471873915e+00 2.0314659384414973e+01 1 0 0
287 16 2 1.1500000000000000e-01 -1.4467933723110955e+01 -4.2624105964749595e-02 2.5975945566458016e+01 1 0 0
286 16 2 1.1500000000000000e-01 -1.3730743114446147e+01 4.8874210713831623e-01 2.3642677521424041e+01 1 0 0
4436 236 2 1.1500000000000000e-01 -9.0462810914860512e+00 1.4483631282567416e-01 2.2269709279653654e+01 1 1 0
1063 57 2 1.1500000000000000e-01 -8.8315073933846158e+00 7.8322031713872420e+00 2.9304455039027790e+01 1 0 -1
1031 56 7 -1.1500000000000000e-01 -1.3947791714092794e+01 8.8957180451229583e+00 2.7847670817874445e+01 1 0 0
979 53 3 0.0000000000000000e+00 -7.6089601476903912e-02 9.1251363028502723e+00 3.3489281710061145e+00 1 0 0
980 53 4 -1.1500000000000000e-01 5.7254680693063165e-01 1.0027380658960794e+01 2.4818404159131218e+00 1 0 0
984 53 2 1.1500000000000000e-01 1.1429850034691433e+00 1.0849162107711111e+01 2.8582495719381171e+00 1 0 0
1361 74 2 1.1500000000000000e-01 -1.2305436633086777e+00 1.3224636727324391e+01 8.4707487023657393e+00 1 0 0
990 53 1 -1.1500000000000000e-01 5.2335997893952457e-01 9.9354074446437153e+00 1.0484654124645361e+00 1 0 0
2253 93 6 0.0000000000000000e+00 -3.7679005795321108e-01 1.4237886820622824e+01 3.0094567279186526e+00 1 0 0
994 53 2 1.1500000000000000e-01 1.0810944701041920e+00 1.0690939721574962e+01 4.5364978779992038e-01 1 0 0
1741 93 1 -1.1500000000000000e-01 -1.7245992893924489e+00 1.3561574195719386e+01 4.8532443220676837e+00 1 0 0
978 53 5 -1.1500000000000000e-01 -1.5526757491367071e-01 9.2769634600533468e+00 4.7515484024916832e+00 1 0 0
983 53 2 1.1500000000000000e-01 2.5713779851665652e-01 1.0227582970195353e+01 5.1799549392872173e+00 1 0 0
1012 54 2 1.1500000000000000e-01 -2.1600839291040841e+00 9.4624085627400767e+00 7.8859813389738918e+00 1 0 0
1363 74 2 1.1500000000000000e-01 1.1009729559795867e+00 9.7060711277349316e+00 7.6494375689616838e+00 1 0 0
1745 93 2 1.1500000000000000e-01 -2.4141428323957128e+00 1.3001555848777913e+01 5.4981558597571860e+00 1 0 0
1342 73 2 1.1500000000000000e-01 4.7177811175991948e+00 1.1715736834011304e+01 -1.5048767501813184e-01 1 0 0
1338 73 5 -1.1500000000000000e-01 3.6503461858299087e+00 1.2288613151784483e+01 1.6390071560152304e+00 1 0 0
1339 73 3 0.0000000000000000e+00 3.4956290573212092e+00 1.1903185339487726e+01 3.0031705978877832e+00 1 0 0
1340 73 4 -1.1500000000000000e-01 2.8354659523501220e+00 1.2770615940631089e+01 3.9127451613933006e+00 1 0 0
1341 73 1 -1.1500000000000000e-01 5.0517627106539820e+00 1.0230699831673400e+01 1.3425701537885895e+00 1 0 0
1337 73 7 -1.1500000000000000e-01 4.5306968377341343e+00 1.1462363353651725e+01 8.8715993966989526e-01 1 0 0
1343 73 2 1.1500000000000000e-01 3.2263347492322558e+00 1.3239305113532611e+01 1.2439798087137868e+00 1 0 0
1348 73 3 0.0000000000000000e+00 3.9423902102367352e+00 1.0641569998359193e+01 3.4765538925748110e+00 1 0 0
1349 73 4 -1.1500000000000000e-01 4.6614926138346213e+00 9.7953569823068651e+00 2.5791962979217069e+00 1 0 0
1513 73 6 0.0000000000000000e+00 3.6920329137179979e+00 1.1287762945385939e+01 3.2516332387747959e+00 1 0 0
1356 74 5 -1.1500000000000000e-01 -6.7794562825127258e-01 1.2318184293809692e+01 8.8225610022111720e+00 1 0 0
1354 73 2 1.1500000000000000e-01 2.0410470936838863e+00 1.2993542646273543e+01 5.9473287515715620e+00 1 0 0
1346 73 1 -1.1500000000000000e-01 3.0241177951212466e+00 1.1135275632986977e+01 5.6645003783809527e+00 1 0 0
1347 73 4 -1.1500000000000000e-01 3.6466242431668654e+00 1.0242987585109750e+01 4.7742485246818376e+00 1 0 0
1350 73 1 -1.1500000000000000e-01 2.5505671116750661e+00 1.2362765777381712e+01 5.2268554838168111e+00 1 0 0
1351 73 2 1.1500000000000000e-01 2.9649783146380715e+00 1.0912071136343297e+01 6.7015092222966928e+00 1 0 0
1352 73 2 1.1500000000000000e-01 3.9989128607995315e+00 9.2564915762273650e+00 5.0652342401639521e+00 1 0 0
1345 73 2 1.1500000000000000e-01 5.7654857608906314e+00 9.7666519182506750e+00 6.9672866649191789e-01 1 0 0
1355 74 7 -1.1500000000000000e-01 -1.3855237358767880e-01 1.1446005591495103e+01 7.9116689169706653e+00 1 0 0
1359 74 1 -1.1500000000000000e-01 5.6267094122195260e-01 1.0345272828301116e+01 8.3880458332715211e+00 1 0 0
1360 74 2 1.1500000000000000e-01 -2.7962914994373600e-01 1.1566120130664174e+01 6.8389790259974266e+00 1 0 0
1747 93 4 -1.1500000000000000e-01 -5.8626835317539205e-01 1.3214416769631960e+01 1.2960900956546675e+00 1 0 0
1748 93 3 0.0000000000000000e+00 -6.3914862941704587e-01 1.3700084047102218e+01 2.6157481728955863e+00 1 0 0
1008 54 1 -1.1500000000000000e-01 -2.9940540330874854e+00 8.9998423729449559e+00 8.3407995557077346e+00 1 0 0
1746 93 1 -1.1500000000000000e-01 1.6400988870188971e-01 1.3969458817640836e+01 3.7833734988358048e-01 1 0 0
2105 113 2 1.1500000000000000e-01 5.3877559446808290e+00 1.5440931765008719e+01 1.0865608605224595e+00 1 0 0
1749 93 4 -1.1500000000000000e-01 -1.4763849754503253e+00 1.3031852499570297e+01 3.5657931342558560e+00 1 0 0