LAMMPS (15 May 2015)
Reading data file ...
  triclinic box = (-0.107635 -0.0404339 -0.357111) to (41.3876 35.9384 29.5551) with tilt (-0.0672341 -17.0362 -0.0417078)
  5 by 4 by 3 MPI processor grid
  reading atoms ...
  4560 atoms
  reading velocities ...
  4560 velocities
  scanning bonds ...
  3 = max bonds/atom
  scanning angles ...
  3 = max angles/atom
  scanning dihedrals ...
  8 = max dihedrals/atom
  scanning impropers ...
  1 = max impropers/atom
  reading bonds ...
  5040 bonds
  reading angles ...
  7200 angles
  reading dihedrals ...
  10560 dihedrals
  reading impropers ...
  2400 impropers
Finding 1-2 1-3 1-4 neighbors ...
 Special bond factors lj:   0          0          0         
 Special bond factors coul: 0          0          0         
  4 = max # of 1-2 neighbors
  8 = max # of 1-3 neighbors
  20 = max # of 1-4 neighbors
  16 = max # of special neighbors
4560 atoms in group all
720 atoms in group C
480 atoms in group S
1920 atoms in group H
720 atoms in group Si
240 atoms in group Na
240 atoms in group Ba
240 atoms in group O
4560 atoms in group naphthalene
1200 atoms in group fixed
960 atoms in group CO
Setting atom values ...
  720 settings made for charge
Setting atom values ...
  720 settings made for charge
Setting atom values ...
  1920 settings made for charge
Setting atom values ...
  480 settings made for charge
Setting atom values ...
  240 settings made for charge
Setting atom values ...
  240 settings made for charge
Setting atom values ...
  240 settings made for charge
Finding 1-2 1-3 1-4 neighbors ...
 Special bond factors lj:   0          0          0.5       
 Special bond factors coul: 0          0          0.5       
  4 = max # of 1-2 neighbors
  8 = max # of 1-3 neighbors
  20 = max # of 1-4 neighbors
  16 = max # of special neighbors
PPPM initialization ...
  G vector (1/distance) = 0.246499
  grid = 16 16 20
  stencil order = 5
  estimated absolute RMS force accuracy = 0.00242397
  estimated relative force accuracy = 7.2997e-06
  using double precision FFTs
  3d grid and FFT values/proc = 1053 112
Neighbor list info ...
  4 neighbor list requests
  update every 1 steps, delay 0 steps, check yes
  master list distance cutoff = 12
Setting up run ...
Memory usage per processor = 13.288 Mbytes
Step Temp Density PotEng E_vdwl E_tail E_coul E_long Press Volume Xy Xz Yz E_mol E_bond E_angle E_dihed 14[1] 14[2] 14[3] msd[4] msd2[4] msd3[4] msd4[4] naphthal Cella Cellb Cellc CellAlpha CellBeta CellGamma 27[2] 27[3] 28[1] 28[2] 28[3] 
       0          298    1.2509986    2087.5869   -1173.1339   -211.49952    2070.8667    -2308.979    790.88859    44657.537 -0.067234084   -17.036218 -0.041707817     3498.833    1521.0094     935.4334    889.67826    28.379601    18.846571    14.337846 2.3535127e-29 2.3910021e-29 2.7538641e-29 3.294809e-29          298     41.49527    35.978931    34.423473    90.016431    119.66323    90.107069    18.846182    14.337739    28.379557    18.849013    14.339638 
    1000    297.02056    1.2509986    1927.4485   -1206.1249   -211.49952    2071.7026   -2309.1106   -127.28014    44657.537 -0.067234084   -17.036218 -0.041707817    3370.9813    1482.7343    913.37786    825.03818    28.382848    18.845975    14.337426 0.00086696786 0.00086575599 0.00091310874 0.00091085798    297.02056     41.49527    35.978931    34.423473    90.016431    119.66323    90.107069    18.846327    14.336932    28.379088     18.84826    14.338428 
    2000    305.34026    1.2509986     1979.249   -1193.7111   -211.49952    2067.8797    -2309.626   -411.19604    44657.537 -0.067234084   -17.036218 -0.041707817    3414.7065    1514.1884    902.97001    847.80024     28.38034    18.844415    14.337389 0.00083762466 0.00083633668 0.00082473255 0.00082132773    305.34026     41.49527    35.978931    34.423473    90.016431    119.66323    90.107069    18.845285    14.338166    28.380231    18.847306    14.339831 
    3000    299.36785    1.2509986     2002.415   -1201.0177   -211.49952    2071.4788   -2309.4617    94.905958    44657.537 -0.067234084   -17.036218 -0.041707817    3441.4156    1506.3995    902.90234    880.27097    28.381035     18.84502    14.338211 0.0008620464 0.00086150014 0.00085587569 0.00085553123    299.36785     41.49527    35.978931    34.423473    90.016431    119.66323    90.107069    18.845915    14.338426    28.378987    18.849121    14.339546 
    4000    291.67586    1.2509986     2040.894   -1195.2445   -211.49952    2070.0092   -2309.5734   -426.27026    44657.537 -0.067234084   -17.036218 -0.041707817    3475.7027    1540.8034    893.91761    884.78197    28.380571    18.845726    14.337959 0.0008457751 0.00084521804 0.0008771377 0.0008750734    291.67586     41.49527    35.978931    34.423473    90.016431    119.66323    90.107069    18.846042     14.33802    28.379225    18.848272    14.340824 
    5000    296.13603    1.2509986    2033.5707   -1198.7085   -211.49952    2071.3192   -2309.3863    966.09188    44657.537 -0.067234084   -17.036218 -0.041707817    3470.3463    1509.5043    908.88268     892.1711    28.380238    18.844819     14.33729 0.00083846339 0.0008377887 0.00084515614 0.00084073824    296.13603     41.49527    35.978931    34.423473    90.016431    119.66323    90.107069    18.845777    14.337613    28.380905    18.847567     14.34035 
    6000     290.3139    1.2509986    1930.6236   -1205.8515   -211.49952     2072.981   -2309.2772   -392.53109    44657.537 -0.067234084   -17.036218 -0.041707817    3372.7713    1508.7143    862.39867    852.88649    28.380009    18.846662    14.338098 0.00084623967 0.00084602396 0.00080312312 0.00080162694     290.3139     41.49527    35.978931    34.423473    90.016431    119.66323    90.107069    18.845876    14.338071    28.379023    18.848373    14.340534 
    7000    301.43231    1.2509986     2085.789   -1197.6769   -211.49952    2073.7436   -2309.2412    118.14346    44657.537 -0.067234084   -17.036218 -0.041707817    3518.9636    1633.2083    903.17252     832.6084    28.379551     18.84441    14.337343 0.00081619631 0.00081561565 0.00082629787 0.00082219904    301.43231     41.49527    35.978931    34.423473    90.016431    119.66323    90.107069     18.84626    14.337121     28.37965    18.847361    14.338471 
    8000     295.0581    1.2509986    1994.5178   -1186.6096   -211.49952    2073.4429   -2309.1654    1425.8914    44657.537 -0.067234084   -17.036218 -0.041707817    3416.8498    1435.8021    945.16714     881.1977    28.380882    18.845295     14.33806 0.00085357859 0.00085279231 0.00085543878 0.00085067779     295.0581     41.49527    35.978931    34.423473    90.016431    119.66323    90.107069    18.846674    14.337492    28.381518     18.84806    14.339573 
    9000    298.96231    1.2509986    2001.2224    -1183.534   -211.49952    2071.6819   -2309.6967    1085.4292    44657.537 -0.067234084   -17.036218 -0.041707817    3422.7711    1539.6555    894.37511    840.93498    28.379309    18.845523    14.337464 0.00084632695 0.00084621654 0.0008495617 0.00084592562    298.96231     41.49527    35.978931    34.423473    90.016431    119.66323    90.107069    18.846362    14.337972    28.378444    18.850481    14.340131 
   10000    296.10829    1.2509986    2025.3324   -1202.7396   -211.49952    2073.6447   -2309.3937   -281.13352    44657.537 -0.067234084   -17.036218 -0.041707817     3463.821    1514.5415    912.20014     883.2873    28.378215    18.844824     14.33716 0.00082820353 0.00082803113 0.00085630263 0.00085297066    296.10829     41.49527    35.978931    34.423473    90.016431    119.66323    90.107069    18.845872    14.337892    28.378804      18.8486    14.341249 
   11000    294.48239    1.2509986    1979.5212   -1193.9768   -211.49952    2069.9089   -2309.3616   -32.228939    44657.537 -0.067234084   -17.036218 -0.041707817    3412.9508    1534.6003    892.81378    838.48485    28.378531    18.846304    14.336294 0.00085346371 0.00085203873 0.00084216069 0.00083637697    294.48239     41.49527    35.978931    34.423473    90.016431    119.66323    90.107069    18.845415    14.337082    28.378741    18.847007    14.338593 
   12000     295.2505    1.2509986    1939.3701   -1196.6728   -211.49952     2071.833   -2309.5396    268.17039    44657.537 -0.067234084   -17.036218 -0.041707817    3373.7495    1444.8907    924.31738    857.16793    28.380668    18.844948    14.337504 0.00086141754 0.00086120165 0.00073800469 0.00073758634     295.2505     41.49527    35.978931    34.423473    90.016431    119.66323    90.107069    18.846326    14.337668    28.379731    18.849561    14.339934 
   13000    296.48963    1.2509986    1998.8491   -1197.5168   -211.49952    2072.8005   -2309.2987    -1696.022    44657.537 -0.067234084   -17.036218 -0.041707817    3432.8642    1501.9463    945.95522    840.23864    28.377704    18.846787    14.337186 0.00083429042 0.00083398938 0.00080687399 0.00080669122    296.48963     41.49527    35.978931    34.423473    90.016431    119.66323    90.107069    18.846397    14.338241    28.379765    18.848722    14.339872 
   14000    298.32439    1.2509986    1994.2813   -1205.7792   -211.49952    2072.1375    -2309.323   -419.33493    44657.537 -0.067234084   -17.036218 -0.041707817     3437.246    1535.4948    917.91097    836.43964    28.381954    18.845425     14.33808 0.00085230247 0.00085174553 0.00080760158 0.00080630338    298.32439     41.49527    35.978931    34.423473    90.016431    119.66323    90.107069    18.845546     14.33751    28.379376    18.848872    14.338522 
   15000    301.15683    1.2509986     2005.372    -1185.592   -211.49952    2074.2391   -2309.0182    1458.8976    44657.537 -0.067234084   -17.036218 -0.041707817    3425.7432    1507.3928    899.16227    863.62375    28.378659    18.847354    14.336424 0.00085710727 0.00085577219 0.00082429593 0.00081807789    301.15683     41.49527    35.978931    34.423473    90.016431    119.66323    90.107069    18.847098     14.33706     28.37868      18.8507    14.338024 
   16000    301.45222    1.2509986    1975.2536    -1194.679   -211.49952    2072.6889   -2309.3787    764.55644    44657.537 -0.067234084   -17.036218 -0.041707817    3406.6225    1497.2779    907.98071    851.39546    28.378276    18.845655     14.33716 0.00086847766 0.00086827716 0.0008864718 0.00088387738    301.45222     41.49527    35.978931    34.423473    90.016431    119.66323    90.107069    18.846085    14.337561    28.380463    18.848147    14.338627 
   17000    293.78415    1.2509986    2065.7029   -1210.8723   -211.49952    2069.4946   -2309.2002   -1372.5281    44657.537 -0.067234084   -17.036218 -0.041707817    3516.2808     1516.527    951.04696    900.60328    28.378952    18.846254    14.338175 0.00083959852 0.00083906291 0.00083223605 0.0008284163    293.78415     41.49527    35.978931    34.423473    90.016431    119.66323    90.107069    18.846015    14.338452    28.378425    18.847699     14.34054 
   18000    294.64861    1.2509986     1962.189   -1217.5879   -211.49952      2073.71   -2309.0294   -1592.6428    44657.537 -0.067234084   -17.036218 -0.041707817    3415.0964    1547.8851    892.12012    832.05893    28.379989    18.845364    14.337614 0.00084063963 0.00084045422 0.00078455585 0.00078369846    294.64861     41.49527    35.978931    34.423473    90.016431    119.66323    90.107069    18.846102    14.337673    28.379359    18.849133    14.338742 
   19000    292.31528    1.2509986    1949.3807   -1194.6938   -211.49952     2072.729   -2309.3713   -145.11784    44657.537 -0.067234084   -17.036218 -0.041707817    3380.7168    1471.0599    915.08928    845.79086    28.382657    18.845045    14.337872 0.00085109639 0.00085089624 0.00080859395 0.00080421381    292.31528     41.49527    35.978931    34.423473    90.016431    119.66323    90.107069     18.84583     14.33747    28.380816    18.848338    14.338109 
   20000    297.86276    1.2509986    2035.2096    -1198.809   -211.49952    2072.4071   -2309.0027   -894.21813    44657.537 -0.067234084   -17.036218 -0.041707817    3470.6141    1509.1222    912.71857    891.12557    28.378964    18.845575    14.337139 0.00083910323 0.00083884436 0.00077401859 0.0007732021    297.86276     41.49527    35.978931    34.423473    90.016431    119.66323    90.107069    18.846226    14.337843    28.379107    18.848493    14.339051 
   21000    297.86578    1.2509986    1947.8607   -1202.8626   -211.49952    2073.5291   -2309.5489    1134.7012    44657.537 -0.067234084   -17.036218 -0.041707817    3386.7431    1505.7009    900.79888    835.49231    28.377901    18.846748    14.337331 0.0008330163 0.00083195149  0.000791315 0.00079060626    297.86578     41.49527    35.978931    34.423473    90.016431    119.66323    90.107069    18.846951    14.337962    28.379447    18.849657    14.339107 
   22000    295.61669    1.2509986    2032.8778   -1183.2278   -211.49952    2071.6592   -2309.6133     1693.844    44657.537 -0.067234084   -17.036218 -0.041707817    3454.0597    1515.1787     901.3562    883.31611    28.377501    18.844684    14.336368 0.00084596626 0.00084512364 0.00087231862 0.00086609289    295.61669     41.49527    35.978931    34.423473    90.016431    119.66323    90.107069    18.845586    14.337637    28.381852     18.84899    14.340615 
   23000     299.1708    1.2509986    1995.8529   -1180.5361   -211.49952    2073.2949   -2309.4913     220.6604    44657.537 -0.067234084   -17.036218 -0.041707817    3412.5853    1486.1782    909.60216    863.90277    28.378627     18.84641    14.337636 0.00087408784 0.00087390951 0.00085222243 0.00084692296     299.1708     41.49527    35.978931    34.423473    90.016431    119.66323    90.107069    18.846131    14.337533    28.379989    18.847457    14.337997 
   24000    298.84839    1.2509986    2002.2349   -1204.6555   -211.49952    2076.5666   -2308.9681    537.65713    44657.537 -0.067234084   -17.036218 -0.041707817    3439.2919    1500.3883    915.22915     872.9588    28.381861    18.845242    14.338357 0.0008674353 0.00086637041 0.00086255957 0.00085832039    298.84839     41.49527    35.978931    34.423473    90.016431    119.66323    90.107069     18.84708     14.33824    28.381127    18.850152    14.340328 
   25000    300.68754    1.2509986    2105.6073   -1184.0002   -211.49952    2073.6374   -2308.9022    496.76418    44657.537 -0.067234084   -17.036218 -0.041707817    3524.8723    1562.7903    934.63558     875.3522    28.379767    18.845524    14.337493 0.00086653864 0.00086634084 0.00080966607 0.00080839753    300.68754     41.49527    35.978931    34.423473    90.016431    119.66323    90.107069    18.846081     14.33746    28.380088    18.849346    14.338702 
   26000    295.56161    1.2509986    1977.1421   -1200.5768   -211.49952    2071.8405   -2309.7534    994.20528    44657.537 -0.067234084   -17.036218 -0.041707817    3415.6319    1552.2399     851.9258    863.60479    28.379664    18.846292    14.337277 0.00082971547 0.00082936269 0.00077272534 0.00076936129    295.56161     41.49527    35.978931    34.423473    90.016431    119.66323    90.107069    18.845642    14.337558    28.379873    18.847277     14.34014 
   27000     300.0209    1.2509986     1998.723   -1181.1656   -211.49952    2069.5861    -2309.502    43.993781    44657.537 -0.067234084   -17.036218 -0.041707817    3419.8045    1474.9796     909.3094    881.02549    28.379574    18.845747    14.337309 0.00087351171 0.00087313139 0.00085229906 0.00085146979     300.0209     41.49527    35.978931    34.423473    90.016431    119.66323    90.107069    18.846027    14.338189    28.379925     18.84959    14.340239 
   28000    295.34718    1.2509986    2018.4461   -1181.7246   -211.49952    2073.8446   -2309.3501    1226.4423    44657.537 -0.067234084   -17.036218 -0.041707817    3435.6763    1556.9454    900.67979    834.32697    28.380964    18.845353    14.338693 0.00088655862 0.00088574716 0.00082157502 0.00081729069    295.34718     41.49527    35.978931    34.423473    90.016431    119.66323    90.107069    18.846398    14.338497    28.378929    18.848641    14.341575 
   29000     297.4299    1.2509986    2051.7359   -1197.8479   -211.49952    2073.1323   -2309.3394    934.17221    44657.537 -0.067234084   -17.036218 -0.041707817    3485.7908    1566.7377    897.36983    867.56372    28.380538    18.845686    14.337841 0.00085350082 0.00085301297 0.00077684659 0.00077457354     297.4299     41.49527    35.978931    34.423473    90.016431    119.66323    90.107069    18.846449     14.33809    28.380937    18.849615    14.339573 
   30000    296.85044    1.2509986    1978.1094   -1188.7792   -211.49952    2066.5922   -2309.6118   -701.88792    44657.537 -0.067234084   -17.036218 -0.041707817    3409.9082    1501.0061    879.74012     873.1729    28.379369    18.845956    14.337707 0.00086070294 0.00086064564 0.00086592111 0.00086493212    296.85044     41.49527    35.978931    34.423473    90.016431    119.66323    90.107069    18.845988    14.337879    28.379873    18.849547    14.338861 
   31000    294.87379    1.2509986    1969.1548   -1205.2764   -211.49952    2068.9863   -2309.6362   -605.74013    44657.537 -0.067234084   -17.036218 -0.041707817     3415.081    1550.2675    869.43989    851.48547    28.378867    18.846412    14.337255 0.00083815109 0.00083770115 0.00084022554 0.00083570668    294.87379     41.49527    35.978931    34.423473    90.016431    119.66323    90.107069    18.846742    14.337695    28.380376    18.849786    14.341441 
   32000    295.57386    1.2509986    1998.2368   -1193.3879   -211.49952    2075.2316   -2309.5641    704.24504    44657.537 -0.067234084   -17.036218 -0.041707817    3425.9572    1473.3102    933.33138    869.32661    28.379103    18.845875    14.336967 0.00083362557 0.00083335855 0.00085548677 0.00085112223    295.57386     41.49527    35.978931    34.423473    90.016431    119.66323    90.107069    18.845748     14.33759    28.380877    18.847707    14.340595 
   33000    296.06561    1.2509986    2047.3632   -1192.9063   -211.49952     2075.083   -2308.8378    773.80778    44657.537 -0.067234084   -17.036218 -0.041707817    3474.0243    1532.9278    924.12412    863.85419     28.37729    18.845667    14.336753 0.0007986173 0.00079855987 0.00078408719 0.00077560685    296.06561     41.49527    35.978931    34.423473    90.016431    119.66323    90.107069    18.845943     14.33775    28.378546    18.846285     14.33977 
   34000    290.31002    1.2509986    2082.1398   -1182.3323   -211.49952    2073.7645   -2309.2199    899.89267    44657.537 -0.067234084   -17.036218 -0.041707817    3499.9276    1547.2378    913.08403    884.58225    28.380409    18.846341    14.337687 0.00085621889 0.00085614664 0.00084353267 0.00084322185    290.31002     41.49527    35.978931    34.423473    90.016431    119.66323    90.107069    18.846263    14.337814    28.379605    18.848502     14.33942 
   35000    296.67549    1.2509986    2027.1886   -1195.7655   -211.49952    2070.0615    -2309.573   -1190.9242    44657.537 -0.067234084   -17.036218 -0.041707817    3462.4655    1516.0578    917.76066     874.2389    28.378196    18.845031    14.336158 0.00085190858 0.00085162081 0.00085307021 0.00085192752    296.67549     41.49527    35.978931    34.423473    90.016431    119.66323    90.107069    18.845786    14.337411    28.379796    18.848008    14.339914 
   36000    289.25288    1.2509986      2040.87   -1178.5809   -211.49952    2071.6957   -2309.5527    369.57118    44657.537 -0.067234084   -17.036218 -0.041707817    3457.3079    1543.8164    891.43762    867.67593    28.381297    18.845661    14.338425 0.00084774548 0.0008471595 0.00088023812 0.00087707961    289.25288     41.49527    35.978931    34.423473    90.016431    119.66323    90.107069    18.846519    14.338239    28.378925    18.849067    14.341298 
   37000    298.02544    1.2509986     2069.299   -1177.8508   -211.49952     2071.775   -2309.7585    401.89877    44657.537 -0.067234084   -17.036218 -0.041707817    3485.1333    1493.0726    909.92891    924.36027    28.378387      18.8474    14.337404 0.00085306673 0.00085261104 0.00084036454 0.00083859537    298.02544     41.49527    35.978931    34.423473    90.016431    119.66323    90.107069    18.846753    14.337883    28.380096    18.847979    14.340277 
   38000    306.14038    1.2509986    1989.7245   -1190.2818   -211.49952    2069.5999   -2309.4971    670.75545    44657.537 -0.067234084   -17.036218 -0.041707817    3419.9036    1508.5721    921.00952    848.23395    28.382694    18.846382     14.33746 0.00087616384 0.00087426365 0.00097081202 0.00096614327    306.14038     41.49527    35.978931    34.423473    90.016431    119.66323    90.107069    18.845479    14.336674    28.380789    18.848021    14.338166 
   39000    299.97602    1.2509986    2005.6318   -1168.5072   -211.49952    2077.6689   -2308.7589    2566.1103    44657.537 -0.067234084   -17.036218 -0.041707817    3405.2291    1444.2621    919.22173    886.70349     28.37972    18.844226    14.338057 0.00084294998 0.00084241031 0.0008090174 0.00080784338    299.97602     41.49527    35.978931    34.423473    90.016431    119.66323    90.107069     18.84589    14.338255    28.379338    18.847988    14.339913 
   40000    288.40391    1.2509986    1959.2952   -1210.9976   -211.49952    2070.0229   -2309.0979   -2144.3822    44657.537 -0.067234084   -17.036218 -0.041707817    3409.3678    1523.0012    915.36827    825.56144    28.379478    18.846631    14.336564 0.00084104522 0.00084048256 0.00078860117 0.00078726396    288.40391     41.49527    35.978931    34.423473    90.016431    119.66323    90.107069      18.8464    14.337301    28.380051    18.850037    14.339427 
   41000      300.279    1.2509986    1963.5131   -1223.5985   -211.49952    2072.6203   -2309.5279   -1188.9224    44657.537 -0.067234084   -17.036218 -0.041707817    3424.0191    1482.9255    882.75482      894.889    28.377967    18.846092    14.337205 0.0008547454 0.00085308464 0.00084736533 0.00084199827      300.279     41.49527    35.978931    34.423473    90.016431    119.66323    90.107069    18.846916    14.337994    28.377391    18.848409    14.339081 
   42000    303.12565    1.2509986    1961.9224   -1209.7444   -211.49952    2073.4419   -2309.4302    -605.0376    44657.537 -0.067234084   -17.036218 -0.041707817     3407.655    1490.3973    899.74559    865.26749    28.379838      18.8469    14.337666 0.00085389826 0.00085361732 0.00082207235 0.00081515256    303.12565     41.49527    35.978931    34.423473    90.016431    119.66323    90.107069    18.846233    14.338257    28.377915    18.847011    14.339172 
   43000    301.08669    1.2509986    2067.2324   -1196.4274   -211.49952    2070.5447   -2309.4799    220.30484    44657.537 -0.067234084   -17.036218 -0.041707817     3502.595     1567.562    902.78553    880.02529    28.379463    18.845163    14.337497 0.00086893478 0.00086878133 0.00089070503 0.00088638135    301.08669     41.49527    35.978931    34.423473    90.016431    119.66323    90.107069     18.84605    14.337801    28.378485    18.847231    14.339688 
   44000    293.07847    1.2509986    2075.9591   -1184.6956   -211.49952    2069.6344   -2309.5689   -554.03529    44657.537 -0.067234084   -17.036218 -0.041707817    3500.5891    1526.2554    933.29123    885.75455    28.379885    18.846002    14.337485 0.00085731256 0.00085677543 0.00080720896 0.00080594065    293.07847     41.49527    35.978931    34.423473    90.016431    119.66323    90.107069    18.846529    14.338048    28.380052    18.848686    14.340595 
   45000    300.34649    1.2509986    2026.4405   -1205.8639   -211.49952    2076.3544   -2309.1175    1119.0897    44657.537 -0.067234084   -17.036218 -0.041707817    3465.0675    1571.4319    874.78585    865.42207    28.379588    18.845238    14.337476 0.00084495896 0.00084494866 0.00085518645 0.00084869842    300.34649     41.49527    35.978931    34.423473    90.016431    119.66323    90.107069    18.846184    14.337785     28.38136    18.847393    14.340421 
   46000    295.89473    1.2509986    2047.7298   -1181.0892   -211.49952    2074.7768   -2309.3086     1137.851    44657.537 -0.067234084   -17.036218 -0.041707817    3463.3509    1554.4019    893.16306    864.31011    28.378387    18.847095    14.336871 0.0008548721 0.00085423317 0.00083553936 0.00083440188    295.89473     41.49527    35.978931    34.423473    90.016431    119.66323    90.107069    18.846618    14.337143    28.379156    18.848125    14.340072 
   47000    295.87422    1.2509986    2016.0734   -1195.2634   -211.49952    2071.0922   -2309.6208    244.47482    44657.537 -0.067234084   -17.036218 -0.041707817    3449.8654    1505.9068    937.21369    854.14011     28.37878    18.844801    14.337609 0.00084982795 0.00084915696 0.00088568727 0.00088217878    295.87422     41.49527    35.978931    34.423473    90.016431    119.66323    90.107069    18.846028    14.338541    28.380538    18.847464    14.340021 
   48000    302.43338    1.2509986    1995.3632   -1194.3147   -211.49952    2071.4135    -2309.239    -272.0646    44657.537 -0.067234084   -17.036218 -0.041707817    3427.5034    1514.0408    910.68431    854.54965    28.379957    18.844338    14.337833 0.00085294866 0.00085233457 0.00083863333 0.00083705383    302.43338     41.49527    35.978931    34.423473    90.016431    119.66323    90.107069    18.845673    14.338019    28.379311    18.848786     14.34085 
   49000    296.35376    1.2509986    1983.8433   -1192.3466   -211.49952    2071.9098   -2309.0317    566.40383    44657.537 -0.067234084   -17.036218 -0.041707817    3413.3118    1521.3976    870.27721    869.19278    28.379217    18.845668    14.337118 0.00086873028 0.00086774627 0.00089648224 0.00088618356    296.35376     41.49527    35.978931    34.423473    90.016431    119.66323    90.107069    18.845469    14.338138    28.377723     18.84679    14.341051 
   50000     302.0069    1.2509986    2092.6374   -1190.2392   -211.49952    2073.2631   -2309.1696   -40.073691    44657.537 -0.067234084   -17.036218 -0.041707817    3518.7831    1567.6597    954.26965    846.09981    28.379915    18.845844    14.337305 0.00086320562 0.00086312195 0.00082599865 0.00082410616     302.0069     41.49527    35.978931    34.423473    90.016431    119.66323    90.107069    18.846213    14.338024    28.378394    18.849223    14.340343 
   51000    293.46456    1.2509986    1983.9375   -1202.6362   -211.49952     2074.958   -2308.8275   -101.04688    44657.537 -0.067234084   -17.036218 -0.041707817    3420.4433    1486.6892    913.67806    870.87673    28.377897    18.845577    14.337967 0.00086206804 0.00086162313 0.00088818594 0.00088171535    293.46456     41.49527    35.978931    34.423473    90.016431    119.66323    90.107069    18.846339    14.338365    28.381308    18.848857    14.341476 
   52000    303.07596    1.2509986    2004.2264    -1178.345   -211.49952    2070.4307   -2309.4491    1612.9361    44657.537 -0.067234084   -17.036218 -0.041707817    3421.5897    1518.8256    877.73864    876.93732    28.380623    18.845947    14.337713 0.00080900427 0.00080871198 0.00079535145 0.00078951032    303.07596     41.49527    35.978931    34.423473    90.016431    119.66323    90.107069    18.845711     14.33749    28.379622    18.847663    14.341642 
   53000    298.51466    1.2509986    1991.9246   -1201.6438   -211.49952      2071.76   -2309.4396    406.43532    44657.537 -0.067234084   -17.036218 -0.041707817     3431.248    1534.4268     892.4501    858.59781    28.378974     18.84626    14.337641 0.0008596184 0.00085914458 0.00083679703 0.00083652259    298.51466     41.49527    35.978931    34.423473    90.016431    119.66323    90.107069    18.846754    14.337971    28.379332    18.849216    14.340066 
   54000    298.30188    1.2509986    1995.9012    -1204.716   -211.49952     2071.428   -2309.4294    68.278189    44657.537 -0.067234084   -17.036218 -0.041707817    3438.6186     1493.042    932.11517    863.45564    28.378577    18.846773    14.337898 0.00083410693 0.0008335189 0.00082356329 0.00082226707    298.30188     41.49527    35.978931    34.423473    90.016431    119.66323    90.107069    18.846106    14.338191    28.380556    18.849343    14.340073 
   55000    297.31238    1.2509986    1937.4093    -1184.299   -211.49952    2072.0345   -2309.3021    874.23713    44657.537 -0.067234084   -17.036218 -0.041707817     3358.976    1464.6814     907.0414    844.11945    28.379839    18.846462    14.337291 0.00081538687 0.00081388289 0.00087665362 0.00087114472    297.31238     41.49527    35.978931    34.423473    90.016431    119.66323    90.107069    18.845697    14.336627    28.380006    18.847627    14.337798 
   56000      296.175    1.2509986    1996.6813   -1194.6368   -211.49952     2074.107   -2309.1035    -124.6884    44657.537 -0.067234084   -17.036218 -0.041707817    3426.3146     1514.225    899.68211    863.12088     28.37926    18.844908    14.337832 0.0008711781 0.00087105818 0.00084725432 0.00084716189      296.175     41.49527    35.978931    34.423473    90.016431    119.66323    90.107069    18.845894    14.337907    28.379312    18.849052    14.339814 
   57000    296.40645    1.2509986    2070.7506   -1198.9744   -211.49952    2071.7302   -2309.3041    -983.7256    44657.537 -0.067234084   -17.036218 -0.041707817    3507.2989    1541.0113    912.97903    897.62945    28.379636    18.845355     14.33735 0.00090173662 0.0008993908 0.00090589204 0.0009032902    296.40645     41.49527    35.978931    34.423473    90.016431    119.66323    90.107069     18.84638    14.337997     28.38077    18.847951    14.339671 
   58000    295.27254    1.2509986    2042.9002   -1195.6503   -211.49952    2069.2378   -2309.1643   -185.45183    44657.537 -0.067234084   -17.036218 -0.041707817     3478.477    1536.9891    896.87608    890.74362    28.380854    18.844846    14.337669 0.00084799007 0.00084793503 0.00079617876 0.00078494097    295.27254     41.49527    35.978931    34.423473    90.016431    119.66323    90.107069       18.846     14.33779    28.378486     18.84607    14.340835 
   59000    299.46624    1.2509986    2048.1426   -1185.1187   -211.49952    2072.1374   -2309.4095    -356.2181    44657.537 -0.067234084   -17.036218 -0.041707817    3470.5334    1544.4099    905.70816    869.05789     28.38097    18.845276    14.337856 0.00081495618 0.00081414762 0.00089415241 0.00089122487    299.46624     41.49527    35.978931    34.423473    90.016431    119.66323    90.107069    18.846095    14.337641      28.3812    18.849442    14.339847 
   60000    304.99882    1.2509986    2036.6782   -1200.9591   -211.49952    2072.9241   -2309.4991   -524.44335    44657.537 -0.067234084   -17.036218 -0.041707817    3474.2123    1524.3197    929.59111    867.29977     28.37864    18.844571    14.337133 0.00085331443 0.0008525863 0.00085789511 0.00085690607    304.99882     41.49527    35.978931    34.423473    90.016431    119.66323    90.107069    18.845384    14.337572    28.379667    18.848027    14.339576 
   61000    296.99229    1.2509986     2039.001   -1212.2324   -211.49952    2072.2624   -2309.2498   -607.72608    44657.537 -0.067234084   -17.036218 -0.041707817    3488.2208    1564.7587    895.96382     874.6577    28.380572    18.848493    14.338201 0.00085190357 0.00084932415 0.00082307635 0.00082202074    296.99229     41.49527    35.978931    34.423473    90.016431    119.66323    90.107069    18.847768    14.337928    28.379953    18.849343    14.340526 
   62000    293.92441    1.2509986     2013.347   -1210.1125   -211.49952     2068.881   -2309.6903   -712.64359    44657.537 -0.067234084   -17.036218 -0.041707817    3464.2688    1546.6503    881.16153    877.51196    28.378041    18.844978    14.337343 0.00083338242 0.00083295905 0.00083909053 0.00083459959    293.92441     41.49527    35.978931    34.423473    90.016431    119.66323    90.107069    18.845999    14.337276    28.379447    18.847013    14.338946 
   63000    301.03984    1.2509986    2026.8615   -1195.0616   -211.49952     2072.178   -2309.1385    1481.3363    44657.537 -0.067234084   -17.036218 -0.041707817    3458.8836    1505.1774    915.75456    890.06236    28.380405     18.84653    14.337624  0.000860511 0.00086017154 0.00081841047 0.00081310452    301.03984     41.49527    35.978931    34.423473    90.016431    119.66323    90.107069     18.84672     14.33792    28.378118    18.849603    14.341338 
   64000      300.764    1.2509986    2054.6642   -1202.2674   -211.49952    2071.9491   -2309.3942    147.74649    44657.537 -0.067234084   -17.036218 -0.041707817    3494.3766    1532.8305    921.16845    886.73268    28.379262    18.845917     14.33798 0.00084256096 0.00084115225 0.00082887009 0.00082815608      300.764     41.49527    35.978931    34.423473    90.016431    119.66323    90.107069    18.846871    14.338311    28.379832    18.849091    14.340433 
   65000    300.04641    1.2509986    2008.5435   -1192.8649   -211.49952    2071.2306   -2309.5124    438.40215    44657.537 -0.067234084   -17.036218 -0.041707817    3439.6902    1487.1094    905.76194    887.81418    28.382593    18.846609    14.339228 0.00088821448 0.00088765311 0.00085998919 0.0008590528    300.04641     41.49527    35.978931    34.423473    90.016431    119.66323    90.107069    18.846262    14.338475    28.379856    18.848217    14.340101 
   66000     297.0267    1.2509986    1996.5225   -1209.8084   -211.49952    2070.1209   -2309.7073   -393.50261    44657.537 -0.067234084   -17.036218 -0.041707817    3445.9174    1524.4366    907.94297    869.06317    28.378756    18.845769    14.336978 0.00086853142 0.00086808315 0.0008786816 0.0008779733     297.0267     41.49527    35.978931    34.423473    90.016431    119.66323    90.107069    18.846509    14.337157     28.37947    18.848184    14.339519 
   67000    301.00196    1.2509986    1948.5963   -1193.8696   -211.49952    2068.9869   -2309.6662    224.58353    44657.537 -0.067234084   -17.036218 -0.041707817    3383.1453    1477.5663    932.18185    827.78137    28.379807     18.84338    14.337621 0.0007954557 0.00079446864 0.00072909218 0.00072891891    301.00196     41.49527    35.978931    34.423473    90.016431    119.66323    90.107069     18.84556    14.337789    28.379833    18.849276    14.339804 
   68000    298.82277    1.2509986    1972.6614   -1222.3961   -211.49952    2066.7576   -2309.4583   -1837.2189    44657.537 -0.067234084   -17.036218 -0.041707817    3437.7583    1516.5779    894.91169     871.1347      28.3791    18.845507    14.337737 0.0008563626 0.0008557996 0.00087924464 0.00087501189    298.82277     41.49527    35.978931    34.423473    90.016431    119.66323    90.107069    18.846658    14.337193    28.379514    18.849915     14.33779 
   69000     296.7469    1.2509986    2013.8972   -1190.9117   -211.49952    2073.6017   -2309.0171    1357.0291    44657.537 -0.067234084   -17.036218 -0.041707817    3440.2242    1513.8479     928.1302    850.41353    28.379368    18.844776    14.337013 0.00088003324 0.00087782553 0.00089680764 0.00089270532     296.7469     41.49527    35.978931    34.423473    90.016431    119.66323    90.107069    18.845365    14.336691    28.378605    18.847225    14.339669 
   70000    294.55777    1.2509986    1974.2339     -1205.52   -211.49952    2065.7025   -2309.8267   -759.08061    44657.537 -0.067234084   -17.036218 -0.041707817     3423.878    1563.8205    887.57718    828.03534    28.379294    18.847346     14.33761 0.00085162859 0.00085098969 0.00080033601 0.00079619889    294.55777     41.49527    35.978931    34.423473    90.016431    119.66323    90.107069    18.846099    14.338109    28.378469    18.848869    14.341351 
   71000    294.35931    1.2509986     2038.359   -1205.0805   -211.49952    2070.6563   -2309.4202   -1387.4961    44657.537 -0.067234084   -17.036218 -0.041707817    3482.2033    1590.7282    895.09898    852.48293    28.378614     18.84507    14.337422 0.00082334543 0.00082194353 0.00081666422 0.00081164943    294.35931     41.49527    35.978931    34.423473    90.016431    119.66323    90.107069    18.846923    14.338016    28.379953    18.850474    14.341288 
   72000    300.66896    1.2509986     1943.153    -1199.134   -211.49952      2070.54    -2309.819    493.83411    44657.537 -0.067234084   -17.036218 -0.041707817     3381.566    1502.8738    859.63641    869.33208    28.379067    18.847071    14.337252 0.00084561034 0.00084548938 0.0007788737 0.00077826547    300.66896     41.49527    35.978931    34.423473    90.016431    119.66323    90.107069    18.846337    14.337442    28.380155    18.849404    14.339325 
   73000    295.96981    1.2509986    2012.3245   -1185.9777   -211.49952    2071.5966   -2309.4177    938.76331    44657.537 -0.067234084   -17.036218 -0.041707817    3436.1232     1486.387     908.3416    887.25702    28.381404    18.844795    14.337468 0.00085119581 0.0008511091 0.0007766568 0.00077369789    295.96981     41.49527    35.978931    34.423473    90.016431    119.66323    90.107069    18.846087    14.337787    28.380724    18.850267    14.339484 
   74000    298.56785    1.2509986     2110.392   -1207.1923   -211.49952     2071.891   -2309.5486   -1204.9686    44657.537 -0.067234084   -17.036218 -0.041707817     3555.242    1582.8345    942.62812    876.37462    28.379831    18.844373    14.337478 0.00085456636 0.00085392948 0.00082045622 0.00081791736    298.56785     41.49527    35.978931    34.423473    90.016431    119.66323    90.107069    18.845953    14.338349     28.38057    18.848053    14.340406 
   75000    298.31321    1.2509986    1958.7384   -1200.2037   -211.49952    2072.1656   -2309.5214    244.95667    44657.537 -0.067234084   -17.036218 -0.041707817    3396.2979    1500.5582    872.04692    873.97745    28.380361    18.846176    14.337364 0.00088206209 0.00088194476 0.00093463846  0.000933679    298.31321     41.49527    35.978931    34.423473    90.016431    119.66323    90.107069     18.84635    14.337973    28.379611     18.84843    14.340423 
   76000    299.01615    1.2509986    2028.0782   -1186.5563   -211.49952    2073.2167   -2309.4308    265.19776    44657.537 -0.067234084   -17.036218 -0.041707817    3450.8485    1546.9143    926.90686     831.4134    28.379826    18.845212    14.337414 0.00086438164 0.00086437028 0.00090424639 0.0009031432    299.01615     41.49527    35.978931    34.423473    90.016431    119.66323    90.107069    18.846098    14.337773     28.38019    18.848739     14.34043 
   77000    299.97783    1.2509986    1963.1875   -1230.0672   -211.49952    2076.4424   -2309.4638   -1429.5833    44657.537 -0.067234084   -17.036218 -0.041707817    3426.2762    1571.4799    867.46601    840.01963    28.379597    18.845701    14.337717 0.00085141756 0.0008512055 0.00082444946 0.00082251001    299.97783     41.49527    35.978931    34.423473    90.016431    119.66323    90.107069    18.846346    14.337451    28.380839    18.849464    14.339337 
   78000    301.87744    1.2509986    2003.9331   -1197.2325   -211.49952    2070.0331   -2309.4975   -225.96262    44657.537 -0.067234084   -17.036218 -0.041707817    3440.6301    1517.2561    911.52365    866.55935    28.379384    18.845134    14.336625 0.00086639564 0.00086618185 0.00084832847 0.00084569865    301.87744     41.49527    35.978931    34.423473    90.016431    119.66323    90.107069     18.84583     14.33757    28.378293    18.849259    14.340625 
   79000    294.86066    1.2509986    2032.9386   -1192.7774   -211.49952    2071.6795   -2309.1732    596.74107    44657.537 -0.067234084   -17.036218 -0.041707817    3463.2097    1520.1464    913.79971    879.61933    28.379416    18.845913    14.337659 0.00087123205 0.00086898468 0.00086148643 0.00085920268    294.86066     41.49527    35.978931    34.423473    90.016431    119.66323    90.107069    18.845731    14.338242    28.380908    18.848456    14.340021 
   80000    289.47648    1.2509986    2028.7835   -1193.9811   -211.49952    2069.2966   -2309.4577   -140.88784    44657.537 -0.067234084   -17.036218 -0.041707817    3462.9257    1535.9568    889.76228    885.10364    28.382017    18.845542    14.338518 0.00085309145 0.00085288214 0.00078876851 0.00078753553    289.47648     41.49527    35.978931    34.423473    90.016431    119.66323    90.107069    18.846566    14.337862    28.379461    18.850099    14.339849 
   81000    295.19183    1.2509986    2001.9825   -1206.4865   -211.49952    2074.9889   -2309.2971   -349.48372    44657.537 -0.067234084   -17.036218 -0.041707817    3442.7773     1540.521    897.19556     855.2206    28.379646    18.846129     14.33772 0.00083969077 0.00083947934 0.00083712171 0.00083481539    295.19183     41.49527    35.978931    34.423473    90.016431    119.66323    90.107069    18.846034    14.338016     28.38062    18.848586    14.340635 
   82000    293.87655    1.2509986     1981.344    -1212.393   -211.49952    2069.9253   -2308.9455   -1518.9404    44657.537 -0.067234084   -17.036218 -0.041707817    3432.7571    1541.6505    891.44692    854.99116    28.381098    18.844261    14.337441 0.0008425534 0.00084149072   0.00088276 0.00087315128    293.87655     41.49527    35.978931    34.423473    90.016431    119.66323    90.107069    18.845762    14.337491    28.381512    18.846965    14.340899 
   83000    299.84984    1.2509986    1975.9214   -1194.1509   -211.49952    2071.9902   -2309.2702    182.73998    44657.537 -0.067234084   -17.036218 -0.041707817    3407.3524    1528.6184    859.95441    873.90657    28.380992      18.8436    14.337797 0.00083984255 0.00083823967 0.00087792236 0.00086938683    299.84984     41.49527    35.978931    34.423473    90.016431    119.66323    90.107069    18.845207    14.337754    28.381059     18.84727    14.341438 
   84000    292.62555    1.2509986    2026.7133   -1207.6161   -211.49952    2071.4389   -2309.4048   -1587.2296    44657.537 -0.067234084   -17.036218 -0.041707817    3472.2954    1521.6934    925.63414    873.33177    28.379813    18.845863    14.337051 0.0008522615 0.00085191031 0.00083889992 0.00083800944    292.62555     41.49527    35.978931    34.423473    90.016431    119.66323    90.107069    18.846179    14.337311     28.37902    18.849112    14.338868 
   85000    299.56894    1.2509986    1928.6849   -1204.7902   -211.49952    2071.6839   -2309.1418   -38.415421    44657.537 -0.067234084   -17.036218 -0.041707817    3370.9331     1495.922    900.78221    829.66018    28.376544    18.846865    14.337689 0.00083377466 0.00083112303 0.00083043176 0.00082918583    299.56894     41.49527    35.978931    34.423473    90.016431    119.66323    90.107069     18.84708    14.338498    28.380274    18.848873    14.340482 
   86000     298.8038    1.2509986    2036.1025   -1171.0838   -211.49952    2073.4879   -2309.1974    761.24799    44657.537 -0.067234084   -17.036218 -0.041707817    3442.8958    1545.9401    851.14015    890.31693    28.380236    18.845563    14.338329 0.00086108954 0.00085954563 0.00087698152 0.00087063541     298.8038     41.49527    35.978931    34.423473    90.016431    119.66323    90.107069     18.84513    14.338209    28.378419    18.847024    14.340685 
   87000    301.59243    1.2509986    2012.9383   -1197.3506   -211.49952    2072.6705   -2309.5953   -630.10327    44657.537 -0.067234084   -17.036218 -0.041707817    3447.2137     1527.206    888.84501    879.71641     28.38002    18.846184    14.337818 0.0008308897 0.00083083582 0.00082598153 0.00082044828    301.59243     41.49527    35.978931    34.423473    90.016431    119.66323    90.107069     18.84633    14.337692    28.380105    18.848789    14.341915 
   88000    298.93705    1.2509986    1961.0247   -1200.2464   -211.49952    2067.5647   -2309.2588    523.51025    44657.537 -0.067234084   -17.036218 -0.041707817    3402.9651      1496.87    894.29058    864.51568    28.381618    18.844698    14.337959 0.00085641294 0.00085629103 0.00080081201 0.00079695904    298.93705     41.49527    35.978931    34.423473    90.016431    119.66323    90.107069    18.845982    14.338024    28.379661    18.847375    14.340715 
   89000    296.34184    1.2509986    2008.2414   -1216.7884   -211.49952    2068.9966   -2309.6839   -1662.1985    44657.537 -0.067234084   -17.036218 -0.041707817    3465.7171    1556.3052    887.05498    872.74283    28.382477    18.844615    14.337643 0.00084392649 0.00084340718 0.00082582913 0.00082327867    296.34184     41.49527    35.978931    34.423473    90.016431    119.66323    90.107069    18.846373    14.337285    28.380567    18.848519    14.338505 
   90000    297.40729    1.2509986    2049.8109    -1196.286   -211.49952      2071.95   -2309.3971    313.84345    44657.537 -0.067234084   -17.036218 -0.041707817    3483.5441    1554.6623    910.79904    869.98159    28.378007    18.845155    14.337594 0.00085390505 0.00085356068 0.00087052982 0.00086834039    297.40729     41.49527    35.978931    34.423473    90.016431    119.66323    90.107069    18.846374     14.33828    28.378419    18.849393    14.340505 
   91000    294.98175    1.2509986    2043.1691   -1197.7759   -211.49952    2074.0586   -2309.2965   -224.05681    44657.537 -0.067234084   -17.036218 -0.041707817    3476.1829    1525.2655    919.02139    882.36435    28.380127    18.844877    14.337675 0.00088095978 0.00088038517 0.00084059258 0.00083839114    294.98175     41.49527    35.978931    34.423473    90.016431    119.66323    90.107069    18.845429    14.337698    28.379858    18.847608    14.339268 
   92000    294.75459    1.2509986    1945.1861   -1215.8986   -211.49952    2073.4486   -2309.1384   -928.32084    44657.537 -0.067234084   -17.036218 -0.041707817    3396.7745    1498.1421    909.77768    843.00682    28.379552    18.844117    14.337149 0.00085393625 0.00085296581 0.00092530286 0.00092411879    294.75459     41.49527    35.978931    34.423473    90.016431    119.66323    90.107069     18.84526    14.337414    28.379718    18.847974     14.33992 
   93000    289.35993    1.2509986    2066.0193   -1202.0847   -211.49952    2068.0307   -2309.5491   -1087.0917    44657.537 -0.067234084   -17.036218 -0.041707817    3509.6224    1509.5226    943.00959    894.90266    28.378872    18.844998    14.337024 0.00084322917 0.00084206671 0.0008599946 0.00085549259    289.35993     41.49527    35.978931    34.423473    90.016431    119.66323    90.107069    18.845155    14.338062    28.381328    18.848683    14.340758 
   94000    301.70087    1.2509986    2031.8252    -1188.118   -211.49952    2071.6581   -2309.3676    312.05873    44657.537 -0.067234084   -17.036218 -0.041707817    3457.6527    1546.2384     899.0972    861.17265     28.37931    18.845208     14.33727 0.00086144887 0.00086129735 0.00080792849 0.00080255685    301.70087     41.49527    35.978931    34.423473    90.016431    119.66323    90.107069    18.846409     14.33802    28.378487     18.84852    14.341634 
   95000    296.61219    1.2509986    1985.1233   -1202.9917   -211.49952    2070.2444   -2309.3047    -700.8867    44657.537 -0.067234084   -17.036218 -0.041707817    3427.1753    1500.5498    913.69899    861.10395     28.37983    18.845381    14.336595 0.00086171559 0.00086155593 0.00094849605 0.00094821715    296.61219     41.49527    35.978931    34.423473    90.016431    119.66323    90.107069    18.846095    14.337519    28.379809    18.849459    14.339765 
   96000    293.53167    1.2509986    1958.4844   -1195.3407   -211.49952    2070.0529   -2309.3112   -285.92555    44657.537 -0.067234084   -17.036218 -0.041707817    3393.0833    1503.6934    909.91545    836.06252    28.377224    18.845966    14.337249 0.00086221346 0.00086151944 0.00088911926 0.00088520585    293.53167     41.49527    35.978931    34.423473    90.016431    119.66323    90.107069    18.845805    14.338339    28.380221    18.848155    14.341292 
   97000    298.98363    1.2509986    2025.0455   -1200.0211   -211.49952    2069.6121   -2309.6386   -653.85339    44657.537 -0.067234084   -17.036218 -0.041707817    3465.0931    1567.7496     897.8066     847.2681     28.37839    18.846202    14.337145 0.00085688618 0.00085665771 0.00078875333 0.00078584456    298.98363     41.49527    35.978931    34.423473    90.016431    119.66323    90.107069    18.846659    14.337726    28.378003    18.849556    14.340087 
   98000    296.22839    1.2509986    2028.4935   -1183.2717   -211.49952    2074.4499   -2309.3287    837.37545    44657.537 -0.067234084   -17.036218 -0.041707817     3446.644    1538.9629    905.18114    857.12915    28.378859    18.846897    14.337497 0.00087529646 0.00087466246 0.00081515342 0.00081086725    296.22839     41.49527    35.978931    34.423473    90.016431    119.66323    90.107069    18.846886    14.337986    28.380477    18.848616     14.34145 
   99000    297.03536    1.2509986    2047.9664   -1191.3112   -211.49952    2073.6031   -2309.8824    790.50311    44657.537 -0.067234084   -17.036218 -0.041707817     3475.557    1552.7681    896.81912    872.38741    28.380441    18.845622    14.337863 0.0008377489 0.00083685793 0.00084111387 0.00083545315    297.03536     41.49527    35.978931    34.423473    90.016431    119.66323    90.107069    18.846307    14.337345    28.377645    18.849306    14.341024 
  100000    297.03269    1.2509986    1969.5955    -1218.652   -211.49952    2071.2195    -2309.319   -700.12398    44657.537 -0.067234084   -17.036218 -0.041707817    3426.3471    1519.7795    867.96695    882.46465    28.381456    18.844574    14.337812 0.00085833915 0.00085803016 0.00082170061 0.00081917921    297.03269     41.49527    35.978931    34.423473    90.016431    119.66323    90.107069    18.845819    14.337712    28.380446    18.847756    14.340024 
  101000    297.81083    1.2509986    1982.5382    -1176.081   -211.49952    2071.3584   -2309.3134    1547.6342    44657.537 -0.067234084   -17.036218 -0.041707817    3396.5742    1524.2678    900.53911     824.9313    28.379582    18.845993    14.338104 0.0008349481 0.00083465406 0.00082398536 0.00081732513    297.81083     41.49527    35.978931    34.423473    90.016431    119.66323    90.107069    18.846683    14.337719    28.378088    18.849465    14.337565 
  102000    290.27445    1.2509986    2028.6264   -1182.6965   -211.49952    2071.9558   -2309.6527    2090.9808    44657.537 -0.067234084   -17.036218 -0.041707817    3449.0199    1506.7532    892.32449    897.50533    28.381919    18.845537    14.338142 0.00088397346 0.00088353532  0.000846759 0.00084047351    290.27445     41.49527    35.978931    34.423473    90.016431    119.66323    90.107069    18.845862    14.338095    28.378365    18.847379    14.341121 
  103000    296.48719    1.2509986    2046.6598   -1175.9821   -211.49952    2068.5697   -2309.6651   -370.07054    44657.537 -0.067234084   -17.036218 -0.041707817    3463.7373    1562.8595    901.81372    850.21159    28.378441    18.844826    14.336577 0.0008504597 0.00084927045 0.00082236077 0.00081935399    296.48719     41.49527    35.978931    34.423473    90.016431    119.66323    90.107069    18.845716    14.337344     28.38088    18.849043    14.340758 
  104000    295.45771    1.2509986    2049.5735   -1188.6339   -211.49952    2072.3525   -2309.5125    130.36876    44657.537 -0.067234084   -17.036218 -0.041707817    3475.3674    1561.7528    921.30277    846.17434    28.380033    18.847351    14.337527 0.00088614428 0.00088401652 0.00094081376 0.00091886293    295.45771     41.49527    35.978931    34.423473    90.016431    119.66323    90.107069     18.84671    14.337154    28.376779    18.850298    14.336091 
  105000    295.60687    1.2509986    1973.7577   -1192.2613   -211.49952    2071.2908   -2309.6059    206.03515    44657.537 -0.067234084   -17.036218 -0.041707817    3404.3341    1530.5342    889.65316      838.446    28.380446    18.845521     14.33781 0.00084855068 0.00084714202 0.00086792162 0.00086367054    295.60687     41.49527    35.978931    34.423473    90.016431    119.66323    90.107069    18.845535    14.338272    28.379333    18.849854    14.341507 
  106000    297.79602    1.2509986    1964.2194   -1191.6986   -211.49952    2067.7864    -2309.909    868.10054    44657.537 -0.067234084   -17.036218 -0.041707817    3398.0406    1505.7773    890.26835    857.54987    28.380477    18.845343    14.337839   0.00083897 0.00083842041 0.00083212504 0.00082784314    297.79602     41.49527    35.978931    34.423473    90.016431    119.66323    90.107069    18.845894    14.337794    28.381566    18.848551    14.339468 
  107000    300.96049    1.2509986    1983.2421    -1195.977   -211.49952    2073.4269   -2309.3664    116.79602    44657.537 -0.067234084   -17.036218 -0.041707817    3415.1586    1523.2493    884.52879    854.71502    28.381973    18.845493    14.338461 0.0008893558 0.00088827437 0.00090573973 0.00090361186    300.96049     41.49527    35.978931    34.423473    90.016431    119.66323    90.107069    18.845777    14.338411    28.379939    18.849197    14.341034 
  108000    298.91758    1.2509986      1998.46   -1207.9927   -211.49952    2069.4336   -2309.4585   -234.80828    44657.537 -0.067234084   -17.036218 -0.041707817    3446.4775    1529.8118    904.98008    862.07401    28.379426    18.846437    14.336951 0.00082849823 0.00082801251 0.00076559321 0.00075829515    298.91758     41.49527    35.978931    34.423473    90.016431    119.66323    90.107069    18.845916    14.337133    28.381639    18.847341    14.340046 
  109000    297.45307    1.2509986    1982.7837   -1196.7999   -211.49952    2072.8429   -2309.2524     637.2901    44657.537 -0.067234084   -17.036218 -0.041707817    3415.9931    1504.0102    889.90033    876.02649    28.377847    18.844335     14.33688 0.00084803886 0.00084751636 0.00078659244 0.00078180666    297.45307     41.49527    35.978931    34.423473    90.016431    119.66323    90.107069    18.845712    14.337638    28.381537    18.848151    14.339987 
  110000    300.03162    1.2509986    2055.6988   -1172.1031   -211.49952    2075.8315    -2309.315    2185.6974    44657.537 -0.067234084   -17.036218 -0.041707817    3461.2855    1540.2891    895.76562    871.67977    28.378887    18.845154    14.336631 0.00086691804 0.00086607191 0.00081657703 0.00081616839    300.03162     41.49527    35.978931    34.423473    90.016431    119.66323    90.107069    18.846143    14.336896    28.379343    18.848732    14.339105 
  111000    298.11518    1.2509986    2026.5683   -1187.0047   -211.49952     2072.025   -2309.2749    677.58994    44657.537 -0.067234084   -17.036218 -0.041707817    3450.8228     1523.942    907.97364    867.19941    28.379507    18.844972     14.33728 0.00085763176 0.00085706471 0.00086960697 0.00086633693    298.11518     41.49527    35.978931    34.423473    90.016431    119.66323    90.107069    18.845525    14.337541    28.379371    18.848312    14.337982 
  112000    297.75411    1.2509986    1917.5429   -1199.6072   -211.49952    2069.5809   -2309.5186    779.35482    44657.537 -0.067234084   -17.036218 -0.041707817    3357.0877    1448.3845    894.02403    859.26989    28.380672    18.845754    14.337499 0.00082492573 0.00082442505 0.00085903946 0.00085749119    297.75411     41.49527    35.978931    34.423473    90.016431    119.66323    90.107069    18.846535    14.337572    28.380334    18.849771    14.339031 
  113000    293.15287    1.2509986     2040.158   -1198.8239   -211.49952    2074.2141    -2309.255    400.04964    44657.537 -0.067234084   -17.036218 -0.041707817    3474.0228     1516.458    914.14563    890.14675    28.379413     18.84473    14.337836 0.00085828589 0.00085798995 0.00087476905 0.00087072911    293.15287     41.49527    35.978931    34.423473    90.016431    119.66323    90.107069    18.845909    14.338001    28.377908    18.850056    14.340123 
  114000    297.07369    1.2509986     2017.076   -1189.7786   -211.49952    2072.3809   -2309.5517   -575.49263    44657.537 -0.067234084   -17.036218 -0.041707817    3444.0255       1552.3    883.82971     858.9291    28.380087    18.846322    14.337042 0.00083290664 0.00083202476 0.00081663322 0.0008162481    297.07369     41.49527    35.978931    34.423473    90.016431    119.66323    90.107069    18.847032     14.33745    28.379246    18.848507    14.339457 
  115000    298.89229    1.2509986    1960.1453   -1208.6885   -211.49952    2068.6959   -2309.5117   -528.55699    44657.537 -0.067234084   -17.036218 -0.041707817    3409.6497    1510.3864    864.04438    878.19539    28.381009    18.846046      14.3371 0.00083560973 0.00083441686 0.00078194164 0.00078074737    298.89229     41.49527    35.978931    34.423473    90.016431    119.66323    90.107069     18.84578    14.336934    28.380203    18.848798    14.338784 
  116000     292.8075    1.2509986    1969.7394   -1200.5453   -211.49952    2072.1247   -2309.4203    1117.5727    44657.537 -0.067234084   -17.036218 -0.041707817    3407.5803    1517.1391    898.29113    843.93239     28.37781    18.845281    14.337149 0.0008231804 0.00082310178 0.00080419892 0.00080204487     292.8075     41.49527    35.978931    34.423473    90.016431    119.66323    90.107069    18.846394    14.337869    28.380724    18.848692    14.340467 
  117000    294.47523    1.2509986    1989.5722   -1208.3859   -211.49952    2070.6598   -2309.3218   -562.61464    44657.537 -0.067234084   -17.036218 -0.041707817    3436.6201    1521.0837    900.06605    868.91178      28.3799    18.847318    14.337871 0.00082443696 0.00082376445 0.00074200479 0.00073011102    294.47523     41.49527    35.978931    34.423473    90.016431    119.66323    90.107069    18.845691    14.338152    28.377213    18.846555    14.339038 
  118000     299.7423    1.2509986    2017.5986   -1186.6834   -211.49952    2072.0118   -2309.2196    530.05085    44657.537 -0.067234084   -17.036218 -0.041707817    3441.4898    1496.2619    927.17622    865.79604    28.379084    18.846444    14.337876 0.00088111571 0.0008808657 0.00088615548 0.00088355144     299.7423     41.49527    35.978931    34.423473    90.016431    119.66323    90.107069    18.846518    14.337809    28.378477     18.84928    14.338468 
  119000     291.1563    1.2509986    2007.1735   -1194.2098   -211.49952    2073.7994   -2309.2641    827.79662    44657.537 -0.067234084   -17.036218 -0.041707817     3436.848    1507.4089    925.16044    858.73745     28.38067    18.843946    14.338009 0.00085029677 0.00084889795  0.000823121 0.00082173279     291.1563     41.49527    35.978931    34.423473    90.016431    119.66323    90.107069    18.845194    14.338105    28.379782     18.84805    14.340279 
  120000    291.89088    1.2509986    1957.0326   -1188.5137   -211.49952    2068.0902   -2309.7218   -490.47857    44657.537 -0.067234084   -17.036218 -0.041707817    3387.1779    1504.8229    893.84103    838.07958    28.381081    18.844363     14.33767 0.00082790309 0.00082634716 0.00084002473 0.00083395465    291.89088     41.49527    35.978931    34.423473    90.016431    119.66323    90.107069    18.845277    14.338348    28.379429     18.84919    14.342092 
  121000    297.22595    1.2509986    1968.3028   -1197.7677   -211.49952    2073.6477   -2309.4237    973.48654    44657.537 -0.067234084   -17.036218 -0.041707817    3401.8466     1487.297    894.96126    864.79569    28.380378    18.845143    14.337123 0.00084506309 0.00084471238 0.00085674163 0.00085354693    297.22595     41.49527    35.978931    34.423473    90.016431    119.66323    90.107069    18.846701    14.337752     28.37968    18.850065    14.338199 
  122000    298.67303    1.2509986    2052.8625   -1195.0663   -211.49952    2070.2887   -2309.3531   -561.55317    44657.537 -0.067234084   -17.036218 -0.041707817    3486.9932    1522.6641    898.68194    909.32821    28.382592    18.846958    14.338369 0.00084178015 0.00084102046 0.00080202243 0.00079359097    298.67303     41.49527    35.978931    34.423473    90.016431    119.66323    90.107069    18.846859    14.338058    28.378611    18.846846    14.337952 
  123000    297.66712    1.2509986    2060.0479    -1205.728   -211.49952    2073.7863   -2309.1926   -48.932994    44657.537 -0.067234084   -17.036218 -0.041707817    3501.1822    1562.5642     903.3447    881.75629    28.380018    18.847812      14.3378 0.00088812597 0.00088773633 0.00088200731 0.00087802561    297.66712     41.49527    35.978931    34.423473    90.016431    119.66323    90.107069    18.846357    14.337449    28.377884    18.848139     14.33899 
  124000    291.76847    1.2509986      2004.35   -1189.8271   -211.49952    2074.6996   -2309.3531    1211.5819    44657.537 -0.067234084   -17.036218 -0.041707817    3428.8306    1489.6758    912.93189    872.16297    28.377612    18.845812    14.336171 0.00085588355 0.00085481241 0.00086558988 0.00086003651    291.76847     41.49527    35.978931    34.423473    90.016431    119.66323    90.107069    18.846333    14.337197     28.38118    18.847912    14.338332 
  125000    305.60657    1.2509986    2052.7737   -1190.8284   -211.49952    2071.5488   -2309.8546    280.30981    44657.537 -0.067234084   -17.036218 -0.041707817    3481.9079     1540.916     932.7012     858.1566    28.380783     18.84682    14.338538 0.00084117163 0.00083900647 0.00078656434 0.00078454773    305.60657     41.49527    35.978931    34.423473    90.016431    119.66323    90.107069    18.847348    14.338614     28.37846     18.84972    14.340198 
  126000    300.20888    1.2509986    1926.1021   -1194.4114   -211.49952    2072.4101   -2309.4837    236.82135    44657.537 -0.067234084   -17.036218 -0.041707817     3357.587    1462.8202    917.49435    830.45983    28.378118    18.844727    14.336031 0.00084619894 0.00084456226 0.00082594723 0.00082174834    300.20888     41.49527    35.978931    34.423473    90.016431    119.66323    90.107069    18.845942    14.336486    28.379231      18.8493    14.337635 
  127000    297.39395    1.2509986    2042.4017    -1195.909   -211.49952    2075.3706   -2309.0932    136.88254    44657.537 -0.067234084   -17.036218 -0.041707817    3472.0334    1560.6957    901.47274     858.3679    28.380053    18.844207    14.337393 0.00083508735 0.00083500087 0.00076491411 0.00076310762    297.39395     41.49527    35.978931    34.423473    90.016431    119.66323    90.107069    18.846059    14.337478    28.380833    18.849077    14.340054 
  128000    294.96098    1.2509986    2005.3946   -1207.4516   -211.49952    2070.4393   -2309.1159   -926.38364    44657.537 -0.067234084   -17.036218 -0.041707817    3451.5229    1529.9845    890.19461    879.55306    28.379162    18.847471    14.336722 0.00088948734 0.00088831532 0.00091054981 0.00090631829    294.96098     41.49527    35.978931    34.423473    90.016431    119.66323    90.107069    18.846307    14.336803    28.379952    18.847084    14.339043 
  129000    297.43027    1.2509986    2022.7126    -1204.421   -211.49952    2068.9045   -2309.6414   -713.04595    44657.537 -0.067234084   -17.036218 -0.041707817    3467.8704    1566.9739    885.12259    866.33132    28.380872    18.845304    14.337832 0.00084104102 0.00084011217 0.00084680096 0.00084539902    297.43027     41.49527    35.978931    34.423473    90.016431    119.66323    90.107069    18.846564    14.338132    28.378961    18.849833    14.339026 
  130000    305.06653    1.2509986    2064.0837   -1201.5345   -211.49952    2073.4509   -2309.2272    4.8376187    44657.537 -0.067234084   -17.036218 -0.041707817    3501.3945    1573.8889    901.83314    875.97422    28.379326    18.845541    14.337784 0.00085773888 0.00085761244 0.00084133341 0.00084079102    305.06653     41.49527    35.978931    34.423473    90.016431    119.66323    90.107069    18.846362    14.337638    28.378825    18.849096    14.339647 
  131000    290.61689    1.2509986    2045.8805   -1190.6834   -211.49952    2073.0678   -2309.3545   -76.539541    44657.537 -0.067234084   -17.036218 -0.041707817    3472.8506    1525.2781    902.69581    889.54178    28.380636    18.844624    14.338252 0.0008540901 0.00085365684 0.0008942838 0.00088161261    290.61689     41.49527    35.978931    34.423473    90.016431    119.66323    90.107069    18.845647    14.337977    28.378397    18.845732    14.338887 
  132000    295.41599    1.2509986    1987.8667   -1198.0375   -211.49952    2071.1044   -2309.2294    521.79384    44657.537 -0.067234084   -17.036218 -0.041707817    3424.0291    1512.2535    921.00915    843.90717    28.381846     18.84571    14.337495 0.00085514226 0.00085497929 0.00085402655 0.00085203284    295.41599     41.49527    35.978931    34.423473    90.016431    119.66323    90.107069    18.846106    14.337349    28.379968    18.850341    14.339885 
  133000    306.36418    1.2509986    2005.2779   -1191.4822   -211.49952    2072.4428   -2309.0087    591.50687    44657.537 -0.067234084   -17.036218 -0.041707817    3433.3261    1460.0785    912.68541    906.40813    28.380685    18.846004    14.337726 0.00082303658 0.00082281694 0.00088503568 0.00088339648    306.36418     41.49527    35.978931    34.423473    90.016431    119.66323    90.107069    18.846372    14.337889    28.378426    18.849294    14.340169 
  134000    297.05624    1.2509986     1998.338   -1197.4367   -211.49952    2071.1109   -2309.7212   -643.28087    44657.537 -0.067234084   -17.036218 -0.041707817     3434.385    1514.3169    912.21259    856.88894    28.377667     18.84654    14.337473 0.00085000874 0.00084981509 0.00083455114 0.0008328643    297.05624     41.49527    35.978931    34.423473    90.016431    119.66323    90.107069    18.846563     14.33796    28.380397    18.848752    14.338683 
  135000    300.93782    1.2509986    1887.8244   -1196.1272   -211.49952    2070.0311   -2309.6417    866.36884    44657.537 -0.067234084   -17.036218 -0.041707817    3323.5622    1479.5829     835.1515    860.21485    28.380031    18.845454    14.337574 0.00083119209 0.00083085118 0.00080509498 0.00080435939    300.93782     41.49527    35.978931    34.423473    90.016431    119.66323    90.107069    18.845685    14.337541    28.379539    18.849687    14.340168 
  136000    295.73047    1.2509986    1998.5735   -1175.7074   -211.49952    2071.9691   -2309.5097    481.51117    44657.537 -0.067234084   -17.036218 -0.041707817    3411.8215    1501.3178    900.05128    857.72319    28.379199    18.845864    14.337189 0.00085818423 0.00085816065 0.00081787127 0.00081686371    295.73047     41.49527    35.978931    34.423473    90.016431    119.66323    90.107069     18.84611    14.337871    28.380436    18.848623    14.339926 
  137000    300.24165    1.2509986    1975.5078   -1201.3502   -211.49952    2074.4429   -2308.9898   -447.14636    44657.537 -0.067234084   -17.036218 -0.041707817    3411.4049    1504.5681    874.04021    881.41633    28.379934    18.847031    14.337513 0.00085339162 0.00085331868 0.00084213484 0.00083244682    300.24165     41.49527    35.978931    34.423473    90.016431    119.66323    90.107069    18.846059    14.337527     28.38181    18.847446    14.338171 
  138000    298.71981    1.2509986    1997.6186   -1190.3516   -211.49952    2067.2675   -2309.7579    389.01385    44657.537 -0.067234084   -17.036218 -0.041707817    3430.4606    1527.6972    892.61343    859.15429    28.379489    18.845725    14.338046 0.0008572272 0.00085703735 0.00080541445 0.00080348682    298.71981     41.49527    35.978931    34.423473    90.016431    119.66323    90.107069    18.846326    14.338055    28.378891    18.847977    14.338996 
  139000    299.56707    1.2509986    1924.7346   -1188.4015   -211.49952    2066.2586   -2309.6432   -691.61059    44657.537 -0.067234084   -17.036218 -0.041707817    3356.5207    1509.7043    843.69213    851.72711    28.379651    18.844837     14.33719 0.00085544162 0.00085426085 0.00093401209 0.00092612475    299.56707     41.49527    35.978931    34.423473    90.016431    119.66323    90.107069     18.84521    14.337334    28.377682    18.846936    14.339389 
  140000    289.96532    1.2509986    2092.0389   -1201.2934   -211.49952     2073.844   -2309.0566   -48.163562    44657.537 -0.067234084   -17.036218 -0.041707817    3528.5449    1545.6039    937.27905     894.0799    28.380178    18.845136    14.337747 0.00085740877 0.00085720676 0.00080332062 0.00080252018    289.96532     41.49527    35.978931    34.423473    90.016431    119.66323    90.107069    18.846544    14.337969    28.379256    18.849744    14.340057 
  141000    301.06791    1.2509986    2014.7037   -1211.9751   -211.49952    2075.0672   -2309.4356   -985.38239    44657.537 -0.067234084   -17.036218 -0.041707817    3461.0472    1564.7185    901.52076    846.86397    28.380822    18.844012    14.337495 0.00084405028 0.00084388026 0.00086866506 0.00086484996    301.06791     41.49527    35.978931    34.423473    90.016431    119.66323    90.107069    18.845965    14.337751    28.381012    18.847748    14.339327 
  142000    295.08518    1.2509986    2001.6551   -1206.6459   -211.49952    2072.8627   -2309.3824    848.06559    44657.537 -0.067234084   -17.036218 -0.041707817    3444.8208     1508.723    918.84472    869.63938    28.379085    18.845199    14.337134 0.00086388283 0.00086286583  0.000832894 0.00083188767    295.08518     41.49527    35.978931    34.423473    90.016431    119.66323    90.107069    18.845402    14.337144    28.380126    18.848396    14.339088 
  143000    305.04764    1.2509986    2009.3039   -1189.2975   -211.49952     2071.494   -2309.3681    1145.7536    44657.537 -0.067234084   -17.036218 -0.041707817    3436.4756    1552.4284    896.20726    838.77087    28.380831    18.845025     14.33736 0.00083316797 0.0008322525 0.00075303465 0.00075216699    305.04764     41.49527    35.978931    34.423473    90.016431    119.66323    90.107069    18.845917    14.337911     28.38013    18.848281    14.339581 
  144000     298.5655    1.2509986    2000.0875    -1202.782   -211.49952    2067.9389   -2309.6283    -431.1638    44657.537 -0.067234084   -17.036218 -0.041707817    3444.5589    1525.4901    906.07973    858.37114    28.379916    18.845626    14.338184 0.00085131592 0.00085101415 0.00088235009 0.00087778012     298.5655     41.49527    35.978931    34.423473    90.016431    119.66323    90.107069    18.846385    14.338207     28.37895    18.848851    14.341682 
  145000    296.45028    1.2509986    2003.4856   -1185.0369   -211.49952    2069.6812   -2309.6691    1313.0347    44657.537 -0.067234084   -17.036218 -0.041707817    3428.5104    1510.8458    918.14651    852.56766    28.379542    18.847868    14.337715 0.00082551301 0.00082476962 0.00083019032 0.0008279729    296.45028     41.49527    35.978931    34.423473    90.016431    119.66323    90.107069    18.846975     14.33766    28.378612    18.850094    14.340034 
  146000    296.07334    1.2509986    2042.2922   -1203.2927   -211.49952     2069.945   -2309.5843   -755.44434    44657.537 -0.067234084   -17.036218 -0.041707817    3485.2242    1510.7066    931.66286    890.97618    28.379653    18.845546     14.33755 0.00081148875 0.0008113415 0.00080127924 0.00080011713    296.07334     41.49527    35.978931    34.423473    90.016431    119.66323    90.107069    18.846105    14.337936    28.380243    18.848324    14.340104 
  147000    303.27401    1.2509986    2046.6855   -1197.0038   -211.49952    2071.4737   -2309.6469   -543.28973    44657.537 -0.067234084   -17.036218 -0.041707817    3481.8626    1527.7129    919.91502    879.40858    28.380235    18.845437    14.337473 0.00081479871 0.00081413343 0.00078449253 0.00078401516    303.27401     41.49527    35.978931    34.423473    90.016431    119.66323    90.107069    18.845817    14.337197    28.380135    18.848663    14.339497 
  148000     301.2494    1.2509986    1989.9344   -1210.2986   -211.49952    2070.1793   -2309.4272   -31.387168    44657.537 -0.067234084   -17.036218 -0.041707817    3439.4809    1528.5788    891.25567    868.91314    28.379469    18.845532    14.337689 0.00083570839 0.00083542638 0.00084312002 0.00084253681     301.2494     41.49527    35.978931    34.423473    90.016431    119.66323    90.107069    18.845819    14.338009    28.379802    18.848323    14.339855 
  149000    296.71975    1.2509986    2007.1323   -1187.0519   -211.49952    2071.7395   -2309.6582   -5.4800212    44657.537 -0.067234084   -17.036218 -0.041707817     3432.103    1531.6697    891.75424    864.36057    28.379057    18.845621    14.337127 0.00080632385 0.00080611106 0.00079363747 0.00079051815    296.71975     41.49527    35.978931    34.423473    90.016431    119.66323    90.107069    18.846329    14.337435     28.38092    18.847916      14.3394 
  150000    294.10764    1.2509986    2015.3787   -1207.5029   -211.49952     2071.457   -2309.5211   -383.87926    44657.537 -0.067234084   -17.036218 -0.041707817    3460.9457    1574.6452    876.54479     859.9933    28.381914    18.844801    14.338179 0.00082291141 0.00082267569 0.00085755932 0.00085461871    294.10764     41.49527    35.978931    34.423473    90.016431    119.66323    90.107069    18.846373    14.337549    28.377988    18.849017     14.34033 
  151000    302.90288    1.2509986    2002.4619   -1204.8786   -211.49952    2071.6216   -2309.5183   -778.24249    44657.537 -0.067234084   -17.036218 -0.041707817    3445.2372    1519.4599     887.6127    885.00416    28.379863    18.845851    14.337655 0.00087988243 0.00087936534 0.00084710956 0.00084702017    302.90288     41.49527    35.978931    34.423473    90.016431    119.66323    90.107069    18.845773    14.337201    28.379846    18.848942    14.339668 
  152000    295.47251    1.2509986    2034.6057   -1185.6484   -211.49952    2075.0114   -2309.3671    793.54033    44657.537 -0.067234084   -17.036218 -0.041707817    3454.6098    1522.1984    902.95878    877.53525    28.377941     18.84647    14.337143 0.00082326227 0.00082297995 0.0007909252 0.00078725193    295.47251     41.49527    35.978931    34.423473    90.016431    119.66323    90.107069     18.84617    14.338142     28.37988    18.847169    14.340049 
  153000    298.61526    1.2509986     1998.447   -1204.2538   -211.49952    2070.8494   -2309.1255     129.5377    44657.537 -0.067234084   -17.036218 -0.041707817    3440.9769    1517.4662    864.84657    902.07591    28.381294    18.844654    14.338031 0.00084443666 0.00084432528 0.00092059562 0.00091947588    298.61526     41.49527    35.978931    34.423473    90.016431    119.66323    90.107069    18.846127    14.337925    28.378878    18.849575    14.339052 
  154000    291.47962    1.2509986    2049.4562   -1205.9715   -211.49952    2070.8719   -2309.6767   -934.47848    44657.537 -0.067234084   -17.036218 -0.041707817    3494.2325    1560.4703    907.44154    877.46285    28.379244    18.846272    14.337666 0.00086675233 0.00086660441 0.0009531078 0.00095061509    291.47962     41.49527    35.978931    34.423473    90.016431    119.66323    90.107069    18.846044    14.338072    28.380058    18.848731    14.341108 
  155000    303.12426    1.2509986    2050.8612   -1186.2452   -211.49952    2075.2942   -2309.6355    1083.3255    44657.537 -0.067234084   -17.036218 -0.041707817    3471.4477    1538.5283    916.68248    864.72062    28.379734    18.844767    14.337131 0.00083347868 0.00083264095 0.00086510712 0.00086346523    303.12426     41.49527    35.978931    34.423473    90.016431    119.66323    90.107069    18.846108    14.337329    28.378766    18.848958    14.340645 
  156000    301.19388    1.2509986     1963.142    -1194.358   -211.49952    2071.2916    -2309.185   -199.26281    44657.537 -0.067234084   -17.036218 -0.041707817    3395.3934    1487.8332    911.20127    848.48114    28.377562    18.845891    14.335939 0.00085278917 0.00085214628 0.00087444609 0.00087213466    301.19388     41.49527    35.978931    34.423473    90.016431    119.66323    90.107069    18.846482    14.336997    28.378646    18.849886    14.338789 
  157000    297.36327    1.2509986    2057.2027   -1199.6609   -211.49952    2073.5647   -2309.4369   -23.358398    44657.537 -0.067234084   -17.036218 -0.041707817    3492.7358    1509.5517    936.19611    887.73983    28.379114    18.845079    14.337704 0.0008614329 0.00086092234 0.0008624688 0.00086113657    297.36327     41.49527    35.978931    34.423473    90.016431    119.66323    90.107069    18.846043    14.338271    28.378833    18.848278     14.33912 
  158000    305.76815    1.2509986    1966.1727    -1203.618   -211.49952    2074.1342   -2309.7903    673.68708    44657.537 -0.067234084   -17.036218 -0.041707817    3405.4469    1498.5704    891.71861     869.6907    28.378986    18.846569    14.336503 0.00085965218 0.00085747009 0.00085899203 0.00085293583    305.76815     41.49527    35.978931    34.423473    90.016431    119.66323    90.107069    18.847134    14.337223    28.377602     18.85048    14.339926 
  159000    295.56933    1.2509986    2020.0045   -1178.1382   -211.49952    2071.4656   -2309.6117    1247.0019    44657.537 -0.067234084   -17.036218 -0.041707817    3436.2888    1506.6508    918.73223    861.03751    28.379446    18.846063    14.338029 0.00082926644 0.00082893177 0.0009066007 0.00090606454    295.56933     41.49527    35.978931    34.423473    90.016431    119.66323    90.107069    18.846464    14.338207    28.379609    18.848792    14.340334 
  160000    308.45198    1.2509986    2095.2109   -1201.9775   -211.49952    2074.7441   -2308.9618   -84.333977    44657.537 -0.067234084   -17.036218 -0.041707817    3531.4061    1583.8417    934.18088    858.31061    28.380449    18.845762    14.337575 0.00085113053 0.00085105764 0.00081248283 0.00081172782    308.45198     41.49527    35.978931    34.423473    90.016431    119.66323    90.107069    18.846318    14.337642    28.379814    18.849491    14.340317 
  161000    302.37812    1.2509986    2011.4997   -1194.3697   -211.49952    2069.7202    -2309.833    166.27756    44657.537 -0.067234084   -17.036218 -0.041707817    3445.9822    1541.5512    892.39582    865.44382    28.380331    18.846286    14.337732 0.00085491759 0.0008535435 0.00075815016 0.0007541339    302.37812     41.49527    35.978931    34.423473    90.016431    119.66323    90.107069    18.846513    14.338209    28.381366     18.84836    14.340201 
  162000    291.31034    1.2509986     1999.948   -1201.7155   -211.49952    2075.9277   -2309.0096    614.18573    44657.537 -0.067234084   -17.036218 -0.041707817    3434.7454    1500.2373    918.59446    867.89108    28.380472    18.846128    14.337376 0.00084447936 0.00084317599 0.00081304662 0.00080689141    291.31034     41.49527    35.978931    34.423473    90.016431    119.66323    90.107069    18.846143     14.33822    28.380861    18.847867    14.341411 
  163000    300.60166    1.2509986    2000.5898   -1191.7509   -211.49952    2072.9834   -2309.2918    879.10025    44657.537 -0.067234084   -17.036218 -0.041707817    3428.6491    1505.0213    902.53257    870.38868      28.3795    18.846755    14.337801 0.00084067049 0.00084001489 0.00083140279 0.00083067648    300.60166     41.49527    35.978931    34.423473    90.016431    119.66323    90.107069    18.846289    14.338475     28.37926    18.848584    14.340312 
  164000      295.353    1.2509986    2028.5869   -1175.3251   -211.49952     2069.796    -2309.974    1266.8154    44657.537 -0.067234084   -17.036218 -0.041707817    3444.0901    1524.3339    905.57669     863.2751     28.37953    18.845523      14.3375 0.00086303196 0.00086260179 0.0008530748 0.00085001667      295.353     41.49527    35.978931    34.423473    90.016431    119.66323    90.107069    18.845653     14.33787    28.379674    18.848312    14.341236 
[...]
  961000     297.6957    1.2509986    2012.9453   -1198.2135   -211.49952     2071.933    -2309.052    231.68814    44657.537 -0.067234084   -17.036218 -0.041707817    3448.2778    1542.7966    895.62995    855.27179    28.376668    18.844976    14.336272 0.00084467545 0.00084428203 0.00082914615 0.00082470633     297.6957     41.49527    35.978931    34.423473    90.016431    119.66323    90.107069    18.846411     14.33773    28.378422    18.848144    14.341186 
  962000     297.8693    1.2509986    2012.2552   -1195.4142   -211.49952    2068.4371   -2309.8692    264.48142    44657.537 -0.067234084   -17.036218 -0.041707817    3449.1016    1548.3369    866.44532    879.28995     28.37891    18.845984    14.338387 0.00083193357 0.00083137974 0.00086570438 0.00086169823     297.8693     41.49527    35.978931    34.423473    90.016431    119.66323    90.107069    18.845887    14.338237    28.378628     18.84724     14.33967 
  963000     296.7749    1.2509986    2002.7719   -1182.9239   -211.49952    2074.2975    -2309.233    857.54667    44657.537 -0.067234084   -17.036218 -0.041707817    3420.6313    1534.7243    900.46474     838.9147    28.380208    18.844728    14.337198 0.00084353928 0.00084338773 0.00085338742  0.000846583     296.7749     41.49527    35.978931    34.423473    90.016431    119.66323    90.107069    18.846083    14.337394    28.379013    18.846463    14.339719 
  964000    303.14285    1.2509986    2013.0143   -1202.0843   -211.49952    2070.4216   -2309.5839   -264.93514    44657.537 -0.067234084   -17.036218 -0.041707817    3454.2609    1546.0288    914.33711    845.39917    28.379863    18.845026     14.33755 0.00089097957 0.00089009096 0.00088112795 0.00088088945    303.14285     41.49527    35.978931    34.423473    90.016431    119.66323    90.107069    18.845295    14.337452    28.379216    18.848725    14.339439 
  965000    288.22645    1.2509986    2024.4498   -1203.6347   -211.49952    2071.3379   -2309.6338     28.32642    44657.537 -0.067234084   -17.036218 -0.041707817    3466.3804    1511.6537     913.6424    884.81186    28.380311     18.84663    14.337555 0.0008338169 0.00083344026 0.00082082212 0.00081561392    288.22645     41.49527    35.978931    34.423473    90.016431    119.66323    90.107069    18.846338    14.338322    28.378462    18.847606    14.341063 
  966000    305.70254    1.2509986    1980.7997   -1205.7536   -211.49952    2070.0078   -2309.5191   -439.02722    44657.537 -0.067234084   -17.036218 -0.041707817    3426.0646    1493.7825    933.25671    849.24332    28.378225     18.84471    14.336914 0.00085726644 0.00085700203 0.00083939901 0.00083882734    305.70254     41.49527    35.978931    34.423473    90.016431    119.66323    90.107069     18.84583    14.338091    28.378992    18.848723    14.339228 
  967000    299.14928    1.2509986    2036.5752   -1190.0375   -211.49952    2071.0617   -2309.6639    585.31417    44657.537 -0.067234084   -17.036218 -0.041707817    3465.2149    1565.6836      917.182    837.44954    28.377652    18.844952    14.336664 0.00083952831  0.000838892 0.00084939171 0.00084770479    299.14928     41.49527    35.978931    34.423473    90.016431    119.66323    90.107069    18.846826      14.3373    28.378497    18.848308     14.33938 
  968000    295.48324    1.2509986    2055.3873   -1187.6979   -211.49952    2070.8071   -2309.6137    728.42777    44657.537 -0.067234084   -17.036218 -0.041707817    3481.8918    1554.6985    913.18974    867.63253    28.381268    18.844427    14.337459 0.00080933426 0.00080909581 0.00080023755 0.00079924465    295.48324     41.49527    35.978931    34.423473    90.016431    119.66323    90.107069    18.845871    14.337382    28.380537    18.848837    14.339598 
  969000    296.72858    1.2509986    1999.2601   -1183.5417   -211.49952    2071.0339   -2309.4651    358.78318    44657.537 -0.067234084   -17.036218 -0.041707817    3421.2331    1533.1838    874.77661    862.17805    28.381103    18.846862    14.338216 0.00085067319 0.00084922936 0.00081015704 0.00080948027    296.72858     41.49527    35.978931    34.423473    90.016431    119.66323    90.107069    18.846869    14.338525    28.380256    18.849145    14.339226 
  970000    288.85339    1.2509986    2097.4361   -1193.4295   -211.49952    2070.9047   -2309.7947    83.204545    44657.537 -0.067234084   -17.036218 -0.041707817    3529.7556    1534.1616    938.49191    896.30203    28.380018      18.8445    14.337698 0.00085146083 0.00085095259 0.00082058154 0.00081578425    288.85339     41.49527    35.978931    34.423473    90.016431    119.66323    90.107069    18.845546    14.337737    28.379543    18.847162    14.340809 
  971000    294.18822    1.2509986    2034.1545   -1168.4959   -211.49952    2072.5694   -2309.5418    1949.9289    44657.537 -0.067234084   -17.036218 -0.041707817    3439.6229    1526.4906     904.9746    857.13825    28.379869     18.84572    14.337725 0.00084825682 0.00084799894 0.00082470235 0.0008225746    294.18822     41.49527    35.978931    34.423473    90.016431    119.66323    90.107069      18.8463     14.33823    28.380364    18.848181    14.340523 
  972000    303.45483    1.2509986    1989.0348    -1187.424   -211.49952    2072.2028   -2309.8138    898.53976    44657.537 -0.067234084   -17.036218 -0.041707817    3414.0698    1495.2045    904.16476     863.3791    28.379221    18.846247    14.337064 0.0008507667 0.00085002181 0.00084480101 0.00084312588    303.45483     41.49527    35.978931    34.423473    90.016431    119.66323    90.107069    18.846396    14.336928    28.379368    18.848043    14.338802 
  973000    289.94081    1.2509986     2002.797   -1215.0021   -211.49952     2076.119   -2309.4369   -58.633511    44657.537 -0.067234084   -17.036218 -0.041707817    3451.1171    1526.4638    881.59772     891.5738    28.379195    18.845365    14.337822 0.00087522819 0.00087512255 0.00083042321 0.00082418197    289.94081     41.49527    35.978931    34.423473    90.016431    119.66323    90.107069    18.845913    14.337716    28.379937    18.846851    14.338446 
  974000    301.56928    1.2509986    1999.2749   -1207.0641   -211.49952    2071.2729   -2309.4179    462.26883    44657.537 -0.067234084   -17.036218 -0.041707817    3444.4839    1530.1539    894.18266    871.83831    28.381322    18.845584    14.337887 0.00083695006 0.00083658267 0.00081473247 0.00081298087    301.56928     41.49527    35.978931    34.423473    90.016431    119.66323    90.107069    18.845738    14.337831    28.380487    18.848208    14.340126 
  975000    295.94701    1.2509986    1955.9283   -1211.7602   -211.49952    2069.4888   -2309.3792    -1412.237    44657.537 -0.067234084   -17.036218 -0.041707817    3407.5789    1522.7589    884.76943    854.13043    28.379953    18.844948    14.337627 0.00084302374 0.00084180435 0.00078285429 0.00078278066    295.94701     41.49527    35.978931    34.423473    90.016431    119.66323    90.107069    18.845463    14.338103    28.379545    18.848763    14.339744 
  976000    304.09072    1.2509986    2012.3132   -1211.5139   -211.49952    2071.7193    -2309.125   -1686.6316    44657.537 -0.067234084   -17.036218 -0.041707817    3461.2327    1524.3693     918.8363    865.53444    28.381276    18.847572    14.337835 0.00082964016 0.00082887863 0.00079949742 0.00078696029    304.09072     41.49527    35.978931    34.423473    90.016431    119.66323    90.107069    18.847048    14.337757    28.377582    18.847778    14.342305 
  977000    297.55114    1.2509986    2127.4742   -1180.2644   -211.49952    2071.6569    -2309.375   -268.35306    44657.537 -0.067234084   -17.036218 -0.041707817    3545.4567    1585.3576    951.33397    857.52034     28.37957    18.844893     14.33741 0.00086464978 0.00086400587 0.00094459295 0.00093827732    297.55114     41.49527    35.978931    34.423473    90.016431    119.66323    90.107069    18.845814    14.337931    28.378398    18.847044    14.340687 
  978000    296.97922    1.2509986    2024.6655   -1194.5601   -211.49952    2068.2196   -2309.6205   -424.39287    44657.537 -0.067234084   -17.036218 -0.041707817    3460.6265    1525.2488    895.35234    888.25442    28.380365    18.844788    14.337624 0.00083750911 0.00083629206 0.00081949058 0.00081208343    296.97922     41.49527    35.978931    34.423473    90.016431    119.66323    90.107069    18.846195    14.337843    28.379705    18.846777    14.341183 
  979000    296.49715    1.2509986    1998.5431   -1193.7885   -211.49952     2070.709   -2309.2551    363.66105    44657.537 -0.067234084   -17.036218 -0.041707817    3430.8778    1520.2775    903.78043    852.78658    28.380569    18.845978    14.337707 0.0008490141 0.00084868755 0.00087881868 0.00087871197    296.49715     41.49527    35.978931    34.423473    90.016431    119.66323    90.107069     18.84648    14.337747    28.379564    18.848756    14.339437 
  980000    297.13556    1.2509986    1990.5073   -1173.4193   -211.49952    2071.3254   -2309.8728    1430.7115    44657.537 -0.067234084   -17.036218 -0.041707817    3402.4739    1532.0685    874.20934    849.90102    28.380359    18.845621     14.33781 0.00087430226 0.00087370485 0.00083992069 0.00083732182    297.13556     41.49527    35.978931    34.423473    90.016431    119.66323    90.107069     18.84585    14.337647    28.381102    18.848734    14.339274 
  981000    305.11081    1.2509986    2047.7749   -1189.2676   -211.49952     2071.481   -2309.2666    1357.0781    44657.537 -0.067234084   -17.036218 -0.041707817    3474.8281    1533.7162    914.51047    876.93715     28.38019    18.844684    14.338352 0.00082522857 0.00082448906 0.00080006336 0.00079421883    305.11081     41.49527    35.978931    34.423473    90.016431    119.66323    90.107069    18.845926    14.338134    28.380601    18.846966    14.338887 
  982000    293.56592    1.2509986    2096.3104   -1190.8808   -211.49952    2069.3712    -2309.115   -1220.7199    44657.537 -0.067234084   -17.036218 -0.041707817    3526.9349    1592.1932    909.45817    871.91045    28.379797    18.845842    14.337639 0.00085902496 0.00085865639 0.00082169412 0.00081734574    293.56592     41.49527    35.978931    34.423473    90.016431    119.66323    90.107069    18.846525     14.33748    28.378171    18.848587    14.338139 
  983000    302.74011    1.2509986    1971.5909   -1185.8292   -211.49952    2069.3204   -2309.5829    976.97295    44657.537 -0.067234084   -17.036218 -0.041707817    3397.6826    1513.4721    876.14817    857.72049    28.379601    18.844542     14.33679 0.00085172974 0.00085144304 0.00081802482 0.00081544893    302.74011     41.49527    35.978931    34.423473    90.016431    119.66323    90.107069    18.846485    14.337677    28.380345    18.847615    14.339667 
  984000    302.66244    1.2509986    1948.1167   -1208.6449   -211.49952    2075.1499   -2309.3491    772.43032    44657.537 -0.067234084   -17.036218 -0.041707817    3390.9609    1519.2951    871.29625    852.83725    28.378574    18.845914    14.337345 0.00082241099 0.00082226307 0.00075178525 0.00075036524    302.66244     41.49527    35.978931    34.423473    90.016431    119.66323    90.107069     18.84648    14.337656    28.379811    18.849976    14.338984 
  985000    307.01205    1.2509986    2012.6125   -1208.6626   -211.49952    2066.8695   -2309.7884   -1378.8333    44657.537 -0.067234084   -17.036218 -0.041707817     3464.194    1539.1041    890.81146    880.83573    28.377966     18.84601    14.336563 0.00083926124 0.0008380471 0.00077786113 0.0007759748    307.01205     41.49527    35.978931    34.423473    90.016431    119.66323    90.107069    18.847133    14.337427    28.380411    18.848162    14.338981 
  986000    298.42902    1.2509986    2015.1083   -1194.2312   -211.49952    2071.9556   -2309.1001   -524.82335    44657.537 -0.067234084   -17.036218 -0.041707817    3446.4841    1529.8693    900.72675    868.32588    28.378767     18.84495    14.337352 0.0008259105 0.00082526911 0.00083281418 0.00082967564    298.42902     41.49527    35.978931    34.423473    90.016431    119.66323    90.107069    18.846094     14.33702    28.381308    18.849127      14.3394 
  987000    299.89183    1.2509986    2037.9007   -1182.4721   -211.49952    2075.3985   -2309.1867    1188.6252    44657.537 -0.067234084   -17.036218 -0.041707817    3454.1611    1529.7023    888.88405    883.48065    28.379431    18.845822     14.33815 0.00085596736 0.00085501142 0.00085838415 0.00085644944    299.89183     41.49527    35.978931    34.423473    90.016431    119.66323    90.107069    18.845865     14.33865    28.378467    18.849178    14.338789 
  988000    296.12368    1.2509986    1926.2445   -1206.6487   -211.49952    2071.8496   -2309.3325   -82.645656    44657.537 -0.067234084   -17.036218 -0.041707817    3370.3761    1485.9313    870.28053    861.78749    28.378704    18.846307    14.337453 0.00086939428 0.00086909075 0.00087884598 0.00087642942    296.12368     41.49527    35.978931    34.423473    90.016431    119.66323    90.107069    18.845764     14.33808    28.378554    18.847998    14.340255 
  989000    296.15828    1.2509986    2015.4504   -1193.5362   -211.49952    2072.7783   -2309.3671    352.85112    44657.537 -0.067234084   -17.036218 -0.041707817    3445.5754    1543.6805     885.2557    867.06711     28.38059    18.846234    14.338015 0.00085919373 0.00085812119 0.00085649738 0.00085067611    296.15828     41.49527    35.978931    34.423473    90.016431    119.66323    90.107069    18.847045     14.33814    28.377486    18.849828    14.340571 
  990000    297.47809    1.2509986    1944.9494    -1170.851   -211.49952    2070.7698   -2309.7226    1867.2213    44657.537 -0.067234084   -17.036218 -0.041707817    3354.7531    1476.3983    907.45458    827.06135    28.377531    18.847434    14.336425 0.00087766199 0.00087694465 0.00094070066 0.00093975301    297.47809     41.49527    35.978931    34.423473    90.016431    119.66323    90.107069     18.84657    14.337033    28.379555    18.849573    14.338842 
  991000     298.7151    1.2509986    1944.7692   -1186.5307   -211.49952    2068.7886     -2309.55    751.82714    44657.537 -0.067234084   -17.036218 -0.041707817    3372.0614    1500.5397    899.25705    829.73117     28.38068    18.846139    14.337959 0.00082153496 0.00082075604 0.00078480363 0.00078121192     298.7151     41.49527    35.978931    34.423473    90.016431    119.66323    90.107069    18.845731    14.337644    28.380863    18.847668    14.339913 
  992000    295.67965    1.2509986    1973.7565   -1197.1252   -211.49952    2069.7511   -2309.4509    214.44893    44657.537 -0.067234084   -17.036218 -0.041707817    3410.5815    1516.2604    880.31219     861.7343    28.380135    18.845801    14.337899 0.00083261269 0.00083250424 0.00081560794 0.00081422024    295.67965     41.49527    35.978931    34.423473    90.016431    119.66323    90.107069    18.846305    14.337551    28.380619    18.848806    14.340102 
  993000    300.94643    1.2509986    2046.3967    -1189.941   -211.49952    2071.8865   -2309.2845    463.41669    44657.537 -0.067234084   -17.036218 -0.041707817    3473.7357    1560.4769    866.16463    895.89953    28.376156    18.846034    14.336858 0.00082588735 0.00082521432 0.00082569466 0.00082224453    300.94643     41.49527    35.978931    34.423473    90.016431    119.66323    90.107069    18.845987    14.338532    28.380121     18.84836    14.341283 
  994000    299.62168    1.2509986    2057.7124   -1206.0436   -211.49952    2073.2997   -2309.0707   -642.28905    44657.537 -0.067234084   -17.036218 -0.041707817     3499.527    1535.7194    919.28692    886.47306    28.376373    18.844893    14.336471 0.00081129079 0.00081030852 0.00078669246 0.00078281247    299.62168     41.49527    35.978931    34.423473    90.016431    119.66323    90.107069    18.845203    14.337737    28.380756    18.847473    14.339902 
  995000    294.22373    1.2509986    2040.5556   -1198.1989   -211.49952    2068.2881   -2309.5506   -960.23225    44657.537 -0.067234084   -17.036218 -0.041707817     3480.017    1507.5622    933.32463    884.07802    28.378265    18.844202    14.337199 0.00083131368 0.00083104802 0.0008532545 0.00085285421    294.22373     41.49527    35.978931    34.423473    90.016431    119.66323    90.107069    18.846057    14.337785    28.379809    18.849024    14.340218 
  996000    298.03081    1.2509986    1995.5544   -1203.6115   -211.49952     2074.834    -2309.142    682.38757    44657.537 -0.067234084   -17.036218 -0.041707817    3433.4738    1511.1885    909.25196    861.52272    28.380126    18.844911    14.338068 0.00085043509    0.0008502 0.00085711608 0.00085483045    298.03081     41.49527    35.978931    34.423473    90.016431    119.66323    90.107069    18.846555    14.337819    28.379885    18.848131    14.340822 
  997000    292.50266    1.2509986    1997.2264    -1188.284   -211.49952    2071.3525   -2309.5213    83.431501    44657.537 -0.067234084   -17.036218 -0.041707817    3423.6791    1505.4188    933.80865    838.17132    28.378843    18.846244    14.337619 0.00082014752 0.00081902811 0.00074891881 0.00074656114    292.50266     41.49527    35.978931    34.423473    90.016431    119.66323    90.107069    18.847145    14.337684    28.380301    18.850075    14.340459 
  998000     296.4377    1.2509986     1995.883   -1195.6303   -211.49952    2067.5023   -2310.0611   -445.88528    44657.537 -0.067234084   -17.036218 -0.041707817    3434.0721    1509.1634    938.61401    838.81105    28.379551    18.846442    14.337278 0.00078861696 0.00078835454 0.00079504156 0.00078903893     296.4377     41.49527    35.978931    34.423473    90.016431    119.66323    90.107069    18.846387    14.337936    28.377218    18.848384    14.339265 
  999000    301.57843    1.2509986    2012.0129   -1195.5037   -211.49952    2070.8489   -2309.0728   -344.74411    44657.537 -0.067234084   -17.036218 -0.041707817    3445.7405    1535.2201    901.91596    861.38248    28.379451    18.846592    14.336529 0.00086179011 0.00086083636 0.00085084126 0.00084897915    301.57843     41.49527    35.978931    34.423473    90.016431    119.66323    90.107069    18.847057    14.337306    28.380506    18.849991    14.339696 
 1000000    297.53836    1.2509986    2004.9006   -1199.1244   -211.49952    2072.0952   -2309.3215    292.81672    44657.537 -0.067234084   -17.036218 -0.041707817    3441.2514    1509.5508    915.90285    862.69317    28.379597     18.84555    14.337475 0.00086052895 0.00086041953 0.0008642577 0.00086291513    297.53836     41.49527    35.978931    34.423473    90.016431    119.66323    90.107069    18.846226     14.33756    28.379151    18.850009    14.340069 
Loop time of 3031.07 on 60 procs for 1000000 steps with 4560 atoms

Pair  time (%) = 543.594 (17.9341)
Bond  time (%) = 58.9777 (1.94577)
Kspce time (%) = 1588.87 (52.4194)
Neigh time (%) = 2.37039 (0.0782032)
Comm  time (%) = 575.44 (18.9847)
Outpt time (%) = 3.09657 (0.102161)
Other time (%) = 258.72 (8.53561)

Nlocal:    76 ave 85 max 68 min
Histogram: 1 1 17 4 11 10 7 5 3 1
Nghost:    3991.35 ave 4070 max 3886 min
Histogram: 3 8 5 4 1 4 5 14 12 4
Neighs:    28102.8 ave 31731 max 25366 min
Histogram: 2 5 11 11 9 8 8 5 0 1

Total # of neighbors = 1686168
Ave neighs/atom = 369.774
Ave special neighs/atom = 10.6316
Neighbor list builds = 1039
Dangerous builds = 0
System init for write_data ...
PPPM initialization ...
  G vector (1/distance) = 0.246499
  grid = 16 16 20
  stencil order = 5
  estimated absolute RMS force accuracy = 0.00242397
  estimated relative force accuracy = 7.2997e-06
  using double precision FFTs
  3d grid and FFT values/proc = 1053 112
