LAMMPS data file via write_data, version 15 May 2015, timestep = 2000000

4560 atoms
7 atom types
5040 bonds
3 bond types
7200 angles
2 angle types
10560 dihedrals
3 dihedral types
2400 impropers
1 improper types

-1.0763502675555259e-01 4.1387635026745990e+01 xlo xhi
-4.0433884491974936e-02 3.5938433884472119e+01 ylo yhi
-3.5711112484589691e-01 2.9555111124838550e+01 zlo zhi
-6.7234083837551181e-02 -1.7036217651000683e+01 -4.1707816797290791e-02 xy xz yz

Masses

1 12.0107
2 1.008
3 12.0107
4 12.0107
5 12.0107
6 12.0107
7 12.0107

Pair Coeffs # lj/cut/coul/cut

1 0 0
2 0 0
3 0 0
4 0 0
5 0 0
6 0 0
7 0 0

Bond Coeffs # harmonic

1 469 1.4
2 367 1.08
3 469 0.7

Angle Coeffs # harmonic

1 35 120
2 63 120

Dihedral Coeffs # opls

1 0 7.25 0 0
2 0 7.25 0 0
3 0 7.25 0 0

Improper Coeffs # cvff

1 2.5 -1 2

Atoms # full

219 13 3 0.0000000000000000e+00 -2.7322925414049570e-01 3.1241993209060097e+00 3.0978284774533584e+00 1 0 0
220 13 4 0.0000000000000000e+00 3.2698688016998823e-01 4.1254506249241594e+00 2.3311837215332822e+00 1 0 0
224 13 2 0.0000000000000000e+00 7.1396744295789816e-01 5.0376202033646305e+00 2.7661702250103475e+00 1 0 0
580 33 4 0.0000000000000000e+00 2.6840105886819390e+00 6.7486751744871398e+00 3.9808348435270133e+00 1 0 0
228 13 3 0.0000000000000000e+00 -4.7873897415815536e-01 1.8384309239902730e+00 2.5715378825372781e+00 1 0 0
989 53 4 0.0000000000000000e+00 -1.4044133117985527e+00 7.0307427155644069e+00 3.5039702080064021e+00 1 0 0
600 34 2 0.0000000000000000e+00 -1.5230344433343035e-02 5.7611544313809171e+00 6.8921091132095702e+00 1 0 0
245 14 4 0.0000000000000000e+00 -4.8956027211506896e+00 1.4148947012977533e+00 9.0550416864395888e+00 1 0 0
227 13 4 0.0000000000000000e+00 -1.7263418107685735e-01 1.5475606288219776e+00 1.2336345170396799e+00 1 0 0
4390 233 1 0.0000000000000000e+00 2.3427858345913810e+00 8.0429862748691339e-01 5.5961670457190493e+00 1 1 0
733 13 6 0.0000000000000000e+00 -4.3049911225978077e-01 2.4119578913074373e+00 2.9532096737957363e+00 1 0 0
1010 54 2 0.0000000000000000e+00 -5.0016061246688102e+00 6.1983702208138363e+00 8.6757304960869330e+00 1 0 0
230 13 1 0.0000000000000000e+00 5.9555754883165213e-01 3.8548866080405273e+00 1.0189123151512087e+00 1 0 0
217 13 7 0.0000000000000000e+00 -1.1605311421819131e+00 2.3431124449834395e+00 5.2188855460470416e+00 1 0 0
218 13 5 0.0000000000000000e+00 -5.9172338185637230e-01 3.3751967706474040e+00 4.4585464630401628e+00 1 0 0
221 13 1 0.0000000000000000e+00 -1.4840858568934687e+00 1.0598912144301103e+00 4.6787043374700401e+00 1 0 0
222 13 2 0.0000000000000000e+00 -1.3648329971912903e+00 2.5720993279813040e+00 6.2818785278065086e+00 1 0 0
223 13 2 0.0000000000000000e+00 -3.4236098151775618e-01 4.3018603979361529e+00 4.9404554152939175e+00 1 0 0
248 14 1 0.0000000000000000e+00 -3.7299564020918177e+00 3.5518988162786043e+00 8.6805607477296718e+00 1 0 0
4380 233 4 0.0000000000000000e+00 2.5551796820224451e+00 1.1315672846540992e+00 4.1967853594332913e+00 1 1 0
244 14 1 0.0000000000000000e+00 -4.2791999555552893e+00 2.3502355890853925e+00 8.2258057934009390e+00 1 0 0
603 34 2 0.0000000000000000e+00 1.0373802784271025e+00 3.4950910791464884e+00 7.6501077763471628e+00 1 0 0
4396 234 5 0.0000000000000000e+00 -7.3120236517194659e-01 2.3688653290262279e-01 9.2589294428124020e+00 1 1 0
4394 233 2 0.0000000000000000e+00 1.8225562733519656e+00 1.5145760145752747e+00 6.2849911125498501e+00 1 1 0
579 33 3 0.0000000000000000e+00 3.2180471248881148e+00 5.7396240973218884e+00 3.1986809429053258e+00 1 0 0
252 14 2 0.0000000000000000e+00 -3.2758722855706992e+00 4.2346581812389283e+00 8.0100942790081966e+00 1 0 0
581 33 1 0.0000000000000000e+00 4.4846137494835112e+00 3.9041968988234546e+00 1.5100662685096982e+00 1 0 0
596 34 5 0.0000000000000000e+00 -5.0125613918053968e-01 6.3277744289096454e+00 8.8832610478122724e+00 1 0 0
577 33 7 0.0000000000000000e+00 3.9319959422065587e+00 5.0969813409754998e+00 9.9271514374689440e-01 1 0 0
588 33 3 0.0000000000000000e+00 3.8152487958320673e+00 4.6452217595919096e+00 3.7509966175046774e+00 1 0 0
589 33 4 0.0000000000000000e+00 4.5192236933781098e+00 3.7422470320024850e+00 2.8770663763397604e+00 1 0 0
593 33 2 0.0000000000000000e+00 4.9651696290508109e+00 2.8942959307880805e+00 3.2620499898816817e+00 1 0 0
753 33 6 0.0000000000000000e+00 3.6332183859604865e+00 5.1901873281494852e+00 3.2981654390339732e+00 1 0 0
4383 233 2 0.0000000000000000e+00 3.0132671905558199e+00 1.4269088717205314e+00 1.5774961705864476e+00 1 1 0
4379 233 3 0.0000000000000000e+00 3.2668899222971808e+00 2.5617331218414136e-01 3.2842431742640703e+00 1 1 0
578 33 5 0.0000000000000000e+00 3.4598900794485896e+00 6.0791400199648304e+00 1.8320343704072930e+00 1 0 0
226 13 1 0.0000000000000000e+00 3.0018134019737647e-01 2.5733051619728471e+00 4.2781993149778619e-01 1 0 0
4384 233 2 0.0000000000000000e+00 2.1234815701205614e+00 2.0358368605670258e+00 3.8118066944928595e+00 1 1 0
586 33 1 0.0000000000000000e+00 3.2715628921547717e+00 5.4789741596515409e+00 5.9534706121580747e+00 1 0 0
587 33 4 0.0000000000000000e+00 3.7825545933524847e+00 4.4453668142328473e+00 5.1548041580366508e+00 1 0 0
585 33 2 0.0000000000000000e+00 4.9217253886728720e+00 3.0953653962554908e+00 9.3106716138530610e-01 1 0 0
591 33 2 0.0000000000000000e+00 3.4301017015703152e+00 5.4008172078595420e+00 7.0413208207347280e+00 1 0 0
592 33 2 0.0000000000000000e+00 4.0186704273445297e+00 3.5236061934829928e+00 5.6309651556582079e+00 1 0 0
590 33 1 0.0000000000000000e+00 2.8467940845891868e+00 6.6754983244271919e+00 5.3679309674521045e+00 1 0 0
2138 115 2 0.0000000000000000e+00 -3.7698595561348354e+00 1.7109106344638182e+01 1.4223519011431408e+01 1 0 0
234 13 2 0.0000000000000000e+00 1.2345467800551766e+00 4.5792219545566084e+00 4.5603599332006284e-01 1 0 0
229 13 4 0.0000000000000000e+00 -1.1640902765013998e+00 8.5731373955219425e-01 3.3188721611612388e+00 1 0 0
1758 94 4 0.0000000000000000e+00 -3.8130692470539307e+00 1.5916925702265713e+01 9.8137276164736278e+00 1 0 0
985 53 2 0.0000000000000000e+00 -1.8040951584390534e+00 6.4936127300526207e+00 5.5110177089541548e+00 1 0 0
599 34 1 0.0000000000000000e+00 5.2712002296130933e-01 4.1501519253825778e+00 8.3062426102263149e+00 1 0 0
4401 234 2 0.0000000000000000e+00 -9.9891604245527077e-01 1.1767414292162670e+00 8.9020386473615645e+00 1 1 0
225 13 2 0.0000000000000000e+00 -1.9591846779549476e+00 2.9867512826808695e-01 5.2852580270368454e+00 1 0 0
595 34 7 0.0000000000000000e+00 1.9509803549997429e-02 5.4100319246675701e+00 7.9397965718682784e+00 1 0 0
981 53 1 0.0000000000000000e+00 -1.3116249976194851e+00 7.1294075877439029e+00 4.8899238435785914e+00 1 0 0
4378 233 5 0.0000000000000000e+00 3.4774088444221594e+00 5.1841171151172261e-01 1.9208882299857493e+00 1 1 0
582 33 2 0.0000000000000000e+00 3.9367874696180465e+00 5.1630028484968005e+00 -6.9478986294534417e-02 1 0 0
583 33 2 0.0000000000000000e+00 3.1377818840188532e+00 6.9967329876927948e+00 1.3521753535052328e+00 1 0 0
1342 73 2 0.0000000000000000e+00 4.6397023500605057e+00 1.1758006819074236e+01 -2.1528345807879956e-01 1 0 0
1011 54 2 0.0000000000000000e+00 -6.2382335816251056e+00 6.2275331961236589e+00 1.0734357763105082e+01 1 0 0
235 14 7 0.0000000000000000e+00 -5.4082063112042649e+00 2.4210869919978570e+00 1.3118611128930702e+01 1 0 0
236 14 5 0.0000000000000000e+00 -4.6016829992038826e+00 3.1720025993039198e+00 1.2299720142386944e+01 1 0 0
597 34 3 0.0000000000000000e+00 -6.2547968422273392e-01 5.8861296704458841e+00 1.0178748854236170e+01 1 0 0
734 14 6 0.0000000000000000e+00 -4.6257780148495300e+00 2.3373130757144915e+00 1.0510218060104506e+01 1 0 0
239 14 1 0.0000000000000000e+00 -6.0218715817643824e+00 1.2422282648683409e+00 1.2573527195726284e+01 1 0 0
240 14 2 0.0000000000000000e+00 -5.5212072575501079e+00 2.6869250645495528e+00 1.4088814327431523e+01 1 0 0
243 14 2 0.0000000000000000e+00 -6.5667831997640693e+00 5.7617178572158567e-01 1.3232258552721360e+01 1 0 0
237 14 3 0.0000000000000000e+00 -4.4144413208926299e+00 2.8833841325590366e+00 1.0910407705018068e+01 1 0 0
4402 234 2 0.0000000000000000e+00 -1.8891039153390894e+00 1.6606137504605865e+00 1.1093213082261393e+01 1 1 0
993 53 2 0.0000000000000000e+00 -1.8592930799466083e+00 6.1609818072829032e+00 3.0778333493216090e+00 1 0 0
242 14 2 0.0000000000000000e+00 -3.2977165636718562e+00 4.6477481300722383e+00 1.0458249283345745e+01 1 0 0
4408 234 1 0.0000000000000000e+00 -1.7964263234393929e+00 2.4251021234913217e-01 1.2778737917330920e+01 1 1 0
238 14 4 0.0000000000000000e+00 -3.7316039836311576e+00 3.7572018327823562e+00 1.0045879921447185e+01 1 0 0
246 14 3 0.0000000000000000e+00 -5.0261143275998004e+00 1.7130205190107124e+00 1.0418167945050515e+01 1 0 0
604 34 1 0.0000000000000000e+00 -1.0719411922390591e+00 4.9989562342050036e+00 1.2804378645165201e+01 1 0 0
605 34 4 0.0000000000000000e+00 -4.0790007681938878e-01 4.1360886912440753e+00 1.1894188494729878e+01 1 0 0
606 34 3 0.0000000000000000e+00 -2.5598883930531091e-01 4.5817076521475126e+00 1.0569108073667490e+01 1 0 0
607 34 4 0.0000000000000000e+00 3.6431918540596531e-01 3.7149473902922279e+00 9.6311717695984758e+00 1 0 0
611 34 2 0.0000000000000000e+00 6.7721819637931180e-01 2.7221216759046447e+00 9.9117272727440060e+00 1 0 0
610 34 2 0.0000000000000000e+00 -2.2781929272374946e-01 3.1408368928393302e+00 1.2299514939161797e+01 1 0 0
241 14 2 0.0000000000000000e+00 -4.1379131177832598e+00 4.0305010095903784e+00 1.2751466860014164e+01 1 0 0
1764 94 1 0.0000000000000000e+00 -4.3215512181794660e+00 1.4507186534222608e+01 7.8462793372657380e+00 1 0 0
598 34 4 0.0000000000000000e+00 -1.1460215637398967e+00 6.7678595473282002e+00 1.1154957394578604e+01 1 0 0
754 34 6 0.0000000000000000e+00 -4.2927762400064484e-01 5.2823509447566694e+00 1.0487520240511705e+01 1 0 0
609 34 2 0.0000000000000000e+00 -1.2795354651936535e+00 4.5299610654608680e+00 1.3805928574444694e+01 1 0 0
4398 234 4 0.0000000000000000e+00 -1.6406428633832233e+00 6.8016227825845965e-01 1.1441064345037629e+01 1 1 0
4412 234 2 0.0000000000000000e+00 -2.1013532349611141e+00 9.4497409028853785e-01 1.3535452392523396e+01 1 1 0
247 14 4 0.0000000000000000e+00 -5.8097774775556186e+00 8.8906512195667076e-01 1.1248554967172458e+01 1 0 0
608 34 1 0.0000000000000000e+00 -1.4605273064087685e+00 6.3176153829568946e+00 1.2406138087341644e+01 1 0 0
612 34 2 0.0000000000000000e+00 -2.0421826563965011e+00 7.0277068941223995e+00 1.3074309802464603e+01 1 0 0
979 53 3 0.0000000000000000e+00 -1.8880397407720562e-01 9.1655820174430147e+00 3.2813420789078025e+00 1 0 0
980 53 4 0.0000000000000000e+00 5.5404225054942069e-01 1.0048429100785437e+01 2.5233611601165769e+00 1 0 0
984 53 2 0.0000000000000000e+00 9.7494265208887132e-01 1.0835397603000134e+01 3.1031797818442453e+00 1 0 0
1361 74 2 0.0000000000000000e+00 -9.2586009248975820e-01 1.3260707290094492e+01 8.3802939609008469e+00 1 0 0
990 53 1 0.0000000000000000e+00 6.8893827781443562e-01 9.8456758108009588e+00 1.1429223284668804e+00 1 0 0
2253 93 6 0.0000000000000000e+00 -3.7625740838316113e-01 1.4270257168505028e+01 2.9961665182885193e+00 1 0 0
1493 53 6 0.0000000000000000e+00 -5.4402320040501384e-01 8.6332519961829384e+00 2.9644728370244642e+00 1 0 0
986 53 1 0.0000000000000000e+00 -1.0730020026185894e-02 8.7991091055876076e+00 5.0629659821489670e-01 1 0 0
1005 54 4 0.0000000000000000e+00 -4.5870747810493446e+00 7.1854558062097222e+00 8.9486511437366971e+00 1 0 0
994 53 2 0.0000000000000000e+00 1.3339676043965172e+00 1.0411780472910570e+01 4.7416927537396347e-01 1 0 0
594 33 2 0.0000000000000000e+00 2.5379626915266162e+00 7.4845723439622391e+00 6.0215264324329016e+00 1 0 0
1741 93 1 0.0000000000000000e+00 -1.5181903168312814e+00 1.3493592068832069e+01 4.9169009701290562e+00 1 0 0
977 53 7 0.0000000000000000e+00 -7.0495258471487654e-01 8.2451368376374781e+00 5.5146667973299568e+00 1 0 0
978 53 5 0.0000000000000000e+00 -1.6359167154410414e-01 9.2814897288030735e+00 4.6945039086860954e+00 1 0 0
982 53 2 0.0000000000000000e+00 -7.1748409975787197e-01 8.3166453400069944e+00 6.6050886116121745e+00 1 0 0
983 53 2 0.0000000000000000e+00 3.8585119442631832e-01 1.0031902623357544e+01 5.1736949255564904e+00 1 0 0
1012 54 2 0.0000000000000000e+00 -2.5026790304303446e+00 9.5359470742310517e+00 7.6839165689539435e+00 1 0 0
1004 54 1 0.0000000000000000e+00 -3.7234715020032447e+00 7.8420571402839041e+00 7.9940846117873949e+00 1 0 0
1363 74 2 0.0000000000000000e+00 1.3077727161050809e+00 9.8426733012233409e+00 7.6789313450560464e+00 1 0 0
1745 93 2 0.0000000000000000e+00 -2.1374249309430748e+00 1.3007003712639628e+01 5.6076120355082457e+00 1 0 0
1008 54 1 0.0000000000000000e+00 -3.1048639721873119e+00 9.0187496704168169e+00 8.3713935769671917e+00 1 0 0
1338 73 5 0.0000000000000000e+00 3.7037389542951100e+00 1.2265231994785402e+01 1.6442723856364294e+00 1 0 0
1339 73 3 0.0000000000000000e+00 3.4495072084105161e+00 1.1896091961877433e+01 2.9459028286610405e+00 1 0 0
1340 73 4 0.0000000000000000e+00 2.8407062386927033e+00 1.2785268232508352e+01 3.8467294079001046e+00 1 0 0
1341 73 1 0.0000000000000000e+00 4.8765860053138992e+00 1.0116756529556449e+01 1.2583578280494823e+00 1 0 0
1337 73 7 0.0000000000000000e+00 4.4114629263771930e+00 1.1401519704587914e+01 7.8449835730092743e-01 1 0 0
1343 73 2 0.0000000000000000e+00 3.4310320669660586e+00 1.3291783927503753e+01 1.4054607104573111e+00 1 0 0
988 53 3 0.0000000000000000e+00 -7.8565207159497363e-01 8.0567233219008010e+00 2.7193712084313706e+00 1 0 0
1348 73 3 0.0000000000000000e+00 3.9688623417812519e+00 1.0676113569032387e+01 3.4817387136194800e+00 1 0 0
1349 73 4 0.0000000000000000e+00 4.6678425730230728e+00 9.8371182054959601e+00 2.6064911151474397e+00 1 0 0
1353 73 2 0.0000000000000000e+00 4.9671834267722286e+00 8.8476807580714762e+00 2.9650226315427961e+00 1 0 0
1513 73 6 0.0000000000000000e+00 3.7032147556953090e+00 1.1279047034737435e+01 3.2457072346228539e+00 1 0 0
1356 74 5 0.0000000000000000e+00 -6.5510807583632680e-01 1.2326837340863273e+01 8.8101679847741519e+00 1 0 0
1354 73 2 0.0000000000000000e+00 2.1603794100423457e+00 1.3194873991134955e+01 5.8063325171012696e+00 1 0 0
1346 73 1 0.0000000000000000e+00 2.8996521612110122e+00 1.1148486490647104e+01 5.6683949500056396e+00 1 0 0
1347 73 4 0.0000000000000000e+00 3.6870046515322872e+00 1.0311607733142896e+01 4.8233379211148701e+00 1 0 0
1350 73 1 0.0000000000000000e+00 2.5895873228267985e+00 1.2410722397413769e+01 5.1628572481285158e+00 1 0 0
1351 73 2 0.0000000000000000e+00 2.8347994580918927e+00 1.1012131032624556e+01 6.7032275875947374e+00 1 0 0
1352 73 2 0.0000000000000000e+00 3.9747972349662497e+00 9.3338225802477162e+00 5.0746711876105515e+00 1 0 0
1345 73 2 0.0000000000000000e+00 5.3963122778377297e+00 9.4495360159411206e+00 5.6655579227562480e-01 1 0 0
1355 74 7 0.0000000000000000e+00 2.3947622661649071e-02 1.1489904828030918e+01 7.9558345487601940e+00 1 0 0
1359 74 1 0.0000000000000000e+00 7.2336798617926590e-01 1.0380719759601854e+01 8.4508068079380774e+00 1 0 0
1360 74 2 0.0000000000000000e+00 2.0843569663552586e-01 1.1841219057514023e+01 6.9867219833305496e+00 1 0 0
1747 93 4 0.0000000000000000e+00 -5.9604681769861401e-01 1.3163037548934868e+01 1.3019152979183739e+00 1 0 0
1748 93 3 0.0000000000000000e+00 -6.7889585839974154e-01 1.3741373640662589e+01 2.6321395687549178e+00 1 0 0
601 34 2 0.0000000000000000e+00 -8.8478192567770098e-01 7.2611111187654540e+00 8.5758163579121849e+00 1 0 0
1756 94 5 0.0000000000000000e+00 -4.5659687615227922e+00 1.5203806097813230e+01 1.1974166280354517e+01 1 0 0
1746 93 1 0.0000000000000000e+00 1.1439657675829717e-01 1.3887651812925897e+01 3.6732692964727542e-01 1 0 0
584 33 2 0.0000000000000000e+00 2.3583288979207282e+00 7.6033508086298021e+00 3.4238192761891111e+00 1 0 0
2131 114 2 0.0000000000000000e+00 1.1140116311709649e+00 1.4546631086060197e+01 9.9067142713233238e+00 1 0 0
1749 93 4 0.0000000000000000e+00 -1.4807229796873038e+00 1.3030626696559244e+01 3.5975718160491641e+00 1 0 0
2129 114 2 0.0000000000000000e+00 -3.0657905144885955e-01 1.7165042735162011e+01 1.3758866814149744e+01 1 0 0
1344 73 2 0.0000000000000000e+00 2.5948043869114863e+00 1.3777134199824310e+01 3.5409405514646983e+00 1 0 0
1009 54 2 0.0000000000000000e+00 -3.6107993513290051e+00 7.3567886310000699e+00 7.0076715663962057e+00 1 0 0
987 53 4 0.0000000000000000e+00 -8.0538218800908534e-01 7.9229405138194329e+00 1.2963729272967490e+00 1 0 0
995 54 7 0.0000000000000000e+00 -5.4662312046659540e+00 8.9875918530332317e+00 1.2534770525498319e+01 1 0 0
996 54 5 0.0000000000000000e+00 -4.5154329236142381e+00 9.5481374048118006e+00 1.1719426637865668e+01 1 0 0
997 54 3 0.0000000000000000e+00 -4.1741396669516044e+00 8.9890152582839775e+00 1.0511859934457483e+01 1 0 0
1001 54 2 0.0000000000000000e+00 -4.0702771576660455e+00 1.0469881378010593e+01 1.2082249472184106e+01 1 0 0
1371 74 2 0.0000000000000000e+00 1.0642686067894553e+00 9.1760120318301617e+00 1.0185361176042392e+01 1 0 0
1357 74 3 0.0000000000000000e+00 -7.1982702929074627e-01 1.2123120921494728e+01 1.0232192729088384e+01 1 0 0
1767 94 4 0.0000000000000000e+00 -6.0136547350422811e+00 1.3086156774999985e+01 1.0818782253792651e+01 1 0 0
998 54 4 0.0000000000000000e+00 -3.2741124980336753e+00 9.5462308577469184e+00 9.6470535444985224e+00 1 0 0
1494 54 6 0.0000000000000000e+00 -4.5281568831869343e+00 8.3984861054899191e+00 1.0298386544527530e+01 1 0 0
1362 74 2 0.0000000000000000e+00 -1.7174269190503413e+00 1.4028610818688506e+01 1.0800853397752737e+01 1 0 0
1003 54 2 0.0000000000000000e+00 -6.8525652206912770e+00 7.1424541053890520e+00 1.2671091064483658e+01 1 0 0
999 54 1 0.0000000000000000e+00 -6.0833369075075172e+00 7.7498216248433858e+00 1.2214605992000717e+01 1 0 0
1372 74 2 0.0000000000000000e+00 -1.4305895121695649e+00 1.3540164519504762e+01 1.3234745187821614e+01 1 0 0
1514 74 6 0.0000000000000000e+00 -2.5679450503628232e-01 1.1640485472589706e+01 1.0518669821211788e+01 1 0 0
602 34 2 0.0000000000000000e+00 -1.4777162264807640e+00 7.7969221434252587e+00 1.0880878278454572e+01 1 0 0
1358 74 4 0.0000000000000000e+00 -1.2695469586224482e+00 1.3055195874870741e+01 1.1118301128356967e+01 1 0 0
1364 74 1 0.0000000000000000e+00 -4.5581304160900249e-01 1.1567474367102172e+01 1.2948926332520015e+01 1 0 0
1365 74 4 0.0000000000000000e+00 -1.1465043289279109e-01 1.0580880710741479e+01 1.2045282292569429e+01 1 0 0
1366 74 3 0.0000000000000000e+00 -1.1876495348746108e-01 1.0939772533763655e+01 1.0723600535076722e+01 1 0 0
1759 94 1 0.0000000000000000e+00 -6.0116806193620524e+00 1.3258541884388185e+01 1.2220318452262037e+01 1 0 0
1368 74 1 0.0000000000000000e+00 -1.1013519419836770e+00 1.2757736353345123e+01 1.2509324493360412e+01 1 0 0
1369 74 2 0.0000000000000000e+00 -4.2252443192193478e-01 1.1404420995131060e+01 1.3953697599779158e+01 1 0 0
1370 74 2 0.0000000000000000e+00 3.4523755734756278e-01 9.6761569594979857e+00 1.2367120475528864e+01 1 0 0
1378 75 2 0.0000000000000000e+00 -4.2026221527160326e+00 1.1716060225169334e+01 1.4012091136949600e+01 1 0 0
1000 54 2 0.0000000000000000e+00 -5.7961136062391514e+00 9.5330050255811383e+00 1.3438026733515693e+01 1 0 0
1766 94 3 0.0000000000000000e+00 -5.2655630797133464e+00 1.3949366287346292e+01 1.0024290045496416e+01 1 0 0
1006 54 3 0.0000000000000000e+00 -4.8150903260521618e+00 7.7814437695583276e+00 1.0202483325894832e+01 1 0 0
1763 94 2 0.0000000000000000e+00 -6.5577620479420418e+00 1.2487328056240685e+01 1.2719514974492419e+01 1 0 0
1367 74 4 0.0000000000000000e+00 5.5350807155451065e-01 1.0055940036263722e+01 9.7909128449676217e+00 1 0 0
1002 54 2 0.0000000000000000e+00 -2.8262585186074904e+00 1.0444513296427237e+01 9.9590953378950324e+00 1 0 0
1755 94 7 0.0000000000000000e+00 -5.3148502893760794e+00 1.4321958017697652e+01 1.2727280362723388e+01 1 0 0
1007 54 4 0.0000000000000000e+00 -5.7355026157823676e+00 7.1410193632237631e+00 1.1059815678034955e+01 1 0 0
1737 93 7 0.0000000000000000e+00 -8.9468505924661468e-01 1.4707936348107586e+01 5.3163201528906177e+00 1 0 0
1740 93 4 0.0000000000000000e+00 6.9619542631690412e-01 1.5592485531024030e+01 2.0123651459620961e+00 1 0 0
1744 93 2 0.0000000000000000e+00 1.2992287363735133e+00 1.6498953321161732e+01 2.1024439234810828e+00 1 0 0
1768 94 1 0.0000000000000000e+00 -3.6337108631577841e+00 1.5636695050800961e+01 8.4585219760276402e+00 1 0 0
1750 93 1 0.0000000000000000e+00 6.8865749124202902e-01 1.5119028820863727e+01 7.2017940390468604e-01 1 0 0
2112 113 2 0.0000000000000000e+00 4.0370471886215853e+00 1.5621477499687698e+01 5.7008830132978296e+00 1 0 0
2119 114 1 0.0000000000000000e+00 5.4265516986897389e-01 1.5742568675357477e+01 8.1755449506510782e+00 1 0 0
2102 113 2 0.0000000000000000e+00 4.8274523497741546e+00 1.7518743243121914e+01 5.4566801267947329e-02 1 0 0
1743 93 2 0.0000000000000000e+00 2.7824670542825691e-01 1.6330314935170360e+01 4.6346398890410194e+00 1 0 0
2127 114 4 0.0000000000000000e+00 6.0548278226251373e-01 1.5499426380154489e+01 9.5652530674429794e+00 1 0 0
1772 94 2 0.0000000000000000e+00 -3.0018079962266717e+00 1.6296745612796862e+01 7.9579088844721504e+00 1 0 0
1739 93 3 0.0000000000000000e+00 -2.6164223082763005e-03 1.4856435244949362e+01 2.9971530714324901e+00 1 0 0
1754 93 2 0.0000000000000000e+00 1.2031902474901128e+00 1.5794992594044261e+01 4.0341305649358949e-02 1 0 0
2097 113 7 0.0000000000000000e+00 4.4039543105360197e+00 1.7303917142933400e+01 1.0815513361000106e+00 1 0 0
1753 93 2 0.0000000000000000e+00 -2.0016058966181256e+00 1.2129814773373919e+01 3.2621133013451296e+00 1 0 0
2101 113 1 0.0000000000000000e+00 4.7489958345815291e+00 1.6052957440398895e+01 1.6472101134129531e+00 1 0 0
2113 113 2 0.0000000000000000e+00 4.7087150706007437e+00 1.4819669658751112e+01 3.4396474499619285e+00 1 0 0
1738 93 5 0.0000000000000000e+00 -1.8134023447089964e-01 1.5396702110194932e+01 4.3018383009174128e+00 1 0 0
2108 113 3 0.0000000000000000e+00 3.7799811566984873e+00 1.6734350673714751e+01 3.7957641887697671e+00 1 0 0
2109 113 4 0.0000000000000000e+00 4.5024944232214619e+00 1.5792816575373548e+01 3.0183799659604964e+00 1 0 0
2273 113 6 0.0000000000000000e+00 3.6543463701120098e+00 1.7330946860179157e+01 3.3964443018047845e+00 1 0 0
2106 113 1 0.0000000000000000e+00 3.0072991051568101e+00 1.7474320696375077e+01 5.8993510330061874e+00 1 0 0
2107 113 4 0.0000000000000000e+00 3.6283933518367064e+00 1.6483733303214461e+01 5.1753794958477739e+00 1 0 0
2111 113 2 0.0000000000000000e+00 2.9075265422956580e+00 1.7381081191162615e+01 6.9444942329614525e+00 1 0 0
2115 114 7 0.0000000000000000e+00 2.1367074588527935e-02 1.6967231275120270e+01 7.6782454097640525e+00 1 0 0
2513 133 2 0.0000000000000000e+00 -1.5805668672590016e+00 1.7827744565067395e+01 3.0387685486150766e+00 1 0 0
2120 114 2 0.0000000000000000e+00 2.0988312892831473e-01 1.7082383943013063e+01 6.6187627526838870e+00 1 0 0
2123 114 2 0.0000000000000000e+00 9.8819802769936782e-01 1.5054618492710706e+01 7.4266037551960107e+00 1 0 0
1760 94 2 0.0000000000000000e+00 -5.3557647817697758e+00 1.4409235521754029e+01 1.3857860012079545e+01 1 0 0
2105 113 2 0.0000000000000000e+00 5.0409514466825245e+00 1.5280338693777718e+01 1.0226090313338867e+00 1 0 0
1742 93 2 0.0000000000000000e+00 -9.7536613377187154e-01 1.4995357004891094e+01 6.3098030168585142e+00 1 0 0
232 13 2 0.0000000000000000e+00 -3.2397356536155997e-01 5.0654840298264103e-01 8.9648451405404872e-01 1 0 0
2117 114 3 0.0000000000000000e+00 -4.1866603121762669e-01 1.7650342683464007e+01 9.9865014889254802e+00 1 0 0
1761 94 2 0.0000000000000000e+00 -4.0669418257092564e+00 1.6066840455452816e+01 1.2430434125529626e+01 1 0 0
2274 114 6 0.0000000000000000e+00 -2.6665734693569743e-01 1.7035404112241828e+01 1.0287372458574497e+01 1 0 0
2254 94 6 0.0000000000000000e+00 -5.0353375007198302e+00 1.4597787681444316e+01 1.0285952913318862e+01 1 0 0
2130 114 2 0.0000000000000000e+00 6.0962215356696170e-01 1.5396932044273830e+01 1.2203353945141227e+01 1 0 0
2124 114 1 0.0000000000000000e+00 -3.6213375126030112e-01 1.7289359256956839e+01 1.2729052004551535e+01 1 0 0
2125 114 4 0.0000000000000000e+00 1.4325960508605196e-01 1.6304845165050104e+01 1.1822552510124863e+01 1 0 0
2126 114 3 0.0000000000000000e+00 1.0973374195933694e-01 1.6452061912370272e+01 1.0438360398834837e+01 1 0 0
1762 94 2 0.0000000000000000e+00 -3.3798409920706107e+00 1.6777070952887886e+01 1.0168710158575578e+01 1 0 0
1757 94 3 0.0000000000000000e+00 -4.5261856725229634e+00 1.5011740597299664e+01 1.0595076827973521e+01 1 0 0
1765 94 4 0.0000000000000000e+00 -5.2026350606928693e+00 1.3711389186046603e+01 8.6277798077780119e+00 1 0 0
303 17 2 0.0000000000000000e+00 7.7879387508746545e+00 1.3329815946644199e+00 2.3572244299307343e-01 1 0 0
1064 57 2 0.0000000000000000e+00 7.1148028206289533e+00 6.4588780081584547e+00 9.1669448189682945e-01 1 0 0
249 14 2 0.0000000000000000e+00 -4.2034631146384092e+00 2.1346860633739868e+00 7.1254763659483835e+00 1 0 0
2099 113 3 0.0000000000000000e+00 3.2910827063996435e+00 1.7870243892808208e+01 3.1627667502303471e+00 1 0 0
2116 114 5 0.0000000000000000e+00 -4.8889548791696580e-01 1.7908851030645820e+01 8.5919055676363332e+00 1 0 0
1769 94 2 0.0000000000000000e+00 -4.1639965379225830e+00 1.4260582727830609e+01 6.7983373887488900e+00 1 0 0
4416 235 4 0.0000000000000000e+00 -5.8171379126218614e+00 8.3982480793567760e-01 1.9031714485113977e+01 1 1 0
4420 235 2 0.0000000000000000e+00 -6.0642236324445262e+00 1.7946030917831017e+00 1.8675255005792444e+01 1 1 0
255 15 3 0.0000000000000000e+00 -8.7996784905353262e+00 3.0978802853458665e+00 1.8240672700525074e+01 1 0 0
256 15 4 0.0000000000000000e+00 -8.0402053085938068e+00 3.8900568519598351e+00 1.7296862468915993e+01 1 0 0
260 15 2 0.0000000000000000e+00 -7.6235041114955919e+00 4.8122512099467842e+00 1.7531490487356329e+01 1 0 0
1860 99 2 0.0000000000000000e+00 -1.1192177242668375e+00 1.2757820270689626e+01 1.5839575475069388e+01 1 0 0
4414 235 5 0.0000000000000000e+00 -4.8596187138610087e+00 3.4260913063808762e-01 1.6828340425147086e+01 1 1 0
264 15 3 0.0000000000000000e+00 -9.3766644385687083e+00 1.8940861876837429e+00 1.7808218339965684e+01 1 0 0
262 15 1 0.0000000000000000e+00 -8.4236430457365330e+00 2.1433573190248363e+00 1.5621151469010556e+01 1 0 0
266 15 1 0.0000000000000000e+00 -7.8756633409993633e+00 3.4191658067194277e+00 1.5994404547408053e+01 1 0 0
263 15 4 0.0000000000000000e+00 -9.1167952442453455e+00 1.3804620579597258e+00 1.6555512276824260e+01 1 0 0
735 15 6 0.0000000000000000e+00 -8.9192234983902914e+00 2.4071826958056173e+00 1.8059878079780226e+01 1 0 0
265 15 4 0.0000000000000000e+00 -1.0024197859894562e+01 1.0866992019517110e+00 1.8725124911016678e+01 1 0 0
1782 95 1 0.0000000000000000e+00 -8.7029311255008928e+00 1.4163967204043967e+01 1.5344418293554762e+01 1 0 0
613 35 7 0.0000000000000000e+00 -4.5702874569398730e+00 5.5850251264072241e+00 1.6025335280879169e+01 1 0 0
618 35 2 0.0000000000000000e+00 -4.4950514245830995e+00 6.0230203456795008e+00 1.5065199450577452e+01 1 0 0
615 35 3 0.0000000000000000e+00 -5.2759855426476765e+00 5.7584656041911266e+00 1.8312610647950709e+01 1 0 0
617 35 1 0.0000000000000000e+00 -3.9083944445508214e+00 4.3926930593408393e+00 1.6373960856657870e+01 1 0 0
621 35 2 0.0000000000000000e+00 -3.3153569619865371e+00 3.8978776753318649e+00 1.5601959840388099e+01 1 0 0
624 35 3 0.0000000000000000e+00 -4.6817042744284176e+00 4.5234583264293491e+00 1.8608721826098016e+01 1 0 0
625 35 4 0.0000000000000000e+00 -4.0146912765615062e+00 3.7715797521117795e+00 1.7600524407121775e+01 1 0 0
629 35 2 0.0000000000000000e+00 -3.4711476111070381e+00 2.9094681844945760e+00 1.7856532472026746e+01 1 0 0
755 35 6 0.0000000000000000e+00 -4.9497808470030602e+00 5.1044002845983156e+00 1.8431984939884948e+01 1 0 0
270 15 2 0.0000000000000000e+00 -7.2555748659625996e+00 4.0528100249015440e+00 1.5315538804515361e+01 1 0 0
614 35 5 0.0000000000000000e+00 -5.2116024815078097e+00 6.3524228631033353e+00 1.7036538584824033e+01 1 0 0
4419 235 2 0.0000000000000000e+00 -5.0840650714035478e+00 1.3817630684575231e+00 1.6514366759112672e+01 1 1 0
1025 55 4 0.0000000000000000e+00 -9.8307832814472924e+00 6.7660499868423702e+00 1.8360917485629660e+01 1 0 0
616 35 4 0.0000000000000000e+00 -5.9296034824367094e+00 6.5451734425394772e+00 1.9324418298283408e+01 1 0 0
1047 56 2 0.0000000000000000e+00 -1.4864451245537852e+01 6.2100877870290807e+00 2.6024253074450673e+01 1 0 0
1806 96 2 0.0000000000000000e+00 -1.3453738722591181e+01 1.2177020604880102e+01 2.3408285560161264e+01 1 0 0
254 15 5 0.0000000000000000e+00 -8.9920711431091949e+00 3.6112558544331006e+00 1.9513497834683886e+01 1 0 0
280 16 1 0.0000000000000000e+00 -1.3016682017976876e+01 2.5496955886182708e+00 2.3135307709977145e+01 1 0 0
2163 116 4 0.0000000000000000e+00 -8.1566098014508537e+00 1.6003516321621312e+01 2.5019663200892182e+01 1 0 0
258 15 2 0.0000000000000000e+00 -1.0283111360900408e+01 3.4370623214129026e+00 2.1282912342018637e+01 1 0 0
634 36 4 0.0000000000000000e+00 -1.0177545901816876e+01 6.3541147640141755e+00 2.6082602785660459e+01 1 0 0
4433 236 3 0.0000000000000000e+00 -9.5589746509411064e+00 5.1892278938765163e-02 2.5568848246152491e+01 1 1 0
257 15 1 0.0000000000000000e+00 -1.0390512250587744e+01 1.6470726593231242e+00 1.9946286157731699e+01 1 0 0
284 16 1 0.0000000000000000e+00 -1.2429440951217545e+01 3.7391773643105726e+00 2.3578507877296513e+01 1 0 0
279 16 2 0.0000000000000000e+00 -1.4955590643756789e+01 6.9739810992075035e-01 2.8273415644914820e+01 1 0 0
1381 75 2 0.0000000000000000e+00 -2.8678975375065869e+00 9.7216694972073903e+00 1.4674822635109736e+01 1 0 0
288 16 2 0.0000000000000000e+00 -1.1956998918795209e+01 4.4287323575014392e+00 2.2896975861967736e+01 1 0 0
271 16 7 0.0000000000000000e+00 -1.3800814616129243e+01 2.4683226356910271e+00 2.8083783879018107e+01 1 0 0
272 16 5 0.0000000000000000e+00 -1.3214097657697632e+01 3.3922186629269375e+00 2.7217351935810242e+01 1 0 0
273 16 3 0.0000000000000000e+00 -1.2980679657177189e+01 3.0172672892715648e+00 2.5865084505936725e+01 1 0 0