LAMMPS (15 May 2015)
Reading data file ...
  triclinic box = (-0.107635 -0.0404339 -0.357111) to (41.3876 35.9384 29.5551) with tilt (-0.0672341 -17.0362 -0.0417078)
  5 by 2 by 2 MPI processor grid
  reading atoms ...
  4560 atoms
  reading velocities ...
  4560 velocities
  scanning bonds ...
  3 = max bonds/atom
  scanning angles ...
  3 = max angles/atom
  scanning dihedrals ...
  8 = max dihedrals/atom
  scanning impropers ...
  1 = max impropers/atom
  reading bonds ...
  5040 bonds
  reading angles ...
  7200 angles
  reading dihedrals ...
  10560 dihedrals
  reading impropers ...
  2400 impropers
Finding 1-2 1-3 1-4 neighbors ...
 Special bond factors lj:   0          0          0         
 Special bond factors coul: 0          0          0         
  4 = max # of 1-2 neighbors
  8 = max # of 1-3 neighbors
  20 = max # of 1-4 neighbors
  16 = max # of special neighbors
4560 atoms in group all
720 atoms in group C
480 atoms in group S
1920 atoms in group H
720 atoms in group Si
240 atoms in group Na
240 atoms in group Ba
240 atoms in group O
4560 atoms in group naphthalene
2400 atoms in group carbon
960 atoms in group CO
Setting atom values ...
  720 settings made for charge
Setting atom values ...
  720 settings made for charge
Setting atom values ...
  1920 settings made for charge
Setting atom values ...
  480 settings made for charge
Setting atom values ...
  240 settings made for charge
Setting atom values ...
  240 settings made for charge
Setting atom values ...
  240 settings made for charge
Finding 1-2 1-3 1-4 neighbors ...
 Special bond factors lj:   0          0          0.5       
 Special bond factors coul: 0          0          0.5       
  4 = max # of 1-2 neighbors
  8 = max # of 1-3 neighbors
  20 = max # of 1-4 neighbors
  16 = max # of special neighbors
Neighbor list info ...
  4 neighbor list requests
  update every 1 steps, delay 0 steps, check yes
  master list distance cutoff = 12
Setting up run ...
Memory usage per processor = 13.4064 Mbytes
Step Temp Density PotEng E_vdwl E_tail E_coul E_long Press Volume Xy Xz Yz E_mol E_bond E_angle E_dihed 14[1] 14[2] 14[3] msd[4] msd2[4] msd3[4] msd4[4] naphthal Cella Cellb Cellc CellAlpha CellBeta CellGamma 2 3 27[1] 27[2] 27[3] 28[1] 28[2] 28[3] 
       0          298    1.2509986     3498.833            0            0            0            0   -15873.524    44657.537 -0.067234084   -17.036218 -0.041707817     3498.833    1521.0094     935.4334    889.67826    28.379601    18.846571    14.337846 7.7711016e-30 8.8746852e-30 6.8181724e-30 5.7534156e-30          298     41.49527    35.978931    34.423473    90.016431    119.66323    90.107069 1.4297512e-24 4.9466509e-24    28.379557    18.849013    14.339638    28.379812    18.845474    14.337264 
   10000    306.70232    1.2509986    3429.5271            0            0            0            0    -1919.897    44657.537 -0.067234084   -17.036218 -0.041707817    3429.5271    1468.7662    948.06586    865.27543    28.381395    18.845901    14.336686 0.00036581053 0.00036298325 0.0039613844 0.0039570629    306.70232     41.49527    35.978931    34.423473    90.016431    119.66323    90.107069    731.87491    219.48632    28.380314    18.849402    14.338189    28.381814    18.846022    14.337153 
   20000    296.22346    1.2509986    3490.4956            0            0            0            0   -1770.4089    44657.537 -0.067234084   -17.036218 -0.041707817    3490.4956    1440.9205    974.46502    909.90429    28.380339    18.847644    14.336948 0.00037921063 0.00037849014  0.003822495 0.0038200744    296.22346     41.49527    35.978931    34.423473    90.016431    119.66323    90.107069    706.21477    227.52638    28.380298    18.849352    14.339875    28.380621    18.846775    14.336991 
   30000    300.39238    1.2509986    3520.9744            0            0            0            0   -2399.5835    44657.537 -0.067234084   -17.036218 -0.041707817    3520.9744    1457.7843    970.12764    934.27806    28.381229    18.847032    14.337843 0.00031923371 0.00031906455 0.0038171975 0.0038152196    300.39238     41.49527    35.978931    34.423473    90.016431    119.66323    90.107069    705.23604    191.54022     28.37926    18.849226    14.339828     28.37972    18.846779    14.337782 
   40000    292.20998    1.2509986    3436.4398            0            0            0            0   -3872.0674    44657.537 -0.067234084   -17.036218 -0.041707817    3436.4398    1443.2655    953.18056    889.73771    28.380595    18.846636    14.337079 0.00033260247 0.00033145017 0.0038604485 0.0038603128    292.20998     41.49527    35.978931    34.423473    90.016431    119.66323    90.107069    713.22676    199.56148    28.379496    18.847941    14.339622    28.379513    18.845294    14.337145 
   50000    297.59206    1.2509986    3411.2271            0            0            0            0   -1401.6503    44657.537 -0.067234084   -17.036218 -0.041707817    3411.2271    1416.7962      951.711    890.96875     28.38011    18.846821    14.337534 0.00036253228 0.00036059013 0.0037165904 0.0037141516    297.59206     41.49527    35.978931    34.423473    90.016431    119.66323    90.107069    686.64865    217.51937    28.379832    18.847713    14.340059    28.380569     18.84683    14.337098 
   60000    296.80886    1.2509986    3467.5175            0            0            0            0   -3442.3526    44657.537 -0.067234084   -17.036218 -0.041707817    3467.5175    1419.1074    976.17528    910.22738     28.37979    18.845985    14.337816 0.00036141341 0.00036081808 0.0038432455 0.0038410627    296.80886     41.49527    35.978931    34.423473    90.016431    119.66323    90.107069    710.04847    216.84805    28.379022     18.84865    14.339217    28.379367    18.846876    14.337404 
   70000    302.09889    1.2509986    3366.0759            0            0            0            0   -1583.2163    44657.537 -0.067234084   -17.036218 -0.041707817    3366.0759    1390.8998    907.22418    913.60871    28.379006    18.844146     14.33686 0.00037024528 0.00036856799 0.0037482987 0.0037479661    302.09889     41.49527    35.978931    34.423473    90.016431    119.66323    90.107069    692.50684    222.14717     28.37948    18.850306    14.339621    28.379465    18.845056    14.337071 
   80000    297.96517    1.2509986    3474.3341            0            0            0            0   -1091.4808    44657.537 -0.067234084   -17.036218 -0.041707817    3474.3341    1444.9707    961.98397    909.35783    28.379891    18.844102    14.338108 0.00034698252 0.00034476232 0.0038703987 0.0038688216    297.96517     41.49527    35.978931    34.423473    90.016431    119.66323    90.107069    715.06508    208.18951    28.378938    18.848017    14.340558     28.38033    18.844806    14.338193 
   90000    292.65951    1.2509986    3435.5517            0            0            0            0   -2726.4637    44657.537 -0.067234084   -17.036218 -0.041707817    3435.5517    1418.4948     960.0391    900.76866    28.381801    18.846077    14.337963 0.00035431315 0.00035192663 0.0036182549 0.0036178625    292.65951     41.49527    35.978931    34.423473    90.016431    119.66323    90.107069    668.48095    212.58789    28.381003    18.848634    14.340026    28.379799    18.846098    14.337212 
  100000    294.09436    1.2509986    3361.6103            0            0            0            0   -2223.9985    44657.537 -0.067234084   -17.036218 -0.041707817    3361.6103    1391.6746     930.9571    888.99973    28.376755    18.846822    14.336706 0.00038944599 0.00038414411 0.0037606738 0.0037579762    294.09436     41.49527    35.978931    34.423473    90.016431    119.66323    90.107069    694.79316    233.66759    28.379798    18.848751    14.341913    28.378832    18.846129     14.33612 
  110000    296.89867    1.2509986    3465.7292            0            0            0            0   -3195.6253    44657.537 -0.067234084   -17.036218 -0.041707817    3465.7292    1460.8394    958.30655    895.32831    28.381131    18.846208    14.337781 0.00037622301 0.00037598102 0.0037930401  0.003792758    296.89867     41.49527    35.978931    34.423473    90.016431    119.66323    90.107069    700.77292    225.73381    28.379768    18.848591      14.3395    28.379333    18.845333    14.337446 
  120000    298.55103    1.2509986    3405.5083            0            0            0            0   -2999.1897    44657.537 -0.067234084   -17.036218 -0.041707817    3405.5083    1456.0006    921.41104    876.91713     28.38127    18.846807    14.337124 0.00034676983 0.00034555311 0.0037474394 0.0037439565    298.55103     41.49527    35.978931    34.423473    90.016431    119.66323    90.107069    692.34808     208.0619    28.378903    18.848126    14.339581    28.379488    18.846096    14.335535 
  130000    303.94324    1.2509986    3419.5712            0            0            0            0   -3303.9808    44657.537 -0.067234084   -17.036218 -0.041707817    3419.5712    1428.2283    936.47511    897.18562    28.378709    18.845096    14.336527 0.00034609982 0.00034589433 0.0038193329 0.0038185721    303.94324     41.49527    35.978931    34.423473    90.016431    119.66323    90.107069    705.63057    207.65989    28.379162    18.848977    14.339859    28.380454    18.845178    14.336753 
  140000    296.76715    1.2509986    3448.7117            0            0            0            0   -3097.1774    44657.537 -0.067234084   -17.036218 -0.041707817    3448.7117    1432.2887     936.7659    923.27845    28.380322     18.84686    14.337256 0.00034576062 0.00034375676 0.0038553364 0.0038535926    296.76715     41.49527    35.978931    34.423473    90.016431    119.66323    90.107069    712.28229    207.45637    28.379111     18.84947    14.340902    28.380545    18.844957    14.336295 
  150000    305.00752    1.2509986    3493.3548            0            0            0            0    -1414.624    44657.537 -0.067234084   -17.036218 -0.041707817    3493.3548    1443.2766    962.38841    928.29643    28.381709    18.845286    14.337568 0.00033546594 0.00033467816 0.0039378516 0.0039334064    305.00752     41.49527    35.978931    34.423473    90.016431    119.66323    90.107069    727.52718    201.27956    28.378965    18.848463    14.340006      28.3819    18.845391    14.336986 
  160000    301.92012    1.2509986    3462.9508            0            0            0            0   -3885.3724    44657.537 -0.067234084   -17.036218 -0.041707817    3462.9508    1468.0725    948.72233    888.03795    28.379397    18.845871    14.337427 0.00034791215 0.00034657056 0.0038653703 0.0038648904    301.92012     41.49527    35.978931    34.423473    90.016431    119.66323    90.107069    714.13608    208.74729    28.379199    18.849204    14.340723    28.379861    18.844803    14.337427 
  170000     299.5149    1.2509986    3348.9404            0            0            0            0   -1980.8233    44657.537 -0.067234084   -17.036218 -0.041707817    3348.9404    1355.2923    961.48611    875.27615    28.378008    18.847966    14.337129 0.00035270457 0.00034949183 0.0037339763 0.0037311976     299.5149     41.49527    35.978931    34.423473    90.016431    119.66323    90.107069    689.86074    211.62274    28.379487    18.849575    14.341339    28.379308    18.846959    14.337832 
  180000     297.2412    1.2509986    3457.2863            0            0            0            0    -4440.075    44657.537 -0.067234084   -17.036218 -0.041707817    3457.2863    1444.8187    977.38758    885.42611    28.377099    18.847769    14.336788 0.00035232183 0.00035099697 0.0037767646 0.0037741429     297.2412     41.49527    35.978931    34.423473    90.016431    119.66323    90.107069    697.76598     211.3931     28.37865    18.849492    14.339116    28.378783    18.846558    14.336642 
  190000    307.24051    1.2509986    3485.3193            0            0            0            0   -1619.0966    44657.537 -0.067234084   -17.036218 -0.041707817    3485.3193    1445.6744    982.62298     900.4175     28.37738     18.84654    14.336996 0.00035300203 0.00035193132 0.0036807777 0.0036774762    307.24051     41.49527    35.978931    34.423473    90.016431    119.66323    90.107069    680.03218    211.80122     28.38024    18.849098    14.338866    28.378959    18.846884     14.33803 
  200000    303.01697    1.2509986    3385.6652            0            0            0            0   -2531.0224    44657.537 -0.067234084   -17.036218 -0.041707817    3385.6652    1412.7095    966.25365    857.98656    28.378837    18.845621    14.337158 0.00036503306 0.0003647424 0.0035685136 0.0035629691    303.01697     41.49527    35.978931    34.423473    90.016431    119.66323    90.107069    659.29112    219.01984    28.379902    18.849412    14.339528    28.381784    18.845233    14.338529 
  210000    293.90987    1.2509986    3491.8238            0            0            0            0   -3081.7944    44657.537 -0.067234084   -17.036218 -0.041707817    3491.8238    1463.0979    1000.1704    878.67453    28.382069    18.844543    14.337971 0.00032937589 0.00032767511 0.0038436094  0.003843058    293.90987     41.49527    35.978931    34.423473    90.016431    119.66323    90.107069     710.1157    197.62553    28.379824     18.84994    14.338761     28.38001    18.845178    14.337916 
  220000    294.35445    1.2509986    3426.3295            0            0            0            0   -2350.4939    44657.537 -0.067234084   -17.036218 -0.041707817    3426.3295    1401.2435    945.97929    922.21421    28.378517    18.846465    14.336933 0.00038077721 0.00037779174 0.0037630239 0.0037610384    294.35445     41.49527    35.978931    34.423473    90.016431    119.66323    90.107069    695.22735    228.46633     28.37852    18.850197    14.340352    28.380613    18.846633    14.337226 
  230000    303.62781    1.2509986    3431.2255            0            0            0            0    -2256.827    44657.537 -0.067234084   -17.036218 -0.041707817    3431.2255    1438.6656    957.91039    884.80694    28.381127     18.84594    14.337552 0.00034796047 0.00034707244 0.0036324484 0.0036323683    303.62781     41.49527    35.978931    34.423473    90.016431    119.66323    90.107069    671.10322    208.77628    28.380376     18.84934     14.33997    28.379686    18.845707    14.337365 
  240000    290.42245    1.2509986    3448.8293            0            0            0            0   -2896.8255    44657.537 -0.067234084   -17.036218 -0.041707817    3448.8293    1378.1851    994.16295    914.75033    28.380089    18.844206    14.337618 0.00032736176 0.00032095232 0.0039605665 0.0039598757    290.42245     41.49527    35.978931    34.423473    90.016431    119.66323    90.107069    731.72381    196.41705    28.377111    18.848574    14.340125    28.379113    18.845337    14.336835 
  250000    298.19844    1.2509986    3532.0727            0            0            0            0   -5521.4793    44657.537 -0.067234084   -17.036218 -0.041707817    3532.0727    1467.7879    975.26226    923.67307     28.37764    18.847724    14.336735 0.00031537083 0.00031405805  0.004080528 0.0040768564    298.19844     41.49527    35.978931    34.423473    90.016431    119.66323    90.107069    753.88696     189.2225    28.378612    18.849335    14.339075    28.377919    18.845188    14.337353 
  260000    303.77103    1.2509986    3408.6416            0            0            0            0   -3188.9664    44657.537 -0.067234084   -17.036218 -0.041707817    3408.6416    1381.9472    957.37495    910.06193    28.379591    18.845871    14.337324 0.00035643212 0.00035619386 0.0037577066 0.0037572098    303.77103     41.49527    35.978931    34.423473    90.016431    119.66323    90.107069    694.24497    213.85927    28.379934    18.848907    14.339347    28.380317    18.845841    14.337592 
  270000    303.21616    1.2509986    3400.4402            0            0            0            0   -2893.8727    44657.537 -0.067234084   -17.036218 -0.041707817    3400.4402    1410.1609    932.81067    900.79016     28.37984    18.845049    14.337214 0.00037922842 0.00037683046  0.003889853  0.003886781    303.21616     41.49527    35.978931    34.423473    90.016431    119.66323    90.107069    718.65932    227.53705    28.380332    18.848802    14.338314    28.379474    18.846951    14.336382 
  280000    292.77657    1.2509986    3526.4992            0            0            0            0   -3789.8602    44657.537 -0.067234084   -17.036218 -0.041707817    3526.4992    1464.5508     979.8381    922.67148    28.378142    18.845187    14.336737 0.00040706557 0.0004066771 0.0038478202 0.0038471979    292.77657     41.49527    35.978931    34.423473    90.016431    119.66323    90.107069    710.89365    244.23934    28.379751    18.848533    14.339291    28.379274    18.845962    14.336957 
  290000    292.10583    1.2509986    3348.6412            0            0            0            0   -4368.9593    44657.537 -0.067234084   -17.036218 -0.041707817    3348.6412    1452.3725    904.48037    842.88207     28.38038    18.846581    14.337254 0.00034915572 0.00034640416 0.0038173936 0.0038164997    292.10583     41.49527    35.978931    34.423473    90.016431    119.66323    90.107069    705.27228    209.49343    28.379417    18.847375     14.33986    28.380754    18.845523    14.337206 
  300000    298.94709    1.2509986    3385.3663            0            0            0            0   -2582.3231    44657.537 -0.067234084   -17.036218 -0.041707817    3385.3663    1396.7963    939.70426      894.973    28.377855    18.847154    14.336111 0.00036247942 0.00036224065 0.0040215359 0.0040159235    298.94709     41.49527    35.978931    34.423473    90.016431    119.66323    90.107069    742.98804    217.48765    28.379456    18.848545    14.339737    28.377867     18.84473    14.336135 
  310000    298.03862    1.2509986    3409.2228            0            0            0            0   -2894.0768    44657.537 -0.067234084   -17.036218 -0.041707817    3409.2228    1412.3544    951.05233    885.85604    28.380135    18.847821    14.337713 0.00036553107 0.00036517938 0.0037309508 0.0037246412    298.03862     41.49527    35.978931    34.423473    90.016431    119.66323    90.107069    689.30177    219.31864    28.380145    18.848955    14.339596    28.380734    18.847735    14.337854 
  320000    297.35959    1.2509986    3388.2562            0            0            0            0   -2436.8956    44657.537 -0.067234084   -17.036218 -0.041707817    3388.2562     1425.557    953.54282    859.36416    28.378752    18.845229     14.33672 0.00036447616 0.0003635344 0.0040324918 0.0040322359    297.35959     41.49527    35.978931    34.423473    90.016431    119.66323    90.107069    745.01216     218.6857     28.37916    18.848577    14.340409    28.379942    18.845784    14.336886 
  330000    302.22273    1.2509986    3436.1496            0            0            0            0   -2492.3552    44657.537 -0.067234084   -17.036218 -0.041707817    3436.1496    1433.6171    916.07482    926.53784    28.378846    18.846691    14.337057 0.00035738176 0.00035632645 0.0038445097 0.0038444541    302.22273     41.49527    35.978931    34.423473    90.016431    119.66323    90.107069    710.28204    214.42906    28.379125    18.848944    14.340568    28.379673    18.845466    14.337455 
  340000    299.00551    1.2509986    3435.2377            0            0            0            0   -2496.0134    44657.537 -0.067234084   -17.036218 -0.041707817    3435.2377    1407.3465    969.16261     899.7052    28.379432    18.845813    14.336809 0.00035338946 0.00035072265 0.0037932435 0.0037910018    299.00551     41.49527    35.978931    34.423473    90.016431    119.66323    90.107069    700.81049    212.03368    28.380841    18.849173    14.340634    28.380134    18.846684    14.336443 
  350000    294.89949    1.2509986    3447.9441            0            0            0            0   -3912.6764    44657.537 -0.067234084   -17.036218 -0.041707817    3447.9441    1412.4371    943.78212    929.84011    28.382082    18.845272    14.337016 0.00032720689 0.00032498362 0.0037474295 0.0037413968    294.89949     41.49527    35.978931    34.423473    90.016431    119.66323    90.107069    692.34624    196.32413     28.38082    18.848569    14.340294    28.381992    18.844852    14.336319 
  360000    297.44338    1.2509986    3428.5663            0            0            0            0   -2703.3755    44657.537 -0.067234084   -17.036218 -0.041707817    3428.5663     1455.473    961.87167    862.28038    28.380909    18.845273    14.337399 0.00034588556 0.00034477988 0.0037176664 0.0037165031    297.44338     41.49527    35.978931    34.423473    90.016431    119.66323    90.107069    686.84744    207.53134    28.379337    18.848213    14.340285    28.379873     18.84643    14.336768 
  370000    299.70368    1.2509986    3440.5009            0            0            0            0   -2403.1803    44657.537 -0.067234084   -17.036218 -0.041707817    3440.5009    1451.2992    954.73023    882.45218    28.380882    18.847662     14.33764 0.00034039308 0.00033970881 0.0037508663 0.0037477397    299.70368     41.49527    35.978931    34.423473    90.016431    119.66323    90.107069    692.98119    204.23585    28.379568    18.848324    14.340096    28.378713    18.846826    14.337568 
  380000    304.25316    1.2509986    3446.1089            0            0            0            0   -1448.6706    44657.537 -0.067234084   -17.036218 -0.041707817    3446.1089    1430.0796    955.14797    902.37102    28.378143     18.84518    14.336456 0.00034890319 0.00034738472 0.0036684024  0.003664991    304.25316     41.49527    35.978931    34.423473    90.016431    119.66323    90.107069    677.74581    209.34192    28.379753    18.847805    14.339781    28.378023    18.845797    14.336936 
  390000    299.51993    1.2509986    3364.5511            0            0            0            0   -3274.8445    44657.537 -0.067234084   -17.036218 -0.041707817    3364.5511    1396.3873    943.88182    875.49136    28.379387    18.846858    14.337582 0.00037796277 0.00037165205 0.0035590071 0.0035579445    299.51993     41.49527    35.978931    34.423473    90.016431    119.66323    90.107069    657.53478    226.77766    28.377534    18.847892     14.34062    28.379906    18.846063    14.338106 
  400000    294.09057    1.2509986    3476.2899            0            0            0            0   -2976.0512    44657.537 -0.067234084   -17.036218 -0.041707817    3476.2899     1462.982    956.16735    900.54983    28.378274    18.845629    14.337286 0.00034947523 0.00034806784 0.0037937868 0.0037931394    294.09057     41.49527    35.978931    34.423473    90.016431    119.66323    90.107069    700.91087    209.68514    28.378733    18.848227    14.339972    28.379448    18.846098     14.33762 
  410000    294.44219    1.2509986    3416.2981            0            0            0            0   -3951.0003    44657.537 -0.067234084   -17.036218 -0.041707817    3416.2981    1404.2116    993.63376    865.75842    28.378879    18.847266    14.336453 0.00034821451 0.00034505671 0.0036097245 0.0036076632    294.44219     41.49527    35.978931    34.423473    90.016431    119.66323    90.107069    666.90493    208.92871    28.378615     18.84934    14.341109      28.3809    18.845611    14.336338 
  420000    298.77056    1.2509986    3505.6711            0            0            0            0   -2205.9921    44657.537 -0.067234084   -17.036218 -0.041707817    3505.6711    1484.9226    952.66955     908.4999    28.379487    18.845914    14.336696 0.00035635907 0.0003557159 0.0037757036 0.0037723073    298.77056     41.49527    35.978931    34.423473    90.016431    119.66323    90.107069    697.56995    213.81544    28.378929    18.849339    14.339261    28.381197    18.846018    14.336177 
  430000    293.11248    1.2509986    3476.6059            0            0            0            0   -4331.4522    44657.537 -0.067234084   -17.036218 -0.041707817    3476.6059    1440.5763    966.43848    907.12294    28.379378    18.844392    14.337078 0.00034221137 0.00034103718 0.0038912248 0.0038891857    293.11248     41.49527    35.978931    34.423473    90.016431    119.66323    90.107069    718.91276    205.32682    28.379466    18.848083     14.33909    28.379545     18.84435    14.336426 
  440000    295.52187    1.2509986    3418.9515            0            0            0            0   -1441.5345    44657.537 -0.067234084   -17.036218 -0.041707817    3418.9515    1420.4985    933.36942    907.77054    28.380836    18.844529    14.338074 0.0004014616 0.00040093239 0.0036935875  0.003692372    295.52187     41.49527    35.978931    34.423473    90.016431    119.66323    90.107069    682.39881    240.87696    28.379634    18.848418    14.339226    28.380226    18.845227    14.338256 
  450000    298.81724    1.2509986    3372.8343            0            0            0            0   -2938.1012    44657.537 -0.067234084   -17.036218 -0.041707817    3372.8343    1388.9535    939.57003    889.70379    28.379354    18.846885    14.336458 0.00036170329 0.0003604992 0.0036439046 0.0036402283    298.81724     41.49527    35.978931    34.423473    90.016431    119.66323    90.107069    673.21978    217.02197    28.378534    18.849236    14.339308    28.381711    18.845322    14.337048 
  460000    296.32066    1.2509986    3451.5117            0            0            0            0   -2868.2621    44657.537 -0.067234084   -17.036218 -0.041707817    3451.5117     1423.258    958.29061      907.709    28.379136    18.845452    14.336325 0.00034718831 0.00034449411 0.0037760645 0.0037740343    296.32066     41.49527    35.978931    34.423473    90.016431    119.66323    90.107069    697.63663    208.31299    28.379007     18.84751    14.339275    28.379433    18.846525    14.336379 
  470000    300.44295    1.2509986    3495.6403            0            0            0            0   -2646.9813    44657.537 -0.067234084   -17.036218 -0.041707817    3495.6403    1477.9892    969.98648     894.5373    28.379815    18.846744    14.337149 0.00034302017 0.00034196804 0.0039475709 0.0039448958    300.44295     41.49527    35.978931    34.423473    90.016431    119.66323    90.107069    729.32284     205.8121    28.379631    18.847998    14.339771    28.380618    18.846854    14.336914 
  480000    298.74468    1.2509986    3520.4416            0            0            0            0   -1547.9326    44657.537 -0.067234084   -17.036218 -0.041707817    3520.4416     1521.992    968.26438    880.06662    28.380923    18.845072    14.337476 0.00033882618 0.00033837394  0.003840157 0.0038349499    298.74468     41.49527    35.978931    34.423473    90.016431    119.66323    90.107069    709.47787    203.29571     28.37892    18.849118    14.339827    28.382083    18.845288    14.337394 
  490000    299.62851    1.2509986    3416.8037            0            0            0            0   -3837.4024    44657.537 -0.067234084   -17.036218 -0.041707817    3416.8037    1393.3268    1005.0243    864.20966    28.382062    18.848259    14.338489 0.0003593941 0.00035842714 0.0037326511 0.0037183753    299.62851     41.49527    35.978931    34.423473    90.016431    119.66323    90.107069     689.6159    215.63646    28.379397    18.849975    14.339761    28.383283    18.846824    14.337903 
  500000    298.92715    1.2509986    3455.8259            0            0            0            0   -3074.1082    44657.537 -0.067234084   -17.036218 -0.041707817    3455.8259    1421.4774    955.61709     920.1746    28.379585     18.84662     14.33705 0.00032244902 0.00031736788 0.0037465154 0.0037449304    298.92715     41.49527    35.978931    34.423473    90.016431    119.66323    90.107069    692.17736    193.46941    28.378016    18.850653    14.339505    28.378833    18.845863    14.336575 
  510000    298.86626    1.2509986    3457.1104            0            0            0            0   -2298.4567    44657.537 -0.067234084   -17.036218 -0.041707817    3457.1104    1422.2014     990.1601    889.73943    28.378789    18.846275    14.337007 0.00037699549 0.00037658607 0.0037405424 0.0037395146    298.86626     41.49527    35.978931    34.423473    90.016431    119.66323    90.107069    691.07384    226.19729    28.379349    18.848585     14.33921    28.379331    18.846365    14.337203 
  520000    296.63722    1.2509986    3471.0846            0            0            0            0   -4181.5503    44657.537 -0.067234084   -17.036218 -0.041707817    3471.0846     1442.196    952.53579    919.52727    28.381013    18.846487    14.337005 0.00033525668  0.000333344 0.0039065329 0.0039047768    296.63722     41.49527    35.978931    34.423473    90.016431    119.66323    90.107069    721.74097    201.15401    28.380064    18.848911    14.340921    28.379038    18.846226    14.336495 
  530000    297.44188    1.2509986    3529.5191            0            0            0            0   -2291.3691    44657.537 -0.067234084   -17.036218 -0.041707817    3529.5191    1470.3392    982.90142     916.2142    28.381362    18.845746    14.337875 0.00035015509 0.00034720942 0.0039574164 0.0039532351    297.44188     41.49527    35.978931    34.423473    90.016431    119.66323    90.107069     731.1418    210.09305    28.380157    18.848669    14.341209    28.381831    18.845234    14.337048 
  540000     295.0869    1.2509986    3439.5058            0            0            0            0   -2994.5007    44657.537 -0.067234084   -17.036218 -0.041707817    3439.5058    1469.2701    941.70678     873.1491    28.380369    18.846384    14.337113 0.00034939046 0.00034861422 0.0038349666 0.0038342579     295.0869     41.49527    35.978931    34.423473    90.016431    119.66323    90.107069    708.51893    209.63427    28.378912    18.849239    14.340195    28.379992    18.845972     14.33661 
  550000    293.96463    1.2509986    3385.5008            0            0            0            0   -1982.7137    44657.537 -0.067234084   -17.036218 -0.041707817    3385.5008     1401.746    938.57989    895.92001    28.377339    18.845775     14.33669 0.00037063851 0.00036901518  0.003758251  0.003757881    293.96463     41.49527    35.978931    34.423473    90.016431    119.66323    90.107069    694.34555    222.38311    28.380086     18.84787    14.339829    28.379498    18.845828    14.336881 
  560000    297.84486    1.2509986    3454.9108            0            0            0            0    -3036.117    44657.537 -0.067234084   -17.036218 -0.041707817    3454.9108    1477.5089    937.52537    887.84181    28.377312    18.845466     14.33623 0.00035641047 0.00035213913 0.0038425417 0.0038413766    297.84486     41.49527    35.978931    34.423473    90.016431    119.66323    90.107069    709.91845    213.84628    28.378328    18.850501    14.338897    28.379229    18.846338    14.336984 
  570000     300.5763    1.2509986    3454.3295            0            0            0            0   -3970.5273    44657.537 -0.067234084   -17.036218 -0.041707817    3454.3295    1435.2784    955.64942    906.56044     28.37962    18.847402    14.338088 0.0003522772 0.00035157014 0.0039420177 0.0039348836     300.5763     41.49527    35.978931    34.423473    90.016431    119.66323    90.107069    728.29687    211.36632    28.379836    18.848398    14.339137    28.379029    18.847975    14.337782 
  580000    297.61635    1.2509986    3451.1243            0            0            0            0   -2802.6065    44657.537 -0.067234084   -17.036218 -0.041707817    3451.1243     1437.175     963.2258    892.65371    28.379475    18.846596    14.336966 0.00036789491 0.00036782897 0.0037696716 0.0037692379    297.61635     41.49527    35.978931    34.423473    90.016431    119.66323    90.107069    696.45552    220.73695     28.37931    18.849084    14.339645    28.379172    18.845404    14.337124 
  590000    297.45703    1.2509986    3489.3608            0            0            0            0    -3999.101    44657.537 -0.067234084   -17.036218 -0.041707817    3489.3608    1395.7384    996.67658    939.62712    28.379329    18.846179    14.337271 0.00032963116 0.00032689335  0.003680498 0.0036784933    297.45703     41.49527    35.978931    34.423473    90.016431    119.66323    90.107069    679.98049     197.7787     28.37958    18.848132    14.338238    28.378763    18.845487    14.336314 
  600000    300.78194    1.2509986    3507.1215            0            0            0            0   -2752.4674    44657.537 -0.067234084   -17.036218 -0.041707817    3507.1215    1455.3034    984.65508     907.8511     28.38001    18.846114    14.337327 0.00034289438 0.00034206644 0.0038683035 0.0038676855    300.78194     41.49527    35.978931    34.423473    90.016431    119.66323    90.107069    714.67799    205.73663    28.379737    18.848188    14.339978    28.379307    18.845372     14.33667 
  610000    294.57565    1.2509986    3372.5631            0            0            0            0   -2747.2989    44657.537 -0.067234084   -17.036218 -0.041707817    3372.5631    1394.9451    927.28417    892.76117    28.378899    18.846365    14.336628 0.00032504193 0.00032405361 0.0039717828 0.0039700066    294.57565     41.49527    35.978931    34.423473    90.016431    119.66323    90.107069    733.79604    195.02516    28.378702    18.848713    14.340048    28.378785    18.845282    14.336437 
  620000    300.14714    1.2509986    3446.7556            0            0            0            0   -2740.0389    44657.537 -0.067234084   -17.036218 -0.041707817    3446.7556    1436.4189    968.71291     883.7971     28.38082    18.845357    14.337376 0.00033774708 0.0003373907 0.0036757097 0.0036717086    300.14714     41.49527    35.978931    34.423473    90.016431    119.66323    90.107069    679.09585    202.64825    28.379652     18.84865    14.339174     28.38173    18.846009    14.337072 
  630000    304.85071    1.2509986    3503.8783            0            0            0            0   -2846.5278    44657.537 -0.067234084   -17.036218 -0.041707817    3503.8783    1443.2249    955.54845    935.74048    28.381299    18.845486    14.338745 0.00037074013 0.0003691362 0.0037592677 0.0037560567    304.85071     41.49527    35.978931    34.423473    90.016431    119.66323    90.107069    694.53338    222.44408    28.378954    18.848489    14.338655    28.379765    18.846692    14.338578 
  640000     298.9792    1.2509986    3440.7798            0            0            0            0   -3172.1723    44657.537 -0.067234084   -17.036218 -0.041707817    3440.7798    1426.8704    951.29978    907.21778    28.380824    18.845141    14.337565 0.00035702963 0.00035417235 0.0037204174 0.0037197132     298.9792     41.49527    35.978931    34.423473    90.016431    119.66323    90.107069    687.35571    214.21778    28.380464    18.847674    14.340131    28.380622    18.845647    14.337127 
  650000    298.20214    1.2509986    3404.9349            0            0            0            0   -1685.5138    44657.537 -0.067234084   -17.036218 -0.041707817    3404.9349    1436.2635    920.95919    888.39189    28.381069    18.845115    14.337426 0.0003399117 0.00033928115  0.003763144 0.0037629417    298.20214     41.49527    35.978931    34.423473    90.016431    119.66323    90.107069    695.24953    203.94702    28.378858    18.848952    14.339265    28.379513    18.845806    14.337319 
  660000    304.50877    1.2509986     3407.887            0            0            0            0   -4023.3359    44657.537 -0.067234084   -17.036218 -0.041707817     3407.887    1442.0147    947.73671    866.12523     28.37791    18.848013    14.336838 0.00035101394 0.00034941319  0.003927089 0.0039212088    304.50877     41.49527    35.978931    34.423473    90.016431    119.66323    90.107069    725.53875    210.60836    28.379798    18.849539    14.340763    28.378543    18.847533    14.337083 
  670000    293.92242    1.2509986    3495.2009            0            0            0            0   -3227.4416    44657.537 -0.067234084   -17.036218 -0.041707817    3495.2009    1451.8324    962.23897    919.83636    28.378962    18.846345      14.3379 0.00036023882 0.00035739625 0.0039872974 0.0039857778    293.92242     41.49527    35.978931    34.423473    90.016431    119.66323    90.107069     736.6624    216.14329    28.379678    18.847372    14.340006    28.378932     18.84632    14.337437 
  680000    291.56132    1.2509986    3427.1489            0            0            0            0   -1224.0626    44657.537 -0.067234084   -17.036218 -0.041707817    3427.1489    1391.6474    961.29672    918.32541    28.378855    18.847095     14.33753 0.00036050199 0.00035815137 0.0038970245 0.0038952282    291.56132     41.49527    35.978931    34.423473    90.016431    119.66323    90.107069    719.98426    216.30119    28.380142    18.847655    14.340042    28.380276    18.846723     14.33741 
  690000    295.00913    1.2509986      3408.92            0            0            0            0   -2635.9095    44657.537 -0.067234084   -17.036218 -0.041707817      3408.92    1387.8716    966.64135     901.5284    28.379451    18.845699    14.336783 0.0003545777 0.00035410006 0.0038449063 0.0038437425    295.00913     41.49527    35.978931    34.423473    90.016431    119.66323    90.107069     710.3553    212.74662     28.37972    18.848398    14.339909    28.380449    18.846117    14.336676 
  700000    301.45604    1.2509986    3455.9659            0            0            0            0   -5054.9957    44657.537 -0.067234084   -17.036218 -0.041707817    3455.9659    1458.2797    943.28796    898.54757    28.379681    18.846678    14.337775 0.00034476073 0.00034387851 0.0036425016 0.0036362919    301.45604     41.49527    35.978931    34.423473    90.016431    119.66323    90.107069    672.96058    206.85644    28.379735    18.848657    14.340489    28.380772    18.847454    14.338433 
  710000     294.5122    1.2509986    3484.1313            0            0            0            0    -3181.491    44657.537 -0.067234084   -17.036218 -0.041707817    3484.1313    1416.0619      985.193    930.91263    28.381914     18.84628     14.33832 0.00033862133 0.0003371602 0.0038161378 0.0038151751     294.5122     41.49527    35.978931    34.423473    90.016431    119.66323    90.107069    705.04026     203.1728    28.379689    18.847906    14.340105    28.380596    18.845423    14.337852 
  720000    297.86384    1.2509986    3439.8963            0            0            0            0   -2063.4038    44657.537 -0.067234084   -17.036218 -0.041707817    3439.8963    1424.3191    930.91554       923.45    28.380466    18.846825    14.337097 0.00033699444 0.00033533738 0.0038873818 0.0038866153    297.86384     41.49527    35.978931    34.423473    90.016431    119.66323    90.107069    718.20275    202.19667    28.378278    18.849159    14.339676    28.379314    18.846188     14.33717 
  730000    300.54643    1.2509986    3437.3942            0            0            0            0   -2478.6486    44657.537 -0.067234084   -17.036218 -0.041707817    3437.3942    1423.2646    945.69654     910.6863    28.382181    18.847488    14.337979 0.00035074016 0.00035046088   0.00389106  0.003885045    300.54643     41.49527    35.978931    34.423473    90.016431    119.66323    90.107069    718.88231     210.4441    28.379783    18.848914    14.339171    28.382109    18.846316    14.337094 
  740000    295.31347    1.2509986    3438.7911            0            0            0            0   -3211.3041    44657.537 -0.067234084   -17.036218 -0.041707817    3438.7911    1450.2584    973.37865    872.51476    28.380245    18.844788     14.33839 0.00034209187 0.0003413553 0.0037818362 0.0037798251    295.31347     41.49527    35.978931    34.423473    90.016431    119.66323    90.107069    698.70297    205.25512     28.37884    18.849348    14.339972    28.380529    18.845344    14.338481 
  750000    300.97905    1.2509986     3428.523            0            0            0            0   -3248.3044    44657.537 -0.067234084   -17.036218 -0.041707817     3428.523    1426.0199    924.89144    918.08401    28.378269    18.845871    14.336706 0.00039533795 0.00039427442 0.0039416516 0.0039405577    300.97905     41.49527    35.978931    34.423473    90.016431    119.66323    90.107069    728.22922    237.20277    28.379895     18.84976    14.340264    28.378803    18.845386    14.337005 
  760000    299.83172    1.2509986    3415.1205            0            0            0            0   -1455.1074    44657.537 -0.067234084   -17.036218 -0.041707817    3415.1205    1459.3892    942.67048    863.40738    28.378751    18.844741    14.336894 0.00036239842 0.00036195895  0.004122515 0.0041200226    299.83172     41.49527    35.978931    34.423473    90.016431    119.66323    90.107069    761.64416    217.43905     28.37957    18.848372    14.339469    28.380895    18.844902    14.336269 
  770000    300.49202    1.2509986    3414.8104            0            0            0            0   -3015.2776    44657.537 -0.067234084   -17.036218 -0.041707817    3414.8104    1408.5536    965.05489    888.95734    28.379385    18.847548    14.337181 0.00033200788 0.0003307687 0.0036434686 0.0036429273    300.49202     41.49527    35.978931    34.423473    90.016431    119.66323    90.107069    673.13922    199.20473    28.378788    18.849338    14.338901    28.380437    18.845391    14.336886 
  780000    306.41896    1.2509986    3441.2159            0            0            0            0   -3890.2557    44657.537 -0.067234084   -17.036218 -0.041707817    3441.2159    1430.0976    961.53431     891.1572    28.381704    18.845935    14.337364 0.00034279372 0.00034258037 0.0038199947 0.0038179038    306.41896     41.49527    35.978931    34.423473    90.016431    119.66323    90.107069    705.75284    205.67623        28.38    18.849099    14.339735    28.381215    18.845241    14.337002 
  790000    305.52297    1.2509986    3381.7105            0            0            0            0   -1739.3111    44657.537 -0.067234084   -17.036218 -0.041707817    3381.7105    1396.0154    910.21526    919.40116    28.380384    18.845418    14.338065 0.00033186189 0.00033132235 0.0037687972 0.0037669502    305.52297     41.49527    35.978931    34.423473    90.016431    119.66323    90.107069    696.29399    199.11713    28.379412    18.849103    14.340353    28.378599    18.845624     14.33667 
  800000    294.11178    1.2509986    3422.8733            0            0            0            0   -1940.5015    44657.537 -0.067234084   -17.036218 -0.041707817    3422.8733    1381.2879    957.03599    920.27796    28.379742    18.845765    14.337538 0.00037989105 0.00037948108 0.0039304365 0.0039297493    294.11178     41.49527    35.978931    34.423473    90.016431    119.66323    90.107069    726.15722    227.93463    28.379752    18.848843    14.339052    28.380346    18.844851    14.337379 
  810000    299.04973    1.2509986    3446.3177            0            0            0            0   -2922.5586    44657.537 -0.067234084   -17.036218 -0.041707817    3446.3177     1424.705    967.50816    898.72219    28.379626    18.844981    14.336031 0.00036418843 0.00036254597 0.0038048223 0.0038025506    299.04973     41.49527    35.978931    34.423473    90.016431    119.66323    90.107069     702.9497    218.51306    28.379495    18.847734     14.33959    28.379564    18.844584    14.336074 
  820000    299.26548    1.2509986    3418.9064            0            0            0            0   -2461.0956    44657.537 -0.067234084   -17.036218 -0.041707817    3418.9064    1440.3871    935.24645    887.44065    28.382983    18.846332    14.338782 0.00033899973 0.00033853814 0.0037420855 0.0037289866    299.26548     41.49527    35.978931    34.423473    90.016431    119.66323    90.107069    691.35893    203.39984    28.380151     18.84871     14.33951    28.383074    18.845759    14.338807 
  830000    297.63578    1.2509986    3487.4116            0            0            0            0   -3533.7001    44657.537 -0.067234084   -17.036218 -0.041707817    3487.4116      1480.72     985.3898    871.81552    28.378238    18.845302    14.336535 0.00041164155 0.00041086396 0.0038956692 0.0038938174    297.63578     41.49527    35.978931    34.423473    90.016431    119.66323    90.107069    719.73387    246.98493    28.379419    18.848879    14.338778    28.379814    18.845355    14.335909 
  840000     295.3233    1.2509986    3437.7341            0            0            0            0   -1203.9462    44657.537 -0.067234084   -17.036218 -0.041707817    3437.7341    1409.4166    966.51071    900.71264     28.37995    18.847139    14.337239 0.00034780232 0.00034582371 0.0039240889 0.0039225768     295.3233     41.49527    35.978931    34.423473    90.016431    119.66323    90.107069    724.98447    208.68139    28.379367    18.849706    14.340848     28.37912    18.846422    14.336896 
  850000    295.63656    1.2509986    3465.5459            0            0            0            0   -2782.1137    44657.537 -0.067234084   -17.036218 -0.041707817    3465.5459    1437.1838    963.94413    906.11822    28.379616    18.849083    14.338023 0.00034014941 0.00033994856 0.0037913396 0.0037888732    295.63656     41.49527    35.978931    34.423473    90.016431    119.66323    90.107069    700.45874    204.08965    28.379841    18.848833    14.339934    28.380532    18.846566    14.338134 
  860000    297.72317    1.2509986    3483.2378            0            0            0            0   -3863.5697    44657.537 -0.067234084   -17.036218 -0.041707817    3483.2378    1464.9425    935.35607     923.8166    28.378944    18.845874    14.337207 0.00033941297 0.00033888094 0.0038644533 0.0038637387    297.72317     41.49527    35.978931    34.423473    90.016431    119.66323    90.107069    713.96666    203.64778    28.379918    18.849079    14.339008    28.380395    18.844879    14.337123 
  870000    296.73618    1.2509986    3412.1817            0            0            0            0   -3063.3651    44657.537 -0.067234084   -17.036218 -0.041707817    3412.1817    1439.8871     912.5363    905.80247    28.379397    18.846087    14.336769 0.00036615897 0.00036544067 0.0038866855 0.0038862889    296.73618     41.49527    35.978931    34.423473    90.016431    119.66323    90.107069    718.07411    219.69538    28.378947    18.848425    14.339592    28.379336    18.845535    14.336857 
  880000    296.28687    1.2509986    3467.8803            0            0            0            0   -1390.0985    44657.537 -0.067234084   -17.036218 -0.041707817    3467.8803    1452.0212    953.67554    905.70282    28.378346    18.845954     14.33648 0.00037363252 0.00037046674  0.003869225 0.0038667761    296.28687     41.49527    35.978931    34.423473    90.016431    119.66323    90.107069    714.84824    224.17951    28.377903    18.849243    14.339022    28.378641    18.845995    14.336367 
  890000    303.96326    1.2509986    3365.4464            0            0            0            0   -2595.2117    44657.537 -0.067234084   -17.036218 -0.041707817    3365.4464    1391.8115    924.97589    899.71465    28.381564    18.848289    14.337111 0.00038491389 0.00038321073 0.0039544891 0.0039427431    303.96326     41.49527    35.978931    34.423473    90.016431    119.66323    90.107069    730.60098    230.94833    28.380134    18.848669     14.33852    28.381181    18.848591    14.337666 
  900000     291.9822    1.2509986    3496.7803            0            0            0            0   -2529.5386    44657.537 -0.067234084   -17.036218 -0.041707817    3496.7803    1442.4895     988.1018    911.44524    28.379996    18.846878    14.337672 0.00036611889 0.00036350955 0.0037765727 0.0037710914     291.9822     41.49527    35.978931    34.423473    90.016431    119.66323    90.107069    697.73053    219.67133    28.378932    18.849247    14.338167    28.379358    18.847574    14.338195 
  910000    299.28805    1.2509986      3480.07            0            0            0            0   -2967.9207    44657.537 -0.067234084   -17.036218 -0.041707817      3480.07    1423.6674    985.64417    913.53173    28.378393    18.845679    14.336263 0.00036229379 0.00036042127 0.0038895663 0.0038890683    299.28805     41.49527    35.978931    34.423473    90.016431    119.66323    90.107069    718.60634    217.37628     28.37979    18.849171    14.338299    28.380233    18.845316     14.33672 
  920000    303.71992    1.2509986    3406.6683            0            0            0            0   -1672.2484    44657.537 -0.067234084   -17.036218 -0.041707817    3406.6683    1404.4858    961.77971    884.94052    28.381188     18.84668    14.337822 0.00034583512 0.00034360167 0.0040599729 0.0040597464    303.71992     41.49527    35.978931    34.423473    90.016431    119.66323    90.107069    750.08937    207.50107    28.379661    18.848284    14.340938    28.380149    18.845219    14.337046 
  930000    300.06555    1.2509986    3369.8581            0            0            0            0   -2852.0862    44657.537 -0.067234084   -17.036218 -0.041707817    3369.8581    1390.6214    925.39862    899.43126    28.378338    18.846727    14.337119 0.00033564516 0.00033450383 0.0037750044 0.0037671217    300.06555     41.49527    35.978931    34.423473    90.016431    119.66323    90.107069    697.44076     201.3871    28.379029      18.8488    14.340542    28.377281    18.846677    14.337444 
  940000    302.72055    1.2509986    3377.2471            0            0            0            0   -2993.1747    44657.537 -0.067234084   -17.036218 -0.041707817    3377.2471    1385.8548    942.84829    891.76686    28.379537    18.846082    14.336985 0.00036813976 0.00036591899 0.0035558333 0.0035531239    302.72055     41.49527    35.978931    34.423473    90.016431    119.66323    90.107069    656.94841    220.88386    28.380915    18.849459    14.339217    28.380008    18.847014    14.336715 
  950000    297.62103    1.2509986    3420.8056            0            0            0            0   -2819.9635    44657.537 -0.067234084   -17.036218 -0.041707817    3420.8056    1385.5014    961.94004    913.40579    28.378712    18.846526    14.336697 0.00035102162 0.00034979154 0.0038892444  0.003888528    297.62103     41.49527    35.978931    34.423473    90.016431    119.66323    90.107069    718.54688    210.61297    28.379634    18.849157    14.340735    28.379201    18.845663     14.33671 
  960000    296.52983    1.2509986    3382.9961            0            0            0            0   -3685.2412    44657.537 -0.067234084   -17.036218 -0.041707817    3382.9961    1405.7765    951.66018    873.68776    28.380776    18.846241    14.338021 0.00032938334 0.00032859609 0.0038131514 0.0038123967    296.52983     41.49527    35.978931    34.423473    90.016431    119.66323    90.107069    704.48852       197.63    28.380212    18.849545    14.339911    28.379593    18.846315    14.337292 
  970000    303.44323    1.2509986    3454.3219            0            0            0            0   -2728.5541    44657.537 -0.067234084   -17.036218 -0.041707817    3454.3219    1457.1658    932.08807    904.06312    28.378529    18.847368    14.336594 0.00035365491 0.00035232544 0.0038416022 0.0038353239    303.44323     41.49527    35.978931    34.423473    90.016431    119.66323    90.107069    709.74487    212.19294    28.379773    18.848848    14.340759    28.379225    18.847611    14.336094 
  980000    303.86477    1.2509986    3293.4755            0            0            0            0   -2650.8416    44657.537 -0.067234084   -17.036218 -0.041707817    3293.4755    1378.4982    901.90594    862.89733     28.37884    18.846346    14.337075 0.00035152338 0.0003508553 0.0037768704 0.0037758924    303.86477     41.49527    35.978931    34.423473    90.016431    119.66323    90.107069    697.78552    210.91403     28.38037    18.849078    14.339599    28.380425    18.846248    14.337208 
  990000    294.66983    1.2509986    3384.6971            0            0            0            0   -1170.1503    44657.537 -0.067234084   -17.036218 -0.041707817    3384.6971    1423.6517    887.68622    915.36586    28.380778    18.845797     14.33687 0.0003428091 0.00034215878 0.0036257485 0.0036154845    294.66983     41.49527    35.978931    34.423473    90.016431    119.66323    90.107069     669.8654    205.68546    28.380267    18.848933    14.339265     28.37772    18.847501     14.33593 
 1000000    300.00396    1.2509986    3407.8156            0            0            0            0   -2754.1326    44657.537 -0.067234084   -17.036218 -0.041707817    3407.8156    1401.3505    952.27046    896.00519    28.379394    18.846912    14.336054 0.00034614834 0.00034471012  0.003714418  0.003711554    300.00396     41.49527    35.978931    34.423473    90.016431    119.66323    90.107069     686.2473    207.68901    28.378504    18.848511    14.339919    28.378667    18.845864     14.33608 
 1010000    294.98366    1.2509986    3478.6578            0            0            0            0    -4649.547    44657.537 -0.067234084   -17.036218 -0.041707817    3478.6578     1446.533    967.96124    909.09941    28.378359    18.845971    14.336117 0.00033839804 0.0003376837 0.0037565627 0.0037499152    294.98366     41.49527    35.978931    34.423473    90.016431    119.66323    90.107069    694.03363    203.03883    28.379697     18.84898    14.338805    28.377622    18.845856    14.335959 
 1020000    296.62207    1.2509986    3472.7021            0            0            0            0   -1570.2122    44657.537 -0.067234084   -17.036218 -0.041707817    3472.7021    1411.6777    985.11781    918.78475    28.379479    18.848028    14.336928 0.00039017215 0.00038979057  0.003765346 0.0037631019    296.62207     41.49527    35.978931    34.423473    90.016431    119.66323    90.107069    695.65635    234.10329    28.379168     18.84935     14.33998    28.380882    18.846182    14.336492 
 1030000    292.06343    1.2509986    3440.5042            0            0            0            0   -2352.3267    44657.537 -0.067234084   -17.036218 -0.041707817    3440.5042    1442.6287    948.06781    895.48928    28.380212    18.845748    14.336715 0.00037928272 0.0003788952 0.0038675416 0.0038605934    292.06343     41.49527    35.978931    34.423473    90.016431    119.66323    90.107069    714.53723    227.56963    28.378969    18.849219     14.33963    28.378743    18.847157    14.335539 
 1040000    301.39503    1.2509986    3417.1883            0            0            0            0   -1565.0151    44657.537 -0.067234084   -17.036218 -0.041707817    3417.1883    1382.1125     945.8765    929.13983    28.381872    18.844348    14.338294 0.00033564667 0.00033518678 0.0038088681 0.0038014226    301.39503     41.49527    35.978931    34.423473    90.016431    119.66323    90.107069    703.69717      201.388    28.379188    18.849582    14.339656    28.382107    18.844159    14.337932 
 1050000    296.38263    1.2509986     3450.116            0            0            0            0   -856.75655    44657.537 -0.067234084   -17.036218 -0.041707817     3450.116    1428.2174    955.12962    909.03276    28.378781    18.844895    14.336344 0.0003951416 0.00039403308 0.0037226831 0.0037223872    296.38263     41.49527    35.978931    34.423473    90.016431    119.66323    90.107069     687.7743    237.08496    28.380489    18.848524    14.339624    28.379436    18.845381    14.336882 
 1060000    295.22548    1.2509986    3445.5245            0            0            0            0   -2502.3948    44657.537 -0.067234084   -17.036218 -0.041707817    3445.5245    1436.5886    953.68178    899.30182     28.37742    18.846926    14.336772 0.00036185312 0.00036097643   0.00384613 0.0038416191    295.22548     41.49527    35.978931    34.423473    90.016431    119.66323    90.107069    710.58139    217.11187    28.380102    18.848668    14.340316    28.379676    18.847492    14.336615 
 1070000    296.81341    1.2509986     3396.039            0            0            0            0    -705.4737    44657.537 -0.067234084   -17.036218 -0.041707817     3396.039    1413.8792    973.13806     863.9596    28.380285    18.846859    14.337577 0.00040536995 0.0004035646 0.0037859737 0.0037846409    296.81341     41.49527    35.978931    34.423473    90.016431    119.66323    90.107069    699.46737    243.22197    28.380559    18.849123    14.338751    28.379925    18.846621    14.337189 
 1080000    301.71443    1.2509986    3677.9588            0            0            0            0   -2818.6295    44657.537 -0.067234084   -17.036218 -0.041707817    3677.9588    1534.4593    1025.2643    947.23019    28.380788    18.845083    14.336865 0.00032726336 0.00032644121 0.0039644614 0.0039630399    301.71443     41.49527    35.978931    34.423473    90.016431    119.66323    90.107069    732.44339    196.35802    28.379006    18.848651    14.339015    28.380519    18.844543    14.337031 
 1090000    290.70458    1.2509986    3467.5109            0            0            0            0   -5018.8934    44657.537 -0.067234084   -17.036218 -0.041707817    3467.5109    1463.7034    954.34343    894.59695    28.378797    18.847121    14.336838 0.00034339298 0.00034310667 0.0039338268  0.003932051    290.70458     41.49527    35.978931    34.423473    90.016431    119.66323    90.107069    726.78358    206.03579    28.379206    18.849402    14.339748    28.381131    18.845663    14.337251 
 1100000    291.16648    1.2509986    3424.4957            0            0            0            0   -3213.8714    44657.537 -0.067234084   -17.036218 -0.041707817    3424.4957    1389.4978    1004.7892       876.61    28.379772    18.845637    14.337681 0.00033420265 0.00033193725 0.0037660263 0.0037659585    291.16648     41.49527    35.978931    34.423473    90.016431    119.66323    90.107069    695.78206    200.52159    28.379357    18.849513    14.341043    28.379981    18.845534    14.337453 
 1110000    294.09831    1.2509986     3447.671            0            0            0            0   -2800.2954    44657.537 -0.067234084   -17.036218 -0.041707817     3447.671    1468.2281    967.72314    859.13143    28.379961     18.84596    14.336965 0.00033769812 0.00033429661 0.0039741743 0.0039725157    294.09831     41.49527    35.978931    34.423473    90.016431    119.66323    90.107069    734.23786    202.61887    28.379404    18.847411    14.338737    28.381024     18.84543    14.336832 
 1120000     302.8404    1.2509986    3434.4996            0            0            0            0   -3728.3394    44657.537 -0.067234084   -17.036218 -0.041707817    3434.4996    1425.3483    906.72182    940.77743    28.377222    18.845936    14.336198 0.00032373716 0.0003233906 0.0037990279  0.003795814     302.8404     41.49527    35.978931    34.423473    90.016431    119.66323    90.107069    701.87917     194.2423    28.379036    18.849287    14.339633    28.379771    18.847145    14.336615 
 1130000    304.56197    1.2509986    3434.0284            0            0            0            0   -1012.1994    44657.537 -0.067234084   -17.036218 -0.041707817    3434.0284    1436.6861    947.76071    894.00195    28.379619     18.84695    14.337377 0.00032828676 0.00032722597 0.0037652793 0.0037620071    304.56197     41.49527    35.978931    34.423473    90.016431    119.66323    90.107069    695.64404    196.97206    28.380253    18.848477    14.340176    28.381317    18.845731    14.338234 
 1140000    298.16795    1.2509986     3509.761            0            0            0            0   -4455.8313    44657.537 -0.067234084   -17.036218 -0.041707817     3509.761    1486.1504    970.77781     895.1297    28.380814    18.846814    14.337058 0.00034674529 0.00034569352 0.0037853022 0.0037839543    298.16795     41.49527    35.978931    34.423473    90.016431    119.66323    90.107069    699.34331    208.04718    28.378808    18.849261    14.340294    28.380533    18.846367    14.337086 
 1150000    296.30534    1.2509986    3382.4612            0            0            0            0   -2645.4159    44657.537 -0.067234084   -17.036218 -0.041707817    3382.4612    1377.6576    931.93379    913.33171    28.379196    18.847126    14.336139 0.00032707633 0.00032696091 0.0039073379 0.0039002593    296.30534     41.49527    35.978931    34.423473    90.016431    119.66323    90.107069    721.88969     196.2458    28.379347     18.84885    14.339426    28.379408    18.847529    14.335623 
 1160000    298.39187    1.2509986    3378.6099            0            0            0            0   -3359.9283    44657.537 -0.067234084   -17.036218 -0.041707817    3378.6099    1404.8925    894.01798    917.20541    28.380221    18.846279    14.338108 0.00034298127 0.00034277531 0.0037770388 0.0037760996    298.39187     41.49527    35.978931    34.423473    90.016431    119.66323    90.107069    697.81664    205.78876    28.379754    18.848605    14.339633    28.379581     18.84602    14.338031 
 1170000    298.82358    1.2509986    3426.6074            0            0            0            0   -1035.5439    44657.537 -0.067234084   -17.036218 -0.041707817    3426.6074     1426.738    960.96001    885.81155    28.380044    18.847556    14.337899 0.00035010298 0.00034888702 0.0038634663 0.0038611008    298.82358     41.49527    35.978931    34.423473    90.016431    119.66323    90.107069    713.78431    210.06179    28.380151    18.849556    14.338885     28.38041    18.845986    14.338586 
 1180000    295.21487    1.2509986    3430.7225            0            0            0            0   -3567.1266    44657.537 -0.067234084   -17.036218 -0.041707817    3430.7225     1424.544    967.19434    888.84592    28.378411    18.846057    14.337652 0.00036879451 0.00036692479 0.0039247998 0.0039243364    295.21487     41.49527    35.978931    34.423473    90.016431    119.66323    90.107069    725.11583    221.27671     28.37939    18.847714    14.340033    28.379183    18.845254    14.337404 
 1190000    298.84306    1.2509986    3422.0425            0            0            0            0   -2636.6706    44657.537 -0.067234084   -17.036218 -0.041707817    3422.0425    1451.0173    949.83081    871.42802    28.379663    18.845674    14.337186 0.00032659281 0.00032539514 0.0038396482 0.0038366266    298.84306     41.49527    35.978931    34.423473    90.016431    119.66323    90.107069    709.38385    195.95568    28.380383    18.848923    14.340349     28.38154    18.845633    14.337162 
 1200000    299.18774    1.2509986    3438.1701            0            0            0            0   -2062.9048    44657.537 -0.067234084   -17.036218 -0.041707817    3438.1701     1419.882     962.4818    900.52321    28.380122     18.84598    14.336521 0.00034843282 0.00034582904 0.0040086361 0.0040052709    299.18774     41.49527    35.978931    34.423473    90.016431    119.66323    90.107069    740.60476    209.05969    28.379747     18.84867    14.341203    28.381363    18.844848    14.336512 
 1210000     303.4256    1.2509986    3463.1753            0            0            0            0   -3351.0351    44657.537 -0.067234084   -17.036218 -0.041707817    3463.1753    1417.3509    968.56706    917.56407    28.380843    18.845252    14.337424 0.00035173032 0.00035104693 0.0037330118 0.0037300673     303.4256     41.49527    35.978931    34.423473    90.016431    119.66323    90.107069    689.68254    211.03819    28.379599    18.848191    14.339565    28.381313    18.844674    14.337492 
 1220000    297.09287    1.2509986    3464.9024            0            0            0            0   -2619.9826    44657.537 -0.067234084   -17.036218 -0.041707817    3464.9024    1479.5408    931.50671    897.52643    28.379078    18.846667    14.336915 0.00036784554 0.00036557276 0.0036133794 0.0036086352    297.09287     41.49527    35.978931    34.423473    90.016431    119.66323    90.107069    667.58018    220.70733     28.37919     18.85043    14.339279    28.379192    18.846984    14.335822 
 1230000    298.77729    1.2509986    3441.8903            0            0            0            0   -2383.3605    44657.537 -0.067234084   -17.036218 -0.041707817    3441.8903    1434.1264     959.7992    898.44563    28.380328     18.84513    14.337327 0.00032748742 0.00032689857 0.0037005825 0.0036987505    298.77729     41.49527    35.978931    34.423473    90.016431    119.66323    90.107069    683.69116    196.49245    28.379314    18.848325    14.339878    28.380571    18.844434    14.336848 
 1240000    297.55721    1.2509986    3388.1399            0            0            0            0   -2987.0177    44657.537 -0.067234084   -17.036218 -0.041707817    3388.1399    1378.6105    984.96406     872.4746    28.379358    18.846875    14.336493 0.00036160702 0.00036086897 0.0037607816 0.0037575954    297.55721     41.49527    35.978931    34.423473    90.016431    119.66323    90.107069    694.81308    216.96421    28.379103    18.849513    14.340169    28.380167    18.846245    14.335694 
 1250000    298.83594    1.2509986    3395.0503            0            0            0            0   -2410.9774    44657.537 -0.067234084   -17.036218 -0.041707817    3395.0503    1409.4411    937.99611    896.74107    28.377296    18.844982    14.336908 0.00035512468 0.00035397952  0.003898992 0.0038918666    298.83594     41.49527    35.978931    34.423473    90.016431    119.66323    90.107069    720.34776    213.07481    28.380357    18.848593    14.340211    28.377189    18.845586     14.33678 
 1260000    301.91126    1.2509986    3401.0335            0            0            0            0   -2082.0222    44657.537 -0.067234084   -17.036218 -0.041707817    3401.0335     1428.598    930.03481     883.6786    28.379682    18.844561    14.337545 0.00032590175 0.00032384818 0.0038846988 0.0038843215    301.91126     41.49527    35.978931    34.423473    90.016431    119.66323    90.107069    717.70707    195.54105    28.379667    18.847865    14.340489    28.380357    18.845697     14.33709 
 1270000    300.76153    1.2509986    3413.6808            0            0            0            0    -1234.602    44657.537 -0.067234084   -17.036218 -0.041707817    3413.6808    1418.2767    948.05854    890.87641    28.380111    18.846114    14.337275 0.00036618463 0.00036595418 0.0037532444 0.0037511412    300.76153     41.49527    35.978931    34.423473    90.016431    119.66323    90.107069    693.42057    219.71078    28.379382    18.849171    14.340057    28.379731    18.846917    14.337137 
 1280000    300.70551    1.2509986    3432.0143            0            0            0            0    -1629.224    44657.537 -0.067234084   -17.036218 -0.041707817    3432.0143    1394.6118    933.41893    942.03296    28.378958    18.847429     14.33734 0.00033478781 0.00033417576 0.0039225734  0.003915188    300.70551     41.49527    35.978931    34.423473    90.016431    119.66323    90.107069    724.70449    200.87269    28.380108    18.848696    14.340094    28.377241    18.846149    14.336697 
 1290000    300.66935    1.2509986    3408.5204            0            0            0            0   -2864.1287    44657.537 -0.067234084   -17.036218 -0.041707817    3408.5204    1424.2614    933.34506    897.82318     28.37922    18.844819    14.337245 0.00034606375 0.00034414734 0.0038045004 0.0038025518    300.66935     41.49527    35.978931    34.423473    90.016431    119.66323    90.107069    702.89022    207.63825    28.378189    18.849015    14.339851    28.378741    18.845051    14.336476 
 1300000    292.05837    1.2509986    3434.7675            0            0            0            0   -962.60347    44657.537 -0.067234084   -17.036218 -0.041707817    3434.7675     1419.523    951.17034    903.90899    28.380759    18.847864    14.337259 0.00037774205 0.00037664711 0.0038162082  0.003810929    292.05837     41.49527    35.978931    34.423473    90.016431    119.66323    90.107069    705.05327    226.64523     28.37897    18.849687    14.340183    28.380749    18.847466    14.336605 
 1310000     297.8562    1.2509986    3419.4782            0            0            0            0    -3432.875    44657.537 -0.067234084   -17.036218 -0.041707817    3419.4782    1449.2669    923.77936    895.94243    28.381909    18.847088    14.336527 0.0003436727 0.00034114433 0.0037529704 0.0037520668     297.8562     41.49527    35.978931    34.423473    90.016431    119.66323    90.107069    693.36994    206.20362    28.378278    18.848594     14.33879    28.380034    18.845756    14.336384 
 1320000    286.47692    1.2509986    3385.4847            0            0            0            0   -2463.6274    44657.537 -0.067234084   -17.036218 -0.041707817    3385.4847    1395.1045    930.21452    903.99822     28.37884    18.849046    14.337384 0.00032526494 0.00032491035 0.0040097411 0.0039924157    286.47692     41.49527    35.978931    34.423473    90.016431    119.66323    90.107069    740.80892    195.15896     28.37988    18.849355    14.340002    28.377588     18.84899    14.337123 
 1330000    303.78794    1.2509986    3372.6715            0            0            0            0   -2890.6084    44657.537 -0.067234084   -17.036218 -0.041707817    3372.6715    1360.9757    953.75661    900.31993    28.379863    18.846467    14.337185 0.00033837015 0.00033681901 0.0041285987 0.0041247126    303.78794     41.49527    35.978931    34.423473    90.016431    119.66323    90.107069    762.76814    203.02209     28.38032    18.848264    14.340276    28.378055    18.846048    14.336579 
 1340000    301.91633    1.2509986    3427.7839            0            0            0            0   -1319.5153    44657.537 -0.067234084   -17.036218 -0.041707817    3427.7839    1444.4973    909.58607    920.81442    28.380577    18.846393    14.337902 0.00038624773 0.00038448337 0.0038389433 0.0038387515    301.91633     41.49527    35.978931    34.423473    90.016431    119.66323    90.107069    709.25363    231.74864    28.379693    18.847813    14.340191    28.379958    18.845576    14.337665 
 1350000    295.78954    1.2509986    3456.1623            0            0            0            0   -2854.8622    44657.537 -0.067234084   -17.036218 -0.041707817    3456.1623      1404.79    973.51388    916.79263    28.381567     18.84657    14.338019 0.00033269497 0.00033194408 0.0040996218 0.0040981317    295.78954     41.49527    35.978931    34.423473    90.016431    119.66323    90.107069    757.41458    199.61698    28.379174    18.848821    14.338884    28.380588    18.846125    14.337946 
 1360000    303.74712    1.2509986    3412.8445            0            0            0            0   -1357.3799    44657.537 -0.067234084   -17.036218 -0.041707817    3412.8445    1417.7086    952.57412    887.45085     28.37866    18.845328    14.337024 0.00034580788 0.00034405612 0.0037584834 0.0037571162    303.74712     41.49527    35.978931    34.423473    90.016431    119.66323    90.107069    694.38847    207.48473     28.37872    18.848994    14.340664    28.379458    18.846499    14.336825 
 1370000    297.95073    1.2509986    3472.5323            0            0            0            0   -4204.4093    44657.537 -0.067234084   -17.036218 -0.041707817    3472.5323    1404.7053    969.71923    938.27191    28.376833    18.846255    14.337013 0.00034851446 0.00034830403 0.0037232351 0.0037218129    297.95073     41.49527    35.978931    34.423473    90.016431    119.66323    90.107069    687.87628    209.10867    28.379812    18.848733     14.33938    28.379311    18.845073     14.33827 
 1380000    296.72973    1.2509986    3458.6674            0            0            0            0   -3298.2176    44657.537 -0.067234084   -17.036218 -0.041707817    3458.6674    1414.3388    973.73855    917.71067    28.380714    18.844745    14.337892 0.00035155659 0.00035110586 0.0038980381 0.0038955596    296.72973     41.49527    35.978931    34.423473    90.016431    119.66323    90.107069    720.17154    210.93395    28.378986    18.848717    14.339834    28.378392    18.844871    14.336949 
 1390000     299.8262    1.2509986    3433.4317            0            0            0            0   -2689.4378    44657.537 -0.067234084   -17.036218 -0.041707817    3433.4317    1439.2975     962.1665    877.03626    28.379387    18.846158    14.337312 0.00036353057 0.00036289783 0.0040218061  0.004021231     299.8262     41.49527    35.978931    34.423473    90.016431    119.66323    90.107069    743.03796    218.11834    28.380215    18.848642     14.33939    28.379202    18.845921    14.337326 
 1400000    297.72467    1.2509986     3408.438            0            0            0            0   -2468.3782    44657.537 -0.067234084   -17.036218 -0.041707817     3408.438    1432.6928    926.16344    894.36609    28.379342    18.846803    14.337603 0.00037374902 0.0003708531 0.0038514253     0.003847    297.72467     41.49527    35.978931    34.423473    90.016431    119.66323    90.107069     711.5597    224.24941    28.381093    18.848402    14.340041    28.378665    18.847208    14.336942 
 1410000    300.87507    1.2509986    3393.4564            0            0            0            0   -3221.8785    44657.537 -0.067234084   -17.036218 -0.041707817    3393.4564    1435.9825    920.33135    886.61758    28.380366    18.846314     14.33793 0.00034870784 0.00034780494 0.0037933885 0.0037930138    300.87507     41.49527    35.978931    34.423473    90.016431    119.66323    90.107069    700.83727     209.2247    28.379561     18.84818    14.339181    28.379309    18.845817    14.337329 
 1420000    302.94773    1.2509986    3413.3118            0            0            0            0   -1847.5971    44657.537 -0.067234084   -17.036218 -0.041707817    3413.3118    1440.5946    919.22688    896.52832     28.37906    18.846066    14.337595 0.00033631385 0.00033261972 0.0038543141 0.0038527612    302.94773     41.49527    35.978931    34.423473    90.016431    119.66323    90.107069    712.09343    201.78831    28.381457    18.849205    14.339426    28.378989    18.846405    14.337363 
 1430000    293.30149    1.2509986    3361.4107            0            0            0            0   -3933.8349    44657.537 -0.067234084   -17.036218 -0.041707817    3361.4107    1374.6414    955.46059    879.66393    28.378735    18.847837    14.336591 0.00034281394 0.0003413379 0.0038050201 0.0038006316    293.30149     41.49527    35.978931    34.423473    90.016431    119.66323    90.107069    702.98625    205.68836    28.379319    18.850029     14.34026    28.379396    18.847136    14.336058 
 1440000    299.82995    1.2509986     3482.865            0            0            0            0   -3152.4571    44657.537 -0.067234084   -17.036218 -0.041707817     3482.865    1446.9786    953.23533    919.51195    28.378299    18.845111    14.336577 0.00036176562 0.00036020458 0.0038622793 0.0038602885    299.82995     41.49527    35.978931    34.423473    90.016431    119.66323    90.107069    713.56502    217.05937    28.378355    18.849262    14.339401    28.379287    18.844819     14.33613 
 1450000     297.0452    1.2509986    3522.2698            0            0            0            0   -2786.4553    44657.537 -0.067234084   -17.036218 -0.041707817    3522.2698     1486.956    950.21105     923.2656    28.380252    18.846621    14.337843 0.00035571565 0.00035477333 0.0038238786   0.00382177     297.0452     41.49527    35.978931    34.423473    90.016431    119.66323    90.107069    706.47039    213.42939    28.379754    18.849545    14.340426    28.380557     18.84671     14.33743 
 1460000    301.57319    1.2509986    3372.6535            0            0            0            0   -2275.7916    44657.537 -0.067234084   -17.036218 -0.041707817    3372.6535    1418.8989    953.44145    850.72903    28.379091    18.846358    14.336049 0.00037862634 0.00037838772 0.0038569114 0.0038520952    301.57319     41.49527    35.978931    34.423473    90.016431    119.66323    90.107069    712.57328     227.1758    28.379406    18.849355    14.339952    28.380169    18.847489     14.33647 
 1470000     294.8264    1.2509986    3384.3797            0            0            0            0   -1803.6073    44657.537 -0.067234084   -17.036218 -0.041707817    3384.3797     1383.977    925.42339    917.15736    28.378196    18.845108     14.33676 0.00033635554 0.00033545507  0.003827194 0.0038260469     294.8264     41.49527    35.978931    34.423473    90.016431    119.66323    90.107069    707.08292    201.81332    28.379658     18.84858    14.340476    28.379381    18.845452    14.336284 
 1480000    298.74554    1.2509986    3438.9463            0            0            0            0   -3281.1817    44657.537 -0.067234084   -17.036218 -0.041707817    3438.9463     1421.761    968.01339    897.33952    28.379889    18.846668    14.337371 0.00034114304 0.00033865414 0.0036888469 0.0036855504    298.74554     41.49527    35.978931    34.423473    90.016431    119.66323    90.107069    681.52298    204.68582    28.380918    18.849806    14.339724    28.381455    18.846022    14.337808 
 1490000    298.10631    1.2509986    3359.0449            0            0            0            0   -1794.9328    44657.537 -0.067234084   -17.036218 -0.041707817    3359.0449    1400.1044     922.1104    888.82622    28.382417    18.846103    14.337933 0.00036655291 0.00036392861 0.0040021308 0.0039999771    298.10631     41.49527    35.978931    34.423473    90.016431    119.66323    90.107069    739.40289    219.93174    28.381066    18.848489    14.339372    28.380992      18.8457    14.338107 
 1500000    298.40009    1.2509986    3410.6976            0            0            0            0   -2105.8493    44657.537 -0.067234084   -17.036218 -0.041707817    3410.6976    1399.6232    988.56356     873.8125    28.380269    18.846771    14.337672 0.00038011422 0.00038008214 0.0039131845 0.0039106795    298.40009     41.49527    35.978931    34.423473    90.016431    119.66323    90.107069    722.96987    228.06853    28.379712    18.848933    14.339597    28.379422    18.847007    14.337197 
 1510000    299.13908    1.2509986    3432.3031            0            0            0            0   -672.12969    44657.537 -0.067234084   -17.036218 -0.041707817    3432.3031    1438.6992    969.95013    873.09208    28.378739    18.848306    14.335666 0.00035341819 0.00035197606 0.0038614671 0.0038532522    299.13908     41.49527    35.978931    34.423473    90.016431    119.66323    90.107069    713.41495    212.05092    28.379872    18.849319     14.33852    28.380119    18.847293     14.33507 
 1520000    302.54664    1.2509986    3342.0596            0            0            0            0   -670.62107    44657.537 -0.067234084   -17.036218 -0.041707817    3342.0596    1369.1054    954.22311    868.36138    28.378527    18.846231    14.337382 0.00035080584 0.00034659663 0.0038736689 0.0038728989    302.54664     41.49527    35.978931    34.423473    90.016431    119.66323    90.107069    715.66927     210.4835    28.381203    18.847788    14.339632     28.37948      18.8461    14.337782 
[...]
 1630000    295.85781    1.2509986    3389.3031            0            0            0            0    -1909.979    44657.537 -0.067234084   -17.036218 -0.041707817    3389.3031    1397.8775    962.99871     873.5149    28.379497    18.846403     14.33687 0.0003414959 0.00034069216 0.0038930085 0.0038899554    295.85781     41.49527    35.978931    34.423473    90.016431    119.66323    90.107069     719.2423    204.89754    28.379357    18.849882    14.339541    28.381229    18.846173    14.336519 
 1640000    298.00434    1.2509986    3424.4228            0            0            0            0   -1109.9548    44657.537 -0.067234084   -17.036218 -0.041707817    3424.4228    1443.6169    915.47784    909.20887    28.378356     18.84753    14.336934 0.00034528438 0.00034365455 0.0036969593 0.0036938403    298.00434     41.49527    35.978931    34.423473    90.016431    119.66323    90.107069    683.02176    207.17063    28.378393    18.849511     14.33947    28.378189    18.846171    14.337271 
 1650000    300.14483    1.2509986    3464.1986            0            0            0            0   -3154.5657    44657.537 -0.067234084   -17.036218 -0.041707817    3464.1986    1423.2947    991.17253    898.20986    28.378428    18.844436    14.337309 0.00039924199 0.0003974301 0.0040431813 0.0040412998    300.14483     41.49527    35.978931    34.423473    90.016431    119.66323    90.107069    746.98707     239.5452    28.378622    18.848066     14.33943    28.378811     18.84487    14.336548 
 1660000    296.23589    1.2509986    3439.7613            0            0            0            0   -3157.8083    44657.537 -0.067234084   -17.036218 -0.041707817    3439.7613    1398.7103    984.31568    900.93812    28.380392    18.847167    14.336888  0.000332041 0.00033193615 0.0038130559 0.0038114036    296.23589     41.49527    35.978931    34.423473    90.016431    119.66323    90.107069    704.47087     199.2246    28.379351    18.848766    14.339678    28.379826     18.84656    14.336576 
 1670000    302.90051    1.2509986    3547.3646            0            0            0            0   -3243.1266    44657.537 -0.067234084   -17.036218 -0.041707817    3547.3646    1480.8133    983.50664    923.96183    28.378489    18.847403    14.336935 0.0003787692 0.00037788207 0.0039368212 0.0039298517    302.90051     41.49527    35.978931    34.423473    90.016431    119.66323    90.107069    727.33679    227.26152    28.379293    18.849362    14.338804    28.377759    18.846683    14.336126 
 1680000    297.27328    1.2509986    3401.9739            0            0            0            0   -2529.5222    44657.537 -0.067234084   -17.036218 -0.041707817    3401.9739    1410.7672    930.98927    906.78587    28.377915    18.845583    14.336219 0.00035151775 0.00034948731  0.004056324 0.0040542571    297.27328     41.49527    35.978931    34.423473    90.016431    119.66323    90.107069    749.41521    210.91065        28.38     18.84778    14.339078    28.379164     18.84582    14.336028 
 1690000    301.86141    1.2509986     3404.279            0            0            0            0   -1516.9188    44657.537 -0.067234084   -17.036218 -0.041707817     3404.279    1413.6968    915.87186    912.19249    28.379807    18.847713     14.33648 0.00035091086 0.00035061845  0.003900238 0.0038944623    301.86141     41.49527    35.978931    34.423473    90.016431    119.66323    90.107069    720.57797    210.54651    28.379816    18.849423      14.3394     28.37838    18.846763    14.335828 
 1700000     299.7159    1.2509986    3424.9035            0            0            0            0    -2330.487    44657.537 -0.067234084   -17.036218 -0.041707817    3424.9035    1411.4604      963.618    892.12677    28.379918    18.842861    14.336903 0.00036907529 0.00036754017 0.0040461113 0.0040448617     299.7159     41.49527    35.978931    34.423473    90.016431    119.66323    90.107069    747.52841    221.44517    28.378503    18.848382    14.339801    28.379601    18.844385    14.337131 
 1710000    297.90074    1.2509986    3372.3312            0            0            0            0   -1103.6238    44657.537 -0.067234084   -17.036218 -0.041707817    3372.3312    1376.0097    973.01047    872.11415     28.38059    18.846478    14.337081 0.00035399606 0.00035096549 0.0039522603  0.003950234    297.90074     41.49527    35.978931    34.423473    90.016431    119.66323    90.107069    730.18922    212.39764    28.378101    18.849028    14.338683    28.381131     18.84494    14.337278 
 1720000    295.83111    1.2509986    3485.0485            0            0            0            0   -2933.5615    44657.537 -0.067234084   -17.036218 -0.041707817    3485.0485    1441.2045    963.13302     922.1789    28.381236    18.846833    14.337891 0.0003548642 0.00035362187 0.0038236402 0.0038214457    295.83111     41.49527    35.978931    34.423473    90.016431    119.66323    90.107069    706.42636    212.91852    28.379527    18.849955    14.339043    28.381254    18.845812    14.337295 
 1730000     291.4805    1.2509986    3448.4813            0            0            0            0   -3623.4256    44657.537 -0.067234084   -17.036218 -0.041707817    3448.4813    1415.1896    969.81656    903.17839    28.379618    18.843546    14.337633 0.00036146838 0.00035362046 0.0038631914  0.003859908     291.4805     41.49527    35.978931    34.423473    90.016431    119.66323    90.107069    713.73352    216.88103    28.382351    18.849053    14.339448    28.380057     18.84405    14.338358 
 1740000    297.57483    1.2509986    3483.3136            0            0            0            0   -1716.9901    44657.537 -0.067234084   -17.036218 -0.041707817    3483.3136    1446.3723    959.17326    918.26541    28.380532    18.846781    14.337031 0.00035800547 0.00035471848 0.0037925054  0.003791188    297.57483     41.49527    35.978931    34.423473    90.016431    119.66323    90.107069    700.67412    214.80328    28.379509     18.84738    14.340424     28.37896    18.845959    14.336668 
 1750000    303.12072    1.2509986    3458.1383            0            0            0            0     -1196.72    44657.537 -0.067234084   -17.036218 -0.041707817    3458.1383    1438.6453    934.52172     930.1971    28.381213    18.844837    14.338436 0.00038365068 0.00038352765 0.0038401849 0.0038372582    303.12072     41.49527    35.978931    34.423473    90.016431    119.66323    90.107069    709.48302    230.19041    28.379532    18.849207    14.339929    28.380608    18.845858     14.33873 
 1760000    304.02782    1.2509986    3482.7957            0            0            0            0   -1360.0594    44657.537 -0.067234084   -17.036218 -0.041707817    3482.7957    1433.8875    971.91096    920.48071    28.377757    18.846057    14.336786 0.00037184051 0.00036946076 0.0038647303 0.0038611537    304.02782     41.49527    35.978931    34.423473    90.016431    119.66323    90.107069    714.01784    223.10431    28.378676    18.848881    14.340898    28.378097     18.84558    14.336474 
 1770000    293.70934    1.2509986    3474.5887            0            0            0            0   -1690.1861    44657.537 -0.067234084   -17.036218 -0.041707817    3474.5887    1442.4824    969.81244    907.14931    28.379715    18.844196     14.33703 0.00034913332 0.00034871277 0.0038165243 0.0038109374    293.70934     41.49527    35.978931    34.423473    90.016431    119.66323    90.107069    705.11167    209.47999    28.379577    18.849411    14.339127    28.381788    18.844376    14.337955 
 1780000    295.98074    1.2509986    3381.7307            0            0            0            0    -976.2273    44657.537 -0.067234084   -17.036218 -0.041707817    3381.7307    1406.3296    932.32784    892.35363    28.378467    18.845672    14.336213 0.00037723908 0.00037676367 0.0036451745 0.0036426655    295.98074     41.49527    35.978931    34.423473    90.016431    119.66323    90.107069    673.45441    226.34345    28.379005    18.849049    14.340051     28.38026    18.844831    14.335888 
 1790000     295.6939    1.2509986    3368.1981            0            0            0            0   -1819.3367    44657.537 -0.067234084   -17.036218 -0.041707817    3368.1981    1359.7359     957.1061    893.66517    28.380729    18.845563    14.337249 0.00035495565 0.00035418797 0.0038532871 0.0038508272     295.6939     41.49527    35.978931    34.423473    90.016431    119.66323    90.107069    711.90368    212.97339    28.379295    18.848592     14.34036    28.380342    18.845594    14.335793 
 1800000    301.61142    1.2509986    3470.1251            0            0            0            0   -1249.4113    44657.537 -0.067234084   -17.036218 -0.041707817    3470.1251    1434.9603    966.18763    912.16448    28.380964    18.845912    14.337458 0.00032373643 0.00032230521 0.0037936762 0.0037915685    301.61142     41.49527    35.978931    34.423473    90.016431    119.66323    90.107069    700.89043    194.24186    28.379155    18.848096    14.338982    28.379603    18.846789    14.336685 
 1810000    304.87884    1.2509986    3442.9682            0            0            0            0   -859.24888    44657.537 -0.067234084   -17.036218 -0.041707817    3442.9682    1425.4738    967.38418    894.11315     28.38125    18.847331    14.337396 0.00037116806 0.00037013848 0.0038244048 0.0038237027    304.87884     41.49527    35.978931    34.423473    90.016431    119.66323    90.107069    706.56761    222.70084    28.379468     18.84833    14.340383    28.380646    18.845434      14.3372 
 1820000    300.44651    1.2509986    3475.8666            0            0            0            0   -2218.8363    44657.537 -0.067234084   -17.036218 -0.041707817    3475.8666    1442.3706    950.52627    925.76533    28.382368    18.846029    14.338306 0.00035585144 0.00035165884 0.0038695562 0.0038642069    300.44651     41.49527    35.978931    34.423473    90.016431    119.66323    90.107069    714.90944    213.51086    28.379267    18.850569    14.340937    28.382062     18.84556    14.337791 
 1830000     294.1772    1.2509986     3395.464            0            0            0            0   -3667.6854    44657.537 -0.067234084   -17.036218 -0.041707817     3395.464    1385.6441    970.99258    887.00477    28.380883    18.845952    14.337272 0.00037005905 0.00037005338 0.0039142369 0.0039103439     294.1772     41.49527    35.978931    34.423473    90.016431    119.66323    90.107069     723.1643    222.03543    28.379589    18.848992    14.339703    28.381779    18.845413    14.337408 
 1840000    297.13899    1.2509986    3441.7965            0            0            0            0   -3108.2404    44657.537 -0.067234084   -17.036218 -0.041707817    3441.7965    1427.8383    925.67665    926.54655    28.379859    18.846022    14.337791 0.00034829312 0.00034813504 0.0036536367 0.0036536018    297.13899     41.49527    35.978931    34.423473    90.016431    119.66323    90.107069     675.0178    208.97587    28.379482    18.849003    14.339248    28.379795    18.845506    14.337448 
 1850000    290.94559    1.2509986    3383.1446            0            0            0            0    -1252.408    44657.537 -0.067234084   -17.036218 -0.041707817    3383.1446    1403.6596    931.43414    894.95617    28.379705    18.845856    14.338305 0.0003565124 0.0003544017 0.0037827904 0.0037812522    290.94559     41.49527    35.978931    34.423473    90.016431    119.66323    90.107069    698.87925    213.90744    28.380211     18.84934    14.340893    28.379178    18.846494    14.337575 
 1860000    306.05954    1.2509986    3412.4026            0            0            0            0   -3286.5776    44657.537 -0.067234084   -17.036218 -0.041707817    3412.4026    1378.6381    983.89986    894.32508    28.380798    18.846058    14.337234 0.00036181712 0.00035784359 0.0037844929 0.0037823805    306.05954     41.49527    35.978931    34.423473    90.016431    119.66323    90.107069     699.1938    217.09027    28.379648    18.850883    14.340321    28.380467    18.846696    14.336827 
 1870000     298.6401    1.2509986    3302.0216            0            0            0            0   -1723.0627    44657.537 -0.067234084   -17.036218 -0.041707817    3302.0216    1329.0008    948.54473    871.31063    28.377802    18.845875    14.335942 0.00038296334 0.00037943497 0.0039299905 0.0039270393     298.6401     41.49527    35.978931    34.423473    90.016431    119.66323    90.107069    726.07482      229.778     28.37975    18.849518    14.337839    28.379107    18.844885    14.335813 
 1880000     299.3453    1.2509986    3402.6074            0            0            0            0   -3424.2297    44657.537 -0.067234084   -17.036218 -0.041707817    3402.6074    1447.8382    910.89198    893.07877     28.38117    18.847703    14.336992 0.00035094656 0.00035040791 0.0038001825 0.0037969076     299.3453     41.49527    35.978931    34.423473    90.016431    119.66323    90.107069    702.09249    210.56794    28.380233    18.849266    14.339506    28.380146    18.847121    14.336592 
 1890000    292.71452    1.2509986    3427.1023            0            0            0            0   -2883.8072    44657.537 -0.067234084   -17.036218 -0.041707817    3427.1023    1437.1064     979.1879    856.80343    28.379689    18.847346     14.33751 0.0003570448 0.00035584275 0.0037027935 0.0036995842    292.71452     41.49527    35.978931    34.423473    90.016431    119.66323    90.107069    684.09964    214.22688    28.380237    18.849479    14.338916    28.379394     18.84719    14.337567 
 1900000    294.87185    1.2509986    3488.1385            0            0            0            0   -3467.7906    44657.537 -0.067234084   -17.036218 -0.041707817    3488.1385    1469.3103    962.25592    902.04588    28.378853     18.84586    14.337533 0.00036346897 0.00035811118 0.0038473647 0.0038470239    294.87185     41.49527    35.978931    34.423473    90.016431    119.66323    90.107069     710.8095    218.08138     28.37866    18.848834    14.341765    28.380242    18.845209    14.337557 
 1910000    294.55696    1.2509986     3443.107            0            0            0            0   -4167.9689    44657.537 -0.067234084   -17.036218 -0.041707817     3443.107     1447.773    931.31798    907.28826    28.380065    18.846223    14.338368 0.00033546061 0.00033517157 0.0035997609 0.0035972443    294.55696     41.49527    35.978931    34.423473    90.016431    119.66323    90.107069    665.06414    201.27636    28.380012    18.849091    14.339913    28.380938    18.846558    14.337539 
 1920000    296.45839    1.2509986    3541.3354            0            0            0            0    -2086.257    44657.537 -0.067234084   -17.036218 -0.041707817    3541.3354    1472.4822    1001.7095    911.01383    28.379996    18.847992    14.337337 0.00034085612 0.00034027881 0.0039853692 0.0039754871    296.45839     41.49527    35.978931    34.423473    90.016431    119.66323    90.107069    736.30616    204.51367    28.379821      18.8492    14.338951    28.380705    18.848487    14.337163 
 1930000    298.10661    1.2509986    3403.6684            0            0            0            0   -1815.6669    44657.537 -0.067234084   -17.036218 -0.041707817    3403.6684    1400.0832    961.15733    885.71608      28.3799    18.844566    14.337337 0.00036111983 0.00035970555 0.0038474375 0.0038459042    298.10661     41.49527    35.978931    34.423473    90.016431    119.66323    90.107069    710.82295     216.6719    28.380727    18.849082    14.339442    28.380386     18.84465    14.337988 
 1940000    302.38149    1.2509986    3384.1575            0            0            0            0   -2624.6588    44657.537 -0.067234084   -17.036218 -0.041707817    3384.1575    1390.5193    928.43662    906.84382    28.379242    18.845596    14.337392 0.00036135983 0.00035504738 0.0038179388 0.0038152438    302.38149     41.49527    35.978931    34.423473    90.016431    119.66323    90.107069      705.373     216.8159    28.377417    18.847742     14.33929    28.381138    18.846003    14.338075 
 1950000    296.68082    1.2509986    3416.4409            0            0            0            0   -1605.1335    44657.537 -0.067234084   -17.036218 -0.041707817    3416.4409    1411.0051    945.63544    901.07038    28.379403    18.845008    14.337284 0.00037614104 0.00037575146 0.0036384056 0.0036365702    296.68082     41.49527    35.978931    34.423473    90.016431    119.66323    90.107069    672.20382    225.68463     28.37921     18.84897    14.340155    28.380747    18.844514    14.337069 
 1960000    301.37746    1.2509986    3410.6375            0            0            0            0   -2938.4136    44657.537 -0.067234084   -17.036218 -0.041707817    3410.6375    1427.6832    942.87161    883.18388    28.377199    18.844552    14.336501 0.00035390651 0.00035314487 0.0039148543 0.0039064851    301.37746     41.49527    35.978931    34.423473    90.016431    119.66323    90.107069    723.27836    212.34391    28.379188    18.849488    14.340271    28.377405    18.845643    14.335668 
 1970000    292.57583    1.2509986    3455.5299            0            0            0            0   -3836.3184    44657.537 -0.067234084   -17.036218 -0.041707817    3455.5299    1456.5784    923.97564    917.11859    28.380232    18.846446     14.33713 0.00034562844 0.00034531652 0.0039644114 0.0039628354    292.57583     41.49527    35.978931    34.423473    90.016431    119.66323    90.107069    732.43416    207.37706    28.379919    18.848916    14.339224    28.378989    18.844874    14.336531 
 1980000    305.95445    1.2509986    3388.6203            0            0            0            0   -723.34106    44657.537 -0.067234084   -17.036218 -0.041707817    3388.6203    1388.5209    956.20822    887.52852    28.380252    18.846442    14.337154 0.00038541718 0.00038475872 0.0038606751 0.0038575507    305.95445     41.49527    35.978931    34.423473    90.016431    119.66323    90.107069    713.26863    231.25031    28.379962    18.849244    14.338974    28.379393    18.847189    14.337167 
 1990000    301.75814    1.2509986    3428.7238            0            0            0            0   -1049.6971    44657.537 -0.067234084   -17.036218 -0.041707817    3428.7238    1440.5666    947.90785    886.67098    28.380744     18.84872    14.336709 0.00035884467  0.000358792 0.0038414311 0.0038350224    301.75814     41.49527    35.978931    34.423473    90.016431    119.66323    90.107069    709.71326     215.3068     28.37947    18.848835    14.339522    28.380348    18.847669    14.336122 
 2000000    294.98969    1.2509986    3397.0622            0            0            0            0   -3733.5397    44657.537 -0.067234084   -17.036218 -0.041707817    3397.0622    1397.7472    932.85965    911.71713    28.378691    18.848195    14.336357 0.00034656786 0.00034512437 0.0038175054 0.0038109676    294.98969     41.49527    35.978931    34.423473    90.016431    119.66323    90.107069    705.29293    207.94071    28.380062     18.84795    14.339881    28.379984    18.848018     14.33707 
Loop time of 3664.04 on 20 procs for 2000000 steps with 4560 atoms

Pair  time (%) = 2688.25 (73.3685)
Bond  time (%) = 344.089 (9.39097)
Neigh time (%) = 51.2524 (1.39879)
Comm  time (%) = 429.969 (11.7348)
Outpt time (%) = 0.511914 (0.0139713)
Other time (%) = 149.967 (4.09294)

Nlocal:    228 ave 240 max 222 min
Histogram: 3 2 5 3 1 5 0 0 0 1
Nghost:    5774.65 ave 5833 max 5713 min
Histogram: 1 1 1 3 4 4 2 1 1 2
Neighs:    83665.5 ave 88432 max 79810 min
Histogram: 1 0 2 8 1 3 3 1 0 1

Total # of neighbors = 1673310
Ave neighs/atom = 366.954
Ave special neighs/atom = 10.6316
Neighbor list builds = 10802
Dangerous builds = 0
System init for write_data ...
