LAMMPS data file via write_data, version 15 May 2015, timestep = 23005000

2611 atoms
6 atom types
1749 bonds
4 bond types
894 angles
3 angle types
44 dihedrals
3 dihedral types
10 impropers
1 improper types

-1.4956195367025066e+01 1.4956195367025066e+01 xlo xhi
-1.4956195367025066e+01 1.4956195367025066e+01 ylo yhi
-1.4956195367025066e+01 1.4956195367025066e+01 zlo zhi

Masses

1 15.9994
2 1.00794
3 12.0107
4 1.00794
5 12.0107
6 12.0107

Bond Coeffs # harmonic

1 1000 1
2 469 1.4
3 367 1.08
4 469 0.7

Angle Coeffs # harmonic

1 100 109.47
2 35 120
3 63 120

Dihedral Coeffs # opls

1 0 7.25 0 0
2 0 7.25 0 0
3 0 7.25 0 0

Improper Coeffs # cvff

1 2.5 -1 2

Atoms # full

712 238 1 -8.1999999999999995e-01 -1.2195001884210054e+01 -1.3916272833128160e+01 -6.7552672697444116e+00 -2 1 -2
756 252 2 4.0999999999999998e-01 -1.1851526330092554e+01 -1.2080596418166657e+01 -9.8777328360068424e+00 -8 -2 -3
754 252 1 -8.1999999999999995e-01 -1.0906166703271854e+01 -1.1796251696587728e+01 -9.7180959160321585e+00 -8 -2 -3
714 238 2 4.0999999999999998e-01 -1.2749048451484693e+01 -1.3249504867922747e+01 -6.2567760258715683e+00 -2 1 -2
755 252 2 4.0999999999999998e-01 -1.0353997003817931e+01 -1.2006880113252938e+01 -1.0524808353920861e+01 -8 -2 -3
1615 539 1 -8.1999999999999995e-01 -1.0160217482158210e+01 -8.9686098640466341e+00 -6.7656830975276474e+00 -1 1 -5
1616 539 2 4.0999999999999998e-01 -1.0958645339392678e+01 -9.4237404335821484e+00 -7.1599035919057936e+00 -1 1 -5
2061 687 2 4.0999999999999998e-01 -1.3114697809803735e+01 -9.2583541012100898e+00 -1.4506126091387086e+01 -4 0 3
713 238 2 4.0999999999999998e-01 -1.1294076324977468e+01 -1.3525841310346484e+01 -6.9448379433902758e+00 -2 1 -2
1819 607 1 -8.1999999999999995e-01 -1.2244638627383232e+01 -1.0127834398158360e+01 -7.9670396310074452e+00 1 6 4
1821 607 2 4.0999999999999998e-01 -1.3205518378370998e+01 -1.0392573719318602e+01 -8.0486720116259214e+00 1 6 4
1820 607 2 4.0999999999999998e-01 -1.1685771779317353e+01 -1.0717333820370174e+01 -8.5503053932255568e+00 1 6 4
95 32 2 4.0999999999999998e-01 -1.3541301781455367e+01 -7.9620024484370111e+00 -9.7517398115069742e+00 -8 0 2
94 32 1 -8.1999999999999995e-01 -1.2590751372747510e+01 -8.1444072541412353e+00 -1.0003181811685977e+01 -8 0 2
1446 482 2 4.0999999999999998e-01 -8.1055992952064244e+00 -9.1333715717775377e+00 -9.2057988819091605e+00 -2 0 1
1444 482 1 -8.1999999999999995e-01 -8.0388681899120158e+00 -9.4553125553781232e+00 -8.2613722697831484e+00 -2 0 1
2407 803 1 -8.1999999999999995e-01 -9.7223407642197390e+00 -1.3016985270899887e+01 -7.4378787544893337e+00 -1 0 0
570 190 2 4.0999999999999998e-01 -8.6276430931148234e+00 -9.3726567735724444e+00 -1.1201750611597131e+01 -5 7 2
1617 539 2 4.0999999999999998e-01 -1.0121725052836148e+01 -9.1542406747188281e+00 -5.7837970616275243e+00 -1 1 -5
2059 687 1 -8.1999999999999995e-01 -1.2749242360237549e+01 -9.3457113218188663e+00 -1.3579383588534142e+01 -4 0 3
295 99 1 -8.1999999999999995e-01 -9.7100425330439837e+00 -1.0428000098329916e+01 -1.2435486980230493e+01 -6 -2 -2
2060 687 2 4.0999999999999998e-01 -1.2576214586803591e+01 -8.4358671012836552e+00 -1.3202176011989341e+01 -4 0 3
294 98 2 4.0999999999999998e-01 -8.2374350049227285e+00 -1.3022962841015081e+01 -1.4029811126988278e+01 -11 0 0
1008 336 2 4.0999999999999998e-01 -1.1323901399284196e+01 -1.4064846716597899e+01 -5.1093477838466903e+00 -7 2 -4
183 61 2 4.0999999999999998e-01 -1.2551303755168920e+01 -1.3656589577095664e+01 -1.3464920150084845e+01 -8 0 3
297 99 2 4.0999999999999998e-01 -1.0537954121320483e+01 -9.9580787143419318e+00 -1.2741717200327720e+01 -6 -2 -2
358 120 1 -8.1999999999999995e-01 -1.3457790737889658e+01 -1.2467449107610273e+01 -1.0338127932109693e+01 -8 4 -7
2409 803 2 4.0999999999999998e-01 -8.8271574604238232e+00 -1.2681315904234296e+01 -7.1445980183805151e+00 -1 0 0
2408 803 2 4.0999999999999998e-01 -1.0024399359411154e+01 -1.2502977259978771e+01 -8.2407467637089056e+00 -1 0 0
1010 337 2 4.0999999999999998e-01 -8.0046058646165115e+00 -8.5498772405869090e+00 -1.4524151651551040e+01 -3 1 0
1445 482 2 4.0999999999999998e-01 -8.9135378140390635e+00 -9.3127747258382065e+00 -7.7980401082751634e+00 -2 0 1
1311 437 2 4.0999999999999998e-01 -1.4360094524124399e+01 -1.4892903381523084e+01 -1.1032267431723653e+01 -5 0 -2
1589 530 2 4.0999999999999998e-01 -1.4613032638848770e+01 -1.2156399688926610e+01 -7.3013709448932005e+00 -5 4 3
1818 606 2 4.0999999999999998e-01 -1.2534293079012309e+01 -1.0929093178563161e+01 -1.3168536385379404e+01 -2 0 -1
296 99 2 4.0999999999999998e-01 -9.5049718403145818e+00 -1.1182400685134699e+01 -1.3059078526036540e+01 -6 -2 -2
292 98 1 -8.1999999999999995e-01 -8.9110662295858418e+00 -1.2344818736452124e+01 -1.4323719609444852e+01 -11 0 0
1816 606 1 -8.1999999999999995e-01 -1.2165328062013886e+01 -1.1852655090153508e+01 -1.3273125541622221e+01 -2 0 -1
96 32 2 4.0999999999999998e-01 -1.2291642045577047e+01 -8.9988212923200166e+00 -9.5782689750841268e+00 -8 0 2
1783 595 1 -8.1999999999999995e-01 -8.1243472640389314e+00 -1.3338406486738151e+01 -1.1085501312448217e+01 -1 1 -5
1817 606 2 4.0999999999999998e-01 -1.1324868287259230e+01 -1.1816571156727866e+01 -1.3813834316393491e+01 -2 0 -1
815 272 2 4.0999999999999998e-01 -1.1979102267337030e+01 -1.4348285986364708e+01 -1.0656797100086605e+01 -1 3 2
359 120 2 4.0999999999999998e-01 -1.4189001607046857e+01 -1.2086880002910348e+01 -9.7719667534857848e+00 -8 4 -7
814 272 1 -8.1999999999999995e-01 -1.1138065735072614e+01 -1.4717396270388271e+01 -1.1052342041350604e+01 -1 3 2
181 61 1 -8.1999999999999995e-01 -1.2587319567900035e+01 -1.4628682019859577e+01 -1.3696824885593342e+01 -8 0 3
568 190 1 -8.1999999999999995e-01 -8.3844946034870738e+00 -8.4623578107963215e+00 -1.0866675603992920e+01 -5 7 2
721 241 1 -8.1999999999999995e-01 -1.4338972747121016e+01 -1.2405006094343461e+01 -5.5875909863279904e+00 0 7 -1
1309 437 1 -8.1999999999999995e-01 -1.4630850519424806e+01 -1.4581649068183040e+01 -1.1943229897769831e+01 -5 0 -2
848 283 2 4.0999999999999998e-01 -1.4142938757975132e+01 -8.2204026356408626e+00 -5.5313967971914142e+00 -3 5 -1
1009 337 1 -8.1999999999999995e-01 -8.0078677403249792e+00 -7.8029458363507942e+00 -1.3859227988881090e+01 -3 1 0
1032 344 2 4.0999999999999998e-01 -1.4505434357653144e+01 -1.0846591171741935e+01 -1.3367147736931688e+01 -3 4 -3
360 120 2 4.0999999999999998e-01 -1.3856608080053350e+01 -1.2943836510957823e+01 -1.1121735247058426e+01 -8 4 -7
1785 595 2 4.0999999999999998e-01 -8.7526897105630344e+00 -1.4071311768476336e+01 -1.1346415562561097e+01 -1 1 -5
215 72 2 4.0999999999999998e-01 -1.4496909696903408e+01 -7.7268118847312017e+00 -1.2822197231764507e+01 -1 4 6
569 190 2 4.0999999999999998e-01 -8.0755881723963618e+00 -7.8971273955402896e+00 -1.1631614837142523e+01 -5 7 2
1784 595 2 4.0999999999999998e-01 -7.5424923490869871e+00 -1.3649909488829133e+01 -1.0334201520312062e+01 -1 1 -5
849 283 2 4.0999999999999998e-01 -1.2649241209600069e+01 -7.5731563536021964e+00 -5.4022660023394735e+00 -3 5 -1
723 241 2 4.0999999999999998e-01 -1.3701394387837835e+01 -1.1796573960945549e+01 -5.1149972473582590e+00 0 7 -1
1179 393 2 4.0999999999999998e-01 -1.1259532151489619e+01 -6.5655394928623867e+00 -1.2608417908966935e+01 -1 5 5
599 200 2 4.0999999999999998e-01 -7.5628551211710535e+00 -2.4112122674528358e-01 -5.7498437176148798e+00 -6 7 -1
2116 706 1 -8.1999999999999995e-01 -1.4149926397644993e+01 -4.2507278197982075e+00 -1.2196001888286993e+01 -3 2 -2
489 163 2 4.0999999999999998e-01 -1.4428492250129329e+01 -1.8072968507461198e+00 -1.4196456181377245e+01 -7 1 -2
809 270 2 4.0999999999999998e-01 -1.3805973296865812e+01 -3.8459753155478786e+00 -5.5972002246884962e+00 1 5 -4
2118 706 2 4.0999999999999998e-01 -1.4647585491010101e+01 -3.6660542842655506e+00 -1.2836730347450089e+01 -3 2 -2
985 329 1 -8.1999999999999995e-01 -1.1255566225862545e+01 -6.2541513420672157e+00 -5.2250056332836223e+00 -1 0 1
810 270 2 4.0999999999999998e-01 -1.4863407691597091e+01 -3.1144815923226101e+00 -6.6039198203652809e+00 1 5 -4
1178 393 2 4.0999999999999998e-01 -1.2136925143577587e+01 -7.2799171949825316e+00 -1.1430886201181373e+01 -1 5 5
1177 393 1 -8.1999999999999995e-01 -1.2157952384373655e+01 -6.9335847310920613e+00 -1.2368784027772385e+01 -1 5 5
994 332 1 -8.1999999999999995e-01 -9.5685146197629933e+00 -6.3294400461902036e+00 -7.5782182180835980e+00 -7 6 -4
995 332 2 4.0999999999999998e-01 -9.8487354767918021e+00 -7.2845904307809866e+00 -7.4822772822428023e+00 -7 6 -4
1214 405 2 4.0999999999999998e-01 -1.2893479975412092e+01 -9.2811086037859525e-01 -6.4653797578478613e+00 -2 3 -2
2128 710 1 -8.1999999999999995e-01 -1.0212611390397944e+01 -4.4948335648548188e-01 -1.1417180592870299e+01 -4 5 -1
808 270 1 -8.1999999999999995e-01 -1.3902181840738791e+01 -3.3498864338837304e+00 -6.4601488917054244e+00 1 5 -4
1337 446 2 4.0999999999999998e-01 -1.1785453998474182e+01 -2.4747147910526515e+00 -1.4443914617150394e+01 -4 3 4
2117 706 2 4.0999999999999998e-01 -1.3213067844100809e+01 -3.9151901169596446e+00 -1.2097253942757508e+01 -3 2 -2
533 178 2 4.0999999999999998e-01 -1.2175929009192460e+01 -4.0012635430578527e+00 -9.7894140562938823e+00 -1 0 1
534 178 2 4.0999999999999998e-01 -1.3245744468067219e+01 -2.7780542624905564e+00 -9.9506246287253042e+00 -1 0 1
528 176 2 4.0999999999999998e-01 -1.4230777036837303e+01 -5.0169638453025129e+00 -8.9129790630157189e+00 -4 2 -3
2129 710 2 4.0999999999999998e-01 -9.7161856968160372e+00 -1.1842428901962183e+00 -1.1879490681031768e+01 -4 5 -1
2318 773 2 4.0999999999999998e-01 -1.1759712016502524e+01 -5.2945047262861635e+00 -7.9636161102869796e+00 2 3 0
1068 356 2 4.0999999999999998e-01 -9.8161939407173033e+00 -2.6868844054810417e+00 -1.3264968045870472e+01 -7 3 1
2475 825 2 4.0999999999999998e-01 -1.0313940904250357e+01 -2.1336445934130541e+00 -8.2777696209084581e+00 0 2 -1
2474 825 2 4.0999999999999998e-01 -1.0833638169506163e+01 -1.1895515700037258e+00 -9.5046917790792094e+00 0 2 -1
2250 750 2 4.0999999999999998e-01 -9.4964315196309173e+00 -6.2067040118246126e+00 -1.3814137673924410e+01 -7 -2 0
996 332 2 4.0999999999999998e-01 -8.5703830914188508e+00 -6.2712991538895864e+00 -7.5583749951014472e+00 -7 6 -4
2249 750 2 4.0999999999999998e-01 -9.2687873717372540e+00 -5.1956969822376315e+00 -1.2552084665154107e+01 -7 -2 0
122 41 2 4.0999999999999998e-01 -9.4506577174000235e+00 -4.1379780846590837e+00 -7.9121614861343623e+00 -5 4 -3
532 178 1 -8.1999999999999995e-01 -1.2340186230577721e+01 -3.1108024903437794e+00 -1.0213842324424014e+01 -1 0 1
123 41 2 4.0999999999999998e-01 -7.9882309912709877e+00 -3.4430592425278359e+00 -8.1246014932698145e+00 -5 4 -3
448 150 1 -8.1999999999999995e-01 -8.1642587124298984e+00 -4.0387840642576265e+00 -1.1200481426063970e+01 -13 1 -3
337 113 1 -8.1999999999999995e-01 -1.1476218360162273e+01 -3.4196468694647049e+00 -1.2921924609562506e+01 -8 0 -7
1067 356 2 4.0999999999999998e-01 -8.5721315534912215e+00 -2.7722874672180442e+00 -1.2210572482883327e+01 -7 3 1
121 41 1 -8.1999999999999995e-01 -8.9530946340310393e+00 -3.4110328802203469e+00 -8.3854714173115106e+00 -5 4 -3
339 113 2 4.0999999999999998e-01 -1.1274270578954425e+01 -4.3974469081816316e+00 -1.2865667660220749e+01 -8 0 -7
2473 825 1 -8.1999999999999995e-01 -1.0567921035219317e+01 -1.2028404002491566e+00 -8.5407112460828856e+00 0 2 -1
2248 750 1 -8.1999999999999995e-01 -9.9199115237769107e+00 -5.4998966913855689e+00 -1.3247455447840144e+01 -7 -2 0
338 113 2 4.0999999999999998e-01 -1.1587031574102390e+01 -3.0485923838462163e+00 -1.1999926965602766e+01 -8 0 -7
970 324 1 -8.1999999999999995e-01 -1.1153990893653351e+01 -3.9317066197038173e+00 -6.2783987632411158e+00 -3 1 -2
972 324 2 4.0999999999999998e-01 -1.2082910563177194e+01 -3.6043381108179329e+00 -6.4515423420063787e+00 -3 1 -2
1066 356 1 -8.1999999999999995e-01 -8.9238403568728621e+00 -2.3062020421026492e+00 -1.3022425908421210e+01 -7 3 1
971 324 2 4.0999999999999998e-01 -1.1190998509220551e+01 -4.8623698472401848e+00 -5.9143423439256715e+00 -3 1 -2
2319 773 2 4.0999999999999998e-01 -1.2418862212156709e+01 -6.2591167446197584e+00 -9.1045716609609109e+00 2 3 0
449 150 2 4.0999999999999998e-01 -8.5754088884673365e+00 -3.7562394292829442e+00 -1.0333783832157762e+01 -13 1 -3
2317 773 1 -8.1999999999999995e-01 -1.2408848366983458e+01 -5.3347057902664208e+00 -8.7232518992993313e+00 2 3 0
987 329 2 4.0999999999999998e-01 -1.0529221932546076e+01 -6.5727652944355199e+00 -5.8340620957232598e+00 -1 0 1
216 72 2 4.0999999999999998e-01 -1.4685028721409841e+01 -6.3838151730655532e+00 -1.1912413759844878e+01 -1 4 6
711 237 2 4.0999999999999998e-01 -1.0402937905723972e+01 -3.1407761333683339e+00 -5.0105534618208853e+00 -3 2 -3
527 176 2 4.0999999999999998e-01 -1.4750163974819628e+01 -4.5866545292951653e+00 -1.0400193233036610e+01 -4 2 -3
450 150 2 4.0999999999999998e-01 -7.5004824386276914e+00 -4.7676527811302236e+00 -1.1032576385798080e+01 -13 1 -3
866 289 2 4.0999999999999998e-01 -1.2151911625876048e+01 -1.3825887969272623e+01 -1.3569924270397440e+00 -2 13 -4
2310 770 2 4.0999999999999998e-01 -9.8105779269672837e+00 -1.2741109039784522e+01 -4.4839739481096306e+00 -9 -4 -4
1184 395 2 4.0999999999999998e-01 -9.5578108395074022e+00 -1.4114721218623831e+01 8.2783008557782978e-03 -3 7 -7
1865 622 2 4.0999999999999998e-01 -8.0591008882739779e+00 -1.2720557395287905e+01 1.2062537741781565e+00 -6 3 -4
286 96 1 -8.1999999999999995e-01 -1.2385720057509090e+01 -1.1160057664378623e+01 -4.0250114440240043e+00 -7 0 3
858 286 2 4.0999999999999998e-01 -1.0174839611540568e+01 -1.0200783462578528e+01 -3.7600806199422649e+00 -2 3 0
722 241 2 4.0999999999999998e-01 -1.4817280369317963e+01 -1.2972336279146555e+01 -4.9172187397362066e+00 0 7 -1
1473 491 2 4.0999999999999998e-01 -1.2112758708221859e+01 -1.0606622964921844e+01 2.4956027826414680e+00 -7 5 -3
1864 622 1 -8.1999999999999995e-01 -7.7995724985474322e+00 -1.3503846829376752e+01 6.4132605547223243e-01 -6 3 -4
1884 628 2 4.0999999999999998e-01 -1.2314775643217326e+01 -1.2985376705073806e+01 2.9450120644851037e+00 -10 0 -4
2309 770 2 4.0999999999999998e-01 -8.6447239921888155e+00 -1.1990578400354570e+01 -3.6212902082369354e+00 -9 -4 -4
2162 721 2 4.0999999999999998e-01 -9.3521446117939036e+00 -1.2412002273638951e+01 3.6226765391808460e+00 -2 -1 -8
725 242 2 4.0999999999999998e-01 -1.4207314092280731e+01 -1.1469534130025782e+01 2.6849751727692581e+00 -4 0 -5
724 242 1 -8.1999999999999995e-01 -1.3465098490064316e+01 -1.1720189654943972e+01 2.0634219109567642e+00 -4 0 -5
726 242 2 4.0999999999999998e-01 -1.3843053194437740e+01 -1.1937440925163118e+01 1.1634259225213821e+00 -4 0 -5
1882 628 1 -8.1999999999999995e-01 -1.2028562332985091e+01 -1.3560784761786969e+01 3.7111897019724633e+00 -10 0 -4
1883 628 2 4.0999999999999998e-01 -1.1270927130876926e+01 -1.3121004133663412e+01 4.1934993066509687e+00 -10 0 -4
1027 343 1 -8.1999999999999995e-01 -1.4465369249312694e+01 -1.2863070085270532e+01 4.7493930457849434e+00 -3 3 0
1029 343 2 4.0999999999999998e-01 -1.3724731437072595e+01 -1.3379620746903392e+01 4.3196585793872924e+00 -3 3 0
857 286 2 4.0999999999999998e-01 -9.2503424645596830e+00 -8.8667087530125670e+00 -3.5804015830289764e+00 -2 3 0
865 289 1 -8.1999999999999995e-01 -1.2843543195376977e+01 -1.3141049432950568e+01 -1.5865192774651593e+00 -2 13 -4
1746 582 2 4.0999999999999998e-01 -9.5770934715807989e+00 -1.0779739055304587e+01 2.3892116161625889e+00 -2 4 -3
2308 770 1 -8.1999999999999995e-01 -9.4846528910682188e+00 -1.1857601106362790e+01 -4.1474813758292122e+00 -9 -4 -4
287 96 2 4.0999999999999998e-01 -1.2591974669674959e+01 -1.0210190384579043e+01 -4.2600685194600825e+00 -7 0 3
288 96 2 4.0999999999999998e-01 -1.1398759996119216e+01 -1.1310755377771233e+01 -4.0819384573202271e+00 -7 0 3
867 289 2 4.0999999999999998e-01 -1.2405216472793200e+01 -1.2361781539290286e+01 -2.0344610349698691e+00 -2 13 -4
1471 491 1 -8.1999999999999995e-01 -1.1239207955949018e+01 -1.0257109242270078e+01 2.8344093674664261e+00 -7 5 -3
1745 582 2 4.0999999999999998e-01 -7.9443343240820550e+00 -1.0752216080713389e+01 2.3805530893539615e+00 -2 4 -3
1744 582 1 -8.1999999999999995e-01 -8.7545887204374395e+00 -1.1235176516071769e+01 2.0484722425203064e+00 -2 4 -3
39 13 2 4.0999999999999998e-01 -1.1357493162139034e+01 -8.4508106019133571e+00 -2.3801908975735753e+00 1 0 2
2394 798 2 4.0999999999999998e-01 -7.9910037113716239e+00 -1.4444589881572986e+01 -2.6352624432547564e+00 -4 4 -6
399 133 2 4.0999999999999998e-01 -1.4314691429642789e+01 -1.2442369573425422e+01 -1.1053936119627643e+00 -6 3 -6
1472 491 2 4.0999999999999998e-01 -1.1236494419199747e+01 -9.2585152157806192e+00 2.7810871146194938e+00 -7 5 -3
1183 395 1 -8.1999999999999995e-01 -1.0338494196066595e+01 -1.4258454993097436e+01 -5.9992787087336730e-01 -3 7 -7
499 167 1 -8.1999999999999995e-01 -8.5085986803184248e+00 -7.5135092137642037e+00 3.1355835989090384e+00 -5 1 -3
501 167 2 4.0999999999999998e-01 -9.3559924260981031e+00 -7.5579057480385332e+00 3.6647275954654024e+00 -5 1 -3
856 286 1 -8.1999999999999995e-01 -1.0184530933486297e+01 -9.2025585144470199e+00 -3.7009731498005767e+00 -2 3 0
38 13 2 4.0999999999999998e-01 -1.2821246784692987e+01 -8.3725211284753698e+00 -1.6604472131330485e+00 1 0 2
1006 336 1 -8.1999999999999995e-01 -1.0647689603022366e+01 -1.4350358894371356e+01 -4.4301857816206454e+00 -7 2 -4
2161 721 1 -8.1999999999999995e-01 -9.6223850115088290e+00 -1.2469323843316076e+01 4.5837826798906551e+00 -2 -1 -8
847 283 1 -8.1999999999999995e-01 -1.3335621337316102e+01 -8.1400907193547152e+00 -4.9467351238213748e+00 -3 5 -1
37 13 1 -8.1999999999999995e-01 -1.1987978300522549e+01 -7.8624615672375553e+00 -1.8738564835163753e+00 1 0 2
2014 672 1 -8.1999999999999995e-01 -1.3506404703416930e+01 -7.4827812654933856e+00 2.9456857184130687e+00 0 4 -2
1866 622 2 4.0999999999999998e-01 -7.7262256210340485e+00 -1.3216333155692539e+01 -3.1365916466499399e-01 -6 3 -4
2252 751 2 4.0999999999999998e-01 -7.8077948426255057e+00 -7.7100831208164440e+00 1.3520651905739438e+00 -8 5 -5
1185 395 2 4.0999999999999998e-01 -1.0009634329889455e+01 -1.4496285068797562e+01 -1.5138910174972739e+00 -3 7 -7
718 240 1 -8.1999999999999995e-01 -7.7334229687463658e+00 -6.4542185992054186e+00 -1.6440713845349286e+00 -9 1 -6
1514 505 2 4.0999999999999998e-01 -1.2288672249862653e+01 -5.7334698578536525e-01 4.4210853695924275e+00 -4 1 -2
2010 670 2 4.0999999999999998e-01 -1.4783698094125771e+01 -4.9766080846440985e+00 4.6938201552367804e+00 1 0 -3
2227 743 1 -8.1999999999999995e-01 -9.0710299303024406e+00 -1.5213436019947046e-01 -4.8676088049255863e+00 -4 3 1
1485 495 2 4.0999999999999998e-01 -1.4799096600961388e+01 -3.8232448504920971e+00 9.0053319630659523e-01 -3 3 -1
1633 545 1 -8.1999999999999995e-01 -7.9857924023780038e+00 -1.9791925930423879e+00 -1.7408042270421298e+00 -8 7 -3
1860 620 2 4.0999999999999998e-01 -1.4698401534042144e+01 -7.4614727746563396e+00 -1.1648342134266301e+00 -7 1 -4
986 329 2 4.0999999999999998e-01 -1.0985641864983675e+01 -6.4092567605004103e+00 -4.2746773736481032e+00 -1 0 1
546 182 2 4.0999999999999998e-01 -1.4763249812516600e+01 -2.1749204719273862e+00 -1.9872970764610365e+00 -1 3 0
729 243 2 4.0999999999999998e-01 -1.3468311980060507e+01 -5.6954818736105306e+00 -4.4468846657182084e+00 -6 5 5
928 310 1 -8.1999999999999995e-01 -1.0911689724478801e+01 -7.4021855165326533e+00 4.3810736309617102e+00 1 2 4
1757 586 2 4.0999999999999998e-01 -1.0114191055077571e+01 -2.3451748988075138e-01 3.4699039440062034e+00 0 7 3
500 167 2 4.0999999999999998e-01 -8.2021132186179848e+00 -6.5634680439091309e+00 3.0761774545730365e+00 -5 1 -3
1669 557 1 -8.1999999999999995e-01 -7.7270576260582180e+00 -5.0319690068630631e+00 2.1137198633036913e+00 -5 3 0
1608 536 2 4.0999999999999998e-01 -1.4373759124879184e+01 -1.7768300768146688e+00 4.2466242991693246e+00 0 10 -3
792 264 2 4.0999999999999998e-01 -1.3576033962052719e+01 -8.8422166428102145e-01 1.1167034121678672e+00 -4 1 3
791 264 2 4.0999999999999998e-01 -1.1950628147755653e+01 -8.8864269499887172e-01 9.5931488121789066e-01 -4 1 3
1606 536 1 -8.1999999999999995e-01 -1.3487477036290855e+01 -1.9274224207326736e+00 4.6846501625966450e+00 0 10 -3
1634 545 2 4.0999999999999998e-01 -8.6614498038121432e+00 -2.0147707214111072e+00 -2.4771885881632070e+00 -8 7 -3
1858 620 1 -8.1999999999999995e-01 -1.4670009968579528e+01 -6.5908179732830678e+00 -1.6559500807650682e+00 -7 1 -4
853 285 1 -8.1999999999999995e-01 -1.0450186749193767e+01 -5.4741426370140882e+00 -2.1172246129777896e+00 -5 0 0
728 243 2 4.0999999999999998e-01 -1.3751351049219283e+01 -5.0044378070622404e+00 -2.9946168262924910e+00 -6 5 5
790 264 1 -8.1999999999999995e-01 -1.2742363521011686e+01 -3.4571474384794953e-01 1.2393594574652216e+00 -4 1 3
855 285 2 4.0999999999999998e-01 -1.0957547756781803e+01 -4.6246944632731086e+00 -2.2623565351548205e+00 -5 0 0
930 310 2 4.0999999999999998e-01 -1.1685586962971398e+01 -6.9746817526409801e+00 3.9137790374785038e+00 1 2 4
2556 852 2 4.0999999999999998e-01 -1.3480755361003855e+01 -1.3089844483943480e-01 -2.3406518408874817e+00 -1 0 -4
545 182 2 4.0999999999999998e-01 -1.4596504497170502e+01 -2.5186490157949546e+00 -3.5749939984707133e+00 -1 3 0
727 243 1 -8.1999999999999995e-01 -1.3673139599861942e+01 -4.8366316991631955e+00 -3.9773501265369067e+00 -6 5 5
720 240 2 4.0999999999999998e-01 -8.7057333731060602e+00 -6.2406514499678210e+00 -1.7391619838212780e+00 -9 1 -6
2228 743 2 4.0999999999999998e-01 -9.3676715164158217e+00 -1.0652724325030931e+00 -4.5879244989624421e+00 -4 3 1
1756 586 1 -8.1999999999999995e-01 -9.4089009362833238e+00 -1.6400638813123614e-01 2.7644716683701755e+00 0 7 3
279 93 2 4.0999999999999998e-01 -1.0813751739405184e+01 -3.2813023579220904e+00 3.3049418766367200e+00 -7 5 2
621 207 2 4.0999999999999998e-01 -1.2927744860600498e+01 -3.3010098260854548e+00 2.0454273311057616e+00 -1 2 0
1483 495 1 -8.1999999999999995e-01 -1.4484985276448855e+01 -3.0138547638238293e+00 1.3967815407821877e+00 -3 3 -1
2321 774 2 4.0999999999999998e-01 -1.1324278971397172e+01 -5.9061705934858484e+00 1.0241190865727248e+00 -1 4 -4
709 237 1 -8.1999999999999995e-01 -9.9555777077469116e+00 -2.6531351464901540e+00 -4.2608096370680073e+00 -3 2 -3
619 207 1 -8.1999999999999995e-01 -1.2210984378171155e+01 -3.8919765113451632e+00 2.4156346317358075e+00 -1 2 0
1805 602 2 4.0999999999999998e-01 -9.7435403789922361e+00 -2.1895288485381421e+00 1.5898421741877300e-01 -5 2 -3
1419 473 2 4.0999999999999998e-01 -9.7750700121475251e+00 -4.9111187035300450e+00 -2.9175935275546649e-01 -3 7 2
278 93 2 4.0999999999999998e-01 -9.6154705445885522e+00 -2.1807404717911218e+00 3.1648682529282137e+00 -7 5 2
1417 473 1 -8.1999999999999995e-01 -1.0041284697162908e+01 -4.8785411239642364e+00 6.7162483081148494e-01 -3 7 2
2322 774 2 4.0999999999999998e-01 -1.1753722136916000e+01 -7.1451403578095718e+00 5.0842473716238956e-02 -1 4 -4
1418 473 2 4.0999999999999998e-01 -9.2212086844613772e+00 -4.8562499933852834e+00 1.2434806637704323e+00 -3 7 2
620 207 2 4.0999999999999998e-01 -1.2327823104627328e+01 -4.8197526715869508e+00 2.0612044315574369e+00 -1 2 0
2015 672 2 4.0999999999999998e-01 -1.2983859717563334e+01 -7.4502428475931808e+00 2.0936712488893132e+00 0 4 -2
2415 805 2 4.0999999999999998e-01 -1.1536027029270238e+01 -2.5357687025132432e+00 -1.2372881808952538e+00 -2 4 0
710 237 2 4.0999999999999998e-01 -1.0406733997067452e+01 -2.8819806441031037e+00 -3.3981808680672554e+00 -3 2 -3
2413 805 1 -8.1999999999999995e-01 -1.1615869565319695e+01 -3.0187687694538603e+00 -2.1092840332262988e+00 -2 4 0
277 93 1 -8.1999999999999995e-01 -9.9449211376388327e+00 -2.9670427467644789e+00 3.6875839394743348e+00 -7 5 2
1806 602 2 4.0999999999999998e-01 -1.0831924594375035e+01 -2.9209857506538146e+00 1.1321879413540241e+00 -5 2 -3
1804 602 1 -8.1999999999999995e-01 -1.0708770562989208e+01 -2.2331724024949242e+00 4.1679536594226896e-01 -5 2 -3
544 182 1 -8.1999999999999995e-01 -1.4184749939287972e+01 -2.0500423100799523e+00 -2.7933888689563684e+00 -1 3 0
2414 805 2 4.0999999999999998e-01 -1.2531067281356540e+01 -2.8766612277295813e+00 -2.4864567390486627e+00 -2 4 0
2320 774 1 -8.1999999999999995e-01 -1.1953206326875986e+01 -6.6753606629155247e+00 9.1081559149676217e-01 -1 4 -4
2016 672 2 4.0999999999999998e-01 -1.4073117809238852e+01 -6.6622610087278265e+00 3.0206752109785722e+00 0 4 -2
854 285 2 4.0999999999999998e-01 -1.1092996853833856e+01 -6.2225806692162280e+00 -1.9538956598859212e+00 -5 0 0
1607 536 2 4.0999999999999998e-01 -1.3180779883680884e+01 -2.8619105986909137e+00 4.5037928864700181e+00 0 10 -3
1854 618 2 4.0999999999999998e-01 -1.3577343030250640e+01 -9.8761061538752983e+00 9.4681178316361798e+00 -3 3 2
1041 347 2 4.0999999999999998e-01 -1.4010934175660765e+01 -1.0960749491212844e+01 6.6576215241095635e+00 -5 3 -1
1852 618 1 -8.1999999999999995e-01 -1.2682529319974250e+01 -9.9231806479993203e+00 9.9121145244829183e+00 -3 3 2
1553 518 2 4.0999999999999998e-01 -1.1521724040176473e+01 -1.0444729714062142e+01 6.1484936810794064e+00 5 3 -1
1853 618 2 4.0999999999999998e-01 -1.2321424877476829e+01 -1.0852661489481669e+01 9.8365525932614180e+00 -3 3 2
1552 518 1 -8.1999999999999995e-01 -1.0532726490059781e+01 -1.0297400515239282e+01 6.1632800896024218e+00 5 3 -1
2070 690 2 4.0999999999999998e-01 -1.0663991718199789e+01 -1.1875177316029816e+01 8.5430622064252137e+00 -8 6 -2
188 63 2 4.0999999999999998e-01 -1.3960547675380052e+01 -1.4199515774165643e+01 7.5620037941516873e+00 -7 3 1
2068 690 1 -8.1999999999999995e-01 -1.1524865128489807e+01 -1.2156268600863866e+01 8.9672382513869291e+00 -8 6 -2
1390 464 1 -8.1999999999999995e-01 -1.3653010982911757e+01 -1.2757175450569600e+01 1.2263582474663766e+01 -6 4 0
1391 464 2 4.0999999999999998e-01 -1.3372714988587576e+01 -1.1867636256244701e+01 1.2624407696552447e+01 -6 4 0
90 30 2 4.0999999999999998e-01 -1.2171133109372629e+01 -9.6574756380672007e+00 1.3379668554929205e+01 -3 0 -4
1392 464 2 4.0999999999999998e-01 -1.2841921029165157e+01 -1.3286338695225064e+01 1.2014263388011388e+01 -6 4 0
629 210 2 4.0999999999999998e-01 -9.8369503968817540e+00 -1.1106970957509821e+01 1.3110403363816529e+01 -7 -1 -1
327 109 2 4.0999999999999998e-01 -1.0256713238344325e+01 -7.9173654572086978e+00 1.0821071922445659e+01 -10 5 0
88 30 1 -8.1999999999999995e-01 -1.3020580981391847e+01 -1.0155758290494006e+01 1.3205906227762823e+01 -3 0 -4
326 109 2 4.0999999999999998e-01 -1.1399558858860267e+01 -8.6665890625453947e+00 9.9270345749387499e+00 -10 5 0
325 109 1 -8.1999999999999995e-01 -1.0494426092838808e+01 -8.2419552317763269e+00 9.9055530868980757e+00 -10 5 0
628 210 1 -8.1999999999999995e-01 -9.8362703778596394e+00 -1.0184582850727150e+01 1.3496719752921985e+01 -7 -1 -1
89 30 2 4.0999999999999998e-01 -1.3187512678806172e+01 -1.0196591014100200e+01 1.2220763013567575e+01 -3 0 -4
892 298 1 -8.1999999999999995e-01 -1.0281871909788576e+01 -7.7289572296558031e+00 1.2673868406110133e+01 -2 0 2
893 298 2 4.0999999999999998e-01 -1.0224870430463355e+01 -8.6214755547566888e+00 1.3121308397319153e+01 -2 0 2
558 186 2 4.0999999999999998e-01 -1.1495160479651812e+01 -1.3610547173539990e+01 1.0044945877972713e+01 -4 6 -4
2254 752 1 -8.1999999999999995e-01 -9.7882696513370178e+00 -1.2969217989359127e+01 1.3051642010655863e+01 -4 4 -7
2069 690 2 4.0999999999999998e-01 -1.1981564478015718e+01 -1.2826401652898980e+01 8.3820989066684195e+00 -8 6 -2
1389 463 2 4.0999999999999998e-01 -1.4775988457959265e+01 -1.3032673250379084e+01 1.3905308401604517e+01 -4 3 -12
1236 412 2 4.0999999999999998e-01 -9.3281245986276069e+00 -9.8157716397133257e+00 9.2152229002311348e+00 -6 4 -7
2255 752 2 4.0999999999999998e-01 -8.9371575329784250e+00 -1.3227197271067610e+01 1.2594372378741978e+01 -4 4 -7
363 121 2 4.0999999999999998e-01 -8.1657706370430816e+00 -1.3979397310339140e+01 7.2301959018360105e+00 -5 7 6
2256 752 2 4.0999999999999998e-01 -1.0565862080611268e+01 -1.3331226631340046e+01 1.2537501553853636e+01 -4 4 -7
1039 347 1 -8.1999999999999995e-01 -1.3177368718749847e+01 -1.0696637895385829e+01 6.1723851332591462e+00 -5 3 -1
1040 347 2 4.0999999999999998e-01 -1.3256674145546972e+01 -9.7481979081443590e+00 5.8654439373198439e+00 -5 3 -1
1330 444 1 -8.1999999999999995e-01 -1.4310038907442502e+01 -7.6983726566315722e+00 1.4486879470919520e+01 -8 10 -3
1235 412 2 4.0999999999999998e-01 -9.3589037496441669e+00 -1.0434611309055962e+01 7.7043208477633929e+00 -6 4 -7
556 186 1 -8.1999999999999995e-01 -1.1627835167938944e+01 -1.4144024353778461e+01 1.0880314171493884e+01 -4 6 -4
630 210 2 4.0999999999999998e-01 -8.9749260313878185e+00 -1.0026000389316112e+01 1.3979397880039615e+01 -7 -1 -1
437 146 2 4.0999999999999998e-01 -9.9103386473832238e+00 -1.4596321480156917e+01 1.4366202564053685e+01 -4 9 1
1234 412 1 -8.1999999999999995e-01 -9.0003906748375240e+00 -1.0557307315777321e+01 8.6297692431784565e+00 -6 4 -7
1554 518 2 4.0999999999999998e-01 -1.0075389032370321e+01 -1.1058864304057964e+01 5.7038717454453387e+00 5 3 -1
976 326 1 -8.1999999999999995e-01 -1.4385785683741494e+01 -7.5158358910709806e+00 9.2686379243524559e+00 -7 6 -2
1332 444 2 4.0999999999999998e-01 -1.4700888148966234e+01 -8.1048873384024258e+00 1.3661032430912696e+01 -8 10 -3
1028 343 2 4.0999999999999998e-01 -1.4079202859799985e+01 -1.2177968694949039e+01 5.3670922128388323e+00 -3 3 0
765 255 2 4.0999999999999998e-01 -9.3174390981541499e+00 -1.4559047971959471e+01 8.5509569788642370e+00 -1 3 -2
293 98 2 4.0999999999999998e-01 -9.2020607143979731e+00 -1.2547584431813412e+01 1.4653658326018034e+01 -11 0 -1
361 121 1 -8.1999999999999995e-01 -8.2399274929821775e+00 -1.4496989804625063e+01 6.3777644120897623e+00 -5 7 6
1941 647 2 4.0999999999999998e-01 -1.4593059344174634e+01 -1.3190183600273727e+01 1.1085288540568692e+01 -9 1 -3
187 63 1 -8.1999999999999995e-01 -1.4920567192855573e+01 -1.4074195402744403e+01 7.8123994663636953e+00 -7 3 1
1846 616 1 -8.1999999999999995e-01 -1.2239907462832562e+01 -1.4617721033272915e+01 7.6774408946217232e+00 -5 0 -5