LAMMPS data file via write_data, version 15 May 2015, timestep = 8008000

2611 atoms
6 atom types
1749 bonds
4 bond types
894 angles
3 angle types
44 dihedrals
3 dihedral types
10 impropers
1 improper types

-1.4985719454562767e+01 1.4985719454562767e+01 xlo xhi
-1.4985719454562767e+01 1.4985719454562767e+01 ylo yhi
-1.4985719454562767e+01 1.4985719454562767e+01 zlo zhi

Masses

1 15.9994
2 1.00794
3 12.0107
4 1.00794
5 12.0107
6 12.0107

Bond Coeffs # harmonic

1 1000 1
2 469 1.4
3 367 1.08
4 469 0.7

Angle Coeffs # harmonic

1 100 109.47
2 35 120
3 63 120

Dihedral Coeffs # opls

1 0 7.25 0 0
2 0 7.25 0 0
3 0 7.25 0 0

Improper Coeffs # cvff

1 2.5 -1 2

Atoms # full

922 308 1 -8.1999999999999995e-01 -1.1938544572999314e+01 -8.9355017816104727e+00 -8.6840945063949491e+00 2 0 1
785 262 2 4.0999999999999998e-01 -1.0400278301351758e+01 -1.0494754983951641e+01 -1.0897628932730187e+01 -2 4 -1
784 262 1 -8.1999999999999995e-01 -1.0503197615169849e+01 -1.1467865430213797e+01 -1.1103622175167198e+01 -2 4 -1
1993 665 1 -8.1999999999999995e-01 -1.2383845156513161e+01 -8.1932098742131814e+00 -1.1333153568730948e+01 2 2 3
924 308 2 4.0999999999999998e-01 -1.2660574031739404e+01 -8.6803151617009622e+00 -8.0410371709241666e+00 2 0 1
1976 659 2 4.0999999999999998e-01 -1.3504632473129433e+01 -7.6435644725442682e+00 -1.3121135301232684e+01 1 -1 4
923 308 2 4.0999999999999998e-01 -1.1066042096422278e+01 -8.5596881435891028e+00 -8.3718877923785051e+00 2 0 1
1994 665 2 4.0999999999999998e-01 -1.2311496481942154e+01 -8.3777116362378958e+00 -1.0353003457697794e+01 2 2 3
444 148 2 4.0999999999999998e-01 -8.8954654501934414e+00 -7.8782937575133802e+00 -1.2888204657067723e+01 2 0 0
786 262 2 4.0999999999999998e-01 -1.1346526229315520e+01 -1.1809066218818479e+01 -1.0688473500383381e+01 -2 4 -1
41 14 2 4.0999999999999998e-01 -8.5543870175361238e+00 -6.0909836216514535e+00 -1.3548805550549128e+01 2 1 3
624 208 2 4.0999999999999998e-01 -1.1295861630450947e+01 -8.7177698637054348e+00 -1.3005927240821023e+01 0 4 -1
1975 659 1 -8.1999999999999995e-01 -1.3449386281764664e+01 -7.1753752599696439e+00 -1.4003017692455517e+01 1 -1 4
2428 810 1 -8.1999999999999995e-01 -1.0677135439951371e+01 -1.4971132790663207e+01 -1.2141248286806929e+01 0 4 2
2266 756 1 -8.1999999999999995e-01 -1.2938454052895290e+01 -1.1552746346804589e+01 -9.4295892446812317e+00 1 1 -1
210 70 2 4.0999999999999998e-01 -1.3831908847081220e+01 -6.1943891873958243e+00 -8.0666929863013870e+00 -3 2 1
208 70 1 -8.1999999999999995e-01 -1.4298411155507633e+01 -7.0537268895083800e+00 -8.2761775960159838e+00 -3 2 1
2350 784 1 -8.1999999999999995e-01 -1.1668237542976975e+01 -5.1905254523492239e+00 -1.1224790395237633e+01 3 3 -2
2267 756 2 4.0999999999999998e-01 -1.2604941618315536e+01 -1.0610024839880467e+01 -9.4257014801931902e+00 1 1 -1
442 148 1 -8.1999999999999995e-01 -8.2090943252578583e+00 -7.4312455379924476e+00 -1.2314608842726578e+01 2 0 0
443 148 2 4.0999999999999998e-01 -7.8507246983408985e+00 -8.0876488319896680e+00 -1.1650774940738959e+01 2 0 0
2400 800 2 4.0999999999999998e-01 -1.0429888967648820e+01 -1.2083091327004114e+01 -1.2710604474362318e+01 0 0 0
2268 756 2 4.0999999999999998e-01 -1.3064513029436958e+01 -1.1865586094173725e+01 -8.4882019725996454e+00 1 1 -1
1995 665 2 4.0999999999999998e-01 -1.3323151883543456e+01 -8.3568011109796316e+00 -1.1634666909458208e+01 2 2 3
812 271 2 4.0999999999999998e-01 -9.9788740505707736e+00 -1.1173986927485199e+01 -1.4931604785691722e+01 -3 2 3
1425 475 2 4.0999999999999998e-01 -8.7129515398323711e+00 -7.6159763393433497e+00 -7.6949315002719567e+00 3 4 4
1407 469 2 4.0999999999999998e-01 -8.9288032991580444e+00 -1.2809953299072479e+01 -1.0246069641501185e+01 0 3 -3
2398 800 1 -8.1999999999999995e-01 -1.0255311939495833e+01 -1.2714004249662747e+01 -1.3466541806128490e+01 0 0 0
2208 736 2 4.0999999999999998e-01 -8.3768067410018912e+00 -5.5905814468899653e+00 -9.1731503431349353e+00 0 1 2
2207 736 2 4.0999999999999998e-01 -8.3881436096048443e+00 -6.0709314526503881e+00 -1.0733817040681288e+01 0 1 2
1405 469 1 -8.1999999999999995e-01 -8.1764148382742690e+00 -1.2964986431046562e+01 -9.6058776260111838e+00 0 3 -3
2275 759 1 -8.1999999999999995e-01 -1.4655556556942777e+01 -5.6653127216767381e+00 -1.1680241249908258e+01 2 5 -2
40 14 1 -8.1999999999999995e-01 -8.5927278016507582e+00 -5.5140544415950892e+00 -1.4364680658823504e+01 2 1 3
1469 490 2 4.0999999999999998e-01 -1.3082351854588875e+01 -1.2019622734489927e+01 -1.4546169869966668e+01 1 4 1
1468 490 1 -8.1999999999999995e-01 -1.3719976207126653e+01 -1.2786757983175338e+01 -1.4476111486531373e+01 1 4 1
382 128 1 -8.1999999999999995e-01 -1.4906784099373096e+01 -8.4112900200067457e+00 -1.1846992590124213e+01 -1 2 -2
318 106 2 4.0999999999999998e-01 -1.3104433481749641e+01 -1.3232142739419412e+01 -1.0167403694172901e+01 -1 4 0
622 208 1 -8.1999999999999995e-01 -1.0494685855359648e+01 -8.3789270126788331e+00 -1.3499153764069547e+01 0 4 -1
813 271 2 4.0999999999999998e-01 -1.0017183335089740e+01 -9.5657505735781001e+00 -1.4651152656350016e+01 -3 2 3
1424 475 2 4.0999999999999998e-01 -8.5071813426129577e+00 -9.1512146153070013e+00 -8.2118912155355819e+00 3 4 4
2206 736 1 -8.1999999999999995e-01 -8.3606098283609693e+00 -5.2793922006158081e+00 -1.0123344217749159e+01 0 1 2
623 208 2 4.0999999999999998e-01 -1.0791664765821348e+01 -7.8197027695395764e+00 -1.4273131327082503e+01 0 4 -1
1423 475 1 -8.1999999999999995e-01 -9.1828130921434976e+00 -8.4521345441617193e+00 -7.9778433414085566e+00 3 4 4
2399 800 2 4.0999999999999998e-01 -1.0222232823102505e+01 -1.3650709395686789e+01 -1.3118032502722610e+01 0 0 0
1181 394 2 4.0999999999999998e-01 -1.4361357179193739e+01 -1.3817087713085916e+01 -1.2962040528412693e+01 -1 -1 -4
316 106 1 -8.1999999999999995e-01 -1.3057512669759706e+01 -1.4219848435762794e+01 -1.0316418743841329e+01 -1 4 0
2352 784 2 4.0999999999999998e-01 -1.1341815754975670e+01 -6.1274884674154215e+00 -1.1100216244044582e+01 3 3 -2
27 9 2 4.0999999999999998e-01 -7.5671245724803011e+00 -1.1375290094808046e+01 -8.4667282953168801e+00 -1 5 0
1406 469 2 4.0999999999999998e-01 -7.5435850853910447e+00 -1.3636357707552571e+01 -9.9915674046489027e+00 0 3 -3
209 70 2 4.0999999999999998e-01 -1.4932556654726504e+01 -6.9120401535283520e+00 -9.0362788146697568e+00 -3 2 1
1180 394 1 -8.1999999999999995e-01 -1.4449663280505085e+01 -1.4740276910299400e+01 -1.2588017452109087e+01 -1 -1 -4
2429 810 2 4.0999999999999998e-01 -1.1389837632181781e+01 -1.4665625352816773e+01 -1.1509829023727384e+01 0 4 2
1977 659 2 4.0999999999999998e-01 -1.3277499120372683e+01 -6.2017202378639293e+00 -1.3853283669624854e+01 1 -1 4
317 106 2 4.0999999999999998e-01 -1.3669309101200897e+01 -1.4473319029050529e+01 -1.1065703254362932e+01 -1 4 0
2277 759 2 4.0999999999999998e-01 -1.4033133768899997e+01 -5.3870449580414714e+00 -1.0948717859496098e+01 2 5 -2
1891 631 1 -8.1999999999999995e-01 -8.1246140554405599e+00 -5.7708302286459165e+00 -7.5147426703977889e+00 -1 2 2
198 66 2 4.0999999999999998e-01 -1.0549604994453802e+01 -6.8233164300520475e+00 -8.0352579576493994e+00 2 4 -1
1455 485 2 4.0999999999999998e-01 -7.4546906890151980e+00 -1.0177254472131432e+01 -1.1434880122658409e+01 1 -2 0
1454 485 2 4.0999999999999998e-01 -7.3536902496418977e+00 -9.7723653626831091e+00 -9.8561436674317093e+00 1 -2 0
1453 485 1 -8.1999999999999995e-01 -7.4612908303418317e+00 -9.4174322567996818e+00 -1.0784806193006503e+01 1 -2 0
2330 777 2 4.0999999999999998e-01 -2.3647179919115455e+00 -1.4707426383826194e+01 -7.7530812784330481e+00 1 0 -1
1644 548 2 4.0999999999999998e-01 -3.5884564610175484e+00 -1.1778572080354721e+01 -8.9431646065297912e+00 1 1 -1
1988 663 2 4.0999999999999998e-01 -8.2416567908173555e-01 -1.3880469013493904e+01 -9.6149946568148863e+00 3 0 -2
1272 424 2 4.0999999999999998e-01 -3.2287064951859339e+00 -1.4790664260141568e+01 -1.2931024412126286e+01 2 1 -1
2504 835 2 4.0999999999999998e-01 -3.6498103796952801e+00 -7.8697873703141248e+00 -1.3373901688256485e+01 3 2 2
25 9 1 -8.1999999999999995e-01 -7.2782347466469002e+00 -1.0466875096487968e+01 -8.1645786912535563e+00 -1 5 0
1433 478 2 4.0999999999999998e-01 -9.4676476382030827e-01 -1.3492190995894067e+01 -1.3162562091238060e+01 1 0 1
1006 336 1 -8.1999999999999995e-01 -3.0366833152182178e+00 -8.2407403793305285e+00 -9.1671118817765915e+00 -1 0 0
13 5 1 -8.1999999999999995e-01 -5.4510258532466906e+00 -5.9151913442393589e+00 -7.5988898343234705e+00 1 2 -1
1755 585 2 4.0999999999999998e-01 -6.7371157807532622e+00 -1.4466490424265292e+01 -1.2073034236201167e+01 2 3 -1
1989 663 2 4.0999999999999998e-01 -5.0895198956660970e-01 -1.2408595122131704e+01 -8.9819285608740813e+00 3 0 -2
2017 673 1 -8.1999999999999995e-01 -1.6205659053197081e+00 -1.0903606135699679e+01 -1.1481529431952818e+01 -1 1 0
1007 336 2 4.0999999999999998e-01 -2.0815539945946675e+00 -8.0352358424956147e+00 -9.3803380308026902e+00 -1 0 0
422 141 2 4.0999999999999998e-01 -2.6538095817899432e-01 -7.1321784580266003e+00 -9.8316485799609303e+00 3 2 -1
2331 777 2 4.0999999999999998e-01 -3.5452066144189143e+00 -1.3592753766884554e+01 -7.5784480366728060e+00 1 0 -1
1558 520 1 -8.1999999999999995e-01 -5.1926129379792663e-01 -6.3529423627264361e+00 -1.4622090706257802e+01 1 5 -1
1559 520 2 4.0999999999999998e-01 -1.4246009665255528e+00 -6.7727125879498526e+00 -1.4557883563192950e+01 1 5 -1
482 161 2 4.0999999999999998e-01 -3.3328569080279991e+00 -9.4500047267392215e+00 -7.8951946210346637e+00 -2 2 -3
421 141 1 -8.1999999999999995e-01 -4.8477135117369485e-01 -8.1004288032838438e+00 -9.7119460217336133e+00 3 2 -1
2503 835 1 -8.1999999999999995e-01 -3.0865100384430306e+00 -8.1074827539849235e+00 -1.4165206386086629e+01 3 2 2
1643 548 2 4.0999999999999998e-01 -2.9010096702802315e+00 -1.1651655202404395e+01 -1.0418920038356138e+01 1 1 -1
119 40 2 4.0999999999999998e-01 -5.0881027629803768e+00 -1.1300850722631170e+01 -1.4163323681805020e+01 0 1 2
2018 673 2 4.0999999999999998e-01 -6.3045572048984511e-01 -1.0856038496230017e+01 -1.1349662277282992e+01 -1 1 0
1434 478 2 4.0999999999999998e-01 -2.0698059540121516e+00 -1.2493134012946591e+01 -1.3800691225031882e+01 1 0 1
1602 534 2 4.0999999999999998e-01 -3.6028697125288591e+00 -1.0476259623320074e+01 -1.2099105676423950e+01 1 2 2
499 167 1 -8.1999999999999995e-01 -1.7776746417817488e+00 -1.0688300676226774e+01 -1.4154579577704325e+01 -2 -1 -1
1601 534 2 4.0999999999999998e-01 -4.9102653306348767e+00 -9.5400307149402543e+00 -1.2383248743352118e+01 1 2 2
223 75 1 -8.1999999999999995e-01 -4.5960766728190521e+00 -7.5096326973399901e+00 -1.1771032083300863e+01 -1 4 -3
225 75 2 4.0999999999999998e-01 -5.4725380031814606e+00 -7.0635517030397876e+00 -1.1589933175838459e+01 -1 4 -3
739 247 1 -8.1999999999999995e-01 -5.7115196128367600e+00 -1.3008469201376345e+01 -1.1634239957336270e+01 0 2 1
1600 534 1 -8.1999999999999995e-01 -4.5350454284016646e+00 -1.0463695895639473e+01 -1.2460851535053456e+01 1 2 2
1432 478 1 -8.1999999999999995e-01 -1.8125061884746518e+00 -1.3449326524417781e+01 -1.3661184152500725e+01 1 0 1
1642 548 1 -8.1999999999999995e-01 -3.4148024547385294e+00 -1.2252400215987224e+01 -9.8064725829452755e+00 1 1 -1
741 247 2 4.0999999999999998e-01 -5.0148680933075500e+00 -1.3187530592680192e+01 -1.0939557823219623e+01 0 2 1
740 247 2 4.0999999999999998e-01 -5.5124298352102450e+00 -1.2140977910725368e+01 -1.2090081597810078e+01 0 2 1
1008 336 2 4.0999999999999998e-01 -3.6052791707430316e+00 -8.0502428606212675e+00 -9.9673487160241336e+00 -1 0 0
2505 835 2 4.0999999999999998e-01 -3.6004571073971903e+00 -8.7164481357568846e+00 -1.4769349622932124e+01 3 2 2
1578 526 2 4.0999999999999998e-01 -5.3136710832743006e-01 -8.3742522181377517e+00 -7.8709701803786807e+00 -2 3 -3
224 75 2 4.0999999999999998e-01 -3.8605359465992759e+00 -6.8345287077967551e+00 -1.1714605324253395e+01 -1 4 -3
500 167 2 4.0999999999999998e-01 -1.9303560882497646e+00 -9.7292442933707903e+00 -1.3916107869666412e+01 -2 -1 -1
2019 673 2 4.0999999999999998e-01 -1.8252852753992848e+00 -1.0937528017325427e+01 -1.2459746693586643e+01 -1 1 0
1892 631 2 4.0999999999999998e-01 -7.2101386935663951e+00 -6.0528077282784665e+00 -7.8049030716640173e+00 -1 2 2
1987 663 1 -8.1999999999999995e-01 -2.2742403925090748e-01 -1.3079784147398986e+01 -9.6676521481096955e+00 3 0 -2
981 327 2 4.0999999999999998e-01 -7.2030841221954232e+00 -5.1446925456403125e+00 -1.1748647341771997e+01 -3 -1 -1
467 156 2 4.0999999999999998e-01 -8.9077047090528154e+00 -1.2827660993077343e+01 -5.1292776531258166e+00 2 4 2
2130 710 2 4.0999999999999998e-01 -1.3803971429701408e+01 -1.2544047255798450e+01 -4.0401379314744421e+00 0 4 0
1437 479 2 4.0999999999999998e-01 -8.3888381950975646e+00 -1.0543142098856150e+01 -1.3438027937609398e-01 2 -1 1
1436 479 2 4.0999999999999998e-01 -9.4982028408719472e+00 -1.1676973082073195e+01 -5.2204330949026279e-01 2 -1 1
1190 397 2 4.0999999999999998e-01 -1.1896533775592035e+01 -1.4919956743934469e+01 -2.5002289988993347e+00 -1 4 -2
2467 823 1 -8.1999999999999995e-01 -1.1275863924993793e+01 -1.0065862671519106e+01 -4.6414170199930922e+00 0 0 -1
645 215 2 4.0999999999999998e-01 -1.1971884879593951e+01 -5.9150607432534610e+00 -3.1991928474815232e+00 -2 0 -1
1842 614 2 4.0999999999999998e-01 -1.2076190228566634e+01 -7.2685683704260260e+00 -5.9993956119576080e+00 0 3 0
1056 352 2 4.0999999999999998e-01 -1.0550475957939678e+01 -1.3041453413752693e+01 -2.2043269268283261e+00 -1 3 2
2469 823 2 4.0999999999999998e-01 -1.0554209066064129e+01 -1.0656435908234602e+01 -5.0025361093179104e+00 0 0 -1
202 68 1 -8.1999999999999995e-01 -1.0599776998909991e+01 -8.1687742665674836e+00 -2.4088381920896644e+00 0 0 -2
466 156 1 -8.1999999999999995e-01 -9.2132112547802905e+00 -1.1903528460138112e+01 -4.8998993566512024e+00 2 4 2
204 68 2 4.0999999999999998e-01 -1.0921791883069785e+01 -8.9973490491781760e+00 -2.8668118451612603e+00 0 0 -2
203 68 2 4.0999999999999998e-01 -9.6411250541494837e+00 -8.0089653819067621e+00 -2.6442465607025110e+00 0 0 -2
2128 710 1 -8.1999999999999995e-01 -1.2814595374539397e+01 -1.2508765355527519e+01 -4.1810624686644875e+00 0 4 0
2129 710 2 4.0999999999999998e-01 -1.2360178271705646e+01 -1.3082282568408056e+01 -3.4994813502470681e+00 0 4 0
1070 357 2 4.0999999999999998e-01 -1.3739446087802238e+01 -1.3795146953589276e+01 -7.1825990415923062e+00 2 1 -1
1805 602 2 4.0999999999999998e-01 -8.7327077315167045e+00 -1.3670676184553013e+01 -2.7647313609794466e-01 1 2 -2
1054 352 1 -8.1999999999999995e-01 -9.7038404672229639e+00 -1.2511846345375231e+01 -2.2562338237326305e+00 -1 3 2
1069 357 1 -8.1999999999999995e-01 -1.3841237705755352e+01 -1.2813891850767899e+01 -7.0190554432057484e+00 2 1 -1
2468 823 2 4.0999999999999998e-01 -1.2096918148112566e+01 -1.0610088096712669e+01 -4.4692016320836032e+00 0 0 -1
1841 614 2 4.0999999999999998e-01 -1.2023731484357105e+01 -8.7234850123483731e+00 -5.2597935152024604e+00 0 3 0
535 179 1 -8.1999999999999995e-01 -7.8872982691175659e+00 -7.5361636105215926e+00 -3.0090911511146459e+00 3 2 -2
1071 357 2 4.0999999999999998e-01 -1.3091134810341252e+01 -1.2492757932299046e+01 -6.4409653484432621e+00 2 1 -1
1840 614 1 -8.1999999999999995e-01 -1.2613583958504085e+01 -7.9560609846844752e+00 -5.5109987487267986e+00 0 3 0
468 156 2 4.0999999999999998e-01 -8.7729053263851284e+00 -1.1245651692707636e+01 -5.5108808621309535e+00 2 4 2
1752 584 2 4.0999999999999998e-01 -8.3709829788973877e+00 -5.6888387536146059e+00 -4.1945466125668514e+00 -1 2 0
1189 397 1 -8.1999999999999995e-01 -1.1813345421206222e+01 -1.4106983083429396e+01 -1.9239278452735462e+00 -1 4 -2
1055 352 2 4.0999999999999998e-01 -9.6202263691514673e+00 -1.2105341916169909e+01 -3.1660318186513159e+00 -1 3 2
1893 631 2 4.0999999999999998e-01 -8.1477867110111148e+00 -5.6892582552800182e+00 -6.5183599178076967e+00 -1 2 2
1804 602 1 -8.1999999999999995e-01 -9.2559218821519949e+00 -1.4505502202772352e+01 -1.0535337767090347e-01 1 2 -2
196 66 1 -8.1999999999999995e-01 -1.1149883352007336e+01 -6.5821134665556045e+00 -7.2727249771532376e+00 2 4 -1
1904 635 2 4.0999999999999998e-01 -7.8722539406815129e+00 -1.2993077900271880e+01 -2.5877599844875689e+00 3 6 1
965 322 2 4.0999999999999998e-01 -1.0763862508206579e+01 -8.2005227932084210e+00 -7.8663737941614009e-01 1 1 2
1191 397 2 4.0999999999999998e-01 -1.2105534835085312e+01 -1.4326874669114588e+01 -9.9320627793016136e-01 -1 4 -2
2191 731 1 -8.1999999999999995e-01 -8.4582851730684112e+00 -1.4349430439004703e+01 -5.6347722405881804e+00 0 0 1
1403 468 2 4.0999999999999998e-01 -1.4039178094362388e+01 -5.2439320957802238e+00 -2.7050655803101460e+00 3 1 1
643 215 1 -8.1999999999999995e-01 -1.2898432707607203e+01 -6.0429853886533849e+00 -3.5529073157627185e+00 -2 0 -1
644 215 2 4.0999999999999998e-01 -1.2912147247479599e+01 -6.8244840092372456e+00 -4.1766390989173221e+00 -2 0 -1
1806 602 2 4.0999999999999998e-01 -1.0048815532856350e+01 -1.4532592995114387e+01 -7.1408594406142178e-01 1 2 -2
197 66 2 4.0999999999999998e-01 -1.0875061232829609e+01 -5.6959973113921851e+00 -6.8995752801362968e+00 2 4 -1
2192 731 2 4.0999999999999998e-01 -8.9575244082141836e+00 -1.4444516849744161e+01 -6.4959854926305081e+00 0 0 1
2475 825 2 4.0999999999999998e-01 -1.4745289907803118e+01 -8.5343778848884551e+00 -1.1055314941208927e-01 3 3 -1
1353 451 2 4.0999999999999998e-01 -1.4111392100292047e+01 -5.4771660404784281e+00 -7.0811596597764037e-01 -3 -1 0
2442 814 2 4.0999999999999998e-01 -3.7745853950199049e-01 -8.1489927523061922e+00 -5.2640965634304511e+00 0 -1 2
2440 814 1 -8.1999999999999995e-01 -3.8701248138028532e-01 -8.1433944218260024e+00 -4.2641731034091030e+00 0 -1 2
26 9 2 4.0999999999999998e-01 -6.5646128800111114e+00 -1.0557932476675871e+01 -7.4700127294849556e+00 -1 5 0
1813 605 1 -8.1999999999999995e-01 -6.1232519310007874e+00 -5.3617745098821121e+00 -2.2639222901418350e+00 -1 0 -3
621 207 2 4.0999999999999998e-01 -6.0831166355295174e-01 -1.1096533686762314e+01 -2.7341001627459125e+00 3 3 2
537 179 2 4.0999999999999998e-01 -7.3976740867934856e+00 -7.8846830378863606e+00 -3.8083232344674816e+00 3 2 -2
1756 586 1 -8.1999999999999995e-01 -6.8020241692944037e+00 -7.4551490207411355e+00 -5.6229633477033296e+00 3 4 -2
536 179 2 4.0999999999999998e-01 -7.2893035975665486e+00 -6.9227992073269871e+00 -2.4931880214561435e+00 3 2 -2
568 190 1 -8.1999999999999995e-01 -2.8425989446571318e+00 -1.0006707839063491e+01 -4.2118814287590851e+00 1 6 1
569 190 2 4.0999999999999998e-01 -2.4090516399448259e+00 -1.0896235949295033e+01 -4.0678465496309073e+00 1 6 1
481 161 1 -8.1999999999999995e-01 -3.3099547111829040e+00 -1.0182245590906525e+01 -7.2145564618991367e+00 -2 2 -3
1815 605 2 4.0999999999999998e-01 -5.4839858463922919e+00 -5.0315362665750314e+00 -1.5694792394409873e+00 -1 0 -3
950 317 2 4.0999999999999998e-01 -3.4427796738915202e+00 -7.0646344092208002e+00 -2.8657706392497371e+00 0 1 1
194 65 2 4.0999999999999998e-01 -2.0782195847619231e+00 -7.5940551332096593e+00 -5.8944847841399373e-01 0 0 -4
1941 647 2 4.0999999999999998e-01 -4.1055319119756550e+00 -1.1777699474514979e+01 -2.9852469806111692e-01 1 2 -4
1503 501 2 4.0999999999999998e-01 -4.3071780659026064e+00 -1.4916089845325045e+01 -5.9997103421756925e+00 1 4 3
615 205 2 4.0999999999999998e-01 -3.9184668069634476e-01 -6.1743293444238745e+00 -1.8294376361611615e+00 0 1 1
1360 454 1 -8.1999999999999995e-01 -6.7048123715409371e+00 -1.0457665744113260e+01 -7.7178147300450561e-01 -2 1 0
2364 788 2 4.0999999999999998e-01 -2.0938347907695860e+00 -5.1414107553339381e+00 -6.1550727765677493e+00 2 2 1
1758 586 2 4.0999999999999998e-01 -6.4886673363792564e+00 -8.3144857233430969e+00 -6.0270889247051382e+00 3 4 -2
2025 675 2 4.0999999999999998e-01 -2.4817436841789959e+00 -1.4316737524879596e+01 -5.1966623669134453e+00 -2 -1 2
1361 454 2 4.0999999999999998e-01 -6.8763633235013728e+00 -1.1143813374841072e+01 -1.4787052323843746e+00 -2 1 0
1757 586 2 4.0999999999999998e-01 -6.4381181784187103e+00 -6.6869178614339990e+00 -6.1496158114737653e+00 3 4 -2
2329 777 1 -8.1999999999999995e-01 -3.2029590111236477e+00 -1.4476432366517740e+01 -7.2591547865706687e+00 1 0 -1
1903 635 1 -8.1999999999999995e-01 -7.0435723275407822e+00 -1.2913807162073926e+01 -2.0337090127036870e+00 3 6 1
2194 732 1 -8.1999999999999995e-01 -1.0478034322117207e+00 -1.4094298666364276e+01 -4.3310637328919377e-01 -2 3 2
15 5 2 4.0999999999999998e-01 -5.4422933707376888e+00 -5.1838533168055463e+00 -6.9169529498775741e+00 1 2 -1
949 317 1 -8.1999999999999995e-01 -3.8047946689390226e+00 -6.4295255282616743e+00 -3.5480839568567184e+00 0 1 1
2423 808 2 4.0999999999999998e-01 -4.8233089597652441e+00 -1.0062643691402396e+01 -6.3353467240646495e+00 -1 3 -2
2043 681 2 4.0999999999999998e-01 -1.6776394315739722e+00 -1.3197761611104042e+01 -3.5956954755575037e+00 1 4 0
2441 814 2 4.0999999999999998e-01 -1.3257718946220258e+00 -8.2577435323650548e+00 -3.9391738479510252e+00 0 -1 2
2422 808 1 -8.1999999999999995e-01 -5.7012458948038329e+00 -1.0020533117290427e+01 -5.8584579290063932e+00 -1 3 -2
1905 635 2 4.0999999999999998e-01 -6.4909693046048034e+00 -1.3740377690449897e+01 -2.1403887324847961e+00 3 6 1
1362 454 2 4.0999999999999998e-01 -5.8109551906793655e+00 -1.0624222053544205e+01 -3.5555097025516424e-01 -2 1 0
570 190 2 4.0999999999999998e-01 -3.8026932537170026e+00 -1.0139773690454023e+01 -4.4578121477487720e+00 1 6 1
2424 808 2 4.0999999999999998e-01 -5.7462589442371854e+00 -1.0751770244033626e+01 -5.1778437965330149e+00 -1 3 -2
627 209 2 4.0999999999999998e-01 -2.3828191423603329e+00 -7.6236079873906748e+00 -6.2720249699329447e+00 -4 2 -3
2325 775 2 4.0999999999999998e-01 -2.3555596312101965e+00 -8.9893932950736399e+00 -1.4040574345622581e+00 0 3 -1
1302 434 2 4.0999999999999998e-01 -4.4712473829594916e+00 -1.3683321981376118e+01 -1.5242702782757611e+00 -3 0 1
626 209 2 4.0999999999999998e-01 -3.0042259046587674e+00 -6.7263695837356092e+00 -5.0573801373712612e+00 -4 2 -3
2323 775 1 -8.1999999999999995e-01 -2.5270738308335208e+00 -8.3328768886206390e+00 -2.1385903154203145e+00 0 3 -1
2042 681 2 4.0999999999999998e-01 -2.4269373888873371e+00 -1.2403545778407359e+01 -2.3814801370628906e+00 1 4 0
937 313 1 -8.1999999999999995e-01 -9.7668495079123119e-02 -1.1408654029958935e+01 -7.3183345244876357e+00 -2 1 -2
2373 791 2 4.0999999999999998e-01 -6.1265956422228474e+00 -1.2245906497201018e+01 -3.2488415697732300e+00 1 0 -1
1501 501 1 -8.1999999999999995e-01 -4.9628239879678091e+00 -1.4704666257257776e+01 -5.2748669105801191e+00 1 4 3
2371 791 1 -8.1999999999999995e-01 -5.5668606178041973e+00 -1.2080651764505147e+01 -4.0608496138589807e+00 1 0 -1
2195 732 2 4.0999999999999998e-01 -3.6930849051515047e-01 -1.4439953612705015e+01 -1.0812861421339903e+00 -2 3 2
951 317 2 4.0999999999999998e-01 -4.6647478618583946e+00 -6.0402963971318311e+00 -3.2180070134986707e+00 0 1 1
1300 434 1 -8.1999999999999995e-01 -3.7458592929914669e+00 -1.3106983960284104e+01 -1.1479510301302209e+00 -3 0 1
2324 775 2 4.0999999999999998e-01 -2.7389547079350223e+00 -8.8251269836720834e+00 -2.9828449032360389e+00 0 3 -1
1301 434 2 4.0999999999999998e-01 -3.1076161480539781e+00 -1.3672802256008104e+01 -6.2596928463969981e-01 -3 0 1
625 209 1 -8.1999999999999995e-01 -2.8003209688385180e+00 -6.7460957219989695e+00 -6.0361565030386686e+00 -4 2 -3
2372 791 2 4.0999999999999998e-01 -5.3311269192118687e+00 -1.2954225690163453e+01 -4.4866050918415894e+00 1 0 -1
2041 681 1 -8.1999999999999995e-01 -1.8109379214044363e+00 -1.2306073026979803e+01 -3.1631535159539030e+00 1 4 0
483 161 2 4.0999999999999998e-01 -2.5122769782232375e+00 -1.0062989211045238e+01 -6.6234070055909182e+00 -2 2 -3
1576 526 1 -8.1999999999999995e-01 -6.2416037891958176e-01 -8.5795112616158704e+00 -6.8966870396864959e+00 -2 3 -3
2023 675 1 -8.1999999999999995e-01 -1.8512278516681420e+00 -1.4573612860898665e+01 -4.4642455532701284e+00 -2 -1 2
1577 526 2 4.0999999999999998e-01 -3.5832401246352852e-01 -9.5288655316597168e+00 -6.7292743819967225e+00 -2 3 -3
610 204 1 -8.1999999999999995e-01 -2.0579883577782248e+00 -1.0013073877096080e+01 -8.8435689051456379e-02 0 0 2
620 207 2 4.0999999999999998e-01 -6.5912197375910253e-02 -9.6494022298438011e+00 -3.2615075244810150e+00 3 3 2
611 204 2 4.0999999999999998e-01 -1.4031338699046731e+00 -1.0765874944290026e+01 -1.5496114864810551e-01 0 0 2
2196 732 2 4.0999999999999998e-01 -7.7731960871346928e-01 -1.3183412554457007e+01 -1.2150653155955027e-01 -2 3 2
14 5 2 4.0999999999999998e-01 -4.7136007098255366e+00 -6.5617702613658526e+00 -7.4036736580053351e+00 1 2 -1
1160 387 2 4.0999999999999998e-01 -7.7328891237810344e+00 -1.1527146339045771e+01 6.5257199546808256e+00 4 0 0
488 163 2 4.0999999999999998e-01 -9.2730833320847896e+00 -1.0045251264891593e+01 7.4112058290749854e+00 1 0 -1
487 163 1 -8.1999999999999995e-01 -8.6383116332930925e+00 -9.8905889069600796e+00 6.6541628726380697e+00 1 0 -1
810 270 2 4.0999999999999998e-01 -1.2567311907488959e+01 -1.2256005741990830e+01 1.9995064103542060e+00 2 2 -2
1514 505 2 4.0999999999999998e-01 -9.0483009572021995e+00 -1.2955812550897576e+01 5.8158136367092563e+00 2 1 -2
397 133 1 -8.1999999999999995e-01 -1.1581727286965434e+01 -1.0922596527853234e+01 2.3127516510782886e+00 0 3 -1
489 163 2 4.0999999999999998e-01 -8.5641375752178881e+00 -8.9093010418599690e+00 6.4765623859258472e+00 1 0 -1
1515 505 2 4.0999999999999998e-01 -1.0112075163266296e+01 -1.1821052795049372e+01 5.3185714258550103e+00 2 1 -2
2524 842 1 -8.1999999999999995e-01 -1.0404955048653228e+01 -5.9436597934222544e+00 3.6860034895465343e+00 0 3 -3
1386 462 2 4.0999999999999998e-01 -8.8317478449871807e+00 -9.1938772345447823e+00 3.6120390634265203e+00 1 3 -2
1384 462 1 -8.1999999999999995e-01 -8.4721745834698687e+00 -1.0076357653882265e+01 3.9151976882329915e+00 1 3 -2
1634 545 2 4.0999999999999998e-01 -1.3554608365760135e+01 -1.0133232464349845e+01 4.2099855218993287e+00 0 2 0
398 133 2 4.0999999999999998e-01 -1.0747424597224997e+01 -1.0467900171233261e+01 2.0010471093537898e+00 0 3 -1
1131 377 2 4.0999999999999998e-01 -1.3481796657999761e+01 -1.4942964188046441e+01 4.2460105354618225e+00 2 3 3
399 133 2 4.0999999999999998e-01 -1.1884008088844618e+01 -1.0511447648365557e+01 3.1727239964432687e+00 0 3 -1
1385 462 2 4.0999999999999998e-01 -8.3644203004458539e+00 -1.0068626924846761e+01 4.9093298997010404e+00 1 3 -2
2526 842 2 4.0999999999999998e-01 -1.1273412693373334e+01 -6.2719131716790315e+00 4.0574877320804550e+00 0 3 -3
1472 491 2 4.0999999999999998e-01 -9.5932668029729058e+00 -7.0738908240969698e+00 2.9027401799996095e+00 -2 3 -4
2525 842 2 4.0999999999999998e-01 -9.9900015821966228e+00 -5.2992507587744573e+00 4.3282807926171625e+00 0 3 -3
1513 505 1 -8.1999999999999995e-01 -1.0018223264633079e+01 -1.2733016158135641e+01 5.7179260601015454e+00 2 1 -2
524 175 2 4.0999999999999998e-01 -7.7299048008104219e+00 -8.0454860609089849e+00 1.4255791358086949e+00 -1 1 -1
2343 781 2 4.0999999999999998e-01 -1.0927212097669107e+01 -1.3677747733601974e+01 6.9159328963671651e+00 3 0 -2
1471 491 1 -8.1999999999999995e-01 -9.0567604468497649e+00 -7.7261930043451548e+00 2.3673596500595568e+00 -2 3 -4
2197 733 1 -8.1999999999999995e-01 -1.0006037830142791e+01 -1.4422217083860668e+01 3.4609707278537218e+00 2 0 1
1118 373 2 4.0999999999999998e-01 -1.2541432070573972e+01 -8.4219013774040281e+00 1.1115920287317191e+00 -3 -1 0
1722 574 2 4.0999999999999998e-01 -1.2706042749135095e+01 -6.7316741245489506e+00 5.7769098715369491e+00 0 2 -2
1727 576 2 4.0999999999999998e-01 -8.0194738679792472e+00 -1.1816632239639121e+01 3.0125077308151216e+00 -2 1 -6
1728 576 2 4.0999999999999998e-01 -8.8797244078381077e+00 -1.2053661771384686e+01 1.6449071445131818e+00 -2 1 -6
592 198 1 -8.1999999999999995e-01 -1.2256250828710627e+01 -1.0306798337618311e+01 7.2891641959809466e+00 -1 0 -1
1117 373 1 -8.1999999999999995e-01 -1.3392897373200697e+01 -8.0394926886890410e+00 1.4703954888381414e+00 -3 -1 0
808 270 1 -8.1999999999999995e-01 -1.2930598732702233e+01 -1.2900684082633422e+01 1.3269128542515229e+00 2 2 -2
1720 574 1 -8.1999999999999995e-01 -1.2920167387085192e+01 -7.0053819499965222e+00 4.8392509515773998e+00 0 2 -2
1473 491 2 4.0999999999999998e-01 -9.5708654340562287e+00 -7.9902099191260358e+00 1.5512955500319574e+00 -2 3 -4
966 322 2 4.0999999999999998e-01 -1.0705669450191785e+01 -9.4527939344669036e+00 2.5977345503176075e-01 1 1 2
1352 451 2 4.0999999999999998e-01 -1.3440891884387353e+01 -5.2480101282026528e+00 7.6309520741352088e-01 -3 -1 0
2579 860 2 4.0999999999999998e-01 -7.6455031251035264e+00 -1.4161643455830690e+01 7.0262213359154604e+00 -2 2 0
2124 708 2 4.0999999999999998e-01 -1.1699965554497586e+01 -9.8864863344949416e+00 5.7012637915279623e+00 1 4 -3
1351 451 1 -8.1999999999999995e-01 -1.4115024460804337e+01 -5.7756562821348467e+00 2.4627386501211213e-01 -3 -1 0
1721 574 2 4.0999999999999998e-01 -1.3912034141006298e+01 -7.0679773873890843e+00 4.7285635061346891e+00 0 2 -2
2122 708 1 -8.1999999999999995e-01 -1.1603534911326312e+01 -9.6644549996438442e+00 4.7310201539893679e+00 1 4 -3
2123 708 2 4.0999999999999998e-01 -1.1935736450045031e+01 -8.7356279415113391e+00 4.5670317323616967e+00 1 4 -3
2199 733 2 4.0999999999999998e-01 -9.4400314031365706e+00 -1.3955514602604481e+01 2.7814156351872779e+00 2 0 1
2395 799 1 -8.1999999999999995e-01 -7.5752430117943641e+00 -7.6020290640059853e+00 5.9454308328967809e+00 2 3 0
1635 545 2 4.0999999999999998e-01 -1.3822521668435439e+01 -9.1500039213788327e+00 2.9340430122454020e+00 0 2 0
2198 733 2 4.0999999999999998e-01 -1.0237661612399584e+01 -1.3785092271736454e+01 4.1960842802837792e+00 2 0 1
1971 657 2 4.0999999999999998e-01 -9.3172499897427876e+00 -5.4695228243245104e+00 6.1689142531694738e+00 0 1 -2
2342 781 2 4.0999999999999998e-01 -1.1933818644843660e+01 -1.4921572254139841e+01 7.2417992948817211e+00 3 0 -2
1726 576 1 -8.1999999999999995e-01 -8.2436510453238832e+00 -1.2473294531123345e+01 2.2924321828192102e+00 -2 1 -6
1767 589 2 4.0999999999999998e-01 -1.4107930459851186e+01 -1.3712346118816768e+01 2.6149177562709038e+00 0 1 -2