2611
Atoms. Timestep: 8000000
O 11.7394 1.87614 -11.0488
H 12.1154 2.79442 -11.1728
H 11.0793 1.68534 -11.7753
O -9.7184 2.88094 0.41905
H -8.77738 2.54944 0.351739
H -9.91724 3.12941 1.36702
O 4.72134 12.3005 9.5332
H 4.72649 12.8156 8.67614
H 3.89563 11.7383 9.57924
O 9.6299 9.32375 0.106317
H 10.0383 9.594 -0.765524
H 9.40556 10.1411 0.636883
O -1.54196 -6.9998 -7.50669
H -0.716855 -6.81241 -6.97376
H -1.35308 -6.85006 -8.47717
O -10.9467 9.84386 8.46201
H -10.7247 9.77741 7.48926
H -10.5071 9.09392 8.9562
O -0.558306 9.23233 -11.4975
H -1.10038 9.10285 -12.3277
H -0.106733 8.37318 -11.2569
O -2.31489 -11.2536 2.74963
H -2.28516 -11.4645 3.72666
H -1.51363 -10.7092 2.50162
O -4.22218 13.6618 -6.8675
H -4.96654 13.6648 -6.19979
H -3.80248 14.5687 -6.90287
O -14.0454 10.2451 -1.11597
H -14.245 9.34385 -0.731424
H -14.8901 10.6554 -1.45952
O 0.316428 10.472 3.7416
H 0.891446 11.2878 3.8028
H 0.788497 9.77077 3.20738
O 10.9836 6.94525 -3.47272
H 10.0691 7.31102 -3.64547
H 11.0581 6.03151 -3.87206
O 6.39425 13.1531 3.17381
H 5.90687 12.7513 3.949
H 7.04505 12.4878 2.80814
O -8.17945 -6.74932 13.6979
H -7.96793 -7.62577 14.1304
H -9.17002 -6.65854 13.5957
O 6.01738 -9.37895 5.29524
H 6.29919 -9.78159 6.1661
H 5.16553 -9.80528 4.99107
O -13.7771 2.91988 -8.76604
H -14.1062 3.22344 -7.87191
H -13.8512 3.67159 -9.42129
O -10.231 3.01316 10.1045
H -9.88388 2.26287 9.54188
H -10.4146 2.67924 11.029
O -13.2893 -14.8617 11.9407
H -13.5747 -13.9542 12.2489
H -13.1218 -14.8416 10.9551
O 5.597 -7.89649 -13.4213
H 4.66429 -7.7118 -13.7309
H 5.57022 -8.31269 -12.5124
O 8.47513 -10.9675 11.9273
H 8.13624 -10.3888 12.669
H 8.895 -10.395 11.2231
O 13.3907 -14.8555 -1.31125
H 14.199 14.7719 -0.843151
H 13.4394 14.8987 -2.2831
O -0.263502 -12.359 12.1109
H 0.450866 -13.0586 12.1265
H 0.0746156 -11.5479 11.6337
O 9.86935 10.7041 -5.98146
H 9.94178 11.4214 -6.67439
H 9.10361 10.9065 -5.37104
O -3.29895 -14.3474 -9.98447
H -2.9295 14.7802 -10.3438
H -2.887 -13.577 -10.4709
O 13.9649 4.53064 -6.76947
H 13.5829 3.81024 -7.34823
H 13.3725 5.33543 -6.80423
O -1.73225 6.55861 6.67295
H -1.72848 5.66719 6.21988
H -1.06878 6.55505 7.4211
O 1.60271 7.98854 8.21215
H 1.11774 7.12616 8.35721
H 2.00674 7.99394 7.29746
O 4.83574 -3.5189 0.71153
H 5.58175 -4.18476 0.716928
H 4.03495 -3.91915 0.266043
O 4.58607 -2.95265 -12.2673
H 5.21888 -2.41605 -12.8254
H 5.09437 -3.65517 -11.7693
O 7.10559 -10.6224 1.56578
H 7.60448 -11.4244 1.23757
H 7.38299 -9.8188 1.03921
O 13.5395 5.13003 -14.5099
H 13.4596 5.63094 14.6129
H 13.7435 4.16979 -14.7002
O 3.99485 1.2295 7.91827
H 4.96423 1.40069 8.09416
H 3.50873 1.14197 8.78772
O -12.993 12.343 8.46299
H -12.5883 13.0668 9.02176
H -12.295 11.6613 8.24396
O -13.4603 -2.39886 3.87257
H -14.0204 -3.21656 4.00538
H -13.5046 -2.11661 2.91429
O -11.4161 1.23601 -1.39213
H -10.6298 0.645471 -1.57339
H -11.216 1.82703 -0.610745
O -9.61935 -4.79071 9.37647
H -10.1377 -4.07761 9.84839
H -9.44701 -4.5083 8.43282
O 5.31181 -12.0913 -7.19563
H 5.45732 -11.9656 -8.17694
H 4.38558 -12.4332 -7.03713
O 1.25219 -3.60485 3.90584
H 1.62377 -4.53299 3.88564
H 0.978861 -3.33508 2.98256
O -0.297476 -3.6039 -7.99574
H 0.656675 -3.36874 -7.81074
H -0.65029 -3.01663 -8.72413
O -6.02645 -10.3387 13.5818
H -6.8181 -10.8823 13.8606
H -6.06585 -10.1735 12.5964
O -14.2698 9.29278 12.8617
H -14.4308 9.00856 11.9166
H 14.8456 9.54644 13.2861
O 9.28499 -14.4264 14.2659
H 8.41825 -13.9815 14.491
H 9.66678 -14.0135 13.4391
O -12.7995 -8.70993 6.08009
H -13.0049 -8.04578 5.36133
H -12.2941 -8.25916 6.81585
O 4.19385 3.08032 0.953476
H 5.15251 3.24253 0.719853
H 4.04984 2.10337 1.11085
O 2.26879 3.50427 12.2358
H 2.53595 2.92962 13.0093
H 2.71384 4.39632 12.3139
O 4.20812 -2.42178 3.27384
H 3.22299 -2.58859 3.23363
H 4.62786 -2.69396 2.40801
O 0.0505836 -10.0452 14.0732
H 1.00546 -9.83685 14.2847
H -0.134037 -11.0064 14.278
O 1.04369 8.8321 -0.415578
H 1.12514 9.82078 -0.541302
H 0.934658 8.62767 0.557176
O -7.80393 10.4764 8.22194
H -7.58617 9.54887 8.52561
H -8.6285 10.7951 8.68928
O 3.81976 0.855199 -3.43121
H 3.1518 0.513613 -4.09232
H 3.38561 1.5342 -2.83926
O 6.88083 1.38005 7.89281
H 6.58769 1.37933 6.93678
H 7.05707 2.31947 8.18668
O 7.72817 4.39802 10.87
H 8.19919 4.1344 10.0282
H 7.83744 3.67606 11.5532
O -1.0864 0.733317 10.909
H -0.779909 1.53568 11.421
H -1.08977 0.943168 9.9313
O 6.10354 -6.03198 11.9317
H 5.55345 -5.21892 12.1221
H 6.87289 -5.78354 11.3432
O 10.5023 -14.1021 9.70137
H 10.8223 -13.5984 8.89899
H 10.8746 14.9545 9.6828
O 9.14446 -0.778896 6.68868
H 9.21871 -0.43389 5.75306
H 10.0497 -0.787705 7.11348
O 3.45467 3.86225 -3.0468
H 4.13082 4.59817 -3.0127
H 2.71518 4.05898 -2.40307
O 5.91921 8.36751 7.41663
H 6.56047 7.67799 7.75319
H 5.8214 9.09261 8.09824
O 7.38877 -7.07579 7.90109
H 6.50641 -6.66887 8.13728
H 7.55626 -6.96319 6.9217
O 0.962294 10.9451 12.5597
H 0.0912542 11.3883 12.3481
H 1.60452 11.0965 11.8083
O -10.8586 -5.33014 -1.98993
H -10.3301 -5.63075 -1.1961
H -10.2987 -5.41365 -2.81422
O 0.109513 5.79148 8.55626
H 0.696203 5.07636 8.17637
H -0.436304 5.41273 9.30363
O 4.81384 14.5038 -9.50762
H 5.10978 13.8361 -10.1906
H 5.61575 14.924 -9.08303
O -2.03989 3.42502 14.77
H -1.36667 3.55758 14.0426
H -1.85773 4.06789 -14.4706
O -4.06324 -7.492 -2.80856
H -3.35221 -7.13658 -3.41523
H -3.73682 -8.32711 -2.36587
O -8.94337 -7.51484 -10.8615
H -9.17462 -7.12734 -11.7538
H -9.34992 -6.955 -10.1395
O 4.648 13.898 14.0894
H 4.69328 14.104 13.1119
H 4.39198 12.9398 14.2166
O -9.28172 -5.77357 -3.9494
H -8.50954 -5.5516 -3.35408
H -9.06795 -6.59314 -4.48093
O -12.5409 5.43972 12.9939
H -12.3724 6.06907 12.2353
H -12.7118 5.9625 13.829
O -12.1958 -6.2448 -10.5689
H -12.9005 -6.15565 -9.86503
H -11.3001 -6.33642 -10.1339
O -1.63087 4.80603 10.3146
H -2.44434 4.40986 9.88882
H -1.77936 5.78216 10.4728
O -3.05423 11.1085 9.96917
H -3.13803 12.0057 9.53562
H -3.96534 10.7259 10.1223
O -10.9644 -2.52451 -6.60523
H -9.99614 -2.60747 -6.36961
H -11.284 -1.60368 -6.382
O 7.8821 -14.6 3.04028
H 7.31839 14.5587 3.05531
H 7.30275 -13.7983 3.18686
O -2.88045 -9.19206 -10.2566
H -3.29602 -9.81574 -10.9186
H -3.56233 -8.92683 -9.57497
O 13.3358 14.3165 -13.7891
H 14.3139 14.3741 -13.5893
H 13.1747 13.5921 -14.4594
O -2.82792 13.0639 -2.44652
H -2.85397 13.7156 -1.68852
H -3.75964 12.8779 -2.75832
O 8.83223 5.00429 5.78185
H 8.15787 4.32002 5.5045
H 8.92614 5.69098 5.06104
O 12.7414 -3.82113 -5.59818
H 13.3235 -4.62382 -5.46832
H 13.3068 -2.99633 -5.60032
O -14.4882 10.8127 -10.8487
H 14.6668 10.2856 -11.0332
H -14.5656 11.7151 -11.2726
O -11.1565 10.5836 -7.45069
H -10.1585 10.5528 -7.50418
H -11.539 10.6157 -8.37408
O 0.0444702 7.27874 -14.4779
H -0.406942 6.78973 14.7603
H 1.03488 7.16503 -14.5559
O 11.0856 12.2033 3.39839
H 11.8968 11.6926 3.11373
H 11.3663 13.0309 3.88433
O -8.0429 1.13096 2.19101
H -8.63983 1.87842 2.4824
H -7.24336 1.09 2.79016
O -13.8846 5.52966 -13.332
H -14.841 5.44798 -13.6123
H -13.4177 6.18395 -13.9268
O -10.2997 -4.12945 1.66728
H -10.1813 -5.01637 1.22088
H -9.52966 -3.96039 2.28236
O 1.15295 -8.50149 10.1039
H 1.06641 -8.16605 9.16582
H 2.09345 -8.37305 10.4183
O 1.63924 -13.4762 7.34463
H 2.34205 -13.6866 6.66511
H 2.0456 -12.9525 8.09327
O -1.78616 12.144 5.30991
H -2.04371 12.8832 4.68768
H -1.16266 11.5172 4.84277
O -13.6225 -7.24304 9.90622
H -13.9247 -6.82766 9.04829
H -13.7247 -6.5829 10.6503
O 8.27951 -7.55186 -2.13668
H 8.40316 -6.87458 -2.8619
H 9.17375 -7.84771 -1.80093
O -6.77005 -1.63773 10.222
H -5.79704 -1.78478 10.3996
H -7.30716 -2.01227 10.9778
O -0.541722 -13.2333 9.12728
H 0.198466 -13.4731 8.49916
H -0.665927 -12.2411 9.13272
O -5.5251 2.84243 11.9856
H -5.81348 3.57389 12.6034
H -5.04002 2.13914 12.5052
O -9.79514 7.51154 9.79123
H -10.6503 7.55034 10.3081
H -9.07347 7.97466 10.3057
O 8.01048 4.01808 -12.0096
H 8.25506 3.05163 -11.9317
H 7.23965 4.21664 -11.4044
O 2.38349 0.00819563 -12.3274
H 2.25867 -0.0537047 -11.3372
H 3.22019 0.518266 -12.5267
O 13.392 8.85709 -11.5769
H 12.9793 8.02228 -11.2126
H 13.71 8.69177 -12.5104
O 2.72317 11.9418 0.661034
H 2.24708 11.6272 -0.160115
H 3.27385 11.195 1.03377
O -4.08149 -10.6593 0.691551
H -3.61856 -11.1207 1.44829
H -5.06484 -10.6298 0.87067
O -0.771228 9.63988 -5.13279
H -0.913361 10.567 -4.78618
H -1.64396 9.26222 -5.44205
O -4.74153 13.5295 3.57611
H -4.86046 12.5411 3.48237
H -5.31349 13.9993 2.90373
O 0.8482 7.50338 -7.50479
H -0.0970614 7.37986 -7.20288
H 0.950911 8.40875 -7.91673
O -13.7563 9.5161 -13.8302
H -13.9594 10.495 -13.8519
H -14.6108 8.99762 -13.8618
O -12.5899 7.19248 10.957
H -12.8936 6.4829 10.3213
H -13.1784 7.99578 10.8658
O -10.8141 13.7625 -9.96886
H -11.2201 14.5789 -10.3795
H -11.467 13.0065 -10.0148
O -5.52184 -3.76416 12.7032
H -6.04401 -4.52422 12.3165
H -5.12342 -3.22269 11.9629
O 2.02067 -6.68479 -3.74898
H 2.11853 -7.52013 -3.2081
H 1.07661 -6.60322 -4.06839
O -5.09742 -2.17443 -3.27904
H -4.81691 -2.98326 -2.76228
H -6.09239 -2.17114 -3.37876
O 14.7364 -9.72036 7.13889
H 14.178 -8.9756 7.50413
H -14.3926 -9.34935 6.77799
O 6.77554 1.73762 -8.76596
H 7.53278 1.57923 -8.13238
H 5.92465 1.83706 -8.25018
O 14.2673 -1.2365 5.6455
H 13.9519 -2.1854 5.64908
H 14.2113 -0.870146 4.71675
O 13.0272 -13.4797 14.0666
H 12.8949 -14.3168 14.5974
H 12.2841 -13.384 13.4044
O 13.0588 -14.2939 4.02083
H 12.8183 14.8438 4.49503
H 12.4814 -14.1898 3.21104
O -0.77914 11.9953 14.7584
H -1.24623 11.4634 14.0521
H 0.05294 12.3978 14.377
O 3.36826 -2.43126 -9.91665
H 3.78887 -2.64145 -10.7992
H 3.08387 -1.47269 -9.90284
O -10.8552 -0.909515 8.41825
H -11.1915 -0.85127 7.47833
H -10.2434 -0.14011 8.60164
O 9.89895 -5.65434 13.1581
H 9.56907 -6.02458 12.2897
H 9.13097 -5.55293 13.7904
O 7.40013 -14.9786 -8.73392
H 8.31526 -14.9716 -9.13691
H 7.44151 -14.607 -7.80649
O 2.89727 10.4591 9.29257
H 2.02773 10.9067 9.50114
H 2.72249 9.59402 8.82253
O -11.5033 9.60406 -2.51463
H -11.4102 8.85199 -3.16705
H -12.4697 9.8404 -2.41411
O 7.20824 13.0795 -13.4386
H 7.47614 12.446 -14.1644
H 6.8828 13.9333 -13.8448
O -10.4987 14.0924 10.5604
H -10.9157 13.2597 10.9248
H -11.1676 14.5833 10.0022
O 6.3869 1.71981 -3.95628
H 5.39887 1.64933 -3.81928
H 6.71594 0.905751 -4.43479
O 12.661 12.8306 -6.97965
H 12.6325 11.8782 -6.67643
H 11.7887 13.0711 -7.40536
O 6.88801 -2.06191 -13.3643
H 7.45846 -2.77546 -12.9577
H 7.18854 -1.16686 -13.035
O -6.46958 3.91344 -13.9697
H -6.93114 3.62836 -13.1297
H -5.53042 3.5701 -13.967
O -14.3745 -7.10048 -12.0223
H -13.4575 -6.9413 -11.6566
H 14.9648 -7.21258 -11.2667
O 5.17584 0.191648 4.88527
H 4.25921 0.59125 4.88039
H 5.19501 -0.60582 4.28228
O 4.3153 -9.29919 -11.3071
H 3.8641 -9.96538 -11.9009
H 3.62881 -8.82579 -10.7553
O 10.5924 -12.8055 -7.40344
H 10.2519 -13.6639 -7.01988
H 11.46 -12.5666 -6.9674
O -7.00092 -13.0136 11.0629
H -7.66261 -12.6948 11.7415
H -7.39795 -12.9365 10.1484
O -11.6437 -11.1927 5.73508
H -12.0735 -10.3135 5.94022
H -12.3355 -11.9145 5.75434
O -9.2378 2.78691 -13.9294
H -8.43506 2.79985 -14.5255
H -8.95094 2.92226 -12.9811
O -10.636 -2.89997 -0.610373
H -10.6125 -3.17252 0.351442
H -10.6523 -3.71621 -1.1878
O -3.76341 14.844 -0.224611
H -4.37063 14.2511 0.304199
H -3.11709 -14.6907 0.391687
O 9.55743 14.968 -5.71897
H 8.62811 -14.6658 -5.83436
H 9.51919 14.0128 -5.42558
O 12.4223 7.93944 1.05143
H 11.7525 8.59823 1.39399
H 11.9622 7.26782 0.470711
O 5.74076 -5.21613 8.51316
H 4.99016 -5.18947 9.17333
H 6.02729 -4.28294 8.2964
O -11.2924 -2.81028 10.2012
H -11.0896 -2.14457 9.48313
H -12.0587 -3.38569 9.91546
O 1.13854 -6.38132 -11.8812
H 0.349301 -6.36787 -11.2674
H 1.37081 -5.44546 -12.1461
O -9.28331 -3.10169 -10.019
H -8.35894 -3.01792 -9.64693
H -9.35683 -2.55734 -10.8546
O -9.08009 -12.6234 8.90058
H -9.50395 -13.4635 8.56213
H -9.78881 -12.008 9.24542
O 2.30848 -3.09358 -7.40948
H 2.49997 -4.00235 -7.03881
H 2.75663 -2.99478 -8.29792
O 14.001 0.0255992 -11.4706
H 14.5957 0.454114 -12.1509
H 13.3171 0.686662 -11.1621
O 2.92391 5.43548 0.213625
H 3.65268 4.75911 0.320243
H 3.32297 6.35132 0.169913
O 13.5656 -6.33343 -2.43156
H 14.1943 -6.71823 -3.1072
H 13.5469 -6.91976 -1.62174
O -7.28426 -9.60622 -12.754
H -7.39837 -9.48999 -11.7674
H -7.71419 -10.4623 -13.0407
O -12.0785 -1.23931 -11.3429
H -11.5905 -0.822562 -12.1098
H -12.1615 -0.574963 -10.6002
O 8.0213 2.8269 -0.708755
H 7.64468 3.54262 -0.12069
H 7.39521 2.04742 -0.727779
O 10.3702 -13.1713 12.3877
H 9.69625 -12.4347 12.4431
H 10.437 -13.4915 11.4427
O -7.25795 4.72859 -6.41918
H -6.74587 4.21051 -7.10423
H -6.63979 5.35489 -5.94425
O -13.9764 -8.44345 -14.4426
H -13.2612 -8.15109 14.9071
H -13.9728 -7.84787 -13.6393
O -6.2413 -14.953 -9.80683
H -5.46538 -14.6378 -10.3532
H -7.08036 -14.8791 -10.3458
O 8.52363 -1.67476 11.5211
H 8.01228 -2.25626 12.1538
H 7.93169 -0.939039 11.1921
O -8.13566 -11.844 -5.58149
H -8.49964 -12.4573 -4.88055
H -7.25759 -12.1943 -5.90747
O 9.50986 0.686734 4.35368
H 10.4477 0.941681 4.11835
H 8.99509 0.500591 3.51685
O -0.754421 -6.79946 3.713
H 0.0582501 -6.36254 4.09848
H -1.2747 -7.23997 4.44456
O -13.9178 0.633429 6.47203
H -13.0771 0.14999 6.22817
H -14.708 0.107626 6.15719
O 11.0282 14.3879 -0.307528
H 10.8763 14.7833 0.598294
H 11.9917 14.4854 -0.556506
O -5.77712 -10.8157 -10.0111
H -6.51599 -11.4067 -10.3346
H -4.95544 -10.9803 -10.5567
O 11.1722 -11.6354 -14.0276
H 11.6955 -12.2757 -13.4655
H 11.7802 -10.92 -14.3717
O -9.04512 -9.9725 5.37274
H -9.98122 -10.2729 5.55556
H -8.82536 -9.19182 5.95769
O -3.99008 -4.98248 0.990799
H -3.5006 -5.82789 1.20442
H -4.97524 -5.14447 1.04687
O 11.3878 5.82669 -0.993686
H 11.3356 6.32673 -1.85807
H 11.9142 4.9868 -1.12579
O 10.1512 -2.22695 -14.5189
H 10.2567 -2.98317 -13.8732
H 10.5927 -2.46359 14.6002
O -0.882885 -9.46658 -13.3988
H -1.49581 -8.72121 -13.1368
H -1.13636 -9.80337 -14.3056
O 12.7195 -12.0874 -5.88236
H 13.5731 -12.5983 -5.98345
H 12.8896 -11.117 -6.05385
O -1.14884 -1.90677 7.46414
H -0.301885 -1.86352 6.93431
H -0.977837 -2.38078 8.32785
O 5.09667 3.473 5.5035
H 4.23995 2.99101 5.32012
H 5.86685 2.90829 5.2071
O -13.4755 2.05969 1.03569
H -14.2411 1.44489 0.84649
H -13.6127 2.92244 0.549131
O 9.82576 5.79504 -9.841
H 9.35739 5.36251 -10.6114
H 9.33928 6.62907 -9.58087
O 4.28388 2.32656 -7.98709
H 4.20321 3.07776 -8.64216
H 3.85133 2.58868 -7.12446
O -11.6266 9.20379 12.9581
H -12.5992 8.9767 13.0083
H -11.0916 8.47433 13.3842
O -9.75303 -6.67189 0.322099
H -10.2161 -7.36702 0.871895
H -9.10847 -7.11471 -0.301098
O 5.15832 -7.04012 -9.1866
H 5.71864 -7.79365 -8.84285
H 5.32465 -6.22263 -8.63527
O 6.57207 6.71806 3.27035
H 5.88019 6.56309 3.97548
H 6.53515 7.67144 2.97099
O -12.9864 -5.17236 1.67842
H -12.0113 -5.08532 1.8824
H -13.1725 -4.7928 0.772211
O -7.03458 -5.29852 -2.557
H -6.98556 -4.49991 -1.95721
H -6.41001 -5.17507 -3.3281
O -4.26107 10.7385 2.28636
H -3.40635 11.0411 1.8647
H -4.69645 10.0533 1.70252
O 13.0082 -9.61059 -7.10883
H 12.7701 -9.72385 -8.07341
H 13.9134 -9.19191 -7.03587
O 12.876 -6.09583 10.7763
H 13.1934 -5.88466 11.7007
H 12.4162 -5.29584 10.3909
O 3.00928 -13.8463 -5.98858
H 3.71525 -13.9888 -5.29488
H 2.43433 -14.662 -6.05151
O -10.1178 6.75029 -10.3827
H -10.1172 6.48563 -9.41843
H -9.63542 6.05759 -10.9188
O -4.85228 -1.0868 4.23912
H -4.79507 -1.36725 3.281
H -4.85221 -1.89764 4.82432
O -0.93842 -8.79563 11.7062
H -0.207074 -8.44997 11.1184
H -0.541583 -9.18965 12.5352
O -13.3017 3.62606 -5.93007
H -12.5652 3.2154 -5.39267
H -14.1751 3.21735 -5.66549
O 4.57434 -0.931603 11.412
H 3.78273 -0.431257 11.0614
H 5.39855 -0.629165 10.9333
O -1.80358 -14.8848 6.90074
H -1.23941 -14.9577 6.07835
H -1.38458 -14.236 7.53593
O -4.41658 -9.6767 -5.91494
H -4.93153 -9.07945 -5.30009
H -5.05188 -10.2506 -6.43164
O -11.3525 2.19634 -4.19391
H -11.3953 2.11743 -3.19799
H -10.5182 2.68219 -4.45421
O 0.952761 -0.96812 11.1475
H 1.17375 -1.4906 11.9709
H 0.201849 -0.337761 11.3442
O -5.51666 7.92108 6.27526
H -5.35063 8.82585 5.88315
H -4.84532 7.74108 6.99417
O -11.1046 7.60706 -0.337475
H -11.4531 8.3481 -0.91135
H -11.0108 7.93056 0.604057
O 11.9414 9.63861 8.1185
H 11.1133 9.07827 8.10015
H 12.7363 9.06524 7.92031
O 11.6399 -11.6987 2.80619
H 11.5789 -11.3271 1.87985
H 12.3769 -11.2392 3.30175
O 8.16763 9.66817 11.3068
H 7.96685 9.05077 12.0674
H 7.43832 9.60591 10.6256
O -13.9155 -12.8642 5.79205
H -14.3484 -13.6257 5.30975
H -14.4676 -12.617 6.58832
O 8.73417 12.9504 -0.360543
H 9.64107 13.3424 -0.51484
H 8.17759 13.0639 -1.1835
O 9.36252 6.73212 3.90445
H 8.47386 6.75345 3.44646
H 9.78948 7.63444 3.84576
O -8.90993 3.32968 -4.79399
H -8.1831 3.73296 -5.34988
H -8.6955 3.45241 -3.82503
O 0.565932 -4.28868 7.27883
H 0.409033 -3.80365 6.41856
H 1.07804 -3.70034 7.90456
O 4.20452 -11.2797 14.1207
H 4.20465 -10.2797 14.1215
H 5.12147 -11.6133 14.3394
O -4.26416 -8.54105 2.57995
H -4.2269 -9.28966 1.91805
H -3.59406 -7.84199 2.33056
O -0.810579 -8.54437 -3.41298
H -1.36129 -7.92328 -3.97055
H -1.31368 -9.39617 -3.26716
O 13.7517 -6.18992 -7.05816
H 14.2707 -6.98939 -6.75576
H 12.7739 -6.39721 -7.03016
O 2.45051 -12.937 -2.47023
H 3.1965 -12.8387 -1.81162
H 2.44468 -13.8698 -2.8305
O -13.4926 -11.1927 -14.3106
H -13.6349 -10.2512 -14.6159
H -13.0863 -11.1891 -13.3969
O -2.32666 -11.1817 -6.66242
H -3.03837 -10.6471 -6.20673
H -1.93667 -10.647 -7.41201
O -3.94391 -10.1329 8.18947
H -4.84839 -10.5496 8.2796
H -3.68253 -10.1091 7.22457
O -5.0783 -3.28239 5.80319
H -5.41946 -4.17794 5.51769
H -4.52419 -3.38468 6.62929
O -8.98964 12.4458 -4.59744
H -9.93523 12.5326 -4.91089
H -8.96792 11.9256 -3.74372
O 6.77174 -7.12523 4.13616
H 6.50089 -7.94858 4.63482
H 7.19536 -6.47676 4.76859
O 13.61 3.40256 1.60965
H 13.7096 4.31609 2.00392
H 13.9376 3.40974 0.664907
O -14.464 -8.6188 -3.83716
H -14.1859 -9.56532 -4.00062
H -13.996 -8.26937 -3.02549
O -0.288532 2.96548 12.1969
H 0.695215 3.08569 12.0637
H -0.784928 3.48606 11.5022
O 9.91382 12.6805 -7.77091
H 9.60323 13.6221 -7.90076
H 9.47794 12.0892 -8.44936
O 4.40246 7.32296 -7.61711
H 4.52562 7.74115 -8.51705
H 3.43843 7.37182 -7.35599
O 0.763335 -4.6169 14.9344
H -0.165057 -4.98646 14.9723
H 1.07697 -4.40781 -14.124
O -4.7091 -2.29474 1.49973
H -4.35567 -3.23012 1.49083
H -4.50144 -1.85166 0.627678
O -2.31544 -12.8653 -1.3514
H -3.03153 -13.5165 -1.60255
H -2.65374 -12.259 -0.631736
O -14.2393 -11.2152 -2.19454
H -14.6844 -10.5909 -1.55255
H -14.8556 -11.9748 -2.40236
O -14.7556 1.12715 11.7409
H -14.4072 1.86757 12.3156
H -14.1559 0.331195 11.8229
O 10.1104 1.08051 0.0128552
H 10.5984 1.6108 0.706152
H 9.3679 1.63203 -0.367148
O -4.19311 -4.49824 -2.08981
H -4.34525 -5.38874 -2.51852
H -3.40235 -4.55257 -1.48016
O -13.02 -11.1402 -4.83824
H -12.5301 -11.1473 -3.96658
H -12.3615 -11.136 -5.59075
O 8.1522 -5.42528 10.2316
H 8.69483 -4.59033 10.1402
H 7.9285 -5.77847 9.32318
O 9.86124 -4.58597 7.41495
H 10.594 -4.13561 6.90493
H 9.8992 -4.30263 8.37318
O 13.3081 10.6379 3.28294
H 13.9551 11.0859 3.89984
H 13.8081 10.0604 2.63769
O 10.6887 -14.1254 2.11153
H 9.7667 -14.4049 2.37939
H 10.951 -13.3076 2.62363
O -10.2774 -13.1943 11.8452
H -10.1455 -13.9453 11.1983
H -10.0238 -13.4973 12.7638
O 4.44889 -8.15861 7.85598
H 4.39586 -8.0385 8.84728
H 3.92681 -8.96892 7.59001
O -2.92399 -0.0979114 -12.6012
H -2.77686 -0.755399 -13.3401
H -3.36598 -0.556355 -11.8303
O -5.43606 4.29247 -10.558
H -5.84343 5.17375 -10.3186
H -4.5046 4.43568 -10.8924
O 9.39815 -11.2459 -9.66641
H 9.55447 -11.7258 -8.80317
H 9.38406 -11.9063 -10.4171
O -5.78902 6.56353 3.91714
H -5.58896 6.99213 4.79817
H -6.29782 7.20453 3.34255
O -2.71441 8.90863 -0.594436
H -2.47362 8.0901 -1.11592
H -2.75816 8.68294 0.37874
O 14.402 -6.71532 7.98812
H 13.8633 -6.51215 8.80568
H 14.2517 -6.00161 7.30404
O -4.41977 7.56227 14.8019
H -3.73419 6.8809 14.5457
H -5.02341 7.18083 -14.4826
O 13.6768 -3.60028 -0.455233
H 13.0705 -3.01108 -0.989247
H 13.3439 -4.54247 -0.492771
O 9.94817 8.38635 6.57953
H 9.37172 8.25544 5.773
H 10.2569 9.33668 6.61786
O -14.856 0.893278 -2.96065
H -13.8921 1.15654 -2.99982
H 14.8709 0.711821 -2.01164
O 10.7047 -4.57086 -1.62453
H 9.93977 -4.72863 -1.00008
H 10.657 -5.22263 -2.38139
O -2.30845 14.6876 3.47218
H -2.07063 -14.7304 2.68327
H -3.21154 14.282 3.33117
O -12.9613 6.20187 -6.52125
H -13.0072 5.22076 -6.33351
H -13.3339 6.38497 -7.43093
O -7.58402 9.99122 3.41578
H -7.45915 10.4383 4.30149
H -7.62433 10.6838 2.69561
O -3.99913 -11.1773 -11.9949
H -4.53648 -11.1647 -12.8381
H -3.22937 -11.8069 -12.0995
O 0.568909 12.4673 10.194
H 0.372697 12.2472 9.23853
H 0.163489 13.3525 10.4221
O 10.5298 2.21225 10.2622
H 10.3813 2.00208 9.2959
H 11.3193 2.81915 10.3538
O -13.7017 -0.676109 -7.10303
H -14.1049 -1.16741 -6.33106
H -12.8105 -0.309571 -6.83597
O -14.2851 -12.6988 13.4272
H 14.8815 -13.2736 13.4069
H -14.2301 -12.2283 14.3079
O -7.29889 12.6905 10.4389
H -6.58266 12.2591 10.9873
H -8.13793 12.7565 10.9789
O -4.15201 -1.87772 10.7731
H -3.32981 -2.3223 10.4178
H -4.15618 -0.916226 10.4984
O 14.9539 4.37981 -0.650577
H -14.1489 4.628 -1.05178
H 14.3022 4.17271 -1.38017
O 10.2466 -14.9904 -9.69821
H 10.1059 -14.4017 -10.4941
H 10.8978 14.2713 -9.92926
O 5.05926 12.623 -11.6032
H 5.11239 11.6696 -11.3062
H 5.8838 12.8583 -12.1177
O -0.880829 9.24781 8.33273
H -0.0458173 8.8147 7.99347
H -0.7418 10.2361 8.3957
O -2.90093 3.79502 -7.58154
H -3.14833 2.82789 -7.52341
H -2.91049 4.08455 -8.53862
O -13.4114 -10.6553 11.9417
H -14.2273 -10.1914 11.5968
H -13.6768 -11.5124 12.3832
O -12.6431 12.1475 3.39273
H -13.1089 13.0092 3.59415
H -11.8227 12.0717 3.95931
O 11.0935 -13.0556 7.26041
H 10.7288 -13.6506 6.54425
H 10.6836 -12.1471 7.17959
O -12.0017 -13.9348 -12.0031
H -11.2306 -13.9983 -12.6365
H -12.2785 -12.9784 -11.9098
O 3.31093 -9.05993 -5.55125
H 2.98233 -9.88495 -5.09158
H 2.76729 -8.89828 -6.37481
O -11.2424 6.85905 6.77715
H -10.7824 6.48637 7.58299
H -10.5633 7.07465 6.07555
O 9.3012 -10.2114 -1.15493
H 9.36354 -10.4456 -2.12509
H 8.89425 -10.9747 -0.653304
O -2.57827 5.19886 -10.1589
H -1.66461 5.12917 -9.75851
H -2.97611 6.08696 -9.92883
O 12.6092 7.11058 -6.55414
H 11.7568 7.61557 -6.68956
H 13.085 7.46908 -5.75101
O 14.5848 -1.68468 -4.94369
H 14.4463 -0.889173 -4.35384
H -14.8144 -2.34772 -4.47709
O 5.53709 12.3098 5.66315
H 5.04288 12.5948 6.48441
H 5.21228 11.4093 5.37435
O -11.9498 -12.0466 0.187171
H -11.2205 -11.4008 0.413352
H -12.7592 -11.8414 0.73734
O -10.6424 -11.6229 14.8109
H -10.5708 -11.0726 13.979
H -11.2567 -11.1709 -14.5269
O -6.92341 -9.34061 10.448
H -6.71014 -10.1452 9.89387
H -6.26677 -8.61377 10.2469
O 3.27469 -11.6406 -12.7882
H 3.2201 -12.5714 -12.4267
H 2.83701 -11.6058 -13.6866
O -0.787282 0.0878646 14.3136
H -1.24999 -0.643375 13.8125
H -1.32065 0.93062 14.2414
O 8.67991 3.83151 8.29757
H 8.76464 4.36058 7.45328
H 9.15766 2.95923 8.19366
O 1.43344 1.19896 -7.38222
H 0.491876 1.22752 -7.04672
H 2.02225 1.72413 -6.76786
O 14.4692 11.5094 10.0521
H 14.3864 11.7962 9.09768
H 14.1929 12.2609 10.6511
O 1.4743 11.2446 -1.75851
H 1.81397 11.2359 -2.69898
H 0.479006 11.3409 -1.76449
O -8.26964 7.93682 -0.770212
H -9.21217 7.65557 -0.590058
H -7.87506 7.34781 -1.47541
O 12.7102 10.3222 -6.01511
H 12.975 9.57631 -5.40403
H 11.717 10.322 -6.1305
O -8.1198 -5.15085 -14.0868
H -7.99969 -5.64391 -14.9484
H -7.28613 -5.22741 -13.54
O 14.069 -4.03027 14.6277
H 13.2688 -4.62971 14.6449
H 14.4298 -3.92932 -14.4298
O -12.2355 -3.89917 -12.2601
H -12.0688 -3.07194 -11.7236
H -12.0281 -4.70424 -11.7044
O -11.6505 7.41394 3.56463
H -11.878 6.69114 2.91214
H -12.1128 7.23632 4.43334
O 9.26194 -8.75172 4.93737
H 9.67926 -9.64795 5.08746
H 8.27526 -8.85961 4.81592
O 1.66552 10.6362 -6.44411
H 1.61166 10.5226 -7.43615
H 1.01789 10.0157 -6.00196
O -11.8473 -0.988552 5.50294
H -12.4664 -1.46596 4.87947
H -11.0375 -0.684957 5.00093
O -12.903 0.36826 -9.44014
H -13.0436 1.35599 -9.37282
H -13.4324 -0.0930742 -8.72822
O 9.09725 -10.8736 -4.66188
H 9.42336 -10.3649 -5.45859
H 8.94816 -11.8295 -4.91497
O -10.0856 6.95037 14.1615
H -10.1303 5.95171 14.1366
H -9.15433 7.23684 14.3863
O -7.28425 10.2775 -3.34648
H -6.52489 10.3976 -2.70704
H -8.09694 9.97848 -2.84646
O 4.17193 -6.04338 6.15642
H 4.74182 -5.25389 6.38412
H 4.37279 -6.79255 6.78755
O 4.01196 1.95034 -14.0755
H 4.91353 1.58785 -14.3115
H 3.39234 1.83405 -14.8517
O 1.81565 -3.68617 -12.7494
H 2.67044 -3.22654 -12.5086
H 1.15129 -3.00951 -13.0668
O 0.100794 -10.3302 6.77011
H -0.256054 -11.0883 6.22444
H -0.316962 -10.3477 7.67845
O -7.70055 3.21424 -11.5518
H -6.84216 3.70029 -11.3879
H -7.94099 2.67996 -10.7414
O 11.9379 1.8912 13.2407
H 12.8495 1.99088 13.6395
H 11.8598 0.993166 12.8079
O -13.6945 -2.33429 7.08659
H -12.8209 -2.13666 6.64196
H -14.396 -1.71582 6.73268
O 10.8058 0.342697 -8.81154
H 11.068 0.741066 -9.69046
H 11.5738 -0.178685 -8.4396
O -10.0251 3.80425 5.89277
H -10.9724 3.59208 6.13294
H -9.86524 4.78524 6.00232
O 4.78162 8.99495 -14.3408
H 4.44625 9.89326 -14.6245
H 5.63317 9.1038 -13.828
O -3.96938 -3.81743 -14.7824
H -4.33137 -3.52402 14.3174
H -4.72747 -4.03652 -14.1682
O 6.86061 9.36397 2.41847
H 7.48718 9.94316 1.89706
H 7.06807 9.44192 3.39357
O 14.1135 1.68 -7.18812
H 14.2886 1.70836 -8.17223
H 14.5314 0.859208 -6.79875
O 4.64304 14.4439 11.4605
H 5.30725 -14.8211 11.258
H 4.86698 13.6252 10.9318
O 6.93332 0.255032 10.4956
H 7.50294 0.961753 10.9151
H 6.99405 0.325499 9.49994
O -14.1622 9.20193 10.2145
H -14.2239 8.87595 9.27115
H -14.6503 10.0705 10.2996
O -10.0564 -9.80389 -10.2855
H -10.8134 -9.56003 -9.67943
H -9.65432 -8.97199 -10.6679
O 2.86208 -10.1198 2.68966
H 3.42713 -9.29479 2.69727
H 1.97971 -9.91549 2.26584
O 7.19303 4.84068 0.979373
H 6.95366 5.20873 1.8778
H 7.89388 5.41694 0.559063
O 2.43123 -7.76545 -10.0922
H 3.25932 -7.26666 -9.83647
H 1.89017 -7.21116 -10.7246
O 2.5267 11.9283 -4.19095
H 3.2502 11.3028 -3.89897
H 2.00462 11.5103 -4.93431
O 4.7538 -11.544 -9.86014
H 3.82404 -11.9113 -9.8835
H 4.76663 -10.6418 -10.2912
O -5.01777 12.5891 6.66213
H -4.56736 13.0678 7.41568
H -4.32645 12.2224 6.03958
O -1.53598 -6.36633 -1.22746
H -1.32393 -5.95056 -2.11182
H -2.14902 -7.14455 -1.36345
O -9.40818 -0.470681 4.24635
H -8.7891 -0.63503 5.01424
H -9.15032 0.378876 3.78625
O -6.16686 -7.00349 -6.95813
H -6.40008 -7.83323 -6.45112
H -5.93723 -7.2428 -7.90149
O -0.211571 2.91352 3.90776
H 0.0102907 1.98168 4.19479
H 0.573063 3.31164 3.43261
O 9.05716 1.80066 -7.2393
H 9.55057 1.18731 -7.85596
H 8.50596 1.26095 -6.60304
O 2.58301 -5.86815 13.0545
H 1.71083 -5.38498 13.1304
H 2.8702 -5.88902 12.0969
O 9.91252 0.989488 -13.0888
H 9.2327 0.78162 -12.3855
H 10.2551 0.136997 -13.4836
O -12.8504 -7.74806 -2.01509
H -12.6555 -6.86156 -1.59548
H -11.9918 -8.18935 -2.27582
O 2.99671 13.0494 -8.26397
H 3.57396 12.2354 -8.19938
H 3.47537 13.7571 -8.78358
O 11.0432 -6.84388 -3.30396
H 11.9751 -6.65474 -2.99459
H 11.0673 -7.19179 -4.24114
O -6.78823 13.752 -5.66429
H -7.6218 13.2842 -5.37062
H -7.02995 14.6063 -6.12433
O 4.39169 -11.0598 0.445342
H 3.73198 -11.0009 1.1945
H 5.31342 -10.9026 0.799773
O -6.5369 -0.934954 -12.4615
H -6.02322 -1.22574 -13.2686
H -6.36384 0.0344621 -12.2877
O 11.8853 -1.07343 7.05082
H 12.7685 -1.2335 7.49164
H 11.9964 -0.405913 6.31461
O 12.3351 13.3568 5.54842
H 13.1969 12.8606 5.44405
H 11.9105 13.1079 6.41886
O -11.5499 11.6205 11.2208
H -11.3298 11.0668 10.4177
H -12.1644 11.1082 11.8206
O -9.61623 11.4788 -2.04311
H -9.46265 11.6875 -1.0773
H -10.2983 10.752 -2.12264
O 6.0366 -2.77791 -9.39349
H 6.18971 -3.53029 -8.75286
H 5.07902 -2.49311 -9.3504
O -1.96637 -13.757 1.27046
H -1.83731 -12.902 1.77278
H -1.10185 -14.0291 0.847965
O -6.31144 3.05039 -8.33495
H -5.87938 3.46894 -9.13374
H -7.05103 2.44735 -8.63373
O -1.69416 6.72549 -6.38056
H -2.39101 6.21648 -6.88577
H -1.97742 6.82097 -5.42632
O -0.694475 -10.2388 -9.08976
H -1.52514 -9.91745 -9.54439
H -0.0505813 -10.5802 -9.77443
O 2.00415 3.53794 7.58739
H 2.64026 2.83003 7.28056
H 1.148 3.11243 7.88042
O 6.5769 -4.51651 -1.74498
H 6.65579 -5.2508 -1.0708
H 7.0531 -4.78129 -2.58346
O -9.88683 -5.49517 -9.30295
H -9.45454 -5.48312 -8.40134
H -9.65997 -4.65334 -9.79263
O 11.4345 4.54385 -4.69566
H 11.714 3.58534 -4.64027
H 11.0924 4.73869 -5.61486
O 6.96233 -12.4095 6.67247
H 7.16603 -11.5099 7.05862
H 7.19809 -12.4162 5.70072
O -11.0021 -10.8168 10.444
H -10.8467 -11.7325 10.8146
H -11.9107 -10.4979 10.7136
O 0.473983 5.41616 -1.28357
H 0.339387 6.32305 -1.68277
H 1.37491 5.37237 -0.851916
O 2.55001 0.396564 -9.69894
H 2.27553 0.76754 -8.81183
H 3.4554 0.745645 -9.94048
O -9.95219 -7.01313 4.36953
H -9.8201 -7.20177 5.34261
H -10.3854 -6.11865 4.25923
O 6.51477 10.3022 9.20188
H 7.2437 10.955 8.99563
H 5.64971 10.792 9.31038
O 2.695 -14.3117 1.50686
H 2.07137 -14.9208 1.01701
H 3.20711 -13.7597 0.848859
O -0.558527 5.90053 12.9819
H -0.0458289 6.71949 12.7243
H 0.0637794 5.2321 13.3891
O 1.74292 0.690564 14.2398
H 0.792853 0.385975 14.307
H 2.3513 -0.10131 14.2921
O -13.8096 8.14116 7.50534
H -13.7896 8.72124 6.69107
H -13.1556 7.3925 7.39739
O 3.87536 -1.46503 7.48027
H 4.72521 -1.99125 7.45238
H 4.08875 -0.49106 7.55626
O -11.6492 -9.51265 -7.97839
H -12.6147 -9.7677 -8.02986
H -11.1614 -10.1688 -7.40276
O -1.76331 13.5004 -10.703
H -0.984751 12.9939 -10.3326
H -1.54897 13.8106 -11.6291
O 4.39422 10.0068 5.0798
H 4.02246 9.45316 4.3347
H 4.37255 9.47995 5.92942
O 14.1986 -1.58218 8.58987
H 14.3262 -0.620384 8.83194
H -14.9122 -1.97123 8.29823
O -8.9982 1.41554 8.22469
H -8.21429 1.307 8.83595
H -8.68245 1.73478 7.33121
O -13.9029 -11.9946 -8.05249
H -14.4927 -12.2317 -7.28052
H -14.4444 -11.536 -8.75703
O 9.89429 4.5331 -7.26393
H 9.52655 3.61142 -7.14065
H 10.0533 4.70115 -8.23676
O -4.93001 0.554856 8.79107
H -5.65267 1.08357 9.2362
H -4.15047 1.15117 8.59962
O 6.56872 -12.3887 3.5229
H 5.72998 -12.3843 4.06734
H 6.57849 -11.5915 2.91933
O -10.8558 1.46609 12.3297
H -11.4068 0.68052 12.0482
H -10.1388 1.1626 12.9571
O -14.5238 -2.18175 13.2211
H 14.9117 -1.3478 13.2766
H 14.9684 -2.93456 13.6579
O 10.0631 -3.85557 -5.87867
H 11.0164 -3.70762 -5.61552
H 9.91621 -3.51214 -6.80625
O -8.01445 -12.5393 13.6127
H -8.88036 -12.2612 14.0284
H -7.70714 -13.397 14.0249
O 4.42088 -8.04123 2.57726
H 4.26633 -7.49592 1.75345