2611
Atoms. Timestep: 23000000
O 1.85161 4.75948 -1.87233
H 2.39456 3.97858 -2.18127
H 1.90693 5.49286 -2.54992
O 12.92 -1.13269 14.1358
H 12.299 -0.39472 13.8714
H 12.7457 -1.93536 13.5653
O -3.67573 6.82717 8.86491
H -3.86703 6.33963 9.71682
H -2.69862 6.76951 8.66005
O -14.5178 5.85731 -10.2894
H 14.6166 5.78069 -10.9422
H -13.8367 6.49983 -10.6406
O -7.73442 1.00591 -4.3721
H -7.70835 0.0837325 -3.98618
H -8.36891 1.02606 -5.14479
O -14.7908 7.64538 5.10495
H -14.6218 8.25539 5.87913
H -14.0184 7.68918 4.47131
O -10.1207 -5.70963 8.56252
H -9.32186 -5.12434 8.42363
H -9.86874 -6.66278 8.39507
O -11.2488 1.99569 -11.3358
H -11.7286 2.62328 -11.9489
H -11.0019 1.16528 -11.8353
O -2.27595 2.64093 6.55659
H -2.85654 3.11879 7.21583
H -1.52989 2.18295 7.04
O 8.9464 2.04509 12.6887
H 8.62681 2.19568 13.6243
H 8.53988 2.72944 12.0834
O -13.1045 12.1812 -4.4136
H -12.4653 12.9225 -4.61829
H -12.7031 11.575 -3.72703
O -0.0268202 14.5367 14.6003
H 0.937309 14.3935 14.3767
H -0.126934 -14.4988 -14.7747
O -12.1692 -4.42468 -3.89468
H -13.0948 -4.7293 -3.67005
H -12.0235 -3.5047 -3.53073
O -9.44762 9.06014 8.64426
H -10.1328 8.59346 9.20345
H -8.5338 8.84671 8.98983
O -3.80813 -4.98514 5.41354
H -3.78701 -4.65001 6.35549
H -4.58102 -4.57353 4.93056
O -5.03845 -8.66685 -9.79229
H -4.84135 -9.63785 -9.65682
H -5.64226 -8.55627 -10.5817
O 11.0167 -14.5905 5.40778
H 11.4493 14.7976 6.15798
H 10.5227 14.6562 4.8208
O -1.57874 -14.2604 -10.7129
H -1.09215 -13.6154 -11.3022
H -1.9475 -13.7748 -9.92028
O 2.11819 7.96892 11.4794
H 1.60822 8.82628 11.4095
H 1.67217 7.36899 12.1436
O 4.4455 2.08341 14.0468
H 5.09573 2.57251 14.6282
H 3.51516 2.25099 14.373
O 5.9896 14.3769 -2.87699
H 6.28575 -14.6222 -3.22645
H 6.54833 14.1267 -2.08628
O 13.3189 12.8131 -14.6067
H 13.1354 12.0675 14.6407
H 13.1613 13.6897 14.8267
O 14.5481 6.74886 -0.199264
H 14.1712 7.44429 0.412543
H 13.8006 6.25797 -0.646696
O 4.70056 14.195 6.60012
H 4.10329 14.1081 5.80278
H 4.60832 13.3825 7.17579
O -7.94763 10.2843 -10.7067
H -8.27864 9.9241 -9.83457
H -8.70663 10.7062 -11.2027
O -3.7907 -11.1835 1.98772
H -4.17572 -10.5043 1.36285
H -4.09617 -12.0964 1.71703
O 9.51642 4.57781 8.61593
H 9.92951 3.70799 8.88576
H 10.2368 5.24919 8.44197
O -13.3579 -14.4613 -10.4799
H -14.0564 -14.8857 -11.0561
H -12.5264 -14.3163 -11.0162
O 12.0636 -7.89484 -7.84349
H 12.391 -8.50699 -7.12368
H 12.7835 -7.7679 -8.52598
O -12.4332 -9.63843 10.2047
H -12.9522 -8.79862 10.0452
H -11.5363 -9.40927 10.5829
O 4.76433 -0.597941 -10.5938
H 4.20488 0.225686 -10.687
H 4.4087 -1.31238 -11.1964
O -10.5481 -7.8059 -11.323
H -9.95901 -8.54792 -11.643
H -11.1218 -8.13551 -10.5732
O -13.6863 13.2424 7.45773
H -14.2356 13.1191 8.2842
H -13.7472 12.4206 6.89128
O -12.2477 7.60112 -11.5487
H -12.2443 8.53373 -11.1877
H -11.3789 7.15637 -11.331
O 6.13628 -5.93508 7.72745
H 5.95912 -5.1786 8.35704
H 5.34639 -6.0612 7.12729
O 7.32357 -0.0215176 11.4779
H 8.03744 0.291572 12.1043
H 7.52303 0.306511 10.5545
O 3.08361 7.25334 -9.42111
H 3.26174 8.06775 -8.86881
H 2.40859 7.47 -10.1264
O 7.62919 5.64091 4.57436
H 6.93219 6.35655 4.61998
H 8.2585 5.83603 3.82208
O -11.5797 4.40012 -4.40397
H -10.5834 4.34717 -4.47133
H -11.8651 4.14901 -3.47901
O -3.60394 5.22447 -5.10737
H -4.39313 5.07209 -4.5124
H -3.08905 4.37253 -5.20283
O -8.8094 -2.57819 -8.99178
H -9.66243 -2.17345 -8.66231
H -8.03304 -2.08551 -8.59863
O -1.05024 -5.7805 -5.60795
H -0.176667 -5.92933 -5.14455
H -1.55822 -5.05872 -5.13781
O -3.76062 -14.435 13.2991
H -3.69261 14.9405 14.155
H -3.24728 -14.9101 12.5844
O -5.08688 7.16111 -1.45889
H -5.86095 7.79048 -1.52777
H -4.23313 7.66895 -1.57388
O 12.7256 -8.52966 -0.184202
H 12.1178 -8.11418 0.492511
H 13.6556 -8.18666 -0.0520143
O 9.13618 9.70107 3.96377
H 9.23151 10.6959 3.92711
H 10.0344 9.28518 4.10644
O 2.12195 -3.39632 14.737
H 1.95443 -3.41831 13.7514
H 2.92374 -3.95418 -14.9367
O 0.846486 -2.73578 -4.39776
H -0.110041 -3.01779 -4.32322
H 1.29593 -2.84388 -3.51101
O 5.02745 5.15866 -10.4117
H 5.23935 5.14673 -11.3889
H 4.3833 5.89899 -10.2193
O 8.16982 4.01376 10.9516
H 7.34257 4.53695 11.1565
H 8.53696 4.30325 10.0677
O -2.71789 0.531415 -11.5577
H -2.44815 0.86251 -10.6535
H -3.6843 0.736255 -11.7131
O -1.5508 -5.73553 -12.165
H -2.04058 -6.57497 -11.9295
H -1.79101 -5.01557 -11.5139
O -4.1911 9.71347 -0.390565
H -3.90904 9.77711 -1.34786
H -3.78645 8.89765 0.0226196
O -8.23184 7.12653 6.19406
H -7.32023 7.52046 6.31163
H -8.77649 7.29561 7.01552
O 0.250624 -3.47148 -9.8447
H 0.363755 -3.06317 -10.7505
H 0.735177 -4.34558 -9.81022
O -1.01495 -10.5293 4.87114
H -0.851923 -9.55346 5.01675
H -1.99217 -10.7212 4.96197
O -2.71439 7.94839 1.141
H -1.90817 8.51858 1.29886
H -2.96122 7.47821 1.98837
O 2.63389 -6.10116 -7.10462
H 2.78218 -5.11255 -7.13081
H 2.89402 -6.45354 -6.20563
O -6.43206 -14.0162 -9.8915
H -6.34267 -14.4408 -8.99053
H -5.52305 -13.8586 -10.2774
O -4.79733 2.78194 4.83985
H -4.40112 1.87631 4.99109
H -4.08332 3.41104 4.53249
O -11.669 -14.2245 -14.0841
H -12.0889 -14.8905 -14.7007
H -11.661 -13.3249 -14.5206
O -2.11377 2.65053 -5.26355
H -1.18347 2.30808 -5.13204
H -2.71898 1.88973 -5.49795
O -13.5875 -12.9645 7.7649
H -13.1062 -13.6868 7.26836
H -13.5847 -13.1734 8.74284
O -10.128 11.7221 -11.5316
H -10.8295 11.1146 -11.9043
H -10.3565 12.6702 -11.7527
O -2.59739 6.19204 13.823
H -2.62904 6.60656 14.7325
H -3.30996 5.49425 13.7497
O 12.3203 -11.487 4.88218
H 13.1012 -11.9585 5.29167
H 11.9963 -12.0044 4.09009
O 12.9086 -9.6684 -5.73886
H 12.8568 -10.6521 -5.91098
H 13.6196 -9.48577 -5.05979
O -1.53409 -0.906392 5.2655
H -2.38054 -0.45274 5.54436
H -0.759931 -0.489457 5.74181
O 3.92564 -0.705926 13.9572
H 4.1801 -1.13207 14.8253
H 4.23942 0.243537 13.9473
O -10.9546 7.59633 10.7424
H -11.8055 7.95134 11.1296
H -10.1906 7.83453 11.3422
O -6.47746 8.68691 -4.7095
H -5.50601 8.68759 -4.94684
H -7.0238 8.78754 -5.54101
O -14.8641 -9.02757 -13.5424
H -14.7794 -9.44111 -14.449
H -14.8856 -8.03172 -13.631
O 0.104493 -5.27793 -14.3066
H 0.710664 -4.58019 -13.9248
H -0.695522 -5.38377 -13.716
O 3.28095 8.84769 8.48477
H 4.23406 9.15032 8.48019
H 2.68877 9.61498 8.73097
O 8.28321 2.06555 -14.4987
H 8.52411 3.01483 -14.2965
H 7.33323 1.89918 -14.2343
O 1.41012 -10.9489 3.01701
H 0.863584 -10.716 3.82141
H 1.72978 -11.8934 3.09334
O 9.5852 -9.16109 10.6378
H 9.40899 -8.17814 10.6907
H 9.99669 -9.37875 9.75272
O 0.727538 -9.69598 12.3886
H 0.978284 -10.3433 11.6688
H 1.39717 -9.7457 13.1297
O 12.3833 -0.745894 -5.73367
H 11.5631 -0.802973 -5.1645
H 12.1531 -0.319256 -6.60832
O 7.64572 6.02797 13.8099
H 7.98411 5.78617 12.9005
H 6.64771 5.96566 13.8217
O 10.053 1.70022 6.37835
H 9.79467 1.51591 7.32668
H 9.34275 2.25147 5.94053
O 6.19977 -12.9746 10.067
H 5.42383 -12.9381 9.43719
H 6.67187 -12.093 10.0657
O -14.6379 -7.39728 -0.56276
H -14.8007 -8.04949 -1.30315
H -13.8284 -7.67532 -0.0455763
O -13.8957 2.65519 -9.07247
H -13.5284 2.83311 -9.98539
H -13.2647 3.01237 -8.38382
O -4.23744 1.06819 -5.71852
H -4.71272 1.46864 -4.93508
H -4.26771 1.70584 -6.48827
O -3.43565 10.2825 -5.20823
H -2.86111 11.0462 -4.91375
H -3.23412 10.0625 -6.1627
O -4.10155 6.37281 -10.5767
H -4.71372 7.10445 -10.2768
H -4.63332 5.54433 -10.7525
O 0.159393 11.8927 2.9302
H -0.160918 12.7498 2.52658
H 1.15385 11.8342 2.84267
O 1.58749 -0.65944 -6.15834
H 0.996483 -0.73057 -6.96188
H 1.43997 -1.45076 -5.56497
O 13.4754 14.2479 11.0192
H 13.9798 13.6675 10.3799
H 14.109 14.8776 11.4687
O 4.15611 8.03863 2.37326
H 5.08136 8.19078 2.72082
H 3.82175 7.15189 2.69251
O 10.4304 -2.39588 4.15416
H 10.9125 -2.4447 3.2794
H 9.54565 -2.85496 4.07321
O -9.90286 -2.26821 1.2027
H -9.51403 -1.54838 1.77776
H -10.478 -2.86643 1.76074
O 11.5416 -14.5081 9.34569
H 12.155 -14.7938 10.082
H 10.6073 -14.4437 9.69633
O 2.39096 -11.9657 11.4792
H 3.01933 -11.2123 11.6732
H 1.84996 -11.7478 10.6669
O 14.7733 -6.44488 -6.58715
H -14.4911 -5.66348 -6.60868
H 14.262 -6.48705 -7.44557
O 4.74189 5.74221 -7.04632
H 4.33918 5.99591 -7.92581
H 4.14499 6.04981 -6.30529
O -7.32631 -13.6212 -14.4152
H -7.39582 -14.0662 14.58
H -7.78452 -14.1829 -13.7263
O -8.66247 -11.2292 -14.7147
H -8.0897 -12.0462 -14.647
H -8.29085 -10.6186 14.474
O 6.27424 -14.9298 -8.75283
H 6.05997 -14.2367 -9.44108
H 7.2665 14.861 -8.67536
O 8.37416 2.60335 1.6185
H 7.41361 2.47852 1.3699
H 8.68476 1.81774 2.15365
O -13.8327 4.631 0.519462
H -14.3921 5.35718 0.119731
H -13.4504 4.94492 1.38853
O 9.06587 4.51947 -14.1971
H 8.72171 4.96893 -13.3727
H 8.64651 4.9361 14.8844
O -7.0042 -4.53493 8.56038
H -6.03707 -4.36178 8.37405
H -7.17089 -4.47019 9.54427
O 13.6029 -13.7666 6.64198
H 12.9322 -13.5262 7.3437
H 14.5013 -13.4152 6.90526
O -6.79334 -8.40002 5.33933
H -5.98558 -7.94324 4.96662
H -6.77617 -8.34548 6.33771
O -8.1495 1.32971 -14.6738
H -8.90607 1.62247 14.6295
H -8.16135 0.33352 -14.5872
O 8.14137 -2.39846 8.05968
H 8.15455 -2.82002 8.9664
H 8.5207 -3.03674 7.3898
O -9.65484 -10.9885 8.64254
H -10.4618 -10.8359 8.07196
H -9.91089 -11.5286 9.44433
O 8.67444 0.368208 3.07358
H 8.25677 -0.428243 2.63626
H 9.44057 0.0718133 3.64387
O -2.51293 -6.1829 -3.3052
H -2.37993 -5.8563 -2.36943
H -1.75848 -6.78902 -3.55708
O -13.8211 13.4104 4.0188
H -13.6604 13.2004 4.98323
H -13.5944 12.6116 3.46147
O -10.2314 -3.6367 14.2396
H -11.0419 -3.27195 14.6979
H -10.3948 -4.58876 13.981
O 14.7688 3.55946 7.41538
H 14.5585 4.40148 6.91857
H 13.9573 2.97561 7.44028
O 13.4426 7.71339 -6.12241
H 12.4939 7.88381 -6.38864
H 13.8701 8.5733 -5.84345
O 9.10364 -7.26709 0.74685
H 9.21212 -7.59867 -0.190339
H 9.06394 -6.26787 0.744393
O 11.633 8.74996 14.4304
H 11.5304 7.79107 14.6951
H 11.1302 8.91731 13.5823
O 9.52711 -5.68629 -2.83272
H 9.64178 -4.72491 -2.58245
H 8.67149 -5.79947 -3.33782
O 6.05296 10.6711 5.81324
H 6.86802 11.0881 6.21545
H 5.38907 10.4736 6.53456
O -14.2206 -10.0785 -8.47643
H -14.2365 -10.9971 -8.08166
H 14.7929 -9.89313 -8.92458
O -5.75577 14.7327 2.94987
H -4.92973 14.1693 2.96818
H -5.71356 -14.478 3.68425
O -3.18115 -11.6893 -11.6181
H -3.67911 -11.6817 -10.7509
H -3.78767 -12.0046 -12.348
O 10.2971 5.57129 12.68
H 9.90693 4.71715 12.3362
H 11.2492 5.4196 12.9458
O 8.66094 12.7708 4.38999
H 8.20406 13.5775 4.76496
H 8.37834 11.9596 4.90189
O -5.88536 -6.34538 13.9017
H -5.15259 -6.40981 13.2242
H -5.87187 -5.43808 14.322
O 0.893202 2.81186 -12.6632
H 0.681615 3.42855 -11.905
H 0.0523583 2.37372 -12.9811
O 0.736087 -7.29124 -8.5834
H 1.52105 -7.09277 -7.99649
H 0.111763 -7.91033 -8.10697
O 8.68397 -10.9616 -9.80377
H 8.44616 -10.191 -10.3951
H 9.63693 -11.2208 -9.96104
O -12.9974 5.91956 -13.9757
H -12.5125 5.06065 -14.1405
H -12.7374 6.28267 -13.0809
O 10.5007 -5.5958 3.91994
H 9.67681 -5.02921 3.93182
H 10.2412 -6.56155 3.92362
O 0.334655 -4.12525 3.01948
H -0.467074 -3.71393 3.45316
H 1.15828 -3.8573 3.51936
O -1.33548 8.7479 -11.3249
H -1.77486 8.55065 -10.4485
H -1.0262 9.69882 -11.3361
O -14.6328 -9.17857 -2.53344
H -14.5934 -10.1521 -2.3083
H -14.5464 -9.0615 -3.52282
O 11.4829 -14.3046 -3.14117
H 11.0968 -14.5718 -4.02411
H 10.8898 -14.6316 -2.40538
O 9.29901 -4.67236 6.67884
H 9.17173 -5.6609 6.76021
H 10.2478 -4.47782 6.42983
O 4.56548 -4.59007 -13.9069
H 3.93697 -5.32237 -14.1691
H 5.50006 -4.85007 -14.1498
O -5.45813 7.11448 4.32336
H -4.53248 7.15138 3.94673
H -5.91188 6.27972 4.0114
O 1.10608 -14.8179 10.9249
H 1.69843 -14.0139 10.8727
H 1.41413 14.4769 11.6687
O -3.49114 -9.79379 -2.14314
H -2.54525 -9.48337 -2.23783
H -3.94438 -9.2671 -1.42397
O -3.38575 2.76166 -2.69841
H -2.63347 2.6868 -3.35302
H -3.96877 3.53496 -2.94765
O 7.27524 -13.5701 -4.30489
H 8.24878 -13.6703 -4.51035
H 6.73956 -14.0994 -4.96289
O -0.800786 -12.7422 -14.5311
H -0.778486 -12.5028 -13.5604
H -1.56791 -12.276 14.9162
O 10.6654 2.69 -7.24324
H 11.6274 2.94252 -7.34758
H 10.0975 3.5114 -7.29643
O 3.8104 2.33009 6.93431
H 3.44245 2.0761 7.82882
H 3.66101 3.30636 6.77744
O -7.08082 -9.52274 10.381
H -7.59347 -10.0523 9.70506
H -6.86682 -8.621 10.0053
O -9.45882 13.5076 -14.9004
H -9.74522 13.6316 14.0376
H -9.70624 12.588 -14.595
O 13.7153 8.67942 -11.0343
H 13.9737 9.29834 -11.7761
H 13.7755 7.73353 -11.3532
O -4.33816 -3.54874 7.74345
H -4.64021 -2.69358 8.16476
H -3.35077 -3.64982 7.86535
O 6.68195 -5.27731 -11.5605
H 5.73823 -5.44901 -11.2778
H 7.30832 -5.69644 -10.9032
O -8.37046 -2.48699 -11.9077
H -8.49588 -2.31915 -10.9299
H -8.7157 -3.39717 -12.1366
O -12.4081 3.37468 -6.93037
H -12.3753 3.46142 -5.93467
H -12.4082 4.28494 -7.34443
O 5.81402 5.30559 -12.8675
H 6.16973 6.23134 -12.7391
H 5.41012 5.22719 -13.779
O -5.27222 -3.21625 12.048
H -5.40349 -2.46322 11.4032
H -4.35016 -3.58863 11.9423
O -3.09682 13.029 1.54494
H -3.31615 12.5643 2.40282
H -3.71854 12.7151 0.827357
O 2.77291 7.77859 -2.6018
H 3.1312 7.88774 -1.67458
H 2.29624 8.61402 -2.87544
O 4.82684 3.28356 -5.41262
H 4.10376 2.76484 -5.86883
H 4.80001 4.23454 -5.72075
O 12.7714 13.1187 -9.75419
H 13.3629 12.7309 -9.04722
H 13.3046 13.276 -10.5854
O -13.4696 9.38056 0.393807
H -13.713 10.2914 0.0602959
H -12.5139 9.1883 0.170699
O -10.9463 -1.46437 5.90906
H -10.9765 -2.25131 5.29275
H -11.6614 -1.55606 6.60207
O -12.627 8.1033 3.59034
H -11.9796 7.8214 4.2985
H -12.2822 8.92148 3.13017
O 13.3621 -12.3844 -5.83484
H 13.8764 -12.7337 -5.05153
H 13.0091 -13.1515 -6.37061
O 6.98321 -11.8745 -7.91617
H 7.47207 -11.4503 -8.67846
H 7.3299 -12.8015 -7.77239
O 14.8512 -3.84168 14.506
H 14.1061 -3.76735 13.8432
H -14.7572 -2.92676 14.7971
O 13.3824 14.0357 -0.922332
H 12.713 14.6382 -1.3569
H 13.0502 13.0929 -0.950946
O -8.91818 13.4645 -5.23393
H -9.40817 12.942 -4.53612
H -9.56596 13.7899 -5.92278
O 9.90048 4.73257 -4.11644
H 10.6025 5.27511 -3.65508
H 10.0726 4.73316 -5.10153
O -8.2189 -4.71325 3.56552
H -7.95761 -5.55547 3.0939
H -9.2158 -4.63628 3.58254
O 7.72477 -9.72754 7.76711
H 6.83735 -9.92043 8.18581
H 7.65629 -8.90271 7.20587
O 14.1192 -2.07506 6.39153
H 14.1367 -2.80168 5.7047
H 14.238 -1.18931 5.94279
O 12.9532 -5.58929 3.65263
H 13.2485 -5.45704 2.7064
H 11.9545 -5.62847 3.68777
O -6.77048 10.0437 10.2238
H -6.48294 10.4476 11.0923
H -6.91773 9.06206 10.3453
O 6.10953 6.05016 10.639
H 5.57473 6.586 11.2924
H 6.66308 6.66524 10.0775
O -6.15078 11.6001 -8.58051
H -6.69711 11.0126 -7.98358
H -6.55972 11.6208 -9.49286
O -0.267434 6.80206 9.6754
H 0.671476 6.77745 10.0187
H -0.877018 7.13384 10.3954
O -4.53539 4.30728 13.7126
H -5.3108 4.70298 14.2047
H -4.72254 3.34522 13.5139
O 13.4356 -6.1861 -11.9172
H 12.6902 -6.155 -12.5832
H 14.3126 -6.16906 -12.3974
O 6.61152 9.73326 12.0409
H 5.74469 9.23614 12.0798
H 7.19349 9.44854 12.8027
O -12.0174 -2.37943 -13.6396
H -12.4366 -2.95207 -12.9351
H -12.7336 -1.92927 -14.173
O 8.05134 4.80535 -9.37124
H 8.18632 3.88399 -9.73582
H 7.07231 5.00075 -9.31325
O -3.53058 2.75651 10.295
H -3.27469 1.81894 10.0594
H -4.14536 3.12013 9.59513
O 9.88699 6.49687 -0.0356327
H 10.2726 7.34368 -0.402065
H 8.9514 6.3844 -0.370374
O -14.231 -1.30426 -2.27851
H -14.4253 -0.825868 -3.13491
H 14.826 -1.34556 -1.72382
O 2.87313 -1.96255 7.77489
H 3.66787 -2.52157 7.53845
H 3.15189 -1.00595 7.85993
O -1.16645 1.47723 -13.5145
H -1.46402 1.17972 -12.6074
H -1.5052 0.836228 -14.2033
O 5.32564 -10.1214 8.71549
H 4.53721 -9.93582 9.30198
H 5.06353 -10.7685 7.99955
O -9.9874 -14.4215 9.9067
H -10.5337 14.6913 9.58969
H -9.45854 -14.0518 9.14271
O -6.52224 12.9319 -13.7656
H -7.10912 12.9526 -14.5751
H -6.88723 13.5543 -13.0733
O 1.31607 10.1925 -4.29949
H 2.08759 10.4507 -4.88095
H 0.634079 9.70719 -4.84669
O -6.3366 4.5771 3.39082
H -6.04863 4.7904 2.45722
H -5.92968 3.70895 3.67502
O -8.85681 -9.86513 -12.1832
H -8.00587 -9.33984 -12.1824
H -8.84548 -10.5169 -12.9416
O -14.5584 9.59533 -5.25169
H -14.2246 10.5357 -5.18682
H -14.1102 9.03375 -4.55619
O -8.65007 4.73593 -14.6148
H -8.87642 4.61472 14.3068
H -7.68454 4.98094 -14.5268
O -9.66729 13.4889 5.63947
H -9.78408 12.5207 5.41821
H -9.22337 13.9546 4.87389
O 12.0789 -11.7429 9.18311
H 11.8234 -12.5836 8.70568
H 11.3561 -11.0615 9.06798
O 4.76237 5.2334 14.5745
H 4.12725 4.5507 14.2132
H 4.24743 6.01836 14.919
O 12.6791 13.8521 2.97919
H 13.4511 13.6268 2.38482
H 12.9724 14.5125 3.67048
O 12.0794 12.1158 12.5143
H 12.4823 12.7922 11.8978
H 11.3374 12.5389 13.0343
O 10.7178 8.84372 -0.871791
H 9.8582 9.28558 -1.1284
H 11.3477 8.86384 -1.64824
O 9.72226 10.0969 -11.4028
H 10.3014 10.7245 -11.9232
H 10.2787 9.34452 -11.0503
O -7.54499 -1.02088 -7.06087
H -8.19838 -0.308731 -6.80403
H -7.19644 -1.46653 -6.23629
O 2.71387 9.75148 5.89199
H 3.37823 10.4916 5.99642
H 2.83877 9.08524 6.6272
O 5.4119 -13.0812 2.70252
H 6.25056 -13.6108 2.57547
H 4.73212 -13.6416 3.17557
O 12.0434 -14.6647 13.7945
H 11.3214 -14.5141 13.1191
H 12.9193 -14.3617 13.4191
O 5.42156 1.47613 1.52722
H 5.36629 0.760652 0.830755
H 5.0922 1.11727 2.4006
O 9.6419 8.12423 11.567
H 9.78312 7.13441 11.5481
H 9.30132 8.3952 12.4673
O 8.38398 8.75562 14.0755
H 8.27883 7.76526 14.1657
H 8.44467 9.16855 -14.9039
O -11.8083 -2.02093 3.15915
H -12.7652 -2.14952 2.8988
H -11.6032 -1.04314 3.20252
O 0.521736 -1.94814 9.13997
H 0.461665 -1.9984 10.1369
H 1.47928 -2.01657 8.85987
O -12.1986 10.4946 -2.5351
H -11.3053 10.5516 -2.08926
H -12.6088 9.60218 -2.3468
O -9.89264 -12.218 11.6688
H -9.93411 -13.058 11.1278
H -10.288 -12.3836 12.5723
O 14.754 -1.77271 -13.0497
H 14.9167 -1.02237 -12.4089
H 14.4968 -1.39985 -13.9412
O -5.38735 -5.20748 0.280405
H -4.52983 -5.35141 0.774341
H -5.31351 -5.59914 -0.636756
O 10.9042 8.13367 -7.42501
H 11.3731 8.77742 -8.02977
H 9.93992 8.388 -7.35081
O 3.87798 -7.08972 -4.76305
H 4.66759 -7.55939 -4.36814
H 3.08393 -7.2148 -4.16818
O 2.7292 -6.81026 0.091188
H 2.63601 -7.7401 0.447179
H 3.26873 -6.82814 -0.75061
O -2.06607 0.0270195 9.21639
H -1.59452 -0.780586 9.57057
H -1.40222 0.638531 8.78582
O -5.06832 -13.288 0.62501
H -5.75923 -13.3366 -0.0963155
H -5.32413 -13.9 1.37335
O 6.45344 -8.33258 3.71982
H 6.18249 -9.24891 4.01471
H 6.17041 -8.19038 2.77129
O 13.1663 9.10172 -2.84263
H 13.0795 9.96457 -3.34062
H 14.1324 8.91644 -2.66284
O 6.89895 -1.83422 2.66233
H 6.60907 -1.47001 3.5474
H 6.13814 -1.78277 2.01537
O 13.4005 -8.18098 4.07913
H 12.7547 -8.49385 4.7756
H 13.0663 -7.33058 3.6727
O 0.101734 -6.57234 7.84867
H 1.02512 -6.39562 8.18948
H -0.554092 -6.47565 8.59738
O 12.3162 -9.66984 -12.6227
H 11.871 -10.2438 -13.31
H 13.2336 -9.42491 -12.9364
O 5.92552 14.4359 -14.5192
H 5.80481 -14.4611 -14.4624
H 5.03299 13.9879 -14.4673
O -3.07546 -11.6975 14.3192
H -2.76511 -10.8819 13.8307
H -3.12839 -12.4671 13.683
O -6.63483 -14.7544 13.0314
H -5.73469 -14.8678 13.452
H -6.63388 -13.9352 12.4578
O 3.85258 -4.08905 -5.20461
H 3.79518 -5.05948 -4.97008
H 3.55598 -3.53929 -4.4237
O -8.19385 5.6312 -6.86509
H -8.038 4.75211 -6.41459
H -9.17702 5.79956 -6.93631
O -5.83746 8.48401 -10.1373
H -6.47372 9.1726 -10.4852
H -5.91917 8.42718 -9.14229
O 7.9605 9.89319 -0.872781
H 7.97121 9.9904 -1.868
H 8.46957 10.6478 -0.458674
O 3.90083 -11.9352 -4.45711
H 4.45478 -12.7159 -4.74628
H 3.20895 -12.2413 -3.8032
O 5.71245 -14.5472 12.1825
H 5.73757 -13.8834 11.435
H 5.42238 -14.091 13.0238
O -12.7284 5.86351 -8.16954
H -12.8055 6.72322 -7.66457
H -13.4444 5.82084 -8.86629
O 12.9566 3.48924 11.2768
H 13.1773 2.85188 10.5385
H 13.1097 4.42686 10.9646
O 3.39385 14.442 -1.66668
H 4.10604 14.1123 -2.28648
H 2.93802 13.662 -1.23783
O 5.84977 9.87191 9.14356
H 6.5569 9.16559 9.11017
H 5.51272 9.96208 10.0807
O -11.5816 -0.530207 -5.50934
H -11.6021 -0.83723 -4.55784
H -12.4417 -0.0701125 -5.72975
O -10.4857 -13.5561 -10.3685
H -9.91263 -13.6876 -9.55959
H -10.9048 -12.6487 -10.3361
O -9.89344 7.86903 -14.1803
H -9.29924 7.58628 -13.4273
H -10.2126 7.06049 -14.6747
O -6.788 -6.24186 -2.31637
H -6.32472 -6.35103 -3.19585
H -7.41072 -5.46074 -2.36236
O -13.7972 -11.4923 -6.04111
H -14.507 -12.0799 -6.42956
H -14.1293 -10.5499 -6.00137
O -12.6328 -8.45223 0.710988
H -13.2757 -8.84552 1.36825
H -11.7211 -8.41151 1.11999
O -14.9169 -0.693776 -4.81126
H 14.008 -0.924243 -4.94944
H -14.5233 -0.375318 -5.67366
O -10.0045 2.055 13.5159
H -9.7731 2.6353 12.7351
H -10.7687 1.45764 13.2724
O 10.5916 4.31031 1.03341
H 10.2648 5.13948 0.579868
H 9.81261 3.72686 1.26304
O 12.714 9.93665 -8.70005
H 13.0972 9.41548 -9.4626
H 13.0909 10.8629 -8.70647
O 12.1309 1.53211 -3.119
H 12.5721 2.13613 -3.78273
H 11.5644 2.07518 -2.49912
O 12.8229 -3.4356 -5.70891
H 12.7763 -2.43831 -5.65164
H 12.5234 -3.73175 -6.61591
O 1.46657 -12.0869 -7.35443
H 2.33129 -11.9353 -7.83333
H 0.749191 -11.5345 -7.77899
O -8.73308 4.28949 -9.7832
H -9.24689 3.52535 -9.39316
H -9.29717 5.11499 -9.7636
O 12.623 4.82368 -0.739414
H 11.8431 4.6871 -0.128626
H 13.3063 4.113 -0.571614
O -11.7935 -11.1608 -10.6929
H -11.5725 -10.932 -11.641
H -11.7172 -10.3409 -10.1256
O 7.062 -5.82126 13.3817
H 7.46449 -6.59539 12.8931
H 7.7331 -5.08271 13.4466
O 6.83506 -2.18303 -0.582734
H 6.86746 -2.60846 -1.48716
H 7.74717 -1.85614 -0.33528
O -6.38896 14.2013 6.45196
H -6.04939 14.3494 7.38084
H -6.2838 -14.8461 5.92068
O -12.0813 10.1228 -12.5985
H -12.3583 9.39511 -13.2261
H -12.3211 11.0107 -12.9911
O 10.0178 13.6923 2.24354
H 10.9958 13.7993 2.42267
H 9.56119 13.3656 3.07104
O 6.67469 13.5867 -0.266867
H 6.50312 14.3165 0.394945
H 6.56344 12.6989 0.179676
O 1.74471 2.61075 14.7218
H 1.21546 3.25445 14.169
H 1.61151 2.81608 -14.1967
O -3.14065 11.5429 9.4235
H -3.99789 11.0546 9.2601
H -2.89708 12.0703 8.60951
O -13.6215 8.28275 11.8506
H -14.0568 8.15833 10.9589
H -13.6672 7.42706 12.3661
O 1.12214 4.22533 -5.55377
H 0.460563 4.58754 -4.89716
H 1.48951 3.35963 -5.21372
O 0.390521 -13.7815 -5.48082
H 0.561248 -13.0833 -6.17608
H 0.928864 -13.5765 -4.66337
O -12.1141 0.764118 3.53269
H -13.0598 0.764221 3.20765
H -12.1015 0.913256 4.52144
O 14.2255 2.73692 -0.760662
H 14.8473 3.08377 -0.0584373
H 14.7499 2.2496 -1.45893
O 13.1224 11.1601 7.37577
H 12.6667 12.0253 7.58512
H 13.1369 11.0221 6.38542
O -5.85677 11.6705 5.67375
H -5.44244 11.1727 6.43569
H -6.15225 12.5731 5.98672
O -5.84503 11.6967 -3.7261
H -5.04916 11.6037 -4.32441
H -6.31627 10.8173 -3.65907
O -3.02304 4.23323 -0.0040892
H -3.32082 3.44273 -0.53932
H -2.12381 4.53234 -0.323388
O -13.9251 -1.65644 -8.99503
H -13.7208 -2.62537 -9.13453
H -14.849 -1.45997 -9.32339
O -2.28162 -6.86407 14.4637
H -1.90133 -6.1825 -14.7992
H -3.15349 -6.53441 14.1015
O -10.4363 14.2119 -12.0248
H -10.4918 -14.8828 -11.4187
H -10.5867 14.503 -12.9696
O 0.377621 2.73291 -8.2447
H 0.369497 3.72355 -8.1083
H 0.947298 2.30453 -7.54328
O -8.88343 2.69673 -1.73777
H -7.88394 2.69189 -1.76972
H -9.24603 2.80146 -2.66383
O -4.00926 -8.9422 0.323773
H -4.85436 -8.46254 0.559892
H -3.22409 -8.3682 0.55627
O -9.13195 -2.81263 8.61511
H -9.11776 -2.27306 7.77327
H -8.3486 -3.43415 8.6259
O 6.03976 -10.8678 4.14441
H 5.74283 -11.5273 3.45381
H 6.95913 -11.105 4.4583
O -6.23618 1.93212 1.2278
H -5.89407 1.19232 1.80719
H -7.2209 2.03652 1.36726
O 14.1586 -6.67951 -9.50958
H 14.7925 -5.97798 -9.18395
H 14.0386 -6.58733 -10.4981
O 10.5459 -14.0033 -13.7461
H 10.0266 -14.616 -13.1503
H 10.7481 -14.4686 -14.6078
O -7.17172 10.6485 13.8519
H -6.76745 10.1593 14.6247
H -8.12553 10.3687 13.7424
O -3.13752 -12.2636 -1.45133
H -3.87993 -12.546 -0.843782
H -3.23657 -11.2927 -1.66971
O -13.7131 -4.68607 -8.96112
H -13.9308 -4.22389 -8.10144
H -12.966 -5.33367 -8.81154
O -13.8141 12.1769 -0.00699003
H -13.9134 12.2067 -1.00161
H -13.5329 13.0766 0.327051
O -8.47348 -4.09012 -2.88899
H -9.21862 -4.7479 -2.99907
H -8.67864 -3.47891 -2.12455
O -8.04693 -6.78735 -7.18139
H -7.66879 -6.02294 -7.70362
H -8.51815 -6.43723 -6.37183
O -3.15318 4.53665 2.8958
H -3.22522 4.56216 1.89871
H -2.50695 3.82259 3.16514
O 0.492172 5.38609 12.4124
H -0.256195 4.74218 12.2532
H 1.35617 4.96954 12.1295
O -14.211 -8.8888 -5.30573
H -13.2447 -8.83018 -5.05523
H -14.4624 -8.09076 -5.85342
O 6.57156 -5.21003 1.55519
H 6.64436 -4.73055 0.680646
H 6.90244 -6.14781 1.44972
O 11.0937 -2.29171 1.39946
H 11.4699 -3.05946 0.880764
H 10.7241 -1.61119 0.766746
O -14.2771 6.51452 -4.58579
H -14.6152 5.646 -4.22333
H -14.8928 6.83815 -5.30427
O 14.8025 4.49327 -3.42433
H 13.9324 4.40203 -2.93989
H -14.4487 3.79371 -3.10026
O 14.8349 -3.48097 4.17351
H -14.8847 -2.99987 3.31317
H 14.4172 -4.36925 3.98244
O 5.15629 11.0687 14.7981
H 5.958 10.4803 14.9031
H 4.83626 11.36 -14.1885
O 5.67458 -1.69341 7.61516
H 5.49399 -1.49932 6.65093
H 6.62647 -1.97956 7.72496
O 1.32595 -5.92733 -10.9385
H 0.503083 -5.91218 -11.5065
H 1.19034 -6.55518 -10.172
O -9.77902 -9.53823 11.188
H -9.94575 -10.5223 11.2501
H -8.81375 -9.37597 10.9832
O -7.96838 11.036 -6.19379
H -8.84777 10.6819 -6.51205
H -8.11907 11.8584 -5.64512
O -3.70413 -10.8156 11.2221
H -3.15182 -11.4144 10.6422
H -3.10525 -10.3009 11.8357
O -2.98244 -2.20908 -12.1475
H -3.96355 -2.20774 -12.341
H -2.66933 -1.26994 -12.006
O -4.91974 -9.2156 -14.3217
H -5.05217 -9.18743 14.5756
H -4.66726 -10.1429 -14.0454
O 3.19085 5.94661 -4.88044
H 2.26393 5.6565 -5.11849
H 3.14842 6.64435 -4.16532
O 6.94275 -6.16471 -7.48229
H 6.28911 -6.87567 -7.74174
H 7.86825 -6.46033 -7.71913
O -5.20331 10.1492 8.01828
H -6.08716 10.2272 8.47954
H -5.20229 9.337 7.4349
O -1.93635 -3.42673 9.05339
H -1.91138 -4.34535 9.44778
H -1.12525 -2.91794 9.34198
O -12.13 14.7168 -5.05919
H -11.9112 -14.1955 -5.05884
H -12.439 14.4448 -5.97055
O -8.61469 14.7392 3.29996
H -7.66046 14.7278 3.00104
H -9.0726 -14.344 2.92245
O 4.74779 -1.2986 0.736388
H 5.46667 -1.69832 0.167643
H 3.92108 -1.85735 0.670206
O -11.0353 -5.0573 3.64279
H -11.6157 -5.44956 4.35646
H -11.3556 -4.13618 3.42151
O -13.7018 14.1804 14.6417
H -14.3645 14.7796 14.1925
H -13.4547 13.4341 14.0236
O 14.7032 -1.59642 9.07404
H 14.9006 -2.47892 9.50091
H 14.5721 -1.72362 8.09084
O 13.6541 9.92007 -14.0027
H 13.1017 9.50009 -14.7228
H 13.0523 10.3232 -13.3132
O 7.78681 7.80928 9.30063
H 8.18117 7.43043 8.46338
H 8.5154 8.19178 9.86886
O -4.18477 13.9371 -14.2416
H -5.1257 13.5994 -14.2671
H -3.92381 14.1258 -13.2949
O -5.00453 5.39775 11.1499
H -4.64237 4.71354 11.7829
H -5.42483 6.14231 11.6686
O -3.42256 -8.18927 9.53753
H -3.04558 -8.31946 8.62048
H -3.76526 -9.06247 9.8841
O 0.6242 -4.97168 0.361227
H 1.27577 -5.72565 0.445033
H 0.380331 -4.63907 1.27223
O 4.7322 -11.8813 -12.8921
H 5.28132 -11.0497 -12.9757
H 4.62607 -12.3026 -13.7927
O -10.9646 7.09267 -4.63469
H -10.2002 6.7323 -4.10004
H -11.7702 6.51708 -4.49427
O 4.04605 -11.2723 6.18296
H 3.35767 -10.5469 6.18337
H 4.8871 -10.9334 5.76127
O 11.7515 6.39376 8.47735
H 12.5339 6.19138 7.88833
H 11.4049 7.30832 8.26872
O -2.61945 -13.8889 -6.02633
H -3.07102 -14.1643 -5.17764
H -1.70502 -13.5409 -5.81961
O -11.1292 -1.6007 -8.15318
H -11.1764 -1.31902 -7.19481
H -12.0288 -1.49383 -8.57669
O 4.6049 -4.59936 9.94847
H 4.84969 -3.63256 9.87497
H 4.40137 -4.82008 10.9023
O -13.4724 -7.24206 9.19493
H -14.4241 -6.95951 9.07488
H -13.0244 -6.63411 9.85044
O -3.63816 -14.4357 -3.45487
H -4.61439 -14.6028 -3.5931
H -3.51169 -13.8286 -2.67035
O 2.03427 14.3653 1.95909
H 2.3164 13.613 1.36379
H 1.08102 14.6008 1.76961
O -11.63 -6.192 -8.21797
H -11.6024 -6.19849 -7.21836
H -10.7147 -6.00654 -8.57555
O -9.26308 -8.21532 7.89806
H -9.99335 -8.2317 7.21508
H -9.39086 -8.97067 8.54084
O -5.96555 -11.1714 7.51327
H -6.55901 -11.5051 8.24573
H -5.89937 -10.175 7.56576
O -9.07832 -5.40071 -9.5213
H -8.84078 -5.48932 -10.4886
H -9.31769 -4.45033 -9.32257
O 7.91412 -12.4074 6.5162
H 8.89494 -12.6012 6.5384
H 7.67092 -11.829 7.29483
O 1.64838 -14.3353 -11.1932
H 0.664929 -14.3694 -11.0152
H 1.90778 -13.4055 -11.4544
O 2.37499 5.3618 4.71407
H 3.27187 5.24285 5.1401
H 2.40695 5.02917 3.77154
O -9.33201 -12.5805 -3.83009
H -9.76274 -12.7669 -4.71313
H -8.81565 -11.7259 -3.88487
O -6.35051 -8.33739 -12.3065
H -5.89051 -8.60768 -13.1523
H -6.68057 -7.39732 -12.3923
O -5.65125 -1.90473 -12.2512
H -5.58297 -0.964832 -11.9166
H -6.57331 -2.25273 -12.0817
O -4.97945 -12.005 -13.8148
H -5.71428 -12.6643 -13.9742
H -4.45374 -11.882 -14.6566
O -4.83384 2.91276 7.66049
H -5.04115 2.90742 6.68221
H -5.51016 2.36014 8.14755
O -6.036 -3.31615 2.37545
H -5.57089 -3.71472 1.58498
H -6.7797 -3.91936 2.66368
O -10.624 6.52745 -9.8224
H -11.3225 6.19957 -9.18635
H -10.06 7.21882 -9.37072
O -11.6177 -13.0708 1.72581
H -12.2452 -12.8917 2.48359
H -10.8114 -12.486 1.81538
O -14.2832 -11.184 -11.7015
H -13.5471 -11.2469 -11.0275
H -14.2097 -10.3176 -12.1954
O 2.0778 11.1262 9.23175
H 2.47608 11.3512 10.121
H 1.20052 10.6655 9.36643
O -3.31962 9.05237 -2.80632
H -3.45573 9.52898 -3.67485
H -2.5262 8.44797 -2.87854
O -12.8599 -12.8241 4.1279
H -13.8256 -12.9273 4.36633
H -12.3332 -13.5667 4.54166
O 3.1135 -14.2913 -8.53168
H 2.61426 -14.5225 -9.36675
H 3.3165 -13.3121 -8.52495
O -8.76956 5.07282 -3.48175
H -8.39318 5.99646 -3.40915
H -8.21402 4.53543 -4.11628
O 4.00804 -11.4981 -8.39076
H 3.78932 -11.046 -7.52598
H 4.90595 -11.9329 -8.32182
O 7.86506 10.1522 -13.5653
H 7.78943 11.1255 -13.7822
H 8.30389 10.0427 -12.6734
O 9.25058 13.938 -11.7143
H 9.1363 13.241 -11.0064
H 10.0143 14.5366 -11.4726
O -11.9674 14.6088 -2.42258
H -11.1029 14.1622 -2.19183
H -12.0265 14.7287 -3.41362
O -1.47928 -6.41331 9.97961
H -2.20543 -7.10075 9.99178
H -0.796155 -6.63772 10.6746
O -9.34152 8.27038 13.006
H -8.36945 8.0976 12.8471
H -9.50726 8.36425 13.9877
O -8.09302 -1.29115 -14.3805
H -8.28754 -1.77904 -13.5295
H -8.74862 -1.57034 14.806
O 6.68117 -10.0291 11.0469
H 5.89811 -9.47189 10.7705
H 7.49051 -9.74485 10.5329
O 13.1768 0.461692 9.87025
H 13.8268 -0.259988 9.63221
H 13.0806 1.09125 9.09925
O 11.296 -10.3504 1.81068
H 11.5761 -10.0797 0.889629
H 11.7006 -11.237 2.03505
O 10.378 11.4151 0.927746
H 10.1659 12.185 1.52963
H 11.3701 11.3185 0.847074
O -3.381 -12.1386 6.92304
H -4.34945 -11.8947 6.97433
H -3.26613 -13.1009 7.16945
O 9.16555 -7.83728 3.32482
H 8.23353 -8.1467 3.51357
H 9.24419 -7.5853 2.36027
O 0.39572 6.72666 14.8498
H -0.556871 6.86544 -14.7674
H 0.427679 6.35408 13.9224
O -6.19732 -5.75392 -12.9423
H -5.81891 -5.45614 -12.0658
H -5.76501 -5.2406 -13.6836
O 14.8481 10.174 2.75842
H -14.768 10.1744 1.7961
H 14.1669 9.45816 2.912
O 9.87947 -14.5355 -5.2363