LAMMPS data file via write_data, version 15 May 2015, timestep = 590000

4560 atoms
7 atom types
5040 bonds
3 bond types
7200 angles
2 angle types
10560 dihedrals
3 dihedral types
2400 impropers
1 improper types

-1.0763502675555259e-01 4.1387635026745990e+01 xlo xhi
-4.0433884491974936e-02 3.5938433884472119e+01 ylo yhi
-3.5711112484589691e-01 2.9555111124838550e+01 zlo zhi
-6.7234083837551181e-02 -1.7036217651000683e+01 -4.1707816797290791e-02 xy xz yz

Masses

1 12.0107
2 1.008
3 12.0107
4 12.0107
5 12.0107
6 12.0107
7 12.0107

Pair Coeffs # lj/cut/coul/long

1 0.07 3.55
2 0.03 2.42
3 0.07 3.55
4 0.07 3.55
5 0.07 3.55
6 0 0
7 0.07 3.55

Bond Coeffs # harmonic

1 469 1.4
2 367 1.08
3 469 0.7

Angle Coeffs # harmonic

1 35 120
2 63 120

Dihedral Coeffs # opls

1 0 7.25 0 0
2 0 7.25 0 0
3 0 7.25 0 0

Improper Coeffs # cvff

1 2.5 -1 2

Atoms # full

219 13 3 0.0000000000000000e+00 -2.9446470114195877e-01 3.0900159248110222e+00 3.1451080101092028e+00 1 0 0
220 13 4 -1.1500000000000000e-01 3.0629082761443849e-01 4.0995252278857617e+00 2.3832566809145046e+00 1 0 0
224 13 2 1.1500000000000000e-01 4.6700128079594361e-01 5.0707674535883545e+00 2.8493479648030462e+00 1 0 0
580 33 4 -1.1500000000000000e-01 2.6667820622575524e+00 6.7846025974354189e+00 3.9791584840529897e+00 1 0 0
228 13 3 0.0000000000000000e+00 -6.2940182943350820e-01 1.8312061543248785e+00 2.5791435315342479e+00 1 0 0
989 53 4 -1.1500000000000000e-01 -1.3630862898015312e+00 7.0369472018556856e+00 3.4903288396342065e+00 1 0 0
600 34 2 1.1500000000000000e-01 3.5994620209976347e-01 5.8416620434675961e+00 6.9413906475056448e+00 1 0 0
245 14 4 -1.1500000000000000e-01 -4.9137852784160740e+00 1.4323620225251190e+00 9.0438484506973058e+00 1 0 0
227 13 4 -1.1500000000000000e-01 -2.0318765930503280e-01 1.5563099907179843e+00 1.2608148091905258e+00 1 0 0
4390 233 1 -1.1500000000000000e-01 2.3425256316596994e+00 7.3539622697033047e-01 5.5216777083438187e+00 1 1 0
733 13 6 0.0000000000000000e+00 -4.2788698685789872e-01 2.4431981329813426e+00 2.9433410539150882e+00 1 0 0
1762 94 2 1.1500000000000000e-01 -3.2585346881277295e+00 1.6754506561826332e+01 1.0242089010381656e+01 1 0 0
230 13 1 -1.1500000000000000e-01 5.7412158947885261e-01 3.8182379018148844e+00 1.0141945952360656e+00 1 0 0
217 13 7 -1.1500000000000000e-01 -1.3971242458588267e+00 2.3925958776069263e+00 5.1672564747029135e+00 1 0 0
218 13 5 -1.1500000000000000e-01 -5.8272968599139663e-01 3.3698617767718244e+00 4.4875282136270149e+00 1 0 0
221 13 1 -1.1500000000000000e-01 -1.6963731285816734e+00 1.1315331813448388e+00 4.5883528392391710e+00 1 0 0
222 13 2 1.1500000000000000e-01 -1.6613466687179628e+00 2.4416310638376992e+00 6.1934541812723483e+00 1 0 0
223 13 2 1.1500000000000000e-01 -2.2026146955172310e-01 4.2376045079960178e+00 4.9491416029276776e+00 1 0 0
248 14 1 -1.1500000000000000e-01 -3.7598947766995003e+00 3.5785289834670664e+00 8.6349395643269418e+00 1 0 0
4380 233 4 -1.1500000000000000e-01 2.5801526229486162e+00 1.1306858384030849e+00 4.1624830544847722e+00 1 1 0
244 14 1 -1.1500000000000000e-01 -4.4164152951616140e+00 2.4286410589891556e+00 8.1418027393581944e+00 1 0 0
603 34 2 1.1500000000000000e-01 1.1655155409038924e+00 3.6877583944346761e+00 7.6560226025467131e+00 1 0 0
4396 234 5 -1.1500000000000000e-01 -7.7288099486891948e-01 1.8747745942388061e-01 9.2387106568406541e+00 1 1 0
4394 233 2 1.1500000000000000e-01 1.7785906205727939e+00 1.2966186135866022e+00 6.2149994034243212e+00 1 1 0
579 33 3 0.0000000000000000e+00 3.3704073805374755e+00 5.8582245300268383e+00 3.1714390181383170e+00 1 0 0
252 14 2 1.1500000000000000e-01 -3.3319556287662326e+00 4.3486158569058357e+00 7.9811465050684376e+00 1 0 0
581 33 1 -1.1500000000000000e-01 4.7268340052961957e+00 4.0471296495465667e+00 1.5116156843562500e+00 1 0 0
596 34 5 -1.1500000000000000e-01 -5.3703726767808924e-01 6.3248662430267109e+00 8.8732471204198138e+00 1 0 0
577 33 7 -1.1500000000000000e-01 4.2272838407965025e+00 5.2371856846638645e+00 9.8291067501499185e-01 1 0 0
588 33 3 0.0000000000000000e+00 3.9053721221317832e+00 4.6592448981689421e+00 3.7192662661085558e+00 1 0 0
589 33 4 -1.1500000000000000e-01 4.5180299980238541e+00 3.7121115445560893e+00 2.8541222845648724e+00 1 0 0
593 33 2 1.1500000000000000e-01 4.7505777170024786e+00 2.7842934735793756e+00 3.2710466232249997e+00 1 0 0
753 33 6 0.0000000000000000e+00 3.6376356921076782e+00 5.1982173777625640e+00 3.2997149751057484e+00 1 0 0
4383 233 2 1.1500000000000000e-01 3.0212013332054468e+00 1.4064024667790593e+00 1.4769594879922905e+00 1 1 0
4379 233 3 0.0000000000000000e+00 3.2758539918360881e+00 2.3478603509520146e-01 3.2756423886126163e+00 1 1 0
578 33 5 -1.1500000000000000e-01 3.4862600172252840e+00 6.1300060589487382e+00 1.8097707786289798e+00 1 0 0
226 13 1 -1.1500000000000000e-01 3.2339715799409186e-01 2.5728060329425384e+00 4.4380979670801235e-01 1 0 0
4384 233 2 1.1500000000000000e-01 2.1896237575527495e+00 2.1534931410969809e+00 3.8806188615686672e+00 1 1 0
586 33 1 -1.1500000000000000e-01 3.1851308921153780e+00 5.3645706517847529e+00 5.9773848464576878e+00 1 0 0
587 33 4 -1.1500000000000000e-01 3.8019525827621727e+00 4.3988422216548013e+00 5.1771480668041372e+00 1 0 0
585 33 2 1.1500000000000000e-01 5.3361395317438047e+00 3.3854513385067704e+00 9.1267391017477473e-01 1 0 0
591 33 2 1.1500000000000000e-01 3.0195965890019112e+00 5.2366531267984096e+00 7.0180505470311552e+00 1 0 0
592 33 2 1.1500000000000000e-01 4.2411194163750698e+00 3.5498714368146436e+00 5.6685239310405100e+00 1 0 0
590 33 1 -1.1500000000000000e-01 2.6253409773357581e+00 6.5602911919570337e+00 5.3708027983958431e+00 1 0 0
1342 73 2 1.1500000000000000e-01 4.5912039453014044e+00 1.1706777317472877e+01 -2.0939980490796972e-01 1 0 0
234 13 2 1.1500000000000000e-01 1.1026980198807184e+00 4.5485422922638730e+00 3.4150575132712802e-01 1 0 0
229 13 4 -1.1500000000000000e-01 -1.2072944834346222e+00 8.4616007983175634e-01 3.3388426800784332e+00 1 0 0
1756 94 5 -1.1500000000000000e-01 -4.6312942252204117e+00 1.5170446707300680e+01 1.2008286277025496e+01 1 0 0
985 53 2 1.1500000000000000e-01 -1.5798819330229312e+00 6.2430797205744604e+00 5.5361195935196772e+00 1 0 0
599 34 1 -1.1500000000000000e-01 6.0965896888795790e-01 4.2555605186530823e+00 8.3366086033882407e+00 1 0 0
4401 234 2 1.1500000000000000e-01 -1.2117595969821098e+00 1.1380712755378959e+00 8.8575116195631445e+00 1 1 0
225 13 2 1.1500000000000000e-01 -2.2414555385904675e+00 4.1336552109243491e-01 5.2346722708637907e+00 1 0 0
595 34 7 -1.1500000000000000e-01 1.5300375289916879e-01 5.5144775616389765e+00 7.9177609237688422e+00 1 0 0
981 53 1 -1.1500000000000000e-01 -1.2214509688691506e+00 7.0451815181807209e+00 4.9401425822208207e+00 1 0 0
4378 233 5 -1.1500000000000000e-01 3.4457050685968431e+00 5.0207126043071759e-01 1.9234310263442644e+00 1 1 0
582 33 2 1.1500000000000000e-01 4.0974503702755865e+00 5.4777175403007092e+00 -9.1960070035809860e-02 1 0 0
583 33 2 1.1500000000000000e-01 3.1108771255806165e+00 6.9913390878909496e+00 1.3784626091745900e+00 1 0 0
251 14 2 1.1500000000000000e-01 -6.3214024734981926e+00 1.1237976127367463e-01 1.0679356190380993e+01 1 0 0
232 13 2 1.1500000000000000e-01 -3.1154868149244774e-01 5.9612802676263410e-01 8.4840735811535195e-01 1 0 0
235 14 7 -1.1500000000000000e-01 -5.3611593165225404e+00 2.3259729373719988e+00 1.3171513526483894e+01 1 0 0
236 14 5 -1.1500000000000000e-01 -4.5601043506546031e+00 3.1395234732071362e+00 1.2343701663583499e+01 1 0 0
597 34 3 0.0000000000000000e+00 -6.6619211471676198e-01 5.8940640270014901e+00 1.0224242843572624e+01 1 0 0
734 14 6 0.0000000000000000e+00 -4.6128762337672304e+00 2.3614058569700527e+00 1.0496971158293478e+01 1 0 0
239 14 1 -1.1500000000000000e-01 -6.0176444373718425e+00 1.1736084215150844e+00 1.2605869103099272e+01 1 0 0
240 14 2 1.1500000000000000e-01 -5.4456294343250686e+00 2.5046837153341412e+00 1.4227124671466497e+01 1 0 0
243 14 2 1.1500000000000000e-01 -6.6983804897696535e+00 6.1779003672147503e-01 1.3203505643729846e+01 1 0 0
237 14 3 0.0000000000000000e+00 -4.3905030045573259e+00 2.8733581392489778e+00 1.0935611296138278e+01 1 0 0
4402 234 2 1.1500000000000000e-01 -1.9928471506551793e+00 1.6942823309748394e+00 1.1015859237045341e+01 1 1 0
1010 54 2 1.1500000000000000e-01 -4.9766338966509247e+00 6.3630815706186459e+00 8.5694962374883676e+00 1 0 0
242 14 2 1.1500000000000000e-01 -3.2967649068467293e+00 4.6969955404419954e+00 1.0323076948727996e+01 1 0 0
4408 234 1 -1.1500000000000000e-01 -1.8804221547130959e+00 3.3070492739535390e-01 1.2713933893669639e+01 1 1 0
238 14 4 -1.1500000000000000e-01 -3.7019139810281674e+00 3.7427515568500946e+00 1.0017827249804260e+01 1 0 0
246 14 3 0.0000000000000000e+00 -5.0237056645760756e+00 1.7559913898385644e+00 1.0407184110913773e+01 1 0 0
604 34 1 -1.1500000000000000e-01 -9.8928907655281417e-01 4.9547132101189000e+00 1.2858067203095386e+01 1 0 0
605 34 4 -1.1500000000000000e-01 -3.7841569950903420e-01 4.1019063708957733e+00 1.1886214076354868e+01 1 0 0
606 34 3 0.0000000000000000e+00 -2.8981266457528587e-01 4.5575156846853817e+00 1.0566806483229367e+01 1 0 0
607 34 4 -1.1500000000000000e-01 4.2564226226484969e-01 3.7463242803230097e+00 9.6118874333590139e+00 1 0 0
611 34 2 1.1500000000000000e-01 7.6388500911880808e-01 2.7346549342340496e+00 9.8852652592570731e+00 1 0 0
610 34 2 1.1500000000000000e-01 -1.2191940419841174e-01 3.0678204004015459e+00 1.2156387641523846e+01 1 0 0
241 14 2 1.1500000000000000e-01 -4.0340620433414394e+00 3.9740666563495650e+00 1.2831878521537064e+01 1 0 0
1011 54 2 1.1500000000000000e-01 -6.1880165007134309e+00 6.2767970288003712e+00 1.0655176657932563e+01 1 0 0
598 34 4 -1.1500000000000000e-01 -1.1750633063411078e+00 6.7926337896675877e+00 1.1222022291836977e+01 1 0 0
754 34 6 0.0000000000000000e+00 -4.2974680615996963e-01 5.2701304219016754e+00 1.0477587223726990e+01 1 0 0
609 34 2 1.1500000000000000e-01 -1.0789227183921701e+00 4.4872561069395651e+00 1.3778319581948077e+01 1 0 0
4398 234 4 -1.1500000000000000e-01 -1.6129568172666904e+00 7.6426395432533956e-01 1.1390589727434145e+01 1 1 0
4412 234 2 1.1500000000000000e-01 -2.5266206115807135e+00 9.0432910566918545e-01 1.3314902391796595e+01 1 1 0
247 14 4 -1.1500000000000000e-01 -5.7700333583837509e+00 8.7801805590893967e-01 1.1250826073958061e+01 1 0 0
608 34 1 -1.1500000000000000e-01 -1.3073581397352090e+00 6.3091848970313462e+00 1.2549585477583241e+01 1 0 0
612 34 2 1.1500000000000000e-01 -1.5217437886582879e+00 6.9114135844350839e+00 1.3397368942904112e+01 1 0 0
979 53 3 0.0000000000000000e+00 -2.0643135979747074e-01 9.1346423293453807e+00 3.3231291497116033e+00 1 0 0
980 53 4 -1.1500000000000000e-01 5.7964345006176865e-01 1.0008363280690244e+01 2.5062453157531110e+00 1 0 0
984 53 2 1.1500000000000000e-01 1.1927268099383526e+00 1.0738148859756794e+01 2.9518867627813048e+00 1 0 0
1361 74 2 1.1500000000000000e-01 -1.0082434437405770e+00 1.3352668958194590e+01 8.5581073122778584e+00 1 0 0
990 53 1 -1.1500000000000000e-01 6.7032708333809321e-01 9.8171285065082703e+00 1.1113886185135908e+00 1 0 0
2253 93 6 0.0000000000000000e+00 -3.7579974225163548e-01 1.4264601534532437e+01 2.9722701083845120e+00 1 0 0
1493 53 6 0.0000000000000000e+00 -5.5371430692902668e-01 8.6561163603618780e+00 2.9751530112704745e+00 1 0 0
986 53 1 -1.1500000000000000e-01 -1.2512785060652376e-01 8.8224006380473465e+00 4.9210450833205766e-01 1 0 0
1005 54 4 -1.1500000000000000e-01 -4.5210935119804008e+00 7.2287003823448002e+00 8.8850909478956321e+00 1 0 0
994 53 2 1.1500000000000000e-01 1.2033162893729874e+00 1.0649851839017572e+01 6.3780796356877634e-01 1 0 0
594 33 2 1.1500000000000000e-01 2.1610613031205403e+00 7.2488618098582087e+00 6.0788911684677434e+00 1 0 0
1741 93 1 -1.1500000000000000e-01 -1.5888763177360268e+00 1.3500546652712025e+01 4.9089317462908468e+00 1 0 0
977 53 7 -1.1500000000000000e-01 -7.1652220810227973e-01 8.1574920240357578e+00 5.5468390518395285e+00 1 0 0
978 53 5 -1.1500000000000000e-01 -1.5955363331792727e-01 9.2937536787926511e+00 4.7457228146001382e+00 1 0 0
982 53 2 1.1500000000000000e-01 -6.6190651590946459e-01 8.1419403035832190e+00 6.6169237997491539e+00 1 0 0
983 53 2 1.1500000000000000e-01 3.3445959696296068e-01 1.0107461463463348e+01 5.2406288560812984e+00 1 0 0
1012 54 2 1.1500000000000000e-01 -2.3276811688127270e+00 9.4045506933322507e+00 7.5709014110303627e+00 1 0 0
1004 54 1 -1.1500000000000000e-01 -3.6525590595926434e+00 7.8563921476981378e+00 7.9685764938070864e+00 1 0 0
1363 74 2 1.1500000000000000e-01 1.1237104033139369e+00 9.5241310308429057e+00 7.8448141847505379e+00 1 0 0
1745 93 2 1.1500000000000000e-01 -2.2108913927628615e+00 1.3018370521140202e+01 5.6255009044656017e+00 1 0 0
1008 54 1 -1.1500000000000000e-01 -3.0129874796115321e+00 8.9950607264524525e+00 8.3470182348030910e+00 1 0 0
1338 73 5 -1.1500000000000000e-01 3.6598299491057897e+00 1.2254794015827050e+01 1.6674914100580454e+00 1 0 0
1339 73 3 0.0000000000000000e+00 3.5009686178733528e+00 1.1923528545204951e+01 3.0602200976643745e+00 1 0 0
1340 73 4 -1.1500000000000000e-01 2.8219857473545917e+00 1.2803317644338327e+01 3.9306840603928883e+00 1 0 0
1341 73 1 -1.1500000000000000e-01 4.7254874568630951e+00 1.0114059904173235e+01 1.2552973266037661e+00 1 0 0
1337 73 7 -1.1500000000000000e-01 4.3158939400320726e+00 1.1367387323247595e+01 8.2071781783701048e-01 1 0 0
1343 73 2 1.1500000000000000e-01 3.2928028809236576e+00 1.3181234058958498e+01 1.3062192548370322e+00 1 0 0
988 53 3 0.0000000000000000e+00 -7.4859424660080265e-01 8.0292396739798910e+00 2.7311198202027174e+00 1 0 0
1348 73 3 0.0000000000000000e+00 3.8773163279893690e+00 1.0626618124643255e+01 3.4409123224244778e+00 1 0 0
1349 73 4 -1.1500000000000000e-01 4.6304682404610595e+00 9.8206135085019888e+00 2.5920957128820947e+00 1 0 0
1353 73 2 1.1500000000000000e-01 4.9586739631088443e+00 8.8491593322581572e+00 2.9428166508800997e+00 1 0 0
1513 73 6 0.0000000000000000e+00 3.6989055018699690e+00 1.1275479468719777e+01 3.2397526781623109e+00 1 0 0
1356 74 5 -1.1500000000000000e-01 -6.5070582430896984e-01 1.2348192048671217e+01 8.8383169294768376e+00 1 0 0
1354 73 2 1.1500000000000000e-01 2.1932311238362221e+00 1.3245831274739340e+01 5.8962049354697319e+00 1 0 0
1346 73 1 -1.1500000000000000e-01 2.9598942845224827e+00 1.1210977086309331e+01 5.6677109531093306e+00 1 0 0
1347 73 4 -1.1500000000000000e-01 3.6329473330088873e+00 1.0248397749503683e+01 4.7835577224521142e+00 1 0 0
1350 73 1 -1.1500000000000000e-01 2.5823860895643125e+00 1.2491281361308646e+01 5.2414467145366199e+00 1 0 0
1351 73 2 1.1500000000000000e-01 2.8869649099439503e+00 1.0922278273840927e+01 6.7154408487901076e+00 1 0 0
1352 73 2 1.1500000000000000e-01 3.8892022652045100e+00 9.3200220319390468e+00 5.2587600223799473e+00 1 0 0
1345 73 2 1.1500000000000000e-01 5.1636415572813750e+00 9.3109285619732312e+00 6.7979030568148624e-01 1 0 0
1355 74 7 -1.1500000000000000e-01 -4.4117534140755588e-02 1.1478513541544407e+01 7.9205601317808423e+00 1 0 0
1359 74 1 -1.1500000000000000e-01 5.9572804964057546e-01 1.0288676995856795e+01 8.4042505434315959e+00 1 0 0
1360 74 2 1.1500000000000000e-01 -2.4764940345223252e-02 1.1750394973915673e+01 6.8711543610669654e+00 1 0 0
1747 93 4 -1.1500000000000000e-01 -6.0297290183308438e-01 1.3207240632864677e+01 1.3100913686956988e+00 1 0 0
1748 93 3 0.0000000000000000e+00 -6.5723277977854444e-01 1.3694927722237814e+01 2.6230993937153477e+00 1 0 0
601 34 2 1.1500000000000000e-01 -8.6739927431350505e-01 7.3064101027208039e+00 8.6527125718275393e+00 1 0 0
2129 114 2 1.1500000000000000e-01 -2.2289907346843574e-01 1.7033541298304954e+01 1.3799912121130284e+01 1 0 0
1746 93 1 -1.1500000000000000e-01 1.2520935468479305e-01 1.3915743642736189e+01 3.6327965653998051e-01 1 0 0
584 33 2 1.1500000000000000e-01 2.4008224148962634e+00 7.7052997447669487e+00 3.4215526399052791e+00 1 0 0
1765 94 4 -1.1500000000000000e-01 -5.1979419123911885e+00 1.3757661348444550e+01 8.6231068928316308e+00 1 0 0
1749 93 4 -1.1500000000000000e-01 -1.4807820364710347e+00 1.3038766767043708e+01 3.5770714160032573e+00 1 0 0
2513 133 2 1.1500000000000000e-01 -1.5616909151914027e+00 1.7835478994287211e+01 3.1248003783366025e+00 1 0 0
1344 73 2 1.1500000000000000e-01 2.5509282711037073e+00 1.3812540011135175e+01 3.6395332231322017e+00 1 0 0
1009 54 2 1.1500000000000000e-01 -3.4821673601734231e+00 7.4672975233583223e+00 7.0095998849194512e+00 1 0 0
987 53 4 -1.1500000000000000e-01 -8.0453131563483482e-01 7.9564467165386743e+00 1.3275163540063020e+00 1 0 0
995 54 7 -1.1500000000000000e-01 -5.3718552700351854e+00 8.8523732065156597e+00 1.2734933497811227e+01 1 0 0
996 54 5 -1.1500000000000000e-01 -4.5195980475121651e+00 9.5100717513312727e+00 1.1779079704504145e+01 1 0 0
997 54 3 0.0000000000000000e+00 -4.2217082256149236e+00 9.0147585509269010e+00 1.0505411685798325e+01 1 0 0
1001 54 2 1.1500000000000000e-01 -4.1507776123773183e+00 1.0464224314297523e+01 1.2066148215820444e+01 1 0 0
1371 74 2 1.1500000000000000e-01 8.8724881654678001e-01 9.1732984727728599e+00 1.0311807598447450e+01 1 0 0
1357 74 3 0.0000000000000000e+00 -6.5757140450108764e-01 1.2135579653064646e+01 1.0222770789560363e+01 1 0 0
1767 94 4 -1.1500000000000000e-01 -6.0046477015939663e+00 1.3079749061650951e+01 1.0861516466059058e+01 1 0 0
998 54 4 -1.1500000000000000e-01 -3.2739095724918137e+00 9.5875462868140584e+00 9.6131899344917162e+00 1 0 0
1494 54 6 0.0000000000000000e+00 -4.5460894571003294e+00 8.4200228546511671e+00 1.0301936577389124e+01 1 0 0
1362 74 2 1.1500000000000000e-01 -1.7246411739607383e+00 1.3964089857681346e+01 1.0783224022598294e+01 1 0 0
1003 54 2 1.1500000000000000e-01 -6.6823541294836364e+00 7.1379003837642951e+00 1.2900708696417091e+01 1 0 0
999 54 1 -1.1500000000000000e-01 -5.9480410685381342e+00 7.5988303227038463e+00 1.2358504026595195e+01 1 0 0
1372 74 2 1.1500000000000000e-01 -1.5837145186759143e+00 1.3350232682794861e+01 1.3205640027988757e+01 1 0 0
1514 74 6 0.0000000000000000e+00 -2.5300895135723955e-01 1.1636864488301773e+01 1.0544185411079546e+01 1 0 0
602 34 2 1.1500000000000000e-01 -1.3647943677700356e+00 7.7662550334714906e+00 1.0910851427054148e+01 1 0 0
1358 74 4 -1.1500000000000000e-01 -1.2728025030479646e+00 1.3039766026593924e+01 1.1126313828135675e+01 1 0 0
1364 74 1 -1.1500000000000000e-01 -6.1711884728907229e-01 1.1491607656748860e+01 1.2951000904114798e+01 1 0 0
1365 74 4 -1.1500000000000000e-01 -1.1074235956380729e-01 1.0565392693567896e+01 1.2028346786292317e+01 1 0 0
1366 74 3 0.0000000000000000e+00 -7.8130331629669314e-02 1.0947885315335496e+01 1.0655843499721275e+01 1 0 0
1759 94 1 -1.1500000000000000e-01 -6.0656080868530768e+00 1.3198665401338033e+01 1.2276196278642804e+01 1 0 0
1368 74 1 -1.1500000000000000e-01 -1.2127735681615741e+00 1.2703988673528608e+01 1.2470791917431912e+01 1 0 0
1369 74 2 1.1500000000000000e-01 -4.7900353379297389e-01 1.1373315763842884e+01 1.4004960352169736e+01 1 0 0
1370 74 2 1.1500000000000000e-01 4.0293634208725226e-01 9.6491543813945064e+00 1.2368706696080034e+01 1 0 0
1378 75 2 1.1500000000000000e-01 -4.0757586207820120e+00 1.1756995239792584e+01 1.3974073129624664e+01 1 0 0
1000 54 2 1.1500000000000000e-01 -5.6032373026858391e+00 9.3914192515050594e+00 1.3667514520475617e+01 1 0 0
1766 94 3 0.0000000000000000e+00 -5.2320383524756471e+00 1.3958195877048743e+01 1.0019940320466086e+01 1 0 0
1006 54 3 0.0000000000000000e+00 -4.8161007632796693e+00 7.8144158071974514e+00 1.0167979456295138e+01 1 0 0
1763 94 2 1.1500000000000000e-01 -6.6292427598744652e+00 1.2421234141168451e+01 1.2775668592814391e+01 1 0 0
1367 74 4 -1.1500000000000000e-01 5.3358451754506042e-01 1.0073806791461342e+01 9.7680285619686238e+00 1 0 0
1002 54 2 1.1500000000000000e-01 -2.8159435562486346e+00 1.0546194945607471e+01 9.8633453621273510e+00 1 0 0
1755 94 7 -1.1500000000000000e-01 -5.3618153518315879e+00 1.4284013152117240e+01 1.2845031529291093e+01 1 0 0
1007 54 4 -1.1500000000000000e-01 -5.7133794967126068e+00 7.1478173204493283e+00 1.1033581240913472e+01 1 0 0
1737 93 7 -1.1500000000000000e-01 -9.1003402814571022e-01 1.4671002444790021e+01 5.2557745524331798e+00 1 0 0
1740 93 4 -1.1500000000000000e-01 6.8740147782218153e-01 1.5603429303654787e+01 2.0223419335642019e+00 1 0 0
1744 93 2 1.1500000000000000e-01 1.1832070615798289e+00 1.6575631134077302e+01 2.2268190060776263e+00 1 0 0
1768 94 1 -1.1500000000000000e-01 -3.7769670759207088e+00 1.5796313292927053e+01 8.3660245894913743e+00 1 0 0
1750 93 1 -1.1500000000000000e-01 7.4989291758108179e-01 1.5109396945049269e+01 7.2405569492488242e-01 1 0 0
2112 113 2 1.1500000000000000e-01 3.8246436492996687e+00 1.5543425134333081e+01 5.3830470781637363e+00 1 0 0
2119 114 1 -1.1500000000000000e-01 5.3999508430443299e-01 1.5781988564500750e+01 8.1376531193742512e+00 1 0 0
2131 114 2 1.1500000000000000e-01 1.0352676643342971e+00 1.4637252956484508e+01 9.8289223964330432e+00 1 0 0
1743 93 2 1.1500000000000000e-01 4.0411679839159964e-01 1.6264366316939359e+01 4.5463035794070343e+00 1 0 0
2127 114 4 -1.1500000000000000e-01 6.1043416901053060e-01 1.5510704083842271e+01 9.5340133973454471e+00 1 0 0
1772 94 2 1.1500000000000000e-01 -3.2138043158328271e+00 1.6532751115022517e+01 7.8545133102293487e+00 1 0 0
1739 93 3 0.0000000000000000e+00 -7.1719144523498812e-03 1.4877345430637998e+01 2.9787126943865614e+00 1 0 0
1754 93 2 1.1500000000000000e-01 1.3589490310177688e+00 1.5649396319671069e+01 2.8192325182265776e-02 1 0 0
2097 113 7 -1.1500000000000000e-01 4.2503894799293445e+00 1.7246777681335665e+01 1.0480614280460590e+00 1 0 0
1760 94 2 1.1500000000000000e-01 -5.4235451863625954e+00 1.4317327999123588e+01 1.3893562208050730e+01 1 0 0
2101 113 1 -1.1500000000000000e-01 4.7654405849881618e+00 1.6053343381488538e+01 1.6744668940677059e+00 1 0 0
2113 113 2 1.1500000000000000e-01 4.9598579061658796e+00 1.4903724965511147e+01 3.5421616522094803e+00 1 0 0
1738 93 5 -1.1500000000000000e-01 -1.5755665954092990e-01 1.5347470511147565e+01 4.3265924921290884e+00 1 0 0
2108 113 3 0.0000000000000000e+00 3.8260838519538534e+00 1.6785149995684659e+01 3.8106021133841850e+00 1 0 0
2109 113 4 -1.1500000000000000e-01 4.5464517819480719e+00 1.5851089824878940e+01 3.0457705573256999e+00 1 0 0
2273 113 6 0.0000000000000000e+00 3.6343453139059210e+00 1.7317103517723154e+01 3.3943080193468571e+00 1 0 0
2106 113 1 -1.1500000000000000e-01 2.8220694356736922e+00 1.7386272595110402e+01 5.8796079655889271e+00 1 0 0
2107 113 4 -1.1500000000000000e-01 3.6038404296117830e+00 1.6517034917968317e+01 5.1420468342231178e+00 1 0 0
2111 113 2 1.1500000000000000e-01 2.6894403066987076e+00 1.7213294052833966e+01 6.9343039257147110e+00 1 0 0
2115 114 7 -1.1500000000000000e-01 1.7835233559276631e-02 1.7018045329926650e+01 7.7058764626120997e+00 1 0 0
2102 113 2 1.1500000000000000e-01 4.2938974777311412e+00 1.7293634227105773e+01 -6.2797196109655062e-02 1 0 0
2120 114 2 1.1500000000000000e-01 6.6696988852492645e-02 1.7356149817996339e+01 6.7134200210733752e+00 1 0 0
2123 114 2 1.1500000000000000e-01 8.7934415849808367e-01 1.5057044731336658e+01 7.3477739325815925e+00 1 0 0
1758 94 4 -1.1500000000000000e-01 -3.8258707731572592e+00 1.5961107043275438e+01 9.7840992509770661e+00 1 0 0
2105 113 2 1.1500000000000000e-01 5.3582272181216961e+00 1.5310797137824309e+01 1.1426264012356075e+00 1 0 0
1742 93 2 1.1500000000000000e-01 -1.0392975252005727e+00 1.5160268217641427e+01 6.1859159728726327e+00 1 0 0
1764 94 1 -1.1500000000000000e-01 -4.4588771812662618e+00 1.4636311656402517e+01 7.7883947762304970e+00 1 0 0
2117 114 3 0.0000000000000000e+00 -5.2118817060193123e-01 1.7622135895325435e+01 9.9653060847250092e+00 1 0 0
1761 94 2 1.1500000000000000e-01 -4.0686198248162366e+00 1.6005007857537453e+01 1.2381640901306266e+01 1 0 0
2274 114 6 0.0000000000000000e+00 -2.7775484579497256e-01 1.7038526725232909e+01 1.0283603581047624e+01 1 0 0
2254 94 6 0.0000000000000000e+00 -5.0605417017307746e+00 1.4610386089004479e+01 1.0301016976103821e+01 1 0 0
2130 114 2 1.1500000000000000e-01 6.0537243511678440e-01 1.5255506554892547e+01 1.2054937418137314e+01 1 0 0
2124 114 1 -1.1500000000000000e-01 -3.1593011124350046e-01 1.7201291676750134e+01 1.2767525423527742e+01 1 0 0
2125 114 4 -1.1500000000000000e-01 1.8304380205698045e-01 1.6260393916497907e+01 1.1813174343441583e+01 1 0 0
2126 114 3 0.0000000000000000e+00 1.3376270121163092e-01 1.6464321192109917e+01 1.0433280146031796e+01 1 0 0
2116 114 5 -1.1500000000000000e-01 -5.3177995123747035e-01 1.7918829724079874e+01 8.6318265013875450e+00 1 0 0
1757 94 3 0.0000000000000000e+00 -4.5271698945005472e+00 1.5047890318141951e+01 1.0576754314655505e+01 1 0 0
2138 115 2 1.1500000000000000e-01 -3.7426997242512039e+00 1.7253341107628554e+01 1.4333414089471759e+01 1 0 0
993 53 2 1.1500000000000000e-01 -1.8422388239954035e+00 6.1712657391612931e+00 3.1252773750015370e+00 1 0 0
1064 57 2 1.1500000000000000e-01 7.2461964306089142e+00 6.3567974703961188e+00 9.0349493498790179e-01 1 0 0
1753 93 2 1.1500000000000000e-01 -1.7289329987336042e+00 1.2013734363148204e+01 3.4403155339914293e+00 1 0 0
4382 233 2 1.1500000000000000e-01 4.2906590776641531e+00 6.7016303480355574e-02 4.8228612422662576e-02 1 1 0
2099 113 3 0.0000000000000000e+00 3.2957357477901899e+00 1.7936873347028339e+01 3.1964695849905946e+00 1 0 0
4416 235 4 -1.1500000000000000e-01 -5.8673975514880574e+00 8.7676373087544901e-01 1.9064238188246158e+01 1 1 0
4420 235 2 1.1500000000000000e-01 -6.2621952594314862e+00 1.8121135513650337e+00 1.8617356244624023e+01 1 1 0
255 15 3 0.0000000000000000e+00 -8.7089266476012206e+00 3.0818526913886815e+00 1.8228965601114552e+01 1 0 0
256 15 4 -1.1500000000000000e-01 -8.0244651850786912e+00 3.8725552695493093e+00 1.7207329927517193e+01 1 0 0
260 15 2 1.1500000000000000e-01 -7.6187851943010250e+00 4.7971291121554334e+00 1.7400157571476424e+01 1 0 0
285 16 2 1.1500000000000000e-01 -1.2454563771823203e+01 2.0787153533573663e+00 2.2085799197115076e+01 1 0 0
4414 235 5 -1.1500000000000000e-01 -4.9002791444232638e+00 3.2965012899155965e-01 1.6849626969475846e+01 1 1 0
264 15 3 0.0000000000000000e+00 -9.2838380918395202e+00 1.8317514830746495e+00 1.7854439858045350e+01 1 0 0
262 15 1 -1.1500000000000000e-01 -8.5709762659762916e+00 2.1792755431476172e+00 1.5546946617513557e+01 1 0 0
266 15 1 -1.1500000000000000e-01 -8.0123984159281854e+00 3.4178227316634557e+00 1.5879751276757695e+01 1 0 0
263 15 4 -1.1500000000000000e-01 -9.1720296581219447e+00 1.3847346748076139e+00 1.6530344666021893e+01 1 0 0
735 15 6 0.0000000000000000e+00 -8.9311389300733772e+00 2.4123596781706738e+00 1.8051527462635399e+01 1 0 0
265 15 4 -1.1500000000000000e-01 -1.0032717038889986e+01 1.1241611218754610e+00 1.8743362798933244e+01 1 0 0
2256 96 6 0.0000000000000000e+00 -1.3126979943814899e+01 1.4356927415417456e+01 2.5029789284394116e+01 1 0 0
613 35 7 -1.1500000000000000e-01 -4.5439037604281163e+00 5.5453705246252323e+00 1.6071129578026827e+01 1 0 0
618 35 2 1.1500000000000000e-01 -4.4797068429567570e+00 5.9809216171671604e+00 1.5084591304233451e+01 1 0 0
615 35 3 0.0000000000000000e+00 -5.2805439231811189e+00 5.7868504838029526e+00 1.8418282029543725e+01 1 0 0
617 35 1 -1.1500000000000000e-01 -3.8372707519069547e+00 4.3370713500042433e+00 1.6351975146427911e+01 1 0 0
621 35 2 1.1500000000000000e-01 -3.3395294902738648e+00 3.7965270176440811e+00 1.5522404353878645e+01 1 0 0
624 35 3 0.0000000000000000e+00 -4.6569646287819220e+00 4.5323056611418799e+00 1.8686515012259711e+01 1 0 0
625 35 4 -1.1500000000000000e-01 -4.0075984052917670e+00 3.8071895523184156e+00 1.7656788969718452e+01 1 0 0
629 35 2 1.1500000000000000e-01 -3.5318759017060399e+00 2.8505559615998046e+00 1.7885853861248997e+01 1 0 0
755 35 6 0.0000000000000000e+00 -4.9661931768902425e+00 5.1208011600317445e+00 1.8435487262165232e+01 1 0 0
270 15 2 1.1500000000000000e-01 -7.5748278013541803e+00 3.9933649885809719e+00 1.5109309545160288e+01 1 0 0
614 35 5 -1.1500000000000000e-01 -5.2016193831225310e+00 6.3107890355213767e+00 1.7119646721929893e+01 1 0 0
4419 235 2 1.1500000000000000e-01 -5.3340424493766045e+00 1.2887381724964457e+00 1.6552501944792063e+01 1 1 0
1025 55 4 -1.1500000000000000e-01 -9.7995197843734712e+00 6.7415857761242961e+00 1.8340397967468906e+01 1 0 0
616 35 4 -1.1500000000000000e-01 -5.9362858714854081e+00 6.5399872032465751e+00 1.9399926607550988e+01 1 0 0
269 15 2 1.1500000000000000e-01 -1.0328229214238362e+01 9.5849785674854610e-02 1.8468374281727936e+01 1 0 0
1063 57 2 1.1500000000000000e-01 -8.7533034748803669e+00 8.0175875338989222e+00 2.9246941648432372e+01 1 0 -1
254 15 5 -1.1500000000000000e-01 -8.9412068443211048e+00 3.5793043032315230e+00 1.9522458737838363e+01 1 0 0
280 16 1 -1.1500000000000000e-01 -1.2633498629791196e+01 2.3747582088342440e+00 2.3089174772537572e+01 1 0 0
2151 116 7 -1.1500000000000000e-01 -8.8798974571055247e+00 1.7672115719028053e+01 2.3404096337210746e+01 1 0 0
258 15 2 1.1500000000000000e-01 -9.7315140150550210e+00 3.1902655633927210e+00 2.1440476155837430e+01 1 0 0
634 36 4 -1.1500000000000000e-01 -1.0194869862822870e+01 6.4087093361301282e+00 2.6183356127854061e+01 1 0 0
4433 236 3 0.0000000000000000e+00 -9.5289449856523589e+00 5.8979908896099505e-02 2.5599379945167009e+01 1 1 0
257 15 1 -1.1500000000000000e-01 -1.0165663993380928e+01 1.5588657090311062e+00 2.0071522397678571e+01 1 0 0
284 16 1 -1.1500000000000000e-01 -1.2085754305165016e+01 3.5640608666924898e+00 2.3631862449898847e+01 1 0 0
279 16 2 1.1500000000000000e-01 -1.4815357999186718e+01 6.2838096080401984e-01 2.8290848362605679e+01 1 0 0
2276 116 6 0.0000000000000000e+00 -9.0866792918253054e+00 1.7292692578457853e+01 2.5799040177069710e+01 1 0 0
288 16 2 1.1500000000000000e-01 -1.1520439629579542e+01 4.2769812533628819e+00 2.2977312083699061e+01 1 0 0
271 16 7 -1.1500000000000000e-01 -1.3882690029517539e+01 2.5742220977421666e+00 2.8050507304618719e+01 1 0 0
272 16 5 -1.1500000000000000e-01 -1.3193563704898484e+01 3.4127466305807928e+00 2.7160349494863070e+01 1 0 0