LAMMPS (15 May 2015)
Reading data file ...
  triclinic box = (-0.107635 -0.0404339 -0.357111) to (41.3876 35.9384 29.5551) with tilt (-0.0672341 -17.0362 -0.0417078)
  5 by 2 by 2 MPI processor grid
  reading atoms ...
  4560 atoms
  reading velocities ...
  4560 velocities
  scanning bonds ...
  3 = max bonds/atom
  scanning angles ...
  3 = max angles/atom
  scanning dihedrals ...
  8 = max dihedrals/atom
  scanning impropers ...
  1 = max impropers/atom
  reading bonds ...
  5040 bonds
  reading angles ...
  7200 angles
  reading dihedrals ...
  10560 dihedrals
  reading impropers ...
  2400 impropers
Finding 1-2 1-3 1-4 neighbors ...
 Special bond factors lj:   0          0          0         
 Special bond factors coul: 0          0          0         
  4 = max # of 1-2 neighbors
  8 = max # of 1-3 neighbors
  20 = max # of 1-4 neighbors
  16 = max # of special neighbors
4560 atoms in group all
720 atoms in group C
480 atoms in group S
1920 atoms in group H
720 atoms in group Si
240 atoms in group Na
240 atoms in group Ba
240 atoms in group O
4560 atoms in group naphthalene
1200 atoms in group fixed
960 atoms in group CO
Setting atom values ...
  720 settings made for charge
Setting atom values ...
  720 settings made for charge
Setting atom values ...
  1920 settings made for charge
Setting atom values ...
  480 settings made for charge
Setting atom values ...
  240 settings made for charge
Setting atom values ...
  240 settings made for charge
Setting atom values ...
  240 settings made for charge
Finding 1-2 1-3 1-4 neighbors ...
 Special bond factors lj:   0          0          0.5       
 Special bond factors coul: 0          0          0.5       
  4 = max # of 1-2 neighbors
  8 = max # of 1-3 neighbors
  20 = max # of 1-4 neighbors
  16 = max # of special neighbors
PPPM initialization ...
  G vector (1/distance) = 0.253736
  grid = 20 18 24
  stencil order = 5
  estimated absolute RMS force accuracy = 0.00131269
  estimated relative force accuracy = 3.95312e-06
  using double precision FFTs
  3d grid and FFT values/proc = 3344 720
Neighbor list info ...
  6 neighbor list requests
  update every 1 steps, delay 0 steps, check yes
  master list distance cutoff = 12
Setting up run ...
Memory usage per processor = 14.3555 Mbytes
Step Temp Density PotEng E_vdwl E_tail E_coul E_long Press Volume Xy Xz Yz E_mol E_bond E_angle E_dihed 14[1] 14[2] 14[3] msd[4] msd2[4] msd3[4] msd4[4] naphthal Cella Cellb Cellc CellAlpha CellBeta CellGamma 27[1] 27[2] 27[3] 
       0          298    1.2509986    2087.8327   -1173.1339   -211.49952    2133.4636   -2371.3301    793.28582    44657.537 -0.067234084   -17.036218 -0.041707817     3498.833    1521.0094     935.4334    889.67826    28.379601    18.846571    14.337846 2.3535127e-29 2.7422013e-29 2.2534249e-29 2.2900766e-29          298     41.49527    35.978931    34.423473    90.016431    119.66323    90.107069    28.379761    18.846182    14.337739 
   10000    308.05133    1.2509986    2126.1672   -1188.9086   -211.49952    2131.1955   -2371.8244    -1760.248    44657.537 -0.067234084   -17.036218 -0.041707817    3555.7046    1545.4318    935.93276    916.24512    28.380528     18.84337    14.338728 0.00031576987 0.00031552988 0.00032471456 0.00032415161    308.05133     41.49527    35.978931    34.423473    90.016431    119.66323    90.107069    28.379485     18.84578    14.337698 
   20000    302.17025    1.2509986    2108.8933   -1183.8658   -211.49952    2132.8069   -2371.8656     314.6193    44657.537 -0.067234084   -17.036218 -0.041707817    3531.8178    1497.3182    951.95658    920.36361    28.377853    18.844686    14.337016 0.0003270253 0.0003268815 0.00033699914 0.00033671087    302.17025     41.49527    35.978931    34.423473    90.016431    119.66323    90.107069    28.380017    18.845962    14.337566 
   30000    299.87347    1.2509986    2099.3168    -1202.393   -211.49952    2135.8458   -2371.6601   -656.06012    44657.537 -0.067234084   -17.036218 -0.041707817    3537.5241    1551.5195    915.07852    913.90645    28.381453    18.845751    14.337692 0.00032832668 0.00032800815 0.00033646692 0.0003360917    299.87347     41.49527    35.978931    34.423473    90.016431    119.66323    90.107069    28.380126    18.846169    14.337309 
   40000    301.50092    1.2509986    2004.0992   -1194.3343   -211.49952    2130.8831    -2371.933    -284.0371    44657.537 -0.067234084   -17.036218 -0.041707817    3439.4835    1554.7497    883.06411    852.82972    28.379419    18.847398    14.337864 0.00032886177 0.0003287054 0.00033536657 0.00033522136    301.50092     41.49527    35.978931    34.423473    90.016431    119.66323    90.107069    28.379388    18.846224    14.337613 
   50000    298.07633    1.2509986    2106.5031   -1180.8251   -211.49952    2134.9373   -2371.7133    1670.1637    44657.537 -0.067234084   -17.036218 -0.041707817    3524.1041    1553.0793    921.11757    894.49375    28.380385    18.846428     14.33795 0.00032637834 0.00032563722 0.00033193874 0.00033119894    298.07633     41.49527    35.978931    34.423473    90.016431    119.66323    90.107069      28.3803     18.84566    14.338161 
   60000    288.71606    1.2509986    2037.0407   -1178.8845   -211.49952    2134.3158   -2371.8294    1065.7654    44657.537 -0.067234084   -17.036218 -0.041707817    3453.4388    1534.3694    920.41562      851.961      28.3797      18.8449    14.337757 0.0003484567 0.00034820953 0.00035191094 0.00035149718    288.71606     41.49527    35.978931    34.423473    90.016431    119.66323    90.107069     28.37971    18.845716    14.337906 
   70000    297.29113    1.2509986    2048.9323   -1181.4263   -211.49952    2136.4884   -2371.6293    867.11195    44657.537 -0.067234084   -17.036218 -0.041707817    3465.4994    1532.9153    919.81429    863.89533    28.380594    18.845957    14.338019 0.00033941987 0.00033907661 0.0003416225 0.00034128824    297.29113     41.49527    35.978931    34.423473    90.016431    119.66323    90.107069    28.380345     18.84621    14.337697 
   80000    294.53104    1.2509986    1974.0833   -1192.6783   -211.49952    2135.8629   -2371.7102    658.09927    44657.537 -0.067234084   -17.036218 -0.041707817     3402.609    1496.2651    904.74266    856.46327    28.380225    18.844106    14.337668 0.00034205762 0.00034169532 0.00034018107 0.00033972549    294.53104     41.49527    35.978931    34.423473    90.016431    119.66323    90.107069    28.379285    18.846074    14.337387 
   90000    303.23482    1.2509986    2047.3928   -1185.2588   -211.49952    2132.4024   -2371.8517   -56.790442    44657.537 -0.067234084   -17.036218 -0.041707817    3472.1009     1543.798    899.38782    877.09564    28.378588    18.845004    14.336964 0.00033375252 0.00033341218 0.00034105151 0.00034039058    303.23482     41.49527    35.978931    34.423473    90.016431    119.66323    90.107069    28.379591    18.846192    14.337181 
  100000    296.76377    1.2509986    2122.1796   -1199.0289   -211.49952    2136.2917   -2371.1247   -294.29264    44657.537 -0.067234084   -17.036218 -0.041707817    3556.0415    1559.4208    933.08416    902.34378    28.381627    18.845564    14.336922 0.00034478378 0.00034438045 0.00034916251 0.00034888435    296.76377     41.49527    35.978931    34.423473    90.016431    119.66323    90.107069    28.380089    18.845996    14.337228 
  110000    296.81983    1.2509986    2122.2126   -1188.5212   -211.49952    2135.0354   -2371.3389   -431.24221    44657.537 -0.067234084   -17.036218 -0.041707817    3547.0374    1588.5041    930.58938    874.49151    28.379791     18.84641    14.337345 0.00034331789 0.00034328636 0.00034419077 0.00034417287    296.81983     41.49527    35.978931    34.423473    90.016431    119.66323    90.107069    28.379928    18.846124     14.33773 
  120000    296.43516    1.2509986    2031.4043   -1185.9228   -211.49952    2138.2588   -2371.4982    849.41277    44657.537 -0.067234084   -17.036218 -0.041707817    3450.5664    1558.3212    905.52938    839.84475    28.380208    18.846139    14.338137 0.00035990333 0.00035964231 0.0003674557 0.00036711816    296.43516     41.49527    35.978931    34.423473    90.016431    119.66323    90.107069    28.379421    18.845801    14.337748 
  130000    298.92928    1.2509986    1965.8115   -1195.2687   -211.49952    2128.2257   -2372.2512   -10.862278    44657.537 -0.067234084   -17.036218 -0.041707817    3405.1058    1511.8256    895.02266     846.4241    28.383265    18.845461    14.339255 0.00034879185 0.00034868377 0.00035032347 0.00035008093    298.92928     41.49527    35.978931    34.423473    90.016431    119.66323    90.107069    28.379642    18.845961    14.337952 
  140000    302.24062    1.2509986     2027.708   -1177.4609   -211.49952    2132.0268   -2371.8323    350.27727    44657.537 -0.067234084   -17.036218 -0.041707817    3444.9744    1481.1626    939.67132    874.23456    28.380041    18.846935    14.337875 0.00033993509 0.00033987799 0.00034206453 0.00034183767    302.24062     41.49527    35.978931    34.423473    90.016431    119.66323    90.107069    28.379834    18.846343    14.337579 
  150000      300.948    1.2509986    1982.7846   -1188.6612   -211.49952    2133.1364    -2372.204    666.63039    44657.537 -0.067234084   -17.036218 -0.041707817    3410.5134     1515.254    918.33603    834.17646    28.379041    18.844884     14.33742 0.00034702344 0.0003466138 0.00034978097 0.0003494258      300.948     41.49527    35.978931    34.423473    90.016431    119.66323    90.107069    28.379738    18.846078     14.33837 
  160000    291.36744    1.2509986     1978.497   -1198.4928   -211.49952     2132.765   -2371.9065    224.03615    44657.537 -0.067234084   -17.036218 -0.041707817    3416.1313    1504.6973    924.15793    841.72589    28.381725    18.844976    14.339072 0.00036175396 0.0003612239 0.00037392758 0.00037329308    291.36744     41.49527    35.978931    34.423473    90.016431    119.66323    90.107069    28.379677    18.846362     14.33844 
  170000    299.06405    1.2509986    2023.8703   -1182.5663   -211.49952    2135.4628   -2371.9258    428.26754    44657.537 -0.067234084   -17.036218 -0.041707817    3442.8996    1495.0723    941.53283    862.17736    28.379396    18.845287    14.338307 0.00035086656 0.0003507029 0.00035458502 0.00035419777    299.06405     41.49527    35.978931    34.423473    90.016431    119.66323    90.107069    28.379419    18.846087    14.337934 
  180000    290.96857    1.2509986    2094.5935   -1200.3539   -211.49952    2136.1635   -2371.6609    -74.43749    44657.537 -0.067234084   -17.036218 -0.041707817    3530.4448    1595.0188    905.19762    874.79605    28.380283    18.845106    14.337843 0.00034152044 0.00034078523 0.0003434989 0.00034250004    290.96857     41.49527    35.978931    34.423473    90.016431    119.66323    90.107069     28.38046    18.846572    14.338047 
  190000    295.13195    1.2509986    2120.6977   -1176.8687   -211.49952    2132.1632   -2371.8632    691.13675    44657.537 -0.067234084   -17.036218 -0.041707817    3537.2665    1549.2548    913.40073    917.63306    28.380689      18.8447    14.337729 0.00036712309 0.0003669083 0.00037038347 0.00037020184    295.13195     41.49527    35.978931    34.423473    90.016431    119.66323    90.107069    28.379752    18.845818    14.338026 
  200000    287.67452    1.2509986    2079.7566   -1178.6651   -211.49952    2131.2102   -2372.1998    271.53926    44657.537 -0.067234084   -17.036218 -0.041707817    3499.4113    1553.7031     930.9702    863.19505    28.380716    18.845218    14.337891 0.00035082767 0.00035077476 0.00035818796 0.00035813618    287.67452     41.49527    35.978931    34.423473    90.016431    119.66323    90.107069    28.379627    18.846329    14.337855 
Loop time of 518.686 on 20 procs for 200000 steps with 4560 atoms

Pair  time (%) = 324.941 (62.6468)
Bond  time (%) = 34.489 (6.6493)
Kspce time (%) = 115.843 (22.3339)
Neigh time (%) = 4.63654 (0.893901)
Comm  time (%) = 23.6402 (4.55771)
Outpt time (%) = 0.0640237 (0.0123434)
Other time (%) = 15.0732 (2.90603)

Nlocal:    228 ave 238 max 221 min
Histogram: 3 0 4 4 3 2 1 2 0 1
Nghost:    5782.6 ave 5833 max 5727 min
Histogram: 2 0 0 2 5 4 3 2 1 1
Neighs:    84315.8 ave 88366 max 80600 min
Histogram: 1 2 1 3 4 4 1 3 0 1

Total # of neighbors = 1686316
Ave neighs/atom = 369.806
Ave special neighs/atom = 10.6316
Neighbor list builds = 971
Dangerous builds = 0
System init for write_data ...
PPPM initialization ...
  G vector (1/distance) = 0.253736
  grid = 20 18 24
  stencil order = 5
  estimated absolute RMS force accuracy = 0.00131269
  estimated relative force accuracy = 3.95312e-06
  using double precision FFTs
  3d grid and FFT values/proc = 3344 720
