LAMMPS data file via write_data, version 22 Dec 2022, timestep = 0

3610 atoms
4 atom types
300 bonds
2 bond types

-0.307406375 29.212593625 xlo xhi
-0.111927032 30.488072968 ylo yhi
0 157 zlo zhi

Masses

1 4.0026
2 12.01115
3 15.9994
4 1.008

Pair Coeffs # lj/cut

1 0.0206847 6.02
2 0.104993 3.43
3 0.0600074 3.12
4 0.0439922 2.57

Bond Coeffs # harmonic

1 570 1.21
2 383 0.74

Atoms # full

1 1 1 0 1.229753289 3.549992316 1.399999976 0 0 0
2 1 1 0 1.229753289 0.709998463 1.399999976 0 0 0
3 1 1 0 2.459506578 1.419996926 1.399999976 0 0 0
4 1 1 0 3.689259868 3.549992316 1.399999976 0 0 0
5 1 1 0 2.459506578 2.839993852 1.399999976 0 0 0
6 1 1 0 3.689259868 0.709998463 1.399999976 0 0 0
7 1 1 0 4.919013157 1.419996926 1.399999976 0 0 0
8 1 1 0 6.148766446 3.549992316 1.399999976 0 0 0
9 1 1 0 4.919013157 2.839993852 1.399999976 0 0 0
10 1 1 0 6.148766446 0.709998463 1.399999976 0 0 0
11 1 1 0 7.378519735 1.419996926 1.399999976 0 0 0
12 1 1 0 8.608273024 3.549992316 1.399999976 0 0 0
13 1 1 0 7.378519735 2.839993852 1.399999976 0 0 0
14 1 1 0 8.608273024 0.709998463 1.399999976 0 0 0
15 1 1 0 9.838026313 1.419996926 1.399999976 0 0 0
16 1 1 0 11.067779603 3.549992316 1.399999976 0 0 0
17 1 1 0 9.838026313 2.839993852 1.399999976 0 0 0
18 1 1 0 11.067779603 0.709998463 1.399999976 0 0 0
19 1 1 0 12.297532892 1.419996926 1.399999976 0 0 0
20 1 1 0 13.527286181 3.549992316 1.399999976 0 0 0
21 1 1 0 12.297532892 2.839993852 1.399999976 0 0 0
22 1 1 0 13.527286181 0.709998463 1.399999976 0 0 0
23 1 1 0 14.75703947 1.419996926 1.399999976 0 0 0
24 1 1 0 15.986792759 3.549992316 1.399999976 0 0 0
25 1 1 0 14.75703947 2.839993852 1.399999976 0 0 0
26 1 1 0 15.986792759 0.709998463 1.399999976 0 0 0
27 1 1 0 17.216546048 1.419996926 1.399999976 0 0 0
28 1 1 0 18.446299338 3.549992316 1.399999976 0 0 0
29 1 1 0 17.216546048 2.839993852 1.399999976 0 0 0
30 1 1 0 18.446299338 0.709998463 1.399999976 0 0 0
31 1 1 0 19.676052627 1.419996926 1.399999976 0 0 0
32 1 1 0 20.905805916 3.549992316 1.399999976 0 0 0
33 1 1 0 19.676052627 2.839993852 1.399999976 0 0 0
34 1 1 0 20.905805916 0.709998463 1.399999976 0 0 0
35 1 1 0 22.135559205 1.419996926 1.399999976 0 0 0
36 1 1 0 23.365312494 3.549992316 1.399999976 0 0 0
37 1 1 0 22.135559205 2.839993852 1.399999976 0 0 0
38 1 1 0 23.365312494 0.709998463 1.399999976 0 0 0
39 1 1 0 24.595065783 1.419996926 1.399999976 0 0 0
40 1 1 0 25.824819073 3.549992316 1.399999976 0 0 0
41 1 1 0 24.595065783 2.839993852 1.399999976 0 0 0
42 1 1 0 25.824819073 0.709998463 1.399999976 0 0 0
43 1 1 0 27.054572362 1.419996926 1.399999976 0 0 0
44 1 1 0 28.284325651 3.549992316 1.399999976 0 0 0
45 1 1 0 27.054572362 2.839993852 1.399999976 0 0 0
46 1 1 0 28.284325651 0.709998463 1.399999976 0 0 0
47 1 1 0 1.229753289 7.809983094 1.399999976 0 0 0
48 1 1 0 1.229753289 4.969989242 1.399999976 0 0 0
49 1 1 0 2.459506578 5.679987705 1.399999976 0 0 0
50 1 1 0 3.689259868 7.809983094 1.399999976 0 0 0
51 1 1 0 2.459506578 7.099984631 1.399999976 0 0 0
52 1 1 0 3.689259868 4.969989242 1.399999976 0 0 0
53 1 1 0 4.919013157 5.679987705 1.399999976 0 0 0
54 1 1 0 6.148766446 7.809983094 1.399999976 0 0 0
55 1 1 0 4.919013157 7.099984631 1.399999976 0 0 0
56 1 1 0 6.148766446 4.969989242 1.399999976 0 0 0
57 1 1 0 7.378519735 5.679987705 1.399999976 0 0 0
58 1 1 0 8.608273024 7.809983094 1.399999976 0 0 0
59 1 1 0 7.378519735 7.099984631 1.399999976 0 0 0
60 1 1 0 8.608273024 4.969989242 1.399999976 0 0 0
61 1 1 0 9.838026313 5.679987705 1.399999976 0 0 0
62 1 1 0 11.067779603 7.809983094 1.399999976 0 0 0
63 1 1 0 9.838026313 7.099984631 1.399999976 0 0 0
64 1 1 0 11.067779603 4.969989242 1.399999976 0 0 0
65 1 1 0 12.297532892 5.679987705 1.399999976 0 0 0
66 1 1 0 13.527286181 7.809983094 1.399999976 0 0 0
67 1 1 0 12.297532892 7.099984631 1.399999976 0 0 0
68 1 1 0 13.527286181 4.969989242 1.399999976 0 0 0
69 1 1 0 14.75703947 5.679987705 1.399999976 0 0 0
70 1 1 0 15.986792759 7.809983094 1.399999976 0 0 0
71 1 1 0 14.75703947 7.099984631 1.399999976 0 0 0
72 1 1 0 15.986792759 4.969989242 1.399999976 0 0 0
73 1 1 0 17.216546048 5.679987705 1.399999976 0 0 0
74 1 1 0 18.446299338 7.809983094 1.399999976 0 0 0
75 1 1 0 17.216546048 7.099984631 1.399999976 0 0 0
76 1 1 0 18.446299338 4.969989242 1.399999976 0 0 0
77 1 1 0 19.676052627 5.679987705 1.399999976 0 0 0
78 1 1 0 20.905805916 7.809983094 1.399999976 0 0 0
79 1 1 0 19.676052627 7.099984631 1.399999976 0 0 0
80 1 1 0 20.905805916 4.969989242 1.399999976 0 0 0
81 1 1 0 22.135559205 5.679987705 1.399999976 0 0 0
82 1 1 0 23.365312494 7.809983094 1.399999976 0 0 0
83 1 1 0 22.135559205 7.099984631 1.399999976 0 0 0
84 1 1 0 23.365312494 4.969989242 1.399999976 0 0 0
85 1 1 0 24.595065783 5.679987705 1.399999976 0 0 0
86 1 1 0 25.824819073 7.809983094 1.399999976 0 0 0
87 1 1 0 24.595065783 7.099984631 1.399999976 0 0 0
88 1 1 0 25.824819073 4.969989242 1.399999976 0 0 0
89 1 1 0 27.054572362 5.679987705 1.399999976 0 0 0
90 1 1 0 28.284325651 7.809983094 1.399999976 0 0 0
91 1 1 0 27.054572362 7.099984631 1.399999976 0 0 0
92 1 1 0 28.284325651 4.969989242 1.399999976 0 0 0
93 1 1 0 1.229753289 12.069973873 1.399999976 0 0 0
94 1 1 0 1.229753289 9.22998002 1.399999976 0 0 0
95 1 1 0 2.459506578 9.939978483 1.399999976 0 0 0
96 1 1 0 3.689259868 12.069973873 1.399999976 0 0 0
97 1 1 0 2.459506578 11.35997541 1.399999976 0 0 0
98 1 1 0 3.689259868 9.22998002 1.399999976 0 0 0
99 1 1 0 4.919013157 9.939978483 1.399999976 0 0 0
100 1 1 0 6.148766446 12.069973873 1.399999976 0 0 0
101 1 1 0 4.919013157 11.35997541 1.399999976 0 0 0
102 1 1 0 6.148766446 9.22998002 1.399999976 0 0 0
103 1 1 0 7.378519735 9.939978483 1.399999976 0 0 0
104 1 1 0 8.608273024 12.069973873 1.399999976 0 0 0
105 1 1 0 7.378519735 11.35997541 1.399999976 0 0 0
106 1 1 0 8.608273024 9.22998002 1.399999976 0 0 0
107 1 1 0 9.838026313 9.939978483 1.399999976 0 0 0
108 1 1 0 11.067779603 12.069973873 1.399999976 0 0 0
109 1 1 0 9.838026313 11.35997541 1.399999976 0 0 0
110 1 1 0 11.067779603 9.22998002 1.399999976 0 0 0
111 1 1 0 12.297532892 9.939978483 1.399999976 0 0 0
112 1 1 0 13.527286181 12.069973873 1.399999976 0 0 0
113 1 1 0 12.297532892 11.35997541 1.399999976 0 0 0
114 1 1 0 13.527286181 9.22998002 1.399999976 0 0 0
115 1 1 0 14.75703947 9.939978483 1.399999976 0 0 0
116 1 1 0 15.986792759 12.069973873 1.399999976 0 0 0
117 1 1 0 14.75703947 11.35997541 1.399999976 0 0 0
118 1 1 0 15.986792759 9.22998002 1.399999976 0 0 0
119 1 1 0 17.216546048 9.939978483 1.399999976 0 0 0
120 1 1 0 18.446299338 12.069973873 1.399999976 0 0 0
121 1 1 0 17.216546048 11.35997541 1.399999976 0 0 0
122 1 1 0 18.446299338 9.22998002 1.399999976 0 0 0
123 1 1 0 19.676052627 9.939978483 1.399999976 0 0 0
124 1 1 0 20.905805916 12.069973873 1.399999976 0 0 0
125 1 1 0 19.676052627 11.35997541 1.399999976 0 0 0
126 1 1 0 20.905805916 9.22998002 1.399999976 0 0 0
127 1 1 0 22.135559205 9.939978483 1.399999976 0 0 0
128 1 1 0 23.365312494 12.069973873 1.399999976 0 0 0
129 1 1 0 22.135559205 11.35997541 1.399999976 0 0 0
130 1 1 0 23.365312494 9.22998002 1.399999976 0 0 0
131 1 1 0 24.595065783 9.939978483 1.399999976 0 0 0
132 1 1 0 25.824819073 12.069973873 1.399999976 0 0 0
133 1 1 0 24.595065783 11.35997541 1.399999976 0 0 0
134 1 1 0 25.824819073 9.22998002 1.399999976 0 0 0
135 1 1 0 27.054572362 9.939978483 1.399999976 0 0 0
136 1 1 0 28.284325651 12.069973873 1.399999976 0 0 0
137 1 1 0 27.054572362 11.35997541 1.399999976 0 0 0
138 1 1 0 28.284325651 9.22998002 1.399999976 0 0 0
139 1 1 0 1.229753289 16.329964651 1.399999976 0 0 0
140 1 1 0 1.229753289 13.489970799 1.399999976 0 0 0
141 1 1 0 2.459506578 14.199969262 1.399999976 0 0 0
142 1 1 0 3.689259868 16.329964651 1.399999976 0 0 0
143 1 1 0 2.459506578 15.619966188 1.399999976 0 0 0
144 1 1 0 3.689259868 13.489970799 1.399999976 0 0 0
145 1 1 0 4.919013157 14.199969262 1.399999976 0 0 0
146 1 1 0 6.148766446 16.329964651 1.399999976 0 0 0
147 1 1 0 4.919013157 15.619966188 1.399999976 0 0 0
148 1 1 0 6.148766446 13.489970799 1.399999976 0 0 0
149 1 1 0 7.378519735 14.199969262 1.399999976 0 0 0
150 1 1 0 8.608273024 16.329964651 1.399999976 0 0 0
151 1 1 0 7.378519735 15.619966188 1.399999976 0 0 0
152 1 1 0 8.608273024 13.489970799 1.399999976 0 0 0
153 1 1 0 9.838026313 14.199969262 1.399999976 0 0 0
154 1 1 0 11.067779603 16.329964651 1.399999976 0 0 0
155 1 1 0 9.838026313 15.619966188 1.399999976 0 0 0
156 1 1 0 11.067779603 13.489970799 1.399999976 0 0 0
157 1 1 0 12.297532892 14.199969262 1.399999976 0 0 0
158 1 1 0 13.527286181 16.329964651 1.399999976 0 0 0
159 1 1 0 12.297532892 15.619966188 1.399999976 0 0 0
160 1 1 0 13.527286181 13.489970799 1.399999976 0 0 0
161 1 1 0 14.75703947 14.199969262 1.399999976 0 0 0
162 1 1 0 15.986792759 16.329964651 1.399999976 0 0 0
163 1 1 0 14.75703947 15.619966188 1.399999976 0 0 0
164 1 1 0 15.986792759 13.489970799 1.399999976 0 0 0
165 1 1 0 17.216546048 14.199969262 1.399999976 0 0 0
166 1 1 0 18.446299338 16.329964651 1.399999976 0 0 0
167 1 1 0 17.216546048 15.619966188 1.399999976 0 0 0
168 1 1 0 18.446299338 13.489970799 1.399999976 0 0 0
169 1 1 0 19.676052627 14.199969262 1.399999976 0 0 0
170 1 1 0 20.905805916 16.329964651 1.399999976 0 0 0
171 1 1 0 19.676052627 15.619966188 1.399999976 0 0 0
172 1 1 0 20.905805916 13.489970799 1.399999976 0 0 0
173 1 1 0 22.135559205 14.199969262 1.399999976 0 0 0
174 1 1 0 23.365312494 16.329964651 1.399999976 0 0 0
175 1 1 0 22.135559205 15.619966188 1.399999976 0 0 0
176 1 1 0 23.365312494 13.489970799 1.399999976 0 0 0
177 1 1 0 24.595065783 14.199969262 1.399999976 0 0 0
178 1 1 0 25.824819073 16.329964651 1.399999976 0 0 0
179 1 1 0 24.595065783 15.619966188 1.399999976 0 0 0
180 1 1 0 25.824819073 13.489970799 1.399999976 0 0 0
181 1 1 0 27.054572362 14.199969262 1.399999976 0 0 0
182 1 1 0 28.284325651 16.329964651 1.399999976 0 0 0
183 1 1 0 27.054572362 15.619966188 1.399999976 0 0 0
184 1 1 0 28.284325651 13.489970799 1.399999976 0 0 0
185 1 1 0 1.229753289 20.58995543 1.399999976 0 0 0
186 1 1 0 1.229753289 17.749961578 1.399999976 0 0 0
187 1 1 0 2.459506578 18.459960041 1.399999976 0 0 0
188 1 1 0 3.689259868 20.58995543 1.399999976 0 0 0
189 1 1 0 2.459506578 19.879956967 1.399999976 0 0 0
190 1 1 0 3.689259868 17.749961578 1.399999976 0 0 0
191 1 1 0 4.919013157 18.459960041 1.399999976 0 0 0
192 1 1 0 6.148766446 20.58995543 1.399999976 0 0 0
193 1 1 0 4.919013157 19.879956967 1.399999976 0 0 0
194 1 1 0 6.148766446 17.749961578 1.399999976 0 0 0
195 1 1 0 7.378519735 18.459960041 1.399999976 0 0 0
196 1 1 0 8.608273024 20.58995543 1.399999976 0 0 0
197 1 1 0 7.378519735 19.879956967 1.399999976 0 0 0
198 1 1 0 8.608273024 17.749961578 1.399999976 0 0 0
199 1 1 0 9.838026313 18.459960041 1.399999976 0 0 0
200 1 1 0 11.067779603 20.58995543 1.399999976 0 0 0
201 1 1 0 9.838026313 19.879956967 1.399999976 0 0 0
202 1 1 0 11.067779603 17.749961578 1.399999976 0 0 0
203 1 1 0 12.297532892 18.459960041 1.399999976 0 0 0
204 1 1 0 13.527286181 20.58995543 1.399999976 0 0 0
205 1 1 0 12.297532892 19.879956967 1.399999976 0 0 0
206 1 1 0 13.527286181 17.749961578 1.399999976 0 0 0
207 1 1 0 14.75703947 18.459960041 1.399999976 0 0 0
208 1 1 0 15.986792759 20.58995543 1.399999976 0 0 0
209 1 1 0 14.75703947 19.879956967 1.399999976 0 0 0
210 1 1 0 15.986792759 17.749961578 1.399999976 0 0 0
211 1 1 0 17.216546048 18.459960041 1.399999976 0 0 0
212 1 1 0 18.446299338 20.58995543 1.399999976 0 0 0
213 1 1 0 17.216546048 19.879956967 1.399999976 0 0 0
214 1 1 0 18.446299338 17.749961578 1.399999976 0 0 0
215 1 1 0 19.676052627 18.459960041 1.399999976 0 0 0
216 1 1 0 20.905805916 20.58995543 1.399999976 0 0 0
217 1 1 0 19.676052627 19.879956967 1.399999976 0 0 0
218 1 1 0 20.905805916 17.749961578 1.399999976 0 0 0
219 1 1 0 22.135559205 18.459960041 1.399999976 0 0 0
220 1 1 0 23.365312494 20.58995543 1.399999976 0 0 0
221 1 1 0 22.135559205 19.879956967 1.399999976 0 0 0
222 1 1 0 23.365312494 17.749961578 1.399999976 0 0 0
223 1 1 0 24.595065783 18.459960041 1.399999976 0 0 0
224 1 1 0 25.824819073 20.58995543 1.399999976 0 0 0
225 1 1 0 24.595065783 19.879956967 1.399999976 0 0 0
226 1 1 0 25.824819073 17.749961578 1.399999976 0 0 0
227 1 1 0 27.054572362 18.459960041 1.399999976 0 0 0
228 1 1 0 28.284325651 20.58995543 1.399999976 0 0 0
229 1 1 0 27.054572362 19.879956967 1.399999976 0 0 0
230 1 1 0 28.284325651 17.749961578 1.399999976 0 0 0
231 1 1 0 1.229753289 24.849946209 1.399999976 0 0 0
232 1 1 0 1.229753289 22.009952356 1.399999976 0 0 0
233 1 1 0 2.459506578 22.719950819 1.399999976 0 0 0
234 1 1 0 3.689259868 24.849946209 1.399999976 0 0 0
235 1 1 0 2.459506578 24.139947746 1.399999976 0 0 0
236 1 1 0 3.689259868 22.009952356 1.399999976 0 0 0
237 1 1 0 4.919013157 22.719950819 1.399999976 0 0 0
238 1 1 0 6.148766446 24.849946209 1.399999976 0 0 0
239 1 1 0 4.919013157 24.139947746 1.399999976 0 0 0
240 1 1 0 6.148766446 22.009952356 1.399999976 0 0 0
241 1 1 0 7.378519735 22.719950819 1.399999976 0 0 0
242 1 1 0 8.608273024 24.849946209 1.399999976 0 0 0
243 1 1 0 7.378519735 24.139947746 1.399999976 0 0 0
244 1 1 0 8.608273024 22.009952356 1.399999976 0 0 0
245 1 1 0 9.838026313 22.719950819 1.399999976 0 0 0
246 1 1 0 11.067779603 24.849946209 1.399999976 0 0 0
247 1 1 0 9.838026313 24.139947746 1.399999976 0 0 0
248 1 1 0 11.067779603 22.009952356 1.399999976 0 0 0
249 1 1 0 12.297532892 22.719950819 1.399999976 0 0 0
250 1 1 0 13.527286181 24.849946209 1.399999976 0 0 0
251 1 1 0 12.297532892 24.139947746 1.399999976 0 0 0
252 1 1 0 13.527286181 22.009952356 1.399999976 0 0 0
253 1 1 0 14.75703947 22.719950819 1.399999976 0 0 0
254 1 1 0 15.986792759 24.849946209 1.399999976 0 0 0
255 1 1 0 14.75703947 24.139947746 1.399999976 0 0 0
256 1 1 0 15.986792759 22.009952356 1.399999976 0 0 0
257 1 1 0 17.216546048 22.719950819 1.399999976 0 0 0
258 1 1 0 18.446299338 24.849946209 1.399999976 0 0 0
259 1 1 0 17.216546048 24.139947746 1.399999976 0 0 0
260 1 1 0 18.446299338 22.009952356 1.399999976 0 0 0
261 1 1 0 19.676052627 22.719950819 1.399999976 0 0 0
262 1 1 0 20.905805916 24.849946209 1.399999976 0 0 0
263 1 1 0 19.676052627 24.139947746 1.399999976 0 0 0
264 1 1 0 20.905805916 22.009952356 1.399999976 0 0 0
265 1 1 0 22.135559205 22.719950819 1.399999976 0 0 0
266 1 1 0 23.365312494 24.849946209 1.399999976 0 0 0
267 1 1 0 22.135559205 24.139947746 1.399999976 0 0 0
268 1 1 0 23.365312494 22.009952356 1.399999976 0 0 0
269 1 1 0 24.595065783 22.719950819 1.399999976 0 0 0
270 1 1 0 25.824819073 24.849946209 1.399999976 0 0 0
271 1 1 0 24.595065783 24.139947746 1.399999976 0 0 0
272 1 1 0 25.824819073 22.009952356 1.399999976 0 0 0
273 1 1 0 27.054572362 22.719950819 1.399999976 0 0 0
274 1 1 0 28.284325651 24.849946209 1.399999976 0 0 0
275 1 1 0 27.054572362 24.139947746 1.399999976 0 0 0
276 1 1 0 28.284325651 22.009952356 1.399999976 0 0 0
277 1 1 0 1.229753289 29.109936987 1.399999976 0 0 0
278 1 1 0 1.229753289 26.269943135 1.399999976 0 0 0
279 1 1 0 2.459506578 26.979941598 1.399999976 0 0 0
280 1 1 0 3.689259868 29.109936987 1.399999976 0 0 0
281 1 1 0 2.459506578 28.399938524 1.399999976 0 0 0
282 1 1 0 3.689259868 26.269943135 1.399999976 0 0 0
283 1 1 0 4.919013157 26.979941598 1.399999976 0 0 0
284 1 1 0 6.148766446 29.109936987 1.399999976 0 0 0
285 1 1 0 4.919013157 28.399938524 1.399999976 0 0 0
286 1 1 0 6.148766446 26.269943135 1.399999976 0 0 0
287 1 1 0 7.378519735 26.979941598 1.399999976 0 0 0
288 1 1 0 8.608273024 29.109936987 1.399999976 0 0 0
289 1 1 0 7.378519735 28.399938524 1.399999976 0 0 0
290 1 1 0 8.608273024 26.269943135 1.399999976 0 0 0
291 1 1 0 9.838026313 26.979941598 1.399999976 0 0 0
292 1 1 0 11.067779603 29.109936987 1.399999976 0 0 0
293 1 1 0 9.838026313 28.399938524 1.399999976 0 0 0
294 1 1 0 11.067779603 26.269943135 1.399999976 0 0 0
295 1 1 0 12.297532892 26.979941598 1.399999976 0 0 0
296 1 1 0 13.527286181 29.109936987 1.399999976 0 0 0
297 1 1 0 12.297532892 28.399938524 1.399999976 0 0 0
298 1 1 0 13.527286181 26.269943135 1.399999976 0 0 0
299 1 1 0 14.75703947 26.979941598 1.399999976 0 0 0
300 1 1 0 15.986792759 29.109936987 1.399999976 0 0 0
301 1 1 0 14.75703947 28.399938524 1.399999976 0 0 0
302 1 1 0 15.986792759 26.269943135 1.399999976 0 0 0
303 1 1 0 17.216546048 26.979941598 1.399999976 0 0 0
304 1 1 0 18.446299338 29.109936987 1.399999976 0 0 0
305 1 1 0 17.216546048 28.399938524 1.399999976 0 0 0
306 1 1 0 18.446299338 26.269943135 1.399999976 0 0 0
307 1 1 0 19.676052627 26.979941598 1.399999976 0 0 0
308 1 1 0 20.905805916 29.109936987 1.399999976 0 0 0
309 1 1 0 19.676052627 28.399938524 1.399999976 0 0 0
310 1 1 0 20.905805916 26.269943135 1.399999976 0 0 0
311 1 1 0 22.135559205 26.979941598 1.399999976 0 0 0
312 1 1 0 23.365312494 29.109936987 1.399999976 0 0 0
313 1 1 0 22.135559205 28.399938524 1.399999976 0 0 0
314 1 1 0 23.365312494 26.269943135 1.399999976 0 0 0
315 1 1 0 24.595065783 26.979941598 1.399999976 0 0 0
316 1 1 0 25.824819073 29.109936987 1.399999976 0 0 0
317 1 1 0 24.595065783 28.399938524 1.399999976 0 0 0
318 1 1 0 25.824819073 26.269943135 1.399999976 0 0 0
319 1 1 0 27.054572362 26.979941598 1.399999976 0 0 0
320 1 1 0 28.284325651 29.109936987 1.399999976 0 0 0
321 1 1 0 27.054572362 28.399938524 1.399999976 0 0 0
322 1 1 0 28.284325651 26.269943135 1.399999976 0 0 0
3011 2 3 0 9.590739421120036 18.83272127934209 35.73869167170942 0 0 0
3012 2 3 0 9.501993162561424 17.94990003204618 36.55771975237255 0 0 0
3013 3 3 0 16.752981503550593 28.450249310738315 7.5870198398631015 0 0 0
3014 3 3 0 15.927222400232615 27.605279190336226 7.337613246295156 0 0 0
3015 4 3 0 15.284652791680228 16.59989126186175 18.408629976247617 0 0 0
3016 4 3 0 14.844054182357093 17.722294233225284 18.344281819033682 0 0 0
3017 5 3 0 0.48951105908700965 29.515092016720097 7.7425035291655915 0 0 0
3018 5 3 0 1.4878485328857063 29.949731037180435 7.220519372028124 0 0 0
3019 6 3 0 26.881126798357464 3.80685140407971 10.580797753758576 0 0 0
3020 6 3 0 28.061764963742178 3.6226440532144517 10.754629351358746 0 0 0
3021 7 3 0 17.24713910615375 25.70852665318198 28.880028735182158 0 0 0
3022 7 3 0 17.082389772442642 26.420986349810402 29.84092159482983 0 0 0
3023 8 3 0 12.093126986138403 9.461000487379568 9.570893416267133 0 0 0
3024 8 3 0 12.816916529550356 10.29903556191939 10.052434858604709 0 0 0
3025 9 3 0 1.0165069993991622 5.498602971254361 16.16382025616607 0 0 0
3026 9 3 0 2.193512144462565 5.665277253627276 15.95184190328599 0 0 0
3027 10 3 0 2.4580315812779734 0.8816247351317373 8.755184250009977 0 0 0
3028 10 3 0 3.6605978706183837 0.9858214945996687 8.723034521264326 0 0 0
3029 11 3 0 20.39449616047784 11.757468301470288 7.865339080196583 0 0 0
3030 11 3 0 20.176083209340288 10.719223284717144 8.441879900921926 0 0 0
3031 12 3 0 5.465651576545781 21.39387154424307 15.110539596192838 0 0 0
3032 12 3 0 6.622031412921007 21.731649802276408 15.02839477027687 0 0 0
3033 13 3 0 28.129528084730943 19.00710370265031 37.9447237675238 0 0 0
3034 13 3 0 29.127263465589067 19.16074411984815 38.60727563869101 0 0 0
3035 14 3 0 8.135472055897901 8.052516461113386 17.79535382276296 0 0 0
3036 14 3 0 8.737076030145799 7.377499542170295 16.99505321217359 0 0 0
3037 15 3 0 15.175850971566648 6.917524759304151 7.3917626458180266 0 0 0
3038 15 3 0 16.33897313642806 7.20190599974181 7.547744663035534 0 0 0
3039 16 3 0 18.459403510870906 29.033237734222027 17.73402952564187 0 0 0
3040 16 3 0 18.217054078004978 28.093689407402913 17.015300130138275 0 0 0
3041 17 3 0 4.6504064782737045 1.5907290412457336 25.47604145738912 0 0 0
3042 17 3 0 5.847536693258163 1.4412198581537314 25.425223128585163 0 0 0
3043 18 3 0 9.7219706592701 1.4189266258452642 27.517996647040803 0 0 0
3044 18 3 0 9.914064606892746 1.5238855109681808 28.705489719745017 0 0 0
3045 19 3 0 21.772575471273907 8.175579354017657 11.030145525745304 0 0 0
3046 19 3 0 21.796589866356253 9.371140870203913 10.862478534828043 0 0 0
3047 20 3 0 11.307392759028625 16.654007361759156 5.146181486149624 0 0 0
3048 20 3 0 12.34725424839513 16.089703435867236 4.904716349627936 0 0 0
3049 21 3 0 19.582200913320673 27.70239053322196 13.965166033370418 0 0 0
3050 21 3 0 19.80318557479352 28.356960227459297 12.974832481086255 0 0 0
3051 22 3 0 11.793683531333137 12.462889758680841 33.44672429739007 0 0 0
3052 22 3 0 12.278033430151133 11.689149895942894 32.656288942458836 0 0 0
3053 23 3 0 26.462466310219977 1.8809295050942043 34.0651503688701 0 0 0
3054 23 3 0 27.655428979159144 1.704720765517612 34.0031277873826 0 0 0
3055 24 3 0 16.472805709643165 26.99412729093064 19.655818187735616 0 0 0
3056 24 3 0 15.444584784925759 26.36660603995279 19.571942925920954 0 0 0
3057 25 3 0 26.356647672182657 27.452938674790378 20.053823613943752 0 0 0
3058 25 3 0 27.015313727437725 26.914554518046028 20.910770390249848 0 0 0
3059 26 3 0 27.02913220514543 9.168492884849853 30.587954212874802 0 0 0
3060 26 3 0 28.218061041583866 9.014504817856286 30.732149036321207 0 0 0
3061 27 3 0 12.249517782411388 29.152312523213215 29.527704092308248 0 0 0
3062 27 3 0 12.724874461703337 29.41021868659953 28.448085322399223 0 0 0
3063 28 3 0 2.0155978229383003 20.32143656864217 33.84232743037952 0 0 0
3064 28 3 0 2.0796261412980153 21.50183955523883 33.596145762333926 0 0 0
3065 29 3 0 28.399534167413627 7.1641842250483005 39.235946876873605 0 0 0
3066 29 3 0 0.012247023002114332 6.745954379141034 39.2460281851698 1 0 0
3067 30 3 0 23.50866033922918 19.771731243169846 29.33093823258222 0 0 0
3068 30 3 0 24.71019098411223 19.780880549081907 29.450506830500956 0 0 0
3069 31 3 0 11.359429738961373 15.748194956656135 31.29586146508223 0 0 0
3070 31 3 0 12.436665342548695 16.289772222332118 31.361540759131305 0 0 0
3071 32 3 0 16.995999117132833 0.914862897278184 11.352773300576173 0 0 0
3072 32 3 0 18.131251334055356 0.8420334335836082 11.757686282821064 0 0 0
3073 33 3 0 12.972759134929893 5.494107546256358 16.72783325491417 0 0 0
3074 33 3 0 14.172998196185189 5.619820782530586 16.686862191192763 0 0 0
3075 34 3 0 14.883498296988266 16.998917765913856 32.44279595424038 0 0 0
3076 34 3 0 16.090672513077045 17.023983717908248 32.455380073639745 0 0 0
3077 35 3 0 4.042341739796851 18.102069536177428 5.19930803233064 0 0 0
3078 35 3 0 4.0246055173805635 18.293673271544176 4.007238535611631 0 0 0
3079 36 3 0 12.885455899696234 29.853261680031938 15.061940516889669 0 0 0
3080 36 3 0 13.89035897662538 29.237041427640573 15.323662996858532 0 0 0
3081 37 3 0 0.9138953998143019 23.790305269877432 24.90257124247283 0 0 0
3082 37 3 0 0.9178148064520556 23.333939611508615 23.784639547728823 0 0 0
3083 38 3 0 3.778019577159241 3.4061884061033547 33.22145951089676 0 0 0
3084 38 3 0 4.2458668287147505 4.309835929238185 32.57138539731874 0 0 0
3085 39 3 0 0.4747857962320631 13.394127500070784 37.523368424604115 0 0 0
3086 39 3 0 0.26174373041163856 12.314583845473631 37.02612117623568 0 0 0
3087 40 3 0 9.33505831334133 20.407122567186846 21.85176151003128 0 0 0
3088 40 3 0 8.839999546831516 21.176452527669284 21.06365968944852 0 0 0
3089 41 3 0 10.691754048178103 24.41757209636409 36.28931656896613 0 0 0
3090 41 3 0 10.97601508291787 23.371172382955336 35.75799787561273 0 0 0
3091 42 3 0 26.565382428487425 18.911296519526545 26.39054403105172 0 0 0
3092 42 3 0 27.754643819423748 19.034719318050634 26.559305421282662 0 0 0
3093 43 3 0 8.954762067821456 6.72979329237058 6.463443201978821 0 0 0
3094 43 3 0 8.148935320194092 7.589517442757918 6.72721182795445 0 0 0
3095 44 3 0 18.140390143423872 22.069250795818974 31.580205212701177 0 0 0
3096 44 3 0 17.97629071994384 22.47068432947048 32.70713855024763 0 0 0
3097 45 3 0 18.04937064480919 14.767061434860707 22.094484023232045 0 0 0
3098 45 3 0 19.13281879050808 15.292772403771547 22.18293933821347 0 0 0
3099 46 3 0 15.92962672241999 16.3696817667829 38.602646663652614 0 0 0
3100 46 3 0 17.11504217977818 16.475393313781847 38.398510649467546 0 0 0
3101 47 3 0 2.2915974566492974 28.715154805541783 28.576916430925245 0 0 0
3102 47 3 0 3.0088872990327555 28.43721286508384 27.646164149301406 0 0 0
3103 48 3 0 13.32502632414524 6.527659570479269 24.13305490027374 0 0 0
3104 48 3 0 14.417844784199923 6.335841764485728 23.656599243714254 0 0 0
3105 49 3 0 20.01200444650637 20.247965613731463 27.606707891011247 0 0 0
3106 49 3 0 21.17386310855399 19.968583937483817 27.780162722024897 0 0 0
3107 50 3 0 6.872291105708904 1.8312664090253028 7.177058093753214 0 0 0
3108 50 3 0 6.051752256750284 2.717139989153896 7.177555466663806 0 0 0
3109 51 3 0 8.976581407830508 9.020561748927468 10.416355590788012 0 0 0
3110 51 3 0 7.868510443991169 9.040217803076262 10.89578090158361 0 0 0
3111 52 3 0 22.69841206866896 3.218358964149168 29.594323004108997 0 0 0
3112 52 3 0 23.90349451525577 3.2409058872399426 29.52135600343411 0 0 0
3113 53 3 0 17.889766793074017 1.4740506799057993 5.565889698072214 0 0 0
3114 53 3 0 18.562657277003197 0.4825139281039955 5.714649627031202 0 0 0
3115 54 3 0 15.12583608627977 27.399322662915548 24.27827025327643 0 0 0
3116 54 3 0 14.993757431630728 28.47128649753689 24.818182298196714 0 0 0
3117 55 3 0 11.579415345964467 20.05688109095357 7.507076547402821 0 0 0
3118 55 3 0 12.600235562455232 20.694309746868907 7.408755419349287 0 0 0
3119 56 3 0 21.52839522164551 19.455870391444 36.09095131081241 0 0 0
3120 56 3 0 22.635587345808233 19.911382569062475 35.93381918095563 0 0 0
3121 57 3 0 20.019233768137482 4.7632025568022645 23.198429931659565 0 0 0
3122 57 3 0 21.030319163801558 5.412101339237136 23.077215481904783 0 0 0
3123 58 3 0 0.8776768304136915 24.713771184881793 29.805243532629262 0 0 0
3124 58 3 0 0.7505761990725908 24.99174596264878 28.637069015513738 0 0 0
3125 59 3 0 25.46037860861456 14.279221755284343 30.760784359513618 0 0 0
3126 59 3 0 25.6980084801417 13.664020375490306 31.77227610760527 0 0 0
3127 60 3 0 16.109681924459867 18.790813353759553 23.69932810506716 0 0 0
3128 60 3 0 17.25618767091405 18.62672745604015 23.35777775516666 0 0 0
3129 61 3 0 1.5332223036671673 9.66369531209223 6.049821014379778 0 0 0
3130 61 3 0 1.5599554838701364 10.031899659765546 4.900139690955455 0 0 0
3131 62 3 0 14.119615892347616 21.990728154295425 10.274360653886978 0 0 0
3132 62 3 0 13.880445406372951 22.523321083537958 11.331336765423801 0 0 0
3133 63 3 0 1.0218717624074292 22.123108056827345 12.081536530203163 0 0 0
3134 63 3 0 1.3515313473765311 23.172822431811202 12.579010689321251 0 0 0
3202 97 3 0 27.30890541945979 22.191730306756686 35.00636354058834 0 0 0
3136 64 3 0 22.227554365097713 22.899303824553883 39.16284340996607 0 0 0
3137 65 3 0 4.356041368402647 8.974099305201833 7.637390014224437 0 0 0
3138 65 3 0 5.017795094623048 9.718418701199543 6.954655151649646 0 0 0
3139 66 3 0 18.55433874902491 3.476631262721793 32.30664818323875 0 0 0
3140 66 3 0 18.464366927759226 4.1643787831162875 31.318232951886376 0 0 0
3141 67 3 0 12.10694069877573 21.746424098934536 26.806270741077434 0 0 0
3142 67 3 0 11.220530800242397 22.543386933093313 26.61343925311001 0 0 0
3143 68 3 0 23.446986079118627 10.965923419250633 18.152964472188742 0 0 0
3144 68 3 0 24.650073229477822 11.043524422658823 18.085025949165093 0 0 0
3145 69 3 0 19.125877344343817 13.329364173175282 10.802852163831782 0 0 0
3146 69 3 0 19.05347958651714 14.03470856474392 11.780248758845465 0 0 0
3147 70 3 0 20.602379204431294 3.4722502318077453 18.881050697577344 0 0 0
3148 70 3 0 19.584264655027162 3.6898317526051496 18.26936671372693 0 0 0
3149 71 3 0 25.158613047086977 17.71543899878845 11.695077541227008 0 0 0
3150 71 3 0 25.016651916874817 17.124129248689805 12.738272665327557 0 0 0
3151 72 3 0 17.26143464569928 20.166357970183352 17.56253568863681 0 0 0
3152 72 3 0 17.305515063883302 19.892713362060416 18.73779387098568 0 0 0
3153 73 3 0 2.9198968417810405 15.762499203783795 35.25731103322193 0 0 0
3154 73 3 0 4.035551152836447 15.493823764621093 35.63305724626235 0 0 0
3155 74 3 0 0.3552814190747281 18.113355908774 20.00326029973257 0 0 0
3156 74 3 0 1.5137795321493628 18.41154811532635 19.83888335501722 0 0 0
3157 75 3 0 28.726010751143782 10.885819137703692 24.527219524681993 0 0 0
3158 75 3 0 28.219209907851997 10.138610940296338 25.32902315710454 0 0 0
3159 76 3 0 1.1214529729275564 13.260015080611543 10.209788793921211 0 0 0
3160 76 3 0 2.2688900977500848 13.115145828820983 10.556858231447267 0 0 0
3161 77 3 0 28.51678289695448 15.103285368882306 21.377683153891347 0 0 0
3162 77 3 0 28.66711583193768 15.709752379944844 20.3444097035636 0 0 0
3163 78 3 0 17.276503649285534 4.491690640421635 25.352301936678472 0 0 0
3164 78 3 0 17.499141588491685 4.062976244080139 26.458960223773268 0 0 0
3165 79 3 0 27.33259851179205 28.92536901013524 6.831907951875713 0 0 0
3166 79 3 0 26.543369116472732 28.372487796315216 7.5595724177999495 0 0 0
3167 80 3 0 23.558878981052946 25.372203475148886 25.89932324839159 0 0 0
3168 80 3 0 23.390610678087636 24.358177051469397 26.532957559565595 0 0 0
3169 81 3 0 24.60383992056319 20.946061206781703 16.83744964853797 0 0 0
3170 81 3 0 23.839406239345756 20.058983196240934 16.542848222479996 0 0 0
3171 82 3 0 6.9986269869088265 22.265447209737857 7.517694765536226 0 0 0
3172 82 3 0 6.365998749866341 22.491198976727837 6.514263699943069 0 0 0
3173 83 3 0 10.798611262010741 26.640563158711558 21.968294640502275 0 0 0
3174 83 3 0 11.04893765857948 26.89879031697989 23.120992207045024 0 0 0