LAMMPS data file via write_data, version 15 May 2015, timestep = 18500000

2593 atoms
6 atom types
1728 bonds
4 bond types
864 angles
3 angle types
0 dihedrals
3 dihedral types
0 impropers
1 improper types

-1.4883326792833877e+01 1.4883326792833877e+01 xlo xhi
-1.4883326792833877e+01 1.4883326792833877e+01 ylo yhi
-1.4883326792833877e+01 1.4883326792833877e+01 zlo zhi

Masses

1 15.9994
2 1.00794
3 12.0107
4 1.00794
5 12.0107
6 12.0107

Bond Coeffs # harmonic

1 1000 1
2 469 1.4
3 367 1.08
4 469 0.7

Angle Coeffs # harmonic

1 100 109.47
2 35 120
3 63 120

Dihedral Coeffs # opls

1 0 7.25 0 0
2 0 7.25 0 0
3 0 7.25 0 0

Improper Coeffs # cvff

1 2.5 -1 2

Atoms # full

124 42 1 -8.1999999999999995e-01 -9.6127765113393728e+00 -9.5298900771724817e+00 -1.1863198882604145e+01 -6 -10 -13
126 42 2 4.0999999999999998e-01 -1.0494612730588715e+01 -9.6337767754651082e+00 -1.1403211962393941e+01 -6 -10 -13
1110 370 2 4.0999999999999998e-01 -8.6806231050563660e+00 -1.0277881009803362e+01 -7.9560790680691520e+00 -6 -12 -18
1108 370 1 -8.1999999999999995e-01 -8.4749058708265217e+00 -9.3392263865728715e+00 -7.6792697127991802e+00 -6 -12 -18
1848 616 2 4.0999999999999998e-01 -1.0677198997833184e+01 -1.3693564295304943e+01 -1.0978735402276838e+01 -5 -8 -14
232 78 1 -8.1999999999999995e-01 -9.1204473804655990e+00 -1.1738713740813600e+01 -8.8383547301584588e+00 -3 -13 -14
738 246 2 4.0999999999999998e-01 -9.8057617665232115e+00 -8.4400036131133547e+00 -1.3384664074975541e+01 -9 -9 -17
388 130 1 -8.1999999999999995e-01 -1.1900227105028144e+01 -9.9769144730672927e+00 -1.0329906689594466e+01 -8 -9 -12
233 78 2 4.0999999999999998e-01 -9.9485013712994181e+00 -1.2208237394564076e+01 -9.1447688812205037e+00 -3 -13 -14
389 130 2 4.0999999999999998e-01 -1.2472150702150078e+01 -9.2789124432918690e+00 -9.8989634689107771e+00 -8 -9 -12
1846 616 1 -8.1999999999999995e-01 -9.8666273208245059e+00 -1.3975576241967424e+01 -1.0465453497104370e+01 -5 -8 -14
125 42 2 4.0999999999999998e-01 -9.2256989580718418e+00 -8.6343870379668175e+00 -1.1643515545616701e+01 -6 -10 -13
312 104 2 4.0999999999999998e-01 -5.5531684947855915e+00 -1.3752540471788317e+01 -1.2780480011395481e+01 -4 -7 -11
1752 584 2 4.0999999999999998e-01 -1.1759384202493031e+01 -1.1753857816540757e+01 -7.8725559830604563e+00 -4 -15 -19
1750 584 1 -8.1999999999999995e-01 -1.2125862010937766e+01 -1.2322309393916338e+01 -8.6091510678697070e+00 -4 -15 -19
892 298 1 -8.1999999999999995e-01 -6.3795275149863269e+00 -9.9722119099218176e+00 -1.3663000731903088e+01 -6 -11 -11
2163 721 2 4.0999999999999998e-01 -9.3563060079400344e+00 -1.0664181338486866e+01 -1.3192971932766769e+01 -10 -17 -12
2119 707 1 -8.1999999999999995e-01 -1.2220887454744465e+01 -1.3089451285254844e+01 -1.1475682205709326e+01 -5 -9 -14
2121 707 2 4.0999999999999998e-01 -1.2292719416643894e+01 -1.2320085984905749e+01 -1.0840912405316370e+01 -5 -9 -14
2120 707 2 4.0999999999999998e-01 -1.2965810037631766e+01 -1.3734082592288523e+01 -1.1303762717936584e+01 -5 -9 -14
1109 370 2 4.0999999999999998e-01 -8.7691509995562917e+00 -8.7080067758293964e+00 -8.3969027112323680e+00 -6 -12 -18
2161 721 1 -8.1999999999999995e-01 -9.0050847194659056e+00 -1.1149365586951548e+01 -1.3993756123375322e+01 -10 -17 -12
234 78 2 4.0999999999999998e-01 -8.3915828050942451e+00 -1.1876565738003912e+01 -9.5090027474184637e+00 -3 -13 -14
1390 464 1 -8.1999999999999995e-01 -8.2401285490859841e+00 -1.4857768805909345e+01 -8.0835208547575625e+00 -7 -10 -13
260 87 2 4.0999999999999998e-01 -6.9743364025367720e+00 -1.2290493266766227e+01 -1.1582740180453689e+01 -10 -14 -11
261 87 2 4.0999999999999998e-01 -8.0275575834734543e+00 -1.1110818781529582e+01 -1.1175602549432808e+01 -10 -14 -11
1700 567 2 4.0999999999999998e-01 -5.0991259408402509e+00 -1.2308888973066319e+01 -8.7994795752946704e+00 -4 -10 -9
893 298 2 4.0999999999999998e-01 -7.2348266544898605e+00 -1.0445804066534581e+01 -1.3452788137163436e+01 -6 -11 -11
259 87 1 -8.1999999999999995e-01 -7.1704033806344736e+00 -1.1561726665352467e+01 -1.0926636182473523e+01 -10 -14 -11
1701 567 2 4.0999999999999998e-01 -5.7973084677882909e+00 -1.1418739854410735e+01 -9.9771227866019423e+00 -4 -10 -9
975 325 2 4.0999999999999998e-01 -1.0538506930470737e+01 -1.3556624314403871e+01 -1.4717884984821266e+01 -6 -9 -9
310 104 1 -8.1999999999999995e-01 -6.4973896788715368e+00 -1.3544605672542540e+01 -1.3035871832026254e+01 -4 -7 -11
311 104 2 4.0999999999999998e-01 -6.5243019125519357e+00 -1.2679931487853480e+01 -1.3537498957185267e+01 -4 -7 -11
390 130 2 4.0999999999999998e-01 -1.1881873146119959e+01 -1.0794625831750345e+01 -9.7545574320550426e+00 -8 -9 -12
1373 458 2 4.0999999999999998e-01 -1.4138868531828260e+01 -8.1738442288876669e+00 -9.4905940067876866e+00 -7 -8 -7
894 298 2 4.0999999999999998e-01 -6.0704712412315693e+00 -9.4684859235333327e+00 -1.2856303859269847e+01 -6 -11 -11
1372 458 1 -8.1999999999999995e-01 -1.3218225989072518e+01 -7.9568925755581752e+00 -9.1659945906536624e+00 -7 -8 -7
974 325 2 4.0999999999999998e-01 -1.1319078202987695e+01 -1.3508916554074670e+01 -1.3284322916355849e+01 -6 -9 -9
1751 584 2 4.0999999999999998e-01 -1.2293421287397273e+01 -1.3246256894685599e+01 -8.2652609714220695e+00 -4 -15 -19
2541 847 2 4.0999999999999998e-01 -5.3024758353435484e+00 -9.2834797772269599e+00 -1.0141698717997993e+01 -6 -10 -10
2539 847 1 -8.1999999999999995e-01 -5.3366850084523136e+00 -8.7289945077319757e+00 -1.0973198153193179e+01 -6 -10 -10
2080 694 1 -8.1999999999999995e-01 -1.3549080307966431e+01 -1.4872248554145807e+01 -7.5569591160632026e+00 -7 -14 -13
2162 721 2 4.0999999999999998e-01 -9.7429645510950689e+00 -1.1276453852104954e+01 -1.4656626714804633e+01 -10 -17 -12
459 153 2 4.0999999999999998e-01 -6.8946074616683148e+00 -7.7478385856860923e+00 -1.1356137348764303e+01 -4 -11 -13
736 246 1 -8.1999999999999995e-01 -9.7496540249204742e+00 -7.7203596870877398e+00 -1.4076747894375810e+01 -9 -9 -17
1392 464 2 4.0999999999999998e-01 -8.4657013206094511e+00 -1.4388303447272351e+01 -8.9371804534375361e+00 -7 -10 -13
973 325 1 -8.1999999999999995e-01 -1.0589732269838816e+01 -1.3955744898748069e+01 -1.3802410122417246e+01 -6 -9 -9
546 182 2 4.0999999999999998e-01 -8.9630085671537927e+00 -1.4547492437170268e+01 -1.4493157790019792e+01 -7 -12 -9
1405 469 1 -8.1999999999999995e-01 -1.4849498769534991e+01 -7.7764397967326451e+00 -1.4211183311958404e+01 -5 -14 -10
1434 478 2 4.0999999999999998e-01 -5.6148581819801482e+00 -1.1226716267872964e+01 -1.4806507501469115e+01 -6 -14 -9
2058 686 2 4.0999999999999998e-01 -1.4821834298585109e+01 -1.2316233699531219e+01 -1.2922105598457250e+01 -12 -8 -8
2251 751 1 -8.1999999999999995e-01 -1.4767207406447621e+01 -1.4582809440072767e+01 -1.1707758686817758e+01 -10 -10 -13
2068 690 1 -8.1999999999999995e-01 -1.4783529481447413e+01 -3.1348694720080932e+00 -1.2886733475392273e+01 -1 -9 -11
2348 783 2 4.0999999999999998e-01 -6.4230987887311333e+00 -3.5602711392889184e+00 -1.2731326500957413e+01 -10 -6 -11
2589 863 2 4.0999999999999998e-01 -6.2216665125752559e+00 -6.0885820295214330e+00 -7.5540616673337402e+00 -4 -5 -12
112 38 1 -8.1999999999999995e-01 -1.0171010446740700e+01 -3.0653338969178989e-01 -1.0441880305816607e+01 -9 -11 -14
2069 690 2 4.0999999999999998e-01 -1.4735862964098363e+01 -2.1876200966077182e+00 -1.3203690928310365e+01 -1 -9 -11
1963 655 1 -8.1999999999999995e-01 -1.1939799797340017e+01 -6.2496183643622327e+00 -1.4231710227666756e+01 -11 -13 -14
2295 765 2 4.0999999999999998e-01 -8.7129401085783513e+00 -2.5014467134243574e+00 -1.2705246937681673e+01 -2 -12 -11
2294 765 2 4.0999999999999998e-01 -9.5610369952244945e+00 -3.1334492603047082e+00 -1.3949422266107938e+01 -2 -12 -11
737 246 2 4.0999999999999998e-01 -1.0624044465658862e+01 -7.2377769828316749e+00 -1.4127450976688966e+01 -9 -9 -17
458 153 2 4.0999999999999998e-01 -6.6878398450248699e+00 -6.3432431045760964e+00 -1.2162999484418682e+01 -4 -11 -13
1199 400 2 4.0999999999999998e-01 -8.1196259219646905e+00 -3.8239564594987208e-01 -1.2818444890860651e+01 -7 -14 -12
114 38 2 4.0999999999999998e-01 -9.9047302456368378e+00 -1.8945243312225557e-01 -9.4851136886543124e+00 -9 -11 -14
1984 662 1 -8.1999999999999995e-01 -1.2929522769041352e+01 -1.4442095885387509e+00 -1.1096127601354603e+01 -10 -13 -14
2514 838 2 4.0999999999999998e-01 -1.3587908525313580e+01 -1.7214359654100768e+00 -7.6716013864009369e+00 -9 -14 -14
1986 662 2 4.0999999999999998e-01 -1.2888667264558061e+01 -1.9039728721633793e+00 -1.1983237542594445e+01 -10 -13 -14
2293 765 1 -8.1999999999999995e-01 -9.4832373588611585e+00 -3.0888616731666083e+00 -1.2953443015125290e+01 -2 -12 -11
457 153 1 -8.1999999999999995e-01 -7.3639342529673089e+00 -6.9808441349923527e+00 -1.1793707212132240e+01 -4 -11 -13
2588 863 2 4.0999999999999998e-01 -6.5780071413187962e+00 -4.7490909317924324e+00 -8.4174577262099426e+00 -4 -5 -12
2070 690 2 4.0999999999999998e-01 -1.3900607029595882e+01 -3.5805849483659262e+00 -1.3034385654436514e+01 -1 -9 -11
845 282 2 4.0999999999999998e-01 -1.3639717031248937e+01 -3.7500296712823751e+00 -9.5140109615796664e+00 -5 -13 -7
1964 655 2 4.0999999999999998e-01 -1.2577275573029938e+01 -6.7178822227853026e+00 -1.3619853144106429e+01 -11 -13 -14
1016 339 2 4.0999999999999998e-01 -8.6057401670948295e+00 -4.3236572682430960e+00 -9.7143807937838069e+00 -4 -13 -16
1409 470 2 4.0999999999999998e-01 -5.9552020005407744e+00 -8.0439762159019068e-01 -9.7102972105864218e+00 -3 -10 -11
1985 662 2 4.0999999999999998e-01 -1.3868427650933032e+01 -1.1512271668018741e+00 -1.0915477601799513e+01 -10 -13 -14
1937 646 2 4.0999999999999998e-01 -1.2029193059482679e+01 -4.7554495700843304e+00 -1.3081963930413565e+01 -9 -9 -9
1323 441 2 4.0999999999999998e-01 -8.5162353593940168e+00 -6.1033471908998251e+00 -1.4296244798863947e+01 -2 -7 -18
1410 470 2 4.0999999999999998e-01 -6.7873621372501436e+00 -2.2049298310547751e+00 -9.8229329070390339e+00 -3 -10 -11
1919 640 2 4.0999999999999998e-01 -8.6229892618767803e+00 -5.7869160806162707e+00 -1.1456018485077101e+01 -7 -16 -13
1200 400 2 4.0999999999999998e-01 -7.3844128949294907e+00 -1.1474099954885464e+00 -1.1577121930826481e+01 -7 -14 -12
1408 470 1 -8.1999999999999995e-01 -6.8062969098884309e+00 -1.2255000581079774e+00 -1.0023866445315424e+01 -3 -10 -11
1017 339 2 4.0999999999999998e-01 -8.8636882725627117e+00 -3.6214606784698180e+00 -8.2628124901820392e+00 -4 -13 -16
2347 783 1 -8.1999999999999995e-01 -6.3934676308625580e+00 -4.5557693974962898e+00 -1.2641211572550700e+01 -10 -6 -11
844 282 1 -8.1999999999999995e-01 -1.3500504539311621e+01 -4.5018665490448537e+00 -1.0158508172749908e+01 -5 -13 -7
1920 640 2 4.0999999999999998e-01 -9.3386334161453846e+00 -4.3401048883410489e+00 -1.1703523146460094e+01 -7 -16 -13
1198 400 1 -8.1999999999999995e-01 -7.5747963171859354e+00 -1.1795827408722719e+00 -1.2558312337781576e+01 -7 -14 -12
1374 458 2 4.0999999999999998e-01 -1.2907851733759943e+01 -7.1053563814480460e+00 -9.5885693466757900e+00 -7 -8 -7
1936 646 1 -8.1999999999999995e-01 -1.2156217143965637e+01 -3.8054936253437788e+00 -1.2796544824679330e+01 -9 -9 -9
1938 646 2 4.0999999999999998e-01 -1.1263960646444112e+01 -3.3645942967915534e+00 -1.2699068855725388e+01 -9 -9 -9
517 173 1 -8.1999999999999995e-01 -1.0046202008148663e+01 -7.3018488804951502e+00 -9.1895098112346680e+00 -5 -11 -14
519 173 2 4.0999999999999998e-01 -9.9260171762807659e+00 -6.7459702877571193e+00 -1.0012048607864930e+01 -5 -11 -14
518 173 2 4.0999999999999998e-01 -1.0156556331038052e+01 -6.7034066580558918e+00 -8.3959707089403537e+00 -5 -11 -14
113 38 2 4.0999999999999998e-01 -1.0636192738554755e+01 -1.1847132406855394e+00 -1.0553330114190871e+01 -9 -11 -14
1015 339 1 -8.1999999999999995e-01 -8.1646936023578043e+00 -3.9423034474445107e+00 -8.9019383657424385e+00 -4 -13 -16
846 282 2 4.0999999999999998e-01 -1.2905721788009023e+01 -4.1973161339153524e+00 -1.0902482631600504e+01 -5 -13 -7
2587 863 1 -8.1999999999999995e-01 -5.8376912111167201e+00 -5.2919164475665639e+00 -8.0208618488728725e+00 -4 -5 -12
2349 783 2 4.0999999999999998e-01 -6.8437313645200266e+00 -4.9753455886291800e+00 -1.3429395493742547e+01 -10 -6 -11
1918 640 1 -8.1999999999999995e-01 -9.2811052032737802e+00 -5.1284221066959397e+00 -1.1090936872484889e+01 -7 -16 -13
2512 838 1 -8.1999999999999995e-01 -1.3751690204632718e+01 -2.7076268685281093e+00 -7.6467303743514989e+00 -9 -14 -14
2300 767 2 4.0999999999999998e-01 -5.1755242665135981e+00 -7.8928115014829103e-02 -1.3143630382200884e+01 -6 -14 -14
1876 626 1 -8.1999999999999995e-01 -1.4700645638131336e+01 -5.3018708236114698e-01 -1.3297450931555252e+01 -8 -7 -15
1856 619 2 4.0999999999999998e-01 -1.0870636666658626e+01 -4.0084032589841563e+00 -7.4562093376519307e+00 -8 -15 -15
1321 441 1 -8.1999999999999995e-01 -7.7828366254354222e+00 -5.7152584988450599e+00 -1.4854392594108926e+01 -2 -7 -18
2011 671 1 -8.1999999999999995e-01 -9.8659023727869553e+00 -1.4347989782689444e+01 -1.4790509620494756e+00 -7 -12 -14
571 191 1 -8.1999999999999995e-01 -1.1465431479869753e+01 -1.3201694325003787e+01 -4.3209994931376858e+00 -7 -9 -8
1437 479 2 4.0999999999999998e-01 -8.6198379196812400e+00 -9.6982409209242739e+00 -2.5967610259104958e+00 -11 -11 -13
264 88 2 4.0999999999999998e-01 -6.5608155676521456e+00 -1.4728951210576044e+01 -3.3489298928993421e+00 -7 -7 -12
2013 671 2 4.0999999999999998e-01 -9.7159851457977631e+00 -1.4651693838894355e+01 -2.4199569913276289e+00 -7 -12 -14
790 264 1 -8.1999999999999995e-01 -1.4063867765965089e+01 -1.4320827415119922e+01 -3.4771751284351922e+00 -6 -12 -16
1858 620 1 -8.1999999999999995e-01 -6.6841065059640883e+00 -1.0590943938479857e+01 -5.9621219886358645e+00 -6 -15 -13
572 191 2 4.0999999999999998e-01 -1.0595304971084698e+01 -1.3693081344728014e+01 -4.2831292959696867e+00 -7 -9 -8
573 191 2 4.0999999999999998e-01 -1.1412768008086584e+01 -1.2483600868756726e+01 -5.0149619171947535e+00 -7 -9 -8
422 141 2 4.0999999999999998e-01 -1.1533463308902773e+01 -9.6502386213137363e+00 -9.3156337495795327e-02 -5 -11 -11
757 253 1 -8.1999999999999995e-01 -1.2470070099049876e+01 -1.2154425858344943e+01 -1.3628475804981477e-01 -8 -16 -11
1436 479 2 4.0999999999999998e-01 -7.6264326850165896e+00 -8.9787390507472189e+00 -1.5187392528037336e+00 -11 -11 -13
1435 479 1 -8.1999999999999995e-01 -8.0603907297121502e+00 -9.8408912634439414e+00 -1.7802530693958722e+00 -11 -11 -13
1860 620 2 4.0999999999999998e-01 -6.3091970473354824e+00 -1.0094719824435586e+01 -5.1790383247234857e+00 -6 -15 -13
758 253 2 4.0999999999999998e-01 -1.2108656706872345e+01 -1.1965743060498280e+01 -1.0494083266542962e+00 -8 -16 -11
1126 376 1 -8.1999999999999995e-01 -5.9310261155556123e+00 -9.6991143488801050e+00 -3.6547530053312620e+00 -11 -12 -7
1739 580 2 4.0999999999999998e-01 -6.0054590986221150e+00 -1.3403016565311731e+01 -1.7479997882313825e+00 -5 -13 -9
1738 580 1 -8.1999999999999995e-01 -5.6979630475841407e+00 -1.3455356459943209e+01 -2.6981167333330731e+00 -5 -13 -9
1128 376 2 4.0999999999999998e-01 -6.6823094174833173e+00 -9.7246748004557269e+00 -2.9952565600579195e+00 -11 -12 -7
1421 474 2 4.0999999999999998e-01 -8.8436432206159079e+00 -8.5939083024925615e+00 -6.0602357467513137e+00 -6 -12 -21
1740 580 2 4.0999999999999998e-01 -4.9997711661861146e+00 -1.2758297309736731e+01 -2.8613715308803496e+00 -5 -13 -9
2102 701 2 4.0999999999999998e-01 -8.6685819125228534e+00 -1.1178767335529145e+01 -8.3609412626658752e-01 -13 -7 -12
826 276 1 -8.1999999999999995e-01 -1.2425581568257588e+01 -9.7420041460306166e+00 -2.6968668258353432e+00 -4 -8 -13
1859 620 2 4.0999999999999998e-01 -7.2889525256869527e+00 -9.9868409523708834e+00 -6.4810019136973711e+00 -6 -15 -13
1978 660 1 -8.1999999999999995e-01 -1.1312936709169884e+01 -1.0798111176296176e+01 -6.0089952286132000e+00 -5 -10 -14
1420 474 1 -8.1999999999999995e-01 -9.1347681823787408e+00 -7.9366004986745953e+00 -5.3651039810722772e+00 -6 -12 -21
827 276 2 4.0999999999999998e-01 -1.2696177002828874e+01 -9.3305693370811138e+00 -1.8265134446624103e+00 -4 -8 -13
922 308 1 -8.1999999999999995e-01 -1.2860482154087631e+01 -8.4828289393271170e+00 -6.3965325966894895e+00 -6 -10 -16
2012 671 2 4.0999999999999998e-01 -9.3087219848089120e+00 -1.3537660837056526e+01 -1.2975778325764651e+00 -7 -12 -14
1845 615 2 4.0999999999999998e-01 -9.8543991762035432e+00 -8.9079121102612859e+00 -4.1612151519391460e+00 -5 -15 -6
903 301 2 4.0999999999999998e-01 -8.2471372108122338e+00 -1.1521657445708160e+01 -5.4486579385629259e+00 -12 -7 -10
828 276 2 4.0999999999999998e-01 -1.3065508692886240e+01 -9.4604653731257411e+00 -3.4118805673330463e+00 -4 -8 -13
1844 615 2 4.0999999999999998e-01 -1.0933555066189427e+01 -9.8282082853107724e+00 -3.3518046679803870e+00 -5 -15 -6
1843 615 1 -8.1999999999999995e-01 -9.9850401808259353e+00 -9.7645520108433743e+00 -3.6620994548795078e+00 -5 -15 -6
1980 660 2 4.0999999999999998e-01 -1.0361538089782607e+01 -1.0970030801042553e+01 -5.7534569541237612e+00 -5 -10 -14
1979 660 2 4.0999999999999998e-01 -1.1548273130076488e+01 -9.8491947456056952e+00 -5.7987813753852571e+00 -5 -10 -14
901 301 1 -8.1999999999999995e-01 -8.9173533235566467e+00 -1.2135687418090011e+01 -5.8655428821277589e+00 -12 -7 -10
923 308 2 4.0999999999999998e-01 -1.3514445959481467e+01 -7.8440160288269380e+00 -5.9912365197961002e+00 -6 -10 -16
2485 829 1 -8.1999999999999995e-01 -6.2394578106315954e+00 -1.3035584559666102e+01 -7.2977982840818481e+00 -6 -7 -17
2463 821 2 4.0999999999999998e-01 -1.4468760417537952e+01 -1.2630474328289909e+01 -6.9649902698960453e-01 -4 -14 -8
792 264 2 4.0999999999999998e-01 -1.3148191186424111e+01 -1.4029520648451317e+01 -3.7541088352835192e+00 -6 -12 -16
2101 701 1 -8.1999999999999995e-01 -8.9737233225992377e+00 -1.1877599042213866e+01 -1.8914862002495170e-01 -13 -7 -12
902 301 2 4.0999999999999998e-01 -8.9699543807904831e+00 -1.1954380605463601e+01 -6.8475695977208240e+00 -12 -7 -10
1245 415 2 4.0999999999999998e-01 -5.5774112170380867e+00 -8.3151352995772143e+00 -6.7053176475301015e+00 -9 -9 -12
1743 581 2 4.0999999999999998e-01 -1.1140229146666218e+01 -1.4697922596791029e+01 -2.6524315117899278e-01 -8 -9 -16
2372 791 2 4.0999999999999998e-01 -1.4360994595884932e+01 -9.5170561014098567e+00 -5.7613393236419732e+00 -5 -13 -10
1244 415 2 4.0999999999999998e-01 -5.7297850284422065e+00 -8.3344316239245906e+00 -5.0795631489578863e+00 -9 -9 -12
1243 415 1 -8.1999999999999995e-01 -5.7599034430262392e+00 -7.7573001488832514e+00 -5.8956683126797120e+00 -9 -9 -12
2487 829 2 4.0999999999999998e-01 -6.4223468421806409e+00 -1.2561042668722322e+01 -6.4367657065233690e+00 -6 -7 -17
1127 376 2 4.0999999999999998e-01 -5.3017183827800380e+00 -1.0454621548494668e+01 -3.4725550949292305e+00 -11 -12 -7
759 253 2 4.0999999999999998e-01 -1.2539003242105430e+01 -1.3143088244452656e+01 -2.8291519466137061e-03 -8 -16 -11
1376 459 2 4.0999999999999998e-01 -1.4261803306249671e+01 -1.0789646053689626e+01 -3.3245985489021024e-03 -5 -11 -13
924 308 2 4.0999999999999998e-01 -1.2806974950718576e+01 -8.3243156016326836e+00 -7.3824463907353257e+00 -6 -10 -16
2081 694 2 4.0999999999999998e-01 -1.4134506954223694e+01 -1.4083223198610778e+01 -7.3705990061543565e+00 -7 -14 -13
2486 829 2 4.0999999999999998e-01 -6.8772659853605305e+00 -1.3799028412841647e+01 -7.3996300098379235e+00 -6 -7 -17
805 269 1 -8.1999999999999995e-01 -6.1314473193840175e+00 -3.8380856992065127e-01 -2.4383773534062740e+00 -10 -15 -15
549 183 2 4.0999999999999998e-01 -1.1628257172507627e+01 -5.4103355051971391e+00 -6.4512252246349302e+00 -3 -12 -13
1718 573 2 4.0999999999999998e-01 -5.0946002520157236e+00 -2.7865081037996458e+00 -6.7969670418137582e+00 -12 -9 -6
287 96 2 4.0999999999999998e-01 -1.0362109657442407e+01 -1.4876636404826371e-01 -5.0565295722275216e+00 -6 -5 -8
1717 573 1 -8.1999999999999995e-01 -5.5123106399566826e+00 -1.9759344762454738e+00 -6.3864747432783453e+00 -12 -9 -6
2513 838 2 4.0999999999999998e-01 -1.4710673009435471e+01 -2.8806867462746499e+00 -7.4221914329277592e+00 -9 -14 -14
297 99 2 4.0999999999999998e-01 -1.3649287157503853e+01 -6.9253398210727797e+00 -3.3213235101672627e+00 -9 -7 -16
1518 506 2 4.0999999999999998e-01 -6.7887521997440157e+00 -4.5323141958182642e+00 -3.9109991056952964e-01 -11 -9 -12
2399 800 2 4.0999999999999998e-01 -5.0225503430991090e+00 -7.0098769616521848e+00 -1.9896475574885724e+00 -7 -9 -18
2457 819 2 4.0999999999999998e-01 -1.4824222389559132e+01 -6.6333641496785489e-01 -2.1710038618687122e-01 -4 -12 -11
807 269 2 4.0999999999999998e-01 -6.7386557854103621e+00 -6.7804182153951054e-01 -3.1764425046601978e+00 -10 -15 -15
2522 841 2 4.0999999999999998e-01 -1.2922073812825738e+01 -3.8853915661836140e+00 -4.8791138923406390e+00 -14 -8 -18
1724 575 2 4.0999999999999998e-01 -6.8158197912833156e+00 -2.8745169919915750e+00 -1.3388880387306799e+00 -8 -14 -15
1855 619 1 -8.1999999999999995e-01 -1.0161544465199068e+01 -3.3320451361506951e+00 -7.2568517734406779e+00 -8 -15 -15
1418 473 2 4.0999999999999998e-01 -6.8111058834315905e+00 -6.6253991936986374e+00 -5.4229531176269781e+00 -12 -9 -10
2210 737 2 4.0999999999999998e-01 -9.0193314184457076e+00 -4.7022569244938435e+00 -2.9785090797319036e-01 -3 -11 -13
1422 474 2 4.0999999999999998e-01 -8.5374866751198741e+00 -7.1350578990779576e+00 -5.3933838367478177e+00 -6 -12 -21
2481 827 2 4.0999999999999998e-01 -1.1238089018783622e+01 -2.0117649295136424e+00 -2.9323953782080423e+00 -8 -13 -16
914 305 2 4.0999999999999998e-01 -8.9690218777005253e+00 -1.5006069875000314e+00 -1.5309403833826885e+00 -8 -10 -12
1725 575 2 4.0999999999999998e-01 -5.4262842267353228e+00 -2.9369821340376934e+00 -2.1944327534278791e+00 -8 -14 -15
873 291 2 4.0999999999999998e-01 -1.3939339041242897e+01 -6.7022550289371701e+00 -5.6450314310690075e-01 -8 -11 -11
2054 685 2 4.0999999999999998e-01 -1.4421583483849661e+01 -5.9321787768763521e+00 -4.9541346618097748e+00 -8 -9 -7
1249 417 1 -8.1999999999999995e-01 -9.0960476258099394e+00 -4.0234746305041984e+00 -4.6136709020885203e+00 -8 -18 -14
547 183 1 -8.1999999999999995e-01 -1.1091083801416215e+01 -6.1102748953705515e+00 -6.9219110211119288e+00 -3 -12 -13
2211 737 2 4.0999999999999998e-01 -9.6639604454263015e+00 -3.4512257332071492e+00 -1.1261275432978604e+00 -3 -11 -13
1417 473 1 -8.1999999999999995e-01 -7.3497271990496307e+00 -5.9917782294772053e+00 -4.8675909977300353e+00 -12 -9 -10
2521 841 1 -8.1999999999999995e-01 -1.2807699406415816e+01 -4.3535577725388777e+00 -5.7553298342370578e+00 -14 -8 -18
1857 619 2 4.0999999999999998e-01 -9.9404927156415006e+00 -3.3583395505080151e+00 -6.2819362739866929e+00 -8 -15 -15
1723 575 1 -8.1999999999999995e-01 -6.0812023462949103e+00 -3.4718877792408058e+00 -1.6606034697807122e+00 -8 -14 -15
1154 385 2 4.0999999999999998e-01 -6.7598366826208274e+00 -1.9219224547157268e+00 -5.1359797113165211e+00 -6 -14 -12
1099 367 1 -8.1999999999999995e-01 -1.3999858584404054e+01 -3.7735251742847531e-01 -3.1668831125427399e+00 -9 -4 -15
295 99 1 -8.1999999999999995e-01 -1.3650873974767883e+01 -6.3969841353355825e+00 -2.4722927621696975e+00 -9 -7 -16
1155 385 2 4.0999999999999998e-01 -8.0281043569437394e+00 -2.5987557638419165e+00 -4.3613432868390714e+00 -6 -14 -12
2053 685 1 -8.1999999999999995e-01 -1.4636506891105579e+01 -6.9041056896793975e+00 -5.0499548148226570e+00 -8 -9 -7
2209 737 1 -8.1999999999999995e-01 -9.8721183914325330e+00 -4.2659622629093708e+00 -5.8493427112806273e-01 -3 -11 -13
1153 385 1 -8.1999999999999995e-01 -7.4749476635760521e+00 -1.7707813688880805e+00 -4.4534929535634973e+00 -6 -14 -12
2523 841 2 4.0999999999999998e-01 -1.2995275072198657e+01 -3.7147850831716802e+00 -6.5015203650871971e+00 -14 -8 -18
913 305 1 -8.1999999999999995e-01 -8.1733238822198864e+00 -1.7705587132320684e+00 -9.8871693695801000e-01 -8 -10 -12
1251 417 2 4.0999999999999998e-01 -9.8347080395224786e+00 -4.2113148042014696e+00 -3.9662820296795669e+00 -8 -18 -14
915 305 2 4.0999999999999998e-01 -7.5134199721988928e+00 -1.0194718945038126e+00 -9.6844599772058437e-01 -8 -10 -12
1250 417 2 4.0999999999999998e-01 -8.5525724173523834e+00 -4.8519573528334501e+00 -4.7488247746118546e+00 -8 -18 -14
2400 800 2 4.0999999999999998e-01 -5.5314205265125658e+00 -5.4591853590051453e+00 -2.0450957033205057e+00 -7 -9 -18
296 99 2 4.0999999999999998e-01 -1.4322978926513503e+01 -5.6596048280484936e+00 -2.5398364434678378e+00 -9 -7 -16
2398 800 1 -8.1999999999999995e-01 -5.7917268363728684e+00 -6.4103687567102519e+00 -2.2109458307176340e+00 -7 -9 -18
1419 473 2 4.0999999999999998e-01 -7.0146690815965904e+00 -6.0066332975207359e+00 -3.9255024166484862e+00 -12 -9 -10
838 280 1 -8.1999999999999995e-01 -1.3253505153132423e+01 -3.1432135199718356e+00 -3.3636181383322246e+00 -5 -10 -12
2480 827 2 4.0999999999999998e-01 -1.0514389176877675e+01 -5.5367777575297872e-01 -3.0624268996607977e+00 -8 -13 -16
2479 827 1 -8.1999999999999995e-01 -1.0633610425026401e+01 -1.3568952143368094e+00 -2.4787801474632776e+00 -8 -13 -16
548 183 2 4.0999999999999998e-01 -1.1246187566477110e+01 -6.9975872771735110e+00 -6.4875897200226600e+00 -3 -12 -13
839 280 2 4.0999999999999998e-01 -1.3515041589970370e+01 -2.2011651972861550e+00 -3.5737589265288658e+00 -5 -10 -12
840 280 2 4.0999999999999998e-01 -1.4052751087529883e+01 -3.6452048908334262e+00 -3.0331244442263063e+00 -5 -10 -12
1101 367 2 4.0999999999999998e-01 -1.4521533104205414e+01 -3.1331345272642253e-01 -2.3161362870212869e+00 -9 -4 -15
2021 674 2 4.0999999999999998e-01 -1.2798671336057724e+01 -9.7336297141245147e+00 6.8618987567057594e+00 -8 -11 -13
1032 344 2 4.0999999999999998e-01 -1.1930926058428987e+01 -1.4102630290374378e+01 1.7879928810378800e+00 -8 -15 -12
2434 812 1 -8.1999999999999995e-01 -9.7184611375628833e+00 -1.4189971819413637e+01 7.1848385883005506e+00 -11 -12 -13
590 197 2 4.0999999999999998e-01 -8.2639466101837709e+00 -9.2056228411973962e+00 4.6392221188296219e+00 -8 -5 -11
1031 344 2 4.0999999999999998e-01 -1.1286645356449462e+01 -1.2722767138118998e+01 2.3775247904861345e+00 -8 -15 -12
589 197 1 -8.1999999999999995e-01 -8.6382718898269388e+00 -9.9444301703455729e+00 4.0788117140611355e+00 -8 -5 -11
1030 344 1 -8.1999999999999995e-01 -1.1588830509267096e+01 -1.3647254367045232e+01 2.6099532909610836e+00 -8 -15 -12
591 197 2 4.0999999999999998e-01 -9.1100020303991158e+00 -1.0602094481368146e+01 4.6661479442979754e+00 -8 -5 -11
2103 701 2 4.0999999999999998e-01 -9.5087190268084623e+00 -1.1447667887274992e+01 5.3814382867314059e-01 -13 -7 -12
396 132 2 4.0999999999999998e-01 -1.1228858713651242e+01 -1.0533869363473574e+01 2.4047984943827956e+00 -8 -8 -13
2385 795 2 4.0999999999999998e-01 -9.3982726671353554e+00 -1.2517157653261505e+01 6.1918763691451524e+00 -8 -11 -15
394 132 1 -8.1999999999999995e-01 -1.0392324439182051e+01 -1.1049656749606905e+01 2.2198950282733279e+00 -8 -8 -13
2020 674 1 -8.1999999999999995e-01 -1.2680374731235311e+01 -1.0485840428968235e+01 6.2136700553039006e+00 -8 -11 -13
2046 682 2 4.0999999999999998e-01 -1.0166346386380688e+01 -1.4389221252798929e+01 3.8576871088411906e+00 -7 -13 -12
2045 682 2 4.0999999999999998e-01 -9.8083844933714648e+00 -1.4353257058959572e+01 5.4505580021447351e+00 -7 -13 -12
731 244 2 4.0999999999999998e-01 -5.7795715913982129e+00 -7.7294557463915927e+00 6.5102059687689362e+00 -7 -9 -13
2022 674 2 4.0999999999999998e-01 -1.3051035666758551e+01 -1.0220278804063366e+01 5.3236683761260757e+00 -8 -11 -13
2384 795 2 4.0999999999999998e-01 -1.0581175931323902e+01 -1.1792768779310466e+01 5.3300942415719454e+00 -8 -11 -15
2383 795 1 -8.1999999999999995e-01 -9.7307727170018872e+00 -1.1644240218166704e+01 5.8348408392826983e+00 -8 -11 -15
395 132 2 4.0999999999999998e-01 -9.7644785986797178e+00 -1.0954548885439396e+01 2.9924101397258021e+00 -8 -8 -13
730 244 1 -8.1999999999999995e-01 -5.9381998323959309e+00 -8.3796549211817855e+00 5.7671759406719758e+00 -7 -9 -13
1000 334 1 -8.1999999999999995e-01 -7.0484242643514117e+00 -1.4573659899273739e+01 3.2337753862206959e+00 -9 -16 -10
2130 710 2 4.0999999999999998e-01 -6.7840764735988461e+00 -1.2430871860797044e+01 4.8834498033009872e+00 -9 -18 -18
1002 334 2 4.0999999999999998e-01 -7.0996515714462634e+00 -1.3579264351113698e+01 3.1412078555755016e+00 -9 -16 -10
2128 710 1 -8.1999999999999995e-01 -6.6989824922824592e+00 -1.2543923009513630e+01 5.8733962355879790e+00 -9 -18 -18
1696 566 1 -8.1999999999999995e-01 -6.2136275167842854e+00 -8.8806503215650814e+00 9.0645438110305498e-01 -10 -15 -12
1077 359 2 4.0999999999999998e-01 -1.4255216368662838e+01 -1.3997719677731389e+01 4.4106067064967931e+00 -13 -12 -9
2147 716 2 4.0999999999999998e-01 -7.5488565412254651e+00 -1.1042232510238156e+01 3.4401975261813647e+00 -9 -8 -12
2146 716 1 -8.1999999999999995e-01 -6.9192839039778748e+00 -1.1779712987187576e+01 3.1957054672491729e+00 -9 -8 -12
2129 710 2 4.0999999999999998e-01 -7.0349583767867081e+00 -1.1721721369984301e+01 6.3328743964377914e+00 -9 -18 -18
1078 360 1 -8.1999999999999995e-01 -1.2927705717896412e+01 -7.9243205842602542e+00 7.0640634242984106e+00 -5 -10 -12
1076 359 2 4.0999999999999998e-01 -1.2646816714002341e+01 -1.3900712011519886e+01 4.1454503744055415e+00 -13 -12 -9
765 255 2 4.0999999999999998e-01 -5.9719474148060332e+00 -1.3700152778693468e+01 6.8059760781239653e+00 -2 -8 -9
1982 661 2 4.0999999999999998e-01 -8.4860475159625910e+00 -1.0000931779068761e+01 7.3282848320638543e+00 -2 -10 -12
2258 753 2 4.0999999999999998e-01 -6.8200312569140049e+00 -1.4166560244173136e+01 6.2968577641681200e-01 -8 -17 -14
1916 639 2 4.0999999999999998e-01 -5.2580449915428655e+00 -1.2175244879220761e+01 8.2362021087492998e-01 -11 -12 -10
448 150 1 -8.1999999999999995e-01 -1.2842525101141455e+01 -9.9784652316591789e+00 2.9267742987895531e+00 -7 -11 -16
450 150 2 4.0999999999999998e-01 -1.2998951710842221e+01 -8.9942629204765154e+00 3.0097925245044053e+00 -7 -11 -16
1697 566 2 4.0999999999999998e-01 -5.4466599317412623e+00 -8.3468862849288570e+00 1.2626456076942958e+00 -10 -15 -12
1079 360 2 4.0999999999999998e-01 -1.3865674394282408e+01 -7.5814302694926061e+00 7.1156042844841245e+00 -5 -10 -12