LAMMPS data file via write_data, version 15 May 2015, timestep = 1009000

2593 atoms
6 atom types
1728 bonds
4 bond types
864 angles
3 angle types
0 dihedrals
3 dihedral types
0 impropers
1 improper types

-1.4908788717757201e+01 1.4908788717757201e+01 xlo xhi
-1.4908788717757201e+01 1.4908788717757201e+01 ylo yhi
-1.4908788717757201e+01 1.4908788717757201e+01 zlo zhi

Masses

1 15.9994
2 1.00794
3 12.0107
4 1.00794
5 12.0107
6 12.0107

Bond Coeffs # harmonic

1 1000 1
2 469 1.4
3 367 1.08
4 469 0.7

Angle Coeffs # harmonic

1 100 109.47
2 35 120
3 63 120

Dihedral Coeffs # opls

1 0 7.25 0 0
2 0 7.25 0 0
3 0 7.25 0 0

Improper Coeffs # cvff

1 2.5 -1 2

Atoms # full

896 299 2 4.0999999999999998e-01 -1.2153037955305155e+01 -6.0632364592198691e+00 -9.2509191753636415e+00 0 -1 2
1193 398 2 4.0999999999999998e-01 -1.0745517950319012e+01 -1.0167404296661800e+01 -9.1944692366956335e+00 1 0 3
366 122 2 4.0999999999999998e-01 -8.6561776234234014e+00 -1.1949595003938541e+01 -8.2929552790603314e+00 0 1 2
1363 455 1 -8.1999999999999995e-01 -9.3105085529099654e+00 -1.2741919558697973e+01 -1.3678161278301321e+01 0 0 2
364 122 1 -8.1999999999999995e-01 -9.2613831016218473e+00 -1.1177845234111222e+01 -8.0975623683917277e+00 0 1 2
365 122 2 4.0999999999999998e-01 -8.7457285774544342e+00 -1.0323871150038357e+01 -8.1674087598599847e+00 0 1 2
536 179 2 4.0999999999999998e-01 -5.6040018711874140e-02 -9.8249805345411385e+00 -8.0517913711413271e+00 0 -1 1
120 40 2 4.0999999999999998e-01 -1.4906034292606977e+01 -1.3023387507600457e+01 -1.2432885314246176e+01 0 0 1
1119 373 2 4.0999999999999998e-01 -1.1337040887658073e+01 -1.0341262191300530e+01 -1.2685238574209066e+01 0 0 0
2273 758 2 4.0999999999999998e-01 -8.6827873463842096e+00 -1.0197154206757334e+01 -1.0509858417243734e+01 0 -2 1
2272 758 1 -8.1999999999999995e-01 -8.4573354830121517e+00 -1.0467899401126509e+01 -1.1445763497708862e+01 0 -2 1
119 40 2 4.0999999999999998e-01 -1.4374633302098314e+01 -1.3187794419419275e+01 -1.3968249310683500e+01 0 0 1
2149 717 1 -8.1999999999999995e-01 -1.2375363981447377e+01 -1.2597989673548877e+01 -1.0428483768092853e+01 0 -2 3
2150 717 2 4.0999999999999998e-01 -1.3372174632175099e+01 -1.2540018135995282e+01 -1.0483779870812201e+01 0 -2 3
2274 758 2 4.0999999999999998e-01 -9.2597350333150530e+00 -1.0346936493618369e+01 -1.2030205759251704e+01 0 -2 1
1365 455 2 4.0999999999999998e-01 -8.6999409572149737e+00 -1.3085505789266131e+01 -1.2964574923722825e+01 0 0 2
1793 598 2 4.0999999999999998e-01 -1.3211533703929144e+01 -9.7959857150999703e+00 -1.0108584931118809e+01 1 0 2
1117 373 1 -8.1999999999999995e-01 -1.0501011284029403e+01 -1.0338768568398011e+01 -1.3233962647385248e+01 0 0 0
1792 598 1 -8.1999999999999995e-01 -1.4192390434526374e+01 -9.7906507951715760e+00 -1.0303370459252312e+01 1 0 2
2398 800 1 -8.1999999999999995e-01 -1.3118583402407884e+01 -6.5723186361148986e+00 -1.2745317670941763e+01 2 0 -1
1118 373 2 4.0999999999999998e-01 -1.0410541356311910e+01 -1.1214874980172313e+01 -1.3707568588010295e+01 0 0 0
755 252 2 4.0999999999999998e-01 -1.1386611055978040e+01 -7.9793171719481597e+00 -1.0117018116252707e+01 -1 1 0
2151 717 2 4.0999999999999998e-01 -1.2094983666427824e+01 -1.2611259593981728e+01 -9.4686605889222690e+00 0 -2 3
250 84 1 -8.1999999999999995e-01 -7.9016706570245780e+00 -8.8140536151812121e+00 -9.3766254563624312e+00 -2 -1 0
1194 398 2 4.0999999999999998e-01 -1.1779243437833713e+01 -9.3656711826602308e+00 -8.2170261649435332e+00 1 0 3
754 252 1 -8.1999999999999995e-01 -1.1310811751536306e+01 -7.2491261934439040e+00 -1.0796080199433508e+01 -1 1 0
756 252 2 4.0999999999999998e-01 -1.0346159958123812e+01 -7.0325575064938741e+00 -1.0946395404906704e+01 -1 1 0
895 299 1 -8.1999999999999995e-01 -1.2572153345248601e+01 -5.8651099746538513e+00 -8.3648390277590625e+00 0 -1 2
709 237 1 -8.1999999999999995e-01 -1.1478099984658595e+01 -1.4536632347696147e+01 -1.2448027331569289e+01 0 1 2
2399 800 2 4.0999999999999998e-01 -1.2531819600437226e+01 -6.7276772489606493e+00 -1.1950571295876738e+01 2 0 -1
1794 598 2 4.0999999999999998e-01 -1.4702743443402026e+01 -9.7607338219260953e+00 -9.4438970236889581e+00 1 0 2
897 299 2 4.0999999999999998e-01 -1.3513529496396009e+01 -6.2024828410442758e+00 -8.3584884475187966e+00 0 -1 2
99 33 2 4.0999999999999998e-01 -7.0061395760049896e+00 -1.4258184164730618e+01 -9.0138729808799170e+00 1 0 4
1003 335 1 -8.1999999999999995e-01 -1.1440288515709728e+01 -1.2894766517354421e+01 -7.9124414298082808e+00 1 -2 1
2443 815 1 -8.1999999999999995e-01 -1.3623005503801298e+01 -9.2649950177148206e+00 -1.3011265800917741e+01 -1 0 3
2445 815 2 4.0999999999999998e-01 -1.4082161799906679e+01 -9.3356103728001987e+00 -1.2125693241504495e+01 -1 0 3
1511 504 2 4.0999999999999998e-01 -6.7841485543985698e+00 -1.1934243969302205e+01 -8.7114108879968022e+00 0 -1 -1
2444 815 2 4.0999999999999998e-01 -1.3402128716861869e+01 -8.3074757704141842e+00 -1.3196792428875236e+01 -1 0 3
2401 801 1 -8.1999999999999995e-01 -7.8118050851377765e+00 -1.3800956525567099e+01 -1.1452954948436293e+01 1 -1 3
1061 354 2 4.0999999999999998e-01 -1.3410394240617993e+01 -9.6668588791311016e+00 -1.4704699235503293e+01 -2 -1 0
2403 801 2 4.0999999999999998e-01 -7.8144545963307088e+00 -1.3603222183083281e+01 -1.0472677505691211e+01 1 -1 3
1998 666 2 4.0999999999999998e-01 -7.3842374207585868e+00 -5.3964614218703595e+00 -1.3989598711971077e+01 0 0 1
383 128 2 4.0999999999999998e-01 -8.1344640726341133e+00 -6.2381023488753797e+00 -1.1652306439770388e+01 -1 0 2
1005 335 2 4.0999999999999998e-01 -1.0524567427200253e+01 -1.2508051529196784e+01 -8.0217859915084517e+00 1 -2 1
2400 800 2 4.0999999999999998e-01 -1.2551301553887612e+01 -6.3770831452177088e+00 -1.3545395308778650e+01 2 0 -1
97 33 1 -8.1999999999999995e-01 -7.6194589603429437e+00 -1.3568638056894256e+01 -8.6286258840058352e+00 1 0 4
251 84 2 4.0999999999999998e-01 -7.9516600739138621e+00 -8.0272457238690826e+00 -9.9918361874828712e+00 -2 -1 0
382 128 1 -8.1999999999999995e-01 -8.4206387444996054e+00 -6.5057115120227245e+00 -1.0732230773451978e+01 -1 0 2
1497 499 2 4.0999999999999998e-01 -9.5168535788795392e+00 -9.7529087163438533e+00 -1.4795407439632140e+01 1 -1 2
252 84 2 4.0999999999999998e-01 -6.9588936537581132e+00 -9.1448842154366794e+00 -9.3345247015207384e+00 -2 -1 0
1687 563 1 -8.1999999999999995e-01 -2.1707085651489795e+00 -1.0719781166007431e+01 -1.4643329847608126e+01 1 -1 3
2402 801 2 4.0999999999999998e-01 -7.1738660529706451e+00 -1.4547863871879864e+01 -1.1640606334686055e+01 1 -1 3
537 179 2 4.0999999999999998e-01 -1.3700688665805494e+00 -1.0783618734758393e+01 -7.9065318094608417e+00 0 -1 1
384 128 2 4.0999999999999998e-01 -8.4956709540012376e+00 -5.6915134967963237e+00 -1.0156469034017745e+01 -1 0 2
1997 666 2 4.0999999999999998e-01 -8.2491608642495819e+00 -6.6718537390619712e+00 -1.3449190291771240e+01 0 0 1
1946 649 2 4.0999999999999998e-01 -1.4361976886226886e+01 -5.4481975225994379e+00 -1.3232787305005507e+01 1 -2 -1
1192 398 1 -8.1999999999999995e-01 -1.1545609370886719e+01 -9.5680654329779955e+00 -9.1680790160025918e+00 1 0 3
1216 406 1 -8.1999999999999995e-01 -2.4315712752287855e+00 -4.9906641566427279e+00 -1.4721262054689456e+01 0 0 2
1996 666 1 -8.1999999999999995e-01 -7.3634600113556576e+00 -6.2094108540164861e+00 -1.3407592368862057e+01 0 0 1
1757 586 2 4.0999999999999998e-01 -5.4084571292117580e+00 -1.3210966038193458e+01 -1.2834353566138583e+01 0 -1 3
33 11 2 4.0999999999999998e-01 -6.8391566399210539e+00 -1.1564617989112076e+01 -1.1837614507280470e+01 1 -1 2
710 237 2 4.0999999999999998e-01 -1.0494445788709331e+01 -1.4484246420812589e+01 -1.2620451145596160e+01 0 1 2
1689 563 2 4.0999999999999998e-01 -3.0232742124808123e+00 -1.1191577699731377e+01 -1.4868251395402673e+01 1 -1 3
1769 590 2 4.0999999999999998e-01 -5.3109189805256563e+00 -5.9269602427474055e+00 -8.6974786653967016e+00 -1 -1 2
2048 683 2 4.0999999999999998e-01 -8.6164698521410443e-01 -5.7572594538534645e+00 -1.3242618964612447e+01 0 0 -1
1554 518 2 4.0999999999999998e-01 -3.3861066534874666e+00 -5.5329204740825020e+00 -1.2384804022039024e+01 1 -2 1
2289 763 2 4.0999999999999998e-01 -6.0214117409168288e-01 -6.6006183423041929e+00 -8.9857805158283188e+00 1 -3 0
930 310 2 4.0999999999999998e-01 -6.9495658577232966e+00 -8.9628462463166301e+00 -1.1988865869346522e+01 2 -2 2
1552 518 1 -8.1999999999999995e-01 -2.6028026961294337e+00 -6.1081265577616541e+00 -1.2148959475764162e+01 1 -2 1
1616 539 2 4.0999999999999998e-01 -1.2267224235115251e+01 -1.4751879117153671e+01 -9.3985243795285243e+00 0 0 2
91 31 1 -8.1999999999999995e-01 -4.7209055529508284e+00 -7.5531647510416313e+00 -8.2213431868233542e+00 0 -1 0
32 11 2 4.0999999999999998e-01 -5.6838553862713397e+00 -1.0541173988925129e+01 -1.2371094375974559e+01 1 -1 2
31 11 1 -8.1999999999999995e-01 -5.9216337493468032e+00 -1.1502282212645714e+01 -1.2230445059770421e+01 1 -1 2
1392 464 2 4.0999999999999998e-01 -4.3456519248635210e+00 -1.2124012163996497e+01 -1.1509673264225386e+01 0 -1 2
929 310 2 4.0999999999999998e-01 -5.9934502098200682e+00 -7.8977484387289882e+00 -1.2775103039137907e+01 2 -2 2
1553 518 2 4.0999999999999998e-01 -2.9096705653001909e+00 -7.0503490219451947e+00 -1.2014427866354948e+01 1 -2 1
535 179 1 -8.1999999999999995e-01 -1.0255779822862756e+00 -9.8499845764426119e+00 -7.8080277517032517e+00 0 -1 1
146 49 2 4.0999999999999998e-01 -2.3109507458525371e+00 -7.7428823814443755e+00 -1.0289489864225748e+01 -1 0 -1
928 310 1 -8.1999999999999995e-01 -6.0193988147927442e+00 -8.6042283980087966e+00 -1.2067810618859204e+01 2 -2 2
145 49 1 -8.1999999999999995e-01 -1.9539320147132297e+00 -7.6229543007795497e+00 -9.3630965109927828e+00 -1 0 -1
98 33 2 4.0999999999999998e-01 -7.6206196510669706e+00 -1.3643411874829747e+01 -7.6314010543607189e+00 1 0 4
1982 661 2 4.0999999999999998e-01 -3.0897323421418541e+00 -9.6749355899491327e+00 -1.1823594942062506e+01 -1 1 1
508 170 1 -8.1999999999999995e-01 -1.5003797746302947e+00 -1.0882744834628085e+01 -1.2006530763622340e+01 -2 -1 0
147 49 2 4.0999999999999998e-01 -1.7149926571803391e+00 -8.5151913727928132e+00 -8.9798593678325069e+00 -1 0 -1
183 61 2 4.0999999999999998e-01 -3.6353141671237790e+00 -1.2550746446989706e+01 -9.3470483816153127e+00 0 -1 1
92 31 2 4.0999999999999998e-01 -3.7623888064886373e+00 -7.6837151803555965e+00 -8.4748230455862625e+00 0 -1 0
1756 586 1 -8.1999999999999995e-01 -5.1932055139502200e+00 -1.4143739937546361e+01 -1.3123575644660219e+01 0 -1 3
1390 464 1 -8.1999999999999995e-01 -3.5322568668030208e+00 -1.2408082576621087e+01 -1.1001990005709505e+01 0 -1 2
1981 661 1 -8.1999999999999995e-01 -3.3222915971175055e+00 -8.7135830291359504e+00 -1.1971132140922752e+01 -1 1 1
1376 459 2 4.0999999999999998e-01 -1.2813036500826609e+00 -1.4650259358746494e+01 -1.1611020616763573e+01 -3 -1 0
1377 459 2 4.0999999999999998e-01 -2.8682742663371208e+00 -1.4607384377508069e+01 -1.1993701832409160e+01 -3 -1 0
1512 504 2 4.0999999999999998e-01 -5.2060408169589465e+00 -1.1515302855500266e+01 -8.7401112370413720e+00 0 -1 -1
1364 455 2 4.0999999999999998e-01 -8.8217219852019770e+00 -1.2714194310886919e+01 -1.4550152571367217e+01 0 0 2
1983 661 2 4.0999999999999998e-01 -4.3131610697329634e+00 -8.6217391949748148e+00 -1.2070087968999772e+01 -1 1 1
667 223 1 -8.1999999999999995e-01 -4.7172702332455003e+00 -8.0354383576859885e+00 -1.4638015073313937e+01 -2 -1 -2
510 170 2 4.0999999999999998e-01 -1.4088194394097417e+00 -1.0764331883559349e+01 -1.2995290049143392e+01 -2 -1 0
1391 464 2 4.0999999999999998e-01 -2.7387650842817486e+00 -1.1895281663911252e+01 -1.1329794567284521e+01 0 -1 2
509 170 2 4.0999999999999998e-01 -5.9299445750418123e-01 -1.0889796080434010e+01 -1.1586230883845214e+01 -2 -1 0
1688 563 2 4.0999999999999998e-01 -2.3680178577329709e+00 -9.7671977025612833e+00 -1.4411589525725056e+01 1 -1 3
669 223 2 4.0999999999999998e-01 -3.7438954923418368e+00 -7.9586580816265498e+00 -1.4854108002318920e+01 -2 -1 -2
1758 586 2 4.0999999999999998e-01 -5.1845044457352518e+00 -1.4189345293509639e+01 -1.4122522215147228e+01 0 -1 3
1510 504 1 -8.1999999999999995e-01 -6.1384369915195212e+00 -1.1177060144212735e+01 -8.6125217793775484e+00 0 -1 -1
181 61 1 -8.1999999999999995e-01 -3.9116342262826755e+00 -1.2785308471957597e+01 -8.4150196195703710e+00 0 -1 1
182 61 2 4.0999999999999998e-01 -3.6693085967074595e+00 -1.3736735677695167e+01 -8.2249819488317435e+00 0 -1 1
1992 664 2 4.0999999999999998e-01 -5.8958129902479843e+00 -5.3548453135478606e+00 -1.2969559955362124e+01 1 -4 0
903 301 2 4.0999999999999998e-01 -8.4511003109363987e+00 -8.0524694750001338e+00 -7.7388306570468615e+00 -1 1 1
711 237 2 4.0999999999999998e-01 -1.1721409637717054e+01 -1.3905795254110000e+01 -1.1711213368685666e+01 0 1 2
1880 627 2 4.0999999999999998e-01 -1.9628559726943884e-01 -1.4298220225580097e+01 -8.4264918103865227e+00 1 0 0
2310 770 2 4.0999999999999998e-01 -6.0063440463654416e-02 -7.8465811223369917e+00 -1.1444624047804357e+01 0 -1 1
1070 357 2 4.0999999999999998e-01 -2.1344123703942053e+00 -5.2629731865162324e+00 -7.6507724009799283e+00 -1 -2 1
2297 766 2 4.0999999999999998e-01 -1.4557924608785969e+01 -1.2506982167758050e+01 -3.8973507748402749e+00 1 -1 3
901 301 1 -8.1999999999999995e-01 -8.3056255792178124e+00 -7.6219322447979154e+00 -6.8480307028117586e+00 -1 1 1
902 301 2 4.0999999999999998e-01 -7.7585233354713790e+00 -8.2277717141820048e+00 -6.2703738138400222e+00 -1 1 1
1492 498 1 -8.1999999999999995e-01 -6.1923376018194567e+00 -5.3723886936144627e+00 -2.8464185794851904e+00 1 0 2
628 210 1 -8.1999999999999995e-01 -1.2364834615886341e+01 -8.6047077817801245e+00 -6.3282476584662266e+00 -1 0 0
630 210 2 4.0999999999999998e-01 -1.3137072749885920e+01 -8.2763376280160657e+00 -5.7843072624041341e+00 -1 0 0
821 274 2 4.0999999999999998e-01 -1.2972265009016475e+01 -1.0399286675266431e+01 -6.3002442583980311e+00 -2 0 2
549 183 2 4.0999999999999998e-01 -1.0633794158501212e+01 -6.1686215406122802e+00 -4.8393757115218303e+00 0 -2 2
547 183 1 -8.1999999999999995e-01 -1.0434279595910187e+01 -7.1289225285763900e+00 -5.0344801916699407e+00 0 -2 2
548 183 2 4.0999999999999998e-01 -9.8314040772508058e+00 -7.1891370071392968e+00 -5.8300712640726289e+00 0 -2 2
1618 540 1 -8.1999999999999995e-01 -9.4742512128512075e+00 -1.1227340527296338e+01 -5.0277713390762848e+00 -1 -1 0
1619 540 2 4.0999999999999998e-01 -8.7527577674758597e+00 -1.0552316736998325e+01 -4.8733695979142411e+00 -1 -1 0
1999 667 1 -8.1999999999999995e-01 -1.3053964846668253e+01 -5.6454394539164916e+00 -4.7345179901370553e+00 1 -2 1
730 244 1 -8.1999999999999995e-01 -1.3962784618677226e+01 -1.2554220949514413e+01 -2.1003618132890001e+00 0 -1 0
629 210 2 4.0999999999999998e-01 -1.1509619543647219e+01 -8.2871235217486241e+00 -5.9186170189182779e+00 -1 0 0
1620 540 2 4.0999999999999998e-01 -9.4382175314534944e+00 -1.1542750287874895e+01 -5.9760687635194216e+00 -1 -1 0
2298 766 2 4.0999999999999998e-01 -1.4046218172034887e+01 -1.2271980885435141e+01 -5.4302207264548716e+00 1 -1 3
1255 419 1 -8.1999999999999995e-01 -1.3785878103092555e+01 -8.9264602532154704e+00 -8.1045851262266666e-01 1 -1 0
1306 436 1 -8.1999999999999995e-01 -7.7345533482410307e+00 -1.3859683563191355e+01 -5.9663003047154355e+00 2 -2 1
489 163 2 4.0999999999999998e-01 -1.0151660504959079e+01 -6.7035076138444651e+00 -2.8746909770245335e+00 -2 -4 2
2142 714 2 4.0999999999999998e-01 -1.3186535909635086e+00 -7.4661897760591920e+00 -1.3433460146794829e-01 2 -2 0
532 178 1 -8.1999999999999995e-01 -1.8637317915141534e+00 -1.0195451915786906e+01 -2.6236557144212309e+00 -2 -2 1
488 163 2 4.0999999999999998e-01 -1.0596662457784653e+01 -6.5674095066985831e+00 -1.3093763457257523e+00 -2 -4 2
487 163 1 -8.1999999999999995e-01 -1.0180820816330549e+01 -6.0914727125989678e+00 -2.0843664944992799e+00 -2 -4 2
891 297 2 4.0999999999999998e-01 -8.4888305561065547e+00 -6.0228814078608472e+00 -8.4520470557930949e-01 -1 -2 2
1170 390 2 4.0999999999999998e-01 -1.3140977055981953e+00 -8.3516842377474347e+00 -6.6976637641452115e+00 -2 0 2
477 159 2 4.0999999999999998e-01 -1.2278485840142430e+01 -8.2554076682373623e+00 -1.0438372086598591e-01 0 0 -1
1759 587 1 -8.1999999999999995e-01 -1.4688294720263160e+01 -7.8674466187618899e+00 -4.8730901380635032e+00 0 -2 0
2353 785 1 -8.1999999999999995e-01 -1.2005294197623661e+01 -1.2904868029795288e+01 -3.8724843244206753e+00 1 0 1
732 244 2 4.0999999999999998e-01 -1.3951541580408188e+01 -1.2099652137423821e+01 -1.2096931895342955e+00 0 -1 0
2354 785 2 4.0999999999999998e-01 -1.1270430931907660e+01 -1.2228219538484220e+01 -3.9190953082904585e+00 1 0 1
820 274 1 -8.1999999999999995e-01 -1.3221663966835290e+01 -1.1333585619823930e+01 -6.5550685394189880e+00 -2 0 2
1256 419 2 4.0999999999999998e-01 -1.4225447599585475e+01 -9.6893686679110171e+00 -1.2845884998777208e+00 1 -1 0
2355 785 2 4.0999999999999998e-01 -1.2493188964601348e+01 -1.2807857258120158e+01 -3.0049605911429538e+00 1 0 1
2483 828 2 4.0999999999999998e-01 -8.2360618209973904e+00 -1.2332068997764008e+01 -1.7672845369385257e+00 0 1 2
2482 828 1 -8.1999999999999995e-01 -8.7865367115568738e+00 -1.1498267153325452e+01 -1.8097312431534078e+00 0 1 2
1601 534 2 4.0999999999999998e-01 -1.2090689499745810e+01 -1.4123304807016002e+01 -5.0439733181225037e+00 0 -1 2
1308 436 2 4.0999999999999998e-01 -8.3886432280879113e+00 -1.4277709876896429e+01 -5.3358478576208768e+00 2 -2 1
1450 484 1 -8.1999999999999995e-01 -4.5679460801234431e+00 -7.6760678732650360e+00 -5.4121243078670034e-01 2 -1 -1
1761 587 2 4.0999999999999998e-01 -1.4248305447469752e+01 -7.0026460649495865e+00 -4.6310586541414089e+00 0 -2 0
2484 828 2 4.0999999999999998e-01 -8.8449511052564702e+00 -1.1185321416624207e+01 -2.7577304794896165e+00 0 1 2
2210 737 2 4.0999999999999998e-01 -8.2641502745915751e+00 -5.8314178004203505e+00 -6.6575931466743388e+00 -1 -1 -2
2140 714 1 -8.1999999999999995e-01 -8.0604319895160614e-01 -6.6744686011692735e+00 -4.6668686859038644e-01 2 -2 0
93 31 2 4.0999999999999998e-01 -4.8583588782802529e+00 -7.8462344014771421e+00 -7.2751579049665240e+00 0 -1 0
683 228 2 4.0999999999999998e-01 -2.7223479142589468e-01 -1.0730610895963224e+01 -1.7694096829983472e+00 -2 -1 2
2138 713 2 4.0999999999999998e-01 -5.6582067030570720e+00 -5.3629318199347775e+00 -4.9010844269505167e+00 -1 2 1
1600 534 1 -8.1999999999999995e-01 -1.1817163559940361e+01 -1.4811568229203598e+01 -5.7159308214121864e+00 0 -1 2
731 244 2 4.0999999999999998e-01 -1.4389936071823371e+01 -1.3453906716936153e+01 -2.0100457373172240e+00 0 -1 0
475 159 1 -8.1999999999999995e-01 -1.1367962725486569e+01 -7.8476931288959353e+00 -3.5345080895922365e-02 0 0 -1
1691 564 2 4.0999999999999998e-01 -2.3527320193547414e+00 -1.4867798966742809e+01 -5.7800747775987968e+00 0 4 0
332 111 2 4.0999999999999998e-01 -1.6525711354830381e+00 -1.1219813547433201e+01 -3.9780421540943536e+00 2 -2 1
822 274 2 4.0999999999999998e-01 -1.2419539929606309e+01 -1.1804195452167235e+01 -6.9227276750476605e+00 -2 0 2
1004 335 2 4.0999999999999998e-01 -1.1434683582480600e+01 -1.3558496621543339e+01 -7.1644569592809191e+00 1 -2 1
1556 519 2 4.0999999999999998e-01 -1.0165151962658953e+01 -1.4498026855495313e+01 -3.5798575625142881e+00 0 -2 1
2045 682 2 4.0999999999999998e-01 -7.3176017570483154e-01 -5.3230749065345933e+00 -1.6512488206572709e+00 0 -2 -2
1307 436 2 4.0999999999999998e-01 -7.2113495444116635e+00 -1.3155962639856398e+01 -5.4855878337174975e+00 2 -2 1
337 113 1 -8.1999999999999995e-01 -6.7381819840320976e+00 -9.8231284340525988e+00 -6.1533208267437338e+00 0 1 3
1168 390 1 -8.1999999999999995e-01 -1.2188132541337744e+00 -7.8271013299714287e+00 -5.8516238952339865e+00 -2 0 2
2459 820 2 4.0999999999999998e-01 -4.2245323909393058e+00 -9.3713299515423341e+00 -6.0269251839111071e+00 1 1 0
2007 669 2 4.0999999999999998e-01 -5.2949778002816341e+00 -1.1947584278745492e+01 -4.6570364133524951e+00 0 0 -1
1471 491 1 -8.1999999999999995e-01 -2.5718691821275961e+00 -5.3258905415446751e+00 -5.0618520957595123e+00 -1 0 2
285 95 2 4.0999999999999998e-01 -2.1088156956834663e+00 -9.6199359022223909e+00 -8.5095141231975724e-01 -1 -1 1
1988 663 2 4.0999999999999998e-01 -9.9241833467514020e+00 -1.2703926684347989e+01 -7.4941874063465441e-01 -1 -2 0
2384 795 2 4.0999999999999998e-01 -3.9111961044793624e+00 -7.9585983036439485e+00 -3.8410421309199947e+00 -1 0 1
333 111 2 4.0999999999999998e-01 -6.1930233349727715e-01 -1.1616553456804574e+01 -5.1787554280125203e+00 2 -2 1
721 241 1 -8.1999999999999995e-01 -3.9008015899646313e+00 -1.1358702009494927e+01 -6.0831702706085302e+00 -1 -2 -2
338 113 2 4.0999999999999998e-01 -6.4080204047625848e+00 -1.0110424002873426e+01 -7.0524895397238403e+00 0 1 3
2005 669 1 -8.1999999999999995e-01 -6.2151536664563345e+00 -1.2041773181831628e+01 -4.2769645115575088e+00 0 0 -1
1579 527 1 -8.1999999999999995e-01 -3.6635190836386364e+00 -1.2224254661935838e+01 -1.5970310045773157e+00 -1 0 0
1987 663 1 -8.1999999999999995e-01 -1.0727347990191227e+01 -1.3228252231341665e+01 -4.6647156138734047e-01 -1 -2 0
533 178 2 4.0999999999999998e-01 -2.5306399094880110e+00 -1.0900202399345604e+01 -2.3815603236461822e+00 -2 -2 1
1451 484 2 4.0999999999999998e-01 -5.2203166067217079e+00 -7.3093862003740826e+00 -1.2045426501099286e+00 2 -1 -1
722 241 2 4.0999999999999998e-01 -3.9239715663707351e+00 -1.1831516365397377e+01 -6.9640559354689868e+00 -1 -2 -2
1169 390 2 4.0999999999999998e-01 -3.4923571325977498e-01 -8.0556633754587494e+00 -5.4138521417084515e+00 -2 0 2
339 113 2 4.0999999999999998e-01 -6.4127813187898060e+00 -1.0464279007344315e+01 -5.4582741342711874e+00 0 1 3
534 178 2 4.0999999999999998e-01 -2.3338525893955602e+00 -9.3225950147628414e+00 -2.7546408478781377e+00 -2 -2 1
2006 669 2 4.0999999999999998e-01 -6.1526870580056379e+00 -1.2286151226323227e+01 -3.3092728616528486e+00 0 0 -1
1581 527 2 4.0999999999999998e-01 -3.0386857944595516e+00 -1.3004965868817472e+01 -1.5859318680251242e+00 -1 0 0
331 111 1 -8.1999999999999995e-01 -1.4635510577624320e+00 -1.1875229994521519e+01 -4.7093085316333099e+00 2 -2 1
275 92 2 4.0999999999999998e-01 -6.3517463204161437e+00 -1.3176364068962032e+01 -7.8580848831677841e-01 0 -2 1
274 92 1 -8.1999999999999995e-01 -6.7111593925282182e+00 -1.3260284101863039e+01 -1.7152327378625021e+00 0 -2 1
1690 564 1 -8.1999999999999995e-01 -1.7639777216917594e+00 -1.4778435953889657e+01 -4.9766866751158148e+00 0 4 0
2385 795 2 4.0999999999999998e-01 -2.6915854915493274e+00 -7.1695676320044504e+00 -3.0948920430746121e+00 -1 0 1
2458 820 1 -8.1999999999999995e-01 -3.9488460570314441e+00 -8.4748364223142794e+00 -5.6800156829672090e+00 1 1 0
1580 527 2 4.0999999999999998e-01 -4.2670875776898374e+00 -1.2269039488737423e+01 -8.0094733297878662e-01 -1 0 0
276 92 2 4.0999999999999998e-01 -6.2864781734862838e+00 -1.4044731328515544e+01 -2.1672705447880514e+00 0 -2 1
723 241 2 4.0999999999999998e-01 -3.0105452152276513e+00 -1.1502559404606087e+01 -5.6509683752066042e+00 -1 -2 -2
2460 820 2 4.0999999999999998e-01 -2.9569293707532935e+00 -8.4567279221129983e+00 -5.5542254594505494e+00 1 1 0
1472 491 2 4.0999999999999998e-01 -2.0607643856811233e+00 -6.1249590026395673e+00 -5.3785715764784872e+00 -1 0 2
1692 564 2 4.0999999999999998e-01 -1.4540359804772010e+00 -1.3831232270319795e+01 -4.8942790504701499e+00 0 4 0
2383 795 1 -8.1999999999999995e-01 -3.3157678876125161e+00 -7.9487793933999322e+00 -3.0376625943511346e+00 -1 0 1
1452 484 2 4.0999999999999998e-01 -3.7784329599435669e+00 -8.0545558411511706e+00 -1.0243953316547323e+00 2 -1 -1
2296 766 1 -8.1999999999999995e-01 -1.4844089065343468e+01 -1.2448494887851574e+01 -4.8537706472326008e+00 1 -1 3
890 297 2 4.0999999999999998e-01 -7.0270410388213005e+00 -5.6729911539788400e+00 -2.0684149412531205e-01 -1 -2 2
283 95 1 -8.1999999999999995e-01 -1.8362787354690653e+00 -9.1023058090033810e+00 -3.9882681738527381e-02 -1 -1 1
2139 713 2 4.0999999999999998e-01 -6.5551031710367500e+00 -4.9833551050832146e+00 -6.2119076723700051e+00 -1 2 1
1257 419 2 4.0999999999999998e-01 -1.4222353249496138e+01 -8.0688816956306511e+00 -1.0826684540779947e+00 1 -1 0
1989 663 2 4.0999999999999998e-01 -1.0437374030082662e+01 -1.4118277116547063e+01 -1.1458997694836448e-01 -1 -2 0
2000 667 2 4.0999999999999998e-01 -1.2699141193913478e+01 -5.2855212659730313e+00 -5.5974252175211046e+00 1 -2 1
1473 491 2 4.0999999999999998e-01 -3.3741651744162429e+00 -5.1913815362253199e+00 -5.6434690471257447e+00 -1 0 2
1494 498 2 4.0999999999999998e-01 -5.6852547095766433e+00 -5.1064113270749623e+00 -2.0265571140933822e+00 1 0 2
1590 530 2 4.0999999999999998e-01 -1.2640475527993093e+01 -1.0657497734072034e+01 -5.7993204655666375e-02 0 0 0
752 251 2 4.0999999999999998e-01 -6.4031319896936072e+00 -9.7091598735394662e+00 -1.6777372015853942e-02 1 -1 3
194 65 2 4.0999999999999998e-01 -1.2558978404686982e+01 -9.9693408015993263e+00 4.7726265942754686e+00 0 1 0
781 261 1 -8.1999999999999995e-01 -9.1565666783428021e+00 -1.0680762205281885e+01 7.1064230305649190e+00 -1 1 0
1900 634 1 -8.1999999999999995e-01 -1.0061702131304649e+01 -1.0182964807623613e+01 1.0062493667069337e+00 0 0 1
1250 417 2 4.0999999999999998e-01 -9.1858109803924162e+00 -5.2961984976430827e+00 1.1312233616909495e+00 -2 -2 -2
265 89 1 -8.1999999999999995e-01 -1.0042394359296964e+01 -1.1784184435266639e+01 3.6093561429799230e+00 -1 -2 0
195 65 2 4.0999999999999998e-01 -1.3111899042231105e+01 -1.1501401617111666e+01 4.6550350648017194e+00 0 1 0
782 261 2 4.0999999999999998e-01 -8.6417753399191461e+00 -1.0191737306207976e+01 6.4022253879023872e+00 -1 1 0
2236 746 1 -8.1999999999999995e-01 -1.3530757641085282e+01 -1.3827694004579023e+01 1.8508467473610359e+00 0 -1 1
2451 817 2 4.0999999999999998e-01 -8.9010627125158965e+00 -1.4261657007343709e+01 5.4103571881977359e+00 1 1 -2
206 69 2 4.0999999999999998e-01 -5.8879486775799439e+00 -5.5715549041992478e+00 2.9654166337532217e+00 0 -1 2
843 281 2 4.0999999999999998e-01 -5.3375470466446409e+00 -1.3086743672389673e+01 1.5353026049657217e+00 -2 -2 2
1286 429 2 4.0999999999999998e-01 -1.1097014987340042e+01 -6.8159356277626024e+00 2.9911165791604404e+00 -1 -1 0
1824 608 2 4.0999999999999998e-01 -1.2174906271401877e+01 -1.4200288759635210e+01 2.8276035180673915e+00 0 -1 1
193 65 1 -8.1999999999999995e-01 -1.2429914701740243e+01 -1.0851464640007784e+01 4.3195814315034120e+00 0 1 0
2449 817 1 -8.1999999999999995e-01 -8.2769456732326923e+00 -1.3743756079003152e+01 4.8252876687455633e+00 1 1 -2
1285 429 1 -8.1999999999999995e-01 -1.1027998191376135e+01 -7.6134593097477055e+00 3.5904849940102395e+00 -1 -1 0
266 89 2 4.0999999999999998e-01 -1.0972216768996855e+01 -1.1570443696578343e+01 3.9090143657808802e+00 -1 -2 0
267 89 2 4.0999999999999998e-01 -9.4237153080500704e+00 -1.1052087984256055e+01 3.8945242381459266e+00 -1 -2 0
2450 817 2 4.0999999999999998e-01 -8.7600297039144319e+00 -1.2960789738388227e+01 4.4333140184727249e+00 1 1 -2
1287 429 2 4.0999999999999998e-01 -1.1336416762223866e+01 -8.4277298012987600e+00 3.0986604653547367e+00 -1 -1 0
335 112 2 4.0999999999999998e-01 -1.0825873009630296e+01 -8.7196769687688160e+00 7.3053258180387601e+00 -2 -1 1
2572 858 1 -8.1999999999999995e-01 -8.3838474474158264e+00 -9.1643417944610182e+00 4.8716530622903349e+00 0 1 -1
2574 858 2 4.0999999999999998e-01 -9.0666789932342091e+00 -8.5120961962525428e+00 4.5424622668472203e+00 0 1 -1
2567 856 2 4.0999999999999998e-01 -1.6815090850653895e+00 -1.1792388682259146e+01 6.5390755724332337e+00 -1 0 0
2573 858 2 4.0999999999999998e-01 -7.5484060712522290e+00 -9.0744346871594104e+00 4.3294314568351204e+00 0 1 -1
232 78 1 -8.1999999999999995e-01 -1.4368891636703287e+01 -1.2457450104517957e+01 5.4065105134719325e+00 1 1 -2
1813 605 1 -8.1999999999999995e-01 -1.2780811101705808e+01 -1.3557165281712017e+01 7.2149422736355504e+00 -3 -1 0
1036 346 1 -8.1999999999999995e-01 -1.2075635257873426e+01 -8.5093819153384658e+00 5.8737943007424072e+00 0 -1 2
1500 500 2 4.0999999999999998e-01 -3.6062833507399183e-01 -7.6181720236206596e+00 3.0930381886392517e+00 2 -2 1
476 159 2 4.0999999999999998e-01 -1.0732114255501612e+01 -8.5156314327635272e+00 3.5144290845614279e-01 0 0 -1
1037 346 2 4.0999999999999998e-01 -1.3020101327823182e+01 -8.2463153389075323e+00 6.0708465962072076e+00 0 -1 2
2575 859 1 -8.1999999999999995e-01 -3.4580215367358722e+00 -1.0694021495817058e+01 3.8156794540006942e+00 0 1 2
302 101 2 4.0999999999999998e-01 -1.3948049258999188e+01 -1.0379092691661803e+01 3.1745245098053161e+00 -1 -1 0
1822 608 1 -8.1999999999999995e-01 -1.1395217550052013e+01 -1.4300367860030242e+01 3.4457615907775079e+00 0 -1 1
1823 608 2 4.0999999999999998e-01 -1.0847375201329157e+01 -1.3463916278773993e+01 3.4294139344589674e+00 0 -1 1
1038 346 2 4.0999999999999998e-01 -1.1791964906794810e+01 -8.1062757386557642e+00 5.0036872153583012e+00 0 -1 2
2159 720 2 4.0999999999999998e-01 -6.6371966592538616e+00 -7.6825391751166210e+00 3.8985651427664649e+00 -2 -1 2
1669 557 1 -8.1999999999999995e-01 -1.5346807247848346e+00 -1.3597905375012900e+01 1.2084144650398549e+00 -1 -1 -1
1589 530 2 4.0999999999999998e-01 -1.1921526435606465e+01 -1.2118432550386659e+01 6.6670622745993668e-02 0 0 0
301 101 1 -8.1999999999999995e-01 -1.4800140003505042e+01 -1.0128382819061184e+01 2.7150294662359329e+00 -1 -1 0
2238 746 2 4.0999999999999998e-01 -1.3230319621523705e+01 -1.2991455358580613e+01 1.3920529663726455e+00 0 -1 1
363 121 2 4.0999999999999998e-01 -6.7499362373007994e+00 -1.2134337035681380e+01 6.5451386813570416e+00 -1 0 1
2557 853 1 -8.1999999999999995e-01 -3.5987615228325431e-01 -1.2763260949527714e+01 6.5379322587768662e+00 1 1 1
615 205 2 4.0999999999999998e-01 -3.4774770207737760e+00 -9.6330246606706851e+00 7.1744455735469401e+00 0 -3 2
999 333 2 4.0999999999999998e-01 -2.8553344538175782e+00 -1.3695058386928851e+01 2.6748391145287336e+00 0 0 1
1520 507 2 4.0999999999999998e-01 -3.2507578304165836e+00 -5.7014066966161145e+00 5.0070564900985168e+00 1 0 0
1237 413 1 -8.1999999999999995e-01 -9.8395325063340753e+00 -5.0818652715344612e+00 7.1913257320290214e+00 -1 0 1