2593
Atoms. Timestep: 1000000
O 10.2735 9.24798 8.68922
H 10.1638 10.1861 9.01761
H 10.5338 9.26108 7.72383
O 5.58526 12.2538 -7.91988
H 5.44068 11.7207 -7.08634
H 5.67991 11.6346 -8.69936
O -7.46173 2.25553 -13.6261
H -7.48194 3.22208 -13.8817
H -7.69702 2.16157 -12.6588
O 10.0815 10.9843 -11.4696
H 10.1061 10.0039 -11.6647
H 9.90762 11.4882 -12.3156
O 14.7491 -12.9545 -13.2305
H 14.0543 -12.4941 -12.6781
H -14.4564 -13.546 -12.6444
O -0.326096 4.46345 -9.94975
H 0.600416 4.43973 -10.3252
H -0.779214 5.30846 -10.2336
O 7.7044 -1.03911 1.08237
H 6.94182 -0.429686 0.865557
H 7.43027 -1.67117 1.80715
O -2.73807 -14.1983 5.82431
H -3.06074 -14.4652 6.73239
H -3.28884 -13.4354 5.48575
O 5.22139 -14.3519 -5.24814
H 6.02368 -14.4866 -5.82961
H 5.50759 -14.3038 -4.29121
O 7.97763 13.0197 -1.9098
H 8.83136 13.5272 -2.0262
H 8.12187 12.2678 -1.26655
O -7.63489 -9.63567 -12.4539
H -8.19278 -10.1156 -13.1309
H -6.66708 -9.80876 -12.6364
O 7.58185 -10.5189 12.4956
H 8.16555 -10.4165 13.301
H 7.48026 -11.4899 12.279
O -13.9182 -5.67015 -8.11246
H -13.6805 -6.56739 -7.74044
H -14.4989 -5.18231 -7.46076
O -5.09529 -12.9397 0.187082
H -4.87 -13.0004 1.15945
H -5.32499 -13.8493 -0.159207
O -5.89062 -13.1097 -7.22531
H -5.82385 -14.0861 -7.43056
H -6.15447 -12.6127 -8.05189
O 5.97396 -6.01553 -8.53249
H 6.45056 -6.68537 -9.10178
H 5.18054 -5.66166 -9.02766
O 12.756 -11.0655 -5.79305
H 13.0098 -11.9983 -6.04845
H 13.3338 -10.4157 -6.28688
O 12.9771 9.24992 -10.3946
H 12.1037 9.19347 -10.8783
H 12.8119 9.25982 -9.40842
O -11.0875 5.06032 -7.18849
H -10.3277 5.70678 -7.25732
H -11.6779 5.15334 -7.99016
O 5.87499 -8.16155 2.49649
H 5.59851 -9.07223 2.18961
H 6.10115 -8.19231 3.47006
O 0.402591 -3.03023 13.4742
H 0.511078 -3.74255 12.7808
H -0.21092 -3.35596 14.1935
O 8.68013 -4.52048 1.98348
H 8.8547 -4.72252 1.01982
H 9.12904 -5.20758 2.55472
O -3.65695 -2.30681 -8.08204
H -4.39936 -2.23622 -8.7482
H -3.24003 -3.2137 -8.14245
O -4.61117 13.7504 11.3673
H -5.4147 13.182 11.1905
H -4.79712 14.6895 11.0785
O 10.2855 6.79798 10.0506
H 11.1649 6.68854 10.5138
H 10.2151 7.72558 9.68377
O 11.4177 -12.1073 12.901
H 11.6013 -12.5344 12.0157
H 10.7617 -12.6644 13.4102
O -8.64061 -2.38606 -3.5518
H -8.6545 -1.74953 -4.32288
H -7.69754 -2.659 -3.36186
O 3.02109 6.15981 10.2494
H 3.34805 6.4917 11.1342
H 2.12167 6.55256 10.0578
O 5.53349 -14.2749 -2.465
H 6.04623 -13.4164 -2.47
H 5.47007 -14.6198 -1.52854
O -1.33992 -11.392 8.3746
H -0.589154 -11.3498 7.71543
H -1.13777 -12.0856 9.06604
O -4.78625 -9.62942 -8.61476
H -4.39845 -8.95416 -9.24212
H -4.52972 -9.39842 -7.67627
O 9.80442 3.80326 -9.04825
H 10.436 4.08532 -8.32611
H 10.1031 4.18837 -9.92142
O -10.0226 13.1167 -8.23486
H -10.9656 13.4372 -8.14595
H -9.62385 12.9978 -7.32558
O 12.6595 5.62653 4.57798
H 13.1012 6.21081 5.25877
H 12.3722 6.18225 3.79787
O 8.54067 -11.8923 -12.6748
H 8.52475 -12.4697 -13.491
H 9.30451 -11.2499 -12.7358
O -9.68794 7.17907 -2.74935
H -9.7512 6.23388 -3.06958
H -8.76712 7.35159 -2.39968
O 4.73732 7.59266 2.77523
H 4.79748 8.2311 2.00796
H 4.31849 8.05165 3.55871
O 12.9902 -3.10095 7.83014
H 13.1583 -3.97234 8.29099
H 12.9916 -3.24179 6.84014
O 9.14569 -5.97153 -9.87967
H 8.4487 -5.87323 -10.5899
H 10.0184 -6.21812 -10.301
O -12.9537 -9.03758 -12.6664
H -12.6114 -9.49296 -13.4883
H -12.4028 -9.31322 -11.8787
O 4.51845 -7.88492 -12.7776
H 4.52212 -8.71777 -13.331
H 4.18089 -8.09581 -11.8603
O 7.23497 -8.07266 -14.81
H 6.33696 -7.66474 14.7846
H 7.41826 -8.7671 14.2535
O -13.2697 3.90359 3.09436
H -13.0111 4.8077 2.75427
H -12.7347 3.68937 3.91159
O -12.068 -8.07609 13.453
H -12.5812 -8.52351 14.1854
H -12.6222 -8.05787 12.6208
O -11.1652 3.81369 4.92805
H -10.3965 3.19584 4.7629
H -11.601 3.57875 5.79689
O 8.31992 8.8239 -4.52266
H 8.27363 9.82029 -4.59331
H 9.16305 8.56186 -4.05319
O 8.26519 -8.11949 -12.3552
H 7.99838 -8.02967 -13.3147
H 7.45989 -8.33886 -11.8045
O 9.15676 -12.5438 4.20143
H 9.17333 -12.9832 5.09949
H 9.26128 -13.2375 3.48889
O -0.999 -5.73612 -10.4635
H -1.83946 -5.28425 -10.7625
H -0.682465 -6.35854 -11.1793
O 9.82792 7.94126 -1.3408
H 9.94023 7.97096 -2.334
H 9.0467 7.36092 -1.11092
O -3.59899 4.779 -13.074
H -4.13803 5.62114 -13.0868
H -3.74279 4.30438 -12.2057
O 9.18504 3.05715 4.35868
H 10.044 2.6361 4.0673
H 8.41599 2.53266 3.99343
O -4.04951 -8.51473 2.23932
H -3.6687 -7.5935 2.31844
H -3.98607 -8.82118 1.28958
O 6.61607 11.8401 -14.2949
H 6.47657 10.8506 -14.3311
H 6.97791 12.0931 -13.3977
O 7.01233 7.42235 -0.542822
H 6.51066 8.23859 -0.829196
H 6.38577 6.64423 -0.499214
O 5.76247 -0.662853 10.7737
H 5.01465 -1.20761 11.1531
H 5.54162 0.308999 10.8554
O 5.94177 11.696 0.653761
H 6.86537 11.3596 0.47009
H 5.30756 10.9239 0.693427
O -7.96573 5.2521 1.12558
H -7.52989 4.70826 0.408488
H -7.37687 6.02489 1.36218
O 8.38577 -6.26677 -1.04141
H 8.05129 -6.81741 -0.276648
H 8.03965 -6.64415 -1.90032
O -12.4836 9.58605 -11.6318
H -13.2503 10.2054 -11.8008
H -12.1398 9.72686 -10.7034
O -0.308369 -12.4181 -8.1682
H -0.506326 -12.6229 -9.12673
H -0.149219 -11.4364 -8.06312
O 3.79186 10.1825 8.87345
H 4.55638 9.72855 8.41585
H 3.65125 11.0866 8.47002
O 11.4296 -11.244 7.02662
H 12.2136 -10.6232 7.02598
H 10.7133 -10.8756 7.61921
O 14.2219 -7.45852 -14.0787
H 14.4114 -6.47899 -14.1462
H -14.8735 -7.88483 -13.4644
O -13.6835 -9.08234 3.57689
H -14.0046 -8.32147 4.14069
H -13.0702 -8.73564 2.86721
O 11.4447 7.24925 13.0923
H 11.7425 6.66255 12.3393
H 11.6102 6.78482 13.9623
O 1.73917 -11.5239 2.75596
H 1.31283 -12.4232 2.65927
H 2.6628 -11.6307 3.12398
O -3.20548 -5.59733 4.89446
H -4.16496 -5.31568 4.8917
H -3.1512 -6.59559 4.91585
O -4.97785 -4.59863 0.825918
H -4.81549 -3.74892 1.32749
H -4.23319 -5.24068 1.00808
O -14.765 -9.3281 13.5081
H 14.3518 -8.60613 13.765
H 14.6875 -10.1991 13.8917
O -3.61574 6.95703 6.66691
H -3.37957 6.37834 5.88635
H -2.96714 6.79471 7.41049
O 10.5146 4.58202 -3.68707
H 9.78881 3.93987 -3.93358
H 11.1667 4.13032 -3.07819
O -14.7861 1.64307 6.30248
H 14.5904 1.88417 5.4107
H 14.2299 1.48489 6.95249
O 3.91242 6.21391 -9.47128
H 3.11954 5.79572 -9.91444
H 4.41558 6.76355 -10.1381
O 9.80701 -11.2277 -8.35267
H 10.7305 -11.5165 -8.60507
H 9.76023 -11.0876 -7.36368
O -5.02481 1.55937 0.346299
H -4.05351 1.50747 0.114321
H -5.12445 1.76671 1.31945
O 12.9474 11.0382 14.6468
H 12.9562 11.9967 -14.8274
H 12.7476 10.9833 13.6685
O 14.5663 -13.9058 4.68717
H 14.3726 -13.0451 4.21646
H 13.7551 -14.4899 4.6612
O 10.2194 -6.54431 -13.8446
H 9.47064 -6.85925 -13.2615
H 10.7208 -5.81526 -13.3787
O 7.89197 12.8882 2.37904
H 7.24494 13.1725 3.08649
H 7.41118 12.7897 1.50779
O 0.0237103 9.19403 11.1422
H 0.277393 8.9994 10.1947
H -0.12385 10.1769 11.2525
O 8.70135 -8.08131 -8.10521
H 9.12714 -7.41695 -8.71943
H 9.0449 -8.99677 -8.31462
O -11.9908 -1.44257 -11.4634
H -12.241 -2.25564 -11.989
H -11.0183 -1.24869 -11.592
O -8.79754 -7.33036 -7.12213
H -8.3464 -7.53315 -7.99119
H -8.23281 -6.69684 -6.59329
O -3.64459 -0.251301 4.95102
H -3.17939 -1.12309 4.79767
H -4.25332 -0.332635 5.74017
O 4.75676 3.43083 1.0542
H 3.75844 3.38171 1.08411
H 5.03938 4.00365 0.284828
O -9.23314 -0.79334 -5.65856
H -9.05023 -0.215342 -6.4538
H -10.1388 -1.20746 -5.74876
O 2.7977 6.09096 6.04453
H 2.70361 6.08059 7.04001
H 3.52464 5.46075 5.77187
O -11.8301 -8.50628 1.49952
H -10.9032 -8.27257 1.20583
H -12.3545 -8.83814 0.715404
O -4.99087 12.3475 -14.3376
H -4.97716 11.9862 14.4893
H -4.25455 11.928 -13.8068
O 13.0394 12.1149 9.7398
H 13.5294 12.2749 10.5967
H 13.3175 11.2344 9.35618
O -7.61662 -12.9146 -2.37987
H -8.2835 -12.2911 -2.78797
H -6.77947 -12.4122 -2.16374
O -0.371521 -11.6838 -13.3436
H 0.264516 -10.9156 -13.4164
H -1.31086 -11.3448 -13.395
O -13.0694 -0.231864 12.5449
H -12.4432 -0.861817 12.0856
H -12.8682 0.705194 12.2596
O 0.232853 -7.56352 -0.446771
H 0.378361 -8.46356 -0.0360467
H 0.0562542 -7.66836 -1.42542
O -1.40392 12.0967 -3.61342
H -1.10114 11.36 -4.21806
H -0.841174 12.9085 -3.76938
O -9.43396 12.7161 11.7665
H -10.031 11.9201 11.6677
H -9.52502 13.0885 12.6901
O 0.237633 1.58815 13.8616
H 0.87044 0.813887 13.8632
H 0.647577 2.35464 14.356
O 12.5726 -9.06699 8.9373
H 11.9155 -8.73952 9.61623
H 13.0032 -8.28536 8.48612
O -2.96892 -10.8537 13.4919
H -2.60287 -10.5057 12.6288
H -3.43743 -11.722 13.3292
O 11.7507 -11.4973 3.45245
H 11.0692 -12.0372 3.94639
H 11.3667 -11.1928 2.58079
O -6.9351 11.614 -12.6002
H -6.14796 11.7141 -13.2087
H -7.77483 11.8104 -13.1064
O -2.22441 11.0833 14.1348
H -2.32606 11.0195 -14.6318
H -3.12141 10.9957 13.7016
O 0.266171 -8.24974 3.99354
H 0.384949 -7.73789 4.84433
H -0.146148 -9.13842 4.194
O 1.82377 -14.2026 11.4874
H 1.75853 -13.8063 12.4032
H 2.53743 -13.7304 10.97
O 2.44038 1.88441 -11.6503
H 1.79468 1.43459 -12.2673
H 2.97823 1.19258 -11.1686
O -9.44049 -14.409 4.08207
H -9.78056 -14.7189 4.96988
H -10.1925 -14.396 3.42312
O 4.22156 9.16548 0.498363
H 3.81784 9.17971 -0.416374
H 3.63503 9.67303 1.12948
O 3.92237 5.82405 13.8896
H 4.59166 5.37552 14.4819
H 3.35477 5.13179 13.444
O -7.46202 0.432002 6.29791
H -8.10675 -0.162617 6.77822
H -6.70292 -0.115245 5.94547
O -0.119048 -10.6382 -4.70822
H 0.0229306 -9.87041 -5.33291
H 0.765751 -11.0269 -4.4513
O -12.5445 -3.16033 9.72101
H -13.0663 -4.00699 9.82515
H -13.0201 -2.55174 9.08584
O -3.70833 -9.74215 -5.87595
H -4.647 -10.0516 -5.72405
H -3.10529 -10.5354 -5.95953
O 3.814 -12.898 10.0169
H 3.77838 -12.6664 9.04474
H 4.73153 -13.2207 10.2492
O 2.98017 -5.22788 -6.66858
H 2.92285 -6.04033 -7.24872
H 3.92903 -4.9152 -6.62573
O 12.5656 9.28107 -7.43039
H 13.5179 9.26083 -7.12605
H 12.2532 10.2294 -7.48495
O 9.20369 -10.3561 8.35778
H 8.98027 -9.43268 8.04574
H 9.76401 -10.3021 9.18427
O -10.1316 13.894 8.12648
H -10.6811 14.0447 8.94822
H -10.212 12.9386 7.84239
O -9.14678 -1.08169 -11.0675
H -8.39065 -1.24135 -10.4329
H -9.18215 -0.111331 -11.3064
O -7.97102 14.618 -11.4462
H -8.07257 14.7671 -10.4627
H -7.11005 -14.7389 -11.7572
O -7.52234 -11.431 5.07973
H -7.56586 -12.2114 5.70344
H -7.7129 -11.7383 4.14745
O -8.71344 -8.54068 -10.0467
H -7.93057 -7.92955 -10.1632
H -8.50063 -9.43408 -10.4422
O 1.2878 14.8134 -9.61515
H 2.13335 14.3258 -9.8325
H 1.36481 -13.9951 -9.91515
O 11.7564 11.9563 -3.25394
H 11.911 10.9983 -3.49536
H 11.3955 12.0114 -2.323
O -3.24019 3.77054 2.42196
H -3.70977 3.89499 1.54793
H -3.42574 2.85251 2.77226
O 8.23527 2.17356 -7.55961
H 8.61474 2.65373 -8.35042
H 7.98781 1.24119 -7.82302
O 6.049 -7.25562 9.65188
H 5.74398 -7.7651 10.4564
H 7.04142 -7.33841 9.56143
O -5.36842 -3.71448 -9.86496
H -6.02534 -3.85366 -9.12401
H -5.84626 -3.73895 -10.743
O -1.93507 -14.0513 1.68424
H -2.15414 -14.3146 0.744768
H -2.78192 -13.9116 2.19734
O -1.99397 3.09091 6.80935
H -1.69732 2.24648 6.36339
H -1.70965 3.07922 7.76797
O 11.6758 -13.4315 0.17415
H 12.5165 -13.3773 -0.364557
H 11.4128 -12.5147 0.474641
O -13.0224 11.1793 -6.23751
H -12.6509 10.9076 -5.34976
H -13.7785 11.8193 -6.10067
O -5.94751 -0.876907 -11.7891
H -6.14157 -0.947846 -10.8107
H -5.77261 0.078778 -12.0258
O 1.79879 -0.766719 14.5507
H 2.74756 -0.841807 14.8575
H 1.47895 -1.65995 14.2348
O -12.4868 -14.3908 14.1314
H -13.4067 -14.7801 14.1768
H -12.4945 -13.5856 13.5385
O -10.3165 11.2766 7.89954
H -9.46786 10.762 7.77743
H -10.5234 11.3517 8.87499
O -1.28788 6.87433 -10.8023
H -0.617952 7.25824 -11.4377
H -1.26996 7.39131 -9.94655
O 1.9359 7.03642 1.99143
H 2.01301 7.00721 0.994871
H 2.79131 6.71991 2.40134
O -7.31212 8.8054 -12.699
H -6.99781 8.66186 -13.6374
H -7.23295 9.77451 -12.4656
O 13.6776 13.3904 -13.4763
H 13.5176 13.8954 -12.6281
H 14.4505 12.7681 -13.3529
O -10.1204 13.8974 14.1353
H -10.8726 14.5519 14.2113
H -10.1036 13.3133 -14.8125
O -8.37608 -3.51544 11.4062
H -7.37642 -3.49298 11.3954
H -8.68829 -4.10072 12.1544
O -9.06085 7.01552 -11.9285
H -8.51223 7.8293 -12.1201
H -8.81131 6.64872 -11.0324
O 2.04417 14.5802 -1.64028
H 2.3269 13.6218 -1.60157
H 1.86768 -14.846 -0.714093
O 6.5995 4.00555 -6.15285
H 6.65464 4.94801 -5.82322
H 7.44625 3.76902 -6.62931
O -7.20739 1.24556 9.8701
H -6.80085 2.10951 9.57302
H -7.23261 1.21522 10.8693
O -9.6426 0.459937 12.3599
H -8.74349 0.272883 12.7556
H -10.1662 -0.390237 12.3055
O 12.6387 7.00911 -5.94236
H 12.7749 7.8341 -6.49079
H 12.7699 6.20139 -6.51708
O -8.6484 -5.57193 13.6996
H -9.60619 -5.56698 13.987
H -8.12188 -6.16869 14.3051
O -4.22494 -2.22105 2.14681
H -3.79403 -2.03542 3.02986
H -3.63518 -1.88737 1.41144
O 11.1027 4.83992 8.44785
H 10.871 4.87588 7.47575
H 10.5487 5.50585 8.94737
O -5.8062 -4.99945 7.29185
H -5.92113 -4.18671 7.86297
H -6.67024 -5.50091 7.24801
O -6.83575 10.6274 -6.55268
H -5.92553 10.2352 -6.6854
H -7.38091 10.0174 -5.97765
O 9.66741 -0.741103 10.7986
H 9.32783 0.0582111 11.2943
H 10.5126 -1.06343 11.225
O -10.152 -4.10161 -7.40454
H -10.6027 -4.5748 -8.16147
H -10.7375 -3.35866 -7.08014
O -9.99636 -2.24363 -1.17407
H -9.35827 -1.63767 -0.699099
H -9.55415 -2.6219 -1.98727
O 8.71986 10.3889 -7.47229
H 8.11021 11.1028 -7.128
H 8.20145 9.54453 -7.60742
O 8.86146 7.49881 4.98611
H 8.4588 7.61153 4.07777
H 9.2569 6.58367 5.06418
O 14.3706 -11.3623 3.39554
H 14.7595 -10.4751 3.64368
H 13.3754 -11.285 3.33564
O 2.47 -14.3194 -4.10774
H 2.32266 -14.5394 -3.14348
H 3.345 -14.7002 -4.40659
O -13.5034 11.5697 14.0321
H -13.8717 10.6401 14.0191
H -13.6309 11.966 -14.818
O 11.7369 13.3039 -5.61505
H 11.7069 12.9227 -4.69106
H 11.6901 12.5616 -6.28348
O -11.2488 -11.5434 -0.159797
H -11.7708 -11.8959 0.616833
H -11.5701 -10.6244 -0.387875
O -0.873481 -13.7501 9.57009
H -0.582628 -14.0871 8.67467
H -0.721229 -14.4591 10.2586
O -2.39376 -4.40989 10.5191
H -2.70082 -3.56213 10.0867
H -2.88881 -5.18377 10.1242
O -10.253 2.14909 -14.7836
H -9.3499 1.75288 14.8104
H -10.5114 2.72508 14.2002
O 11.7232 9.86394 12.234
H 11.4503 8.94804 12.5284
H 11.1648 10.1431 11.4529
O 8.45432 -7.75567 1.54888
H 7.59102 -8.22397 1.73683
H 8.62112 -7.06793 2.25538
O -13.55 8.48351 11.6406
H -12.8775 8.01931 11.0642
H -14.4706 8.1969 11.3756
O -1.99494 -9.42375 -11.2745
H -1.46282 -10.1019 -10.7677
H -1.63885 -9.34897 -12.2059
O 3.06278 7.05674 -6.72113
H 3.64742 6.78805 -7.4866
H 2.24286 6.48442 -6.71105
O 3.96524 -1.6424 -11.6223
H 3.91253 -1.43794 -10.6449
H 3.2749 -2.32658 -11.8574
O -7.23004 -4.83746 -0.765081
H -6.36788 -4.76573 -0.263603
H -7.08439 -4.57194 -1.71809
O 11.3992 -2.14504 -4.93966
H 10.4578 -1.86985 -5.13434
H 11.4011 -2.84359 -4.22414
O 14.5498 6.9793 -11.9894
H 13.9315 7.4918 -11.3937
H -14.3468 7.47659 -12.0814
O 8.46665 7.71425 1.73294
H 8.19564 7.45138 0.806984
H 7.9692 8.53807 2.0046
O -0.605119 13.3132 1.18477
H -1.42015 13.806 1.48934
H -0.767057 12.9314 0.274822
O 0.275503 -8.10493 -3.12294
H 0.419382 -9.09297 -3.06812
H 1.15431 -7.64707 -3.25711
O 0.621122 -10.4697 -10.4828
H 0.676049 -9.62192 -11.0102
H 1.19281 -10.3918 -9.66608
O 1.06161 12.5241 3.33032
H 0.582422 12.237 4.1597
H 0.394029 12.7487 2.62051
O 3.26207 -1.09653 0.984035
H 3.33903 -2.06726 1.21142
H 2.52757 -0.685036 1.52359
O 14.5764 -1.76285 12.1014
H -14.619 -1.05352 12.5243
H 14.751 -1.78475 11.1171
O -10.6527 -8.48392 -2.60018
H -9.87195 -8.91521 -2.14804
H -10.6725 -7.51006 -2.37402
O 6.96695 6.0472 3.25099
H 6.12555 6.5674 3.10484
H 7.63447 6.28825 2.54654
O 11.6501 2.61733 10.384
H 11.3661 3.50038 10.0105
H 10.9207 2.24904 10.9603
O 11.8589 -13.2495 10.3685
H 10.8954 -13.1674 10.1138
H 12.4088 -12.6461 9.79099
O -8.59856 -0.365553 0.484381
H -8.41401 0.543898 0.856908
H -8.1061 -1.05141 1.02012
O 0.937586 -6.75555 6.0307
H 0.400185 -5.94715 6.27075
H 1.84151 -6.47191 5.71069
O -11.6755 -3.90945 2.15831
H -12.0029 -2.96828 2.07496
H -12.3555 -4.5341 1.77442
O 8.43798 2.70569 -4.11187
H 8.67268 1.75915 -3.89071
H 8.07211 2.74988 -5.04146
O 8.662 -11.6646 -0.712592
H 8.28544 -12.5793 -0.566189
H 8.19667 -11.0128 -0.113756
O 10.1944 1.51978 -11.8964
H 9.85407 2.44936 -11.755
H 11.1843 1.54475 -12.0353
O 3.68968 -2.09663 -4.63881
H 2.88644 -2.65087 -4.85688
H 3.58606 -1.70478 -3.72467
O 14.1824 5.47948 8.06724
H 13.2642 5.08444 8.09504
H 14.2295 6.16231 7.33823
O 6.68751 -3.00451 -10.2106
H 7.59229 -3.24886 -9.86191
H 5.99618 -3.2133 -9.51896
O 1.91357 3.45938 0.941235
H 1.63755 3.40175 -0.0181522
H 1.10682 3.61408 1.51145
O 4.06543 -10.7413 -6.43415
H 5.03746 -10.9644 -6.36099
H 3.53633 -11.5844 -6.52991
O 5.04719 14.254 0.21697
H 5.36129 13.3047 0.202684
H 4.23414 14.3273 0.794454
O 1.42802 -3.17659 -1.67825
H 1.46675 -2.29818 -2.15451
H 2.35583 -3.52551 -1.54652
O -7.65379 9.39845 -4.01071
H -7.83486 10.3635 -3.82161
H -8.51967 8.91772 -4.14887
O -6.33937 9.15015 14.3804
H -5.47936 8.64015 14.3655
H -6.37819 9.76129 13.5899
O -3.39778 14.5325 8.61005
H -4.36007 14.2609 8.62282
H -3.15523 -14.8176 9.48966
O -12.4809 -13.4069 4.02783
H -13.4729 -13.5173 4.08927
H -12.0318 -14.1369 4.54302
O 1.80927 -3.3889 -11.8315
H 0.849756 -3.1379 -11.7039
H 1.87395 -4.12993 -12.4998
O -7.68297 -8.69233 5.70307
H -7.5456 -9.65683 5.47766
H -8.59791 -8.56669 6.08652
O 13.6211 -13.8947 -8.73388
H 13.1604 -13.8203 -7.84949
H 13.4366 -13.0749 -9.27584
O 9.98601 12.0596 -14.1752
H 10.5719 11.4479 -14.7067
H 9.2057 12.3419 -14.7332
O -12.9546 2.47668 -7.87265
H -12.9475 3.47387 -7.79851
H -13.3437 2.21081 -8.75463
O -13.9529 -4.43893 -3.53585
H -14.8122 -4.04858 -3.20547
H -13.2281 -4.26004 -2.87065
O -12.8256 -9.32371 -0.99446
H -13.5141 -8.62407 -1.18524
H -12.0406 -9.19258 -1.59979
O 11.5419 2.06762 3.13128
H 12.4644 2.4435 3.21937
H 11.5944 1.13731 2.76834
O 11.5066 -12.7338 -12.6704
H 10.893 -13.3078 -12.1282
H 11.2463 -12.7857 -13.6345
O 0.836005 13.298 -13.8446
H 0.749042 12.5874 -14.5427
H 0.775018 14.1981 -14.2758
O 11.3054 -7.63941 13.6864
H 11.0024 -7.0458 14.4319
H 11.5495 -8.53702 14.0533
O -12.4453 -0.943084 -1.30634
H -12.3269 0.0342643 -1.13112
H -11.5492 -1.38466 -1.35101
O -7.68452 -13.9981 14.7841
H -7.88826 14.799 -14.7948
H -7.32564 -13.572 -14.1448
O 1.04992 3.25257 4.78728
H 0.925875 2.88294 5.70811
H 2.02073 3.23327 4.54836
O 1.59522 9.68102 -7.24498
H 2.19623 8.94181 -6.94121
H 2.00074 10.5619 -7.00093
O 7.59275 12.2315 10.7518
H 8.31662 12.258 10.0624
H 7.35699 11.2804 10.9512
O 9.2384 3.05621 7.71613
H 9.61723 2.56955 6.92899
H 9.9787 3.49842 8.22243
O -11.2153 13.8181 -5.05867
H -11.3513 14.2308 -4.15807
H -10.2402 13.6517 -5.20525
O -13.5495 12.6191 6.76088
H -12.9262 11.8691 6.53978
H -13.9188 12.4854 7.6805
O -5.77737 -6.37441 -14.8232
H -5.27679 -7.19809 14.6698
H -6.5882 -6.63237 -14.2979
O 2.24431 4.78768 -11.0404
H 2.37211 3.79649 -11.0065
H 2.22253 5.08855 -11.9938
O 1.56475 9.36657 -1.71009
H 0.722146 9.82823 -1.43291
H 1.39103 8.81897 -2.52856
O 1.67875 -12.7711 -11.6811
H 1.09294 -12.5832 -12.4694
H 1.66192 -11.9882 -11.0592
O 13.6586 7.63941 5.98631
H 12.757 8.06325 5.90065
H 14.3584 8.27614 5.66244
O 4.40547 -10.9261 -0.433527
H 3.4241 -10.9758 -0.248121
H 4.58736 -10.174 -1.06693
O 10.665 12.9285 2.93344
H 9.67234 12.8333 2.85909
H 11.0534 13.088 2.02592
O 4.84972 6.72029 -12.1066
H 4.64246 5.79545 -12.4254
H 4.2935 7.37967 -12.6123
O -10.2182 5.82759 3.424
H -10.7404 5.17642 3.97471
H -10.2689 5.56509 2.46043
O 9.99597 -10.7383 -5.52131
H 10.9936 -10.6833 -5.56225
H 9.66763 -10.2435 -4.71677
O -5.74491 -6.69807 10.4806
H -5.76048 -7.12346 9.57574
H -4.9369 -7.0088 10.9811
O 4.15474 -11.8004 4.5895
H 5.01732 -12.2052 4.28617
H 4.3401 -11.0936 5.27209
O 3.27696 -1.85949 -8.79893
H 2.40044 -1.48065 -9.09579
H 3.58853 -1.37697 -7.98038
O -9.1891 7.11761 -7.70818
H -8.22465 7.29305 -7.90561
H -9.57006 7.88779 -7.19668
O -12.8305 -13.3395 -11.4485
H -12.8229 -14.3297 -11.3093
H -11.967 -12.951 -11.1269
O 8.34119 10.6745 -0.347205
H 9.32922 10.8004 -0.43599
H 8.04803 9.91674 -0.930141
O -7.07964 -13.8866 2.95186
H -7.30771 -13.4791 2.06765
H -7.91536 -14.0126 3.48632
O 14.8792 -1.69045 9.43982
H 14.2805 -2.28041 8.8982
H 14.7907 -0.74578 9.12407
O -4.38843 -11.2435 -2.56506
H -3.95768 -11.6222 -3.38418
H -4.27255 -11.8802 -1.8028
O 11.2999 -2.93978 3.64088
H 10.9396 -2.15464 4.1445
H 10.6103 -3.66342 3.61383
O 12.3767 14.2662 4.66598
H 11.8521 13.9253 3.88586
H 11.8974 -14.7175 5.07664
O -12.4323 14.5357 -0.0758205
H -12.8764 13.8192 0.462199
H -13.0011 -14.4011 -0.0694981
O -3.25946 13.8338 -11.5673
H -3.43105 14.4737 -12.3163
H -2.2757 13.775 -11.3979
O 14.5887 12.6364 -5.43059
H 13.5983 12.6509 -5.29389
H -14.7146 12.9522 -4.59856
O -7.9228 5.22093 5.36599
H -8.64502 5.7712 4.94703
H -7.52194 5.72418 6.13149
O 12.2342 -6.7313 -10.8475
H 11.9458 -6.05959 -11.5298
H 13.1215 -7.11154 -11.1084
O 4.66815 8.04359 -4.72049
H 3.8398 7.69484 -5.15883
H 4.81012 8.99691 -4.9869
O 8.99281 -5.15035 -4.04783
H 8.5204 -5.45795 -4.87375
H 9.01585 -5.89454 -3.3803
O -4.41702 -8.95675 -0.500034
H -5.37813 -9.21685 -0.407569
H -4.00882 -9.4555 -1.2646
O -9.54991 -3.8798 -11.3622
H -10.1108 -4.18618 -10.5931
H -9.37419 -2.89911 -11.2767
O 4.57096 -12.8909 -12.2268
H 3.57689 -12.9036 -12.1191
H 5.004 -13.0929 -11.3484
O 3.67994 -1.83877 11.678
H 3.05392 -2.3859 11.1224
H 3.59655 -2.10835 12.6374
O -10.9859 5.20264 0.584952
H -10.9875 4.21844 0.761797
H -10.0688 5.49031 0.309261
O -2.48531 1.53601 13.8717
H -1.48639 1.58156 13.8697
H -2.77885 0.675087 14.2872
O 12.3939 -11.5036 -9.52073
H 13.0369 -10.8095 -9.19727
H 12.3097 -11.4424 -10.5153
O 8.73661 -2.7284 -8.34786
H 9.19297 -2.00612 -8.86746
H 7.87775 -2.37829 -7.97406
O 3.98798 -4.51093 -1.50597
H 4.68542 -4.16116 -2.13141
H 4.43005 -4.90153 -0.698543
O -12.6209 3.30556 7.08243
H -13.4091 2.73347 6.85551
H -12.1055 2.88246 7.82755
O -11.5635 -10.9884 3.23032
H -12.3358 -10.4073 3.48668
H -11.8087 -11.9481 3.36694
O 1.41059 8.43155 8.82333
H 2.27073 8.93563 8.90073
H 1.25294 8.18624 7.86683
O 2.10273 10.6589 1.57817
H 1.7754 11.0922 2.41784
H 1.32258 10.3232 1.05033
O 5.57888 5.0969 -1.12161
H 4.82485 5.31761 -1.74021
H 6.1197 4.35007 -1.5085
O -4.16634 5.77494 0.538139
H -3.90766 5.82993 -0.426225
H -4.89131 6.43726 0.72704
O -12.7727 -9.25821 6.47039
H -12.351 -10.1503 6.63263
H -13.2143 -9.25651 5.5732
O 14.3961 13.9785 1.15145
H 14.5918 13.1583 1.68898
H 14.2972 13.7298 0.187957
O 8.46258 0.620709 3.26412
H 8.54051 0.132124 2.39513
H 8.17925 -0.0166918 3.98063
O 12.5463 9.14412 0.877559
H 13.2904 9.07977 1.54246
H 12.7733 8.60042 0.0696105
O -11.6369 -11.5936 6.33072
H -11.4145 -11.8129 5.38078
H -12.5376 -11.9646 6.55638
O -9.56916 -10.607 7.92764
H -9.7354 -9.68686 8.28222
H -10.3071 -10.8617 7.30279
O -9.90052 -12.6668 9.98228
H -10.7894 -12.6294 9.52573
H -9.27892 -12.0097 9.55589
O -10.5005 8.01755 7.45864
H -10.2599 8.2573 6.51812
H -11.216 7.31908 7.45193
O -12.506 -10.7608 -4.08249
H -11.7838 -11.1388 -4.66162
H -12.5503 -9.76987 -4.20889
O 13.5971 8.22551 11.2598
H 13.3759 7.26298 11.4164
H 12.9865 8.80068 11.8041
O 5.5374 4.42289 -13.9225
H 6.34517 4.53717 -13.3442
H 5.38805 3.44982 -14.0979
O 0.928988 -7.95068 14.8473
H 1.69955 -7.31445 14.8101
H 0.569406 -8.09296 13.9252
O 5.2186 10.922 -5.19831
H 5.25427 11.5347 -4.40888
H 6.12709 10.5383 -5.36373
O 1.13997 2.03487 7.24154
H 0.475707 1.43151 6.80035
H 1.89326 1.48936 7.60884
O -3.10194 8.16066 -12.5477
H -3.7769 8.22559 -11.8128
H -2.27263 7.72261 -12.2009
O -8.24247 -9.11783 -1.24363
H -7.54902 -9.08682 -1.96342
H -7.92322 -9.70298 -0.49823
O -8.25779 -6.04472 7.14538
H -9.10802 -5.63942 7.48122
H -8.47007 -6.82547 6.55777
O 1.86841 -2.87168 9.83247
H 1.46741 -2.63373 8.94787
H 1.17247 -3.2985 10.4099
O 7.93265 -7.9763 -3.29248
H 8.64558 -8.62097 -3.01667
H 7.62143 -8.19875 -4.21638
O -11.7159 4.72333 -9.81815
H -11.3909 5.42381 -10.4535
H -12.1847 4.00228 -10.3284
O 7.96921 -2.46992 -4.50249
H 8.58621 -3.16547 -4.13444
H 7.03252 -2.82 -4.49938
O -14.7654 -3.34727 -9.62607
H -14.4112 -4.03864 -8.99643
H 14.0037 -3.26769 -9.51097
O -8.96273 -10.3538 -14.7731
H -9.32807 -9.9814 14.1331
H -9.39627 -11.2342 -14.5811
O -3.30234 9.01243 4.25941
H -3.89857 8.38204 3.76237
H -2.46889 8.53439 4.53649
O -11.8501 13.5653 10.2713
H -11.1561 13.227 10.9069
H -12.6103 12.9169 10.2319
O 0.335563 10.7191 -9.31012
H 0.915184 10.3522 -8.58256
H -0.121186 11.5477 -8.98646
O -1.42252 8.74252 -8.89465
H -2.37045 8.99002 -9.09492
H -0.821387 9.50519 -9.13323
O 10.9709 4.82001 -6.64363
H 10.5149 5.70993 -6.63951
H 10.8785 4.39395 -5.74371
O -1.07565 4.1877 -0.231911
H -0.854835 4.03897 0.731966
H -0.23311 4.18914 -0.770487
O 10.4805 -8.94937 4.79421
H 10.2801 -9.79334 4.29672
H 9.87153 -8.87539 5.58393
O -5.90958 10.1427 1.19929
H -6.596 10.4293 0.530985
H -5.15656 10.8006 1.20671
O -9.70089 -5.82841 -2.08628
H -9.75395 -5.45553 -3.01261
H -8.96334 -5.37475 -1.58612
O 5.96902 3.39978 3.33702
H 5.5443 3.20013 2.45402
H 6.52689 4.22602 3.25933
O -7.43098 -3.9166 -8.0905
H -8.42327 -3.91191 -8.21413
H -7.17177 -4.68413 -7.50429
O 3.29167 -6.76365 4.52159
H 2.9621 -7.20181 3.68533
H 3.25311 -5.77015 4.4148
O -10.094 -9.1145 -5.46236
H -10.2987 -8.7064 -4.57271
H -9.80271 -8.39956 -6.09791
O -10.1673 -7.82415 6.24524
H -11.0824 -7.87604 6.6451
H -10.239 -7.5712 5.28045
O 7.77164 -3.30664 7.09635
H 7.47578 -2.82244 7.91973
H 7.09743 -4.00662 6.86094
O 12.2704 3.6866 -1.76061
H 11.6918 3.62937 -0.947002
H 12.9478 2.95139 -1.74023
O 6.99775 9.47348 10.5264
H 7.31779 8.60605 10.9073
H 6.68174 9.32937 9.58871
O -9.93167 -9.3174 12.5725
H -10.775 -8.92523 12.9397
H -9.49572 -8.65712 11.961
O -14.2911 3.46203 -1.90263
H -14.7655 3.68608 -1.05134
H -14.5534 2.54362 -2.19863
O 11.2153 8.95924 5.97723
H 10.4817 8.46399 5.51209
H 11.0981 9.94173 5.83267
O -7.27578 5.65957 -9.68038
H -6.93066 5.36484 -10.5714
H -8.07749 5.11398 -9.43638
O -8.30318 -6.83531 -13.397
H -9.26222 -6.6107 -13.2246
H -8.04434 -7.63259 -12.8518
O -4.40888 -13.2558 2.9934
H -5.25287 -13.617 3.38984
H -4.21099 -12.3596 3.39045
O -8.99062 -2.55604 14.6038
H -8.79231 -3.45833 14.2211
H -9.96771 -2.48668 14.8049
O 5.26223 0.735937 -9.69594
H 5.77205 0.728477 -10.5561
H 5.03305 1.67835 -9.45248
O -8.14407 9.75925 8.83267
H -7.14637 9.71124 8.78539
H -8.44597 9.51913 9.75523
O 5.54216 -10.7375 6.75419
H 4.79397 -10.5631 7.39427
H 6.12814 -11.4625 7.11606
O -14.5553 5.66378 13.0918
H 14.6443 6.14324 13.7677
H -13.6414 6.06889 13.0681
O -4.01264 2.46031 -5.68512
H -3.03942 2.65709 -5.80368
H -4.12169 1.66573 -5.08789
O 6.18018 -4.78936 11.6624
H 5.37546 -4.50328 11.1423
H 6.58055 -3.99568 12.1203
O 13.3528 -3.45793 5.22972
H 14.2429 -3.14828 4.89539
H 12.6409 -3.18774 4.58154
O -14.3803 4.24698 10.3764
H -14.7786 4.69192 9.57437
H -13.4483 4.58189 10.5149
O 13.1979 -0.347765 -9.74462
H 13.8429 -0.517707 -8.99963
H 12.6484 -1.16799 -9.90333
O -12.461 -13.4656 9.41125
H -13.1418 -13.6542 8.70353
H -12.0341 -14.3226 9.69987
O 12.4322 14.2226 7.91159
H 12.8278 14.046 7.01035
H 12.8153 13.5803 8.57541
O 5.38647 10.6663 5.21568
H 4.79199 11.439 4.99348
H 4.82663 9.86578 5.42952
O 1.87702 -8.60297 9.81383
H 0.980179 -8.2537 9.54251
H 2.35149 -7.91365 10.3612
O -11.9181 6.81163 -11.6801
H -10.9282 6.90442 -11.7867
H -12.3539 7.6996 -11.827
O -10.8795 -1.9228 11.4225
H -11.6616 -2.18072 10.8553
H -10.242 -2.69103 11.4804
O -3.28244 11.2834 8.91156
H -4.12645 10.7519 8.98284
H -3.3529 11.9193 8.14305
O -7.00787 12.413 10.7748
H -6.86575 11.4386 10.6008
H -7.92107 12.5536 11.1573
O 7.57079 14.785 -13.1603
H 7.37057 14.0822 -12.4778
H 6.71417 -14.5867 -13.5009
O 0.990316 -0.319165 -9.29956
H 0.153262 -0.770228 -8.99002
H 0.83946 0.0786682 -10.2045
O 13.6613 -6.43042 12.2393
H 14.0219 -7.20215 11.7156
H 12.7913 -6.68972 12.6587
O -6.54188 -10.6388 0.367625
H -6.03605 -11.5001 0.320247
H -7.33671 -10.7514 0.963866
O -8.87168 10.1895 2.78082
H -9.49318 10.9261 3.04741
H -8.01822 10.2708 3.29553
O -13.4906 -12.7969 -7.48765
H -14.2893 -12.3225 -7.85766
H -12.7 -12.6273 -8.07609
O -13.7232 6.16364 -6.72891
H -14.1531 5.84177 -5.88539
H -12.7355 6.01689 -6.67664
O -1.09703 4.96897 -14.8049
H -0.726958 4.19784 -14.2869
H -1.9877 5.22573 -14.4298
O 3.00507 -6.31511 14.6387
H 3.86118 -6.41941 14.1326
H 3.20306 -6.00307 -14.1914
O -12.8197 13.9029 -7.68827
H -12.7223 13.7062 -6.71268
H -13.2076 14.8169 -7.80692
O -8.57481 14.4224 -2.0787
H -8.27253 -14.3884 -1.98472
H -9.57326 14.3852 -2.03809
O 8.21043 13.0272 13.4317
H 7.91218 12.8158 12.501
H 7.50812 12.7356 14.0811
O -11.6902 -2.42432 -5.92025
H -12.3307 -2.3766 -6.68671
H -12.1675 -2.75787 -5.10732
O -9.54081 12.1659 -13.4456
H -10.0732 11.3205 -13.4879
H -9.84988 12.7159 -12.6697
O -10.933 2.53221 1.22458
H -11.5861 2.46524 1.97881
H -10.0292 2.24262 1.53961
O -8.00411 0.747862 -7.92477
H -8.98801 0.587081 -8.00235
H -7.83126 1.73045 -7.85714
O -14.1966 -2.13334 2.10995
H -13.718 -2.09445 2.98705
H -14.8768 -2.86599 2.1336
O -7.58343 6.9805 7.55448
H -7.83824 6.34097 8.27974
H -8.26314 7.712 7.50115
O -4.39197 3.60228 14.4617
H -4.23959 3.88692 -14.3512
H -3.85651 2.77963 14.2708
O -6.27047 13.4586 4.83463
H -6.85964 14.0124 4.24634
H -5.3932 13.3065 4.37944
O -5.28486 8.76547 8.77404
H -4.28567 8.72627 8.77854
H -5.65006 7.91547 8.39448
O -9.26263 3.37532 -5.7422
H -9.0195 3.77717 -4.8594
H -10.1088 3.79077 -6.07581
O -11.9034 6.01118 13.2848
H -11.3624 6.83895 13.4332
H -11.7985 5.39947 14.0689
O 4.44209 -5.95901 1.26679
H 3.61869 -6.51488 1.38065
H 5.19894 -6.37775 1.76855
O -11.4011 -5.46723 13.7313
H -11.5591 -6.43309 13.5262
H -12.1866 -4.92886 13.4263
O 14.6968 7.87661 -0.910641
H 13.8272 7.46368 -1.18105
H -14.308 7.29895 -1.22226
O 5.77602 -5.43096 -5.83868
H 6.13767 -5.46451 -6.77035
H 6.36335 -5.96841 -5.2336
O -0.659676 -2.53224 -5.59341
H 0.0723772 -3.16244 -5.33479
H -0.54749 -2.26591 -6.55071
O -10.9797 10.2249 -14.4703
H -11.5108 9.498 -14.0349
H -11.5755 10.7598 14.6899
O 1.45244 13.4002 9.82814
H 1.47566 14.2625 10.3338
H 2.05225 12.736 10.2742
O -4.52661 3.47587 -10.5405
H -3.69961 3.40535 -9.98282
H -5.30949 3.67695 -9.9518
O -13.1157 11.7759 0.413019
H -12.22 11.3363 0.479113
H -13.5772 11.7269 1.29877
O -1.28344 6.80338 -6.7821
H -1.22353 7.35644 -7.61304
H -1.5949 5.88249 -7.01639
O 13.3556 -6.98789 1.30154
H 13.2462 -7.55638 2.11689
H 12.573 -7.12274 0.693745
O -10.8475 0.312955 -7.90554
H -11.2868 0.518706 -8.77993
H -11.5466 0.201109 -7.19939
O 7.24858 -8.56021 -5.78629
H 8.0164 -8.51008 -6.42495
H 6.93956 -9.5082 -5.71036