2593
Atoms. Timestep: 18495000
O 2.27686 3.87663 -1.86838
H 2.52729 4.70809 -2.36439
H 3.10587 3.40975 -1.56042
O 7.00255 -8.11943 10.1118
H 6.12213 -7.67176 10.2684
H 6.92873 -8.73469 9.32693
O -14.5435 9.67291 -14.1659
H -13.5838 9.40816 -14.2603
H -14.8225 10.2056 14.7611
O 12.65 5.78987 14.1769
H 12.8718 6.57969 14.7488
H 12.539 6.08595 13.2282
O -5.27431 -2.07782 -5.32286
H -5.98723 -2.16803 -6.01834
H -4.48282 -1.6095 -5.71565
O 7.83233 -3.40912 14.198
H 7.61217 -3.54271 -14.5617
H 8.71369 -3.83574 13.9949
O 13.2954 -14.246 -8.04887
H 13.07 -14.0838 -7.08816
H 13.2773 -13.3788 -8.54652
O -3.95214 -8.27506 -7.86031
H -3.44455 -9.01239 -7.41447
H -3.61839 -7.39264 -7.52861
O -9.07041 -8.64147 11.1219
H -8.8133 -7.6773 11.1878
H -9.64563 -8.77868 10.3154
O -10.2301 8.22269 7.63769
H -9.43165 8.37401 8.22046
H -10.7591 9.06875 7.57073
O 5.93007 2.90805 1.14923
H 5.8931 3.9061 1.20039
H 5.14031 2.57108 0.636591
O -4.17879 4.82039 4.37177
H -4.65976 4.21311 3.73935
H -4.13264 4.39262 5.27452
O 0.77762 10.0927 -9.4168
H 0.460968 9.14417 -9.41881
H 1.31559 10.2663 -10.2417
O 0.27938 -12.758 11.631
H 1.26507 -12.5996 11.689
H 0.0303798 -12.9664 10.6851
O -7.36424 -3.77586 5.24196
H -8.33998 -3.99174 5.27943
H -6.96502 -4.17908 4.41848
O 9.89996 -1.65649 5.4812
H 9.44034 -1.13235 6.1982
H 10.4379 -2.38977 5.89716
O -7.1881 14.333 -12.5956
H -6.47227 14.2882 -11.8987
H -8.07352 14.1298 -12.1775
O -14.0664 0.494617 12.4509
H -13.144 0.87777 12.5011
H -14.0673 -0.424754 12.8444
O 4.4458 12.3037 3.13558
H 4.25771 13.266 2.939
H 4.814 11.8621 2.31734
O 3.05137 -3.19125 -2.22251
H 2.96654 -2.65216 -1.3845
H 3.61914 -2.69692 -2.8808
O -2.32236 12.4168 -8.49748
H -2.83941 13.0524 -7.92411
H -2.73529 12.3773 -9.40742
O -10.3275 12.8736 10.1776
H -9.49366 12.8809 10.7296
H -11.045 13.3848 10.6507
O -8.43283 7.09071 1.0601
H -7.65246 7.15847 0.438399
H -8.20227 6.48206 1.81934
O 12.9031 12.2267 9.92297
H 13.7093 12.249 9.33158
H 12.0835 12.0989 9.3645
O 8.6983 9.71694 4.47318
H 8.92923 9.4406 3.54024
H 7.84767 10.2427 4.46419
O 11.3204 3.91224 -11.3696
H 12.1425 4.02673 -10.8118
H 11.5741 3.89005 -12.3366
O 10.5605 -12.8865 -10.7602
H 10.8119 -13.1587 -11.689
H 11.362 -12.5118 -10.2941
O 12.3572 -10.5501 -12.7708
H 11.7661 -10.2345 -13.5132
H 12.3311 -9.88962 -12.0203
O -3.12415 -14.5817 3.13601
H -4.114 -14.7239 3.14339
H -2.66429 14.2774 2.94314
O 7.76426 -10.5146 -13.4904
H 8.71851 -10.311 -13.7096
H 7.40073 -11.1656 -14.1568
O -0.752744 -6.46768 -11.5297
H -0.576032 -5.49273 -11.3943
H -1.60193 -6.72008 -11.0657
O 12.6848 6.96866 8.30378
H 12.1993 6.14114 8.02161
H 12.0266 7.64401 8.63673
O 9.33394 -9.41701 -6.13227
H 8.78995 -10.0808 -5.61896
H 9.5945 -8.66253 -5.52982
O 10.7629 -9.46483 -14.6834
H 11.2256 -8.58829 -14.5507
H 10.9028 -9.77658 14.1027
O 2.60797 4.24267 -13.5289
H 3.43986 4.48589 -13.03
H 2.15068 5.07561 -13.8406
O 8.43519 9.05744 -0.522631
H 9.33366 8.91235 -0.937072
H 7.72332 8.74872 -1.15352
O -14.85 -9.3264 10.8309
H 13.9847 -9.26046 10.3821
H -14.2148 -9.82297 10.2392
O -8.40492 -1.13043 -9.87308
H -9.27303 -1.27826 -10.347
H -8.57783 -0.699243 -8.9875
O -6.20885 0.796779 12.445
H -6.74003 0.928224 11.6079
H -5.59654 0.0142699 12.3317
O 8.52251 6.37026 -12.9255
H 9.1739 6.91303 -12.3953
H 9.00625 5.62676 -13.3874
O 1.8856 14.8036 2.21855
H 2.78898 -14.5308 2.39342
H 1.50487 14.4493 3.07272
O -11.0954 -8.65523 -11.5444
H -10.58 -9.48234 -11.3202
H -12.0748 -8.84101 -11.4648
O -1.52272 -3.05689 2.66388
H -2.03346 -2.30687 2.24355
H -1.9272 -3.27965 3.55092
O -10.0733 5.32648 -5.1242
H -9.30879 5.91205 -4.85451
H -10.486 5.68223 -5.96276
O 0.768368 -1.34946 3.14913
H -0.144704 -0.94841 3.22353
H 0.71385 -2.33479 3.31108
O 4.76385 -6.71267 -4.3248
H 5.69915 -7.06151 -4.3848
H 4.30791 -7.11601 -3.53139
O -0.175309 -5.23274 2.0792
H 0.817919 -5.16173 2.17156
H -0.583119 -4.32288 2.15606
O 0.343629 12.3339 -7.91249
H 0.684838 11.4585 -8.25502
H -0.617946 12.239 -7.65472
O -6.33389 -8.78996 10.2445
H -5.6619 -8.90839 10.9755
H -7.24587 -9.0093 10.5913
O 2.67193 -4.0163 7.04939
H 3.35927 -4.49152 7.59876
H 1.93913 -3.68657 7.64468
O -3.6993 12.5134 -10.9277
H -4.36635 13.2533 -10.8405
H -4.15518 11.6925 -11.2717
O 10.1663 -12.8162 14.2514
H 10.7684 -12.3541 13.6002
H 9.48406 -12.169 14.5917
O 13.7611 -9.49813 -9.60241
H 12.8066 -9.39313 -9.32316
H 14.2 -8.60011 -9.63348
O 12.8237 14.2108 -2.18052
H 13.2431 -14.6521 -1.89899
H 12.8876 14.1176 -3.17415
O 2.17318 2.25696 -11.3761
H 1.34724 1.69427 -11.4117
H 2.14867 2.93203 -12.1135
O -12.8948 -1.59512 14.7259
H -13.3242 -1.17116 -14.2026
H -13.4044 -2.41677 14.4704
O 8.94362 -2.33686 -7.11792
H 8.74392 -3.15092 -6.57248
H 9.55932 -1.73645 -6.60753
O -12.7837 7.66992 11.6373
H -13.0618 7.83327 12.5839
H -13.1139 6.77303 11.3429
O 4.55531 -10.8945 -12.9664
H 4.4905 -11.8856 -13.0833
H 5.48893 -10.6502 -12.7043
O 5.81714 -12.8791 -1.6134
H 6.30309 -13.0385 -2.47277
H 4.83268 -12.8523 -1.78717
O -0.876848 3.19861 4.78244
H -0.710845 4.00915 5.34417
H -0.00249003 2.79276 4.51624
O -3.28359 6.5395 6.77225
H -2.47807 5.94837 6.73018
H -3.94115 6.25707 6.07372
O -13.3658 12.1943 -5.73358
H -13.5603 12.8352 -4.991
H -14.0177 11.4366 -5.69919
O -10.7201 5.19778 -13.5975
H -10.7416 4.87436 -12.6514
H -11.3782 4.67823 -14.1425
O 7.90428 3.3353 -14.1782
H 8.5406 3.82097 -14.7776
H 8.12933 2.36093 -14.1727
O -1.20935 -1.95324 -14.51
H -2.09409 -2.278 -14.1756
H -0.520494 -2.66575 -14.3763
O 6.20029 7.99324 -1.95334
H 5.58546 8.52585 -2.53504
H 6.17856 7.03409 -2.23554
O 4.48188 3.94529 11.6282
H 3.8815 3.24828 11.236
H 4.45573 3.88465 12.626
O 8.31211 3.0066 4.91189
H 9.20809 3.2321 5.29458
H 7.64605 3.69748 5.19317
O 3.56215 11.3601 7.46562
H 3.89024 12.271 7.71578
H 2.84421 11.4425 6.77436
O -5.24622 5.81218 -3.56734
H -4.25769 5.87852 -3.70324
H -5.66412 6.70834 -3.71682
O 1.53275 7.74207 -4.89729
H 1.43137 8.67641 -4.55552
H 0.629869 7.35821 -5.09102
O 6.83465 11.7021 -1.3008
H 7.6247 11.0946 -1.21811
H 6.8987 12.2178 -2.15522
O -11.4281 13.1208 0.786844
H -12.0805 12.3899 0.987252
H -10.9231 13.3539 1.61789
O -0.853583 -14.2696 -12.2979
H -1.12593 -14.6978 -13.1596
H -1.18275 -14.8223 -11.5323
O -2.15539 -5.03631 5.54544
H -1.5556 -5.67031 6.03366
H -2.70086 -5.54156 4.87667
O 1.35338 10.1602 -3.36656
H 1.32742 9.63124 -2.51826
H 2.24774 10.5979 -3.45919
O -8.9197 -12.9781 -11.6425
H -9.64984 -13.5305 -12.0449
H -8.05585 -13.1804 -12.1039
O 5.19894 0.589156 14.5342
H 5.11312 1.30418 13.8404
H 4.29903 0.193899 14.7187
O -7.7542 -6.61311 7.13163
H -7.34157 -5.70226 7.14493
H -7.16372 -7.25373 7.62256
O 9.07538 4.01959 -7.86665
H 9.18385 4.09883 -8.85762
H 9.70929 4.64453 -7.41092
O -4.11967 -14.8462 -7.66484
H -4.64419 14.1659 -7.20079
H -4.00011 -14.0671 -7.04944
O 2.98437 -3.15825 13.1622
H 2.82405 -2.55482 12.381
H 2.52314 -4.03216 13.0085
O 6.63496 -13.3773 -9.36233
H 7.07322 -14.1486 -8.90064
H 5.64563 -13.5213 -9.38579
O -13.5251 14.0033 7.55026
H -13.7138 14.4606 6.68116
H -14.0627 13.1621 7.60787
O -9.15567 -1.34618 9.28361
H -8.42832 -0.964142 8.71345
H -8.94363 -1.18407 10.2474
O -5.82598 -11.601 -11.4374
H -4.93092 -12.0466 -11.4565
H -5.76454 -10.7103 -11.8879
O -9.68302 -13.1539 -4.49292
H -9.87622 -12.258 -4.89312
H -8.70668 -13.2239 -4.28814
O 4.96516 0.75163 -2.18318
H 4.39845 0.20984 -2.80397
H 4.39013 1.14869 -1.46781
O 3.80816 2.10594 -8.71692
H 4.45334 2.86126 -8.60155
H 3.45254 2.11115 -9.65157
O -2.49237 0.243415 13.8468
H -2.28903 0.804243 13.0442
H -1.9465 -0.593911 13.8154
O 6.64094 -1.01037 -6.20595
H 7.34557 -1.26291 -6.86913
H 5.81846 -0.712554 -6.69061
O 4.35485 5.59828 8.15512
H 4.45026 6.59025 8.23861
H 4.83211 5.1526 8.91252
O 0.685193 5.13434 -10.0984
H -0.215335 4.79058 -10.3648
H 1.38492 4.46536 -10.3493
O 3.87464 -4.44257 -5.65271
H 3.87625 -5.32968 -5.19108
H 4.14449 -3.72954 -5.00553
O -9.41653 1.3178 -3.74464
H -9.16168 1.10668 -4.68833
H -8.78026 1.99254 -3.37053
O 9.93094 -7.21525 10.899
H 9.04695 -7.57913 10.6053
H 9.99816 -7.26666 11.8954
O -3.47297 -8.59354 0.63715
H -3.7961 -7.88598 0.00864871
H -2.64002 -8.27949 1.09283
O -13.6739 -6.56891 -5.3085
H -13.3974 -5.83873 -5.93338
H -13.0434 -6.60039 -4.53289
O 14.8501 -3.06548 -4.23337
H 14.6904 -3.18188 -5.21369
H 14.4395 -3.82955 -3.73573
O -9.26621 10.0787 -4.58462
H -8.67833 10.8876 -4.59152
H -9.64449 9.94931 -3.66797
O -3.46817 -13.5519 -5.07534
H -2.56317 -13.456 -5.48987
H -3.37069 -13.8676 -4.13145
O -3.87845 -3.16113 -14.3116
H -4.23299 -2.91612 14.512
H -3.88086 -4.15613 -14.2114
O -2.96367 14.0796 -13.274
H -3.50941 14.093 -14.1118
H -3.3013 13.3594 -12.6678
O 3.58303 14.188 8.09105
H 4.01827 -14.8194 7.54846
H 2.61773 14.4113 8.22674
O 1.56937 -1.87183 -5.84969
H 1.77395 -1.25812 -6.6123
H 0.722519 -2.36867 -6.0396
O 9.9318 -7.37098 2.85964
H 9.2179 -6.82779 2.41764
H 10.1421 -6.97931 3.75543
O -3.39009 9.98899 -6.62576
H -3.03617 10.4698 -5.82352
H -3.11792 10.4781 -7.45449
O 5.9159 2.37547 -5.94871
H 6.80127 2.00431 -5.66866
H 6.03793 2.95862 -6.75191
O 5.79913 -10.3711 2.23217
H 6.2608 -10.7555 3.03165
H 4.97508 -10.9025 2.03559
O -13.445 8.78859 6.09731
H -12.6634 9.0605 5.53575
H -13.5257 7.79182 6.09589
O -0.120427 -8.59433 12.1201
H -0.433773 -7.89426 12.7618
H -0.102345 -9.4828 12.5788
O -13.8595 1.45684 -5.54819
H -13.4449 2.24397 -5.09151
H -14.6168 1.1109 -4.99421
O -8.83298 10.53 -7.8439
H -9.66043 10.9751 -7.50152
H -8.41334 9.99638 -7.10954
O -3.95502 10.4723 -3.14682
H -3.1475 10.7317 -3.67663
H -3.71859 10.4344 -2.17587
O 0.375951 -3.69446 -10.8804
H 1.21377 -4.21167 -10.7055
H 0.558301 -2.71737 -10.7704
O -4.40992 1.07901 5.15956
H -4.43259 0.20762 5.6497
H -3.92844 1.75965 5.71182
O 5.86581 -8.11412 -7.28695
H 5.47697 -7.1956 -7.35898
H 5.90289 -8.5325 -8.1945
O 13.3707 7.93012 -6.40206
H 12.6702 8.17561 -7.07219
H 12.946 7.80945 -5.5048
O 3.27578 -13.0777 13.8613
H 2.53778 -13.721 13.6575
H 3.78016 -13.3929 14.6653
O -6.65652 -4.01311 7.90239
H -5.67867 -4.16395 8.04777
H -6.82228 -3.80742 6.93787
O 6.38132 -14.818 -12.4931
H 6.83626 14.0861 -12.15
H 7.05471 -14.0877 -12.6082
O -7.71038 -7.17907 2.78433
H -8.26125 -7.14257 3.61817
H -7.14661 -8.00499 2.79317
O 3.00933 -10.2693 -3.89121
H 3.95374 -10.1382 -3.58963
H 2.74683 -9.52074 -4.50011
O -12.9761 -0.700285 -7.03751
H -13.1735 0.14279 -6.53718
H -13.699 -1.36879 -6.8625
O -3.11688 6.51363 -12.243
H -2.33464 6.54718 -12.8651
H -2.99337 7.18859 -11.5155
O -4.82429 7.9411 9.24691
H -5.62723 8.21999 8.72005
H -4.15285 7.523 8.63499
O 14.0067 10.8591 -11.6182
H 14.7304 10.2799 -11.9936
H 14.3992 11.4937 -10.9525
O 3.15222 14.7039 -4.62963
H 4.02478 -14.7795 -5.05375
H 2.50387 14.424 -5.33768
O -13.8238 -9.44528 -11.5503
H -13.8004 -10.2363 -12.1618
H -14.3695 -9.66509 -10.7417
O 10.4677 1.56954 -10.15
H 10.6432 2.50336 -10.4619
H 11.0378 1.37168 -9.35262
O -10.4806 -10.113 0.904965
H -11.0244 -9.30423 0.680804
H -10.7908 -10.8868 0.352741
O 3.83895 -14.3069 -9.79475
H 3.55111 14.4988 -10.0599
H 3.29522 -13.6312 -10.2926
O 3.24508 6.83842 -10.5985
H 2.64929 7.40551 -11.1673
H 2.68654 6.24076 -10.0233
O 10.5596 -6.27971 -5.28255
H 10.4803 -6.30382 -6.27915
H 11.4688 -5.94984 -5.02837
O 8.06193 -6.9458 7.17202
H 8.79916 -6.30662 7.39113
H 7.18207 -6.47508 7.23791
O -0.671503 -6.45933 -0.425822
H -0.355753 -5.8989 0.339875
H -0.975826 -5.86525 -1.17049
O 7.19483 -8.02262 -12.5136
H 7.53257 -8.92772 -12.772
H 7.93529 -7.35522 -12.5934
O -5.22015 -1.56574 10.9455
H -4.5696 -0.846167 10.7025
H -5.48326 -2.06913 10.1225
O -13.0198 8.91405 9.21584
H -12.4271 9.6615 8.91573
H -12.6771 8.54286 10.0789
O -9.68528 -8.58323 -2.75985
H -10.0204 -9.52524 -2.77931
H -9.13371 -8.4426 -1.93762
O 11.0503 4.48995 -14.1237
H 11.5758 5.07036 -14.7459
H 10.6943 3.70099 -14.6246
O 7.39694 7.00741 11.6771
H 7.96468 7.68372 12.1466
H 7.09376 7.37833 10.7993
O -4.60111 -6.71007 -1.1812
H -5.50024 -6.30205 -1.33978
H -3.99508 -6.48849 -1.9452
O -0.136333 9.83174 6.09838
H 0.0661305 8.97014 5.63283
H 0.436577 10.5583 5.71893
O 12.9847 -3.72284 0.334942
H 13.5899 -3.10531 -0.167486
H 12.0672 -3.68573 -0.0611976
O -2.74632 4.42505 -8.57201
H -2.25422 4.09436 -9.37734
H -2.24265 4.17137 -7.74616
O -9.21629 13.3552 3.89049
H -8.80329 12.5278 4.27111
H -9.86731 13.7354 4.54755
O 8.85345 1.39111 13.8434
H 9.70509 0.965897 13.5368
H 8.10447 0.733439 13.7623
O -14.2176 -11.6292 1.97935
H -14.519 -11.1529 1.15333
H -13.4134 -11.1687 2.35507
O 12.2779 0.563426 -8.22937
H 13.0784 0.626849 -7.63343
H 11.5121 0.172634 -7.71847
O 2.14328 14.0091 11.1467
H 1.55758 14.2926 10.3874
H 3.10059 14.1732 10.9086
O -6.66831 -4.83796 14.3891
H -6.04966 -4.31688 13.8011
H -6.87669 -5.71618 13.9586
O 1.73139 4.45613 -5.97876
H 2.38086 3.72387 -6.18384
H 1.99213 4.90292 -5.12292
O 1.14252 -8.92507 3.41553
H 1.37529 -9.75562 3.92157
H 1.96876 -8.54626 2.99851
O 7.28169 0.332717 -12.7592
H 6.62715 -0.0820715 -12.127
H 6.83757 0.493946 -13.6406
O -5.73618 7.70256 4.59516
H -5.12272 7.58818 3.81372
H -6.10239 6.81185 4.86461
O -11.6959 -7.44697 0.431474
H -12.017 -7.65371 1.35569
H -10.9738 -6.7565 0.476167
O 4.22169 -9.52117 7.94045
H 3.5082 -9.22856 8.57714
H 3.98864 -9.21802 7.01641
O 13.4429 -9.77258 -4.42973
H 13.0307 -10.2283 -5.21868
H 14.213 -9.2117 -4.73362
O -1.84568 11.2986 -4.62045
H -1.69112 12.2632 -4.83434
H -0.996333 10.8914 -4.28445
O 5.42087 12.3435 -9.83635
H 4.87266 11.5274 -9.65326
H 5.71208 12.3416 -10.793
O 11.9479 -1.31566 -14.1977
H 11.1229 -0.842198 -13.8889
H 11.7821 -1.7228 14.63
O -7.55957 -2.13504 14.2042
H -7.31109 -3.0734 14.4446
H -7.2344 -1.51151 -14.8108
O -13.3499 -0.471074 -9.73992
H -13.074 -0.45703 -8.7788
H -14.3446 -0.388374 -9.80242
O -3.2741 -1.06128 -2.9099
H -4.03732 -1.70294 -2.98638
H -2.68234 -1.33598 -2.15199
O 8.28512 9.27175 13.7192
H 7.506 8.775 14.1017
H 9.12428 8.98019 14.1785
O -9.81874 13.6639 -5.05953
H -9.86636 14.6627 -5.04479
H -10.6952 13.284 -4.7637
O -7.78364 12.207 -4.12644
H -8.44173 12.8017 -4.58824
H -7.89331 12.294 -3.13626
O 8.38961 6.92864 5.5333
H 8.53078 7.1432 6.49979
H 9.27104 6.92285 5.06094
O -7.72765 3.02124 7.09582
H -8.57411 2.50022 7.20595
H -7.50367 3.479 7.95627
O 13.7837 0.0736074 -10.3116
H 13.4447 0.561683 -11.1159
H 13.2874 0.382748 -9.50033
O -8.51074 -6.69608 -11.2776
H -9.28302 -7.24606 -10.9595
H -8.8521 -5.89605 -11.7711
O -13.9741 -14.0511 10.1392
H -13.9431 -14.2396 9.15755
H -13.3309 -14.6516 10.6144
O -7.42382 5.49866 5.45278
H -7.31629 4.85979 6.21459
H -8.36717 5.82948 5.42581
O -1.92887 5.31239 2.78752
H -2.75667 5.38812 3.34347
H -1.22634 4.8197 3.30111
O 13.0573 5.66194 2.47105
H 13.4144 6.59047 2.57319
H 13.136 5.17687 3.34201
O 10.1736 -6.76286 -1.20799
H 11.0585 -6.93327 -1.64156
H 10.1866 -5.86644 -0.76491
O -2.12735 12.6064 12.1156
H -2.66375 13.4248 12.3223
H -1.72031 12.6956 11.2065
O -5.31383 12.593 -6.77936
H -5.32882 11.6459 -7.1002
H -5.31785 12.6062 -5.77942
O -7.5027 10.8157 1.61226
H -8.27571 10.3904 1.14141
H -7.32763 11.7179 1.21799
O -6.52797 -13.3052 12.7626
H -5.81265 -12.9796 13.3809
H -7.42034 -13.2039 13.2024
O -9.14989 -4.03749 -8.62893
H -8.48864 -4.10194 -9.37638
H -9.08976 -4.85709 -8.0591
O 5.35606 -6.01293 -1.03065
H 6.24287 -6.41775 -0.80757
H 5.48876 -5.07429 -1.34912
O -4.30517 10.6866 12.0654
H -4.08201 9.80878 12.4893
H -3.4935 11.2708 12.0615
O -0.159709 -2.24549 8.5071
H -0.65671 -3.06557 8.79089
H 0.161914 -1.75387 9.31638
O 4.17126 -1.24715 -0.287674
H 4.46795 -0.698643 -1.06946
H 4.89782 -1.26893 0.399145
O 12.6833 -2.69545 2.87286
H 12.9058 -3.00201 1.94736
H 11.9856 -1.98037 2.8284
O -13.1057 7.52041 3.10191
H -13.0572 6.52205 3.07059
H -14.0618 7.80939 3.05257
O 4.87658 -10.8364 12.9333
H 4.42404 -11.6796 13.2237
H 4.18717 -10.1633 12.6655
O -14.1234 -13.0732 -5.43635
H -13.7743 -12.4935 -4.70008
H -14.0109 -12.6037 -6.31212
O -2.93258 -5.59421 -6.78832
H -3.72593 -4.98539 -6.7893
H -2.2889 -5.30408 -7.49654
O 10.2072 -5.48358 -8.91119
H 10.4065 -4.82059 -9.63284
H 9.22311 -5.65916 -8.88244
O -11.2914 10.3907 5.34511
H -11.1819 10.0971 4.39545
H -10.4473 10.8254 5.65905
O -3.00872 -5.8863 -14.0951
H -3.90505 -5.81464 -13.6574
H -2.3153 -6.08853 -13.4035
O -10.0207 3.54204 1.9755
H -9.68954 2.5989 1.94614
H -9.31094 4.13279 2.35926
O -11.9334 -8.00193 3.07714
H -11.1251 -7.88058 3.65334
H -12.7463 -7.70039 3.57547
O -2.12109 -9.28586 9.84405
H -2.55753 -10.173 9.99447
H -1.31323 -9.20846 10.4284
O -0.537639 12.9774 -1.18927
H -0.244138 13.7606 -1.73753
H -1.53325 12.9901 -1.09619
O 13.2631 -5.93256 -5.40662
H 13.3577 -5.72533 -6.38036
H 14.1558 -5.8591 -4.96192
O 6.37852 -3.20264 -1.78999
H 5.52905 -3.11708 -1.26925
H 6.88865 -2.34401 -1.73901
O -9.70055 9.44692 0.838524
H -9.43041 8.48464 0.871908
H -10.5259 9.58064 1.3871
O -11.4774 -12.7136 7.42457
H -12.0882 -12.6796 6.63351
H -10.9291 -13.549 7.38666
O 7.78631 13.8103 -8.85604
H 8.51768 13.2589 -8.45463
H 7.06078 13.2089 -9.19068
O -2.05493 1.84666 11.5887
H -2.74387 1.25414 11.1711
H -2.07961 2.74586 11.1517
O -4.13437 -12.0698 -8.11935
H -4.87656 -11.4375 -8.34181
H -4.32839 -12.9655 -8.51944
O -4.6057 7.74465 1.87861
H -3.68641 7.54735 1.53796
H -5.19729 7.99885 1.11344
O 10.3632 8.89148 -14.339
H 11.1923 9.27094 -14.7497
H 10.357 9.0878 -13.3585
O 8.66964 10.0122 -3.63048
H 8.32778 9.3209 -4.26713
H 8.07103 10.8129 -3.65488
O 12.7162 -7.53998 2.04199
H 11.7337 -7.59421 2.22023
H 13.2185 -7.87965 2.83724
O -13.6147 14.7108 -1.51712
H -13.9911 13.9002 -1.06845
H -13.9881 -14.1929 -1.08768
O 14.652 -5.38358 -2.57407
H 14.1165 -5.57775 -1.75216
H -14.2635 -5.96932 -2.58995
O -2.87181 3.85059 0.567072
H -2.11976 3.75728 -0.0854461
H -2.53751 4.29131 1.40019
O -4.95465 -8.26998 12.5553
H -4.85448 -9.07951 13.1338
H -5.83441 -7.83304 12.7429
O 2.84776 -0.342558 5.08707
H 2.04259 -0.611835 4.55861
H 2.74563 -0.653704 6.03197
O -11.8265 10.0204 2.88912
H -12.5696 10.4434 2.3705
H -12.0709 9.07666 3.11223
O 7.0674 -13.0843 -4.10859
H 6.71635 -12.3131 -4.63962
H 7.31957 -13.8281 -4.72775
O -10.0071 -11.0475 11.8234
H -10.0819 -11.6084 10.9988
H -9.59567 -10.1661 11.5907
O -0.544717 7.07521 -2.18272
H -0.560165 8.02137 -1.85926
H 0.172865 6.57052 -1.70269
O 0.842423 -7.8828 9.50467
H 1.25372 -8.77459 9.31597
H 0.160992 -7.97689 10.2305
O 11.6769 -9.5204 0.0118723
H 11.8377 -8.76247 0.644125
H 10.8275 -9.3604 -0.491058
O -2.6201 -11.9532 1.91995
H -3.04172 -12.5948 2.56074
H -2.92103 -12.1646 0.990002
O 14.2276 -3.40093 -9.56545
H 13.7848 -2.60355 -9.97549
H -14.8133 -3.76346 -10.1974
O 2.01748 7.05066 -14.2497
H 1.86908 7.17041 14.4946
H 2.99483 7.1197 -14.0494
O 12.3032 8.17497 12.3303
H 11.4908 8.75777 12.3473
H 13.096 8.7164 12.0503
O -5.13916 -3.51184 -1.09443
H -4.66796 -3.58855 -1.97315
H -5.68288 -2.67266 -1.0799
O -3.11835 13.5239 0.149161
H -2.40501 13.3726 0.833498
H -3.75458 14.2212 0.479427
O 14.4434 -10.7637 6.75232
H 14.0524 -11.3797 7.43626
H -14.3866 -11.1059 6.46903
O 14.0545 -13.7111 3.12288
H 14.6372 -12.9677 2.79436
H 13.1293 -13.3651 3.27907
O -5.63785 14.7033 2.39007
H -6.29952 14.0299 2.0603
H -5.91357 -14.1096 2.0895
O 10.005 8.3627 -11.3618
H 10.4963 9.21953 -11.2052
H 10.3429 7.66451 -10.7306
O 8.94546 4.74544 13.2566
H 9.81518 4.25321 13.2195
H 8.55862 4.80842 12.3365
O 10.6181 5.3568 -4.31226
H 9.73204 4.98294 -4.5866
H 10.6126 5.54004 -3.32917
O 4.64187 -6.96878 11.1364
H 4.02936 -7.69729 11.4432
H 4.97917 -6.46089 11.9291
O -3.22208 -11.0235 -0.495347
H -3.10926 -10.8907 -1.4801
H -3.41556 -10.144 -0.060472
O 6.00071 -5.21717 6.85715
H 6.3579 -4.28737 6.94633
H 6.38487 -5.64477 6.03882
O -4.4701 1.97024 -6.77062
H -4.08133 1.15876 -6.33424
H -4.34189 1.91008 -7.76058
O -13.8 4.79859 0.379071
H -13.9723 4.37597 -0.510742
H -12.8321 5.03932 0.451905
O 10.1897 12.5234 13.8186
H 10.6315 11.6637 14.0752
H 10.682 12.9354 13.0519
O 10.2122 14.2292 -2.34024
H 9.71552 14.3614 -1.48242
H 11.1834 14.0916 -2.14526
O 0.980815 -6.77882 5.42875
H 0.92208 -7.57759 4.82994
H 0.312254 -6.86603 6.16733
O -5.28805 -5.60049 -12.8631
H -5.69869 -4.97401 -13.5257
H -6.01069 -6.08955 -12.3746
O 1.84151 -5.75304 13.3676
H 0.936235 -6.0873 13.6299
H 2.54289 -6.27079 13.8576
O -7.40549 -8.91308 5.21364
H -6.91297 -9.69215 4.82563
H -6.77939 -8.13992 5.31508
O -13.4497 7.23638 -9.79007
H -13.4763 6.68182 -8.95831
H -13.2609 8.18862 -9.54992
O -9.60383 -8.32379 14.2425
H -10.48 -7.92928 14.5194
H -9.76014 -9.21072 13.8077
O 9.42008 -14.1183 11.7437
H 9.28049 -13.7168 12.6489
H 10.2604 -14.6604 11.7454
O 0.628703 -11.4062 -5.05203
H 0.805869 -11.1418 -6.00009
H 1.28736 -10.9533 -4.45107
O -0.511993 11.9286 -13.316
H -1.0399 12.7767 -13.2702
H -0.382979 11.6675 -14.2727
O 7.08513 -0.733102 13.2686
H 6.24308 -0.470091 13.7396
H 7.20258 -1.72464 13.3245
O 6.434 11.0107 4.74851
H 6.71486 11.295 5.66522
H 5.85751 11.7194 4.34172
O -9.69277 -11.723 9.28452
H -10.4652 -11.6171 8.65829
H -9.36097 -12.6657 9.24811
O -14.014 -11.3685 -3.18726
H -14.2103 -11.4253 -2.20832
H -14.5574 -10.6341 -3.59409
O 10.3775 -4.75869 13.4086
H 11.2981 -5.1027 13.5933
H 9.72961 -5.52049 13.4142
O -6.91782 14.3409 6.78191
H -6.79059 13.6118 6.10933
H -6.85819 -14.497 6.32611
O 9.70105 10.0894 11.5892
H 9.13433 10.5264 10.8907
H 9.23946 10.1433 12.4747
O 2.88299 -0.9364 -14.661
H 2.91008 -1.75838 14.4961
H 2.91234 -1.19773 -13.6961
O 4.47803 -1.03281 11.2378
H 3.92957 -1.85365 11.0782
H 5.42456 -1.20623 10.9657
O 0.476986 0.257883 -14.1791
H 1.33696 -0.13627 -14.5034
H -0.290766 -0.223658 -14.6019
O 3.22188 -9.82785 -0.536322
H 2.84078 -10.5164 -1.15332
H 3.87543 -10.2614 0.0841284
O 14.6651 -2.6623 -6.91618
H -14.8123 -2.94259 -7.84341
H 13.794 -3.0831 -6.66298
O -9.27612 7.01922 -10.0318
H -9.71356 7.4549 -10.8185
H -8.46905 6.5136 -10.3369
O 7.15663 8.79066 -11.1719
H 6.73279 7.95643 -10.8191
H 8.00591 8.55824 -11.646
O -13.2887 14.4816 -4.18671
H -13.3844 14.5595 -3.19432
H -13.5986 -14.3976 -4.619
O -13.0304 1.48591 -0.0860341
H -12.1067 1.65786 0.256244
H -13.4113 0.682472 0.371668
O 7.38769 -0.560886 -1.63678
H 7.90927 -0.828633 -2.44693
H 6.79526 0.212558 -1.86236
O 10.8133 -13.7746 5.47155
H 11.2089 -13.0011 4.97632
H 11.5401 -14.2784 5.9384
O 11.7555 -11.9211 1.08803
H 11.7514 -11.005 0.687014
H 10.9224 -12.4056 0.82114
O -5.27381 1.13864 -1.57602
H -5.12118 2.12637 -1.61009
H -4.76711 0.697317 -2.31667
O -2.01796 -2.48239 -7.05439
H -2.47115 -2.54232 -7.94382
H -1.68409 -3.38686 -6.78879
O 10.4681 -9.81798 5.50853
H 9.53946 -9.48408 5.34657
H 10.7467 -9.58913 6.44133
O -11.1151 -3.65276 2.26058
H -11.9912 -4.09364 2.45579
H -10.6802 -4.10567 1.48227
O 4.77508 9.18297 -3.94806
H 4.1529 9.91929 -3.68197
H 5.03686 9.29778 -4.90637
O -14.6343 4.48343 14.133
H 14.1619 4.84784 14.1843
H -14.2246 4.7372 13.2567
O 0.257457 10.1985 10.6595
H -0.631262 9.74099 10.6283
H 0.173005 11.1175 10.2743
O 12.399 -6.97733 -2.53169
H 12.5251 -7.83089 -3.03726
H 12.8891 -6.23948 -2.99579
O 11.1922 1.85635 -1.30892
H 10.1934 1.895 -1.27985
H 11.5702 2.49774 -0.641209
O -8.85776 -6.09444 11.4088
H -8.68688 -5.47027 10.6463
H -9.67561 -5.80034 11.9034
O -11.9216 6.61907 -3.4171
H -11.2613 6.38502 -4.13072
H -11.8748 5.94041 -2.68408
O -12.254 -2.77803 -4.10583
H -12.1794 -1.99164 -3.49256
H -13.1959 -2.85802 -4.4322
O 9.97973 -9.0941 8.32321
H 9.3762 -8.30737 8.45315
H 9.46766 -9.93752 8.48602
O -13.4348 -4.23466 -11.2412
H -12.774 -4.16036 -10.4943
H -13.246 -5.06067 -11.7724
O 9.27941 4.22359 10.2017
H 9.52175 3.37415 9.73285
H 9.37522 4.99236 9.56933
O 7.3458 -8.75258 -2.19321
H 7.04947 -8.13326 -1.46609
H 8.21295 -9.17873 -1.93528
O 1.74202 -7.90206 -5.84349
H 2.42927 -7.23443 -6.12988
H 1.03756 -7.44369 -5.30154
O -1.3776 13.0044 2.3392
H -1.57653 12.2205 2.92744
H -0.387394 13.107 2.24402
O 8.1607 -14.6271 -6.09354
H 8.95838 14.6498 -5.69094
H 8.42081 -14.1986 -6.95886
O 2.45774 10.6387 -6.29796
H 2.48457 11.4423 -6.89264
H 2.71072 9.82644 -6.82358
O -1.47957 -4.31357 9.88223
H -2.18808 -5.01097 9.99047
H -0.580175 -4.75071 9.87332
O 14.8432 13.9846 -14.5901
H 14.0476 13.6887 -14.0613
H 14.5427 14.3309 14.2472
O 14.3093 -6.08435 0.302139
H 14.1448 -5.09839 0.272
H 13.8489 -6.47486 1.0994
O -13.9423 8.46487 -2.42701
H -13.0977 8.15051 -2.86033
H -14.5922 7.70657 -2.37435
O 1.17481 6.4942 10.1516
H 0.973739 5.72601 9.54372
H 1.26704 7.33104 9.61192
O -12.1194 3.08999 3.6284
H -13.0091 2.84507 3.24306
H -11.4114 2.97572 2.93141
O -4.98361 9.1333 -9.67203
H -5.82637 8.59496 -9.66674
H -4.24158 8.5948 -9.27269
O 0.988545 -11.9582 4.18052
H 0.00375358 -11.8072 4.0942
H 1.3707 -12.1854 3.28475
O 12.9032 -5.79361 13.5482
H 13.3037 -5.96822 12.6487
H 13.6302 -5.74545 14.2332
O -5.42194 -9.70157 -14.3854
H -6.23215 -9.46116 -13.8508
H -4.60248 -9.37685 -13.9131
O 7.80435 -7.37058 -4.61847
H 7.71056 -8.09193 -3.93223
H 8.73971 -7.01706 -4.60478
O 6.75832 -10.4716 8.05624
H 6.62635 -11.1843 8.7452
H 5.87448 -10.0664 7.82225
O -10.7578 -11.4265 -8.82811
H -10.0717 -11.2943 -9.5435
H -10.3007 -11.5757 -7.95128
O 8.17563 -1.48032 1.3902
H 8.11829 -1.09821 0.467816
H 9.0654 -1.25748 1.78859
O 4.71023 -0.368045 -8.22899
H 3.90299 -0.956149 -8.17829
H 4.43289 0.587826 -8.1317
O 4.15176 -13.6113 -13.2446
H 4.83035 -14.1951 -12.7988
H 3.23479 -13.883 -12.9524
O -6.84576 -1.299 -1.12241
H -7.26014 -1.22023 -0.215685
H -6.13037 -0.607517 -1.22317
O 12.1231 -3.00044 -4.97255
H 11.7982 -2.95063 -4.02808
H 11.9422 -3.91291 -5.33961
O -13.7876 6.1322 6.36039
H -14.242 5.51355 7.00138
H -12.8892 5.76358 6.12148
O -14.3425 -9.02134 -6.81292
H -14.004 -8.36163 -6.1419
H -13.7702 -8.98694 -7.63224
O 1.57641 -6.96406 -12.6534
H 2.23783 -6.21954 -12.5624
H 0.684722 -6.66068 -12.3173
O 4.42851 6.8248 12.6199
H 4.9466 6.29303 11.9499
H 4.9995 6.99641 13.4227
O -11.1365 4.86674 -10.7691
H -10.7461 5.56831 -10.1729
H -12.1142 4.77486 -10.5799
O -2.17102 0.941102 3.60155
H -1.65621 1.77272 3.80998
H -2.97938 0.893598 4.18839
O 11.7854 -3.67628 5.74226
H 12.6424 -3.97387 6.16291
H 11.9565 -3.40005 4.7965
O -10.8796 -5.38585 7.96397
H -9.97609 -5.3375 8.38986
H -10.9769 -4.64161 7.30313
O 11.1701 4.03074 4.37853
H 11.0045 4.96581 4.06504
H 12.1529 3.88732 4.49483
O 4.32607 5.14871 3.62606
H 4.9955 5.05304 4.3628
H 4.51317 5.98607 3.11234
O -5.55217 -10.4793 -3.56224
H -4.55524 -10.5437 -3.6076
H -5.85449 -9.65066 -4.03339
O 8.88323 -7.13209 13.5024
H 8.13259 -7.73623 13.2348
H 9.39203 -7.54675 14.2569
O 6.503 -2.59145 6.73186
H 7.26515 -1.94827 6.80623
H 5.75377 -2.16345 6.22635
O -8.32915 7.44526 -4.43737
H -7.35288 7.66192 -4.44139
H -8.8485 8.24113 -4.74872
O -3.69985 10.3953 -0.358038
H -3.48277 10.9119 0.470281
H -4.66268 10.1257 -0.339989
O 13.6786 6.83572 -2.04092
H 13.5963 5.83923 -2.02335
H 13.1537 7.20002 -2.81026
O -7.79784 13.369 11.4163
H -7.65471 14.3245 11.6744
H -7.37297 12.7726 12.0973
O -10.5534 -14.6899 13.4868
H -9.87449 -13.9703 13.6327
H -10.9643 14.7828 14.3627
O -8.98095 -12.461 13.8714
H -9.43217 -12.1129 14.6931
H -9.33257 -11.9793 13.0686
O 11.371 5.46463 -7.12816
H 11.8309 4.60468 -7.34955
H 11.517 5.68186 -6.16299
O -12.6771 -11.409 11.8992
H -11.7372 -11.1697 12.1427
H -12.8342 -12.3782 12.0894
O 1.57751 -10.2911 9.20116
H 2.26637 -10.831 9.68496
H 1.41702 -10.6883 8.29751
O -5.03582 -7.08667 5.56881
H -4.834 -6.65827 4.68801
H -4.90156 -6.42017 6.30218
O 10.7374 7.07113 1.22156
H 11.3135 6.31751 1.5381
H 11.2792 7.68772 0.65031
O -10.4449 8.29209 13.5949
H -10.6288 7.57345 12.9242
H -10.5081 7.91122 14.5174
O 5.59972 8.46135 4.02483
H 5.70818 9.37769 4.41035
H 6.41961 7.92093 4.21403
O -3.21213 -7.03405 -10.5944
H -3.58323 -7.6278 -9.88038
H -3.63559 -6.13039 -10.5299
O -6.54299 -12.3934 1.63269
H -7.39564 -11.8918 1.77913
H -5.77297 -11.7557 1.65565
O 11.9289 -2.54307 13.1427
H 11.1153 -3.09027 13.3394
H 12.0536 -2.47535 12.1528
O -7.07311 5.45841 -11.0825
H -6.69158 6.16843 -11.6744
H -6.40775 5.2217 -10.3744
O 3.40651 2.4048 -5.18413
H 4.33595 2.42015 -5.5529
H 3.29021 1.59642 -4.607
O 10.6423 -0.584959 -5.49319
H 11.0806 -1.42309 -5.16838
H 11.2911 0.173939 -5.43671
O -6.92309 -3.6311 -10.8389
H -7.47854 -3.67072 -11.6695
H -7.19152 -2.83527 -10.296
O 10.2388 6.05138 -1.58773
H 10.5863 6.97808 -1.44438
H 10.7145 5.41876 -0.976533
O 14.479 13.1507 2.71097
H 14.2212 14.0666 3.01888
H 14.3179 13.0722 1.72713
O -11.2231 -2.60384 11.4524
H -11.0927 -1.84462 12.0901
H -10.721 -2.4193 10.6074
O 13.761 2.01312 14.0134
H 14.3523 1.4025 13.4866
H 14.2306 2.88289 14.1652
O -11.8197 -11.0178 3.1012
H -11.2478 -10.2696 2.76477
H -11.2375 -11.7734 3.40142
O 6.02946 3.67851 -8.36638
H 6.53672 2.87209 -8.67042
H 6.63223 4.47634 -8.38048
O -5.24306 4.01609 9.91532
H -6.05021 4.36834 9.44151
H -4.9713 4.65755 10.6328
O 2.97916 -7.97849 14.7475
H 3.94671 -7.77343 -14.8306
H 2.49548 -7.95278 -14.1035
O -6.78631 10.5476 7.57793
H -6.05724 10.0551 7.10254
H -6.38648 11.262 8.15216
O 0.683929 -9.82472 -7.1933
H 0.0196592 -9.30541 -7.73101
H 1.16498 -9.20703 -6.57111
O 8.91864 7.13372 -6.13077
H 8.64758 6.47 -5.43358
H 8.1882 7.22293 -6.80795
O -7.22038 -1.38273 1.77014
H -7.02495 -2.33408 2.00851
H -7.71584 -0.945983 2.52104
O 2.50328 4.03759 1.75462
H 2.96088 4.53928 2.48878
H 1.96016 4.67259 1.20519
O 0.452288 7.19245 5.17233
H 0.772758 7.61778 4.32589
H 1.12349 6.51879 5.48175
O -11.9987 0.422988 4.88413
H -12.4234 0.279841 5.77814
H -12.3613 1.25941 4.47299
O 14.4758 5.50788 -5.94759
H 14.3293 6.49627 -5.90651
H -14.5641 5.30133 -6.64527
O -14.0824 -7.98483 -0.973305
H -14.6408 -7.21478 -0.664579
H -13.1715 -7.92073 -0.565506
O -5.24001 4.5469 -6.28884
H -4.97764 3.59768 -6.46271
H -4.62013 4.9456 -5.61293
O 4.56342 -14.5338 2.27046
H 5.43011 -14.2475 2.67908
H 4.73981 14.7466 1.3927
O -12.5366 12.8854 4.27622
H -12.1857 12.3622 5.05286
H -13.0749 12.2844 3.68533
O -14.3852 -6.97475 4.06396
H -14.7491 -7.90112 3.96643
H -13.9543 -6.87863 4.96128
O -4.14804 9.97767 -12.0826
H -4.502 9.89165 -11.1513
H -3.14905 9.93563 -12.0647
O 4.69478 2.46685 6.12217
H 4.40062 3.38972 5.87346
H 4.91962 1.95402 5.2936
O -5.13996 12.6041 -3.95611
H -4.76693 11.7187 -3.6788
H -6.13818 12.5511 -3.98482
O -13.5071 11.1499 1.19019
H -14.087 11.735 0.62312
H -13.6829 10.1908 0.968359
O 10.581 -0.671789 2.67788
H 10.4092 -0.907478 3.63444