LAMMPS data file via write_data, version 15 May 2015, timestep = 1009000

2593 atoms
6 atom types
1728 bonds
4 bond types
864 angles
3 angle types
0 dihedrals
3 dihedral types
0 impropers
1 improper types

-1.4938123793578827e+01 1.4938123793578827e+01 xlo xhi
-1.4938123793578827e+01 1.4938123793578827e+01 ylo yhi
-1.4938123793578827e+01 1.4938123793578827e+01 zlo zhi

Masses

1 15.9994
2 1.00794
3 12.0107
4 1.00794
5 12.0107
6 12.0107

Bond Coeffs # harmonic

1 1000 1
2 469 1.4
3 367 1.08
4 469 0.7

Angle Coeffs # harmonic

1 100 109.47
2 35 120
3 63 120

Dihedral Coeffs # opls

1 0 7.25 0 0
2 0 7.25 0 0
3 0 7.25 0 0

Improper Coeffs # cvff

1 2.5 -1 2

Atoms # full

1895 632 2 4.0999999999999998e-01 -1.0879990378341304e+01 -9.0430603685927906e+00 -1.2827177465311252e+01 3 1 5
2062 688 1 -8.1999999999999995e-01 -1.3366255064305996e+01 -8.6176210384096628e+00 -1.1366578732784237e+01 4 1 2
2063 688 2 4.0999999999999998e-01 -1.3420816155662607e+01 -9.1195232775313961e+00 -1.0503364268836840e+01 4 1 2
2064 688 2 4.0999999999999998e-01 -1.2502097380937569e+01 -8.1159570526812352e+00 -1.1406412286998972e+01 4 1 2
400 134 1 -8.1999999999999995e-01 -1.3438927819943187e+01 -1.0013455946435025e+01 -8.9297907338490763e+00 1 1 2
159 53 2 4.0999999999999998e-01 -1.4090866476675419e+01 -1.1965253452319741e+01 -9.2859388821037676e+00 0 -1 2
1894 632 1 -8.1999999999999995e-01 -1.0293566099887069e+01 -9.3997478274014483e+00 -1.2099920559772825e+01 3 1 5
1896 632 2 4.0999999999999998e-01 -9.5746285716414761e+00 -8.7354027053367780e+00 -1.1895478677350358e+01 3 1 5
1058 353 2 4.0999999999999998e-01 -4.3307487932595041e+00 -5.3641346844811135e+00 -8.0060864986404532e+00 3 2 4
157 53 1 -8.1999999999999995e-01 -1.4092568893006760e+01 -1.2910500086878912e+01 -8.9595528309198755e+00 0 -1 2
2520 840 2 4.0999999999999998e-01 -1.1143616293306236e+01 -1.4164294097519196e+01 -1.4228622549110014e+01 2 0 2
2447 816 2 4.0999999999999998e-01 -6.5486733749699777e+00 -7.7258496619103409e+00 -1.4701630837112287e+01 3 0 4
2223 741 2 4.0999999999999998e-01 -8.2054518910066410e+00 -1.2956160170631751e+01 -1.4223795874247328e+01 1 3 5
2180 727 2 4.0999999999999998e-01 -1.0903541837202495e+01 -6.9118975248895964e+00 -9.7615713770446497e+00 0 -1 5
2179 727 1 -8.1999999999999995e-01 -1.1361178201043236e+01 -6.0591070323790817e+00 -1.0013244369804671e+01 0 -1 5
1594 532 1 -8.1999999999999995e-01 -1.1044658603161928e+01 -1.2778175404255233e+01 -9.3436465108594771e+00 2 2 3
549 183 2 4.0999999999999998e-01 -1.2787475883882712e+01 -1.2059352403973135e+01 -1.3224065824208354e+01 2 -1 5
2123 708 2 4.0999999999999998e-01 -6.6366733356538532e+00 -5.1423335751257149e+00 -1.1947436303495913e+01 1 0 2
1980 660 2 4.0999999999999998e-01 -8.2311008499836973e+00 -9.2970850427019229e+00 -8.2206438649808398e+00 2 -1 4
548 183 2 4.0999999999999998e-01 -1.3772147319204731e+01 -1.1070588435019834e+01 -1.4072271593277540e+01 2 -1 5
1057 353 1 -8.1999999999999995e-01 -5.2699216346579068e+00 -5.6630652879728718e+00 -8.1752515828012235e+00 3 2 4
321 107 2 4.0999999999999998e-01 -1.1266665602249224e+01 -1.1463146463604327e+01 -8.1583204236863445e+00 1 0 3
1596 532 2 4.0999999999999998e-01 -1.0981837677354928e+01 -1.2567996964608598e+01 -1.0319300408788610e+01 2 2 3
547 183 1 -8.1999999999999995e-01 -1.2904322705940956e+01 -1.1567270217653469e+01 -1.4086749944328925e+01 2 -1 5
269 90 2 4.0999999999999998e-01 -9.8531559665076074e+00 -1.1533114098691184e+01 -1.1373816053220082e+01 4 -1 2
1059 353 2 4.0999999999999998e-01 -5.2602770399923333e+00 -6.4914547810424672e+00 -8.7353406799495268e+00 3 2 4
270 90 2 4.0999999999999998e-01 -9.7175224442886616e+00 -1.2534741369591059e+01 -1.2656403832477579e+01 4 -1 2
409 137 1 -8.1999999999999995e-01 -1.4087028822917226e+01 -5.7038770171590407e+00 -8.7189346493899702e+00 3 3 5
410 137 2 4.0999999999999998e-01 -1.3208740160749333e+01 -5.8372744186512229e+00 -9.1781036005958558e+00 3 3 5
753 251 2 4.0999999999999998e-01 -1.1055173132400036e+01 -9.3580283302633500e+00 -8.5490857875592816e+00 2 1 6
1705 569 1 -8.1999999999999995e-01 -1.2385108017940542e+01 -8.1672067692499652e+00 -1.4557364466214199e+01 0 2 3
2145 715 2 4.0999999999999998e-01 -4.7531970638157652e+00 -5.1857167801451425e+00 -1.3455888417620555e+01 2 0 3
1286 429 2 4.0999999999999998e-01 -1.3375494941961321e+01 -1.3434351267316607e+01 -1.0450341767269304e+01 1 1 3
971 324 2 4.0999999999999998e-01 -8.2236506159684595e+00 -6.5070297943911264e+00 -1.1528334990854237e+01 3 1 2
1978 660 1 -8.1999999999999995e-01 -8.0156920446727913e+00 -8.4734044058431941e+00 -8.7452115243042030e+00 2 -1 4
268 90 1 -8.1999999999999995e-01 -9.7983185631445107e+00 -1.2489523578943082e+01 -1.1660688359500462e+01 4 -1 2
1979 660 2 4.0999999999999998e-01 -8.7600176948846915e+00 -8.2814425830216010e+00 -9.3848613723208718e+00 2 -1 4
751 251 1 -8.1999999999999995e-01 -1.0793688152372120e+01 -8.7696439437602596e+00 -9.3142337380666369e+00 2 1 6
970 324 1 -8.1999999999999995e-01 -8.1453330394680350e+00 -7.5000428674728647e+00 -1.1616728707713637e+01 3 1 2
752 251 2 4.0999999999999998e-01 -1.0620828115825677e+01 -9.3317560530475845e+00 -1.0123042327443461e+01 2 1 6
183 61 2 4.0999999999999998e-01 -1.1532319881870670e+01 -1.4798157335030359e+01 -7.4910921222090145e+00 3 0 2
2402 801 2 4.0999999999999998e-01 -3.8728249410533913e+00 -1.1037211413538060e+01 -1.0686286859846884e+01 3 -1 5
1595 532 2 4.0999999999999998e-01 -1.0703572945152100e+01 -1.3703766483294366e+01 -9.1794401135125696e+00 2 2 3
182 61 2 4.0999999999999998e-01 -1.2827339755874444e+01 -1.4098379927897239e+01 -8.1981424632899529e+00 3 0 2
459 153 2 4.0999999999999998e-01 -9.0475754660793370e+00 -1.4761125238311870e+01 -8.6645884490635598e+00 1 0 2
972 324 2 4.0999999999999998e-01 -7.5456763133754263e+00 -7.7199195220144485e+00 -1.2386201311145355e+01 3 1 2
1414 472 1 -8.1999999999999995e-01 -2.5719294102251595e+00 -5.0405284177357750e+00 -7.7168335593850541e+00 3 1 3
698 233 2 4.0999999999999998e-01 -2.4264093963169575e+00 -1.2804969075099967e+01 -9.3118540494333786e+00 0 2 3
625 209 1 -8.1999999999999995e-01 -3.0086273544981719e+00 -8.8575015890504183e+00 -8.3470351632878099e+00 2 1 2
2221 741 1 -8.1999999999999995e-01 -9.2000796994663769e+00 -1.2932778141557169e+01 -1.4324745285209923e+01 1 3 5
2403 801 2 4.0999999999999998e-01 -5.4535500527948777e+00 -1.0749918907985085e+01 -1.0978615784156135e+01 3 -1 5
411 137 2 4.0999999999999998e-01 -1.4316892085450002e+01 -6.5237312593576871e+00 -8.1945074688655062e+00 3 3 5
2153 718 2 4.0999999999999998e-01 -2.5054533849840865e-01 -5.9322504488831331e+00 -1.4573828420877861e+01 1 3 5
1285 429 1 -8.1999999999999995e-01 -1.3046349273312595e+01 -1.3492082340042431e+01 -1.1392866183358356e+01 1 1 3
2144 715 2 4.0999999999999998e-01 -4.3262954882960454e+00 -5.6768588212781559e+00 -1.1958150259414397e+01 2 0 3
1509 503 2 4.0999999999999998e-01 -6.5476531768020241e+00 -1.4318711443608141e+01 -9.5298633876027932e+00 1 0 4
1706 569 2 4.0999999999999998e-01 -1.2834635661523990e+01 -8.8477582588808268e+00 -1.3978748365594376e+01 0 2 3
1707 569 2 4.0999999999999998e-01 -1.2956629480392666e+01 -7.3486069297805736e+00 -1.4614631944436152e+01 0 2 3
1416 472 2 4.0999999999999998e-01 -2.0082180741109372e+00 -5.4242465330810834e+00 -8.4482788701216087e+00 3 1 3
2455 819 1 -8.1999999999999995e-01 -6.5469328719904833e+00 -1.0189310867894811e+01 -1.2057468941499216e+01 3 0 2
2176 726 1 -8.1999999999999995e-01 -1.4620056523037768e+00 -1.4169193423459999e+01 -1.1709220285381068e+01 1 -1 3
2181 727 2 4.0999999999999998e-01 -1.0871650130989890e+01 -5.2863297260404973e+00 -9.6092648267931757e+00 0 -1 5
923 308 2 4.0999999999999998e-01 -4.5261630492155795e+00 -1.3512233217148859e+01 -1.3337285468576349e+01 3 -2 4
2015 672 2 4.0999999999999998e-01 -6.2641164187734368e+00 -1.3754300651699918e+01 -1.2958112493439319e+01 3 1 4
2014 672 1 -8.1999999999999995e-01 -5.8459809198850774e+00 -1.4554108396053097e+01 -1.2527424395500038e+01 3 1 4
2456 819 2 4.0999999999999998e-01 -7.5092070981092238e+00 -1.0160816755918766e+01 -1.1786843022477877e+01 3 0 2
2143 715 1 -8.1999999999999995e-01 -5.0690838969808336e+00 -5.6475221149574217e+00 -1.2627049882625611e+01 2 0 3
158 53 2 4.0999999999999998e-01 -1.4882329962824217e+01 -1.3055931183110017e+01 -8.3636088709750354e+00 0 -1 2
1 1 1 -8.1999999999999995e-01 -4.7999365434743027e+00 -1.3371096574024843e+01 -8.8156592243278737e+00 2 1 2
1551 517 2 4.0999999999999998e-01 -5.3792415573056864e+00 -1.0848525274183839e+01 -8.6497831194156447e+00 1 -1 4
2178 726 2 4.0999999999999998e-01 -8.8656206792743220e-01 -1.4451722770311790e+01 -1.0941715339017204e+01 1 -1 3
2177 726 2 4.0999999999999998e-01 -2.1363398011848922e+00 -1.4882436636026329e+01 -1.1900478274463261e+01 1 -1 3
2572 858 1 -8.1999999999999995e-01 -2.4949072245138151e+00 -6.6102026396905575e+00 -1.1916568015981589e+01 2 2 2
402 134 2 4.0999999999999998e-01 -1.2936072810254187e+01 -1.0458795415404810e+01 -8.1889590344179997e+00 1 1 2
922 308 1 -8.1999999999999995e-01 -3.5859615475799718e+00 -1.3297219649726232e+01 -1.3601505791393603e+01 3 -2 4
1287 429 2 4.0999999999999998e-01 -1.2501924413861373e+01 -1.4323312023305768e+01 -1.1505476291579297e+01 1 1 3
2573 858 2 4.0999999999999998e-01 -1.8691461633801172e+00 -6.9966928519305576e+00 -1.1239020653669579e+01 2 2 2
924 308 2 4.0999999999999998e-01 -2.9609304831682710e+00 -1.3591722284032024e+01 -1.2878576800902898e+01 3 -2 4
626 209 2 4.0999999999999998e-01 -3.9619522130394120e+00 -8.7936914760060230e+00 -8.6421995833228813e+00 2 1 2
1211 404 2 4.0999999999999998e-01 -1.0233470761727403e+00 -1.0073660423007869e+01 -1.2190221121598896e+01 2 2 3
1212 404 2 4.0999999999999998e-01 -5.8703370030207935e-01 -1.1638262972774140e+01 -1.2021891995262573e+01 2 2 3
2574 858 2 4.0999999999999998e-01 -2.2781500737891545e+00 -5.6442194166845763e+00 -1.2057688201144140e+01 2 2 2
424 142 1 -8.1999999999999995e-01 -6.6496655881559459e+00 -1.2770469122399163e+01 -1.4552487406643861e+01 1 1 4
1549 517 1 -8.1999999999999995e-01 -5.8486403614511424e+00 -1.0682500126600374e+01 -7.7825331859320697e+00 1 -1 4
531 177 2 4.0999999999999998e-01 -7.7115070907545125e-01 -8.3939963592348033e+00 -9.5297072061616639e+00 1 -1 4
2449 817 1 -8.1999999999999995e-01 -1.9058574936226176e+00 -8.8532734217867297e+00 -1.3789294366069267e+01 2 2 2
2446 816 1 -8.1999999999999995e-01 -6.6670768242159930e+00 -7.8042563550969923e+00 -1.3711754578963705e+01 3 0 4
2 1 2 4.0999999999999998e-01 -5.0324084353332204e+00 -1.2669637143468771e+01 -9.4894050660876044e+00 2 1 2
699 233 2 4.0999999999999998e-01 -1.4402054994966846e+00 -1.1505243015955859e+01 -9.2425773261371962e+00 0 2 3
3 1 2 4.0999999999999998e-01 -4.8163766996352297e+00 -1.2971417259601996e+01 -7.8991396496471902e+00 2 1 2
627 209 2 4.0999999999999998e-01 -2.4694273281610712e+00 -8.1518293212337980e+00 -8.8067219592406740e+00 2 1 2
401 134 2 4.0999999999999998e-01 -1.3878864246118644e+01 -9.1850305664267040e+00 -8.5831072500890109e+00 1 1 2
425 142 2 4.0999999999999998e-01 -5.8900609093860066e+00 -1.2145231513890788e+01 -1.4731653879429166e+01 1 1 4
2539 847 1 -8.1999999999999995e-01 -5.2966900954571674e+00 -8.0316758701051825e+00 -9.7181389695967688e+00 3 0 4
2401 801 1 -8.1999999999999995e-01 -4.8080987782553315e+00 -1.1287866169282800e+01 -1.0436372860439526e+01 3 -1 5
2450 817 2 4.0999999999999998e-01 -2.4662491383244163e+00 -8.4045722186532039e+00 -1.3093125946038928e+01 2 2 2
2541 847 2 4.0999999999999998e-01 -5.2982579979325237e+00 -7.4981781848132325e+00 -1.0563952124170161e+01 3 0 4
2448 816 2 4.0999999999999998e-01 -5.9752648960521775e+00 -7.2504272582452103e+00 -1.3248406386571480e+01 3 0 4
2457 819 2 4.0999999999999998e-01 -6.4484116251825441e+00 -9.8124540994373604e+00 -1.2978497989393057e+01 3 0 2
697 233 1 -8.1999999999999995e-01 -1.7310479118472877e+00 -1.2335744624387598e+01 -8.7674986235500292e+00 0 2 3
1210 404 1 -8.1999999999999995e-01 -8.5532085472928898e-01 -1.0808272637005249e+01 -1.1532852072229741e+01 2 2 3
529 177 1 -8.1999999999999995e-01 -1.0532207751100078e+00 -7.4970748658620971e+00 -9.8702807954086111e+00 1 -1 4
457 153 1 -8.1999999999999995e-01 -9.8975877104192360e+00 -1.4925901180294796e+01 -8.1642385374570843e+00 1 0 2
2540 847 2 4.0999999999999998e-01 -6.2326816202412481e+00 -8.3023966329155243e+00 -9.4930785175406136e+00 3 0 4
530 177 2 4.0999999999999998e-01 -2.7163014016037224e-01 -6.8734772171472542e+00 -9.8540308972815644e+00 1 -1 4
2451 817 2 4.0999999999999998e-01 -1.4999265787063525e+00 -8.1618686740731334e+00 -1.4386957812701359e+01 2 2 2
2175 725 2 4.0999999999999998e-01 -7.5309081876461290e+00 -1.1132031849620509e+01 -7.4732645868976890e+00 4 -1 4
590 197 2 4.0999999999999998e-01 -1.4399575850193003e-01 -9.3459275161887909e+00 -7.6039632642656354e+00 1 1 4
1476 492 2 4.0999999999999998e-01 -1.0211707954396090e+01 -9.5426190672556892e+00 -2.6276663851164432e+00 2 -1 4
1914 638 2 4.0999999999999998e-01 -1.2253400490326023e+01 -1.1706217438288864e+01 -1.5171932379633333e+00 3 1 4
812 271 2 4.0999999999999998e-01 -1.2121619676289193e+01 -9.0850233735889550e+00 -4.9657442235840659e+00 2 1 3
1474 492 1 -8.1999999999999995e-01 -1.0602056580055804e+01 -9.3065213368156776e+00 -3.5175583934584083e+00 2 -1 4
1475 492 2 4.0999999999999998e-01 -9.8710214168928641e+00 -9.0196276609836268e+00 -4.1366719276290649e+00 2 -1 4
1912 638 1 -8.1999999999999995e-01 -1.1501645064487228e+01 -1.1505620777634910e+01 -8.8898409003779300e-01 3 1 4
2288 763 2 4.0999999999999998e-01 -9.3728937325827850e+00 -1.2791106562425838e+01 -4.8870188846336706e+00 4 -2 3
811 271 1 -8.1999999999999995e-01 -1.2536396523102452e+01 -9.3678844148959506e+00 -5.8305978513838301e+00 2 1 3
1598 533 2 4.0999999999999998e-01 -1.1813090610369319e+01 -6.8229715307488288e+00 -6.4324015742704859e+00 0 0 4
856 286 1 -8.1999999999999995e-01 -6.4859842696655079e+00 -1.3235733922319159e+01 -1.1371060319045956e+00 2 4 3
1583 528 2 4.0999999999999998e-01 -1.3737469993680902e+01 -1.0643393286014067e+01 -3.1464546610807069e+00 3 -1 3
1173 391 2 4.0999999999999998e-01 -1.0878580360215871e+01 -5.1789810143223587e+00 -1.6447320475182092e+00 3 -2 3
1630 544 1 -8.1999999999999995e-01 -9.3608254319612936e+00 -1.3126282494497014e+01 -1.6482901926134161e+00 4 1 3
858 286 2 4.0999999999999998e-01 -6.1170382195956794e+00 -1.3914288678146386e+01 -1.7722943553249006e+00 2 4 3
1582 528 1 -8.1999999999999995e-01 -1.3501067999894646e+01 -1.1563195521279340e+01 -2.8332456120271861e+00 3 -1 3
1913 638 2 4.0999999999999998e-01 -1.0753902801570032e+01 -1.2150482422534257e+01 -1.0472779407311990e+00 3 1 4
105 35 2 4.0999999999999998e-01 -1.2754750195092280e+01 -6.4501584396770717e+00 -3.0543373975887622e+00 3 -1 3
104 35 2 4.0999999999999998e-01 -1.2955482640435973e+01 -6.4239741289656322e+00 -4.6747405421033950e+00 3 -1 3
103 35 1 -8.1999999999999995e-01 -1.3427504527645038e+01 -6.4645947367997181e+00 -3.7940773752047114e+00 3 -1 3
2287 763 1 -8.1999999999999995e-01 -8.4082867987557250e+00 -1.2951063945980255e+01 -5.0967069936964009e+00 4 -2 3
1972 658 1 -8.1999999999999995e-01 -2.8561487148310860e+00 -1.3874256906661783e+01 -4.2711700191616586e-01 4 0 4
1172 391 2 4.0999999999999998e-01 -1.0117845805929147e+01 -6.1490685448831659e+00 -2.7156653567395654e+00 3 -2 3
1631 544 2 4.0999999999999998e-01 -9.1863528356280568e+00 -1.2847056029288485e+01 -2.5925432559254631e+00 4 1 3
2174 725 2 4.0999999999999998e-01 -8.4297749387119012e+00 -1.1677518828751372e+01 -6.2237976822751371e+00 4 -1 4
1156 386 1 -8.1999999999999995e-01 -4.2918980116956167e+00 -5.8035276731359104e+00 -3.8310005738914814e+00 1 -1 2
857 286 2 4.0999999999999998e-01 -7.4501111046272106e+00 -1.3434001486963375e+01 -9.6055182086417901e-01 2 4 3
1963 655 1 -8.1999999999999995e-01 -1.0785056695693351e+01 -1.2130393693655479e+01 -4.1946315738232212e+00 2 0 2
1365 455 2 4.0999999999999998e-01 -1.4402076541059710e+01 -7.7893395069992888e+00 -3.5661850040159191e+00 2 -1 4
1668 556 2 4.0999999999999998e-01 -1.1200469488226318e+01 -8.1368662514574837e+00 -1.3732970775790605e+00 3 2 1
813 271 2 4.0999999999999998e-01 -1.1863995618424116e+01 -9.8703246730111900e+00 -6.3741535430946925e+00 2 1 3
1597 533 1 -8.1999999999999995e-01 -1.1780307444194573e+01 -5.9819003099338328e+00 -5.8924511480783792e+00 0 0 4
820 274 1 -8.1999999999999995e-01 -8.3817918443692498e+00 -7.9138553052094442e+00 -4.6074593630338718e+00 1 1 4
821 274 2 4.0999999999999998e-01 -7.9578330168072631e+00 -8.3352384802299753e+00 -5.4091558483005091e+00 1 1 4
1171 391 1 -8.1999999999999995e-01 -1.0818756616531211e+01 -6.1105223553212635e+00 -2.0034433552589270e+00 3 -2 3
1599 533 2 4.0999999999999998e-01 -1.0831464479483696e+01 -5.6782630000793723e+00 -5.8057137253814073e+00 0 0 4
1964 655 2 4.0999999999999998e-01 -1.1398467350452929e+01 -1.2733541495131943e+01 -3.6847667776163711e+00 2 0 2
1965 655 2 4.0999999999999998e-01 -1.1206979914929409e+01 -1.1228709184141660e+01 -4.2893306553249548e+00 2 0 2
1149 383 2 4.0999999999999998e-01 -6.9606529231100351e+00 -9.9447182703663621e+00 -2.8015564357000375e+00 1 2 3
78 26 2 4.0999999999999998e-01 -1.4460869118926656e+01 -7.3757368163500754e+00 -7.9161942429817245e-01 5 0 3
1147 383 1 -8.1999999999999995e-01 -7.4420106103833277e+00 -9.3642930060339253e+00 -2.1447282019482277e+00 1 2 3
1148 383 2 4.0999999999999998e-01 -7.6444016025187036e+00 -8.4804923690225671e+00 -2.5665768453145876e+00 1 2 3
1667 556 2 4.0999999999999998e-01 -1.1589397344458044e+01 -9.5565973795119241e+00 -6.6634326133455346e-01 3 2 1
1666 556 1 -8.1999999999999995e-01 -1.1174726210683845e+01 -8.6583878027856187e+00 -5.2043450296609173e-01 3 2 1
1584 528 2 4.0999999999999998e-01 -1.3697423759274008e+01 -1.2223028403338862e+01 -3.5585641275580535e+00 3 -1 3
2173 725 1 -8.1999999999999995e-01 -8.3582327727059571e+00 -1.0976596500486206e+01 -6.9334536462119818e+00 4 -1 4
1550 517 2 4.0999999999999998e-01 -5.1820127931514079e+00 -1.0405974878072364e+01 -7.0903168636562839e+00 1 -1 4
822 274 2 4.0999999999999998e-01 -8.4402474105993868e+00 -6.9247301203476859e+00 -4.7425014807606090e+00 1 1 4
319 107 1 -8.1999999999999995e-01 -1.1123080196077137e+01 -1.0808937387831435e+01 -7.4157467335482234e+00 1 0 3
1805 602 2 4.0999999999999998e-01 -1.3868781525654740e+01 -8.6417153479445155e+00 -6.7486307742725522e+00 3 2 0
1632 544 2 4.0999999999999998e-01 -9.4985015729380322e+00 -1.4116157854426202e+01 -1.6134473579727988e+00 4 1 3
1266 422 2 4.0999999999999998e-01 -6.9952215825514434e+00 -1.2096858197778301e+01 -4.1345536728766827e+00 2 1 1
453 151 2 4.0999999999999998e-01 -1.4823346168938087e+01 -5.5243459835866648e+00 -3.2521628194454628e+00 3 -2 4
2484 828 2 4.0999999999999998e-01 -5.5928843863383140e+00 -5.1777278238402982e+00 -5.0419214934231533e+00 2 1 4
2398 800 1 -8.1999999999999995e-01 -1.3708289086064553e+01 -1.3283184853139012e+01 -5.2683018779914015e+00 4 3 4
2289 763 2 4.0999999999999998e-01 -8.2478438550453035e+00 -1.3932767611486202e+01 -5.1993615509270885e+00 4 -2 3
1363 455 1 -8.1999999999999995e-01 -1.4790583882279536e+01 -8.7090485229406909e+00 -3.5094450704248281e+00 2 -1 4
1284 428 2 4.0999999999999998e-01 -2.1913815680013773e+00 -1.0024597879956243e+01 -7.1121430877361336e+00 2 2 4
2400 800 2 4.0999999999999998e-01 -1.4300422899745413e+01 -1.4063734642651706e+01 -5.0679483719283205e+00 4 3 4
2151 717 2 4.0999999999999998e-01 -4.0131563182470380e+00 -1.3154391188192621e+01 -5.0725246917981988e+00 3 -1 5
1265 422 2 4.0999999999999998e-01 -6.1981151896837883e+00 -1.1974041964367627e+01 -2.7146161341260484e+00 2 1 1
2581 861 1 -8.1999999999999995e-01 -1.2635041533914588e+00 -6.4749959186848365e+00 -7.7463657806990938e-01 1 2 3
77 26 2 4.0999999999999998e-01 -1.4468848425278317e+01 -5.7926196714574463e+00 -1.1920709966141754e+00 5 0 3
1447 483 1 -8.1999999999999995e-01 -3.7128532919517205e+00 -1.3931283547142735e+01 -3.1502648873986665e+00 2 1 1
1542 514 2 4.0999999999999998e-01 -1.2714981580737117e+00 -1.3656406458475230e+01 -1.5455407250760480e+00 5 1 3
2582 861 2 4.0999999999999998e-01 -1.5748206836269123e+00 -5.8684711325010248e+00 -1.5062318801528143e+00 1 2 3
2149 717 1 -8.1999999999999995e-01 -4.0613639282830984e+00 -1.2754445938456044e+01 -5.9878070441456419e+00 3 -1 5
2583 861 2 4.0999999999999998e-01 -2.6505530505104069e-01 -6.4511317967720920e+00 -7.2411537366732226e-01 1 2 3
33 11 2 4.0999999999999998e-01 -7.8425726417857566e+00 -5.0476499211134431e+00 -5.3946892840933565e+00 3 0 4
1448 483 2 4.0999999999999998e-01 -4.0551419538666842e+00 -1.4862258273394565e+01 -3.0231937510083178e+00 2 1 1
1890 630 2 4.0999999999999998e-01 -2.9437390736396907e+00 -8.0893176803005673e+00 -2.8487352697630932e+00 0 -1 3
959 320 2 4.0999999999999998e-01 -3.9633867007786279e+00 -9.8251668145613493e+00 -4.6238033396320777e+00 1 -1 3
1415 472 2 4.0999999999999998e-01 -2.3720173128414395e+00 -5.5137039123657150e+00 -6.8588346362035999e+00 3 1 3
2327 776 2 4.0999999999999998e-01 -6.1523065553871543e+00 -1.4851145463096731e+01 -6.6666939732596155e+00 2 0 1
141 47 2 4.0999999999999998e-01 -1.8701910828753245e+00 -7.5902077027111243e+00 -5.2596601037714752e+00 2 1 6
2399 800 2 4.0999999999999998e-01 -1.3163567027013361e+01 -1.3478713138532031e+01 -6.0838192218163165e+00 4 3 4
727 243 1 -8.1999999999999995e-01 -1.4007093690271759e+00 -1.0672057543561056e+01 -4.0288494494710676e+00 1 0 3
1157 386 2 4.0999999999999998e-01 -3.5696379331073427e+00 -5.2449326525177078e+00 -4.2388412298750175e+00 1 -1 2
140 47 2 4.0999999999999998e-01 -2.4399756231178653e+00 -8.0353058242563762e+00 -6.7238726102894386e+00 2 1 6
1282 428 1 -8.1999999999999995e-01 -1.4456258983111816e+00 -1.0655442748459457e+01 -6.8978881549647575e+00 2 2 4
1541 514 2 4.0999999999999998e-01 -6.8128962261017278e-01 -1.2629977782889398e+01 -2.6701664855166580e+00 5 1 3
2150 717 2 4.0999999999999998e-01 -4.2074285873196118e+00 -1.1767974447085169e+01 -5.9132339133681722e+00 3 -1 5
320 107 2 4.0999999999999998e-01 -1.0199523641068737e+01 -1.0919085446526378e+01 -7.0484146181460279e+00 1 0 3
958 320 1 -8.1999999999999995e-01 -4.5154370795773673e+00 -1.0296579380574869e+01 -5.3115769750355266e+00 1 -1 3
1888 630 1 -8.1999999999999995e-01 -2.2060935557083354e+00 -7.8182189177869974e+00 -3.4671255775556276e+00 0 -1 3
1889 630 2 4.0999999999999998e-01 -1.3318548020233045e+00 -7.8651522897871926e+00 -2.9838803961933156e+00 0 -1 3
1804 602 1 -8.1999999999999995e-01 -1.4396366620017769e+01 -8.0668781115457513e+00 -7.3741211989874289e+00 3 2 0
1973 658 2 4.0999999999999998e-01 -3.5394097511503464e+00 -1.3195200374569374e+01 -1.5867973395859103e-01 4 0 4
76 26 1 -8.1999999999999995e-01 -1.4045301586275194e+01 -6.4849252186082129e+00 -6.0782528094733124e-01 5 0 3
1449 483 2 4.0999999999999998e-01 -2.7404915780531862e+00 -1.3899182940177573e+01 -2.9189550882974071e+00 2 1 1
139 47 1 -8.1999999999999995e-01 -1.8654880266840497e+00 -7.3774906565646443e+00 -6.2367738762990896e+00 2 1 6
728 243 2 4.0999999999999998e-01 -1.5361147094831278e+00 -1.0635581968657016e+01 -5.0189791924000939e+00 1 0 3
351 117 2 4.0999999999999998e-01 -2.0385323830670359e+00 -1.4603860659838530e+01 -6.0976341355373211e+00 1 -1 4
493 165 1 -8.1999999999999995e-01 -3.5234466766140748e+00 -1.1317897511950566e+01 -2.2929720818541206e+00 0 -2 4
1158 386 2 4.0999999999999998e-01 -3.8992394210688399e+00 -6.6560733506589393e+00 -3.4860264741853566e+00 1 -1 2
672 224 2 4.0999999999999998e-01 -6.7788632281831891e+00 -8.8931373045070465e+00 -6.5256109390889527e-01 2 1 3
1976 659 2 4.0999999999999998e-01 -5.1692785443902469e+00 -8.7404587345278202e+00 -1.3787266319830778e+00 1 0 3
494 165 2 4.0999999999999998e-01 -2.7814140538285308e+00 -1.0888872674375166e+01 -2.8080908911881135e+00 0 -2 4
1975 659 1 -8.1999999999999995e-01 -4.6403354681311573e+00 -8.8637854455906151e+00 -2.2183883366976538e+00 1 0 3
1977 659 2 4.0999999999999998e-01 -4.4170538703440325e+00 -9.8318463690243796e+00 -2.3325170699080342e+00 1 0 3
1540 514 1 -8.1999999999999995e-01 -8.6261796511166189e-01 -1.3589741966031161e+01 -2.4557026980548233e+00 5 1 3
960 320 2 4.0999999999999998e-01 -5.2286581970945907e+00 -1.0830697430379100e+01 -4.8576435665408919e+00 1 -1 3
1264 422 1 -8.1999999999999995e-01 -6.4127972415040553e+00 -1.1508754689625547e+01 -3.5733601704274331e+00 2 1 1
495 165 2 4.0999999999999998e-01 -3.5441005695963081e+00 -1.2297740353974357e+01 -2.4917266935000768e+00 0 -2 4
1283 428 2 4.0999999999999998e-01 -1.5407923913935928e+00 -1.1483812515456336e+01 -7.4499468894072800e+00 2 2 4
1952 651 2 4.0999999999999998e-01 -5.2147754018309023e+00 -1.2409197443229125e+01 -2.5738007903936833e-01 1 0 3
729 243 2 4.0999999999999998e-01 -4.3037528996816832e-01 -1.0809612636441480e+01 -3.8299717192120752e+00 1 0 3
181 61 1 -8.1999999999999995e-01 -1.2523219407931995e+01 -1.4673943348593575e+01 -7.4390247697529510e+00 3 0 2
1225 409 1 -8.1999999999999995e-01 -9.3441881431794442e+00 -1.2609024372256291e+01 6.1297181470735485e+00 2 0 3
2475 825 2 4.0999999999999998e-01 -9.9504122611946926e+00 -6.3063651939580918e+00 3.7371106172385868e+00 4 0 5
937 313 1 -8.1999999999999995e-01 -1.2576304241823561e+01 -7.5530948880869966e+00 4.0962880886877908e+00 1 -1 2
1195 399 1 -8.1999999999999995e-01 -1.4909107587959960e+01 -1.4777677430655709e+01 3.5129386144862789e+00 3 1 4
900 300 2 4.0999999999999998e-01 -8.5046600450623870e+00 -9.2631214015628416e+00 6.9463538141271979e+00 2 1 4
938 313 2 4.0999999999999998e-01 -1.1648129940248642e+01 -7.8823740532557114e+00 4.2697517668883069e+00 1 -1 2
1567 523 1 -8.1999999999999995e-01 -1.2326715470639657e+01 -1.4290797642042346e+01 4.3801085505799850e+00 3 -1 2
1207 403 1 -8.1999999999999995e-01 -9.8344812810073350e+00 -8.2460651621624841e+00 4.1815222309665128e+00 3 -1 3
1208 403 2 4.0999999999999998e-01 -8.9762484145857613e+00 -8.3712131389139302e+00 4.6793136416602952e+00 3 -1 3
1226 409 2 4.0999999999999998e-01 -9.1799407237693611e+00 -1.1624032843081796e+01 6.0764593139689662e+00 2 0 3
1138 380 1 -8.1999999999999995e-01 -3.6996727747660962e+00 -8.7852413879166456e+00 6.4843203028330176e+00 1 1 2
1209 403 2 4.0999999999999998e-01 -9.7544814504613591e+00 -8.6531835151420928e+00 3.2716449180059062e+00 3 -1 3
939 313 2 4.0999999999999998e-01 -1.2728297613178672e+01 -7.4888434741701966e+00 3.1099860104942803e+00 1 -1 2
2261 754 2 4.0999999999999998e-01 -1.4639370344988640e+01 -1.3650475619545194e+01 6.8204185537866078e+00 2 1 1
448 150 1 -8.1999999999999995e-01 -1.3799525378408207e+01 -5.7749045194151041e+00 5.6338591774489206e+00 1 0 2
1117 373 1 -8.1999999999999995e-01 -1.0801262029444262e+01 -1.1673588177430295e+01 1.8985050198039719e+00 2 2 3
1119 373 2 4.0999999999999998e-01 -1.1768996642030350e+01 -1.1712124158463967e+01 1.6494529552916521e+00 2 2 3
449 150 2 4.0999999999999998e-01 -1.3383732852010109e+01 -6.4182564403719766e+00 4.9910241287819641e+00 1 0 2
2466 822 2 4.0999999999999998e-01 -7.6473023353730127e+00 -5.1981200066225490e+00 2.0208455287772153e-01 3 0 3
664 222 1 -8.1999999999999995e-01 -8.6121117144987558e+00 -1.3083965854867332e+01 2.6433669196199876e+00 3 2 3
174 58 2 4.0999999999999998e-01 -1.1857614923771182e+01 -1.2336856110962948e+01 4.7901171454845741e+00 1 1 2
666 222 2 4.0999999999999998e-01 -9.4180988086558113e+00 -1.2533515329145747e+01 2.4256262105485273e+00 3 2 3
2276 759 2 4.0999999999999998e-01 -1.4360456277753597e+01 -1.0162508568089784e+01 7.8785831591955180e-01 3 1 2
896 299 2 4.0999999999999998e-01 -1.4651497087519555e+01 -6.8062842203250895e+00 1.8566846029007689e+00 3 0 3
29 10 2 4.0999999999999998e-01 -1.1074471766556989e+01 -1.3794451407764145e+01 1.5922053758680850e+00 2 -1 3
841 281 1 -8.1999999999999995e-01 -1.2585027322222441e+01 -7.3435264152866431e+00 1.5651892464004664e+00 0 1 4
1767 589 2 4.0999999999999998e-01 -8.1973093287860621e-02 -1.4002382449436046e+01 1.8794347370289390e+00 2 1 2
842 281 2 4.0999999999999998e-01 -1.1864478096231524e+01 -7.9922812725207448e+00 1.3203465416015856e+00 0 1 4
481 161 1 -8.1999999999999995e-01 -1.4404888072271543e+01 -1.3149427919223783e+01 9.9508466831174047e-01 1 1 3
2275 759 1 -8.1999999999999995e-01 -1.3697042700407833e+01 -1.0610840832480084e+01 1.3869432365136500e+00 3 1 2
172 58 1 -8.1999999999999995e-01 -1.2055583533301833e+01 -1.1565160325324364e+01 5.3945309154254542e+00 1 1 2
2277 759 2 4.0999999999999998e-01 -1.3800360661803385e+01 -1.0262331931220297e+01 2.3185488059624451e+00 3 1 2
173 58 2 4.0999999999999998e-01 -1.2647401727853479e+01 -1.0913471538057705e+01 4.9201103006601681e+00 1 1 2
1400 467 2 4.0999999999999998e-01 -1.3667878652459292e+01 -8.9083825251627982e+00 4.2253861120456921e+00 4 -1 4
665 222 2 4.0999999999999998e-01 -8.9001318725588803e+00 -1.3997099458881896e+01 2.9319036149774700e+00 3 2 3
1569 523 2 4.0999999999999998e-01 -1.1656320437143229e+01 -1.4450279328297583e+01 3.6554306512806090e+00 3 -1 2
2283 761 2 4.0999999999999998e-01 -4.7255085339687728e+00 -7.2524925266684015e+00 5.1781335050149710e+00 3 0 3
2260 754 1 -8.1999999999999995e-01 -1.4767730892736754e+01 -1.2668622480355864e+01 6.6807403819607192e+00 2 1 1
28 10 1 -8.1999999999999995e-01 -1.1192135695997340e+01 -1.4775085002247387e+01 1.7488419262409227e+00 2 -1 3
2262 754 2 4.0999999999999998e-01 -1.4032111769836298e+01 -1.2315183474863469e+01 6.1028412526897728e+00 2 1 1
1399 467 1 -8.1999999999999995e-01 -1.4165967358272040e+01 -9.7614730085240673e+00 4.0699308650495869e+00 4 -1 4
1467 489 2 4.0999999999999998e-01 -1.2827042803373560e+01 -5.3890188741275100e+00 1.4624840797771927e+00 4 1 3
74 25 2 4.0999999999999998e-01 -9.7611329499878607e+00 -8.8355394720132843e+00 6.8879171485358448e-01 0 -1 3
1826 609 2 4.0999999999999998e-01 -3.3284870609286337e+00 -1.2180150433762261e+01 1.8644068759082106e+00 3 -2 2
1458 486 2 4.0999999999999998e-01 -3.4102493314889237e-01 -5.3949131842378062e+00 5.9289555099018205e+00 2 0 5
2488 830 1 -8.1999999999999995e-01 -2.6809643248371557e+00 -1.1887386062051050e+01 6.7609098672061361e+00 2 0 4
690 230 2 4.0999999999999998e-01 -1.1779955238789690e+01 -1.0537079372060415e+01 6.6459860313267907e+00 3 1 4