LAMMPS data file via write_data, version 15 May 2015, timestep = 18500000

2593 atoms
6 atom types
1728 bonds
4 bond types
864 angles
3 angle types
0 dihedrals
3 dihedral types
0 impropers
1 improper types

-1.4935157400259945e+01 1.4935157400259945e+01 xlo xhi
-1.4935157400259945e+01 1.4935157400259945e+01 ylo yhi
-1.4935157400259945e+01 1.4935157400259945e+01 zlo zhi

Masses

1 15.9994
2 1.00794
3 12.0107
4 1.00794
5 12.0107
6 12.0107

Bond Coeffs # harmonic

1 1000 1
2 469 1.4
3 367 1.08
4 469 0.7

Angle Coeffs # harmonic

1 100 109.47
2 35 120
3 63 120

Dihedral Coeffs # opls

1 0 7.25 0 0
2 0 7.25 0 0
3 0 7.25 0 0

Improper Coeffs # cvff

1 2.5 -1 2

Atoms # full

2566 856 1 -8.1999999999999995e-01 -7.8602818501784029e+00 -1.0682020922433521e+01 -9.0438566458703491e+00 40 -4 45
2567 856 2 4.0999999999999998e-01 -7.8837756336125437e+00 -9.7662779364646539e+00 -8.6427052276588689e+00 40 -4 45
225 75 2 4.0999999999999998e-01 -9.3106305511428822e+00 -8.3282416882825476e+00 -1.2076000325354540e+01 40 0 50
2568 856 2 4.0999999999999998e-01 -7.9511013186969413e+00 -1.0613134825161849e+01 -1.0037368676152120e+01 40 -4 45
655 219 1 -8.1999999999999995e-01 -9.9261817294848758e+00 -9.5719484126387453e+00 -1.0849369468140232e+01 39 -16 51
657 219 2 4.0999999999999998e-01 -1.0496964176595723e+01 -1.0104472241232683e+01 -1.0224321159184557e+01 39 -16 51
656 219 2 4.0999999999999998e-01 -9.1683984177940374e+00 -1.0138427277871816e+01 -1.1173291948027471e+01 39 -16 51
1832 611 2 4.0999999999999998e-01 -1.0002786890036742e+01 -1.2572692687684199e+01 -1.2242272545805465e+01 41 -7 47
1833 611 2 4.0999999999999998e-01 -1.0763882673455681e+01 -1.3267086705904683e+01 -1.0975254137755057e+01 41 -7 47
223 75 1 -8.1999999999999995e-01 -8.5821072918237089e+00 -7.8541055015757326e+00 -1.2570478200105484e+01 40 0 50
224 75 2 4.0999999999999998e-01 -7.7071637085309064e+00 -8.0215243625112223e+00 -1.2116050786355245e+01 40 0 50
274 92 1 -8.1999999999999995e-01 -1.0793756779619638e+01 -1.4596256904220853e+01 -9.8543502296016428e+00 41 -9 48
1708 570 1 -8.1999999999999995e-01 -8.3113573448457707e+00 -1.3096919290992053e+01 -1.3153647250593137e+01 39 -9 44
823 275 1 -8.1999999999999995e-01 -1.1699115450463797e+01 -5.6695777826503306e+00 -1.0069168377493115e+01 39 -6 48
1697 566 2 4.0999999999999998e-01 -7.7374480213558892e+00 -7.4585944059176894e+00 -1.4345761816912605e+01 43 -6 48
276 92 2 4.0999999999999998e-01 -1.0587144366294599e+01 -1.4051925610726895e+01 -9.0412854228686719e+00 41 -9 48
2398 800 1 -8.1999999999999995e-01 -1.3954820279130100e+01 -1.4395798431404184e+01 -1.2392709487005288e+01 40 -6 49
1831 611 1 -8.1999999999999995e-01 -1.0779488633125231e+01 -1.2499932096197115e+01 -1.1616573001607113e+01 41 -7 47
825 275 2 4.0999999999999998e-01 -1.1694166288372063e+01 -6.0723782433098776e+00 -1.0984475372837746e+01 39 -6 48
388 130 1 -8.1999999999999995e-01 -1.2152067119359742e+01 -1.0952905895066085e+01 -9.2026337053762148e+00 36 -11 50
390 130 2 4.0999999999999998e-01 -1.2977615573529734e+01 -1.1514079900676599e+01 -9.1425244976345645e+00 36 -11 50
1710 570 2 4.0999999999999998e-01 -7.7265482710860054e+00 -1.3905352889721385e+01 -1.3086617137379287e+01 39 -9 44
1174 392 1 -8.1999999999999995e-01 -1.3088942783846159e+01 -6.6503923635540385e+00 -8.0159438389320172e+00 38 -7 50
402 134 2 4.0999999999999998e-01 -1.2709511971415701e+01 -8.5189087528066239e+00 -1.2760545163956399e+01 41 -15 53
1176 392 2 4.0999999999999998e-01 -1.2626194089329228e+01 -6.3693438368916713e+00 -8.8567380803019287e+00 38 -7 50
1681 561 1 -8.1999999999999995e-01 -1.2062416178463737e+01 -6.7664550272699078e+00 -1.2600054356686694e+01 37 -7 51
1709 570 2 4.0999999999999998e-01 -8.0375764396626934e+00 -1.2552281244644814e+01 -1.3946410162551679e+01 39 -9 44
1806 602 2 4.0999999999999998e-01 -1.2325787842261450e+01 -1.1747885766266497e+01 -1.1759778788030449e+01 40 -7 52
1091 364 2 4.0999999999999998e-01 -1.4574022326979765e+01 -5.6600406651785189e+00 -1.4628921571102481e+01 36 -10 48
1683 561 2 4.0999999999999998e-01 -1.2685189241227686e+01 -5.9964118745506436e+00 -1.2738787477469243e+01 37 -7 51
1804 602 1 -8.1999999999999995e-01 -1.3263993683050145e+01 -1.1808459400798498e+01 -1.2100601693247233e+01 40 -7 52
401 134 2 4.0999999999999998e-01 -1.2960089173305377e+01 -1.0125784870164747e+01 -1.2612404354467508e+01 41 -15 53
400 134 1 -8.1999999999999995e-01 -1.2821969267355254e+01 -9.3773220484158237e+00 -1.3261084450191563e+01 41 -15 53
1762 588 1 -8.1999999999999995e-01 -7.7621799514064787e+00 -1.0855936217791566e+01 -1.1830982809694818e+01 38 -8 50
1764 588 2 4.0999999999999998e-01 -7.9366373290233945e+00 -1.1837946609539051e+01 -1.1903645440579362e+01 38 -8 50
1984 662 1 -8.1999999999999995e-01 -1.4659716697623880e+01 -1.2234789439970314e+01 -9.0384938736142146e+00 37 -9 55
2400 800 2 4.0999999999999998e-01 -1.3573709628665689e+01 -1.4928080854215345e+01 -1.3148678848956262e+01 40 -6 49
1805 602 2 4.0999999999999998e-01 -1.3449349500804260e+01 -1.2743748967084843e+01 -1.2402158033061934e+01 40 -7 52
1216 406 1 -8.1999999999999995e-01 -9.5758127914445268e+00 -5.0614500792655228e+00 -8.5261332748168623e+00 43 -7 53
2243 748 2 4.0999999999999998e-01 -1.4774896731913469e+01 -5.4526337811465329e+00 -7.9531744355390037e+00 40 -10 46
1682 561 2 4.0999999999999998e-01 -1.1324408173786937e+01 -6.7238035910554625e+00 -1.3273541299865840e+01 37 -7 51
2248 750 1 -8.1999999999999995e-01 -8.0791086501643310e+00 -8.3015433317261689e+00 -7.5006965064060438e+00 42 -9 50
30 10 2 4.0999999999999998e-01 -1.1313987988209739e+01 -9.5751127816724431e+00 -1.4263505780152613e+01 37 -10 51
1985 662 2 4.0999999999999998e-01 -1.4706599166258366e+01 -1.2025321237300084e+01 -8.0617724763209075e+00 37 -9 55
1090 364 1 -8.1999999999999995e-01 -1.3675974209408599e+01 -5.2239379333259777e+00 -1.4687090183597849e+01 36 -10 48
1838 613 2 4.0999999999999998e-01 -9.0203137313971435e+00 -1.2147067441223660e+01 -8.5091750700013158e+00 35 -12 58
1837 613 1 -8.1999999999999995e-01 -9.9272769802911576e+00 -1.2458600344505921e+01 -8.2255828755119325e+00 35 -12 58
389 130 2 4.0999999999999998e-01 -1.2262060952376039e+01 -1.0136388788222852e+01 -8.6358349936060446e+00 36 -11 50
297 99 2 4.0999999999999998e-01 -1.4372954912131606e+01 -8.9436171068282686e+00 -1.4351615944167778e+01 37 -8 48
1264 422 1 -8.1999999999999995e-01 -1.0369007448049359e+01 -4.9995187792794233e+00 -1.4830505596666864e+01 35 -8 47
1839 613 2 4.0999999999999998e-01 -1.0623837398336576e+01 -1.1857785974486987e+01 -8.6178650322954908e+00 35 -12 58
1217 406 2 4.0999999999999998e-01 -1.0395568307693487e+01 -5.3428288649533773e+00 -9.0250185502230611e+00 43 -7 53
1175 392 2 4.0999999999999998e-01 -1.2795704485926564e+01 -7.5733833817181191e+00 -7.7666278396987520e+00 38 -7 50
1218 406 2 4.0999999999999998e-01 -8.8886684673471326e+00 -5.7861337636870882e+00 -8.5783429626075716e+00 43 -7 53
1307 436 2 4.0999999999999998e-01 -1.4763941095275511e+01 -1.0966987452914317e+01 -1.1801909207517632e+01 45 -12 54
2399 800 2 4.0999999999999998e-01 -1.4926079450893779e+01 -1.4610709288287648e+01 -1.2290100598631456e+01 40 -6 49
726 242 2 4.0999999999999998e-01 -7.9947514415855103e-01 -1.4792013121472875e+01 -1.2275127277970650e+01 41 -9 45
707 236 2 4.0999999999999998e-01 -5.7295239506942117e+00 -1.4479583455488493e+01 -1.0964526616882035e+01 32 -6 49
216 72 2 4.0999999999999998e-01 -1.0366905754318338e+00 -1.4711969536416026e+01 -8.4134796562457481e+00 35 -8 47
866 289 2 4.0999999999999998e-01 -4.1356180645102576e+00 -1.3997142252762707e+01 -1.3897458818267795e+01 38 -8 50
214 72 1 -8.1999999999999995e-01 -4.9632848640673366e-01 -1.3926415488888557e+01 -8.1118619276078014e+00 35 -8 47
2062 688 1 -8.1999999999999995e-01 -7.0371423512203277e+00 -1.3519367384702225e+01 -9.4015094394585681e+00 42 -8 49
2064 688 2 4.0999999999999998e-01 -6.9440022813304463e+00 -1.2532492382004428e+01 -9.5336540920277866e+00 42 -8 49
1889 630 2 4.0999999999999998e-01 -7.4097243865706908e-01 -1.0691102334243844e+01 -8.6407860570579587e+00 35 -14 49
1104 368 2 4.0999999999999998e-01 -5.0270528931115379e+00 -7.7152426867701855e+00 -1.1353199222457476e+01 39 -11 46
1655 552 2 4.0999999999999998e-01 -5.1689531065057182e-01 -6.4390049987680840e+00 -1.4534945000573371e+01 38 -4 48
1076 359 2 4.0999999999999998e-01 -3.4970189916831629e+00 -9.4314470510663035e+00 -1.4256365893936984e+01 38 -9 55
1723 575 1 -8.1999999999999995e-01 -2.3830577203834373e+00 -7.8413969658947966e+00 -1.1053690957491654e+01 42 -13 49
1888 630 1 -8.1999999999999995e-01 -1.4826652211666538e+00 -1.1267345712204282e+01 -8.2974276816456243e+00 35 -14 49
1763 588 2 4.0999999999999998e-01 -7.2824027076581386e+00 -1.0541129454653941e+01 -1.2649988391248369e+01 38 -8 50
2063 688 2 4.0999999999999998e-01 -6.6245573798869355e+00 -1.3779160140566701e+01 -8.5283880374174039e+00 42 -8 49
1725 575 2 4.0999999999999998e-01 -2.5722252074519005e+00 -8.8131518825508657e+00 -1.1194997899102379e+01 42 -13 49
1052 351 2 4.0999999999999998e-01 -5.1457992739514964e+00 -7.5565275236054052e+00 -7.9959060594866243e+00 36 -12 49
910 304 1 -8.1999999999999995e-01 -2.9366917149569893e+00 -1.0666272036629618e+01 -1.2179695749199606e+01 35 -11 55
1724 575 2 4.0999999999999998e-01 -1.4027357004341408e+00 -7.6739632448842103e+00 -1.1158544489993394e+01 42 -13 49
1654 552 1 -8.1999999999999995e-01 -5.0458368947558441e-01 -5.6100056856689235e+00 -1.3975777620777770e+01 38 -4 48
1051 351 1 -8.1999999999999995e-01 -4.8330206034015060e+00 -8.3872468365595374e+00 -8.4564867034190279e+00 36 -12 49
1689 563 2 4.0999999999999998e-01 -2.9959396343003668e+00 -1.1411413424565865e+01 -9.2046492717370221e+00 34 -10 45
1075 359 1 -8.1999999999999995e-01 -3.1496205794245551e+00 -8.6482260671506364e+00 -1.4772058405892427e+01 38 -9 55
1006 336 1 -8.1999999999999995e-01 -3.9093100182673961e+00 -6.8139338469854476e+00 -1.2723933054716262e+01 41 -8 51
1687 563 1 -8.1999999999999995e-01 -3.8974468492711623e+00 -1.1771015475441592e+01 -9.4455448460975049e+00 34 -10 45
2496 832 2 4.0999999999999998e-01 -5.3833380763233549e+00 -9.9368907850518546e+00 -7.8199045432291285e+00 38 -8 50
867 289 2 4.0999999999999998e-01 -4.5191352262653783e+00 -1.3672430883257030e+01 -1.2343669083206647e+01 38 -8 50
2371 791 1 -8.1999999999999995e-01 -3.4210480873341940e+00 -1.4253380376753940e+01 -1.0247430707826968e+01 37 -10 57
1890 630 2 4.0999999999999998e-01 -1.2041138059314545e+00 -1.2227041644397435e+01 -8.3355388374484320e+00 35 -14 49
911 304 2 4.0999999999999998e-01 -2.2245151026689154e+00 -1.1161931176650747e+01 -1.2676873894976620e+01 35 -11 55
1007 336 2 4.0999999999999998e-01 -3.3110910277647410e+00 -7.0858853553963002e+00 -1.1970118715000369e+01 41 -8 51
1688 563 2 4.0999999999999998e-01 -4.5676227627005144e+00 -1.1473351610440435e+01 -8.7656036168983995e+00 34 -10 45
865 289 1 -8.1999999999999995e-01 -4.3591445215615519e+00 -1.3272095936547149e+01 -1.3245996359471748e+01 38 -8 50
912 304 2 4.0999999999999998e-01 -3.2626756811389281e+00 -1.1226224262763491e+01 -1.1417955924205545e+01 35 -11 55
725 242 2 4.0999999999999998e-01 -1.7056996571218637e+00 -1.4844603890583935e+01 -1.3632616433820749e+01 41 -9 45
1077 359 2 4.0999999999999998e-01 -3.5131892360841501e+00 -7.8031785671214013e+00 -1.4379920476299384e+01 38 -9 55
1530 510 2 4.0999999999999998e-01 -5.0442277039000043e+00 -1.1626296612062044e+01 -1.3388275681858879e+01 44 -13 53
2494 832 1 -8.1999999999999995e-01 -5.6253325337786730e+00 -1.0852846749506483e+01 -7.4997124339804069e+00 38 -8 50
1528 510 1 -8.1999999999999995e-01 -5.5722602648256565e+00 -1.0777062937344612e+01 -1.3381686934146634e+01 44 -13 53
1053 351 2 4.0999999999999998e-01 -5.2451942521640973e+00 -8.4393541157704917e+00 -9.3661334977673256e+00 36 -12 49
2373 791 2 4.0999999999999998e-01 -3.8047193155436680e+00 -1.3373767480208052e+01 -9.9661174062976841e+00 37 -10 57
2495 832 2 4.0999999999999998e-01 -6.5810704769006492e+00 -1.1042838248712522e+01 -7.7244963375614706e+00 38 -8 50
1008 336 2 4.0999999999999998e-01 -3.5144728335550610e+00 -6.0250095402905561e+00 -1.3194848821886930e+01 41 -8 51
1656 552 2 4.0999999999999998e-01 -1.3901274019916006e+00 -5.1501231705985848e+00 -1.4041959453388383e+01 38 -4 48
1553 518 2 4.0999999999999998e-01 -3.4953394464529826e+00 -6.1327250554871124e+00 -1.0236022351423989e+01 40 -8 45
1103 368 2 4.0999999999999998e-01 -6.2813698062677830e+00 -6.7918298065193046e+00 -1.0862502572777352e+01 39 -11 46
1552 518 1 -8.1999999999999995e-01 -3.7263618783669106e+00 -5.2345683752581564e+00 -9.8618528302023787e+00 40 -8 45
2372 791 2 4.0999999999999998e-01 -2.6796464827843991e+00 -1.4099999784404597e+01 -1.0900774135749156e+01 37 -10 57
1102 368 1 -8.1999999999999995e-01 -5.9165278447289840e+00 -7.7223211375357206e+00 -1.0896204883758164e+01 39 -11 46
1529 510 2 4.0999999999999998e-01 -4.9617090485137503e+00 -1.0006342054096450e+01 -1.3199269400983079e+01 44 -13 53
5 2 2 4.0999999999999998e-01 -3.2170858888852969e+00 -8.6239943463639523e+00 -7.5570066441574548e+00 39 -3 52
2327 776 2 4.0999999999999998e-01 -1.2340117219919673e+00 -8.4181942838515162e+00 -1.4893399183544270e+01 44 -13 43
446 149 2 4.0999999999999998e-01 -6.9244362597180764e+00 -1.0664429946655146e+01 -1.4646124446586329e+01 36 -6 46
52 18 1 -8.1999999999999995e-01 -1.2383655134922531e+01 -1.1454836438472434e+01 -1.9342227480453129e+00 41 -11 55
53 18 2 4.0999999999999998e-01 -1.1573081095224099e+01 -1.1312844468880126e+01 -2.5024371661228724e+00 41 -11 55
2083 695 1 -8.1999999999999995e-01 -1.3139442648369565e+01 -1.0714199057435923e+01 -5.1907272357930125e+00 37 -8 46
1566 522 2 4.0999999999999998e-01 -1.4054557934123460e+01 -6.1629087339907187e+00 -3.8371448081127113e+00 34 -9 48
2551 851 1 -8.1999999999999995e-01 -8.4556207580188349e+00 -8.3764853560462420e+00 -2.8204718545620704e+00 43 -9 50
2085 695 2 4.0999999999999998e-01 -1.2584426458547121e+01 -1.0678498140008417e+01 -4.3596182796128851e+00 37 -8 46
1685 562 2 4.0999999999999998e-01 -1.3885901768093698e+01 -1.2865994872294070e+01 -1.0645438469889434e+00 39 -6 50
1885 629 1 -8.1999999999999995e-01 -1.1312156852969434e+01 -7.8013446351170694e+00 -2.3561804701292619e+00 34 -10 51
1886 629 2 4.0999999999999998e-01 -1.2191463106183562e+01 -7.4311754864180086e+00 -2.6559385784539575e+00 34 -10 51
2084 695 2 4.0999999999999998e-01 -1.4065674792777392e+01 -1.0397022528752910e+01 -4.9868824456245484e+00 37 -8 46
904 302 1 -8.1999999999999995e-01 -1.2355236372185212e+01 -9.1728194953856743e+00 -7.1904177091936381e+00 38 -9 53
575 192 2 4.0999999999999998e-01 -9.5405330937554815e+00 -1.1497643232134045e+01 -3.5276442451024366e+00 43 -10 47
1887 629 2 4.0999999999999998e-01 -1.1271510822907610e+01 -8.7776208064612220e+00 -2.5690004424073933e+00 34 -10 51
905 302 2 4.0999999999999998e-01 -1.2549120848230302e+01 -9.8652306963274565e+00 -6.4954103731041943e+00 38 -9 53
2553 851 2 4.0999999999999998e-01 -9.3677206240109747e+00 -8.0780972352820477e+00 -2.5392282511855182e+00 43 -9 50
756 252 2 4.0999999999999998e-01 -1.2431053765049692e+01 -1.2702221159367538e+01 -5.8081446850058072e+00 42 -8 52
906 302 2 4.0999999999999998e-01 -1.1400760690115492e+01 -8.8838841663782340e+00 -7.1159048779265675e+00 38 -9 53
1437 479 2 4.0999999999999998e-01 -9.4651400000340580e+00 -6.5100777089800363e+00 -5.2147102174910440e+00 38 -5 51
755 252 2 4.0999999999999998e-01 -1.3649857589062295e+01 -1.3788007011764927e+01 -5.7594439200234309e+00 42 -8 52
1436 479 2 4.0999999999999998e-01 -1.1027343077917889e+01 -6.5841288456736820e+00 -5.6846287595435641e+00 38 -5 51
1415 472 2 4.0999999999999998e-01 -9.6230982615290532e+00 -7.2099960059427195e+00 -5.7249789168601772e-01 39 -4 48
754 252 1 -8.1999999999999995e-01 -1.2676021797143854e+01 -1.3661579055760388e+01 -5.9484397642295210e+00 42 -8 52
1435 479 1 -8.1999999999999995e-01 -1.0090212659540519e+01 -6.8398336559935604e+00 -5.9222445212765393e+00 38 -5 51
576 192 2 4.0999999999999998e-01 -9.6118973589339891e+00 -9.8936897783046369e+00 -3.8260164097891352e+00 43 -10 47
1684 562 1 -8.1999999999999995e-01 -1.4870128981930961e+01 -1.2905716948135307e+01 -1.2371083942824139e+00 39 -6 50
574 192 1 -8.1999999999999995e-01 -1.0075793950588473e+01 -1.0664364562204362e+01 -3.3890725289775254e+00 43 -10 47
249 83 2 4.0999999999999998e-01 -7.9151103394335980e+00 -1.4644012748197808e+01 -6.2478154563484321e+00 34 -11 48
518 173 2 4.0999999999999998e-01 -1.3243156116448651e+01 -7.8645075948947447e+00 -5.8793476206041895e-01 41 -8 48
1564 522 1 -8.1999999999999995e-01 -1.3941449421869718e+01 -6.7436754663334604e+00 -3.0309338601596973e+00 34 -9 48
2552 851 2 4.0999999999999998e-01 -7.8223025561155053e+00 -7.6041243513837449e+00 -2.7712157199127763e+00 43 -9 50
1260 420 2 4.0999999999999998e-01 -1.3679192555269019e+01 -5.6093950216725990e+00 -6.3483602282994624e+00 43 -12 44
1565 522 2 4.0999999999999998e-01 -1.4840393984880265e+01 -6.9859348334278772e+00 -2.6658740573498214e+00 34 -9 48
2114 705 2 4.0999999999999998e-01 -1.1640061444538894e+01 -1.4600523643689824e+01 -5.1391570470003245e+00 38 -14 47
1108 370 1 -8.1999999999999995e-01 -1.2471366596799870e+01 -1.4331212781932344e+01 -4.0806433309679058e-01 36 -13 50
2340 780 2 4.0999999999999998e-01 -7.5895643836276063e+00 -9.8677070817960413e+00 -2.1653038191053806e+00 43 -10 50
1109 370 2 4.0999999999999998e-01 -1.1895533285471805e+01 -1.4818447737979636e+01 -1.0646294058597174e+00 36 -13 50
54 18 2 4.0999999999999998e-01 -1.2138399851805035e+01 -1.1346918192078492e+01 -9.7075862584854988e-01 41 -11 55
248 83 2 4.0999999999999998e-01 -9.1611608934863291e+00 -1.4131051505929786e+01 -7.1703198066177176e+00 34 -11 48
1950 650 2 4.0999999999999998e-01 -7.5553813924700659e+00 -9.7471163060401640e+00 -1.8208534485568961e-01 42 -10 46
193 65 1 -8.1999999999999995e-01 -8.7139050712592763e+00 -1.3014926719271568e+01 -3.7937485818386989e+00 35 -1 49
194 65 2 4.0999999999999998e-01 -8.7199878045179666e+00 -1.3767987850816445e+01 -3.1357808438515029e+00 35 -1 49
247 83 1 -8.1999999999999995e-01 -8.8971346747929232e+00 -1.4731338475380074e+01 -6.4153328294491700e+00 34 -11 48
2466 822 2 4.0999999999999998e-01 -1.3029034393503204e+01 -5.5705449394638560e+00 -2.2115992562427902e+00 39 -7 50
1996 666 1 -8.1999999999999995e-01 -8.2151353770480906e+00 -1.4682530508718463e+01 -1.8268985192564386e+00 39 -7 47
195 65 2 4.0999999999999998e-01 -8.7179674087821741e+00 -1.3384234727987652e+01 -4.7230788004850144e+00 35 -1 49
2339 780 2 4.0999999999999998e-01 -7.7109764828775882e+00 -1.1478547448510051e+01 -2.4045480021186521e+00 43 -10 50
517 173 1 -8.1999999999999995e-01 -1.4043388281175989e+01 -8.2698475007973542e+00 -1.4590806434843806e-01 41 -8 48
1257 419 2 4.0999999999999998e-01 -8.1145020755884580e+00 -5.0811292317098609e+00 -4.3136946977940500e+00 35 -10 48
2249 750 2 4.0999999999999998e-01 -8.9306212625384767e+00 -7.8216065384385924e+00 -7.2893992213545591e+00 42 -9 50
1953 651 2 4.0999999999999998e-01 -2.1354097395009184e+00 -8.5134874497600670e+00 -3.2138983890328063e+00 35 -13 48
1998 666 2 4.0999999999999998e-01 -7.2299460407490219e+00 -1.4704301952910271e+01 -1.9971556530737757e+00 39 -7 47
2573 858 2 4.0999999999999998e-01 -3.3655453677053817e+00 -7.5304271487094949e+00 -8.1035594932089694e-01 43 -9 48
1595 532 2 4.0999999999999998e-01 -6.9593769670347783e-01 -5.4164000317536800e+00 -8.8674637481789098e-01 37 -3 51
817 273 1 -8.1999999999999995e-01 -6.1882659298727472e+00 -1.4539307818931155e+01 -6.1925386229538386e+00 41 -8 52
703 235 1 -8.1999999999999995e-01 -6.9095603348121610e+00 -6.2122863287806389e+00 -2.8074698726416738e+00 42 -14 49
1002 334 2 4.0999999999999998e-01 -4.7237118415147634e+00 -1.1827721735856032e+01 -5.8257237624969971e+00 39 -4 49
4 2 1 -8.1999999999999995e-01 -2.5445937852357581e+00 -8.7906939931936279e+00 -6.8358788909417179e+00 39 -3 52
489 163 2 4.0999999999999998e-01 -5.5347268721358098e+00 -1.4385948676203496e+01 -2.3712361691856092e+00 42 -11 48
704 235 2 4.0999999999999998e-01 -6.6828793272273312e+00 -5.3969576976573368e+00 -3.3403062278039872e+00 42 -14 49
1952 651 2 4.0999999999999998e-01 -1.2361825839317486e+00 -7.3258153733758471e+00 -3.8829356007855953e+00 35 -13 48
2038 680 1 -8.1999999999999995e-01 -3.4266009831471340e+00 -1.2635686258757094e+01 -1.7184335728996913e-02 38 -7 46
1594 532 1 -8.1999999999999995e-01 -1.2456945542672830e+00 -5.2680923829418358e+00 -1.7088363314693424e+00 37 -3 51
819 273 2 4.0999999999999998e-01 -5.7013043171721733e+00 -1.3792387584049470e+01 -5.7397272306453253e+00 41 -8 52
2250 750 2 4.0999999999999998e-01 -7.4584585354615012e+00 -8.2390308680358046e+00 -6.7190666338489535e+00 42 -9 50
740 247 2 4.0999999999999998e-01 -4.1283003254340560e+00 -8.4147964943612674e+00 -3.2146806773243402e+00 38 -5 49
1936 646 1 -8.1999999999999995e-01 -1.8937946454043431e+00 -1.0304056531036327e+01 -3.9340856823343806e-01 38 -12 48
1596 532 2 4.0999999999999998e-01 -1.6990863635722704e+00 -6.1217982232438608e+00 -1.9651208661065045e+00 37 -3 51
1951 651 1 -8.1999999999999995e-01 -1.2056295372888588e+00 -8.1712247218111198e+00 -3.3496353982108928e+00 35 -13 48
2007 669 2 4.0999999999999998e-01 -5.2155525356754833e+00 -5.9184597252439595e+00 -6.0974600700740318e+00 42 -9 47
2040 680 2 4.0999999999999998e-01 -3.9761567031776011e+00 -1.2628766228415842e+01 -8.5264840218489013e-01 38 -7 46
1955 652 2 4.0999999999999998e-01 -4.0965556562171255e+00 -9.5112895060578708e+00 -5.3165680672617928e+00 41 -6 51
955 319 1 -8.1999999999999995e-01 -1.5307743798571174e+00 -6.3278463262511231e+00 -5.1416998788329291e+00 39 -7 51
1000 334 1 -8.1999999999999995e-01 -4.3723549948292586e+00 -1.2259549391301269e+01 -4.9949814114897979e+00 39 -4 49
957 319 2 4.0999999999999998e-01 -7.8586164700787897e-01 -6.6588912796729769e+00 -5.7209872695761685e+00 39 -7 51
741 247 2 4.0999999999999998e-01 -4.4370198456078374e+00 -6.8836837997317044e+00 -2.7380554318928745e+00 38 -5 49
403 135 1 -8.1999999999999995e-01 -2.3901949140948062e+00 -1.0925368433170188e+01 -2.7888263144976957e+00 39 -12 46
1001 334 2 4.0999999999999998e-01 -3.4158719168200875e+00 -1.2517179556747394e+01 -5.1321907264811113e+00 39 -4 49
2425 809 1 -8.1999999999999995e-01 -6.5852910787848629e+00 -7.7011142462033941e+00 -5.2450520804102787e+00 37 -6 51
1491 497 2 4.0999999999999998e-01 -3.5982187529448595e-01 -1.4832591023912032e+01 -4.8435413751973719e+00 30 -10 52
2426 809 2 4.0999999999999998e-01 -5.7992233513225138e+00 -8.3088163845008207e+00 -5.1316713007671808e+00 37 -6 51
1954 652 1 -8.1999999999999995e-01 -4.4442963013609926e+00 -9.5563004321726623e+00 -4.3800265385821415e+00 41 -6 51
1956 652 2 4.0999999999999998e-01 -3.9552003815440813e+00 -1.0268727161286172e+01 -3.8767443752897517e+00 41 -6 51
2338 780 1 -8.1999999999999995e-01 -7.1633779438343730e+00 -1.0754309443544983e+01 -1.9854122836278130e+00 43 -10 50
2005 669 1 -8.1999999999999995e-01 -4.6344364460945613e+00 -5.9695192511486805e+00 -6.9097141116719722e+00 42 -9 47
739 247 1 -8.1999999999999995e-01 -3.9050104863556001e+00 -7.7078208635843746e+00 -2.5435721137861922e+00 38 -5 49
956 319 2 4.0999999999999998e-01 -2.3737648032303849e+00 -6.8137547476377502e+00 -5.3726105984496364e+00 39 -7 51
404 135 2 4.0999999999999998e-01 -1.5702501915093645e+00 -1.0995102175253106e+01 -3.3570582014654686e+00 39 -12 46
2377 793 1 -8.1999999999999995e-01 -5.1373588275087663e+00 -1.2702230976179292e+01 -2.3322402099926069e+00 37 -6 46
705 235 2 4.0999999999999998e-01 -6.6888665504514346e+00 -6.0535461865656455e+00 -1.8451001666460503e+00 42 -14 49
2378 793 2 4.0999999999999998e-01 -4.5977981855264236e+00 -1.2600994020188477e+01 -3.1681140044273839e+00 37 -6 46
2379 793 2 4.0999999999999998e-01 -5.5724116551504324e+00 -1.1829996226728602e+01 -2.1086441085385879e+00 37 -6 46
405 135 2 4.0999999999999998e-01 -2.1238400661310806e+00 -1.0826351244689400e+01 -1.8300196486767977e+00 39 -12 46
2427 809 2 4.0999999999999998e-01 -6.7077269505176069e+00 -7.1562020265465121e+00 -4.4155101916351995e+00 37 -6 51
215 72 2 4.0999999999999998e-01 -1.0079481509765209e-01 -1.4118983056538614e+01 -7.2137915324222437e+00 35 -8 47
1938 646 2 4.0999999999999998e-01 -2.4685981238946315e+00 -9.4861281815420853e+00 -4.1897832305213711e-01 38 -12 48
2325 775 2 4.0999999999999998e-01 -3.8586789610244310e-02 -1.3788533112448265e+01 -1.2500463753551792e+00 45 -7 47
2324 775 2 4.0999999999999998e-01 -1.2919587202670613e-02 -1.4460737840138925e+01 -2.7380878625195422e+00 45 -7 47
921 307 2 4.0999999999999998e-01 -1.1350211230282028e+00 -7.9547706807737377e+00 -7.2767857086612739e+00 38 -15 46
6 2 2 4.0999999999999998e-01 -2.1410539294210604e+00 -9.6972940057372554e+00 -6.9595381954056963e+00 39 -3 52
919 307 1 -8.1999999999999995e-01 -2.7566434466566925e-01 -7.4447813501300732e+00 -7.3152100170281456e+00 38 -15 46
2006 669 2 4.0999999999999998e-01 -4.5227656956276032e+00 -5.0546171609119170e+00 -7.2977133285746021e+00 42 -9 47
2094 698 2 4.0999999999999998e-01 -1.3938971870930732e+01 -7.4690850630081069e+00 4.7934093641675073e+00 40 -4 55
778 260 1 -8.1999999999999995e-01 -9.5471626296313516e+00 -5.1044377948592849e+00 6.1031167108003022e+00 41 -14 48
519 173 2 4.0999999999999998e-01 -1.3782629725311356e+01 -9.1309521402532798e+00 2.9062757798340044e-01 41 -8 48
2585 862 2 4.0999999999999998e-01 -9.4455485906737273e+00 -1.2143434329781218e+01 4.6371432239529558e+00 38 -10 48
2586 862 2 4.0999999999999998e-01 -1.0668083912833460e+01 -1.3022238162378152e+01 4.0047693706329515e+00 38 -10 48
1162 388 1 -8.1999999999999995e-01 -1.3019130720060286e+01 -8.1972414063113721e+00 6.0508390234920224e+00 36 -9 48
2584 862 1 -8.1999999999999995e-01 -1.0416835783398454e+01 -1.2367446375150035e+01 4.7176380231652093e+00 38 -10 48
1643 548 2 4.0999999999999998e-01 -1.3345780469023499e+01 -1.0919919442562943e+01 4.3067620203697938e+00 40 -10 51
1164 388 2 4.0999999999999998e-01 -1.3641677049828138e+01 -7.9821818168175538e+00 6.8033315863898967e+00 36 -9 48
2423 808 2 4.0999999999999998e-01 -1.0611519195983135e+01 -8.9804832032001265e+00 3.3340367090425662e+00 39 -10 53
1163 388 2 4.0999999999999998e-01 -1.3099766539686659e+01 -9.1664771762296624e+00 5.8181600651533341e+00 36 -9 48
2422 808 1 -8.1999999999999995e-01 -1.0997276648049887e+01 -9.1922316862840425e+00 2.4360314791030664e+00 39 -10 53
722 241 2 4.0999999999999998e-01 -9.7885224834746012e+00 -9.1227524565691009e+00 5.9745917326438356e+00 38 -10 44
197 66 2 4.0999999999999998e-01 -1.3259788279487022e+01 -1.1208476784637964e+01 1.6941700222759604e+00 35 -11 48
2529 843 2 4.0999999999999998e-01 -7.5326770345267873e+00 -8.2354461688441987e+00 5.0105923624691879e+00 39 -6 54
2424 808 2 4.0999999999999998e-01 -1.0795513764794048e+01 -8.4455782939538651e+00 1.8021071348209876e+00 39 -10 53
1911 637 2 4.0999999999999998e-01 -1.0756345293124969e+01 -6.2456742643517948e+00 1.0115172152103646e+00 39 -7 50
198 66 2 4.0999999999999998e-01 -1.1991281074092145e+01 -1.0249965542351964e+01 1.3214354413568419e+00 35 -11 48
2430 810 2 4.0999999999999998e-01 -8.4180469603051797e+00 -1.1376076305004435e+01 3.0428178714374727e+00 41 -13 52
721 241 1 -8.1999999999999995e-01 -1.0072183006262094e+01 -8.4690148523912487e+00 5.2730053157488097e+00 38 -10 44
196 66 1 -8.1999999999999995e-01 -1.2752995913262861e+01 -1.0778675012508696e+01 9.4684710252468562e-01 35 -11 48
2428 810 1 -8.1999999999999995e-01 -8.5011815886316917e+00 -1.1354898355535955e+01 2.0464746746256015e+00 41 -13 52
2252 751 2 4.0999999999999998e-01 -1.1649480856333446e+01 -1.1430943803544972e+01 5.5118655501002340e+00 45 -4 47
723 241 2 4.0999999999999998e-01 -1.0996063077196165e+01 -8.1436488547309409e+00 5.4746043959014461e+00 38 -10 44
1516 506 1 -8.1999999999999995e-01 -1.0792563463767561e+01 -1.3009941142643603e+01 1.2066956001754097e+00 40 -7 49
1518 506 2 4.0999999999999998e-01 -1.0113046562557241e+01 -1.2277634798163135e+01 1.2519042074994235e+00 40 -7 49
2251 751 1 -8.1999999999999995e-01 -1.2424521141333564e+01 -1.1002813296194727e+01 5.9767057826630765e+00 45 -4 47
779 260 2 4.0999999999999998e-01 -9.2432465895077272e+00 -5.9429633543134432e+00 5.6508230545724789e+00 41 -14 48
2429 810 2 4.0999999999999998e-01 -8.4158478748202334e+00 -1.0411854984266821e+01 1.7248429536657195e+00 41 -13 52
1909 637 1 -8.1999999999999995e-01 -1.1723159745445807e+01 -5.9927554755208270e+00 9.7461838006868362e-01 39 -7 50
1677 559 2 4.0999999999999998e-01 -1.2239510745987792e+01 -5.4777957596685081e+00 2.8171156337468215e+00 37 -11 47
27 9 2 4.0999999999999998e-01 -7.6063211124108845e+00 -1.0491520558380147e+01 4.8895387295759374e+00 43 -6 49
569 190 2 4.0999999999999998e-01 -1.2121168393439316e+01 -6.8330676326235782e+00 6.8255851252888871e+00 40 -10 49
1532 511 2 4.0999999999999998e-01 -1.4722650139900324e+01 -6.6952052935199848e+00 2.6159969400492589e+00 37 -2 45
1910 637 2 4.0999999999999998e-01 -1.1983451591721010e+01 -5.8080760515260828e+00 2.6883566456348262e-02 39 -7 50
1642 548 1 -8.1999999999999995e-01 -1.3814354981570308e+01 -1.1237851963598501e+01 3.4824947947987059e+00 40 -10 51
1644 548 2 4.0999999999999998e-01 -1.3894328985603396e+01 -1.2234354371300260e+01 3.5079249175564353e+00 40 -10 51
2253 751 2 4.0999999999999998e-01 -1.2653864670327550e+01 -1.1528719326507089e+01 6.7957808738939089e+00 45 -4 47
2068 690 1 -8.1999999999999995e-01 -1.1716007178060641e+01 -1.4191112400614678e+01 3.3693253671438743e+00 34 -13 50
1517 506 2 4.0999999999999998e-01 -1.1293142169274903e+01 -1.3054005950937862e+01 2.0712989095721550e+00 40 -7 49
25 9 1 -8.1999999999999995e-01 -7.8130924531794195e+00 -1.1443216988951029e+01 4.6624283122955443e+00 43 -6 49
570 190 2 4.0999999999999998e-01 -1.0886261292033758e+01 -5.8273469876027004e+00 7.1865780948181897e+00 40 -10 49
26 9 2 4.0999999999999998e-01 -7.5896934372058498e+00 -1.2028092680398521e+01 5.4422186249676319e+00 43 -6 49
1611 537 2 4.0999999999999998e-01 -7.4857575379603389e+00 -1.4541289806868752e+01 4.0675054253318752e+00 38 -12 52