2593
Atoms. Timestep: 1000000
O 2.16854 -12.9817 -8.03854
H 2.07566 -12.197 -7.42563
H 3.10786 -13.03 -8.37813
O -3.39287 -4.93907 6.84352
H -4.26381 -4.57375 7.17214
H -3.20961 -4.58842 5.92513
O -2.50298 5.36661 6.53413
H -1.96027 4.52814 6.58334
H -3.0984 5.33162 5.73149
O -0.985091 8.14946 3.54414
H -1.83574 7.99467 3.04173
H -0.324277 7.43697 3.30823
O 13.781 9.51831 -12.7055
H 14.2208 9.83429 -13.5462
H 13.4963 10.3075 -12.1613
O -2.42848 -0.223208 -6.95721
H -3.09578 -0.910661 -6.67068
H -2.3429 0.474868 -6.24633
O -0.0357519 -10.4561 11.5888
H -0.0223468 -11.4435 11.7461
H 0.495766 -10.2419 10.7693
O 4.59459 13.7667 -10.5803
H 4.14387 12.9104 -10.3284
H 5.49285 13.5679 -10.9722
O -5.66405 -7.15514 8.79492
H -5.64948 -6.98096 7.81032
H -6.2585 -6.4873 9.24279
O -13.0129 -14.1643 -2.85526
H -13.1417 -13.6136 -2.03053
H -13.0413 14.6154 -2.61588
O -7.7003 -5.55993 -2.06973
H -8.3476 -5.15658 -2.71649
H -6.8816 -5.85868 -2.56008
O 10.5288 9.76188 12.7157
H 9.92823 9.54078 13.484
H 9.97526 9.98319 11.9128
O -9.787 13.5616 -4.73949
H -9.51685 12.8306 -4.11288
H -10.7239 13.4038 -5.05158
O -11.4831 6.56549 -4.6593
H -12.4799 6.64525 -4.66923
H -11.2246 5.65872 -4.32623
O 3.56829 13.432 -14.3073
H 3.23236 12.875 -13.5478
H 2.95004 13.339 14.6624
O 1.16066 5.10578 7.76135
H 1.70371 5.43822 6.99028
H 0.953095 5.86706 8.37565
O 8.26645 -1.10445 -6.62899
H 7.39413 -1.11027 -7.11787
H 8.1646 -1.58815 -5.75971
O 10.0814 -9.53762 3.71593
H 9.80958 -9.99763 4.56121
H 10.0417 -10.1863 2.95587
O -7.90947 2.80241 -3.43871
H -8.77843 2.31951 -3.54694
H -7.43955 2.46428 -2.62335
O -8.72723 6.90179 2.98286
H -8.50861 7.1585 2.04143
H -9.52578 7.4181 3.29225
O 4.2727 6.62379 -1.35461
H 3.62369 5.87389 -1.22649
H 4.95149 6.36349 -2.04124
O 11.9171 3.20335 14.6672
H 12.2332 3.48786 -14.1778
H 10.9356 3.01517 14.7009
O 9.38618 -6.14322 -3.29274
H 8.63087 -5.89833 -2.68486
H 9.72815 -7.05113 -3.05039
O -1.0702 10.8385 4.16711
H -1.11036 9.84851 4.03188
H -1.95351 11.2433 3.93073
O -6.17358 -9.20281 -0.88521
H -5.72886 -10.0963 -0.947779
H -7.0267 -9.29042 -0.370921
O -13.006 -8.38247 0.529271
H -13.8982 -7.93404 0.474431
H -12.2833 -7.69234 0.492636
O -0.147686 6.49286 -11.0227
H -1.00844 6.82764 -10.6393
H -0.109921 6.71116 -11.9978
O -14.7814 -14.518 7.43642
H 14.8157 -14.6525 8.41544
H 14.1694 -14.0736 7.03211
O 13.6002 -10.8079 -6.56394
H 12.821 -11.3046 -6.94619
H 13.8517 -11.2092 -5.68318
O 2.66945 13.2493 10.4663
H 3.55873 12.8038 10.3628
H 2.18189 13.2268 9.59347
O 12.1945 -3.97488 -5.8497
H 13.0313 -4.33462 -6.26246
H 12.1427 -4.26517 -4.89417
O 8.63104 11.2124 3.25779
H 8.94711 10.7327 4.07631
H 7.63541 11.301 3.287
O 9.37846 14.7059 1.34075
H 9.12692 14.4653 2.27823
H 10.3687 14.8325 1.28341
O 14.3526 -1.53007 10.2713
H 13.8623 -2.34806 9.97051
H 13.8605 -1.10744 11.0323
O -11.1035 -6.48894 -0.438254
H -10.3981 -6.97154 -0.957348
H -11.7102 -6.00599 -1.06964
O 4.41146 -12.7445 -5.84399
H 4.60745 -12.9635 -6.79983
H 4.94498 -13.345 -5.24836
O 1.41899 8.79479 -6.26668
H 1.69916 8.08243 -5.62322
H 0.44366 8.69934 -6.46567
O -14.2096 -7.26714 -11.663
H -13.5177 -7.23775 -10.9417
H 14.6299 -7.20717 -11.254
O -7.59105 -3.155 -8.26435
H -7.13637 -3.49993 -7.44321
H -8.54422 -2.93968 -8.05202
O -1.62116 -1.10325 -14.2714
H -1.24373 -0.517894 14.7612
H -1.95835 -0.535066 -13.5207
O 8.58934 -12.4994 -7.49075
H 8.54197 -12.2156 -8.44845
H 7.86271 -12.0479 -6.97296
O 8.12791 7.22166 11.9855
H 8.25166 7.93494 12.6754
H 7.54131 7.56538 11.2522
O 10.8304 -8.25713 -2.37188
H 11.7974 -8.00283 -2.38544
H 10.7161 -9.15569 -2.79555
O 7.35378 -9.07136 13.3946
H 7.34652 -9.97342 12.9631
H 7.66943 -8.38898 12.7353
O 0.899815 3.98532 -10.4632
H 1.39129 4.25538 -9.63527
H 0.453222 4.78629 -10.8619
O 10.1982 -6.17083 9.05253
H 9.25395 -5.84298 9.08226
H 10.6915 -5.70029 8.32095
O -4.10533 -6.13694 -6.45771
H -4.34163 -6.24786 -7.42303
H -3.34968 -6.74991 -6.22697
O -6.14207 -1.61965 -14.5425
H -5.54937 -1.20355 -13.8529
H -5.77939 -2.51627 -14.7966
O 14.8632 -1.43295 -1.0563
H 14.5667 -0.551693 -0.688183
H 14.1989 -2.13815 -0.808374
O 3.99861 2.00363 12.9126
H 4.0815 2.45724 13.7999
H 3.47948 2.5865 12.2875
O 11.0123 7.96287 8.72464
H 11.1111 7.64187 9.66655
H 10.9627 7.17707 8.10817
O 5.06123 0.47507 -6.18853
H 4.56222 1.03994 -5.53133
H 5.97225 0.272161 -5.82956
O -12.5852 -10.2815 -10.4364
H -12.6623 -9.42996 -9.91789
H -11.634 -10.59 -10.431
O 13.3263 13.4155 -1.87534
H 13.0332 13.0862 -0.977738
H 14.3235 13.3729 -1.93667
O -3.0534 5.69611 -5.70756
H -3.71312 5.14811 -5.19332
H -3.25893 5.6352 -6.68431
O 6.30037 2.99012 8.00395
H 6.71712 2.35237 8.65171
H 5.7161 2.48543 7.36841
O 12.8945 7.83829 14.2032
H 13.6294 8.45443 14.4865
H 12.3511 8.27505 13.4863
O -14.7177 -10.0821 2.13396
H 14.3197 -10.0161 1.4356
H -13.8848 -9.63857 1.80312
O -6.87126 9.29265 -6.28156
H -7.07668 9.58204 -7.21646
H -6.50493 8.36225 -6.29354
O 7.86337 -10.6488 8.533
H 8.13255 -11.2991 9.24332
H 6.98873 -10.2306 8.77812
O -11.9532 -14.6029 -7.15222
H -11.5617 -14.5844 -8.07221
H -11.7565 14.2653 -6.7239
O 13.3606 12.4762 3.73109
H 12.6567 12.1165 4.34363
H 14.2446 12.0714 3.96494
O -10.9145 6.96108 -9.27555
H -11.7613 6.44934 -9.13091
H -11.0779 7.69714 -9.93243
O 3.80518 4.11403 4.90725
H 3.89014 3.34857 5.54508
H 3.60417 4.95111 5.41605
O 1.93371 2.80684 -5.9618
H 1.63376 1.89807 -5.67171
H 2.71348 3.09384 -5.40541
O -7.26065 6.5765 5.55819
H -7.00246 5.61345 5.48168
H -7.66384 6.883 4.69593
O 6.66007 -5.03724 -11.7894
H 6.84195 -4.71348 -12.7179
H 6.58994 -6.03477 -11.792
O 3.71985 -13.8439 -2.76047
H 4.67741 -13.8242 -3.04799
H 3.20629 -13.1491 -3.26383
O 6.95279 12.9349 -11.7177
H 7.383 13.7756 -11.3888
H 7.02381 12.2272 -11.0149
O 2.30028 7.09998 -9.86012
H 1.38639 7.12272 -10.2654
H 2.37891 6.30418 -9.2597
O 14.4789 -14.5961 10.3054
H -14.3956 14.7664 10.0173
H 14.5773 -14.1887 11.2133
O -11.5544 3.70103 -3.22018
H -11.403 4.16485 -2.3473
H -10.8183 3.04335 -3.38025
O -0.481181 -9.47082 1.94971
H -1.41418 -9.35486 2.29036
H 0.07991 -8.69745 2.24476
O -3.46859 2.91989 -0.625809
H -3.48271 3.77585 -1.14263
H -3.00394 3.06553 0.247619
O 13.7867 10.2265 10.0027
H 13.2203 10.4397 9.20659
H 14.7495 10.3722 9.77538
O -1.34869 10.2995 -10.7
H -0.461036 9.88827 -10.9073
H -1.77381 10.6192 -11.5468
O 4.94566 -13.2304 -8.36308
H 5.03313 -14.2193 -8.48269
H 5.845 -12.8028 -8.45435
O -13.0207 -8.97345 10.1562
H -12.5973 -9.8769 10.0887
H -13.8895 -9.04821 10.6456
O -12.7648 4.19572 -10.624
H -11.8058 4.11186 -10.3536
H -13.2564 4.74002 -9.94419
O -13.2577 -0.0942886 -3.5226
H -13.7472 0.739937 -3.7765
H -13.5276 -0.371537 -2.6005
O -8.09248 10.4106 7.32636
H -8.93135 10.337 6.78704
H -8.26202 10.0768 8.25362
O 6.15167 -9.46801 10.3063
H 5.2488 -9.13899 10.583
H 6.52932 -10.0502 11.0263
O 7.49748 -5.6216 -6.91458
H 6.65933 -5.56457 -7.45701
H 8.21927 -6.04743 -7.46018
O 4.1729 -12.9647 4.14625
H 3.65449 -12.1825 3.80077
H 5.14069 -12.7213 4.21006
O -8.47809 13.485 1.07862
H -8.56937 13.0611 1.97967
H -8.76389 14.4419 1.13003
O -0.324287 7.47965 -13.6563
H -0.317014 6.70286 -14.286
H -1.25111 7.85002 -13.5946
O -10.2548 9.63023 5.9867
H -11.0569 10.0622 6.39911
H -10.3866 9.55788 4.99807
O -7.74899 -8.76948 1.99599
H -7.97718 -7.79608 2.01614
H -6.75501 -8.87892 1.99771
O 11.9477 -12.5829 0.892787
H 12.0666 -13.0708 0.0280247
H 12.1066 -13.2111 1.65446
O -7.41094 -11.6241 -12.5723
H -8.16947 -11.0256 -12.8299
H -7.02608 -12.0464 -13.393
O 2.80706 -5.48113 -12.2494
H 3.78192 -5.59487 -12.0579
H 2.56434 -4.51356 -12.1797
O 0.138266 3.45137 -1.15884
H 0.250322 3.01043 -0.268337
H -0.763639 3.88057 -1.20712
O -0.765644 -13.5916 9.6175
H -0.429901 -14.4908 9.33698
H -0.563204 -13.4475 10.5861
O -3.21086 11.446 10.1534
H -2.86622 10.8592 9.42063
H -2.90918 11.0878 11.0369
O 6.35701 -14.0852 -4.36512
H 6.27026 14.8513 -3.79023
H 7.12325 -13.5295 -4.0427
O -10.6728 -2.74796 -12.0886
H -9.81753 -2.45696 -12.5174
H -11.3696 -2.04349 -12.2231
O -4.72408 11.7198 -11.1068
H -5.02232 11.5884 -12.0522
H -4.48982 10.8345 -10.7051
O -9.2816 0.0665889 0.319429
H -9.02435 -0.724003 0.8751
H -9.35205 -0.208631 -0.639357
O -0.454833 -0.594204 13.1127
H -0.707726 -1.51153 12.8052
H 0.528062 -0.562623 13.2941
O 11.4394 -5.00985 -10.8131
H 11.5452 -4.28723 -10.13
H 10.5973 -5.51811 -10.6329
O -9.39095 0.244398 4.61767
H -9.49615 0.921064 5.34639
H -9.5854 -0.66753 4.979
O 3.7568 11.1966 -9.89433
H 4.62301 10.7983 -10.1961
H 3.28295 10.5499 -9.29659
O 0.257316 14.4466 -9.76218
H 0.447073 13.9309 -8.92668
H 0.921192 -14.5614 -9.85381
O 8.6841 -8.10461 10.5954
H 8.00839 -8.67775 10.1318
H 9.18472 -7.56547 9.91813
O -6.60694 8.67505 3.31275
H -7.52543 8.28087 3.34416
H -6.47792 9.28244 4.09659
O 14.5905 -3.27707 -10.5767
H 13.8909 -2.96517 -9.9338
H 14.5077 -4.26522 -10.7058
O -6.70265 -10.4814 -10.0821
H -6.25781 -11.075 -9.41146
H -7.01765 -11.0305 -10.8562
O -2.82183 11.0437 -8.25055
H -2.27311 11.0801 -9.08575
H -3.6393 11.6084 -8.36389
O -1.853 -8.81433 7.89888
H -2.31584 -9.04411 7.04275
H -1.97967 -9.55731 8.55609
O 7.50053 7.03956 -7.81459
H 8.22901 7.41257 -7.23999
H 7.46567 7.54351 -8.67761
O 10.9125 -2.14851 -3.37845
H 10.7439 -2.02401 -2.40066
H 11.3123 -3.05155 -3.53541
O -11.4463 -3.15536 0.86268
H -11.7609 -3.53777 -0.00609639
H -10.4507 -3.06369 0.845446
O -13.4188 10.6409 -3.63675
H -14.0586 10.7614 -4.39572
H -13.8009 9.99249 -2.97833
O 3.95263 -13.6034 -11.9016
H 4.57218 -13.6592 -12.6846
H 4.15109 -14.3492 -11.2657
O 12.4734 -1.44012 6.3758
H 12.3645 -0.609388 6.92169
H 12.9234 -1.21454 5.51172
O 5.75272 10.4399 -1.31725
H 5.16488 10.0629 -2.03303
H 6.69245 10.129 -1.45966
O -0.346861 11.0507 -4.78096
H -0.613544 10.5102 -3.98304
H -0.20938 10.4439 -5.56381
O 7.84553 -11.8809 -14.3021
H 7.86897 -11.1114 -13.6639
H 7.63182 -11.5463 14.5302
O 5.69461 -5.40247 10.5798
H 5.23996 -4.52595 10.4218
H 5.03744 -6.14595 10.4559
O -13.9151 9.47933 12.2692
H -13.1338 9.876 11.7873
H -14.448 8.91878 11.6354
O -4.09035 -1.86526 -1.97097
H -3.5328 -1.06482 -2.19098
H -5.05803 -1.63714 -2.07837
O 3.76968 -10.4681 11.3462
H 2.88502 -10.3941 10.8859
H 4.20223 -11.3353 11.0995
O -4.54114 -10.1143 2.06351
H -4.36309 -10.7588 1.31988
H -4.52483 -9.18043 1.70631
O -13.8307 4.26626 8.82176
H -14.6378 3.69093 8.68932
H -13.4884 4.57008 7.93265
O -14.4071 6.25518 -0.706248
H 14.7493 6.50691 -1.47046
H -13.5297 5.92992 -1.05896
O 12.1298 9.56229 4.28066
H 12.7985 9.17002 4.91237
H 11.2331 9.59448 4.72211
O 7.82111 -0.32475 -1.17849
H 8.25986 -0.709763 -1.99043
H 8.0364 -0.891216 -0.383032
O 1.70306 -2.87958 -11.7146
H 1.50209 -2.81026 -12.6917
H 2.0936 -2.01714 -11.3926
O 5.04634 13.5891 1.9228
H 4.28318 13.991 2.4288
H 4.70543 12.8608 1.32845
O 13.1409 -10.7572 11.7198
H 13.4672 -9.81804 11.8265
H 13.6242 -11.3529 12.3613
O -9.01391 13.1025 -1.73021
H -8.90069 13.2046 -0.741912
H -9.76864 12.4733 -1.91596
O -2.40202 -13.9275 5.71977
H -3.3712 -14.031 5.49621
H -1.8571 -14.0069 4.88505
O 1.05525 -7.12994 1.89966
H 0.735033 -6.83506 0.999387
H 0.98339 -6.36915 2.54465
O -12.127 -9.96588 -13.6139
H -12.5473 -9.23262 -14.1484
H -12.6873 -10.1537 -12.8073
O -14.3679 12.5302 6.10014
H -14.0859 13.4603 6.33531
H 14.4208 12.4018 6.34355
O -11.428 11.2825 12.2126
H -12.1775 11.877 12.5036
H -10.6089 11.8332 12.0518
O 13.5099 -6.34863 -9.75614
H 13.255 -7.28507 -9.5152
H 12.7506 -5.90944 -10.2362
O -2.44157 7.8045 -9.91358
H -3.41215 7.96718 -10.0911
H -2.0076 8.65836 -9.62619
O -4.54604 -0.712693 -12.5248
H -3.77606 -0.881788 -11.9095
H -4.89586 0.211994 -12.3746
O 8.3133 6.23456 -13.6316
H 9.2979 6.35137 -13.7616
H 7.88862 5.99041 -14.5034
O 12.4742 11.5211 11.7541
H 13.097 10.9002 11.2781
H 11.661 11.018 12.0466
O -3.61467 -11.5508 14.7526
H -4.43244 -11.957 14.3449
H -3.80054 -11.3129 -14.0442
O -13.2703 8.38476 4.68582
H -14.0081 7.75404 4.92628
H -12.9899 8.89524 5.49872
O -5.42485 6.46937 2.61698
H -5.69171 7.30155 3.10302
H -6.23593 5.91156 2.44097
O -10.5948 -9.74616 12.9613
H -11.275 -10.364 12.5669
H -10.8254 -8.80215 12.7253
O 4.49002 7.0137 -11.2607
H 3.53165 7.14006 -11.0047
H 4.78714 6.0959 -10.9974
O 7.85235 -2.60675 10.5864
H 7.76239 -3.60085 10.5261
H 8.81418 -2.36645 10.7173
O 3.89835 10.7173 8.92823
H 4.51423 11.1938 9.5556
H 3.26672 11.3748 8.51757
O -10.8754 11.7016 9.23585
H -10.6076 12.4948 8.68905
H -10.0573 11.2048 9.52546
O -13.9364 -5.98382 4.15943
H -13.0967 -6.29644 4.60356
H -14.5718 -6.75082 4.07041
O 14.7569 -4.5298 0.683698
H 14.5145 -5.49564 0.592152
H -14.1409 -4.35202 0.191861
O -13.4096 3.55646 11.4918
H -13.6615 3.69591 10.5341
H -14.2234 3.30956 12.0179
O -7.56497 14.6547 -5.90539
H -8.33463 14.2795 -5.38885
H -6.78603 14.0307 -5.84332
O 1.1144 -0.188865 -13.2564
H 0.246142 -0.68493 -13.2511
H 1.16263 0.407201 -12.4549
O 7.64748 -7.55202 1.39829
H 7.23775 -7.09378 2.18703
H 6.92536 -7.85305 0.775475
O 5.66479 6.42478 1.07679
H 5.08729 6.651 0.292377
H 6.36361 7.1309 1.19087
O -8.63611 10.9815 13.5571
H -8.48222 11.7855 12.9827
H -9.31777 11.1969 14.2563
O 4.87576 -0.847548 1.78194
H 4.85331 -1.54174 2.50136
H 5.41667 -1.18384 1.01102
O -1.08274 -6.19058 8.10513
H -1.85378 -5.75112 7.64431
H -1.30414 -7.14906 8.28481
O -5.69503 1.7365 6.77316
H -5.70805 2.05637 7.72052
H -6.0363 2.45952 6.17252
O -13.3162 -12.7021 -0.148013
H -13.9336 -13.2691 0.39722
H -13.7697 -11.8408 -0.37712
O -12.6614 -0.640362 11.0006
H -12.4838 -1.16668 11.8321
H -13.5517 -0.899384 10.6259
O 8.94942 2.47275 14.6161
H 9.20461 1.50696 14.6619
H 8.71921 2.71236 13.6729
O 7.23818 5.39256 13.669
H 7.51392 4.44948 13.4831
H 7.31884 5.93446 12.8325
O -2.38528 -7.90596 -5.56811
H -1.60367 -7.70261 -4.97844
H -2.10389 -8.54128 -6.28725
O 4.6022 -10.9037 1.68862
H 4.36583 -11.6 1.01087
H 3.85247 -10.8079 2.34336
O -6.69924 8.26562 -13.0034
H -6.55177 8.9192 -13.7458
H -6.99923 7.39094 -13.3841
O 1.1692 1.63211 0.842334
H 1.56761 0.735013 0.651372
H 1.74001 2.11595 1.5057
O -13.6826 -0.583078 -8.51566
H -13.6735 -0.14339 -7.61757
H -14.6058 -0.541892 -8.89769
O 14.3833 1.51722 -3.6566
H 13.9041 0.761364 -4.10278
H 13.8215 1.87355 -2.90997
O 5.75507 6.07841 -3.84336
H 5.61296 6.04273 -4.83256
H 6.35319 5.32682 -3.56523
O 0.0822872 -9.40729 -1.16107
H 0.512576 -9.17676 -0.288316
H -0.591851 -10.1321 -1.01915
O -7.73647 -3.77603 12.2208
H -6.87979 -3.36243 12.529
H -8.21304 -4.17764 13.0028
O 2.65511 4.36647 -1.42279
H 2.79866 4.17592 -2.39391
H 1.69135 4.22788 -1.19484
O -12.4643 1.69671 -14.8046
H -12.251 1.42576 14.0069
H -13.1058 2.46376 -14.8167
O 12.3634 -8.45358 8.53945
H 13.2758 -8.67849 8.19767
H 12.4319 -7.71823 9.21366
O -2.95375 -5.35927 -14.4464
H -3.7034 -5.25111 -13.7935
H -3.1396 -6.14177 14.7095
O -14.6667 -11.7205 -9.29746
H 14.1741 -11.3456 -9.47809
H -14.0114 -11.3323 -9.94535
O 11.3821 14.7797 5.46849
H 11.9033 -14.2444 5.91705
H 11.7154 13.8895 5.77902
O 8.08042 3.55893 -12.9168
H 8.15619 4.53525 -13.1194
H 8.27852 3.03081 -13.7426
O -2.47396 12.2236 1.174
H -3.18382 11.8773 1.78729
H -2.40848 13.2171 1.26736
O -2.93718 1.42933 -14.3776
H -3.86171 1.64827 -14.0657
H -2.98801 0.824705 14.5777
O -12.3488 -14.3578 14.7144
H -12.6545 -13.4495 14.429
H -12.6727 -14.5422 -14.1078
O 13.7973 -5.81218 -7.28513
H 14.7268 -5.85097 -6.91844
H 13.8195 -5.98857 -8.26919
O 6.80728 -7.95801 -10.8099
H 6.56729 -8.65574 -10.135
H 7.27928 -8.38743 -11.5798
O 10.3995 2.66938 -3.90527
H 9.5751 2.10372 -3.88614
H 10.963 2.4644 -3.10501
O -13.589 -6.07786 12.9009
H -13.5027 -5.46061 12.1189
H -13.3027 -5.60337 13.7332
O 11.2518 5.79958 -8.73876
H 11.3086 6.29389 -9.60618
H 11.6302 4.88104 -8.85317
O 1.85373 -1.37466 1.02341
H 2.71049 -1.45647 1.53257
H 1.09135 -1.29095 1.66508
O 8.60476 4.66874 -8.68315
H 7.9984 5.42741 -8.44496
H 9.55597 4.97224 -8.62764
O -9.72384 0.807939 -13.3562
H -9.24035 1.5189 -13.8668
H -10.7101 0.929621 -13.4678
O -2.66653 -9.67546 10.9388
H -1.68593 -9.86614 10.8936
H -2.92194 -9.46471 11.8824
O 8.52981 10.4108 -2.592
H 9.49251 10.6022 -2.78321
H 8.15344 9.83629 -3.31883
O 12.6087 12.1444 6.42022
H 12.4422 11.1705 6.26589
H 12.0805 12.4515 7.21191
O -3.406 1.28507 12.5383
H -3.84117 1.87622 11.8592
H -2.52845 1.67983 12.8104
O -1.74005 1.7991 3.25054
H -0.907437 1.87661 2.70215
H -1.55488 1.24325 4.06092
O 2.6856 -10.7974 -6.52263
H 2.39591 -10.4119 -5.64658
H 3.43375 -11.4435 -6.37141
O 7.03042 8.90837 -4.24012
H 6.4302 9.68802 -4.41864
H 6.4827 8.12869 -3.93666
O 9.02944 -5.89448 -9.62172
H 9.07281 -4.90506 -9.48331
H 8.0911 -6.1591 -9.84418
O -10.1756 1.42392 -3.87567
H -10.1419 0.623461 -3.27725
H -9.99588 1.1431 -4.81843
O -5.55434 11.5802 -2.0116
H -6.01203 12.4693 -2.00173
H -5.18086 11.4077 -2.92305
O -3.43772 9.09271 8.46927
H -2.86458 9.02493 7.65263
H -4.25473 8.52839 8.35085
O 12.5631 3.34661 -10.1089
H 11.6836 3.07816 -9.71591
H 13.3032 2.90056 -9.60556
O 2.69603 -0.877887 -10.3758
H 3.57636 -0.63001 -9.97134
H 1.95616 -0.480365 -9.83302
O 0.677679 14.7133 5.71833
H -0.00154935 14.6636 6.45056
H 0.22047 14.627 4.83318
O 6.9333 -10.1578 -7.26866
H 6.19193 -10.1383 -7.93947
H 7.68445 -9.57844 -7.58508
O -10.4963 -2.30395 10.0451
H -9.75527 -2.14948 10.6985
H -11.2851 -1.74327 10.297
O 13.113 14.8145 -6.26652
H 13.7943 -14.2786 -6.58898
H 12.6612 14.3905 -7.05146
O -2.29072 -9.17587 -10.1835
H -2.96237 -9.64705 -10.7553
H -1.90002 -8.40851 -10.692
O 2.08353 -0.0942953 13.8568
H 2.76482 0.636421 13.8135
H 1.86255 -0.287665 14.8127
O -10.1901 -2.21904 -9.28069
H -10.9938 -2.12097 -8.69388
H -10.4769 -2.5132 -10.1924
O -11.67 7.22988 8.58548
H -11.8656 6.61777 9.35167
H -10.7402 7.06531 8.25631
O 6.66418 14.4281 -0.11871
H 6.3063 13.886 0.641563
H 7.6588 14.496 -0.0405505
O 6.73457 13.89 14.828
H 6.10309 14.6592 14.7303
H 6.38753 13.2601 -14.2274
O 14.463 -10.929 14.4524
H 13.8123 -10.8941 -14.5392
H 14.8702 -10.0252 14.3208
O -7.59106 5.49492 -14.2494
H -7.97504 5.50281 14.5774
H -8.28586 5.18143 -13.6021
O -12.3394 -13.6364 9.41958
H -12.1292 -14.5583 9.74506
H -12.2514 -13.6063 8.42392
O 4.84525 -1.95909 -12.4383
H 5.27772 -1.11244 -12.7484
H 4.13662 -1.74463 -11.7662
O 5.25821 -5.95909 13.7481
H 6.10368 -5.73353 14.2321
H 5.21974 -5.44892 12.8889
O 1.7166 -1.2816 6.6993
H 1.24244 -2.01924 6.21863
H 1.93961 -1.57821 7.62789
O 0.253296 0.0053605 -8.69319
H -0.0752917 0.181214 -7.76524
H -0.12502 -0.859792 -9.02238
O -9.27856 -13.6571 2.21178
H -9.23425 -12.9582 1.498
H -10.2231 -13.7535 2.52578
O -1.29866 -0.362083 10.089
H -1.53051 -0.686473 11.0061
H -2.07316 0.143207 9.70849
O -6.48326 14.3129 -2.06169
H -7.39952 13.9616 -2.25416
H -6.5257 -14.4459 -1.9373
O 7.40999 7.86342 8.49581
H 7.66512 8.81953 8.35181
H 8.08401 7.26892 8.05735
O 0.204826 -10.4284 6.54227
H 0.0312489 -9.5914 7.06115
H -0.468579 -11.1231 6.7952
O 5.37627 1.91305 1.99866
H 5.0825 0.970261 2.15626
H 4.60476 2.44992 1.65729
O -8.63912 -14.868 10.0415
H -7.9727 14.283 9.59782
H -9.46508 -14.8149 9.48026
O -0.547413 -2.24304 -9.9964
H -1.02134 -3.05214 -9.64893
H 0.263706 -2.52602 -10.5082
O -12.5137 -10.7471 7.08693
H -11.7494 -10.5624 7.70484
H -12.1769 -10.8001 6.14684
O -7.38792 -0.449361 -7.35408
H -6.61607 0.17717 -7.46219
H -7.27783 -1.22435 -7.97639
O 5.23173 6.58441 6.81852
H 4.57892 7.08482 6.24981
H 5.25613 6.98908 7.73265
O -0.453665 -12.28 -11.8334
H 0.079951 -13.0081 -12.2637
H -0.980928 -11.7959 -12.5317
O -0.214798 13.5035 8.75082
H -0.787715 13.0527 8.06634
H -0.272836 13.0041 9.61525
O -5.06977 4.52213 -13.259
H -4.39964 4.80866 -13.9437
H -5.98823 4.76935 -13.5677
O -8.80659 9.94978 9.96138
H -9.08984 9.21366 10.5761
H -7.80819 10.0033 9.94328
O -6.10689 8.01651 7.65343
H -6.18484 7.56587 6.76415
H -6.64583 8.85883 7.64863
O -13.4272 13.3036 3.22035
H -13.0175 14.1767 3.48446
H -13.7856 12.8442 4.03305
O -3.30056 4.9337 13.3012
H -3.72054 4.51846 12.4943
H -2.40115 4.52509 13.4564
O 8.37159 13.2962 12.662
H 7.68314 13.6303 13.3058
H 8.17851 12.3421 12.4329
O 13.756 -3.02942 14.1612
H 13.2261 -3.06742 -14.7417
H 14.731 -2.98661 14.3796
O 11.7436 -12.3413 -7.82396
H 11.4583 -11.9699 -8.70749
H 11.1168 -13.071 -7.55106
O -1.46031 -9.98617 -7.47161
H -1.92335 -9.60394 -8.27128
H -0.484777 -10.0861 -7.66741
O 14.4131 3.53668 1.17465
H 13.8453 3.07118 1.85356
H -14.6376 4.07882 1.64034
O 12.7603 -12.8729 6.42169
H 12.7503 -12.4641 7.33423
H 13.0016 -12.1757 5.74671
O 2.93591 -10.5805 6.91452
H 3.34962 -11.4902 6.87939
H 1.9636 -10.6477 6.69073
O -5.49856 -7.58082 11.6695
H -6.30918 -7.92463 12.1435
H -5.5895 -7.74997 10.6881
O 1.3089 -9.17327 -8.04443
H 2.01294 -9.68471 -7.55176
H 1.03338 -9.68483 -8.85829
O 1.02682 9.95896 -14.0167
H 1.60243 10.4833 -13.3892
H 0.728476 9.11572 -13.5696
O 2.21035 9.70404 5.70866
H 1.69255 9.75854 6.56242
H 1.99181 10.4937 5.13533
O -6.65039 -7.81026 -10.9546
H -7.15856 -7.80202 -11.8158
H -6.71765 -8.71618 -10.5365
O 9.22311 9.73273 10.1734
H 9.30353 10.3422 9.38471
H 9.58433 8.831 9.93596
O -6.34685 9.3846 14.379
H -6.8494 10.0421 13.8176
H -6.35832 8.48905 13.9343
O 12.0342 7.39231 -6.68476
H 11.6705 6.91764 -7.48625
H 12.5898 8.16912 -6.98109
O 0.947191 8.62436 11.6719
H 0.24608 7.98548 11.9885
H 1.80271 8.44856 12.1589
O -2.87321 0.39875 6.5057
H -3.16376 0.512619 7.45575
H -3.63973 0.601072 5.8962
O 1.37785 -6.0839 -9.92703
H 1.98729 -6.35897 -9.18346
H 1.92187 -5.81919 -10.7232
O -1.95056 -0.58706 -11.5701
H -1.36092 -1.26954 -11.1382
H -2.24319 0.0812641 -10.8862
O -13.5761 -3.32894 -14.1827
H -13.424 -2.69326 -13.4259
H -13.2402 -4.23596 -13.9288
O 11.8027 -4.77602 -3.34858
H 11.0052 -5.37725 -3.39848
H 12.257 -4.89753 -2.46609
O 14.3506 6.4049 -12.9103
H 13.9402 7.31623 -12.9418
H -14.4091 6.48125 -13.0254
O 14.2972 -1.0305 3.95494
H 14.8518 -0.28871 4.33203
H -14.8626 -1.80413 3.72474
O -6.06092 1.81912 -1.49887
H -5.17811 2.25284 -1.31854
H -6.27835 1.18478 -0.757033
O -14.4574 5.48151 3.2694
H -14.2568 6.20629 2.61029
H 14.7527 5.85638 4.02293
O -0.141726 -7.28681 5.60658
H -0.469875 -6.97988 6.49994
H -0.587031 -8.14932 5.36625
O -3.04934 14.4404 -14.5014
H -3.20938 14.3563 -13.5179
H -2.24316 -14.7399 -14.6604
O 9.44114 -12.1902 10.5311
H 9.44021 -13.1778 10.6879
H 10.1657 -11.9564 9.88272
O -7.0634 7.7805 -3.09462
H -7.03369 6.83179 -3.40931
H -7.73499 8.28941 -3.63311
O -5.2304 1.34007 -7.81448
H -5.49176 2.26231 -8.09934
H -4.48357 1.01169 -8.39275
O -10.3957 4.30755 5.88444
H -10.179 4.26505 4.90915
H -11.3858 4.38302 6.00288
O -10.5083 -7.98628 -4.79031
H -9.63637 -8.25395 -4.38036
H -10.9882 -8.80136 -5.11481
O 0.97957 -3.60762 -0.677986
H 0.241159 -2.95778 -0.497894
H 1.65734 -3.5536 0.0552921
O -7.59948 14.3312 -13.6365
H -8.41307 14.7195 -14.0692
H -6.85788 14.2812 -14.3055
O -7.85161 -8.55755 -3.81813
H -7.79408 -9.08989 -4.66269
H -6.99375 -8.06362 -3.67638
O -3.28846 4.0406 -11.2119
H -2.35145 4.12955 -11.5496
H -3.92076 4.44496 -11.8727
O -3.37755 1.33736 9.06349
H -4.18085 1.40358 9.65536
H -3.22034 2.21734 8.61526
O 3.67512 -8.77667 -3.09679
H 4.62864 -8.99004 -2.88407
H 3.59871 -7.81366 -3.35517
O -9.19429 5.13183 13.2549
H -10.0337 5.56791 13.5792
H -9.29968 4.13805 13.2907
O -6.72809 0.279084 4.12287
H -6.46853 1.02916 4.73115
H -7.71184 0.115424 4.19651
O 0.265171 0.435539 5.04423
H 0.568934 -0.00884738 5.88698
H 0.802454 1.26518 4.89254
O -8.38011 -5.9778 0.362413
H -8.17104 -5.49965 -0.490606
H -8.67017 -6.91271 0.158004
O 8.96227 -8.57922 -7.99269
H 9.29918 -7.81047 -8.5363
H 9.14109 -8.40626 -7.02414
O 14.7536 -9.52947 7.6775
H 14.4268 -10.3631 8.12271
H -14.0111 -9.43913 7.82143
O 7.34037 2.64723 -10.5274
H 7.71786 3.20296 -9.78673
H 7.55387 3.07383 -11.4063
O 8.76139 8.89389 14.6256
H 8.56777 8.13608 -14.5014
H 8.40443 9.74372 -14.7368
O -9.87085 -13.2405 -2.46525
H -10.4693 -13.9486 -2.09029
H -9.39149 -13.5991 -3.26625
O -9.70531 -1.40357 13.6284
H -9.40341 -1.27672 14.5733
H -9.21776 -0.764059 13.034
O 11.1403 -10.8578 9.00746
H 11.5384 -9.98337 9.28454
H 10.9585 -10.8447 8.02421
O 1.09235 0.335837 -5.17878
H 0.482944 0.298204 -4.38683
H 1.09814 -0.552756 -5.63742
O -3.72912 -5.06877 10.9015
H -2.74963 -5.18004 10.7336
H -4.15062 -5.96738 11.0232
O 4.85579 -9.72391 -9.31408
H 3.88356 -9.78033 -9.08702
H 5.03281 -10.2398 -10.1523
O 9.10003 7.57682 -5.78208
H 8.75282 8.12073 -5.01815
H 10.0983 7.63102 -5.80325
O -0.646591 -5.55049 -13.1563
H -1.50157 -5.53527 -13.6748
H -0.185027 -4.66821 -13.2487
O -2.83944 2.03119 -4.84839
H -2.23019 2.77001 -5.13637
H -3.7288 2.14039 -5.29236
O -2.17861 5.19537 -1.67642
H -3.10345 5.36178 -2.01842
H -1.52884 5.2448 -2.43493
O -4.7245 14.8173 4.602
H -5.07192 -13.998 4.67471
H -4.7993 14.5066 3.65442
O 12.1855 2.21979 2.26073
H 11.356 2.3966 1.73094
H 11.9889 2.33108 3.23486
O 8.35512 7.65318 -10.6574
H 9.29501 7.72671 -10.9908
H 7.76031 7.34906 -11.4015
O 11.2871 -4.82039 3.31404
H 11.4999 -4.34819 4.16944
H 11.4956 -5.7937 3.40978
O -11.7905 -12.1069 1.99672
H -12.1071 -12.4065 1.09673
H -10.9919 -11.5147 1.88904
O -10.2873 -5.67178 -11.4556
H -10.6496 -4.74066 -11.4141
H -9.81089 -5.88238 -10.602
O -7.82096 -8.55069 12.7394
H -7.85225 -9.33709 12.1225
H -8.74978 -8.31254 13.0232
O 7.79459 -4.79085 9.02701
H 6.92358 -5.12993 9.38247
H 7.75295 -4.74728 8.02884
O -0.935981 -6.99675 -10.8786
H -0.145228 -6.81456 -10.2942
H -0.80901 -6.54495 -11.7616
O 7.12288 12.9061 -5.57936
H 6.22324 13.263 -5.83081
H 7.14376 12.7164 -4.59775
O 0.0581449 -4.3035 -7.16052
H -0.549354 -4.54264 -7.91797
H 0.59109 -5.10668 -6.89434
O -9.43627 -5.39886 6.48831
H -9.91039 -6.15905 6.04411
H -9.91049 -5.15974 7.33561
O 1.24758 14.8569 -13.2737
H 2.22244 -14.7845 -13.0792
H 0.916378 14.0115 -12.8548
O -7.91237 7.40581 -9.21158
H -8.3799 7.58712 -10.0768
H -8.51583 7.64341 -8.45043
O 2.59801 -3.00238 -8.18337
H 2.28559 -2.22875 -7.63214
H 1.88355 -3.70147 -8.21182
O -5.66765 -5.34685 4.09174
H -5.6216 -5.50584 3.10554
H -4.89289 -4.78148 4.37474
O -11.5801 6.11716 14.0021
H -11.5458 7.116 14.0357
H -12.3713 5.7932 14.5208
O -11.5984 -11.0773 4.6041
H -10.7568 -10.5687 4.42215
H -12.2612 -10.8957 3.87765
O 2.29972 -9.52375 -12.0171
H 1.67075 -9.95993 -11.3736
H 1.89126 -8.67835 -12.3613
O 0.322238 5.71742 3.02978
H 1.13895 6.17476 2.67792
H -0.406437 5.76423 2.34653
O -10.7073 10.9705 -7.58683
H -11.1559 10.334 -6.95949
H -9.71549 10.8626 -7.51832
O 3.68644 -7.20001 0.645149
H 3.90005 -6.23884 0.470475
H 2.74545 -7.2778 0.974507
O 6.38229 -9.01729 5.47038
H 6.17531 -9.8698 4.99041
H 7.20469 -9.13887 6.02612
O 10.4666 -1.14349 -8.31448
H 9.74217 -1.50048 -7.72478
H 10.1732 -0.275256 -8.71455
O -3.22642 -11.656 -5.70013
H -2.85228 -11.1121 -6.45122
H -2.82289 -12.5708 -5.71782
O -13.0212 10.2733 6.62627
H -13.1844 9.94523 7.55671
H -13.4801 11.1524 6.49755
O 3.61545 8.1288 8.32271
H 2.69153 7.8228 8.55231
H 3.69741 9.10836 8.50634
O 5.67257 9.38215 -12.2801
H 6.1908 9.7898 -11.5282
H 5.39697 8.45395 -12.0301
O -8.51074 -7.1484 -13.1337
H -9.04074 -6.4764 -12.6165
H -7.79342 -6.681 -13.6504
O -14.3329 -12.2702 -4.58582
H -14.2418 -12.5411 -5.54407
H -14.0973 -13.0433 -3.99695
O -5.60532 2.84513 -5.40111
H -6.52874 2.81665 -5.0184
H -5.54377 2.2097 -6.1708
O 10.0399 -1.98203 4.09112
H 10.8587 -1.6746 3.60629
H 9.29247 -1.33905 3.92406
O -2.53314 8.28218 -12.7942
H -2.95577 8.43341 -11.9006
H -3.2467 8.17431 -13.4864
O -0.694373 6.79687 12.3727
H -0.968727 6.24034 11.5885
H -0.367075 6.20103 13.1061
O -9.76653 7.60292 -6.7838
H -9.89671 7.07242 -5.94618
H -10.401 7.27891 -7.48554
O -7.44237 4.54775 2.38184
H -8.35429 4.83797 2.67194
H -7.4701 3.58658 2.10731
O 13.1022 9.39211 7.45991
H 13.9225 8.83179 7.57459
H 12.3684 9.03034 8.0349
O -7.97349 2.72199 -10.8391
H -7.31946 2.21648 -11.4018
H -8.50866 2.07901 -10.2912
O 7.01217 -3.90583 3.18817
H 6.77878 -4.87276 3.29087
H 7.83237 -3.81916 2.62271
O 4.74735 10.4318 -4.65411
H 4.26957 9.81394 -4.02961
H 4.10856 11.1223 -4.9934
O 0.198463 -3.17976 -13.9498
H -0.631088 -2.62256 -13.9129
H 0.331502 -3.51826 14.8688
O -10.0456 -7.53044 14.3732
H -9.43167 -7.31283 -14.6182
H -10.3273 -8.48785 14.4364
O 2.18309 -12.4095 -14.7944
H 1.55429 -11.7005 -14.4752
H 2.26625 -13.1203 -14.096
O 12.8664 14.2221 -11.9188
H 12.7037 14.7421 -12.7573
H 13.6542 14.6051 -11.4365
O 10.19 10.4587 -11.8699
H 11.1145 10.7016 -11.5762
H 10.1135 10.5748 -12.8601
O 11.5521 10.6951 -14.5481
H 11.7367 11.6667 -14.6961
H 11.518 10.2243 14.3205
O -5.9831 12.4747 12.1114
H -6.27104 11.9191 11.3314
H -5.06473 12.8333 11.9442
O 2.9897 6.27461 2.48987
H 3.90504 6.1302 2.11398
H 2.75157 7.24363 2.42442
O -0.582969 3.57028 -5.76433
H 0.360827 3.44715 -5.45762
H -0.649589 3.34524 -6.73638
O 2.54397 11.3611 -12.3852
H 1.69071 11.8263 -12.1496
H 3.1017 11.251 -11.5625
O 3.44514 13.0228 5.00724
H 3.29537 13.8487 4.46363
H 2.93577 12.2621 4.60499
O 11.1292 5.35709 1.40907
H 11.3971 6.28766 1.65855
H 10.7018 4.91113 2.19547
O 10.4112 14.8277 12.2775
H 9.57144 14.3009 12.4087
H 10.8237 14.5841 11.3997
O 10.8088 1.00307 0.0409065
H 10.3908 0.23185 -0.439244
H 10.0917 1.60398 0.394023
O 0.790639 12.7642 -7.47864
H 0.175496 11.9899 -7.62669
H 0.433948 13.3369 -6.74051
O 4.03124 1.83615 -8.19824
H 4.66994 1.2913 -7.65493
H 3.14129 1.85885 -7.74275
O 7.40359 -11.3427 12.312
H 8.28937 -11.3695 11.8487
H 7.03087 -12.2687 12.3724
O -6.60649 -3.97341 -6.087
H -5.91821 -4.65737 -6.32876
H -7.32484 -4.40251 -5.53945
O 12.2191 -6.95044 10.7415
H 11.3188 -6.75481 10.3526
H 12.4796 -6.21409 11.366
O 4.4372 -10.1202 -13.5729
H 3.60651 -10.0222 -13.0248
H 4.21898 -9.97469 -14.5379
O -14.7488 -3.04334 6.37946
H 14.6304 -3.88428 5.98545
H 14.3312 -2.30717 6.28503
O -10.2594 14.1224 7.70353
H -9.90638 14.1122 6.76799
H -10.8841 -14.855 7.81568
O 1.25749 -13.0783 12.4668
H 1.95637 -13.1883 11.7601
H 1.68337 -12.7439 13.3075
O 1.08549 -4.53235 8.13435
H 0.121508 -4.77028 8.01559
H 1.16112 -3.74016 8.73991
O 11.6359 5.00606 -5.09524
H 10.9465 4.33679 -4.81812
H 11.4294 5.33529 -6.01662
O 14.2195 6.61453 5.38678
H 14.5196 6.75401 6.33044
H 13.2781 6.27745 5.38273
O -12.3477 8.95523 -13.5676
H -11.6676 8.78997 -14.2818
H -13.2199 9.20372 -13.9889
O -5.95818 7.50899 12.3422
H -6.91915 7.23275 12.3275
H -5.41638 6.85897 11.8093
O 14.3784 -7.16177 -0.25032
H 13.7645 -7.89049 0.0529766
H 14.5481 -7.25562 -1.23134
O 7.80229 -0.162605 6.00133