2593
Atoms. Timestep: 18495000
O -5.01572 -6.80408 1.46857
H -4.93014 -7.78002 1.66914
H -4.43347 -6.5716 0.689509
O -2.12082 -10.249 -8.65293
H -1.70789 -10.0716 -9.54625
H -1.95093 -11.1987 -8.38988
O -13.9245 0.828802 7.52096
H -12.9741 0.830489 7.83201
H -13.9933 0.320583 6.66249
O -3.14753 1.51851 -4.31279
H -3.04207 1.03848 -3.44189
H -3.61794 2.38755 -4.15955
O -2.54624 -6.08698 6.21903
H -2.86715 -5.44251 6.91307
H -2.93664 -6.99026 6.39704
O 13.222 13.9599 -8.20123
H 12.9381 13.0952 -8.61552
H 12.6996 14.1153 -7.36285
O -7.62741 9.7972 -11.2662
H -7.37148 9.50649 -10.3443
H -7.83291 10.7758 -11.2621
O 6.41704 -9.89387 -4.05088
H 6.5347 -8.91919 -3.86068
H 7.31388 -10.3237 -4.15537
O -6.80477 -10.7296 3.73497
H -6.77257 -11.1434 4.6448
H -7.23054 -11.3678 3.0935
O -11.6667 -6.43309 12.2489
H -12.2377 -6.95081 11.6117
H -12.0728 -6.46542 13.1621
O 6.01141 -14.5244 -6.04567
H 6.78019 14.8558 -6.45634
H 5.17095 -14.7497 -6.53851
O 9.89414 8.77471 -14.1769
H 9.64162 9.7327 -14.0409
H 9.10185 8.19217 -13.9954
O 3.38319 11.917 -13.6035
H 4.30491 12.149 -13.9144
H 2.7173 12.2021 -14.293
O 3.07904 -6.1251 12.1215
H 3.55435 -5.3361 11.7322
H 2.22636 -6.28006 11.6225
O -14.6066 1.19758 10.5427
H 14.7905 0.458227 11.0215
H -14.3882 0.905517 9.61158
O -14.4224 12.5672 1.28662
H -14.1213 12.7061 2.23004
H -14.8764 13.3948 0.956362
O 14.5435 3.42149 -13.9329
H 13.8804 4.12985 -14.175
H -14.5061 3.84882 -13.5542
O -11.1766 -9.17379 -1.95659
H -10.595 -9.89895 -2.32513
H -11.7171 -9.53408 -1.19626
O 3.50644 14.2745 4.26987
H 3.68292 -14.7296 4.73684
H 2.65434 14.343 3.75098
O 8.51513 6.01447 -14.8607
H 8.70601 5.70813 -13.9281
H 7.62341 5.66636 14.7206
O 13.6377 -9.99283 -11.6041
H 13.9437 -10.7584 -11.0382
H 14.431 -9.46665 -11.9103
O -10.6214 -1.97808 4.21054
H -10.7611 -1.78825 3.2387
H -9.85073 -2.6058 4.32015
O 6.50033 10.4967 14.5362
H 6.23567 9.74881 -14.7255
H 6.06279 10.3722 13.6457
O 2.22238 9.76741 -4.78284
H 3.19019 9.52939 -4.86475
H 1.93797 10.2883 -5.58768
O -8.75087 6.02296 3.0494
H -8.45722 6.83871 2.55106
H -8.60722 5.21422 2.47904
O 7.37083 -13.6542 10.619
H 7.08137 -14.1551 11.4347
H 7.43515 -14.2852 9.84576
O -13.302 11.9092 -9.99737
H -13.3352 11.2059 -10.7075
H -13.7893 12.7239 -10.3119
O -10.2001 0.6187 9.33075
H -9.75239 0.422723 8.4583
H -10.8112 -0.136209 9.56878
O 8.54308 0.119244 -1.31914
H 8.01614 0.57556 -0.602119
H 8.54884 0.687926 -2.14168
O 1.55942 -5.33895 -10.9474
H 1.05218 -4.71216 -10.3559
H 1.5412 -6.2577 -10.553
O 1.24112 -4.64248 -14.0248
H 0.4738 -5.18638 -14.3645
H 1.11357 -4.45842 -13.0502
O 2.97158 7.62923 6.37057
H 3.32682 7.99382 5.50982
H 3.02229 8.33465 7.07754
O -1.52258 0.299014 -11.3374
H -2.27724 0.596456 -10.7526
H -0.701236 0.169839 -10.7818
O -5.14931 -8.56377 10.5064
H -5.06206 -9.46959 10.921
H -4.24175 -8.21635 10.2705
O -13.2338 -11.5321 8.4593
H -12.244 -11.6413 8.36769
H -13.5125 -11.7831 9.38633
O 1.01187 -13.6711 -0.435753
H 0.120007 -13.8678 -0.843093
H 1.15809 -12.6821 -0.415039
O -1.86349 2.85441 -6.52947
H -2.22998 2.3568 -5.74329
H -2.4206 3.66745 -6.69854
O 5.23598 2.98832 0.537291
H 4.55722 2.26883 0.684368
H 5.22292 3.26765 -0.422819
O -3.71903 10.2103 12.3779
H -4.21531 10.6635 11.6375
H -2.78941 9.99925 12.0758
O 3.67465 8.42103 13.6254
H 2.8134 8.27499 14.1121
H 3.5909 9.22218 13.0328
O -3.556 8.2129 10.0454
H -4.40485 7.69625 10.1573
H -3.65359 8.8533 9.28356
O 6.71467 14.7209 12.701
H 6.90288 13.7565 12.8867
H 6.12514 -14.7807 13.4196
O 13.834 9.91269 6.64731
H 13.5517 10.4413 7.44785
H 14.665 9.39976 6.86271
O 10.0558 -8.77014 14.1898
H 9.40447 -8.16422 14.6466
H 9.63078 -9.66244 14.0377
O 8.25039 -10.9773 13.9363
H 7.82438 -10.7868 13.0518
H 8.48644 -11.9475 13.9905
O -4.86439 -10.8231 8.37732
H -3.88937 -10.8846 8.59076
H -5.3484 -10.4062 9.14668
O -11.0639 11.3494 -5.83188
H -10.5068 10.5208 -5.77618
H -10.7745 11.8933 -6.61958
O 6.79844 14.2311 -11.6044
H 6.01931 14.3755 -10.9943
H 7.41045 -14.85 -11.5559
O 12.4056 2.84937 11.7258
H 12.3846 2.24241 10.9314
H 13.3091 3.27171 11.7988
O 5.6311 13.7073 2.836
H 4.83873 13.7286 3.44566
H 5.57155 14.4643 2.18536
O -11.5536 11.2837 -14.12
H -11.0867 11.9804 -13.5754
H -12.4309 11.6424 -14.4389
O 10.95 -5.16462 6.542
H 11.2108 -6.01335 7.00207
H 11.7672 -4.71866 6.17699
O 12.1731 3.64646 1.35556
H 12.7265 3.9711 2.12258
H 12.071 2.65346 1.41496
O -6.56359 1.29444 -8.32685
H -6.70418 0.637266 -9.06736
H -6.31721 0.805808 -7.48987
O -3.2463 -3.96924 -13.2041
H -2.5117 -3.47566 -12.7385
H -3.65502 -4.63003 -12.5746
O -12.4686 0.0266061 -12.512
H -12.5084 0.555639 -11.6643
H -13.3213 -0.482837 -12.6273
O -9.61841 7.69679 -11.6961
H -8.82334 8.29434 -11.5922
H -10.343 8.1873 -12.1803
O 4.53653 4.03882 2.90782
H 4.98204 4.90011 3.15217
H 4.79709 3.781 1.97742
O -1.895 -2.49439 -6.80558
H -1.37702 -3.14193 -7.3645
H -1.44786 -2.3886 -5.91739
O 10.8124 13.8036 -9.97582
H 10.0879 14.2354 -9.43858
H 11.087 12.9475 -9.53796
O 0.590054 10.4546 4.01844
H 0.571716 9.50435 3.70761
H 1.17475 10.9927 3.41129
O 12.1404 -12.3268 5.04854
H 12.1964 -11.3313 4.9722
H 11.6782 -12.6974 4.24292
O -9.27247 9.42612 -6.23033
H -8.79963 10.226 -6.59994
H -9.23215 8.67901 -6.89381
O 3.05708 12.9469 -10.7213
H 3.44875 12.4743 -11.5107
H 3.27872 12.4421 -9.88695
O -8.15045 -8.58741 -4.89585
H -7.93797 -9.12575 -5.71135
H -9.14059 -8.56959 -4.75688
O -12.0059 -9.93285 0.396081
H -12.5895 -10.3227 1.10843
H -11.226 -9.47171 0.819417
O -8.57382 -3.52322 -11.8508
H -7.83458 -3.67804 -12.5063
H -8.84331 -2.56049 -11.8737
O 11.5517 13.0529 3.23512
H 11.7827 13.3413 2.3059
H 11.6653 12.0625 3.31469
O 13.7775 -1.7821 -14.5527
H 13.1522 -2.2974 14.7317
H 14.5922 -1.53006 14.7956
O 12.0256 2.22902 4.76772
H 12.8581 2.76577 4.63079
H 11.3065 2.81763 5.13714
O -13.518 10.3986 -0.0804558
H -14.2088 9.77965 -0.454321
H -13.9556 11.053 0.536178
O -0.898301 -12.5965 -8.55342
H -1.27516 -13.4547 -8.9021
H -0.469857 -12.7576 -7.66431
O 1.52274 -1.78294 -12.1758
H 1.62389 -1.07681 -12.8766
H 1.38035 -1.35078 -11.2853
O 3.44262 -1.51633 1.39342
H 2.70975 -1.94063 1.92529
H 4.32328 -1.89505 1.67808
O -10.803 -7.99343 -12.118
H -9.95414 -8.09297 -11.5989
H -11.5024 -8.59496 -11.7319
O 14.7163 -7.03998 -9.49056
H -14.4738 -6.83504 -10.1941
H -14.8491 -6.66887 -8.61355
O -10.4158 6.97353 11.0615
H -10.713 7.87196 10.7383
H -10.556 6.2963 10.3392
O -10.0708 0.861424 12.809
H -10.3539 0.338735 12.0048
H -10.7984 0.838155 13.4947
O -0.478648 3.09254 14.5803
H 0.262648 3.48297 14.0343
H -1.35272 3.26149 14.1248
O 12.2883 -8.28926 -5.86394
H 11.9755 -8.23808 -6.81239
H 11.5009 -8.40973 -5.25935
O -9.59633 5.27373 5.90334
H -10.1532 5.85836 6.49338
H -9.20718 5.82164 5.16281
O 3.29672 -9.55977 -8.81272
H 3.94188 -10.2887 -8.58359
H 3.18658 -8.9526 -8.02582
O -7.97526 -14.501 -6.83454
H -8.29822 -13.5546 -6.84005
H -7.04189 -14.5368 -7.19169
O -3.04314 1.12739 11.0264
H -3.58564 1.22752 10.1924
H -3.03528 0.167191 11.3057
O 11.4017 -2.37681 -0.514359
H 10.9785 -2.08584 0.343667
H 11.1917 -1.71251 -1.23171
O 8.58048 1.09831 7.07941
H 7.58281 1.09953 7.01111
H 8.85007 0.882874 8.01798
O -8.18297 1.71481 -12.2878
H -8.67542 2.02484 -13.101
H -8.07227 2.47982 -11.6533
O -9.98957 10.7182 -2.50236
H -10.46 11.5819 -2.68334
H -9.022 10.8968 -2.3237
O -0.398933 -3.31776 9.12656
H 0.159495 -3.20038 8.30535
H -0.99774 -4.11042 9.01196
O 5.94779 6.70513 9.13994
H 5.94651 5.91419 8.52804
H 5.52896 6.45246 10.0121
O -9.60083 -10.4696 8.20116
H -9.68724 -9.65263 7.63096
H -9.94341 -11.2639 7.69953
O -12.0938 -13.4028 -9.90649
H -12.9231 -13.88 -9.61562
H -12.0412 -12.5159 -9.44767
O -8.92833 5.1015 -12.0083
H -9.07286 6.09095 -11.9979
H -9.1581 4.74054 -12.9121
O 0.319871 7.95514 -4.40867
H 0.863567 7.11676 -4.36971
H 0.920056 8.73334 -4.59356
O -6.18431 -1.37296 -6.53071
H -5.2024 -1.18469 -6.51047
H -6.64671 -0.805025 -5.8498
O -6.19842 -1.14882 9.23204
H -6.65526 -1.14387 10.1216
H -5.70033 -0.29056 9.10836
O 12.8728 4.07734 -1.26457
H 12.6088 3.78667 -0.344899
H 13.4747 4.87348 -1.20255
O -11.686 5.00007 -8.60199
H -11.2609 5.46799 -7.82721
H -12.4088 4.39414 -8.26962
O 13.9504 -9.98546 12.4836
H 13.9717 -10.9481 12.2137
H 14.3542 -9.88523 13.393
O 1.56223 -9.12129 11.5316
H 2.42631 -9.07895 12.0332
H 0.887129 -8.53599 11.9806
O -1.3929 -10.3204 12.4452
H -0.694066 -11.0287 12.5452
H -1.05353 -9.46101 12.8277
O 3.83187 0.627804 8.8106
H 4.34263 0.757814 9.66044
H 3.01054 1.1981 8.82476
O 2.6065 12.4532 -0.108906
H 2.5754 13.4375 -0.282706
H 2.51469 11.959 -0.973407
O 9.59437 14.2616 -2.76795
H 9.12912 13.5995 -3.35537
H 9.04416 14.4252 -1.94908
O -0.314335 -4.99918 -6.91556
H -0.721922 -5.21945 -6.02936
H -0.496736 -5.74166 -7.56012
O 0.326705 1.90408 4.22297
H 0.864786 2.41315 4.89478
H 0.452651 2.31048 3.318
O 5.28315 -3.25127 -0.734122
H 4.40698 -2.96744 -1.12369
H 5.51227 -2.65857 0.0380285
O 14.3634 3.93742 3.13284
H -14.6726 3.51622 2.77758
H 14.6045 4.69597 3.7382
O -9.23478 1.85169 -0.693183
H -10.0931 1.58856 -0.252627
H -9.29731 2.79964 -1.00542
O -10.5163 12.3434 0.943723
H -10.0474 12.9989 0.351647
H -10.9149 11.6157 0.385492
O -2.8269 -5.17866 10.9011
H -3.30783 -4.33259 10.6712
H -2.01487 -4.96357 11.4437
O -4.08788 2.23746 -14.8731
H -3.52679 2.51282 14.2168
H -4.91678 2.79614 -14.8448
O -10.1944 0.16179 6.39685
H -9.79858 1.07468 6.29699
H -10.6297 -0.108541 5.53809
O 8.45365 4.37963 8.97645
H 7.66428 4.9883 8.89634
H 9.10187 4.75954 9.63637
O -13.5285 -0.431773 2.64596
H -12.5854 -0.634662 2.38254
H -14.1499 -0.744856 1.92773
O 6.80926 -0.0962943 14.8637
H 7.66962 -0.578815 14.6994
H 6.0479 -0.741551 14.8005
O 9.81277 -5.42091 -4.78318
H 9.10739 -4.71211 -4.77646
H 10.1024 -5.59402 -5.72455
O -12.7191 6.58368 -10.9384
H -11.8728 6.85324 -11.3978
H -12.5002 6.14668 -10.066
O -13.8694 -12.8625 4.20931
H -13.8658 -12.1827 4.94268
H -14.3784 -13.6705 4.50629
O -3.29353 2.5084 8.40743
H -4.26905 2.3334 8.54063
H -3.07934 3.44077 8.69866
O 10.5083 10.6143 -3.36056
H 10.5879 10.4001 -2.38702
H 9.67275 11.1405 -3.5188
O -2.03563 5.66333 11.6783
H -3.00943 5.87609 11.7585
H -1.50644 6.31291 12.2242
O 14.2117 9.96857 -14.2171
H 14.4734 9.62764 -13.3142
H 14.6847 10.8309 -14.3977
O -14.6174 3.50072 12.2436
H -14.5151 2.81922 11.5189
H -13.7137 3.79048 12.5586
O 9.00226 -6.0481 -2.20206
H 9.48566 -6.22203 -1.34411
H 9.51556 -5.3835 -2.74504
O -13.9068 -4.93167 -14.6643
H -13.4242 -5.55949 -14.0536
H -13.4192 -4.05927 -14.6985
O 9.20434 -13.5199 14.9305
H 10.0793 -13.1345 14.6375
H 9.27893 -14.5158 -14.8897
O -5.94214 -12.4527 -0.475618
H -5.35132 -12.4687 0.331027
H -6.86695 -12.1841 -0.206127
O -7.00086 12.1256 11.8565
H -6.44174 12.9208 12.0914
H -7.43612 11.7685 12.683
O -12.2901 -11.1114 -8.63556
H -11.7657 -10.4497 -8.09958
H -13.2675 -10.9614 -8.48645
O 12.895 -4.14297 -5.74098
H 13.174 -3.37336 -6.31533
H 11.9591 -4.40904 -5.97179
O -4.30541 6.1 -14.7132
H -3.34423 6.17308 -14.4471
H -4.59755 6.95337 14.7256
O -2.16415 -13.5449 -0.290618
H -2.35975 -12.597 -0.0390337
H -2.15968 -14.1139 0.53172
O -14.2642 -9.81551 14.587
H -13.562 -10.5232 14.5087
H -14.2577 -9.44062 -14.3564
O -4.22996 -11.3496 -6.33744
H -3.72271 -11.5307 -5.49487
H -4.16509 -10.3775 -6.56317
O 14.333 7.79283 -9.1751
H 13.8305 7.33086 -8.4443
H 14.6062 8.70418 -8.86721
O -0.265888 -7.94862 13.4555
H -0.336292 -7.05821 13.0058
H -0.989735 -8.03444 14.1401
O -4.5838 8.80181 -1.51102
H -3.60534 8.63536 -1.63315
H -4.73633 9.26848 -0.639834
O -6.15572 -0.868161 -0.830249
H -6.41698 -0.0219502 -1.29466
H -5.7112 -1.48256 -1.48211
O 14.8115 -11.4687 -4.74845
H -14.7618 -11.6859 -3.81867
H 14.8212 -10.4772 -4.87844
O 9.99122 12.3027 -0.0480285
H 10.7895 12.7387 -0.463477
H 10.2848 11.51 0.486291
O -9.21559 2.77946 6.78267
H -9.24336 2.58261 7.76272
H -9.33046 3.76205 6.63668
O 13.75 7.56058 13.4806
H 12.8435 7.14248 13.5394
H 13.8305 8.28035 14.1701
O 0.00624519 3.07237 -10.8054
H -0.202405 2.54459 -9.98203
H -0.367068 3.99548 -10.7131
O 6.98106 -5.82501 -9.87869
H 6.06315 -5.46724 -10.0503
H 7.5676 -5.62882 -10.6645
O 12.5753 -2.70796 12.9667
H 12.6907 -1.94545 12.3301
H 13.083 -3.50169 12.6316
O -6.67963 9.0632 -13.8229
H -6.88479 9.23631 -12.8596
H -7.51488 8.78406 -14.2966
O -6.31354 3.88887 4.37413
H -7.06149 3.91753 5.03728
H -6.52539 3.22012 3.66147
O -8.46333 -12.3382 12.9592
H -7.72862 -13.0081 13.066
H -8.52418 -11.776 13.7839
O 8.13645 11.5561 -11.0043
H 8.06537 12.0331 -10.1282
H 7.51424 11.977 -11.6643
O 7.84809 3.88338 -7.16472
H 8.63739 4.47106 -7.34261
H 8.13203 2.92508 -7.19703
O 6.86346 -5.45219 9.3463
H 7.18325 -5.89411 10.1844
H 7.64995 -5.14538 8.81029
O 9.50523 -12.8065 7.34178
H 9.70843 -12.6523 6.37487
H 9.07924 -11.9882 7.72756
O 5.09681 10.5651 12.0405
H 4.37697 10.9487 11.462
H 5.76702 10.0918 11.4689
O -12.5949 14.5467 8.71033
H -11.9259 -14.5928 8.57562
H -13.518 14.9301 8.68058
O 9.71654 9.99202 -6.78743
H 10.3258 9.51408 -6.15469
H 9.82669 9.61327 -7.70636
O 12.7774 6.71041 -7.31834
H 12.5478 6.97558 -6.38185
H 13.1803 5.79516 -7.31635
O 0.933753 -10.6608 -9.73426
H 0.32611 -10.985 -9.00925
H 1.82341 -10.4253 -9.34304
O 5.14566 4.17073 -7.9672
H 6.11912 3.98181 -7.83801
H 4.95778 4.30126 -8.94068
O 12.8939 -11.9013 8.30999
H 12.9439 -12.1347 7.33888
H 12.1917 -12.46 8.75136
O -0.41528 -2.70101 1.10232
H -8.99176e-05 -2.5944 2.00579
H -1.11672 -3.41277 1.13973
O -4.94335 4.13252 -4.83658
H -4.75653 4.9374 -5.39987
H -5.23892 3.37744 -5.42181
O -5.05303 -12.4443 -2.82935
H -5.23503 -12.442 -1.84605
H -5.16506 -11.5188 -3.19123
O -4.66614 3.42533 0.0431355
H -4.93348 4.38889 0.0342781
H -4.53817 3.1236 0.987905
O -13.3365 7.44702 10.0012
H -13.1922 8.22182 10.6167
H -14.089 6.88466 10.344
O 4.60937 4.02879 -1.84228
H 4.00231 4.70427 -1.4237
H 5.14084 4.46351 -2.56931
O 9.44927 7.76822 -4.11191
H 9.44882 8.76058 -3.98848
H 8.60093 7.48781 -4.56101
O 11.9937 8.85439 -11.3836
H 11.8636 9.80787 -11.6556
H 12.7565 8.46225 -11.8978
O -3.50224 -2.75459 3.04276
H -3.96517 -3.46401 3.57418
H -3.08603 -2.09082 3.6642
O 9.13562 1.7645 9.65985
H 8.88214 2.7124 9.46688
H 8.64589 1.44723 10.4719
O -11.4227 8.52266 -4.34978
H -11.279 9.49395 -4.16012
H -12.0854 8.42244 -5.0919
O -6.72017 0.610223 3.55441
H -6.8415 -0.09253 4.25543
H -5.98097 0.341057 2.93704
O -14.5212 -5.40158 -0.175209
H -13.7404 -5.46441 0.446416
H -14.2214 -5.01942 -1.04933
O -0.191342 -9.94177 5.02749
H -1.12614 -9.72082 5.30561
H 0.453379 -9.39468 5.56137
O -1.40524 7.60605 5.21636
H -1.79654 8.52131 5.3123
H -2.10398 6.97929 4.87149
O 9.40091 -8.32676 2.38566
H 8.53324 -8.42865 1.89906
H 10.0648 -7.87247 1.79165
O 11.763 -7.89767 4.56005
H 11.4232 -7.01306 4.24072
H 11.006 -8.42693 4.94331
O -1.5667 5.60138 0.980856
H -1.99296 5.44787 1.87234
H -2.21884 5.37743 0.256585
O 9.52777 7.35293 8.89345
H 9.77618 7.51175 7.9379
H 10.3332 7.04657 9.40075
O 11.6691 0.926389 9.83572
H 12.2267 1.12657 9.0301
H 10.7189 1.17999 9.6548
O 1.40532 -12.2887 4.64371
H 0.834379 -11.4731 4.73758
H 2.0377 -12.1667 3.87872
O -12.0592 1.47764 14.6396
H -12.7167 0.891934 14.1658
H -11.8634 1.09603 -14.3275
O -8.18224 4.48154 14.0403
H -8.91052 4.82659 14.6324
H -8.03519 5.12093 13.2856
O 3.03986 -7.18348 -6.48333
H 3.67899 -7.28881 -5.72147
H 3.1581 -6.2799 -6.8951
O 2.82178 -8.32887 -13.3429
H 3.38385 -7.71362 -13.8957
H 3.25205 -8.46149 -12.45
O -13.2696 7.37352 14.9137
H -14.1928 7.14166 14.6073
H -12.6033 6.82391 14.4097
O 11.5293 14.6457 13.1097
H 10.7092 14.2973 13.5637
H 11.6569 -14.2614 13.3453
O 3.82625 -1.61844 7.58498
H 3.84806 -0.714709 8.01254
H 4.64696 -1.74329 7.02744
O -8.31475 -1.57089 0.84628
H -7.72093 -1.9081 0.115745
H -7.90092 -0.7631 1.26607
O -12.8432 -6.35506 8.40323
H -13.0065 -7.08662 7.7413
H -12.2217 -5.67942 8.00671
O -14.411 2.88423 -10.5209
H 14.7208 3.54649 -10.3954
H -14.0219 2.98851 -11.4362
O -9.86093 -7.02307 -7.82648
H -9.0605 -6.82205 -7.26176
H -10.3608 -6.17654 -8.00952
O -13.0762 12.1825 9.77102
H -12.939 13.1506 9.56097
H -12.257 11.6674 9.51901
O 7.11986 7.17216 -6.04122
H 7.38473 7.28002 -6.99946
H 6.22416 6.73037 -5.99068
O 0.331362 1.746 -0.700493
H 0.175052 1.97422 -1.66148
H -0.47987 1.9822 -0.165595
O 6.35796 -6.49629 -6.35958
H 7.00175 -7.09169 -6.84024
H 5.78001 -6.02408 -7.02516
O 3.45142 -6.20621 -14.9228
H 3.22539 -6.42049 13.9974
H 2.678 -5.74011 -14.4932
O 1.37685 4.04842 2.9119
H 0.996522 4.67292 3.59407
H 2.37556 4.08771 2.94413
O 9.71869 -6.62916 -11.8889
H 8.94177 -6.05795 -12.1537
H 10.5712 -6.1598 -12.119
O 4.49225 -8.09294 -4.68732
H 5.28146 -7.60147 -5.05558
H 4.79818 -8.9467 -4.26599
O 10.7944 1.57911 13.5254
H 11.2824 2.13292 12.8507
H 11.4035 1.37399 14.2915
O 8.77221 -11.6993 0.210686
H 9.54362 -11.2122 -0.19871
H 8.54061 -11.2794 1.08819
O -0.476373 0.728154 9.88421
H -0.416971 -0.121775 10.4078
H -1.33567 1.19244 10.0988
O -6.47287 14.2871 3.35962
H -5.50267 14.4436 3.54461
H -6.59489 14.0541 2.39482
O 12.4132 -7.80331 13.3569
H 12.8903 -8.66064 13.1636
H 11.5161 -8.00266 13.7514
O 14.4984 6.13917 -1.14454
H -14.3989 5.90968 -1.13129
H 14.2529 6.5997 -0.291515
O 0.771249 -10.0328 -14.862
H 0.827806 -9.27686 14.3564
H 1.34694 -9.83289 -14.0691
O 13.3224 -9.4092 6.39824
H 12.8287 -8.6959 5.90075
H 12.6731 -9.96025 6.92245
O 13.2567 -0.214628 11.8939
H 12.4752 -0.087682 11.2831
H 13.0965 0.280991 12.7475
O -13.4934 4.33228 -6.02292
H -13.66 4.8022 -5.15607
H -12.8935 3.54759 -5.86675
O -9.61085 11.9644 6.05807
H -9.02235 11.614 5.32947
H -9.70007 12.9562 5.96647
O -5.14665 -0.612521 1.82848
H -5.69331 -0.742249 1.00123
H -4.67488 -1.46509 2.05334
O 3.89056 -9.88778 12.8028
H 4.50481 -9.80611 13.5877
H 3.57226 -10.8326 12.7255
O -4.40261 -3.07909 10.0402
H -5.13217 -2.45588 9.75848
H -3.72828 -2.57895 10.5835
O -2.19871 10.343 5.03788
H -1.36228 10.5718 4.53982
H -2.2999 10.9582 5.81974
O -7.66934 -10.7295 10.2047
H -8.1368 -11.2219 10.9389
H -8.30471 -10.5787 9.44734
O -13.7577 11.5335 -5.52407
H -13.7045 12.529 -5.44599
H -12.8474 11.1648 -5.71245
O -4.59353 -14.465 -4.90757
H -4.59941 -14.0426 -5.81393
H -4.47453 -13.7576 -4.21085
O -12.3919 -10.3716 -11.41
H -12.0775 -11.0797 -12.0422
H -12.1026 -10.602 -10.4809
O 6.02156 -2.23565 1.91166
H 6.11884 -1.32866 2.32143
H 6.09128 -2.93293 2.62506
O -4.55086 14.7844 8.73121
H -5.13978 -14.4858 9.2723
H -4.87585 14.7625 7.78574
O -9.63784 -3.45664 9.94427
H -9.70233 -3.26001 8.96591
H -8.67599 -3.48017 10.2168
O 1.0844 11.2425 7.04241
H 0.327721 11.7756 7.42084
H 0.722942 10.5369 6.43291
O 8.49137 7.58954 0.0760294
H 7.66747 8.11915 0.277804
H 9.15307 7.70748 0.816462
O -6.63116 -4.98469 5.63009
H -5.69167 -4.91056 5.29563
H -6.83657 -4.20558 6.22238
O 4.71754 -13.2863 5.33541
H 5.67114 -13.5637 5.45263
H 4.66865 -12.2919 5.24239
O 1.26316 -2.97651 13.5122
H 0.52392 -2.34324 13.7413
H 1.46252 -3.55603 14.3024
O 9.08975 -8.78506 -10.4131
H 9.90318 -9.35903 -10.3188
H 9.27918 -8.04122 -11.054
O 3.56995 0.132437 -4.96297
H 3.5129 0.392463 -3.99906
H 3.10962 0.822035 -5.52204
O 1.0302 2.45993 -13.1434
H 0.594605 2.26136 -12.2655
H 0.333117 2.50327 -13.8591
O 12.7679 12.7434 -3.72936
H 12.1976 12.0352 -4.14554
H 13.6366 12.3431 -3.43767
O -13.5007 9.00106 7.66593
H -13.5595 8.465 8.50807
H -12.683 9.57597 7.69317
O 10.9616 7.08769 13.6669
H 10.7162 7.61154 14.4827
H 10.2212 6.45408 13.4425
O -10.7343 12.8419 -9.55385
H -11.6175 12.5433 -9.91554
H -10.7958 12.9364 -8.56022
O -7.69579 -4.33481 -4.00206
H -8.44087 -3.69431 -4.18814
H -7.70181 -5.06172 -4.68878
O -8.13957 14.63 -13.8056
H -8.15133 -14.4686 -13.17
H -8.543 13.8285 -13.3642
O -11.2799 13.989 12.5311
H -12.2548 13.7914 12.4277
H -11.1419 -14.8916 12.5619
O -5.47285 -2.75935 -3.0819
H -6.27004 -3.31209 -3.32475
H -5.04698 -2.4048 -3.91432
O 8.29463 -1.78603 0.630326
H 8.41217 -1.24071 -0.199624
H 7.32999 -1.78824 0.893875
O 8.23689 -12.7603 -12.3112
H 8.07135 -13.164 -13.211
H 9.0531 -12.1838 -12.3495
O -12.9483 -5.06093 3.94126
H -12.7837 -5.99363 4.2622
H -12.6075 -4.96528 3.00599
O 0.451097 13.7958 -12.2572
H 1.19486 13.2738 -11.8396
H 0.513927 13.7274 -13.2528
O 11.5372 -2.30086 5.46458
H 12.1407 -1.53142 5.67362
H 12.0558 -3.01173 4.98944
O -10.9981 9.54421 -0.00936777
H -10.8503 9.91058 -0.928029
H -11.9508 9.68903 0.257967
O -7.76207 11.8304 3.98453
H -8.55787 11.6325 3.41224
H -7.30059 12.6488 3.64211
O -6.87137 -1.25378 5.44233
H -6.08954 -1.73537 5.83833
H -7.28437 -1.81921 4.72838
O -4.66718 -5.80213 -3.21582
H -5.58061 -5.43268 -3.04505
H -4.4236 -5.65869 -4.17504
O -1.63577 -10.4886 9.23407
H -1.1495 -10.3381 10.0948
H -1.04914 -10.2231 8.46898
O 10.0147 -8.60491 -4.42562
H 9.2944 -7.91168 -4.45003
H 9.67586 -9.42134 -3.95803
O -6.76409 -6.25603 -11.5144
H -7.11191 -5.4486 -11.991
H -5.76486 -6.22453 -11.491
O 7.92304 10.5947 8.12532
H 7.08288 10.0554 8.18289
H 7.79512 11.4632 8.60423
O -13.3342 -13.2174 -5.90709
H -13.8857 -12.5466 -5.41137
H -12.72 -12.7432 -6.53794
O -14.8548 -9.87432 -8.09428
H 14.1781 -10.221 -7.67205
H 14.839 -8.97619 -8.49694
O 2.54225 11.2335 2.36911
H 2.46494 11.6574 1.46672
H 3.50794 11.112 2.59868
O -1.56918 -0.122118 4.65611
H -1.77022 0.127772 5.60329
H -0.923749 0.535567 4.26768
O -7.30644 10.1047 10.2002
H -6.94421 10.8851 10.7098
H -6.64882 9.352 10.2314
O 4.65991 1.61515 4.49582
H 3.70517 1.59731 4.79276
H 4.7881 2.34984 3.82962
O -4.43844 2.52936 5.67643
H -4.84796 1.67272 5.99024
H -5.11283 3.04849 5.15134
O -7.08601 -4.32958 10.9255
H -6.15907 -4.04884 11.1745
H -7.04481 -4.98126 10.1681
O -12.1484 -3.77485 6.32993
H -12.129 -4.16373 5.40884
H -13.0716 -3.44983 6.53513
O -9.15421 14.0958 -0.791594
H -9.2907 -14.7891 -0.691998
H -8.74843 13.9041 -1.68524
O 1.93404 6.68486 -14.7505
H 1.92551 5.81546 14.626
H 2.71824 6.7082 -14.1304
O 11.3615 -0.112129 -2.03423
H 10.4464 0.11672 -1.70237
H 11.4668 0.214505 -2.9735
O -2.37812 -7.35706 9.57955
H -2.60649 -6.59987 10.1915
H -1.5261 -7.15123 9.09818
O 1.13778 -10.6688 8.92922
H 1.63312 -10.4477 9.76932
H 1.60651 -10.257 8.14772
O 1.50856 -3.58961 -8.26318
H 2.25299 -3.15233 -7.75858
H 0.953062 -4.13275 -7.63355
O -0.393154 13.594 3.96303
H -0.299275 12.7197 4.43931
H 0.137652 14.2932 4.442
O -14.0082 -14.6661 0.269364
H -13.4179 -14.3866 1.02657
H -14.8387 -14.1091 0.271067
O 11.8957 9.80484 9.92114
H 12.6855 10.2213 9.47087
H 11.0542 10.1705 9.52339
O -4.12738 -10.7044 12.1519
H -4.50671 -10.7121 13.0771
H -3.14196 -10.5403 12.197
O -6.95121 -0.666982 -10.0232
H -6.24254 -1.00864 -10.6405
H -7.85187 -0.837161 -10.4231
O 5.30975 -7.73342 12.1729
H 4.93685 -8.61964 12.4478
H 4.60382 -7.03131 12.2663
O -5.49245 -14.6075 -7.94819
H -5.29094 -13.6931 -8.29944
H -4.94866 14.5874 -8.44602
O 10.7255 -4.36768 14.7627
H 10.4507 -3.46094 -14.7879
H 11.6384 -4.31578 14.3579
O -13.815 -6.11541 -11.4558
H -12.979 -5.62494 -11.2098
H -14.3839 -5.53375 -12.0372
O 10.415 -13.2555 2.74814
H 9.73941 -12.5185 2.73052
H 9.94861 -14.1325 2.86396
O 12.6558 -1.26497 8.49084
H 11.6633 -1.34058 8.39498
H 12.9193 -0.300368 8.47915
O 9.40536 0.662681 4.37202
H 9.19548 1.18836 5.19641
H 10.1292 1.12326 3.85829
O -9.97228 -14.5811 -4.22318
H -9.0752 -14.1719 -4.05625
H -9.9926 14.8939 -5.14142
O 0.724143 -8.00897 -10.637
H 1.10914 -7.9377 -11.5572
H 0.959361 -8.89846 -10.2452
O -6.78553 13.326 0.914791
H -7.41019 13.589 0.179484
H -5.95688 12.9276 0.521649
O 5.49993 -14.0455 0.990772
H 4.94808 -13.837 0.183324
H 6.446 -14.2133 0.713642
O 10.6739 -13.3044 9.65912
H 10.3028 -12.606 10.2712
H 10.1434 -13.3209 8.81164
O -3.60039 1.59454 2.34991
H -2.94041 1.40384 3.07659
H -4.11642 0.76362 2.14183
O 11.1548 8.53026 -8.82089
H 11.6056 8.47485 -9.71177
H 11.6131 7.91786 -8.17672
O 3.42256 14.0631 9.91026
H 2.46636 13.7708 9.89422
H 3.49152 -14.8735 9.55951
O -2.98806 -9.79844 5.0944
H -3.40368 -9.23912 5.81163
H -3.4857 -9.6651 4.23732
O 7.0408 -11.0392 -10.8199
H 7.75055 -10.43 -10.4661
H 7.46368 -11.7604 -11.3686
O -6.774 -14.1642 13.9202
H -6.32783 -14.9195 13.4402
H -7.26484 -14.5187 14.7161
O -2.71768 -4.35987 0.700843
H -2.16673 -5.14775 0.976022
H -3.12402 -3.93789 1.51129
O -10.1172 9.85458 10.3122
H -10.5316 10.2313 11.1407
H -9.13049 9.76173 10.4457
O 7.31168 -14.1186 5.93278
H 7.19193 14.777 6.12011
H 7.82377 -13.6959 6.68053
O 5.77374 7.59739 -8.99069
H 6.63906 7.12048 -9.14493
H 5.50614 7.50072 -8.03202
O -6.41038 3.375 11.7872
H -7.0447 3.09282 11.0674
H -6.92096 3.5652 12.6257
O 10.4729 10.6094 7.04778
H 10.9287 9.99411 6.40459
H 9.53698 10.294 7.20457
O 13.8037 -2.35065 -7.6155
H 14.0169 -1.38042 -7.50058
H 14.3865 -2.73763 -8.33003
O 3.4165 1.98399 -7.17698
H 4.08975 2.65737 -7.48245
H 3.35194 1.24789 -7.85077
O -4.7282 13.776 -10.0438
H -5.62602 13.3431 -10.1251
H -4.50501 14.2436 -10.8991
O 4.77903 2.15532 -12.3075
H 4.11509 2.47596 -11.6319
H 4.3594 2.15927 -13.2152
O -1.10268 12.4276 8.1051
H -1.49186 12.8241 7.27364
H -1.83466 12.2448 8.76146
O -2.52983 13.7878 6.2398
H -2.97537 14.1681 5.42932
H -2.1499 14.5308 6.79082
O -10.892 -9.45075 -6.79554
H -11.4078 -9.04964 -6.03851
H -10.7055 -8.74736 -7.48145
O 12.9688 -14.8754 10.8213
H 12.1671 -14.5526 10.3182
H 12.6887 14.6798 11.728
O -2.94144 -13.0398 -14.3968
H -2.01251 -12.7593 -14.6385
H -2.94471 -13.4205 -13.4721
O -1.7663 9.99969 -6.97661
H -1.2805 10.5491 -7.6564
H -1.97823 9.10212 -7.36322
O -11.7332 0.560591 -3.60378
H -12.3752 1.06007 -3.02206
H -12.0479 -0.382128 -3.71458
O 0.513988 -8.49071 -6.42785
H 1.37258 -8.03125 -6.65529
H 0.70904 -9.40534 -6.07371
O 12.043 6.28517 1.59299
H 12.0761 5.29074 1.49291
H 11.2369 6.53976 2.12721
O -4.56354 6.88422 -9.20488
H -4.48946 6.20252 -9.93275
H -3.691 7.36273 -9.1063
O -4.86244 3.87348 -11.8346
H -5.61428 4.01738 -11.1911
H -5.23153 3.74449 -12.755
O 5.47197 -9.8968 -14.7759
H 5.54283 -10.8635 -14.53
H 5.95334 -9.34378 -14.0958
O 1.34534 7.67483 10.1886
H 1.5944 6.70955 10.2674
H 0.686525 7.90852 10.9037
O 11.3784 11.4905 -11.9157
H 11.9022 12.3418 -11.8843
H 10.4204 11.6805 -11.701
O -9.44281 10.0027 2.47587
H -9.8378 10.6709 1.84543
H -9.38063 9.11332 2.02292
O 9.09197 14.3264 3.0358
H 9.75781 13.5934 3.17506
H 8.35216 14.2358 3.70249
O 9.4615 13.6693 14.7542
H 9.72915 12.7492 14.4681
H 8.52915 13.6481 -14.7554
O -2.33559 8.13088 -8.97777
H -2.28738 8.74426 -9.76609
H -1.65038 7.40901 -9.07473
O 6.27883 5.14405 -3.83591
H 6.57754 6.05718 -3.55845
H 6.20839 5.10494 -4.83266
O -2.72775 -7.53125 -6.11045
H -1.86145 -8.02435 -6.19043
H -2.5606 -6.54859 -6.19077
O 6.37494 7.06359 2.76291
H 6.45413 7.49386 1.86369
H 7.09688 7.40906 3.36246
O 2.48846 9.29807 -7.83046
H 3.40735 9.39889 -7.44904
H 2.08015 8.44864 -7.49617
O 14.424 -13.4914 14.8087
H 14.0204 -14.1631 -14.4405
H 13.7314 -12.8179 14.5504
O 7.51547 -7.65232 14.8111
H 7.2233 -7.90963 -14.1383
H 7.12454 -8.28978 14.1471
O -4.43231 5.15301 7.05825
H -4.59031 4.23454 6.69569
H -3.99358 5.08669 7.95442
O -13.7477 0.71534 -1.53779
H -13.9761 1.57695 -1.99105
H -14.5129 0.0779445 -1.62839
O 4.9452 14.5519 -9.44536
H 4.67096 -14.5916 -8.81585
H 4.14953 13.9908 -9.67341
O -9.3805 8.90629 5.2261
H -9.2062 9.55511 4.48538
H -9.81723 8.08663 4.85536
O 13.9017 5.36951 -10.1428
H 13.6022 4.66927 -9.49475
H 14.0258 6.23749 -9.66194
O -0.341981 -9.92955 2.05141
H -0.317443 -9.96497 3.05048
H 0.250407 -9.19104 1.72941
O 6.86078 -2.39176 -2.80147
H 7.157 -1.54595 -2.35776
H 6.35299 -2.95152 -2.14662
O 4.72916 6.40772 11.7219
H 4.36961 7.19723 12.2193
H 5.52033 6.03861 12.2096
O 9.88946 9.24206 11.8096
H 10.4984 9.55523 11.0809
H 10.3111 8.47191 12.2883
O 5.44196 3.86868 7.77497
H 5.64447 3.07936 8.3546
H 5.9252 3.77567 6.90443
O -5.0869 -12.0952 -9.22416
H -4.6557 -11.6857 -8.42015
H -5.97591 -11.665 -9.38102
O 1.36864 2.07382 8.52495
H 1.0712 3.02769 8.56574
H 0.936329 1.55796 9.26455
O -8.05561 -7.75938 14.4799
H -8.37392 -6.88235 14.8398
H -7.3457 -7.60026 13.7938
O -2.86871 12.0806 -9.15225
H -2.53387 11.4715 -9.87123
H -3.39975 12.8214 -9.56355
O 7.25824 13.0044 -8.60317
H 6.38081 13.4693 -8.72155
H 7.98735 13.6841 -8.5227
O 8.90712 -1.97636 5.14449
H 9.81427 -2.30851 5.40286
H 8.97792 -1.03411 4.81714
O -11.2941 10.6483 7.91142
H -10.8415 10.2682 8.71807
H -10.6061 10.8997 7.23062
O 4.69915 5.2921 -14.1848
H 4.27104 4.6387 -14.8092
H 5.39102 5.8198 -14.6776
O -3.89665 -4.68618 -6.02058
H -3.42544 -3.81828 -6.17777
H -4.44442 -4.9184 -6.82435
O 4.64374 10.2032 -6.37606
H 4.36534 11.1307 -6.12652
H 5.55566 10.2277 -6.78571
O 6.81167 11.2798 1.42146
H 7.47089 11.9392 1.06017
H 6.34085 11.6766 2.20938
O -8.20669 7.12874 12.5544
H -8.93565 6.94529 11.8949
H -7.43514 7.56028 12.087
O 2.54148 5.17744 10.687
H 3.41492 5.31765 11.1533
H 2.70942 4.88179 9.7466
O 7.75299 -3.99833 -8.10775
H 7.28339 -4.68745 -8.65966
H 7.134 -3.23254 -7.93331
O 1.63609 4.37007 13.2839
H 2.42687 3.82048 13.5534
H 1.707 4.603 12.314
O 6.00149 0.807112 6.71307
H 5.28851 0.563795 7.37068
H 5.58058 1.19786 5.89443
O 4.56005 -9.58738 9.35896
H 4.44124 -9.39897 10.3338
H 4.6977 -10.5686 9.22346
O -6.18914 -11.7158 -12.2751
H -5.40607 -11.9189 -12.8629
H -6.2049 -10.7378 -12.067
O 13.2741 11.7766 12.3112
H 13.2195 10.7853 12.1911
H 12.6181 12.0645 13.0089
O 0.719961 -13.2324 11.8289
H 1.68837 -13.3771 12.032
H 0.599122 -13.1223 10.8424
O -6.23874 -4.21662 -13.3999
H -5.98745 -5.062 -13.8713
H -5.44463 -3.61038 -13.3567
O -11.1129 -1.46676 1.39656
H -10.1621 -1.41272 1.09156
H -11.6604 -1.93138 0.700529
O -7.1855 6.92459 -5.92986
H -7.47886 7.46589 -5.14187
H -6.1898 6.96784 -6.01188
O -8.4349 5.33771 -7.97095
H -9.32981 5.71095 -8.21558
H -8.04112 5.8768 -7.22642
O -2.20548 2.3616 -0.00177016
H -2.83687 1.91094 0.629312
H -2.60475 3.22371 -0.31377
O -4.9662 -9.38591 14.7924
H -5.50399 -10.2194 14.9195
H -5.47627 -8.60264 -14.7227
O 7.02796 8.58843 10.9757
H 6.63236 7.91048 10.3562
H 8.02333 8.58719 10.8795
O 4.78706 -12.3826 9.41523
H 4.10636 -12.9054 8.9021
H 5.66922 -12.8516 9.37246
O 1.33914 10.6264 12.0556
H 2.07934 11.0409 11.5262
H 0.728916 10.1268 11.4408
O 14.1404 14.4748 4.22505
H 13.6745 14.8463 5.0281
H 13.4711 14.0391 3.62319
O 13.5668 -5.4537 13.8418
H 13.2294 -6.39502 13.8303
H 14.401 -5.40528 14.3911
O -3.57138 -0.763234 -9.31937
H -4.09993 -0.0764371 -9.81833
H -3.54289 -0.521903 -8.34934
O -7.18132 5.79599 8.20865
H -6.41302 5.73111 7.57185