LAMMPS data file via write_data, version 15 May 2015, timestep = 2000000

4560 atoms
7 atom types
5040 bonds
3 bond types
7200 angles
2 angle types
10560 dihedrals
3 dihedral types
2400 impropers
1 improper types

-1.0763502675555259e-01 4.1387635026745990e+01 xlo xhi
-4.0433884491974936e-02 3.5938433884472119e+01 ylo yhi
-3.5711112484589691e-01 2.9555111124838550e+01 zlo zhi
-6.7234083837551181e-02 -1.7036217651000683e+01 -4.1707816797290791e-02 xy xz yz

Masses

1 12.0107
2 1.008
3 12.0107
4 12.0107
5 12.0107
6 12.0107
7 12.0107

Pair Coeffs # lj/cut/coul/cut

1 0 0
2 0 0
3 0 0
4 0 0
5 0 0
6 0 0
7 0 0

Bond Coeffs # harmonic

1 469 1.4
2 367 1.08
3 469 0.7

Angle Coeffs # harmonic

1 35 120
2 63 120

Dihedral Coeffs # opls

1 0 7.25 0 0
2 0 7.25 0 0
3 0 7.25 0 0

Improper Coeffs # cvff

1 2.5 -1 2

Atoms # full

219 13 3 0.0000000000000000e+00 -4.6045964297569308e-01 2.9694724795593781e+00 3.4735705572173119e+00 1 0 0
982 53 2 0.0000000000000000e+00 1.3610379567647888e+00 1.0758111719157295e+01 6.3853782070618736e-01 1 0 0
985 53 2 0.0000000000000000e+00 5.8234840675444555e-01 1.2108199951143840e+01 2.5398688699461234e+00 1 0 0
580 33 4 0.0000000000000000e+00 4.1937153290730951e+00 6.7283122996741094e+00 2.7599255582272697e+00 1 0 0
228 13 3 0.0000000000000000e+00 -2.1804174375753438e-01 2.0438575354500510e+00 2.4167960908270474e+00 1 0 0
4379 233 3 0.0000000000000000e+00 3.3338630988916034e+00 9.8832792757270291e-02 4.0875064644070704e+00 1 1 0
990 53 1 0.0000000000000000e+00 -1.6622609271026294e+00 6.4738081219800048e+00 3.2957331349155035e+00 1 0 0
585 33 2 0.0000000000000000e+00 1.9771876806865167e+00 3.1679103188900473e+00 5.9273902332289090e+00 1 0 0
250 14 2 0.0000000000000000e+00 -4.0192933690546333e+00 1.6672170207339951e+00 1.3261757282789636e+01 1 0 0
4398 234 4 0.0000000000000000e+00 -1.1471268189730273e+00 9.8308253866882278e-01 1.1308727006008510e+01 1 1 0
733 13 6 0.0000000000000000e+00 -4.5866972089494729e-01 2.4334181889342488e+00 2.9224202462504705e+00 1 0 0
1769 94 2 0.0000000000000000e+00 -3.9392996992400908e+00 1.7093145702598321e+01 8.1929263005094715e+00 1 0 0
218 13 5 0.0000000000000000e+00 -3.0673635212727879e-01 4.3345081818377844e+00 3.2840951291219231e+00 1 0 0
999 54 1 0.0000000000000000e+00 -5.0414822808585438e+00 1.0903781412965435e+01 1.1224594833901811e+01 1 0 0
1012 54 2 0.0000000000000000e+00 -4.0934778744235221e+00 5.1661334768919858e+00 9.4974932158250152e+00 1 0 0
1362 74 2 0.0000000000000000e+00 -1.4257565638305354e+00 1.0889226299621713e+01 8.1850148211980258e+00 1 0 0
1364 74 1 0.0000000000000000e+00 1.5658090978715506e+00 1.2508284520200434e+01 8.7595242174965158e+00 1 0 0
2107 113 4 0.0000000000000000e+00 5.3237377072185375e+00 1.6934015817463251e+01 2.7989452820186038e+00 1 0 0
1768 94 1 0.0000000000000000e+00 -2.9687136181098128e+00 1.5724968930452276e+01 9.4295610015271887e+00 1 0 0
2108 113 3 0.0000000000000000e+00 4.0359453915827945e+00 1.6755151887176989e+01 3.1658881816021824e+00 1 0 0
4382 233 2 0.0000000000000000e+00 5.3158830960683989e+00 2.8297620066063405e+00 3.6387531777459889e+00 1 1 0
600 34 2 0.0000000000000000e+00 9.8222129161705585e-01 8.3998262298583022e+00 1.1786981917545285e+01 1 0 0
1350 73 1 0.0000000000000000e+00 5.4486955725948150e+00 1.2174797930503791e+01 1.7296118688113635e+00 1 0 0
1005 54 4 0.0000000000000000e+00 -2.7626841547260699e+00 8.1358875809839102e+00 1.0312904715721178e+01 1 0 0
579 33 3 0.0000000000000000e+00 3.6425185129261131e+00 5.7756861607191716e+00 3.6457248915461618e+00 1 0 0
1282 69 2 0.0000000000000000e+00 -3.3365781507503991e+00 1.3128942191775124e+01 6.0737258066261290e+00 1 0 0
2118 114 4 0.0000000000000000e+00 7.6903119234824491e-01 1.5853383990718092e+01 9.3955297931512725e+00 1 0 0
596 34 5 0.0000000000000000e+00 7.3050027569738862e-01 6.7527402248753337e+00 1.0335600834374818e+01 1 0 0
224 13 2 0.0000000000000000e+00 -8.2083697699534586e-01 3.0632511905455506e+00 5.5899231126709408e+00 1 0 0
588 33 3 0.0000000000000000e+00 3.4631501367860018e+00 4.4784631735273317e+00 3.1662438615788515e+00 1 0 0
589 33 4 0.0000000000000000e+00 2.7281249832706802e+00 3.5741167232503237e+00 3.9730563038632791e+00 1 0 0
994 53 2 0.0000000000000000e+00 -1.9377246981428193e+00 5.4573498521713972e+00 3.2203137541248594e+00 1 0 0
753 33 6 0.0000000000000000e+00 3.6266562131021978e+00 5.1768248861741339e+00 3.2793823556570918e+00 1 0 0
2121 114 2 0.0000000000000000e+00 -3.9121977230162663e-01 1.7527620513500533e+01 7.6283654174884088e+00 1 0 0
989 53 4 0.0000000000000000e+00 -4.2328867682249904e-01 1.0473658233512317e+01 3.5707650795521406e+00 1 0 0
578 33 5 0.0000000000000000e+00 3.4127017437589968e+00 6.1464119150325152e+00 4.9864579252182093e+00 1 0 0
1341 73 1 0.0000000000000000e+00 1.7170247034650177e+00 1.0738054446749501e+01 4.8872522723805405e+00 1 0 0
1272 69 2 0.0000000000000000e+00 -2.0084847684981257e+00 1.1767435853973712e+01 4.4627936629159750e+00 1 0 0
2109 113 4 0.0000000000000000e+00 3.3045299688105891e+00 1.5632601824434635e+01 2.8055853613787161e+00 1 0 0
587 33 4 0.0000000000000000e+00 3.8535132807558714e+00 4.0745989193577685e+00 1.8795698519785020e+00 1 0 0
991 53 2 0.0000000000000000e+00 -2.7385538624911598e+00 6.8224411635698932e+00 5.0961136861261886e+00 1 0 0
1746 93 1 0.0000000000000000e+00 -1.2678124680133473e+00 1.4372594989010816e+01 5.3897862109329271e+00 1 0 0
234 13 2 0.0000000000000000e+00 -7.0393679564916045e-01 6.5364869762299305e-01 5.9023934490126075e+00 1 0 0
2122 114 2 0.0000000000000000e+00 9.8260318202473940e-01 1.5482978247259100e+01 8.3382061538935801e+00 1 0 0
1365 74 4 0.0000000000000000e+00 1.4942996714093004e+00 1.2494177124640590e+01 1.0188229954268390e+01 1 0 0
1760 94 2 0.0000000000000000e+00 -5.9427537413662117e+00 1.1195522720514695e+01 1.1493561939264895e+01 1 0 0
604 34 1 0.0000000000000000e+00 -1.4265875148470721e+00 3.3311576404909089e+00 9.3070954792034151e+00 1 0 0
233 13 2 0.0000000000000000e+00 2.5686320904294363e-01 1.8734640272975276e+00 3.1410904839805265e-01 1 0 0
983 53 2 0.0000000000000000e+00 5.3921551006404356e-01 8.2003035265838182e+00 5.5241252863893531e-01 1 0 0
2101 113 1 0.0000000000000000e+00 1.9891604189519869e+00 1.5454165729335228e+01 3.2711889764674509e+00 1 0 0
1003 54 2 0.0000000000000000e+00 -5.0060948739070881e+00 1.1945485720335929e+01 1.1557911710932741e+01 1 0 0
1363 74 2 0.0000000000000000e+00 -1.0764546684292267e+00 1.1401296413904763e+01 1.3790569814581383e+01 1 0 0
1390 75 2 0.0000000000000000e+00 -4.9051663103758454e+00 1.1286839292680472e+01 1.4101255842210929e+01 1 0 0
993 53 2 0.0000000000000000e+00 -6.7310596491347319e-01 1.1138275516054303e+01 4.3919079738117022e+00 1 0 0
217 13 7 0.0000000000000000e+00 5.5145091711223504e-02 4.8006076619520233e+00 1.9746931032605985e+00 1 0 0
1757 94 3 0.0000000000000000e+00 -4.5390370789090291e+00 1.4127049735176643e+01 1.0488057502184876e+01 1 0 0
594 33 2 0.0000000000000000e+00 4.9707561709316836e+00 7.1608438576468147e+00 7.4246683681304604e-01 1 0 0
2254 94 6 0.0000000000000000e+00 -5.0445143447629803e+00 1.4590900390708567e+01 1.0283555955035236e+01 1 0 0
603 34 2 0.0000000000000000e+00 -7.5269977893572282e-01 7.6215697161001019e+00 1.3294416904765654e+01 1 0 0
251 14 2 0.0000000000000000e+00 -6.2801110327985068e+00 2.5837846547572614e+00 1.2538380169277172e+01 1 0 0
612 34 2 0.0000000000000000e+00 -2.2227714783404284e-01 3.2457317660429110e+00 7.5111924519893387e+00 1 0 0
597 34 3 0.0000000000000000e+00 -1.2565840348893964e-02 5.6200157917115039e+00 9.9502433999669986e+00 1 0 0
734 14 6 0.0000000000000000e+00 -4.6259328482974116e+00 2.3274952305009204e+00 1.0490250248022122e+01 1 0 0
4408 234 1 0.0000000000000000e+00 -2.5454018342093043e+00 1.0339928584867542e+00 1.1241927832114889e+01 1 1 0
2038 109 1 0.0000000000000000e+00 -2.0055340851883585e+00 1.7336139186797631e+01 3.6841101875042934e+00 1 0 0
4383 233 2 0.0000000000000000e+00 3.3049301885002573e+00 2.1337442309882766e+00 4.9259531150993503e+00 1 1 0
237 14 3 0.0000000000000000e+00 -4.3779340735213834e+00 2.3128299785995936e+00 9.8479493949590893e+00 1 0 0
2105 113 2 0.0000000000000000e+00 1.4380312886570594e+00 1.4537059640988183e+01 2.9681060417199023e+00 1 0 0
1354 73 2 0.0000000000000000e+00 6.0624694108746437e+00 1.2460423850419613e+01 8.7274058691245360e-01 1 0 0
2125 114 4 0.0000000000000000e+00 5.3059840241230560e-01 1.6724178495626315e+01 1.2009706229617635e+01 1 0 0
1353 73 2 0.0000000000000000e+00 3.5054332717039829e+00 1.0580959852871956e+01 6.0317607413409871e+00 1 0 0
586 33 1 0.0000000000000000e+00 4.4010515944941124e+00 5.0736647525668346e+00 1.0554149702975837e+00 1 0 0
246 14 3 0.0000000000000000e+00 -4.7496443533233954e+00 2.2616748417765336e+00 1.1192943018562080e+01 1 0 0
1744 93 2 0.0000000000000000e+00 1.1298464781756454e+00 1.6280629118908774e+01 4.0727126526520161e+00 1 0 0
605 34 4 0.0000000000000000e+00 -1.7135363871088787e+00 4.0635501849035087e+00 1.0432048693814888e+01 1 0 0
606 34 3 0.0000000000000000e+00 -1.0937553926164103e+00 5.2863948456434988e+00 1.0759693683262650e+01 1 0 0
607 34 4 0.0000000000000000e+00 -1.3743708077774430e+00 6.0171898307194818e+00 1.1934859807708023e+01 1 0 0
995 54 7 0.0000000000000000e+00 -6.2849172123942090e+00 1.0337160691877759e+01 1.1018541959686583e+01 1 0 0
1009 54 2 0.0000000000000000e+00 -2.0069043575797210e+00 6.0812995523348050e+00 1.0011719509324447e+01 1 0 0
984 53 2 0.0000000000000000e+00 -4.1679085158587215e-01 6.3526650570675374e+00 1.5819817915592098e+00 1 0 0
2505 133 2 0.0000000000000000e+00 -1.6415430741308801e+00 1.7607643561581128e+01 5.1393125516846681e+00 1 0 0
598 34 4 0.0000000000000000e+00 3.3217309890783753e-01 4.8742553064192240e+00 8.8081109616469657e+00 1 0 0
754 34 6 0.0000000000000000e+00 -4.3753512054905652e-01 5.2623957697626880e+00 1.0491699672395844e+01 1 0 0
1754 93 2 0.0000000000000000e+00 -1.5108560025615247e-01 1.5979146317641364e+01 6.1691731659545610e+00 1 0 0
1737 93 7 0.0000000000000000e+00 4.9752502934202969e-01 1.4099936246012978e+01 6.4578888966216885e-01 1 0 0
1008 54 1 0.0000000000000000e+00 -4.0900367054723485e+00 6.2025781951908217e+00 9.8016539300354495e+00 1 0 0
247 14 4 0.0000000000000000e+00 -5.9912042473898905e+00 2.6617355906269213e+00 1.1524473404820819e+01 1 0 0
593 33 2 0.0000000000000000e+00 2.5335849515657656e+00 2.5978047299406382e+00 3.5566903337177629e+00 1 0 0
1750 93 1 0.0000000000000000e+00 -3.0890337162032111e-01 1.5377571883100028e+01 5.2688421323695103e+00 1 0 0
979 53 3 0.0000000000000000e+00 -4.7059504898576288e-01 8.3795807955773309e+00 2.3439272352315030e+00 1 0 0
1361 74 2 0.0000000000000000e+00 -2.5597108082455775e+00 1.0351813401579657e+01 9.9511361568835692e+00 1 0 0
1372 74 2 0.0000000000000000e+00 5.0838412232946162e-01 1.1980872969234388e+01 6.9134722153881194e+00 1 0 0
4402 234 2 0.0000000000000000e+00 -5.5366996418412118e-01 1.8075842867097411e+00 1.1611685412467834e+01 1 1 0
4378 233 5 0.0000000000000000e+00 3.8725474838321716e+00 1.3964428442059706e+00 4.3186231089540952e+00 1 1 0
2253 93 6 0.0000000000000000e+00 -3.8367964258815057e-01 1.4275334344485790e+01 3.0133471407498646e+00 1 0 0
1493 53 6 0.0000000000000000e+00 -5.6232827090983561e-01 8.6456769421163635e+00 2.9775037499532724e+00 1 0 0
2502 133 2 0.0000000000000000e+00 1.4418976928517280e-01 1.6790683994104789e+01 3.4753346800610410e+00 1 0 0
1751 93 2 0.0000000000000000e+00 -1.8082044217090938e+00 1.4270663731865818e+01 6.2995395515142372e+00 1 0 0
1342 73 2 0.0000000000000000e+00 3.8411048115971180e-02 1.1066726581432054e+01 3.5260596919079528e+00 1 0 0
1764 94 1 0.0000000000000000e+00 -4.0444690759037183e+00 1.6306579022892826e+01 8.7933189258532991e+00 1 0 0
1758 94 4 0.0000000000000000e+00 -3.2593909925626829e+00 1.4724016523240143e+01 1.0458104839051362e+01 1 0 0
2097 113 7 0.0000000000000000e+00 1.3676832989674423e+00 1.6388435802467093e+01 4.1058829457327448e+00 1 0 0
229 13 4 0.0000000000000000e+00 2.0247474492144812e-02 2.5279501407157472e+00 1.1527115807573638e+00 1 0 0
2117 114 3 0.0000000000000000e+00 2.1071146333095925e-03 1.6974289119020586e+01 9.6574728048398111e+00 1 0 0
1343 73 2 0.0000000000000000e+00 1.4233138773084153e+00 1.1772477162190436e+01 1.6365000168858144e+00 1 0 0
599 34 1 0.0000000000000000e+00 -5.8000035856394572e-01 7.0610817472858463e+00 1.2316697772878543e+01 1 0 0
590 33 1 0.0000000000000000e+00 4.5357769983829215e+00 6.4167965323899550e+00 1.4457760713340255e+00 1 0 0
1356 74 5 0.0000000000000000e+00 -1.7565183676802665e+00 1.0756608617314448e+01 1.0579024215031058e+01 1 0 0
611 34 2 0.0000000000000000e+00 -2.1913508906534709e+00 5.6498660671277259e+00 1.2475432051272437e+01 1 0 0
608 34 1 0.0000000000000000e+00 -4.3780512827416640e-01 3.7944840137311542e+00 8.4234984194076716e+00 1 0 0
1338 73 5 0.0000000000000000e+00 1.9238185367119987e+00 1.1462533033717378e+01 2.5600792591005619e+00 1 0 0
1339 73 3 0.0000000000000000e+00 3.3133373739235732e+00 1.1521207377343469e+01 2.6756055196134376e+00 1 0 0
1340 73 4 0.0000000000000000e+00 4.0926280301694691e+00 1.1888785795033721e+01 1.5545951681068158e+00 1 0 0
2116 114 5 0.0000000000000000e+00 -5.4129527815493272e-01 1.7771732236835486e+01 8.6303655707598725e+00 1 0 0
2130 114 2 0.0000000000000000e+00 2.9105137459667940e-01 1.6976888644460459e+01 1.2978441402860836e+01 1 0 0
996 54 5 0.0000000000000000e+00 -6.3337437576065305e+00 8.9693346705237733e+00 1.0653987109695844e+01 1 0 0
988 53 3 0.0000000000000000e+00 -7.7028110597054633e-01 9.1043689873435820e+00 3.4863202261641901e+00 1 0 0
1348 73 3 0.0000000000000000e+00 3.8717048676059518e+00 1.1196734905179394e+01 3.9220374627873715e+00 1 0 0
1349 73 4 0.0000000000000000e+00 3.1330244703738916e+00 1.0776581672312373e+01 5.0391589129530212e+00 1 0 0
252 14 2 0.0000000000000000e+00 -1.0832406941770936e+00 1.4070516871093319e+00 1.0235042318267753e+01 1 0 0
1513 73 6 0.0000000000000000e+00 3.7065846607004547e+00 1.1280249101872379e+01 3.2388064684649924e+00 1 0 0
1772 94 2 0.0000000000000000e+00 -1.9460322169439643e+00 1.6113255943529648e+01 9.2753259873347389e+00 1 0 0
4381 233 1 0.0000000000000000e+00 5.5638412969755446e+00 9.3711365075410824e-01 2.6035860922161373e+00 1 1 0
1755 94 7 0.0000000000000000e+00 -5.8501456127924714e+00 1.2189647347841801e+01 1.1053734221518434e+01 1 0 0
1347 73 4 0.0000000000000000e+00 5.2347296915864447e+00 1.1440846368513601e+01 4.0784472267165555e+00 1 0 0
2112 113 2 0.0000000000000000e+00 5.7535896295852247e+00 1.6079194687721643e+01 2.2985930367228979e+00 1 0 0
1360 74 2 0.0000000000000000e+00 -2.8586168694353207e+00 1.0384073752797111e+01 1.2479860796568317e+01 1 0 0
1011 54 2 0.0000000000000000e+00 -2.9216806671517372e+00 1.0530589956636058e+01 1.1479425286172138e+01 1 0 0
978 53 5 0.0000000000000000e+00 3.1486507118875418e-01 8.8871926956639697e+00 1.3224623012667678e+00 1 0 0
222 13 2 0.0000000000000000e+00 2.3000416129127466e-01 5.8785237784648272e+00 1.7516908859949925e+00 1 0 0
986 53 1 0.0000000000000000e+00 -2.1271381006071670e+00 7.2787543196649880e+00 4.3334593772071210e+00 1 0 0
2274 114 6 0.0000000000000000e+00 -2.9201167364696268e-01 1.7061436264319475e+01 1.0280362331223801e+01 1 0 0
223 13 2 0.0000000000000000e+00 -5.1241403929363072e-01 5.0899062014205612e+00 4.0294938720436289e+00 1 0 0
1748 93 3 0.0000000000000000e+00 -9.7666643995674940e-01 1.3888171394825322e+01 3.0043853697518483e+00 1 0 0
2113 113 2 0.0000000000000000e+00 3.7960926757442461e+00 1.4969605792810210e+01 2.1246418720784801e+00 1 0 0
245 14 4 0.0000000000000000e+00 -3.8659180714182901e+00 1.7794297601231452e+00 1.2193909643350928e+01 1 0 0
1355 74 7 0.0000000000000000e+00 -1.9691183443167333e+00 1.0759937968770183e+01 1.1992235654231978e+01 1 0 0
1740 93 4 0.0000000000000000e+00 3.6764522200811189e-01 1.5549974384527610e+01 4.0428052622650403e+00 1 0 0
4412 234 2 0.0000000000000000e+00 -3.0879156513616288e+00 1.9113117681728191e+00 1.1508893731670266e+01 1 1 0
1762 94 2 0.0000000000000000e+00 -2.4136070328601580e+00 1.4431884906496020e+01 1.1017094051022271e+01 1 0 0
977 53 7 0.0000000000000000e+00 7.2809431746085052e-01 1.0264384129557072e+01 1.4006351821573784e+00 1 0 0
1367 74 4 0.0000000000000000e+00 2.3236770162933240e-01 1.1813104771421047e+01 1.2235350158253830e+01 1 0 0
2126 114 3 0.0000000000000000e+00 -1.2483321780886758e-01 1.7348491272246513e+01 1.0959857131424382e+01 1 0 0
242 14 2 0.0000000000000000e+00 -2.8194895246143474e+00 2.0336575747342645e+00 8.3934758692278670e+00 1 0 0
591 33 2 0.0000000000000000e+00 4.7341637265348755e+00 4.7788931660236633e+00 1.2108438706295604e-01 1 0 0
998 54 4 0.0000000000000000e+00 -5.2217494969023130e+00 6.9618344057919677e+00 9.9327493531694255e+00 1 0 0
997 54 3 0.0000000000000000e+00 -5.2057859701677529e+00 8.2404411619266291e+00 1.0395513527753476e+01 1 0 0
1010 54 2 0.0000000000000000e+00 -1.8319426427361130e+00 8.5618137953003774e+00 1.0459379119125614e+01 1 0 0
238 14 4 0.0000000000000000e+00 -3.0624345942148774e+00 1.9520208459302213e+00 9.4556989779663994e+00 1 0 0
1357 74 3 0.0000000000000000e+00 -6.0971200596919228e-01 1.1312814044557424e+01 1.0034944717201451e+01 1 0 0
1741 93 1 0.0000000000000000e+00 -5.9021017212217708e-01 1.3207653864904014e+01 6.8066128610816201e-01 1 0 0
1007 54 4 0.0000000000000000e+00 -3.8614841592927465e+00 1.0144249694804321e+01 1.1072039024311561e+01 1 0 0
1494 54 6 0.0000000000000000e+00 -4.5416774368854549e+00 8.4229409938064492e+00 1.0306076206168390e+01 1 0 0
582 33 2 0.0000000000000000e+00 2.8073279710359866e+00 5.2699643662470130e+00 6.9015242012581464e+00 1 0 0
1814 97 2 0.0000000000000000e+00 5.2060852408619862e+00 1.6851112262683877e+01 2.7406467541045592e+00 1 0 0
1738 93 5 0.0000000000000000e+00 7.9819924351298566e-01 1.4930393493053746e+01 1.7504243986598125e+00 1 0 0
1359 74 1 0.0000000000000000e+00 -9.4751434137590884e-01 1.1273182929553570e+01 1.2762888610855416e+01 1 0 0
1514 74 6 0.0000000000000000e+00 -2.6500155462995068e-01 1.1657608200582619e+01 1.0544483801670724e+01 1 0 0
1743 93 2 0.0000000000000000e+00 1.5747727912565186e+00 1.5674625813794890e+01 1.7418288559134858e+00 1 0 0
1747 93 4 0.0000000000000000e+00 -1.6118297343784227e+00 1.3662110762750288e+01 4.2267491143935221e+00 1 0 0
1756 94 5 0.0000000000000000e+00 -4.7062683577291180e+00 1.2918287170432189e+01 1.1159367155363226e+01 1 0 0
987 53 4 0.0000000000000000e+00 -1.6331579412754524e+00 8.5834133703734725e+00 4.4678705576456279e+00 1 0 0
1366 74 3 0.0000000000000000e+00 3.8824256309307614e-01 1.1836874323233468e+01 1.0821943423042466e+01 1 0 0
2273 113 6 0.0000000000000000e+00 3.6331958117136969e+00 1.7329058866341661e+01 3.3846240495607676e+00 1 0 0
2102 113 2 0.0000000000000000e+00 3.2412810722667196e-01 1.6331522820381146e+01 4.5164654745599062e+00 1 0 0
1344 73 2 0.0000000000000000e+00 3.5547477899192605e+00 1.1901622214232185e+01 6.1865515345351108e-01 1 0 0
1358 74 4 0.0000000000000000e+00 -5.7480882636488140e-01 1.1340682347975909e+01 8.6768046726153418e+00 1 0 0
583 33 2 0.0000000000000000e+00 3.6652551768324910e+00 7.0978439154466093e+00 5.3987450153848258e+00 1 0 0
584 33 2 0.0000000000000000e+00 4.3830569103445622e+00 7.7154300085667336e+00 3.1165739547390614e+00 1 0 0
1766 94 3 0.0000000000000000e+00 -5.5801941683995544e+00 1.4648559265905574e+01 9.7992993989862143e+00 1 0 0
1006 54 3 0.0000000000000000e+00 -3.9687456707353967e+00 8.8323081752614172e+00 1.0618932268978531e+01 1 0 0
577 33 7 0.0000000000000000e+00 2.8852857219540806e+00 5.1288753320809048e+00 5.8283071068345098e+00 1 0 0
225 13 2 0.0000000000000000e+00 2.1716139461151743e-01 4.2204045825987340e+00 -7.8839831533757287e-02 1 0 0
220 13 4 0.0000000000000000e+00 -7.6665556207018115e-01 2.4007882740664548e+00 4.7399880288644054e+00 1 0 0
1765 94 4 0.0000000000000000e+00 -5.3758606155547124e+00 1.5858019659146088e+01 9.0323152013643035e+00 1 0 0
1368 74 1 0.0000000000000000e+00 5.5146049927289642e-01 1.1902944323432212e+01 8.0160109872337433e+00 1 0 0
2532 134 2 0.0000000000000000e+00 -5.1685854404333895e+00 1.7287044108524395e+01 1.3199367984808706e+01 1 0 0
1761 94 2 0.0000000000000000e+00 -3.8091155773627796e+00 1.2451759655973081e+01 1.1557529917518844e+01 1 0 0
221 13 1 0.0000000000000000e+00 9.4710071723257405e-02 3.8709259948174783e+00 9.1398705600997832e-01 1 0 0
227 13 4 0.0000000000000000e+00 -3.3562914000495381e-01 6.9905224558436496e-01 2.6080857121228820e+00 1 0 0
602 34 2 0.0000000000000000e+00 1.1208334683686072e+00 5.1986755266357774e+00 8.1023930587479605e+00 1 0 0
2042 109 2 0.0000000000000000e+00 -9.7453881276082366e-01 1.7316825693754161e+01 4.0697113385777479e+00 1 0 0
609 34 2 0.0000000000000000e+00 -1.9963760823942782e+00 2.4351614777326036e+00 9.1671549464668303e+00 1 0 0
1337 73 7 0.0000000000000000e+00 1.1299069614432393e+00 1.1057491835869182e+01 3.6439907558275504e+00 1 0 0
248 14 1 0.0000000000000000e+00 -2.1651234248391495e+00 1.5152268595811491e+00 1.0461372437217252e+01 1 0 0
249 14 2 0.0000000000000000e+00 -1.7911700606348404e+00 1.1820448447817553e+00 1.2500547556552956e+01 1 0 0
244 14 1 0.0000000000000000e+00 -2.5588219657612417e+00 1.4421270508005151e+00 1.1813828115450125e+01 1 0 0
1739 93 3 0.0000000000000000e+00 6.5615079482642891e-02 1.4782409322773709e+01 2.9127727003732606e+00 1 0 0
510 29 2 0.0000000000000000e+00 -2.5204046711320776e+00 2.8945267875751415e+00 3.9701723859304785e+00 1 0 0
610 34 2 0.0000000000000000e+00 -2.4764789074160447e+00 3.6351188032692918e+00 1.1099591475294730e+01 1 0 0
4031 213 2 0.0000000000000000e+00 -7.9558772223250052e-01 8.2175678954413439e-02 2.8071572351885536e+00 1 1 0
1004 54 1 0.0000000000000000e+00 -2.8660632339455789e+00 6.7885953148022100e+00 1.0026440076829193e+01 1 0 0
1749 93 4 0.0000000000000000e+00 -1.3806379112932796e+00 1.3166363574765192e+01 1.8494510827355093e+00 1 0 0
592 33 2 0.0000000000000000e+00 3.7474939822033941e+00 3.0181634835516258e+00 1.6054746655213867e+00 1 0 0
1345 73 2 0.0000000000000000e+00 1.0815144403003818e+00 1.0558513894544124e+01 5.7868100132537883e+00 1 0 0
230 13 1 0.0000000000000000e+00 -6.1777618473651286e-01 1.0183310210293230e+00 4.9474423752697678e+00 1 0 0
581 33 1 0.0000000000000000e+00 2.4911051430846305e+00 3.8822749506842134e+00 5.3152797451544895e+00 1 0 0
2124 114 1 0.0000000000000000e+00 1.2160681006095553e+00 1.5540608844824432e+01 1.1755159834253371e+01 1 0 0
981 53 1 0.0000000000000000e+00 3.6886705679446541e-01 1.0994548017115873e+01 2.5291988225726318e+00 1 0 0
4384 233 2 0.0000000000000000e+00 1.6292920192221696e+00 3.9727607116985625e-01 5.3985024425552366e+00 1 1 0
992 53 2 0.0000000000000000e+00 -2.0149225585039803e+00 9.2075171165551524e+00 5.2270070583463468e+00 1 0 0
2128 114 1 0.0000000000000000e+00 1.4158690809116186e+00 1.5166241627679714e+01 1.0434080190353553e+01 1 0 0
595 34 7 0.0000000000000000e+00 4.5944501620515776e-01 7.5323820132301034e+00 1.1483412649785709e+01 1 0 0
1752 93 2 0.0000000000000000e+00 -2.3416786298292536e+00 1.2896747322629922e+01 4.3662945658138987e+00 1 0 0
1369 74 2 0.0000000000000000e+00 2.3261717837848055e+00 1.3052085221676577e+01 8.2708612327185662e+00 1 0 0
4377 233 7 0.0000000000000000e+00 4.9285303772203086e+00 1.8012127090941576e+00 3.5026028458662468e+00 1 1 0
1841 98 2 0.0000000000000000e+00 1.3899398510747263e+00 1.2206037242622356e+01 9.5606772603827430e+00 1 0 0
601 34 2 0.0000000000000000e+00 1.5658844236096430e+00 7.0000119588082539e+00 9.6813947375607263e+00 1 0 0
980 53 4 0.0000000000000000e+00 -8.2566961616819623e-01 7.0119918282462512e+00 2.3205227111878686e+00 1 0 0
2099 113 3 0.0000000000000000e+00 3.4292625092931992e+00 1.7732379264346978e+01 3.9388123006986770e+00 1 0 0
2098 113 5 0.0000000000000000e+00 2.1153507919851386e+00 1.7570548590574436e+01 4.3713795038812675e+00 1 0 0
1817 97 2 0.0000000000000000e+00 4.6148475148996120e+00 1.5222591861499907e+01 4.3353730421231242e+00 1 0 0
2032 109 2 0.0000000000000000e+00 -3.1285675315906647e+00 1.6428162367908460e+01 5.3061857065859064e+00 1 0 0
1809 97 7 0.0000000000000000e+00 5.7997715819990026e+00 1.5964909718037786e+01 2.8089877362799691e+00 1 0 0
1813 97 1 0.0000000000000000e+00 5.4460855466439835e+00 1.5004843122041244e+01 3.7694975405623339e+00 1 0 0
2132 114 2 0.0000000000000000e+00 1.9478208521852638e+00 1.4269367515122967e+01 1.0133098789801840e+01 1 0 0
1346 73 1 0.0000000000000000e+00 6.0257140905024560e+00 1.1872104947744377e+01 2.9748592243440806e+00 1 0 0
226 13 1 0.0000000000000000e+00 -5.0049900158133975e-01 1.5727676387074410e-01 3.8343480889171300e+00 1 0 0
1742 93 2 0.0000000000000000e+00 1.1392168202191766e+00 1.4232593357965873e+01 -2.1108179467309041e-01 1 0 0
1057 57 2 0.0000000000000000e+00 7.9218554683613291e+00 6.9137483091154364e+00 -3.4725773522482067e-01 1 0 0
1065 57 2 0.0000000000000000e+00 6.8578594496068197e+00 6.0697467283597470e+00 1.6134815196095615e+00 1 0 0
232 13 2 0.0000000000000000e+00 -1.1307961585076387e-01 2.9643660476648816e-02 1.7519733224478369e+00 1 0 0
1844 98 2 0.0000000000000000e+00 3.2599634106281368e+00 1.2039585856975560e+01 8.1942846676035437e+00 1 0 0
1836 98 1 0.0000000000000000e+00 2.2329995335046871e+00 1.2715404257630263e+01 9.8828694830980712e+00 1 0 0
4385 233 2 0.0000000000000000e+00 6.4090325702482200e+00 1.1789160700429642e+00 1.9941562960055434e+00 1 1 0
236 14 5 0.0000000000000000e+00 -5.3063560759087087e+00 2.7583814729745351e+00 8.8462755988967583e+00 1 0 0
2497 133 7 0.0000000000000000e+00 -2.4970618645059983e-01 1.7776946262341845e+01 3.4212287134740422e+00 1 0 0
4409 234 2 0.0000000000000000e+00 -4.3379327421809899e+00 -1.6478556729169938e-02 1.0812471349646794e+01 1 1 0
2522 134 2 0.0000000000000000e+00 -3.4554094457347384e+00 1.7728850170239689e+01 1.1772932856538018e+01 1 0 0
1790 95 2 0.0000000000000000e+00 -9.6103088103105421e+00 1.1004093197692310e+01 1.9142606491544417e+01 1 0 0
2145 115 4 0.0000000000000000e+00 -4.6129714177036192e+00 1.5424597917231738e+01 1.8844806364723667e+01 1 0 0
255 15 3 0.0000000000000000e+00 -8.5517837758500548e+00 2.7362411409109826e+00 1.8569448195213575e+01 1 0 0
274 16 4 0.0000000000000000e+00 -1.1742918615576546e+01 1.1593937025830658e+00 2.6298201910413098e+01 1 0 0
620 35 2 0.0000000000000000e+00 -5.6381208094748994e+00 6.2123230915179661e+00 1.6005374871523404e+01 1 0 0
1794 96 4 0.0000000000000000e+00 -1.2797492231611395e+01 1.3634561101458193e+01 2.3337904319740048e+01 1 0 0
1380 75 2 0.0000000000000000e+00 -5.3065956693236558e+00 9.3947122030360202e+00 1.5454461885508262e+01 1 0 0
264 15 3 0.0000000000000000e+00 -9.4054460354792884e+00 2.1928082001168412e+00 1.7572907092276225e+01 1 0 0
2161 116 4 0.0000000000000000e+00 -9.8705443215013950e+00 1.6397728879714158e+01 2.7179550431878603e+01 1 0 0
1035 56 1 0.0000000000000000e+00 -1.1305767656575679e+01 8.6798460879714412e+00 2.6837262818667380e+01 1 0 0
1397 76 2 0.0000000000000000e+00 -1.0537119785250802e+01 9.0958636405988056e+00 2.3770407512660142e+01 1 0 0
735 15 6 0.0000000000000000e+00 -8.9216214170084545e+00 2.4203016983820436e+00 1.8041613570504897e+01 1 0 0
4347 231 2 0.0000000000000000e+00 -1.0494826662101115e+01 5.0785696548949133e-01 1.8060441504786819e+01 1 1 0
4426 235 1 0.0000000000000000e+00 -5.2743056681876501e+00 1.2604797211044214e+00 1.7047569535273276e+01 1 1 0
1031 56 7 0.0000000000000000e+00 -1.2375420276889411e+01 9.0474812393472135e+00 2.7695813224529978e+01 1 0 0
1800 96 1 0.0000000000000000e+00 -1.4197871785227971e+01 1.1950933785135065e+01 2.4468266860154632e+01 1 0 0
615 35 3 0.0000000000000000e+00 -5.0429012905288912e+00 5.0799579579706045e+00 1.7746682628926827e+01 1 0 0
1382 75 1 0.0000000000000000e+00 -4.3587121550508048e+00 1.2561277134782099e+01 1.5786236440855518e+01 1 0 0
2137 115 1 0.0000000000000000e+00 -5.8591373782942053e+00 1.4780998064705342e+01 1.8792857956545529e+01 1 0 0
624 35 3 0.0000000000000000e+00 -4.6287609011236244e+00 5.2595876533391870e+00 1.9048507722841805e+01 1 0 0
625 35 4 0.0000000000000000e+00 -4.1201386678062137e+00 4.1185637034210325e+00 1.9698447909527200e+01 1 0 0
1407 76 2 0.0000000000000000e+00 -9.4841112240885401e+00 1.1464882135844832e+01 2.8094503213417749e+01 1 0 0
755 35 6 0.0000000000000000e+00 -4.9344469250462097e+00 5.1181937497595289e+00 1.8434638368968997e+01 1 0 0
2143 115 4 0.0000000000000000e+00 -3.1323522331665696e+00 1.7246346795556487e+01 1.8166944635702059e+01 1 0 0
614 35 5 0.0000000000000000e+00 -5.0256691319220028e+00 3.8005142598799031e+00 1.7121865513604195e+01 1 0 0
1797 96 2 0.0000000000000000e+00 -1.1377698825085877e+01 1.6033483420589871e+01 2.3688943328737544e+01 1 0 0
1804 96 1 0.0000000000000000e+00 -1.3415694154001249e+01 1.2335130591182574e+01 2.3375648647495936e+01 1 0 0
616 35 4 0.0000000000000000e+00 -5.4769216557697877e+00 6.2067236421788028e+00 1.7042836251648442e+01 1 0 0
2141 115 2 0.0000000000000000e+00 -6.0559718242348941e+00 1.3886209157842249e+01 1.9342247698406897e+01 1 0 0
2163 116 4 0.0000000000000000e+00 -1.0733969047389618e+01 1.7658216009575973e+01 2.5357900633273054e+01 1 0 0
4437 236 2 0.0000000000000000e+00 -1.0334000795462991e+01 1.9095826425167584e-01 2.8026387919662461e+01 1 1 0
2133 115 7 0.0000000000000000e+00 -6.8960689244783868e+00 1.5426414110040461e+01 1.8166105926300673e+01 1 0 0
2540 135 2 0.0000000000000000e+00 -9.2833178568255725e+00 1.7787360763349159e+01 1.8944833967078541e+01 1 0 0
270 15 2 0.0000000000000000e+00 -9.3808549760902888e+00 6.1425600747445701e+00 1.8227224393076682e+01 1 0 0
634 36 4 0.0000000000000000e+00 -9.0324509214947781e+00 5.1632427034886357e+00 2.7223928084937626e+01 1 0 0
1806 96 2 0.0000000000000000e+00 -1.4791794865835719e+01 1.2557541666143791e+01 2.6416598016453491e+01 1 0 0
1798 96 2 0.0000000000000000e+00 -1.2287349483449859e+01 1.3945555177323511e+01 2.2475886189957755e+01 1 0 0
1047 56 2 0.0000000000000000e+00 -1.0700078024517289e+01 8.1020265566748648e+00 2.4786321928268521e+01 1 0 0
2154 116 4 0.0000000000000000e+00 -7.2855764466299018e+00 1.6719298864635828e+01 2.6393059979102112e+01 1 0 0
618 35 2 0.0000000000000000e+00 -4.6172908826493586e+00 1.7126255923003180e+00 1.7378591825197656e+01 1 0 0