LAMMPS (15 May 2015)
Reading data file ...
  triclinic box = (-0.107635 -0.0404339 -0.357111) to (41.3876 35.9384 29.5551) with tilt (-0.0672341 -17.0362 -0.0417078)
  5 by 2 by 2 MPI processor grid
  reading atoms ...
  4560 atoms
  reading velocities ...
  4560 velocities
  scanning bonds ...
  3 = max bonds/atom
  scanning angles ...
  3 = max angles/atom
  scanning dihedrals ...
  8 = max dihedrals/atom
  scanning impropers ...
  1 = max impropers/atom
  reading bonds ...
  5040 bonds
  reading angles ...
  7200 angles
  reading dihedrals ...
  10560 dihedrals
  reading impropers ...
  2400 impropers
Finding 1-2 1-3 1-4 neighbors ...
 Special bond factors lj:   0          0          0         
 Special bond factors coul: 0          0          0         
  4 = max # of 1-2 neighbors
  8 = max # of 1-3 neighbors
  20 = max # of 1-4 neighbors
  16 = max # of special neighbors
4560 atoms in group all
720 atoms in group C
480 atoms in group S
1920 atoms in group H
720 atoms in group Si
240 atoms in group Na
240 atoms in group Ba
240 atoms in group O
4560 atoms in group naphthalene
2400 atoms in group carbon
960 atoms in group CO
Setting atom values ...
  720 settings made for charge
Setting atom values ...
  720 settings made for charge
Setting atom values ...
  1920 settings made for charge
Setting atom values ...
  480 settings made for charge
Setting atom values ...
  240 settings made for charge
Setting atom values ...
  240 settings made for charge
Setting atom values ...
  240 settings made for charge
Finding 1-2 1-3 1-4 neighbors ...
 Special bond factors lj:   0          0          0.5       
 Special bond factors coul: 0          0          0.5       
  4 = max # of 1-2 neighbors
  8 = max # of 1-3 neighbors
  20 = max # of 1-4 neighbors
  16 = max # of special neighbors
Neighbor list info ...
  4 neighbor list requests
  update every 1 steps, delay 0 steps, check yes
  master list distance cutoff = 12
Setting up run ...
Memory usage per processor = 13.4064 Mbytes
Step Temp Density PotEng E_vdwl E_tail E_coul E_long Press Volume Xy Xz Yz E_mol E_bond E_angle E_dihed 14[1] 14[2] 14[3] msd[4] msd2[4] msd3[4] msd4[4] naphthal Cella Cellb Cellc CellAlpha CellBeta CellGamma 2 3 27[1] 27[2] 27[3] 28[1] 28[2] 28[3] 
       0          298    1.2509986     3498.833            0            0            0            0   -15873.524    44657.537 -0.067234084   -17.036218 -0.041707817     3498.833    1521.0094     935.4334    889.67826    28.379601    18.846571    14.337846 7.7711016e-30 8.8746852e-30 6.8181724e-30 5.7534156e-30          298     41.49527    35.978931    34.423473    90.016431    119.66323    90.107069 1.857299e-32 4.9466509e-24    28.379557    18.849013    14.339638    28.379812    18.845474    14.337264 
   10000    296.54226    1.2509986    3582.3866            0            0            0            0    1430.1142    44657.537 -0.067234084   -17.036218 -0.041707817    3582.3866    1486.5968    1021.3839    916.72792    28.370822    18.850828    14.338546 0.00033705477 0.0003359226    2.5068723    2.5067613    296.54226     41.49527    35.978931    34.423473    90.016431    119.66323    90.107069 0.0060164935    202.23286    28.380115    18.849298    14.338778    28.370944    18.851087    14.338171 
   20000    299.27168    1.2509986    3638.1095            0            0            0            0   -1778.8922    44657.537 -0.067234084   -17.036218 -0.041707817    3638.1095    1504.6545    1021.7556    949.92791    28.384801    18.853852    14.338464 0.00031885935 0.00031791902    3.8909484    3.8908611    299.27168     41.49527    35.978931    34.423473    90.016431    119.66323    90.107069 0.0093382761    191.31561    28.378976    18.849782    14.339747     28.38522    18.853084    14.337672 
   30000    298.22362    1.2509986    3533.6601            0            0            0            0   -99.192402    44657.537 -0.067234084   -17.036218 -0.041707817    3533.6601    1462.5789    1033.4509    888.69354    28.376141    18.848731    14.338606 0.00036459929 0.00036377418    4.7717362    4.7716761    298.22362     41.49527    35.978931    34.423473    90.016431    119.66323    90.107069  0.011452167    218.75958    28.379543    18.849026     14.33873    28.375739    18.851746    14.339297 
   40000    299.16114    1.2509986    3594.6656            0            0            0            0    1260.0604    44657.537 -0.067234084   -17.036218 -0.041707817    3594.6656     1501.153    1021.4196    917.52982    28.378308    18.849559    14.341692 0.00035765974 0.00035734141    5.4843091    5.4842487    299.16114     41.49527    35.978931    34.423473    90.016431    119.66323    90.107069  0.013162342    214.59584    28.379399    18.848482    14.339532    28.375887    18.850656    14.341525 
   50000    296.21905    1.2509986    3620.2458            0            0            0            0   -932.43414    44657.537 -0.067234084   -17.036218 -0.041707817    3620.2458    1483.5037     1061.442    917.00073    28.381971    18.847625    14.339426 0.00036262211 0.00036063604    5.8613851    5.8613663    296.21905     41.49527    35.978931    34.423473    90.016431    119.66323    90.107069  0.014067324    217.57327    28.380628    18.849927    14.339607     28.38221    18.847604    14.340185 
   60000    300.48243    1.2509986    3606.7712            0            0            0            0   -420.00429    44657.537 -0.067234084   -17.036218 -0.041707817    3606.7712    1492.6732    1043.0097    916.15047    28.382422    18.846561     14.33858 0.00036853819 0.00036276987     6.262905    6.2628983    300.48243     41.49527    35.978931    34.423473    90.016431    119.66323    90.107069  0.015030972    221.12292    28.378393    18.850591    14.338251    28.381738    18.847193    14.337458 
   70000    299.30091    1.2509986    3630.0709            0            0            0            0    561.36645    44657.537 -0.067234084   -17.036218 -0.041707817    3630.0709    1574.0309    1020.7264    882.69279     28.38492    18.848717    14.330111 0.00037553129 0.00037505905    6.4694851    6.4694207    299.30091     41.49527    35.978931    34.423473    90.016431    119.66323    90.107069  0.015526764    225.31877    28.379014    18.848719    14.339941    28.384516    18.847339    14.331036 
   80000    296.63825    1.2509986    3568.9898            0            0            0            0    -267.0289    44657.537 -0.067234084   -17.036218 -0.041707817    3568.9898    1468.2031    1012.9732    927.58897    28.381395     18.84873    14.343762 0.00036328814 0.0003604845    6.6835853    6.6835246    296.63825     41.49527    35.978931    34.423473    90.016431    119.66323    90.107069  0.016040605    217.97289    28.379492    18.847932    14.338361    28.382675    18.847464    14.344232 
   90000    299.44053    1.2509986    3569.5188            0            0            0            0   -578.60578    44657.537 -0.067234084   -17.036218 -0.041707817    3569.5188    1443.7819     1053.177    915.58612    28.382748    18.846905    14.334785 0.00036420864 0.00036298757    6.6203202    6.6203015    299.44053     41.49527    35.978931    34.423473    90.016431    119.66323    90.107069  0.015888768    218.52518    28.379121     18.84822    14.339004    28.383152      18.8479     14.33597 
  100000    297.31662    1.2509986    3621.5054            0            0            0            0   -135.88679    44657.537 -0.067234084   -17.036218 -0.041707817    3621.5054    1492.8877    1047.9933    921.82953    28.380428    18.852423    14.347279 0.00035800331 0.00035701561    6.9124545    6.9123255    297.31662     41.49527    35.978931    34.423473    90.016431    119.66323    90.107069  0.016589891    214.80199    28.380113    18.848982    14.338815    28.378101    18.852474    14.346044 
  110000    292.56416    1.2509986    3587.7272            0            0            0            0    1545.5651    44657.537 -0.067234084   -17.036218 -0.041707817    3587.7272    1504.1801    1010.8401    915.21406    28.378596    18.847814    14.335914 0.0003704278 0.00036887971    7.0081495    7.0081352    292.56416     41.49527    35.978931    34.423473    90.016431    119.66323    90.107069  0.016819559    222.25668    28.380062    18.850125    14.339872    28.380321    18.848765    14.335457 
  120000    293.17986    1.2509986    3657.4667            0            0            0            0   -363.99526    44657.537 -0.067234084   -17.036218 -0.041707817    3657.4667    1544.8128    1001.3527    952.26666    28.380087    18.843502    14.341621 0.0003540629 0.00035390522    6.7854195    6.7853837    293.17986     41.49527    35.978931    34.423473    90.016431    119.66323    90.107069  0.016285007    212.43774    28.379604    18.848818    14.339296    28.379056    18.842589     14.34245 
  130000    298.88839    1.2509986    3553.9728            0            0            0            0    1341.3921    44657.537 -0.067234084   -17.036218 -0.041707817    3553.9728    1456.8232    1044.6982    901.80847    28.382197    18.848593    14.339695 0.00035923872 0.00035710861    7.0725259    7.0724892    298.88839     41.49527    35.978931    34.423473    90.016431    119.66323    90.107069  0.016974062    215.54323    28.378698    18.849841    14.340479    28.382912    18.849011    14.341088 
  140000    299.38235    1.2509986    3651.1611            0            0            0            0   -822.88402    44657.537 -0.067234084   -17.036218 -0.041707817    3651.1611    1516.8276     1042.018    930.97599    28.372511    18.853172    14.341432 0.00038860127 0.0003857388    6.9991221    6.9990015    299.38235     41.49527    35.978931    34.423473    90.016431    119.66323    90.107069  0.016797893    233.16076    28.379929     18.84778    14.340735    28.371309    18.851499    14.340735 
  150000    297.04337    1.2509986    3619.6718            0            0            0            0   -1737.0181    44657.537 -0.067234084   -17.036218 -0.041707817    3619.6718    1531.8018    1033.1921    906.75766    28.380573    18.851775    14.340269 0.00035888575 0.00035632904    6.7526728     6.752598    297.04337     41.49527    35.978931    34.423473    90.016431    119.66323    90.107069  0.016206415    215.33145     28.37824    18.848226    14.339188    28.379511    18.853406    14.340703 
  160000    297.94945    1.2509986    3515.7072            0            0            0            0   -1096.5293    44657.537 -0.067234084   -17.036218 -0.041707817    3515.7072    1467.3652    993.15585    898.30701    28.382541    18.846452    14.340006 0.00034995499 0.00034971683     6.810705    6.8106948    297.94945     41.49527    35.978931    34.423473    90.016431    119.66323    90.107069  0.016345692    209.97299    28.379425    18.849143    14.339187    28.382078    18.845406    14.339517 
  170000    299.41928    1.2509986    3625.4517            0            0            0            0    160.89998    44657.537 -0.067234084   -17.036218 -0.041707817    3625.4517    1479.2767    1034.3231    952.19741    28.378827    18.847275     14.33969 0.00033243116 0.00033153847    6.5495385    6.5495363    299.41928     41.49527    35.978931    34.423473    90.016431    119.66323    90.107069  0.015718892    199.45869    28.379791    18.848161    14.339972    28.379218    18.846684    14.336637 
  180000    304.93788    1.2509986    3514.6454            0            0            0            0    1244.2181    44657.537 -0.067234084   -17.036218 -0.041707817    3514.6454    1455.2233    994.52837    903.43655    28.380309    18.844839    14.337572 0.00035243359 0.0003523841    6.6777512    6.6777425    304.93788     41.49527    35.978931    34.423473    90.016431    119.66323    90.107069  0.016026603    211.46016    28.379773    18.849019    14.339586    28.381993    18.844418    14.335567 
  190000    297.41352    1.2509986    3633.2985            0            0            0            0    454.64573    44657.537 -0.067234084   -17.036218 -0.041707817    3633.2985    1515.6309    1006.0992    949.32576    28.378436    18.848023    14.334181 0.00034082464 0.0003389709    6.9992988    6.9992928    297.41352     41.49527    35.978931    34.423473    90.016431    119.66323    90.107069  0.016798317    204.49478    28.380185    18.849621    14.338595    28.378461    18.846712    14.335626 
  200000    294.36957    1.2509986    3688.3606            0            0            0            0    1207.1198    44657.537 -0.067234084   -17.036218 -0.041707817    3688.3606    1530.6717    1042.4735    952.38609     28.37689    18.849348    14.339404 0.00036985066 0.00036940046    6.8958168    6.8957966    294.36957     41.49527    35.978931    34.423473    90.016431    119.66323    90.107069   0.01654996    221.91039    28.378926    18.848893    14.339833    28.375964    18.847799    14.337347 
  210000    296.80672    1.2509986    3657.3414            0            0            0            0   -103.17613    44657.537 -0.067234084   -17.036218 -0.041707817    3657.3414    1522.8907    1034.7293    937.91762    28.385806    18.844508    14.346188 0.00032989948 0.00032933182    6.9019321    6.9017863    296.80672     41.49527    35.978931    34.423473    90.016431    119.66323    90.107069  0.016564637    197.93969    28.379515    18.848436    14.339155    28.387188     18.84393    14.346699 
  220000    296.43601    1.2509986    3652.5936            0            0            0            0    1699.0742    44657.537 -0.067234084   -17.036218 -0.041707817    3652.5936    1512.9545    1049.5326    934.76203     28.37658    18.853228    14.341597 0.00033997892 0.00033922737    6.9041461    6.9040694    296.43601     41.49527    35.978931    34.423473    90.016431    119.66323    90.107069  0.016569951    203.98735     28.37882    18.848996    14.339181    28.376496    18.853095     14.34004 
  230000    299.76089    1.2509986    3614.8379            0            0            0            0    676.11628    44657.537 -0.067234084   -17.036218 -0.041707817    3614.8379    1491.2424    1043.4187    918.98192    28.384448    18.845301    14.337671 0.00036260499 0.00036043926     7.099586    7.0995581    299.76089     41.49527    35.978931    34.423473    90.016431    119.66323    90.107069  0.017039006    217.56299    28.379581    18.849254    14.338187    28.384582    18.845065    14.339499 
  240000    301.88653    1.2509986    3613.0723            0            0            0            0    929.87174    44657.537 -0.067234084   -17.036218 -0.041707817    3613.0723    1514.2764     1027.821    918.20284    28.384336    18.849224    14.339335 0.00037359009 0.00037218525    7.2986822    7.2986459    301.88653     41.49527    35.978931    34.423473    90.016431    119.66323    90.107069  0.017516837    224.15405    28.378715    18.848829    14.340452    28.384992    18.847905    14.339159 
  250000    298.02118    1.2509986    3532.1923            0            0            0            0    282.65439    44657.537 -0.067234084   -17.036218 -0.041707817    3532.1923    1417.7647    1062.1551    904.20758    28.378596    18.849493    14.343548 0.00036416968 0.00036289956    7.2490886    7.2489965    298.02118     41.49527    35.978931    34.423473    90.016431    119.66323    90.107069  0.017397813    218.50181    28.378508    18.848665    14.339415    28.378474    18.850673     14.34522 
  260000    299.68586    1.2509986    3604.5965            0            0            0            0   -599.53562    44657.537 -0.067234084   -17.036218 -0.041707817    3604.5965    1506.1108    981.45907    957.01877    28.384988    18.848809    14.347267 0.00034551313 0.0003451756    7.2829747    7.2828678    299.68586     41.49527    35.978931    34.423473    90.016431    119.66323    90.107069  0.017479139    207.30788    28.379802    18.849016    14.340164    28.384254    18.847139    14.346452 
  270000    295.22572    1.2509986    3620.2428            0            0            0            0   -703.44478    44657.537 -0.067234084   -17.036218 -0.041707817    3620.2428     1461.206    1067.5583     934.3837    28.381763    18.846716    14.336688 0.00037897306 0.00037782429    7.1962001    7.1961918    295.22572     41.49527    35.978931    34.423473    90.016431    119.66323    90.107069   0.01727088    227.38383    28.380536    18.848579    14.339668    28.381215    18.845715    14.334768 
  280000    300.83843    1.2509986     3579.969            0            0            0            0    860.14879    44657.537 -0.067234084   -17.036218 -0.041707817     3579.969    1457.8145    1021.2897    942.87459    28.376035    18.853575    14.341786 0.00034200118 0.00034165107    7.0798641    7.0797475    300.83843     41.49527    35.978931    34.423473    90.016431    119.66323    90.107069  0.016991674    205.20071    28.379483    18.848671    14.339161    28.375357    18.853877    14.342381 
  290000    296.93976    1.2509986    3534.5633            0            0            0            0    205.08747    44657.537 -0.067234084   -17.036218 -0.041707817    3534.5633    1435.0686    990.22117    945.95715    28.385909    18.846256    14.336482 0.0003531107 0.00035292097    6.9738588    6.9737951    296.93976     41.49527    35.978931    34.423473    90.016431    119.66323    90.107069  0.016737261    211.86642    28.379977     18.84906    14.339742     28.38744     18.84768    14.336461 
  300000    292.67441    1.2509986    3542.7236            0            0            0            0    1464.0128    44657.537 -0.067234084   -17.036218 -0.041707817    3542.7236    1463.5289    1012.9871    907.69426    28.374448    18.850934    14.335808 0.00034887557 0.00034886148    6.8451659    6.8451235    292.67441     41.49527    35.978931    34.423473    90.016431    119.66323    90.107069  0.016428398    209.32534    28.379554    18.848944    14.339542    28.376443    18.851044    14.336974 
  310000     307.1505    1.2509986     3620.384            0            0            0            0     953.5639    44657.537 -0.067234084   -17.036218 -0.041707817     3620.384    1473.1362    1016.4438    961.11808    28.381314    18.847324    14.334644 0.00038759761 0.00038651347    6.6969064    6.6968949     307.1505     41.49527    35.978931    34.423473    90.016431    119.66323    90.107069  0.016072575    232.55857    28.379675    18.848229    14.340313    28.380896    18.848183    14.335522 
  320000    296.31915    1.2509986    3575.0821            0            0            0            0    1467.0769    44657.537 -0.067234084   -17.036218 -0.041707817    3575.0821    1480.6327    968.57858    956.56344    28.385251    18.855073     14.34244 0.00034597291 0.00034567739    6.9971133    6.9969294    296.31915     41.49527    35.978931    34.423473    90.016431    119.66323    90.107069  0.016793072    207.58375    28.379868    18.848944    14.340079    28.386123    18.856306    14.342428 
  330000    298.13172    1.2509986    3495.4707            0            0            0            0    625.02854    44657.537 -0.067234084   -17.036218 -0.041707817    3495.4707    1439.9019    998.70024    899.43329    28.378934    18.855531    14.336351 0.00030474049 0.00030425716    6.8550129    6.8548722    298.13172     41.49527    35.978931    34.423473    90.016431    119.66323    90.107069  0.016452031    182.84429    28.379693    18.848948    14.340317    28.380388    18.857276    14.336259 
  340000    298.13628    1.2509986    3653.2826            0            0            0            0   -593.01476    44657.537 -0.067234084   -17.036218 -0.041707817    3653.2826    1498.6033    1032.2331    953.61278     28.38043    18.849982    14.340019 0.00036555415 0.00036490057    6.8348115    6.8347832    298.13628     41.49527    35.978931    34.423473    90.016431    119.66323    90.107069  0.016403547    219.33249    28.379384    18.849003    14.338848    28.380594    18.850198    14.339569 
  350000    299.48886    1.2509986    3628.0707            0            0            0            0   -925.55416    44657.537 -0.067234084   -17.036218 -0.041707817    3628.0707    1514.1773    1010.9734    941.24436    28.383657    18.849181    14.346279 0.00037436799 0.00037355073    6.7317904    6.7316826    299.48886     41.49527    35.978931    34.423473    90.016431    119.66323    90.107069  0.016156297    224.62079    28.380225    18.848524        14.34    28.383512    18.849471    14.346102 
  360000    293.87051    1.2509986    3569.1429            0            0            0            0    280.27453    44657.537 -0.067234084   -17.036218 -0.041707817    3569.1429    1484.8544    1025.1885    907.75579    28.378592      18.8455    14.338146 0.00035190156 0.00035028609    6.9616198    6.9616133    293.87051     41.49527    35.978931    34.423473    90.016431    119.66323    90.107069  0.016707887    211.14094    28.379224    18.849128    14.340859     28.37988    18.845242    14.339795 
  370000    300.89788    1.2509986    3610.4651            0            0            0            0   -462.41073    44657.537 -0.067234084   -17.036218 -0.041707817    3610.4651    1497.9586    1011.3312    939.02604    28.379575    18.850286    14.331299 0.00039245786 0.00039218839    7.0261087    7.0260578    300.89788     41.49527    35.978931    34.423473    90.016431    119.66323    90.107069  0.016862661    235.47472    28.379488    18.848499    14.339625    28.378627    18.850351    14.332194 
  380000    303.32464    1.2509986    3600.6335            0            0            0            0    47.267685    44657.537 -0.067234084   -17.036218 -0.041707817    3600.6335    1462.6793    1044.2728    934.66691    28.381756    18.847161    14.336635 0.00037001577 0.00036908591    6.9231492    6.9231312    303.32464     41.49527    35.978931    34.423473    90.016431    119.66323    90.107069  0.016615558    222.00946    28.380002     18.84849    14.340314    28.383086    18.847489    14.335476 
  390000    296.76557    1.2509986    3573.7501            0            0            0            0    1073.4882    44657.537 -0.067234084   -17.036218 -0.041707817    3573.7501    1429.1735    1007.8574    972.49317     28.37813    18.851727    14.338054 0.00033317812 0.00033237269    6.8293176    6.8292791    296.76557     41.49527    35.978931    34.423473    90.016431    119.66323    90.107069  0.016390362    199.90687    28.380116    18.848358    14.339387    28.377776    18.851334    14.337209 
  400000    291.27655    1.2509986     3635.584            0            0            0            0   -790.88927    44657.537 -0.067234084   -17.036218 -0.041707817     3635.584    1488.4722    1055.1232    933.89132    28.376499    18.840103    14.337907 0.00036061242 0.0003605475    6.9824925    6.9824021    291.27655     41.49527    35.978931    34.423473    90.016431    119.66323    90.107069  0.016757982    216.36745    28.379534    18.848813    14.339481    28.375456    18.837046    14.337857 
  410000    300.37353    1.2509986    3640.0064            0            0            0            0    1026.7424    44657.537 -0.067234084   -17.036218 -0.041707817    3640.0064    1520.1202    1014.0297    939.83558    28.378773    18.850482    14.342459 0.0003358805 0.00033374906    7.0364118    7.0363811    300.37353     41.49527    35.978931    34.423473    90.016431    119.66323    90.107069  0.016887388     201.5283    28.380387    18.848604    14.338509    28.379471    18.849692    14.340843 
  420000    298.33924    1.2509986     3552.762            0            0            0            0   -128.12651    44657.537 -0.067234084   -17.036218 -0.041707817     3552.762    1502.4253    1025.7851    876.52536    28.371332    18.844189    14.335288  0.000341608 0.00034103088    7.0677076    7.0676242    298.33924     41.49527    35.978931    34.423473    90.016431    119.66323    90.107069  0.016962498     204.9648    28.380195    18.848929    14.339234    28.371006    18.843911    14.335392 
  430000     305.4067    1.2509986     3587.596            0            0            0            0   -1063.4382    44657.537 -0.067234084   -17.036218 -0.041707817     3587.596    1489.8841    1017.7815    920.67428    28.379637    18.846205    14.342584 0.00036396078 0.00036158851    6.9846407    6.9845948     305.4067     41.49527    35.978931    34.423473    90.016431    119.66323    90.107069  0.016763138    218.37647    28.380737    18.848024    14.339631    28.380016    18.843649     14.34379 
  440000    296.88349    1.2509986    3622.6097            0            0            0            0    389.57223    44657.537 -0.067234084   -17.036218 -0.041707817    3622.6097    1446.0556    1044.4075    964.60839     28.38315    18.854752    14.342661 0.00032983694 0.00032971191    7.0186239    7.0184854    296.88349     41.49527    35.978931    34.423473    90.016431    119.66323    90.107069  0.016844697    197.90216    28.379715    18.848746    14.339808    28.383389    18.855234    14.342781 
  450000    304.98622    1.2509986    3534.2868            0            0            0            0    1290.5844    44657.537 -0.067234084   -17.036218 -0.041707817    3534.2868    1419.9714    1008.5222    946.14705    28.384473    18.850131    14.335171 0.00036081006 0.0003605618    6.8732409     6.873212    304.98622     41.49527    35.978931    34.423473    90.016431    119.66323    90.107069  0.016495778    216.48604    28.379626    18.848864    14.340108    28.383824    18.849046    14.337409 
  460000    304.15363    1.2509986    3612.0129            0            0            0            0   -712.17395    44657.537 -0.067234084   -17.036218 -0.041707817    3612.0129    1493.5783    1036.6846    922.22977    28.380468    18.843121    14.343213 0.00035077582 0.00035029359    6.7556051    6.7555618    304.15363     41.49527    35.978931    34.423473    90.016431    119.66323    90.107069  0.016213452    210.46549    28.378867    18.848966    14.339704    28.379569    18.841333    14.342367 
  470000    294.44662    1.2509986    3603.7164            0            0            0            0   -209.18138    44657.537 -0.067234084   -17.036218 -0.041707817    3603.7164    1485.3121    1032.2558     928.9303    28.373397    18.850209    14.335767 0.0004010387 0.00039891116    6.7204881    6.7204356    294.44662     41.49527    35.978931    34.423473    90.016431    119.66323    90.107069  0.016129172    240.62322    28.378562    18.850073    14.339762    28.374489    18.850383    14.336932 
  480000    290.84277    1.2509986     3605.803            0            0            0            0    250.85552    44657.537 -0.067234084   -17.036218 -0.041707817     3605.803    1507.8811     1032.391     905.8837     28.38633    18.851074    14.340413 0.00037692402 0.00037628467    6.9830413    6.9829062    290.84277     41.49527    35.978931    34.423473    90.016431    119.66323    90.107069  0.016759299    226.15441    28.379255    18.849731    14.339817    28.387274    18.853202    14.341699 
  490000    300.53707    1.2509986     3642.301            0            0            0            0    369.97372    44657.537 -0.067234084   -17.036218 -0.041707817     3642.301    1493.8594    1049.3548    941.54696    28.376913    18.849529    14.341138 0.00037080763 0.00036882964    7.0320827    7.0320131    300.53707     41.49527    35.978931    34.423473    90.016431    119.66323    90.107069  0.016876999    222.48458     28.37878    18.848884    14.338473    28.376842    18.850679    14.343075 
  500000    296.92273    1.2509986    3622.8182            0            0            0            0   -1248.6788    44657.537 -0.067234084   -17.036218 -0.041707817    3622.8182    1509.6721    1013.4892    945.09391    28.378679    18.843795      14.3344 0.00041435159 0.00041134492    7.0361932    7.0361753    296.92273     41.49527    35.978931    34.423473    90.016431    119.66323    90.107069  0.016886864    248.61095     28.37905    18.847646    14.340576    28.378355    18.844033    14.333569 
  510000    300.39002    1.2509986    3548.0362            0            0            0            0    2609.9722    44657.537 -0.067234084   -17.036218 -0.041707817    3548.0362     1508.436     991.8346    893.38437    28.383023     18.85028    14.333051 0.00035924909 0.00035855724    7.0634502    7.0633752    300.39002     41.49527    35.978931    34.423473    90.016431    119.66323    90.107069   0.01695228    215.54946    28.380086    18.849237    14.339037    28.383646    18.851043    14.331853 
  520000    293.97406    1.2509986    3544.9667            0            0            0            0    1303.2123    44657.537 -0.067234084   -17.036218 -0.041707817    3544.9667    1483.8826    985.27612    921.22462    28.382729    18.845863    14.339272 0.0003696413 0.00036595589    7.3738466    7.3738091    293.97406     41.49527    35.978931    34.423473    90.016431    119.66323    90.107069  0.017697232    221.78478    28.380389    18.848824    14.341358    28.383617    18.845736     14.34206 
  530000      294.803    1.2509986    3624.4667            0            0            0            0    703.29287    44657.537 -0.067234084   -17.036218 -0.041707817    3624.4667    1467.5137    1046.9538    955.05127    28.379485    18.845856    14.335281 0.00038125716 0.00037794092    7.1586375     7.158624      294.803     41.49527    35.978931    34.423473    90.016431    119.66323    90.107069   0.01718073    228.75429    28.379448    18.849761    14.337981    28.379334    18.844995    14.333657 
  540000    295.86985    1.2509986    3544.5174            0            0            0            0    460.19104    44657.537 -0.067234084   -17.036218 -0.041707817    3544.5174    1478.0325      995.343    915.38143    28.376697    18.839172    14.343247 0.00037362125 0.00036985473    7.1140991    7.1140008    295.86985     41.49527    35.978931    34.423473    90.016431    119.66323    90.107069  0.017073838    224.17275    28.378692    18.848334    14.341238    28.375627     18.83857    14.343013 
  550000    296.97013    1.2509986    3580.5568            0            0            0            0    321.81171    44657.537 -0.067234084   -17.036218 -0.041707817    3580.5568    1468.9687    1021.4106    933.37579    28.387098    18.844953    14.342305 0.00035447042 0.0003520815    7.1579791    7.1578568    296.97013     41.49527    35.978931    34.423473    90.016431    119.66323    90.107069   0.01717915    212.68225    28.379869    18.848913    14.341148     28.38789    18.843954    14.344659 
  560000    302.71779    1.2509986    3535.1409            0            0            0            0     575.9018    44657.537 -0.067234084   -17.036218 -0.041707817    3535.1409    1468.4016    1020.6542    896.05488    28.388848      18.8505    14.342934 0.00035846228 0.0003578615    6.9015162    6.9013491    302.71779     41.49527    35.978931    34.423473    90.016431    119.66323    90.107069  0.016563639    215.07737    28.379465    18.848246    14.339578    28.389994    18.851211    14.342783 
  570000    297.27435    1.2509986    3596.2828            0            0            0            0    1303.8545    44657.537 -0.067234084   -17.036218 -0.041707817    3596.2828    1546.1825    1003.4313    896.76839    28.374638    18.841332    14.336695 0.00034814579 0.00034720296    6.8890791    6.8890392    297.27435     41.49527    35.978931    34.423473    90.016431    119.66323    90.107069   0.01653379    208.88747    28.378609      18.8489    14.339457    28.375499    18.840928    14.336442 
  580000    303.25696    1.2509986     3588.502            0            0            0            0    3339.2015    44657.537 -0.067234084   -17.036218 -0.041707817     3588.502    1463.0311    1005.6293    959.98426    28.381941    18.846892    14.343794 0.00038471754 0.00038418264    6.9452482    6.9451985    303.25696     41.49527    35.978931    34.423473    90.016431    119.66323    90.107069  0.016668596    230.83053    28.379806    18.849158     14.34031    28.381073    18.846527    14.344116 
  590000    298.03487    1.2509986    3635.1524            0            0            0            0    1131.8773    44657.537 -0.067234084   -17.036218 -0.041707817    3635.1524    1533.4367    1035.8288    911.17079    28.381801    18.846153    14.342733 0.00037889348 0.00037711623     6.958699    6.9586466    298.03487     41.49527    35.978931    34.423473    90.016431    119.66323    90.107069  0.016700878    227.33609    28.379139    18.850177    14.339141    28.382028    18.845097    14.344149 
  600000    303.29359    1.2509986    3544.6638            0            0            0            0   -1834.4052    44657.537 -0.067234084   -17.036218 -0.041707817    3544.6638    1471.4325    1024.0888    899.14842    28.376517    18.848245    14.343598 0.00038181977 0.00037869822    6.8568103    6.8567355    303.29359     41.49527    35.978931    34.423473    90.016431    119.66323    90.107069  0.016456345    229.09186     28.38118    18.849107    14.338947    28.376739    18.848428    14.344793 
  610000    294.23197    1.2509986    3500.6312            0            0            0            0   -658.54312    44657.537 -0.067234084   -17.036218 -0.041707817    3500.6312    1452.3529    1014.9417    880.77931    28.379363    18.844343    14.340433 0.00033591868 0.00033287357    6.8033854    6.8033636    294.23197     41.49527    35.978931    34.423473    90.016431    119.66323    90.107069  0.016328125    201.55121    28.379093     18.84746    14.338992    28.379957    18.844045    14.341715 
  620000    300.15612    1.2509986    3611.3226            0            0            0            0    255.75362    44657.537 -0.067234084   -17.036218 -0.041707817    3611.3226    1451.5081    1028.0782    969.16698    28.380149    18.849404    14.339891 0.00036913769 0.00036613285    7.0627027     7.062685    300.15612     41.49527    35.978931    34.423473    90.016431    119.66323    90.107069  0.016950486    221.48262     28.37996    18.850339    14.338597    28.379116    18.849465    14.338388 
  630000      303.594    1.2509986    3603.3161            0            0            0            0   -354.00309    44657.537 -0.067234084   -17.036218 -0.041707817    3603.3161    1484.4422    1033.7089    930.96246    28.377581    18.852103    14.335271 0.00036309496  0.000362013    7.1609455    7.1608565      303.594     41.49527    35.978931    34.423473    90.016431    119.66323    90.107069  0.017186269    217.85698    28.380245    18.849628    14.339158    28.377617    18.854396    14.335115 
  640000    297.57955    1.2509986    3591.1717            0            0            0            0    449.51495    44657.537 -0.067234084   -17.036218 -0.041707817    3591.1717    1458.9187    1041.0199    934.85998     28.37978    18.852279    14.337796   0.00035893 0.00035728392    7.0895168    7.0894587    297.57955     41.49527    35.978931    34.423473    90.016431    119.66323    90.107069   0.01701484      215.358    28.379958    18.850189    14.339321    28.379978    18.853081    14.336778 
  650000    297.69437    1.2509986    3583.1871            0            0            0            0   -623.65844    44657.537 -0.067234084   -17.036218 -0.041707817    3583.1871    1478.4379    1008.9756     941.7286    28.377205    18.847285     14.33883 0.00039804875 0.00039801039    7.3619619    7.3619548    297.69437     41.49527    35.978931    34.423473    90.016431    119.66323    90.107069  0.017668709    238.82925    28.379506    18.849022    14.339827    28.378911    18.847063    14.339209 
  660000    297.49949    1.2509986     3600.549            0            0            0            0    95.322437    44657.537 -0.067234084   -17.036218 -0.041707817     3600.549    1471.9529    994.23329    971.33943    28.382593    18.853108    14.340479 0.00033916838 0.0003359554    7.2812351    7.2811158    297.49949     41.49527    35.978931    34.423473    90.016431    119.66323    90.107069  0.017474964    203.50103    28.381033    18.848069    14.339262     28.38253    18.855035    14.341784 
  670000    294.79405    1.2509986    3565.5489            0            0            0            0    1396.8766    44657.537 -0.067234084   -17.036218 -0.041707817    3565.5489    1466.0407    1007.2733    930.28832     28.38221    18.851148    14.335986 0.00038298283 0.00038141042    7.2169786    7.2169535    294.79405     41.49527    35.978931    34.423473    90.016431    119.66323    90.107069  0.017320749     229.7897    28.379066    18.850103    14.340017    28.383396    18.848615    14.335715 
  680000    293.86361    1.2509986    3616.5025            0            0            0            0     2395.086    44657.537 -0.067234084   -17.036218 -0.041707817    3616.5025    1499.6078    1019.5772     938.2818    28.380045     18.84216    14.340617  0.000305538 0.00030498499     7.140625     7.140614    293.86361     41.49527    35.978931    34.423473    90.016431    119.66323    90.107069    0.0171375     183.3228    28.379955    18.848652    14.339125    28.379958    18.842442    14.338578 
  690000    297.32471    1.2509986     3520.042            0            0            0            0    2109.4448    44657.537 -0.067234084   -17.036218 -0.041707817     3520.042     1477.807    977.12614    909.29457    28.382542    18.845667    14.344604 0.00036735051 0.0003663442     7.104904    7.1048102    297.32471     41.49527    35.978931    34.423473    90.016431    119.66323    90.107069   0.01705177     220.4103    28.380085    18.849552    14.340299    28.384508    18.845175    14.345729 
  700000    303.71237    1.2509986    3579.9283            0            0            0            0    413.66481    44657.537 -0.067234084   -17.036218 -0.041707817    3579.9283     1502.912    1031.3657    898.30206    28.387653    18.846714    14.340298 0.00034015989 0.00033932877    6.9781983    6.9780998    303.71237     41.49527    35.978931    34.423473    90.016431    119.66323    90.107069  0.016747676    204.09594    28.379782      18.8482    14.339292    28.389365    18.847596    14.338929 
  710000    304.27838    1.2509986    3562.7225            0            0            0            0    375.22688    44657.537 -0.067234084   -17.036218 -0.041707817    3562.7225    1461.5764    1054.1338    891.47574    28.383928     18.83963    14.336694 0.00034897567 0.0003482201    7.0774058    7.0773472    304.27838     41.49527    35.978931    34.423473    90.016431    119.66323    90.107069  0.016985774     209.3854    28.378961    18.848993    14.340271    28.384871    18.839741    14.336899 
  720000    307.30373    1.2509986    3646.1968            0            0            0            0   -179.74805    44657.537 -0.067234084   -17.036218 -0.041707817    3646.1968    1507.0396     1059.863    920.18621    28.378997    18.853157    14.341051 0.00034627733 0.00034598172    7.0349524    7.0348744    307.30373     41.49527    35.978931    34.423473    90.016431    119.66323    90.107069  0.016883886     207.7664    28.379543    18.849453    14.339319    28.378197    18.853692    14.340078 
  730000    296.05015    1.2509986    3490.0299            0            0            0            0    1367.5189    44657.537 -0.067234084   -17.036218 -0.041707817    3490.0299    1437.8709    977.82271     917.3742    28.376671    18.844986    14.345717 0.00034051006 0.00034025999    6.9262333    6.9261569    296.05015     41.49527    35.978931    34.423473    90.016431    119.66323    90.107069   0.01662296    204.30604    28.379653     18.84897    14.340127    28.374528    18.843349    14.343894 
  740000     298.7957    1.2509986    3587.1876            0            0            0            0   -1189.3223    44657.537 -0.067234084   -17.036218 -0.041707817    3587.1876    1474.2328    1022.2902    929.81177    28.381018    18.845025    14.335074 0.00041365752 0.00041241852    7.1482425    7.1482201     298.7957     41.49527    35.978931    34.423473    90.016431    119.66323    90.107069  0.017155782    248.19451    28.379909    18.849382    14.338649    28.382672    18.845234    14.333502 
  750000    289.42091    1.2509986    3498.4572            0            0            0            0   -2607.8868    44657.537 -0.067234084   -17.036218 -0.041707817    3498.4572    1450.4237    997.24714    895.68399    28.385564    18.845806    14.341976 0.00037459681 0.00037292631    7.1185649    7.1184925    289.42091     41.49527    35.978931    34.423473    90.016431    119.66323    90.107069  0.017084556    224.75809    28.380834    18.849037    14.339441    28.385442    18.845421    14.343648 
  760000    298.52003    1.2509986    3636.8229            0            0            0            0    -1520.483    44657.537 -0.067234084   -17.036218 -0.041707817    3636.8229    1554.0231    1015.4183    911.15878    28.381311    18.851635    14.339114 0.00039232224 0.00038758545    7.3055006    7.3054314    298.52003     41.49527    35.978931    34.423473    90.016431    119.66323    90.107069  0.017533202    235.39334    28.379732    18.847688    14.341356     28.38289    18.852533     14.34042 
  770000    298.99329    1.2509986    3675.0088            0            0            0            0    395.72082    44657.537 -0.067234084   -17.036218 -0.041707817    3675.0088    1516.8223    1040.8738    955.54532    28.378272    18.847836    14.341035 0.00033294437 0.0003260424    7.1633572    7.1633471    298.99329     41.49527    35.978931    34.423473    90.016431    119.66323    90.107069  0.017192057    199.76662    28.379247    18.851567    14.339107    28.378503    18.847028    14.339702 
  780000    298.79848    1.2509986    3621.7744            0            0            0            0   -317.22207    44657.537 -0.067234084   -17.036218 -0.041707817    3621.7744    1491.6925    1043.9272    926.57393    28.374341    18.852978    14.331696 0.0003761805 0.00037530079    7.2007455    7.2006148    298.79848     41.49527    35.978931    34.423473    90.016431    119.66323    90.107069  0.017281789     225.7083    28.379211    18.848153    14.339785    28.374712    18.852364    14.329698 
  790000    293.50351    1.2509986      3696.81            0            0            0            0    94.003133    44657.537 -0.067234084   -17.036218 -0.041707817      3696.81    1530.8779    1028.3887    971.70814    28.383593    18.844758    14.344306 0.00032875641 0.00032767924    7.0162494    7.0161709    293.50351     41.49527    35.978931    34.423473    90.016431    119.66323    90.107069  0.016838999    197.25384    28.378911    18.848311    14.339228    28.383656    18.845508    14.345248 
  800000    296.73151    1.2509986    3610.4593            0            0            0            0   -268.45193    44657.537 -0.067234084   -17.036218 -0.041707817    3610.4593    1537.5263    1001.4659    912.88356    28.380205    18.856182    14.343318 0.00034730638 0.00034702832     7.412047    7.4118812    296.73151     41.49527    35.978931    34.423473    90.016431    119.66323    90.107069  0.017788913    208.38383    28.379497    18.848693    14.340053    28.380812    18.856792    14.343322 
  810000    296.29268    1.2509986     3534.679            0            0            0            0    388.34146    44657.537 -0.067234084   -17.036218 -0.041707817     3534.679     1436.614    1030.8982    912.51871    28.383205    18.856209    14.337656 0.00037263421 0.00037254912    7.3250962    7.3249792    296.29268     41.49527    35.978931    34.423473    90.016431    119.66323    90.107069  0.017580231    223.58053    28.379614    18.849296    14.339595    28.382102    18.856044    14.337096 
  820000    305.61865    1.2509986    3587.8346            0            0            0            0     1099.824    44657.537 -0.067234084   -17.036218 -0.041707817    3587.8346    1465.8288    1028.0779    938.96825    28.382349    18.846715    14.342471 0.00036049737 0.00035917797    7.2496357     7.249587    305.61865     41.49527    35.978931    34.423473    90.016431    119.66323    90.107069  0.017399126    216.29842     28.37928    18.848248    14.340449     28.38363    18.845548    14.343105 
  830000    296.75543    1.2509986    3479.5598            0            0            0            0    147.86832    44657.537 -0.067234084   -17.036218 -0.041707817    3479.5598    1424.0864    994.67274    905.01977    28.380618    18.851069    14.342901 0.00032805229 0.00032571771    7.1434512    7.1433732    296.75543     41.49527    35.978931    34.423473    90.016431    119.66323    90.107069  0.017144283    196.83137    28.379473    18.850419     14.34023    28.378915    18.852389    14.342681 
  840000    301.54102    1.2509986    3531.6579            0            0            0            0   -222.04621    44657.537 -0.067234084   -17.036218 -0.041707817    3531.6579    1462.3647    1042.1096     879.3146    28.377531    18.844719    14.337262 0.00035027098 0.00034965444    7.2261075    7.2261032    301.54102     41.49527    35.978931    34.423473    90.016431    119.66323    90.107069  0.017342658    210.16259    28.379525    18.849251    14.340386    28.378314    18.845734    14.338671 
  850000    299.17951    1.2509986    3613.3661            0            0            0            0   -719.40107    44657.537 -0.067234084   -17.036218 -0.041707817    3613.3661    1475.1841    1040.6737    942.78928    28.379491    18.849408    14.336345 0.00033546315 0.00033537046    7.1803522    7.1803452    299.17951     41.49527    35.978931    34.423473    90.016431    119.66323    90.107069  0.017232845    201.27789    28.379762    18.849034    14.339862    28.381714    18.847273    14.337592 
  860000    297.97669    1.2509986    3620.8149            0            0            0            0   -1549.2568    44657.537 -0.067234084   -17.036218 -0.041707817    3620.8149    1531.6682     1023.393    910.20264    28.376684    18.848974    14.340773 0.00034495115 0.00034383829    6.8863516    6.8863102    297.97669     41.49527    35.978931    34.423473    90.016431    119.66323    90.107069  0.016527244    206.97069    28.379335    18.848321    14.338874     28.37566    18.849585    14.339949 
  870000    298.94347    1.2509986    3630.7397            0            0            0            0   -1040.3537    44657.537 -0.067234084   -17.036218 -0.041707817    3630.7397    1474.1836    1067.4105    926.61578    28.378042    18.847306    14.337319 0.00034243392 0.00034019241    7.1449559    7.1449453    298.94347     41.49527    35.978931    34.423473    90.016431    119.66323    90.107069  0.017147894    205.46035    28.378459    18.848052    14.339976     28.37807    18.846677     14.33478 
  880000    298.80624    1.2509986    3583.2623            0            0            0            0    584.18592    44657.537 -0.067234084   -17.036218 -0.041707817    3583.2623    1494.3244    1030.8404      903.209    28.380054    18.844857    14.332544 0.00035484681 0.00035196507    7.0171071    7.0170844    298.80624     41.49527    35.978931    34.423473    90.016431    119.66323    90.107069  0.016841057    212.90809    28.380814    18.850153    14.339682    28.379238     18.84482    14.332577 
  890000    294.64924    1.2509986    3656.3899            0            0            0            0   -194.12555    44657.537 -0.067234084   -17.036218 -0.041707817    3656.3899     1520.622    1033.3249    942.22836    28.385383    18.848877    14.334662 0.00037811509 0.00037533792     7.103637    7.1035741    294.64924     41.49527    35.978931    34.423473    90.016431    119.66323    90.107069  0.017048729    226.86906    28.380924    18.848255    14.340214     28.38718    18.847954    14.335702 
  900000    301.75322    1.2509986    3596.6332            0            0            0            0    228.25766    44657.537 -0.067234084   -17.036218 -0.041707817    3596.6332    1494.6015    1011.1602    936.40098    28.378927    18.841757    14.338127 0.00034827231 0.00034687113     7.279676    7.2796695    301.75322     41.49527    35.978931    34.423473    90.016431    119.66323    90.107069  0.017471222    208.96338    28.379634    18.848438    14.338606    28.379674    18.843139    14.338282 
  910000    301.32037    1.2509986    3564.7659            0            0            0            0    640.41295    44657.537 -0.067234084   -17.036218 -0.041707817    3564.7659    1442.1221    1014.0359    941.68731    28.379249    18.846211    14.339212 0.00033533049 0.0003334569    7.2437518    7.2437406    301.32037     41.49527    35.978931    34.423473    90.016431    119.66323    90.107069  0.017385004    201.19829    28.379776    18.848542    14.338372    28.378052    18.844173    14.339793 
  920000    295.31535    1.2509986    3568.8567            0            0            0            0   -1599.7618    44657.537 -0.067234084   -17.036218 -0.041707817    3568.8567    1459.9683    1019.9621    932.38468    28.383803    18.852628    14.342453 0.00033394374 0.00033184995    7.1034973    7.1033973    295.31535     41.49527    35.978931    34.423473    90.016431    119.66323    90.107069  0.017048393    200.36625    28.380963    18.848693    14.339758    28.384336    18.852625    14.342587 
  930000       301.49    1.2509986    3562.3553            0            0            0            0    274.83463    44657.537 -0.067234084   -17.036218 -0.041707817    3562.3553    1438.5841    1028.7773    932.46028     28.37677     18.84895    14.342593 0.00037765821 0.00037700928    7.1589456    7.1588639       301.49     41.49527    35.978931    34.423473    90.016431    119.66323    90.107069  0.017181469    226.59493    28.379832    18.849726    14.339893    28.375552     18.85004    14.343797 
  940000    299.28066    1.2509986     3618.723            0            0            0            0   -438.22685    44657.537 -0.067234084   -17.036218 -0.041707817     3618.723     1474.664    1041.0025     944.4348    28.383769     18.85171     14.33845 0.00036791745 0.00036626607    6.9981865    6.9981069    299.28066     41.49527    35.978931    34.423473    90.016431    119.66323    90.107069  0.016795648    220.75047    28.380537    18.848239    14.339943     28.38615    18.851668    14.338295 
  950000     295.1448    1.2509986    3710.9845            0            0            0            0   -506.11759    44657.537 -0.067234084   -17.036218 -0.041707817    3710.9845    1524.4066    1033.5274    990.47967    28.376778     18.84875    14.335499 0.00035194243 0.00035180093    7.1501212    7.1500816     295.1448     41.49527    35.978931    34.423473    90.016431    119.66323    90.107069  0.017160291    211.16546    28.379354    18.848696    14.339641    28.376568    18.850007    14.334358 
  960000    295.36851    1.2509986    3569.3525            0            0            0            0   -774.21367    44657.537 -0.067234084   -17.036218 -0.041707817    3569.3525    1458.9756    1022.9981    933.44807    28.378031    18.845636    14.339722 0.00037636995 0.00037558869    6.8931728    6.8931594    295.36851     41.49527    35.978931    34.423473    90.016431    119.66323    90.107069  0.016543615    225.82197    28.378866    18.848808     14.34015    28.377161    18.846103    14.339708 
  970000    299.66601    1.2509986    3601.3499            0            0            0            0   -1132.6879    44657.537 -0.067234084   -17.036218 -0.041707817    3601.3499    1504.7108     1038.897    903.85143    28.371316    18.846144    14.336049 0.00036595512 0.00036503731    6.8869302    6.8868509    299.66601     41.49527    35.978931    34.423473    90.016431    119.66323    90.107069  0.016528633    219.57307    28.380157    18.849481    14.340219    28.371066    18.845947    14.335654 
  980000    296.52086    1.2509986    3572.4689            0            0            0            0     1562.174    44657.537 -0.067234084   -17.036218 -0.041707817    3572.4689    1502.4371    1038.5595    882.56672    28.374749    18.848302    14.340976 0.00035893835 0.00035816152     6.802117    6.8020378    296.52086     41.49527    35.978931    34.423473    90.016431    119.66323    90.107069  0.016325081    215.36301    28.379001    18.849661    14.339417    28.373475     18.85104    14.340101 
  990000    298.25034    1.2509986    3595.5597            0            0            0            0   -81.565441    44657.537 -0.067234084   -17.036218 -0.041707817    3595.5597    1470.2047    1051.8426    915.53436    28.382459    18.849146    14.340963 0.00034797673 0.00034686614    6.8400501    6.8400184    298.25034     41.49527    35.978931    34.423473    90.016431    119.66323    90.107069   0.01641612    208.78604    28.378973    18.849853    14.339384    28.380958    18.848671    14.341748 
 1000000    302.76528    1.2509986    3581.2262            0            0            0            0    349.49381    44657.537 -0.067234084   -17.036218 -0.041707817    3581.2262    1487.9804    995.29479    942.24782    28.377727    18.847446    14.340532 0.00033890157 0.00033873981    6.9232804     6.923251    302.76528     41.49527    35.978931    34.423473    90.016431    119.66323    90.107069  0.016615873    203.34094    28.379702    18.848752    14.339908    28.378482    18.848035    14.341848 
 1010000    297.86576    1.2509986    3585.0294            0            0            0            0    2260.1556    44657.537 -0.067234084   -17.036218 -0.041707817    3585.0294    1458.0244    1044.1018    926.27897    28.378573    18.853063    14.345758 0.00035250798 0.00035181674    6.6871633    6.6870423    297.86576     41.49527    35.978931    34.423473    90.016431    119.66323    90.107069  0.016049192    211.50479    28.380381    18.848998     14.33953    28.380596    18.852898    14.345344 
 1020000     297.3269    1.2509986    3613.7689            0            0            0            0   -1228.8069    44657.537 -0.067234084   -17.036218 -0.041707817    3613.7689    1481.9432    1026.1631     946.2654     28.37029    18.850363    14.343299 0.00033492214 0.00033441847    6.9013283    6.9011776     297.3269     41.49527    35.978931    34.423473    90.016431    119.66323    90.107069  0.016563188    200.95328    28.379088    18.848891     14.33912     28.36972    18.849278    14.343124 
 1030000    292.84968    1.2509986    3578.0052            0            0            0            0   -229.77557    44657.537 -0.067234084   -17.036218 -0.041707817    3578.0052    1477.0195    1039.3895    908.87942    28.372113    18.841609       14.343 0.00032901449  0.000326021    6.9413284    6.9412072    292.84968     41.49527    35.978931    34.423473    90.016431    119.66323    90.107069  0.016659188    197.40869    28.380046    18.850459    14.340452     28.37229    18.840258    14.343384 
 1040000    302.31271    1.2509986    3516.1917            0            0            0            0    839.12543    44657.537 -0.067234084   -17.036218 -0.041707817    3516.1917    1435.1107    1010.9937    915.62002    28.381896    18.844105    14.346098 0.00036906171 0.00036776431    6.9627545    6.9626488    302.31271     41.49527    35.978931    34.423473    90.016431    119.66323    90.107069  0.016710611    221.43703    28.380149    18.848149    14.339192    28.382224    18.843119    14.346976 
 1050000    298.27699    1.2509986    3668.7523            0            0            0            0    1387.3747    44657.537 -0.067234084   -17.036218 -0.041707817    3668.7523    1524.6863    1046.7831    942.37497    28.379278    18.846003    14.342054 0.00036383997 0.00035856929    7.0792347    7.0792074    298.27699     41.49527    35.978931    34.423473    90.016431    119.66323    90.107069  0.016990163    218.30398    28.380238    18.847782    14.341452     28.37904    18.845577    14.342425 
 1060000    297.52366    1.2509986    3621.5783            0            0            0            0    438.03275    44657.537 -0.067234084   -17.036218 -0.041707817    3621.5783    1514.5419    1031.8291    923.89955     28.37927    18.848482    14.334117 0.00035233126 0.00035190871    7.2164851    7.2164606    297.52366     41.49527    35.978931    34.423473    90.016431    119.66323    90.107069  0.017319564    211.39875    28.379811    18.848704     14.34015    28.379617    18.846963    14.332553 
 1070000    298.92875    1.2509986    3605.5232            0            0            0            0   -972.96508    44657.537 -0.067234084   -17.036218 -0.041707817    3605.5232    1489.5297    1019.7488    937.32988    28.373085    18.847778    14.339766 0.00033429077 0.00033287405    7.1673537    7.1672915    298.92875     41.49527    35.978931    34.423473    90.016431    119.66323    90.107069  0.017201649    200.57446     28.37838    18.848837    14.339682    28.372707    18.848182    14.339363 
 1080000    294.87518    1.2509986    3514.9353            0            0            0            0    -344.4105    44657.537 -0.067234084   -17.036218 -0.041707817    3514.9353    1417.3574    1017.5838    925.79424    28.380443    18.850471    14.343589 0.00038548711 0.00038341714    7.3817983    7.3817121    294.87518     41.49527    35.978931    34.423473    90.016431    119.66323    90.107069  0.017716316    231.29226    28.379975    18.849101    14.338265     28.38065    18.851175    14.344543 
 1090000    300.97725    1.2509986    3605.5147            0            0            0            0   -107.35853    44657.537 -0.067234084   -17.036218 -0.041707817    3605.5147    1476.4669    1004.0242    959.40508     28.37495    18.857185    14.337439 0.0003473057 0.00034607559    7.2623117    7.2621209    300.97725     41.49527    35.978931    34.423473    90.016431    119.66323    90.107069  0.017429548    208.38342    28.380332    18.848407    14.339125    28.373448    18.857668    14.335998 
 1100000    300.67196    1.2509986    3710.6336            0            0            0            0   -443.64896    44657.537 -0.067234084   -17.036218 -0.041707817    3710.6336    1558.7977    1053.4294    939.72332    28.382054     18.84442    14.334549 0.0003600138 0.00035715593    7.0824367    7.0824255    300.67196     41.49527    35.978931    34.423473    90.016431    119.66323    90.107069  0.016997848    216.00828    28.380251    18.848656    14.338139    28.382198    18.843633    14.335837 
 1110000    293.59895    1.2509986    3605.5719            0            0            0            0    370.21255    44657.537 -0.067234084   -17.036218 -0.041707817    3605.5719    1529.8368    1015.1619    907.56677    28.379922    18.849978    14.338572 0.00034200097 0.00034020091    6.9194902     6.919466    293.59895     41.49527    35.978931    34.423473    90.016431    119.66323    90.107069  0.016606777    205.20058    28.380508    18.849804    14.339118    28.379835    18.850135    14.338863 
 1120000    299.70279    1.2509986    3580.3758            0            0            0            0    978.30141    44657.537 -0.067234084   -17.036218 -0.041707817    3580.3758    1490.5371    1046.0994    892.55753    28.380309    18.852184    14.338277 0.00037555535 0.00037539683    6.8957948    6.8957568    299.70279     41.49527    35.978931    34.423473    90.016431    119.66323    90.107069  0.016549907    225.33321    28.379545    18.849408    14.339587     28.37989    18.851628    14.337501 
 1130000    301.94777    1.2509986    3628.3958            0            0            0            0    1194.5047    44657.537 -0.067234084   -17.036218 -0.041707817    3628.3958    1499.5265     1005.282    959.13502    28.382539    18.843037     14.33685 0.00037296487 0.00037293106    6.9792535     6.979239    301.94777     41.49527    35.978931    34.423473    90.016431    119.66323    90.107069  0.016750208    223.77892    28.379719    18.849032    14.339723    28.382876    18.843234    14.337138 
 1140000    293.38566    1.2509986     3561.418            0            0            0            0   -310.74672    44657.537 -0.067234084   -17.036218 -0.041707817     3561.418    1526.9823    999.51759    880.79487    28.378925    18.854126    14.336459 0.00034934108 0.00034814145    7.2006366    7.2005788    293.38566     41.49527    35.978931    34.423473    90.016431    119.66323    90.107069  0.017281528    209.60465     28.38055    18.849461    14.339527     28.37802    18.852832    14.336596 
 1150000    303.29114    1.2509986    3514.1628            0            0            0            0    348.67277    44657.537 -0.067234084   -17.036218 -0.041707817    3514.1628    1478.4471    998.92567    885.43497    28.371353    18.847287     14.34351 0.00036465005 0.00036448185    7.1323464    7.1322262    303.29114     41.49527    35.978931    34.423473    90.016431    119.66323    90.107069  0.017117631    218.79003    28.379474    18.848612    14.339606    28.370547    18.846479    14.343043 
 1160000    302.06229    1.2509986    3600.1844            0            0            0            0    1337.7443    44657.537 -0.067234084   -17.036218 -0.041707817    3600.1844    1514.0304    1010.9204    914.51589     28.37758    18.852755    14.345529 0.0003409726 0.00033936239    7.1017284    7.1015662    302.06229     41.49527    35.978931    34.423473    90.016431    119.66323    90.107069  0.017044148    204.58356    28.378984    18.848682    14.340721    28.378113    18.853119    14.347305 
 1170000    295.38483    1.2509986    3578.5645            0            0            0            0   -837.87419    44657.537 -0.067234084   -17.036218 -0.041707817    3578.5645    1480.1323    1027.7863    917.77194    28.376189    18.846181    14.341321 0.00041111477 0.00041077527    7.0529072    7.0528692    295.38483     41.49527    35.978931    34.423473    90.016431    119.66323    90.107069  0.016926977    246.66886    28.379538    18.849581    14.339512    28.374528    18.845216     14.34043 
 1180000     302.7296    1.2509986    3622.0508            0            0            0            0   -1090.4597    44657.537 -0.067234084   -17.036218 -0.041707817    3622.0508    1514.5513    1040.8756    909.20236    28.375946    18.847838    14.340368 0.00033839683 0.00033771861    6.8076001    6.8075549     302.7296     41.49527    35.978931    34.423473    90.016431    119.66323    90.107069   0.01633824     203.0381    28.379689     18.84855    14.340306    28.375922    18.849055    14.341411 
 1190000    294.94155    1.2509986    3586.1815            0            0            0            0   -2143.2078    44657.537 -0.067234084   -17.036218 -0.041707817    3586.1815     1498.388    1006.8032      926.789    28.379116    18.847863    14.340171 0.00034839468 0.0003427755    6.7708162    6.7707952    294.94155     41.49527    35.978931    34.423473    90.016431    119.66323    90.107069  0.016249959    209.03681    28.377527    18.849878    14.340506     28.37985    18.847699    14.341271 
 1200000    299.44737    1.2509986    3598.6473            0            0            0            0   -74.373921    44657.537 -0.067234084   -17.036218 -0.041707817    3598.6473    1497.4146    1035.1717    911.72393    28.375923    18.851249    14.342153 0.0003539472 0.00035358363    6.9133719     6.913292    299.44737     41.49527    35.978931    34.423473    90.016431    119.66323    90.107069  0.016592093    212.36832    28.379054    18.848742    14.339832    28.376406    18.852065    14.342253 
 1210000    296.49294    1.2509986    3523.6112            0            0            0            0     1577.391    44657.537 -0.067234084   -17.036218 -0.041707817    3523.6112    1460.7075     996.5824    914.59811    28.376602     18.84522    14.337471 0.00037157923 0.00036913142    7.0694846    7.0694632    296.49294     41.49527    35.978931    34.423473    90.016431    119.66323    90.107069  0.016966763    222.94754    28.378877    18.847606    14.339557    28.375606     18.84416    14.338687 
 1220000    299.28592    1.2509986     3665.996            0            0            0            0    263.63021    44657.537 -0.067234084   -17.036218 -0.041707817     3665.996    1546.0891    1013.1576    945.90246    28.376219    18.849023    14.337704 0.00034234946 0.00033964265     7.082768    7.0827351    299.28592     41.49527    35.978931    34.423473    90.016431    119.66323    90.107069  0.016998643    205.40968    28.378825    18.848619    14.338218    28.376125    18.849808     14.33799 
 1230000    301.87201    1.2509986     3679.182            0            0            0            0    1300.2011    44657.537 -0.067234084   -17.036218 -0.041707817     3679.182    1534.1397    1045.8485    938.19277    28.379773    18.847677    14.339125 0.0003607015 0.00035890874    6.8578796    6.8578787    301.87201     41.49527    35.978931    34.423473    90.016431    119.66323    90.107069  0.016458911     216.4209    28.380364    18.848617     14.34063    28.379693    18.846353    14.336882 
 1240000    296.82556    1.2509986    3556.7864            0            0            0            0   -31.312544    44657.537 -0.067234084   -17.036218 -0.041707817    3556.7864    1481.4567    1020.4618    903.73073    28.374789    18.847173     14.33726 0.00037871032 0.00037791295    6.7221938    6.7221703    296.82556     41.49527    35.978931    34.423473    90.016431    119.66323    90.107069  0.016133265    227.22619    28.379663    18.848449    14.338954     28.37561    18.847677    14.336272 
 1250000    298.63559    1.2509986     3655.062            0            0            0            0   -738.96328    44657.537 -0.067234084   -17.036218 -0.041707817     3655.062    1502.8702     1057.327    935.71653    28.381145    18.847819    14.345041  0.000355644 0.00035351258    6.8866508    6.8865781    298.63559     41.49527    35.978931    34.423473    90.016431    119.66323    90.107069  0.016527962     213.3864    28.380163     18.84973    14.340756    28.381248    18.848614    14.345061 
 1260000     299.1885    1.2509986    3529.5038            0            0            0            0    -1347.524    44657.537 -0.067234084   -17.036218 -0.041707817    3529.5038    1496.7312     984.8129    894.25572    28.383989    18.852869    14.339176 0.0003548422 0.00035334014     6.782693    6.7826028     299.1885     41.49527    35.978931    34.423473    90.016431    119.66323    90.107069  0.016278463    212.90532     28.38012    18.850017    14.340058    28.385247    18.852888     14.33964 
 1270000    295.26556    1.2509986    3587.6472            0            0            0            0    2062.0618    44657.537 -0.067234084   -17.036218 -0.041707817    3587.6472    1482.4402    1018.7407    931.16862     28.38083    18.851338      14.3368 0.00039195011  0.000391751    6.9030447    6.9030082    295.26556     41.49527    35.978931    34.423473    90.016431    119.66323    90.107069  0.016567307    235.17006    28.379609    18.849305    14.339971    28.382296    18.850929    14.336491 
 1280000    302.01427    1.2509986    3658.4447            0            0            0            0   -77.709132    44657.537 -0.067234084   -17.036218 -0.041707817    3658.4447    1491.8868    1053.0877    958.01124    28.380793    18.845829    14.337725 0.0003440568 0.00034298029    7.2665547    7.2665509    302.01427     41.49527    35.978931    34.423473    90.016431    119.66323    90.107069  0.017439731    206.43408     28.37904    18.849778    14.340111    28.381736    18.845205     14.33706 
 1290000    294.65282    1.2509986    3612.2129            0            0            0            0    611.18942    44657.537 -0.067234084   -17.036218 -0.041707817    3612.2129    1475.0839    1019.8472    958.55198    28.376113    18.849367    14.337828 0.00035078218 0.00034896458    6.8447081    6.8446821    294.65282     41.49527    35.978931    34.423473    90.016431    119.66323    90.107069  0.016427299    210.46931    28.379217    18.849301    14.340911    28.376083    18.847931    14.339719 
 1300000    297.36986    1.2509986    3527.5798            0            0            0            0    566.31482    44657.537 -0.067234084   -17.036218 -0.041707817    3527.5798    1471.4869    1005.5298    898.14109    28.375843    18.847455    14.340664 0.00037314118 0.00036993977    6.8579284    6.8579097    297.36986     41.49527    35.978931    34.423473    90.016431    119.66323    90.107069  0.016459028    223.88471    28.378089    18.849026    14.338614    28.376259     18.84732    14.338893 
 1310000    304.87124    1.2509986     3634.507            0            0            0            0   -1337.9959    44657.537 -0.067234084   -17.036218 -0.041707817     3634.507    1488.3412    1044.6216    944.53084    28.372219    18.855722    14.340877 0.00038145382 0.00038108946    6.7528548     6.752731    304.87124     41.49527    35.978931    34.423473    90.016431    119.66323    90.107069  0.016206852    228.87229    28.379238    18.849526    14.339648    28.373427    18.854563    14.337918 
 1320000    298.44243    1.2509986    3499.5131            0            0            0            0    1197.6473    44657.537 -0.067234084   -17.036218 -0.041707817    3499.5131     1452.488    1001.9636    891.33693    28.373893    18.849095    14.336946 0.00035688551 0.00035526436    6.8368587    6.8368017    298.44243     41.49527    35.978931    34.423473    90.016431    119.66323    90.107069  0.016408461     214.1313     28.37999    18.849443    14.340755    28.373429    18.849288    14.335959 
 1330000    302.48345    1.2509986    3588.4058            0            0            0            0     1112.097    44657.537 -0.067234084   -17.036218 -0.041707817    3588.4058    1481.9417    1032.1643    915.83405    28.382213    18.849977    14.341381 0.00036859511 0.00036822378     6.734282    6.7342287    302.48345     41.49527    35.978931    34.423473    90.016431    119.66323    90.107069  0.016162277    221.15707    28.379488    18.849332    14.340152    28.382706    18.848789    14.343095 
 1340000    302.44009    1.2509986    3580.9074            0            0            0            0   -380.73747    44657.537 -0.067234084   -17.036218 -0.041707817    3580.9074    1484.5247    991.78284    944.15847    28.385001    18.845652    14.343938 0.00035397296 0.00035157985    6.8386032    6.8385255    302.44009     41.49527    35.978931    34.423473    90.016431    119.66323    90.107069  0.016412648    212.38377    28.379607     18.85021    14.340616    28.386096    18.844887    14.343414 
 1350000     294.2112    1.2509986    3545.1132            0            0            0            0    917.52458    44657.537 -0.067234084   -17.036218 -0.041707817    3545.1132    1489.9662    986.83393    914.98563    28.377282    18.850746    14.341156 0.00033331147 0.00033282624    7.1064532    7.1063772     294.2112     41.49527    35.978931    34.423473    90.016431    119.66323    90.107069  0.017055488    199.98688    28.379887    18.848576    14.340069    28.376347    18.852044    14.341825 
 1360000    291.08836    1.2509986    3630.9425            0            0            0            0   -1046.0458    44657.537 -0.067234084   -17.036218 -0.041707817    3630.9425    1502.6512    1057.0654    919.07107      28.3829    18.846286    14.340528 0.00036234666 0.00036164656    7.1191934    7.1191795    291.08836     41.49527    35.978931    34.423473    90.016431    119.66323    90.107069  0.017086064    217.40799     28.38024    18.849352    14.339982    28.382469    18.843594    14.339098 
 1370000    298.13299    1.2509986    3533.7965            0            0            0            0    861.01433    44657.537 -0.067234084   -17.036218 -0.041707817    3533.7965    1453.9012    1010.9754    912.44945    28.374669    18.844355     14.33634 0.00036552644 0.00036434187    7.1468825    7.1468238    298.13299     41.49527    35.978931    34.423473    90.016431    119.66323    90.107069  0.017152518    219.31586    28.378498    18.849121    14.339408    28.372709    18.844113    14.334732 
 1380000     296.4907    1.2509986    3663.6547            0            0            0            0   -275.59574    44657.537 -0.067234084   -17.036218 -0.041707817    3663.6547    1530.2345      1052.21    923.20229    28.388023    18.855922    14.336073 0.00035851923 0.00035745829    7.1888846    7.1887106     296.4907     41.49527    35.978931    34.423473    90.016431    119.66323    90.107069  0.017253323    215.11154    28.378797    18.849287    14.338998    28.388589    18.855321    14.337088 
 1390000     296.4247    1.2509986    3649.7297            0            0            0            0   -99.036135    44657.537 -0.067234084   -17.036218 -0.041707817    3649.7297    1530.6395    1004.8549    948.46817    28.375286     18.84825    14.340034 0.00038069343 0.00037870036    7.1081563    7.1081208     296.4247     41.49527    35.978931    34.423473    90.016431    119.66323    90.107069  0.017059575    228.41606    28.379676    18.847773    14.340303    28.375968    18.848521    14.340638 
 1400000    295.22419    1.2509986    3549.6084            0            0            0            0    206.59068    44657.537 -0.067234084   -17.036218 -0.041707817    3549.6084    1467.4643    1035.3373     900.4799    28.380911    18.845277    14.340617 0.00036120093 0.00035972432    7.0084534    7.0084399    295.22419     41.49527    35.978931    34.423473    90.016431    119.66323    90.107069  0.016820288    216.72056    28.380665    18.849499    14.339535    28.380827    18.844715    14.340712 
 1410000    294.15832    1.2509986    3489.7597            0            0            0            0     787.7218    44657.537 -0.067234084   -17.036218 -0.041707817    3489.7597    1468.7442    990.64698     880.4566    28.379296    18.845801    14.338623 0.00035334597 0.00035192159    7.0035005    7.0034957    294.15832     41.49527    35.978931    34.423473    90.016431    119.66323    90.107069  0.016808401    212.00758    28.380461     18.84867    14.340337    28.379803    18.843921    14.338808 
 1420000    295.86186    1.2509986    3656.0597            0            0            0            0    57.301573    44657.537 -0.067234084   -17.036218 -0.041707817    3656.0597    1491.5769    1077.2116    929.83849    28.382744    18.849854    14.338474 0.00038267606 0.00038179293    7.0215134    7.0214709    295.86186     41.49527    35.978931    34.423473    90.016431    119.66323    90.107069  0.016851632    229.60563    28.379234    18.849038     14.34052    28.383635    18.850731    14.337759 
 1430000    295.98533    1.2509986    3541.2457            0            0            0            0   -552.34164    44657.537 -0.067234084   -17.036218 -0.041707817    3541.2457    1515.9399    961.71963     911.7071    28.381973    18.849371    14.338135 0.00035889946 0.00035848218    6.8678449    6.8678181    295.98533     41.49527    35.978931    34.423473    90.016431    119.66323    90.107069  0.016482828    215.33967     28.37903    18.849107    14.339276    28.381739    18.850256    14.336836 
 1440000    299.91059    1.2509986    3644.2835            0            0            0            0   -565.39468    44657.537 -0.067234084   -17.036218 -0.041707817    3644.2835    1484.2935     1043.549    950.05264    28.378521    18.851672    14.339282 0.00040263851 0.00040170381    6.9922214      6.99217    299.91059     41.49527    35.978931    34.423473    90.016431    119.66323    90.107069  0.016781331     241.5831    28.380522    18.849001     14.33968    28.377625     18.85116    14.341034 
 1450000    294.00659    1.2509986     3590.629            0            0            0            0   -251.01058    44657.537 -0.067234084   -17.036218 -0.041707817     3590.629    1449.6113    1040.0584    945.36749    28.377021    18.848201    14.337454 0.00036944306 0.00036925875    7.0002079    7.0001776    294.00659     41.49527    35.978931    34.423473    90.016431    119.66323    90.107069  0.016800499    221.66583    28.379568    18.849302    14.339956     28.37623    18.849407    14.335848 
 1460000    299.47192    1.2509986    3645.1833            0            0            0            0    969.44727    44657.537 -0.067234084   -17.036218 -0.041707817    3645.1833    1528.2241     986.4857    963.49382    28.378253    18.847317    14.339357 0.00033310353 0.0003319158    6.9297212    6.9297082    299.47192     41.49527    35.978931    34.423473    90.016431    119.66323    90.107069  0.016631331    199.86212    28.378874    18.848165    14.339688    28.379698    18.846982    14.340532 
 1470000    289.15424    1.2509986    3546.6614            0            0            0            0   -1323.8365    44657.537 -0.067234084   -17.036218 -0.041707817    3546.6614    1505.8719    1006.0169    880.11553     28.38112     18.84126    14.342884 0.00036655619 0.00036549425    7.1231254    7.1230624    289.15424     41.49527    35.978931    34.423473    90.016431    119.66323    90.107069  0.017095501    219.93372    28.378703    18.848772    14.339113    28.382207    18.840361    14.342841 
 1480000    299.32332    1.2509986    3583.2571            0            0            0            0    320.33129    44657.537 -0.067234084   -17.036218 -0.041707817    3583.2571    1496.6606    1031.6901    902.73619     28.37376    18.847484    14.339228 0.00035322287 0.00035284567    7.1623704    7.1623118    299.32332     41.49527    35.978931    34.423473    90.016431    119.66323    90.107069  0.017189689    211.93372    28.379761    18.848786    14.340171    28.372465    18.846283    14.339264 
 1490000    299.98072    1.2509986    3694.6482            0            0            0            0    355.02646    44657.537 -0.067234084   -17.036218 -0.041707817    3694.6482    1524.0508    1087.6351    921.30429    28.382026    18.845931    14.335069 0.00037019643 0.00036819472    7.1136241    7.1136135    299.98072     41.49527    35.978931    34.423473    90.016431    119.66323    90.107069  0.017072698    222.11786    28.378182    18.849307    14.339796    28.382203    18.845208    14.335062 
 1500000    289.62896    1.2509986    3610.3392            0            0            0            0      1113.81    44657.537 -0.067234084   -17.036218 -0.041707817    3610.3392    1487.4912    1020.3591    940.43714    28.385853    18.848163    14.340183 0.00037154327 0.00037069377    7.0658863    7.0658185    289.62896     41.49527    35.978931    34.423473    90.016431    119.66323    90.107069  0.016958127    222.92596    28.380345    18.849366    14.339316    28.386683     18.84869    14.340468 
 1510000    300.94234    1.2509986    3675.3396            0            0            0            0   -595.27352    44657.537 -0.067234084   -17.036218 -0.041707817    3675.3396    1511.7434    1038.7555    955.30545    28.377667    18.852157    14.340072 0.00033787701 0.0003375474    6.8528125    6.8527291    300.94234     41.49527    35.978931    34.423473    90.016431    119.66323    90.107069   0.01644675    202.72621    28.379952    18.849396    14.339799    28.375926    18.853235    14.340102 
 1520000     300.8196    1.2509986    3604.8506            0            0            0            0    619.31898    44657.537 -0.067234084   -17.036218 -0.041707817    3604.8506     1502.941    1045.9617    898.03141    28.381486    18.844183    14.335891 0.00036552555 0.00036446956    6.8550159    6.8550032     300.8196     41.49527    35.978931    34.423473    90.016431    119.66323    90.107069  0.016452038    219.31533     28.38048    18.849098    14.339196    28.381555     18.84282    14.335643 
[...]
 1630000    295.44944    1.2509986    3516.2701            0            0            0            0    1546.3601    44657.537 -0.067234084   -17.036218 -0.041707817    3516.2701    1432.5715    966.30128    953.00309    28.380638    18.849038    14.332561 0.00035992995 0.00035413848    6.8066268    6.8065872    295.44944     41.49527    35.978931    34.423473    90.016431    119.66323    90.107069  0.016335904    215.95797    28.379302    18.850467    14.337737    28.379991    18.849069    14.332107 
 1640000    298.56766    1.2509986    3552.2775            0            0            0            0   -916.41249    44657.537 -0.067234084   -17.036218 -0.041707817    3552.2775    1497.4852    1008.7617    891.44861    28.379375    18.843175    14.341768 0.00035497974 0.00035419983    6.7474828    6.7474585    298.56766     41.49527    35.978931    34.423473    90.016431    119.66323    90.107069  0.016193959    212.98785    28.379814    18.848569    14.340357    28.380689     18.84239    14.341004 
 1650000    298.40601    1.2509986    3520.0798            0            0            0            0    499.93359    44657.537 -0.067234084   -17.036218 -0.041707817    3520.0798    1462.6258    982.89141    917.90855    28.380484    18.845841    14.349813 0.00034908012 0.00034700407     6.759747    6.7595807    298.40601     41.49527    35.978931    34.423473    90.016431    119.66323    90.107069  0.016223393    209.44807    28.378315    18.849624    14.339235    28.380171    18.845855    14.350149 
 1660000    299.53681    1.2509986    3673.2904            0            0            0            0   -1363.9334    44657.537 -0.067234084   -17.036218 -0.041707817    3673.2904    1512.6056    1029.3878    968.42382    28.379678     18.84804    14.338613 0.00036648891 0.00036549854    6.8843176    6.8843062    299.53681     41.49527    35.978931    34.423473    90.016431    119.66323    90.107069  0.016522362    219.89335    28.379409    18.849895    14.340075    28.381229    18.848526    14.337482 
 1670000    300.03193    1.2509986    3541.6567            0            0            0            0    -153.4907    44657.537 -0.067234084   -17.036218 -0.041707817    3541.6567    1473.4112    1006.4923    905.30329    28.375553    18.851619    14.335656 0.00039238053 0.00039203242     7.143802    7.1437376    300.03193     41.49527    35.978931    34.423473    90.016431    119.66323    90.107069  0.017145125    235.42832    28.379962    18.849253    14.339993    28.374532    18.851481    14.336611 
 1680000    295.39162    1.2509986    3540.0759            0            0            0            0    1333.6478    44657.537 -0.067234084   -17.036218 -0.041707817    3540.0759    1460.6293    988.30178    936.33309     28.37881    18.856489     14.34334 0.00035237891 0.00035172022    7.3448245    7.3446573    295.39162     41.49527    35.978931    34.423473    90.016431    119.66323    90.107069  0.017627579    211.42734    28.380028    18.848363    14.339759    28.380327     18.85662    14.343802 
 1690000    294.31324    1.2509986    3548.4835            0            0            0            0    455.77375    44657.537 -0.067234084   -17.036218 -0.041707817    3548.4835    1484.1731    1022.8103    891.70425    28.380117    18.847813    14.337149  0.000359957 0.00035714252    7.1726653    7.1726535    294.31324     41.49527    35.978931    34.423473    90.016431    119.66323    90.107069  0.017214397     215.9742    28.378151    18.848131    14.339885    28.380905    18.848633    14.336461 
 1700000    300.03714    1.2509986    3483.2892            0            0            0            0    508.02173    44657.537 -0.067234084   -17.036218 -0.041707817    3483.2892    1467.1378    951.52303    908.67461    28.376994    18.849028    14.343211 0.00038296552 0.00038193608    7.3608725    7.3608007    300.03714     41.49527    35.978931    34.423473    90.016431    119.66323    90.107069  0.017666094    229.77931    28.379302      18.8481    14.339275     28.37554    18.848502    14.343928 
 1710000    296.88923    1.2509986    3613.5471            0            0            0            0    -1702.196    44657.537 -0.067234084   -17.036218 -0.041707817    3613.5471    1556.1649    987.10873    916.31625    28.382995    18.843731    14.343754 0.00034434383 0.00034360609    7.0522431    7.0521541    296.88923     41.49527    35.978931    34.423473    90.016431    119.66323    90.107069  0.016925383     206.6063    28.380099    18.849664    14.339779    28.384213    18.842364    14.345007 
 1720000    300.01356    1.2509986    3596.4251            0            0            0            0   -9.6035488    44657.537 -0.067234084   -17.036218 -0.041707817    3596.4251    1476.5971    1065.5117    904.14544    28.376256    18.846722    14.341648 0.0003657782 0.00036413449    7.2382808    7.2382356    300.01356     41.49527    35.978931    34.423473    90.016431    119.66323    90.107069  0.017371874    219.46692    28.380196     18.84982    14.338875    28.374972     18.84646    14.341821 
 1730000    297.98043    1.2509986    3548.8213            0            0            0            0    2272.6348    44657.537 -0.067234084   -17.036218 -0.041707817    3548.8213    1464.3738    1038.9975    887.48674    28.377009    18.853448    14.343632 0.00035174338 0.00034974014    7.0086081    7.0084964    297.98043     41.49527    35.978931    34.423473    90.016431    119.66323    90.107069   0.01682066    211.04603    28.379834    18.850222     14.34032    28.375613    18.853635    14.342506 
 1740000    294.06554    1.2509986    3649.3958            0            0            0            0     -45.5998    44657.537 -0.067234084   -17.036218 -0.041707817    3649.3958    1528.9435    1039.4094    921.74633    28.385889      18.8509    14.340042 0.00035361828 0.00035211528    6.8429779    6.8428916    294.06554     41.49527    35.978931    34.423473    90.016431    119.66323    90.107069  0.016423147    212.17097    28.380398    18.849867    14.339894    28.386128    18.850706    14.341625 
 1750000    293.14528    1.2509986    3511.9121            0            0            0            0   -1624.9939    44657.537 -0.067234084   -17.036218 -0.041707817    3511.9121    1465.0041    1000.0813    893.52242    28.378796    18.843428    14.343384 0.00034392974 0.00034339955    6.9796658    6.9796177    293.14528     41.49527    35.978931    34.423473    90.016431    119.66323    90.107069  0.016751198    206.35784    28.379973    18.849272    14.340176    28.376718    18.845986    14.343448 
 1760000    299.31131    1.2509986    3552.3628            0            0            0            0   -388.21581    44657.537 -0.067234084   -17.036218 -0.041707817    3552.3628    1477.5578     1010.116    905.35774    28.378278    18.848451    14.345838 0.0003392847 0.00033878598    7.0000814    6.9999398    299.31131     41.49527    35.978931    34.423473    90.016431    119.66323    90.107069  0.016800195    203.57082     28.37955    18.849586    14.340051     28.37657    18.849886     14.34783 
 1770000    296.74366    1.2509986    3545.1015            0            0            0            0   -108.63872    44657.537 -0.067234084   -17.036218 -0.041707817    3545.1015    1484.9139    1018.8188    890.01556    28.385258    18.845527    14.345398 0.00035465976 0.00035351758    6.8077976    6.8076715    296.74366     41.49527    35.978931    34.423473    90.016431    119.66323    90.107069  0.016338714    212.79586    28.380535    18.849439    14.339696    28.386319    18.844692    14.346383 
 1780000    303.67541    1.2509986    3515.7376            0            0            0            0    446.15906    44657.537 -0.067234084   -17.036218 -0.041707817    3515.7376    1427.4391    1003.1126    924.78395    28.380067    18.841272    14.336104 0.00036903843 0.0003679195     7.087655    7.0876136    303.67541     41.49527    35.978931    34.423473    90.016431    119.66323    90.107069  0.017010372    221.42306    28.379407    18.849719    14.338865    28.381561    18.839394    14.336114 
 1790000    297.53471    1.2509986    3485.4467            0            0            0            0   -2382.0624    44657.537 -0.067234084   -17.036218 -0.041707817    3485.4467    1464.0671    983.84496    891.76845    28.381885    18.851022    14.342725 0.00034504512 0.00034413859    6.9435281    6.9434665    297.53471     41.49527    35.978931    34.423473    90.016431    119.66323    90.107069  0.016664467    207.02707    28.380427     18.84879    14.339953    28.381349    18.850887    14.342735 
 1800000    303.81171    1.2509986    3579.6595            0            0            0            0   -22.313555    44657.537 -0.067234084   -17.036218 -0.041707817    3579.6595    1440.8207     1056.959    918.83107    28.378624    18.846606    14.340356 0.00038632982 0.00038606011    6.8965578    6.8965404    303.81171     41.49527    35.978931    34.423473    90.016431    119.66323    90.107069  0.016551739    231.79789    28.379912    18.848895    14.339278    28.379579    18.848753    14.339817 
 1810000    298.29591    1.2509986     3635.046            0            0            0            0    988.34566    44657.537 -0.067234084   -17.036218 -0.041707817     3635.046    1472.4218    1078.4857    923.68497    28.375287    18.846222     14.33701 0.00034369247 0.00034264834    7.1607324    7.1607038    298.29591     41.49527    35.978931    34.423473    90.016431    119.66323    90.107069  0.017185758    206.21548    28.379473    18.848014    14.339442    28.374698    18.845036    14.338766 
 1820000    291.86598    1.2509986    3617.3917            0            0            0            0    1691.1066    44657.537 -0.067234084   -17.036218 -0.041707817    3617.3917    1502.5364    1042.0482    915.05151    28.376243    18.847289    14.334286 0.00034641953 0.0003463181     7.140413    7.1403866    291.86598     41.49527    35.978931    34.423473    90.016431    119.66323    90.107069  0.017136991    207.85172    28.379259    18.848937    14.339723    28.378027    18.849394    14.334459 
 1830000    296.64068    1.2509986    3536.6274            0            0            0            0    1368.3888    44657.537 -0.067234084   -17.036218 -0.041707817    3536.6274    1466.0701    997.77651    915.82107     28.37993    18.849539    14.342335 0.0003566158 0.00035625565    7.1594478    7.1594158    296.64068     41.49527    35.978931    34.423473    90.016431    119.66323    90.107069  0.017182675    213.96948    28.379959     18.84911    14.340072    28.379257    18.848605     14.34194 
 1840000    302.98445    1.2509986    3677.4539            0            0            0            0    -437.1665    44657.537 -0.067234084   -17.036218 -0.041707817    3677.4539    1517.0331    1064.6876    937.73567    28.375344    18.853599    14.334393 0.00033210578 0.0003314538    7.3110197    7.3108899    302.98445     41.49527    35.978931    34.423473    90.016431    119.66323    90.107069  0.017546447    199.26347    28.378992    18.849321    14.340127    28.373287    18.853931    14.333304 
 1850000    298.05199    1.2509986    3575.5748            0            0            0            0    791.70648    44657.537 -0.067234084   -17.036218 -0.041707817    3575.5748    1482.9721    1002.1066    933.23235    28.373954    18.845473    14.339563 0.0003753323 0.00037245321    7.2812203    7.2811893    298.05199     41.49527    35.978931    34.423473    90.016431    119.66323    90.107069  0.017474929    225.19938    28.378908    18.849855     14.34096    28.374613    18.845731    14.339236 
 1860000    290.01496    1.2509986    3558.4468            0            0            0            0   -373.55545    44657.537 -0.067234084   -17.036218 -0.041707817    3558.4468    1507.1706    1001.0475    903.52748    28.377928    18.849965    14.337948 0.00035658584 0.00035534728    7.1005492    7.1005365    290.01496     41.49527    35.978931    34.423473    90.016431    119.66323    90.107069  0.017041318    213.95151    28.378926    18.849851    14.339267    28.378876    18.848745    14.338323 
 1870000     296.5038    1.2509986    3601.2928            0            0            0            0    436.40276    44657.537 -0.067234084   -17.036218 -0.041707817    3601.2928    1493.8457    1031.4992    921.36601    28.378265     18.84945    14.346475 0.00035536554 0.00035495077     7.044687    7.0445767     296.5038     41.49527    35.978931    34.423473    90.016431    119.66323    90.107069  0.016907249    213.21932    28.379623    18.848397    14.339813    28.375591    18.850373    14.345537 
 1880000    293.26989    1.2509986     3650.217            0            0            0            0   -712.68811    44657.537 -0.067234084   -17.036218 -0.041707817     3650.217    1515.8814    1024.4724    953.02773    28.381812    18.846622    14.339488 0.00036464224 0.00036432901    7.4724129    7.4724059    293.26989     41.49527    35.978931    34.423473    90.016431    119.66323    90.107069  0.017933791    218.78534    28.379474    18.849229    14.340148    28.381751    18.846977    14.338292 
 1890000    303.07104    1.2509986    3621.0294            0            0            0            0   -2407.1624    44657.537 -0.067234084   -17.036218 -0.041707817    3621.0294    1531.6603    1013.2183    918.35647    28.375334    18.852561    14.336397 0.00034553793 0.00034513368    7.6301274    7.6301007    303.07104     41.49527    35.978931    34.423473    90.016431    119.66323    90.107069  0.018312306    207.32276    28.378982    18.848805    14.339461    28.375599    18.848109    14.335872 
 1900000    297.71125    1.2509986    3567.5479            0            0            0            0    747.31422    44657.537 -0.067234084   -17.036218 -0.041707817    3567.5479    1479.6758    1016.2416     910.3377    28.377374    18.847977    14.337693 0.00035638292 0.00035590082    7.3450221    7.3450073    297.71125     41.49527    35.978931    34.423473    90.016431    119.66323    90.107069  0.017628053    213.82975    28.379467    18.848433    14.339267    28.377255    18.848012    14.338615 
 1910000    297.74674    1.2509986    3609.4075            0            0            0            0   -704.85904    44657.537 -0.067234084   -17.036218 -0.041707817    3609.4075      1453.29    1033.5613    957.84644    28.385044    18.843022    14.345062 0.00033488109 0.00033378902    7.2271491    7.2270305    297.74674     41.49527    35.978931    34.423473    90.016431    119.66323    90.107069  0.017345158    200.92866    28.380236    18.848962    14.338846    28.387034    18.843029    14.345039 
 1920000    295.32511    1.2509986    3595.4702            0            0            0            0    213.06802    44657.537 -0.067234084   -17.036218 -0.041707817    3595.4702    1494.3254    989.24193    951.33506    28.382165    18.850605    14.336633 0.00036858688 0.00036796268    7.2617934    7.2617569    295.32511     41.49527    35.978931    34.423473    90.016431    119.66323    90.107069  0.017428304    221.15213    28.379008    18.849143    14.340191    28.383409    18.850077     14.33571 
 1930000    296.74298    1.2509986    3583.1564            0            0            0            0    458.38124    44657.537 -0.067234084   -17.036218 -0.041707817    3583.1564    1519.2334    1000.9784    902.95992    28.374693    18.843989    14.340627 0.00034212701 0.00034097254    7.1651789    7.1651505    296.74298     41.49527    35.978931    34.423473    90.016431    119.66323    90.107069  0.017196429    205.27621    28.379334    18.848947    14.340687    28.375692    18.843613    14.340083 
 1940000     296.9192    1.2509986    3516.4125            0            0            0            0    1602.0104    44657.537 -0.067234084   -17.036218 -0.041707817    3516.4125     1422.023    1023.3858    915.52814    28.378893    18.855574    14.341654 0.00034990586 0.00034935033    7.0844706    7.0843641     296.9192     41.49527    35.978931    34.423473    90.016431    119.66323    90.107069   0.01700273    209.94352    28.378973    18.849183    14.340069    28.378443    18.854992    14.341019 
 1950000    297.68287    1.2509986    3593.5348            0            0            0            0    824.08282    44657.537 -0.067234084   -17.036218 -0.041707817    3593.5348    1442.9279    1030.3021    956.06496    28.379042     18.84709    14.341753 0.00035823245 0.00035489117    6.9292369    6.9292152    297.68287     41.49527    35.978931    34.423473    90.016431    119.66323    90.107069  0.016630169    214.93947     28.37964    18.847981    14.341145     28.37876    18.846426    14.341704 
 1960000    297.73291    1.2509986    3548.3541            0            0            0            0   -1441.0486    44657.537 -0.067234084   -17.036218 -0.041707817    3548.3541    1461.9484    1015.6876    914.10754    28.378299    18.852311    14.339888 0.00037988906 0.00037949693     6.645537    6.6454574    297.73291     41.49527    35.978931    34.423473    90.016431    119.66323    90.107069  0.015949289    227.93343    28.379446    18.849048    14.339023    28.377912    18.853413    14.340862 
 1970000     301.9949    1.2509986    3650.0159            0            0            0            0    365.24585    44657.537 -0.067234084   -17.036218 -0.041707817    3650.0159    1527.3433    1039.6721    924.66657    28.388025    18.849787    14.339193 0.00035391943 0.00035281155    6.6981256    6.6980242     301.9949     41.49527    35.978931    34.423473    90.016431    119.66323    90.107069  0.016075501    212.35166    28.379549    18.849989    14.339245    28.387527    18.851783    14.338714 
 1980000    297.74713    1.2509986    3601.0304            0            0            0            0    284.78809    44657.537 -0.067234084   -17.036218 -0.041707817    3601.0304    1447.8149    1045.9481    946.77921    28.378944     18.84723    14.353929 0.0003861928 0.00038613664    6.9694002    6.9690256    297.74713     41.49527    35.978931    34.423473    90.016431    119.66323    90.107069   0.01672656    231.71568    28.379691    18.848993    14.339832    28.380161    18.846986    14.356556 
 1990000    300.81412    1.2509986    3614.3603            0            0            0            0    630.92774    44657.537 -0.067234084   -17.036218 -0.041707817    3614.3603    1466.2065    1046.6799      943.301    28.378439    18.849514    14.340864 0.00036056541 0.00035991341    6.7289785    6.7289141    300.81412     41.49527    35.978931    34.423473    90.016431    119.66323    90.107069  0.016149548    216.33925    28.378963    18.849549    14.339523    28.376111    18.851614    14.340875 
 2000000    295.26775    1.2509986    3579.9618            0            0            0            0   -1957.3906    44657.537 -0.067234084   -17.036218 -0.041707817    3579.9618    1484.5759    1006.7062    928.62504     28.37786    18.846139    14.344426 0.00038080183 0.00037836636    6.6307371    6.6306846    295.26775     41.49527    35.978931    34.423473    90.016431    119.66323    90.107069  0.015913769     228.4811    28.379206    18.849981    14.340811    28.378292    18.847583    14.344027 
Loop time of 3925.24 on 20 procs for 2000000 steps with 4560 atoms

Pair  time (%) = 2859.19 (72.841)
Bond  time (%) = 343.512 (8.75136)
Neigh time (%) = 76.9681 (1.96085)
Comm  time (%) = 494.363 (12.5945)
Outpt time (%) = 0.514793 (0.013115)
Other time (%) = 150.697 (3.83917)

Nlocal:    228 ave 241 max 217 min
Histogram: 2 3 2 1 3 2 3 1 0 3
Nghost:    5974.4 ave 6064 max 5903 min
Histogram: 1 1 5 3 1 5 1 2 0 1
Neighs:    84228.1 ave 89828 max 80191 min
Histogram: 5 0 1 3 4 2 1 2 0 2

Total # of neighbors = 1684561
Ave neighs/atom = 369.421
Ave special neighs/atom = 10.6316
Neighbor list builds = 15449
Dangerous builds = 0
System init for write_data ...
