LAMMPS data file via write_data, version 15 May 2015, timestep = 23005000

2611 atoms
6 atom types
1749 bonds
4 bond types
894 angles
3 angle types
44 dihedrals
3 dihedral types
10 impropers
1 improper types

-1.4955046274632563e+01 1.4955046274632563e+01 xlo xhi
-1.4955046274632563e+01 1.4955046274632563e+01 ylo yhi
-1.4955046274632563e+01 1.4955046274632563e+01 zlo zhi

Masses

1 15.9994
2 1.00794
3 12.0107
4 1.00794
5 12.0107
6 12.0107

Bond Coeffs # harmonic

1 1000 1
2 469 1.4
3 367 1.08
4 469 0.7

Angle Coeffs # harmonic

1 100 109.47
2 35 120
3 63 120

Dihedral Coeffs # opls

1 0 7.25 0 0
2 0 7.25 0 0
3 0 7.25 0 0

Improper Coeffs # cvff

1 2.5 -1 2

Atoms # full

2521 841 1 -8.1999999999999995e-01 -1.4321071620166830e+01 -1.2854473580574112e+01 -1.2416613851570967e+01 -1 4 5
2477 826 2 4.0999999999999998e-01 -1.0803173802671667e+01 -1.1608109659332078e+01 -1.0664993174403284e+01 -3 1 12
1943 648 2 4.0999999999999998e-01 -1.0069700353000901e+01 -6.7395074598317475e+00 -9.4554628167165191e+00 2 -3 4
2523 841 2 4.0999999999999998e-01 -1.3357238739448270e+01 -1.3043701144679078e+01 -1.2604137675382340e+01 -1 4 5
216 72 2 4.0999999999999998e-01 -1.3896451243871679e+01 -1.2184860947334125e+01 -1.0849222322503390e+01 -5 8 7
214 72 1 -8.1999999999999995e-01 -1.3873021459189653e+01 -1.1643625804483243e+01 -1.0008709662156006e+01 -5 8 7
370 124 1 -8.1999999999999995e-01 -7.5570571146714336e+00 -6.2687785280085340e+00 -1.1764381348650907e+01 -2 1 4
2476 826 1 -8.1999999999999995e-01 -9.9115856164971525e+00 -1.1789266883594298e+01 -1.0250025036790710e+01 -3 1 12
1285 429 1 -8.1999999999999995e-01 -9.0051826573673992e+00 -9.6909236873588007e+00 -1.4380652741071117e+01 -4 3 4
2478 826 2 4.0999999999999998e-01 -9.7929045211822050e+00 -1.2775160619475450e+01 -1.0132235702542898e+01 -3 1 12
905 302 2 4.0999999999999998e-01 -8.5865870788194378e+00 -1.3992432749794599e+01 -9.0811962680550682e+00 0 2 1
1918 640 1 -8.1999999999999995e-01 -1.0035891741492744e+01 -7.1239374910240842e+00 -1.2950801359411169e+01 0 5 1
1903 635 1 -8.1999999999999995e-01 -1.1727165701827969e+01 -1.3566425172874666e+01 -1.2660398385407325e+01 6 -4 0
2086 696 1 -8.1999999999999995e-01 -1.1730652165923594e+01 -9.5867818483623211e+00 -1.3368104057851797e+01 -5 1 6
1904 635 2 4.0999999999999998e-01 -1.0788250236344206e+01 -1.3326314513925604e+01 -1.2906834481313489e+01 6 -4 0
2087 696 2 4.0999999999999998e-01 -1.2473667873685521e+01 -9.4020602087693135e+00 -1.4011339238766924e+01 -5 1 6
1944 648 2 4.0999999999999998e-01 -1.0072541492495631e+01 -7.3745353665165734e+00 -1.0959860956085043e+01 2 -3 4
691 231 1 -8.1999999999999995e-01 -1.3738140714197373e+01 -1.4581287981812181e+01 -8.9134850465577404e+00 0 6 3
692 231 2 4.0999999999999998e-01 -1.3634370050514496e+01 -1.3791285569757116e+01 -9.5176983955894379e+00 0 6 3
2561 854 2 4.0999999999999998e-01 -1.2143525006708286e+01 -7.7345906434307885e+00 -9.3361259479901548e+00 1 6 0
36 12 2 4.0999999999999998e-01 -1.1856949556509939e+01 -9.6090767679515601e+00 -1.1709471506338803e+01 -4 1 5
215 72 2 4.0999999999999998e-01 -1.3319538383254081e+01 -1.0823834706329420e+01 -1.0155492108090831e+01 -5 8 7
2088 696 2 4.0999999999999998e-01 -1.0925132254290764e+01 -9.9007689667394416e+00 -1.3870593572771565e+01 -5 1 6
1942 648 1 -8.1999999999999995e-01 -1.0522375875059964e+01 -7.3884986434683944e+00 -1.0066888404982123e+01 2 -3 4
34 12 1 -8.1999999999999995e-01 -1.2129611648868231e+01 -9.7147101773148616e+00 -1.0753206388146403e+01 -4 1 5
35 12 2 4.0999999999999998e-01 -1.1348769437255125e+01 -9.5180139117142488e+00 -1.0160296490644118e+01 -4 1 5
1521 507 2 4.0999999999999998e-01 -8.9949155238949317e+00 -1.1675912341870424e+01 -8.0511239549028382e+00 -3 -3 0
2560 854 1 -8.1999999999999995e-01 -1.2970651826108231e+01 -7.7021697417060810e+00 -8.7750946609744034e+00 1 6 0
529 177 1 -8.1999999999999995e-01 -1.4708024258007471e+01 -5.5314319967580108e+00 -8.9787002025454328e+00 -6 2 3
531 177 2 4.0999999999999998e-01 -1.4273592047015415e+01 -6.4209682719899490e+00 -8.8374918567256291e+00 -6 2 3
371 124 2 4.0999999999999998e-01 -8.2826359180062248e+00 -6.7477807940448766e+00 -1.2258383643043542e+01 -2 1 4
1992 664 2 4.0999999999999998e-01 -1.3903623626569813e+01 -6.3037642262995046e+00 -1.3004888381718219e+01 -1 1 0
1990 664 1 -8.1999999999999995e-01 -1.2911225104453713e+01 -6.2348796944063380e+00 -1.2903172565603803e+01 -1 1 0
1287 429 2 4.0999999999999998e-01 -8.1698717873255564e+00 -9.2040901404024780e+00 -1.4125320056970676e+01 -4 3 4
2562 854 2 4.0999999999999998e-01 -1.3119547052252502e+01 -8.5944669094871209e+00 -8.3489703363937302e+00 1 6 0
1642 548 1 -8.1999999999999995e-01 -1.4909766980797965e+01 -8.8458875755391979e+00 -1.0945625992168299e+01 2 1 2
1519 507 1 -8.1999999999999995e-01 -8.6049984670823356e+00 -1.2511512295088380e+01 -7.6642345190702521e+00 -3 -3 0
1712 571 2 4.0999999999999998e-01 -8.1170306308034021e+00 -1.1258290918155367e+01 -1.1078681454006272e+01 -2 0 6
1920 640 2 4.0999999999999998e-01 -1.1018637941278049e+01 -6.9438196548316640e+00 -1.2909408132152212e+01 0 5 1
1905 635 2 4.0999999999999998e-01 -1.1734840090739144e+01 -1.4456190379643173e+01 -1.2204103594440239e+01 6 -4 0
810 270 2 4.0999999999999998e-01 -7.9078560872115373e+00 -8.5471598891768785e+00 -8.1370847191184730e+00 3 -1 4
2522 841 2 4.0999999999999998e-01 -1.4839723939026829e+01 -1.3709028883302805e+01 -1.2442709416541245e+01 -1 4 5
819 273 2 4.0999999999999998e-01 -1.3726326714415501e+01 -1.0932536545767135e+01 -7.7996750951444778e+00 -4 7 9
1991 664 2 4.0999999999999998e-01 -1.2696145856978593e+01 -5.7235011342422961e+00 -1.2071199682303980e+01 -1 1 0
375 125 2 4.0999999999999998e-01 -1.0193638303200071e+01 -5.2158363843026123e+00 -1.3494841398035321e+01 1 3 3
583 195 1 -8.1999999999999995e-01 -9.2898147162024856e+00 -1.3978020184872562e+01 -1.4399093122245477e+01 -4 -1 2
2051 684 2 4.0999999999999998e-01 -8.8238764490917276e+00 -5.0202924912315900e+00 -7.9466561845569110e+00 -2 -1 -1
372 124 2 4.0999999999999998e-01 -7.6637835191918438e+00 -5.2824040555455127e+00 -1.1889364532363560e+01 -2 1 4
2050 684 1 -8.1999999999999995e-01 -9.5355258350130843e+00 -5.4047224787935679e+00 -8.5346312570403402e+00 -2 -1 -1
1644 548 2 4.0999999999999998e-01 -1.3945909982681856e+01 -9.0494367892769745e+00 -1.0773889715069082e+01 2 1 2
1457 486 2 4.0999999999999998e-01 -1.2779733814022460e+01 -6.7319428290028025e+00 -1.4655718457623415e+01 1 1 0
809 270 2 4.0999999999999998e-01 -9.3092733708187030e+00 -9.0715539924402080e+00 -7.4832324631646880e+00 3 -1 4
793 265 1 -8.1999999999999995e-01 -7.6662041051680614e+00 -1.3928344613550358e+01 -1.2218294691291643e+01 -6 6 1
904 302 1 -8.1999999999999995e-01 -9.1447050778926240e+00 -1.4657413321395682e+01 -9.5774331966986566e+00 0 2 1
584 195 2 4.0999999999999998e-01 -8.9531749764481212e+00 -1.3963707921303053e+01 -1.3457597057429913e+01 -4 -1 2
1761 587 2 4.0999999999999998e-01 -1.2318683468386858e+01 -6.5469341888515196e+00 -7.6377771035515467e+00 2 2 6
1919 640 2 4.0999999999999998e-01 -9.8182998285739735e+00 -7.5900939574488628e+00 -1.3808296454685710e+01 0 5 1
111 37 2 4.0999999999999998e-01 -1.1524542003424127e+01 -1.0200793062451087e+01 -7.8176816033508816e+00 1 0 7
109 37 1 -8.1999999999999995e-01 -1.0613357943690893e+01 -1.0508716280520112e+01 -7.5440525868317572e+00 1 0 7
218 73 2 4.0999999999999998e-01 -4.8293587401959286e+00 -1.4517827055754809e+01 -1.0589762553401627e+01 -4 6 3
1184 395 2 4.0999999999999998e-01 -7.3672907875797948e+00 -7.7239381381181271e+00 -1.0079133333724329e+01 -3 3 9
1250 417 2 4.0999999999999998e-01 -2.7869470889449897e+00 -7.1759280000124246e+00 -8.1870934126010368e+00 -2 -1 2
1183 395 1 -8.1999999999999995e-01 -6.8879526436980747e+00 -8.4899955313509068e+00 -9.6509546521400509e+00 -3 3 9
1713 571 2 4.0999999999999998e-01 -6.7675341809038390e+00 -1.0589253249366081e+01 -1.0448022834570416e+01 -2 0 6
1251 417 2 4.0999999999999998e-01 -3.5229237659162376e+00 -5.7730238308817352e+00 -7.7912644175184909e+00 -2 -1 2
794 265 2 4.0999999999999998e-01 -7.3132897161653636e+00 -1.3054066359195744e+01 -1.1885075704685120e+01 -6 6 1
1796 599 2 4.0999999999999998e-01 -1.8410639359612393e+00 -1.4938877078410062e+01 -9.2195771201062424e+00 5 -2 3
901 301 1 -8.1999999999999995e-01 -8.8127908554017864e-01 -1.4765642174503393e+01 -1.4314681146191571e+01 -3 3 8
795 265 2 4.0999999999999998e-01 -7.0933090701521078e+00 -1.4672079448378133e+01 -1.1873917357728731e+01 -6 6 1
2393 798 2 4.0999999999999998e-01 -5.1312943876635408e-01 -6.0973507548070156e+00 -8.6110861330239299e+00 -5 -2 1
1711 571 1 -8.1999999999999995e-01 -7.1208473864704969e+00 -1.1207998098519653e+01 -1.1149642783303049e+01 -2 0 6
192 64 2 4.0999999999999998e-01 -2.3957856911710902e+00 -9.7877915070950099e+00 -8.2094020675196049e+00 0 -2 6
842 281 2 4.0999999999999998e-01 -6.5319310479355615e+00 -7.3243663038247329e+00 -1.3872340154890065e+01 -4 -1 4
2065 689 1 -8.1999999999999995e-01 -7.8236774755554883e-01 -7.1538203697295613e+00 -1.1404275088661411e+01 1 2 4
2113 705 1 -8.1999999999999995e-01 -6.0687505409219522e+00 -1.2463239566460434e+01 -8.3188653595880062e+00 -8 -1 2
394 132 1 -8.1999999999999995e-01 -7.1650169339838499e-01 -1.2309781051210544e+01 -1.0238191136504550e+01 0 2 5
2115 705 2 4.0999999999999998e-01 -5.9713009796948917e+00 -1.2805527752344666e+01 -9.2533643613827152e+00 -8 -1 2
841 281 1 -8.1999999999999995e-01 -6.8442179176741913e+00 -7.9425672909891132e+00 -1.4593624029919168e+01 -4 -1 4
276 92 2 4.0999999999999998e-01 -5.6170107056906016e+00 -6.0940199301070717e+00 -1.2372381477096955e+01 -1 -1 6
1647 549 2 4.0999999999999998e-01 -5.8111029167291992e+00 -9.3781214299465674e+00 -1.3589184809173354e+01 -4 0 5
190 64 1 -8.1999999999999995e-01 -2.0132862429739475e+00 -9.0045496803996983e+00 -7.7193282409443409e+00 0 -2 6
1610 537 2 4.0999999999999998e-01 -5.1899429144179354e+00 -1.1422798790868127e+01 -1.4642840957172396e+01 -4 0 5
1797 599 2 4.0999999999999998e-01 -5.8786174199309649e-01 -1.4222128064104362e+01 -9.9826220206979634e+00 5 -2 3
396 132 2 4.0999999999999998e-01 -1.4060426660893466e+00 -1.2145964009934390e+01 -1.0943629428980628e+01 0 2 5
2066 689 2 4.0999999999999998e-01 -1.2313333275078371e+00 -6.5388388691510020e+00 -1.0756067063941735e+01 1 2 4
2067 689 2 4.0999999999999998e-01 -3.9235474674129023e-01 -7.9311954566166207e+00 -1.0910793789743810e+01 1 2 4
1228 410 1 -8.1999999999999995e-01 -7.5089437675429238e-01 -1.0570361342817844e+01 -1.3404064598206940e+01 -3 3 -2
840 280 2 4.0999999999999998e-01 -2.0018773068432871e+00 -7.4336995698656958e+00 -1.2958312457879163e+01 1 2 1
275 92 2 4.0999999999999998e-01 -4.7141582759298934e+00 -7.4243383042711111e+00 -1.2086736884743072e+01 -1 -1 6
274 92 1 -8.1999999999999995e-01 -4.9434309344257308e+00 -6.7225606960905093e+00 -1.2761190868276827e+01 -1 -1 6
1229 410 2 4.0999999999999998e-01 -5.0171508654697661e-01 -1.1481145058138651e+01 -1.3733197758521255e+01 -3 3 -2
1854 618 2 4.0999999999999998e-01 -3.6319582315877970e+00 -1.1051953185196616e+01 -1.0526359078687822e+01 -7 3 -6
1689 563 2 4.0999999999999998e-01 -4.1593620243549623e-01 -1.2277260332784914e+01 -7.9052544474684519e+00 0 1 2
839 280 2 4.0999999999999998e-01 -3.3525373214812433e+00 -7.0508662915456997e+00 -1.3792362001240379e+01 1 2 1
1852 618 1 -8.1999999999999995e-01 -3.7920385858193644e+00 -1.0454403252505976e+01 -9.7407037549063773e+00 -7 3 -6
1646 549 2 4.0999999999999998e-01 -6.1893025711193239e+00 -1.0651892530305968e+01 -1.2639998587037006e+01 -4 0 5
1185 395 2 4.0999999999999998e-01 -5.9009502635491131e+00 -8.3412746234880473e+00 -9.7114058124414022e+00 -3 3 9
516 172 2 4.0999999999999998e-01 -4.0278570781165417e+00 -1.1100974347083589e+01 -1.2931794862471911e+01 4 -2 7
1645 549 1 -8.1999999999999995e-01 -5.5512491821501850e+00 -1.0307996601838610e+01 -1.3328888572940375e+01 -4 0 5
2114 705 2 4.0999999999999998e-01 -7.0383178192041322e+00 -1.2425785435533541e+01 -8.0770339659413146e+00 -8 -1 2
746 249 2 4.0999999999999998e-01 -3.5203089827057408e+00 -7.1334343079464393e+00 -9.8179458916355902e+00 -1 -1 4
515 172 2 4.0999999999999998e-01 -2.4030441564284928e+00 -1.0965445432088616e+01 -1.2841810507418137e+01 4 -2 7
514 172 1 -8.1999999999999995e-01 -3.2150768516795374e+00 -1.1355660419022387e+01 -1.2407896642307998e+01 4 -2 7
747 249 2 4.0999999999999998e-01 -3.9027781112582893e+00 -8.7044445590004091e+00 -1.0046258060529476e+01 -1 -1 4
745 249 1 -8.1999999999999995e-01 -4.0490139048295788e+00 -7.7721323389989552e+00 -1.0376946653338425e+01 -1 -1 4
1249 417 1 -8.1999999999999995e-01 -2.8623062601823044e+00 -6.2032263119845155e+00 -8.4064524320621921e+00 -2 -1 2
1853 618 2 4.0999999999999998e-01 -4.3787811698034584e+00 -1.0922522373657420e+01 -9.0799893205395872e+00 -7 3 -6
838 280 1 -8.1999999999999995e-01 -2.3709859124872228e+00 -7.2277552871451549e+00 -1.3864563927543074e+01 1 2 1
219 73 2 4.0999999999999998e-01 -4.0962933370233703e+00 -1.3344789549102785e+01 -1.1457564662317591e+01 -4 6 3
217 73 1 -8.1999999999999995e-01 -4.8771967993146141e+00 -1.3559405681415846e+01 -1.0870984987320369e+01 -4 6 3
191 64 2 4.0999999999999998e-01 -1.0411576872231088e+00 -9.1622251926129721e+00 -7.5459775928556336e+00 0 -2 6
2229 743 2 4.0999999999999998e-01 -1.2754684792931613e+01 -1.4910632701688973e+01 -7.4435429861653200e+00 0 -2 4
1361 454 2 4.0999999999999998e-01 -1.3407680081455755e+01 -1.3754984161404556e+01 -1.6750890254812099e+00 3 0 5
2448 816 2 4.0999999999999998e-01 -1.0669688973019451e+01 -7.5138126834377541e+00 -3.4590725733044110e+00 -1 1 7
1360 454 1 -8.1999999999999995e-01 -1.2792595366699603e+01 -1.3958439506020271e+01 -2.4368125208264360e+00 3 0 5
2213 738 2 4.0999999999999998e-01 -1.1076455987754320e+01 -1.3640146309588882e+01 -5.8126638925912157e+00 -3 -1 10
122 41 2 4.0999999999999998e-01 -1.0989851143434864e+01 -1.2875560393538837e+01 -2.7180729832496180e+00 -3 -7 4
1175 392 2 4.0999999999999998e-01 -8.2429805031226575e+00 -8.8574688488951914e+00 -6.3126599719400467e-01 -3 0 0
1140 380 2 4.0999999999999998e-01 -1.3432489248129846e+01 -8.0371136667262064e+00 -4.6236478256574891e+00 0 0 3
110 37 2 4.0999999999999998e-01 -1.0689951684747005e+01 -1.1367203307748103e+01 -7.0370226428476554e+00 1 0 7
1176 392 2 4.0999999999999998e-01 -8.7414570790196677e+00 -1.0383524253647874e+01 -9.2985983738992495e-01 -3 0 0
1174 392 1 -8.1999999999999995e-01 -9.0195047843027361e+00 -9.4860033647758506e+00 -5.8767325702631545e-01 -3 0 0
123 41 2 4.0999999999999998e-01 -9.6863102489108819e+00 -1.1942186258079786e+01 -2.4081111207675630e+00 -3 -7 4
121 41 1 -8.1999999999999995e-01 -1.0472031476606974e+01 -1.2072465806242796e+01 -3.0127725407852779e+00 -3 -7 4
143 48 2 4.0999999999999998e-01 -7.4868018782802279e+00 -1.4880547796347996e+01 -5.5553237893165406e+00 -1 3 2
1138 380 1 -8.1999999999999995e-01 -1.2604790941541443e+01 -7.5002921816690176e+00 -4.4602949708832238e+00 0 0 3
818 273 2 4.0999999999999998e-01 -1.3862281981213165e+01 -9.7597745265575337e+00 -6.6715670828489060e+00 -4 7 9
808 270 1 -8.1999999999999995e-01 -8.4482493708637989e+00 -8.5982706410657208e+00 -7.2972580870337573e+00 3 -1 4
1759 587 1 -8.1999999999999995e-01 -1.1688222940620683e+01 -6.1994626732674689e+00 -6.9437100963155096e+00 2 2 6
687 229 2 4.0999999999999998e-01 -1.2417518927712107e+01 -9.0806372598445222e+00 -2.8234261268878686e+00 -8 0 8
256 86 1 -8.1999999999999995e-01 -1.4725229518260473e+01 -7.6513063428446015e+00 -2.2937255605257860e+00 6 4 3
1139 380 2 4.0999999999999998e-01 -1.2329087178053207e+01 -7.0466478385978872e+00 -5.3077264951910035e+00 0 0 3
656 219 2 4.0999999999999998e-01 -1.2463262008092485e+01 -6.7927310511988388e+00 -1.4636467459037874e+00 -3 4 3
1526 509 2 4.0999999999999998e-01 -1.3470873712247126e+01 -5.4660060734277813e+00 -3.6301943574878415e+00 -1 2 0
1400 467 2 4.0999999999999998e-01 -8.2508760090779507e+00 -7.4260187186938476e+00 -2.2755268349682787e+00 -1 -4 5
2446 816 1 -8.1999999999999995e-01 -9.8081347252906301e+00 -7.1683015812063084e+00 -3.0871957922110873e+00 -1 1 7
2447 816 2 4.0999999999999998e-01 -9.9875380924600350e+00 -6.3603382510916884e+00 -2.5259867080211968e+00 -1 1 7
257 86 2 4.0999999999999998e-01 -1.4124085664916633e+01 -8.4357998981869144e+00 -2.1416005812178742e+00 6 4 3
2214 738 2 4.0999999999999998e-01 -1.0728175622725095e+01 -1.2481281909456202e+01 -4.7162075959274059e+00 -3 -1 10
1891 631 1 -8.1999999999999995e-01 -1.4873400479823774e+01 -8.9224838360946457e+00 -5.4167337258171777e+00 1 -1 1
2212 738 1 -8.1999999999999995e-01 -1.0828032696367274e+01 -1.2679154831380201e+01 -5.6913080066035935e+00 -3 -1 10
686 229 2 4.0999999999999998e-01 -1.2843316279181389e+01 -1.0656188990234190e+01 -2.8764928321643897e+00 -8 0 8
1760 587 2 4.0999999999999998e-01 -1.0777976007766581e+01 -6.0927962270862590e+00 -7.3437335802607091e+00 2 2 6
2141 714 2 4.0999999999999998e-01 -9.4666796212260138e+00 -5.3466179220065744e+00 -4.4193087909243545e-01 -1 -6 0
685 229 1 -8.1999999999999995e-01 -1.3069353137018355e+01 -9.7619015524364947e+00 -2.4903538115829562e+00 -8 0 8
119 40 2 4.0999999999999998e-01 -9.0367007260274157e+00 -6.7406554573951301e+00 -4.6912695777741362e+00 1 2 5
2166 722 2 4.0999999999999998e-01 -7.5923716280432672e+00 -1.3738907364928053e+01 -1.9795744951634440e+00 -1 -2 -1
730 244 1 -8.1999999999999995e-01 -7.7782035564442049e+00 -1.1583656922324071e+01 -1.7966869019021168e+00 -5 3 8
1520 507 2 4.0999999999999998e-01 -9.0215513007732042e+00 -1.2692248477347752e+01 -6.7733001232668446e+00 -3 -3 0
603 201 2 4.0999999999999998e-01 -1.0847391827174869e+01 -1.1301999521952217e+01 -8.0264612157435167e-01 -3 -4 1
657 219 2 4.0999999999999998e-01 -1.1117979030684584e+01 -7.1970932550649582e+00 -6.3106808441796858e-01 -3 4 3
655 219 1 -8.1999999999999995e-01 -1.2096234917438640e+01 -7.3746633627765652e+00 -7.3798027849695380e-01 -3 4 3
118 40 1 -8.1999999999999995e-01 -8.3795861383313408e+00 -6.4824534062833177e+00 -5.3994207301232091e+00 1 2 5
1620 540 2 4.0999999999999998e-01 -8.0401963814217243e+00 -4.9889349307883695e+00 -6.2769357818470635e+00 3 -2 8
120 40 2 4.0999999999999998e-01 -8.3163702338652286e+00 -7.2140601424910642e+00 -6.0781705496427172e+00 1 2 5
601 201 1 -8.1999999999999995e-01 -1.1263316062624336e+01 -1.1782424219790418e+01 -3.0541760922357497e-02 -3 -4 1
817 273 1 -8.1999999999999995e-01 -1.3326713413541265e+01 -1.0084797536367413e+01 -7.4509721796672093e+00 -4 7 9
1186 396 1 -8.1999999999999995e-01 -1.4126355225333352e+01 -1.3122452839828899e+01 -2.4126160143878650e-01 -3 2 3
2140 714 1 -8.1999999999999995e-01 -9.7832367763817327e+00 -5.1420906885789783e+00 -1.3681631081839516e+00 -1 -6 0
1362 454 2 4.0999999999999998e-01 -1.3043925895308011e+01 -1.4837133222759077e+01 -2.8426157694715712e+00 3 0 5
2228 743 2 4.0999999999999998e-01 -1.3164000075143070e+01 -1.4759014464790356e+01 -5.8700261241700868e+00 0 -2 4
2159 720 2 4.0999999999999998e-01 -1.3209504589276746e+01 -9.3170856001748543e+00 -3.7255960114841002e-02 1 0 6
618 206 2 4.0999999999999998e-01 -3.2116130204766602e+00 -1.4833894087836448e+01 -1.6259586271911708e-01 -2 -1 1
1688 563 2 4.0999999999999998e-01 -1.7799064194966192e+00 -1.2943784491049795e+01 -7.3037454004260152e+00 0 1 2
1368 456 2 4.0999999999999998e-01 -7.2011430322782868e+00 -9.6356013219904249e+00 -6.6238353335712326e+00 -4 1 9
1410 470 2 4.0999999999999998e-01 -4.7350671711881649e+00 -1.2593234920287919e+01 -6.9069878493113297e+00 2 -3 -3
1827 609 2 4.0999999999999998e-01 -3.8754848586356623e+00 -1.4396025167866604e+01 -3.7329580087066923e+00 1 7 3
1367 456 2 4.0999999999999998e-01 -6.3497701684994237e+00 -1.0992453293446458e+01 -6.9410093789964886e+00 -4 1 9
1399 467 1 -8.1999999999999995e-01 -7.4119219720955245e+00 -7.4257162475946794e+00 -1.7313742801116163e+00 -1 -4 5
1491 497 2 4.0999999999999998e-01 -6.4272361513885894e+00 -7.6603997769363108e+00 -3.4605813924659756e-01 -7 4 3
2165 722 2 4.0999999999999998e-01 -7.2408181776404401e+00 -1.4610868306180739e+01 -6.4444281490765221e-01 -1 -2 -1
378 126 2 4.0999999999999998e-01 -4.6754282689897497e+00 -1.1370427397297412e+01 -3.3062931776999918e+00 -7 0 -1
2418 806 2 4.0999999999999998e-01 -5.9444816931070950e+00 -9.4805294104703144e+00 -3.4765843031985408e+00 -2 4 4
731 244 2 4.0999999999999998e-01 -7.3684503171004856e+00 -1.1787289387804258e+01 -9.0754005996467590e-01 -5 3 8
557 186 2 4.0999999999999998e-01 -3.0365196309766489e+00 -8.7635944654914546e+00 -6.7677851405625766e-01 -3 9 3
1261 421 1 -8.1999999999999995e-01 -4.0191118542818600e+00 -1.1997352237064183e+01 -1.4909549452532112e-01 2 3 2
1696 566 1 -8.1999999999999995e-01 -4.8016709136473992e+00 -7.4862100336653601e+00 -3.0095657087135450e+00 1 4 5
1687 563 1 -8.1999999999999995e-01 -8.5819966451214569e-01 -1.2627339486243841e+01 -7.0795465198968390e+00 0 1 2
1744 582 1 -8.1999999999999995e-01 -3.6044864990844108e+00 -9.1219697315224106e+00 -5.4517136442599750e+00 4 3 0
170 57 2 4.0999999999999998e-01 -4.0277307067285584e-01 -1.0501965082778481e+01 -1.4234467200965302e+00 -5 1 3
1826 609 2 4.0999999999999998e-01 -2.4099123075999902e+00 -1.3840303313360796e+01 -4.1909456091294981e+00 1 7 3
25 9 1 -8.1999999999999995e-01 -3.1582037574805888e-01 -1.1773158323733604e+01 -1.5191392857644992e-01 -3 6 4
1498 500 1 -8.1999999999999995e-01 -3.2636076016414606e-02 -7.4496112840776130e+00 -5.4963184110509271e+00 -1 3 3
1366 456 1 -8.1999999999999995e-01 -6.4420546153462617e+00 -1.0212420778284145e+01 -6.3221565755581999e+00 -4 1 9
292 98 1 -8.1999999999999995e-01 -6.4645444619387327e-01 -5.6204970486617114e+00 -1.8429565571717426e+00 6 -1 6
377 126 2 4.0999999999999998e-01 -3.1367266595486498e+00 -1.1916664349655198e+01 -3.2838233127396688e+00 -7 0 -1
1825 609 1 -8.1999999999999995e-01 -3.3284735074847376e+00 -1.4077482950312975e+01 -4.5070738739662097e+00 1 7 3
881 294 2 4.0999999999999998e-01 -1.4355428887956041e+00 -5.8282334168279455e+00 -3.4723603607080218e+00 2 5 3
1499 500 2 4.0999999999999998e-01 -7.3140613217613293e-01 -6.8315206705114431e+00 -5.1362761794396086e+00 -1 3 3
4 2 1 -8.1999999999999995e-01 -1.8968611582631549e+00 -1.1544794460002777e+01 -4.6100587206245063e+00 0 5 2
2519 840 2 4.0999999999999998e-01 -6.4148010713956864e+00 -5.6673633697755132e+00 -1.5464106894870664e+00 4 4 3
5 2 2 4.0999999999999998e-01 -1.4717878100045905e+00 -1.1855140135606472e+01 -5.4603199613357631e+00 0 5 2
2567 856 2 4.0999999999999998e-01 -1.8323360635590227e+00 -7.1825827997579683e+00 -1.8019424066103085e+00 1 4 1
293 98 2 4.0999999999999998e-01 -1.3985259453064103e-01 -5.9198022710587370e+00 -1.0344288776745554e+00 6 -1 6
2164 722 1 -8.1999999999999995e-01 -7.2021758506007654e+00 -1.4596104750785294e+01 -1.6435597924455738e+00 -1 -2 -1
460 154 1 -8.1999999999999995e-01 -8.3521473868586327e-02 -1.3652689943612657e+01 -3.9836255724035858e+00 -4 3 0
1409 470 2 4.0999999999999998e-01 -3.5196798944944856e+00 -1.2700330891054270e+01 -5.8217014291165601e+00 2 -3 -3
1408 470 1 -8.1999999999999995e-01 -3.7520814225641743e+00 -1.2473878983586545e+01 -6.7675635115938544e+00 2 -3 -3
880 294 1 -8.1999999999999995e-01 -1.7069503966172217e+00 -5.5986947121965880e+00 -4.4070238906838650e+00 2 5 3
1697 566 2 4.0999999999999998e-01 -4.6842492709227113e+00 -7.7204896461782022e+00 -3.9745896539156025e+00 1 4 5
882 294 2 4.0999999999999998e-01 -2.6429561485865651e+00 -5.2467905069686154e+00 -4.4053982627415813e+00 2 5 3
376 126 1 -8.1999999999999995e-01 -3.9953112623866573e+00 -1.1873435598986235e+01 -2.7730300819407958e+00 -7 0 -1
2566 856 1 -8.1999999999999995e-01 -2.3476549607003623e+00 -8.0262453370501561e+00 -1.9523616010819200e+00 1 4 1
1698 566 2 4.0999999999999998e-01 -3.9281811373287816e+00 -7.5872427982788855e+00 -2.5333788087493918e+00 1 4 5
1401 467 2 4.0999999999999998e-01 -6.6192685733108068e+00 -7.4183871017295679e+00 -2.3409584363182887e+00 -1 -4 5
2416 806 1 -8.1999999999999995e-01 -6.1760988781368180e+00 -1.0415219834748955e+01 -3.7461269413778417e+00 -2 4 4
6 2 2 4.0999999999999998e-01 -2.2470103422373189e+00 -1.0616112350397476e+01 -4.7320875459425675e+00 0 5 2
2417 806 2 4.0999999999999998e-01 -6.3493595073025801e+00 -1.0444991901684755e+01 -4.7305254324161634e+00 -2 4 4
169 57 1 -8.1999999999999995e-01 -2.1167121486674390e-01 -9.9519575446016617e+00 -2.2364152041291092e+00 -5 1 3
732 244 2 4.0999999999999998e-01 -7.0781166180259145e+00 -1.1219221895926452e+01 -2.4106994113805040e+00 -5 3 8
2568 856 2 4.0999999999999998e-01 -1.7211518834271171e+00 -8.7544559928031696e+00 -2.2301188360976170e+00 1 4 1
1746 582 2 4.0999999999999998e-01 -4.2621558966502313e+00 -9.8399689845624714e+00 -5.6795161129086278e+00 4 3 0
461 154 2 4.0999999999999998e-01 -3.1862953094787017e-01 -1.2683737754783380e+01 -4.0597951998433004e+00 -4 3 0
1263 421 2 4.0999999999999998e-01 -4.0541167290543090e+00 -1.2228262853390039e+01 -1.1214128094411926e+00 2 3 2
1745 582 2 4.0999999999999998e-01 -2.9863325760758919e+00 -8.9787722218504875e+00 -6.2245824182952365e+00 4 3 0
26 9 2 4.0999999999999998e-01 -1.1173473171863577e+00 -1.2356978566441619e+01 -2.2861956167298914e-02 -3 6 4
558 186 2 4.0999999999999998e-01 -3.6577461428294047e+00 -1.0130467773722788e+01 -3.4737045232409614e-02 -3 9 3
1269 423 2 4.0999999999999998e-01 -3.4150538644925437e+00 -1.4344725655424135e+01 -7.4657314347158525e+00 4 3 1
616 206 1 -8.1999999999999995e-01 -2.5777974382943416e+00 -1.4063072065083537e+01 -9.8900188958234381e-02 -2 -1 1
2070 690 2 4.0999999999999998e-01 -1.3286714377310192e+01 -1.3148621711620374e+01 3.8118730947245734e+00 0 6 4
1001 334 2 4.0999999999999998e-01 -1.0763681715615176e+01 -1.2698119704545096e+01 5.0933350623058171e+00 0 2 7
2069 690 2 4.0999999999999998e-01 -1.2548780335839407e+01 -1.1810270898539684e+01 3.2367619724951258e+00 0 6 4
2461 821 1 -8.1999999999999995e-01 -1.0758266135667329e+01 -1.0795418821491438e+01 4.3271679802083494e+00 -5 5 6
1000 334 1 -8.1999999999999995e-01 -1.1166214609566016e+01 -1.3319429200483867e+01 5.7655610020404335e+00 0 2 7
1002 334 2 4.0999999999999998e-01 -1.1878200886037991e+01 -1.3868334838391693e+01 5.3276978922042755e+00 0 2 7
2462 821 2 4.0999999999999998e-01 -1.1618402015020008e+01 -1.0343957598034491e+01 4.5644338877989217e+00 -5 5 6
2463 821 2 4.0999999999999998e-01 -1.0375699739789077e+01 -1.0372975973359507e+01 3.5055044430210582e+00 -5 5 6
393 131 2 4.0999999999999998e-01 -1.1910098275490052e+01 -1.2320531018669502e+01 7.4251355480963408e+00 -3 3 5
2256 752 2 4.0999999999999998e-01 -9.7920097263977119e+00 -1.4149937674763741e+01 2.6260671031426721e+00 -6 5 2
733 245 1 -8.1999999999999995e-01 -7.6629635670321825e+00 -9.5158954160207720e+00 2.3092550243035266e+00 -1 1 1
605 202 2 4.0999999999999998e-01 -1.3969093635885319e+01 -9.0354137711979607e+00 4.1486526000949855e+00 -4 -2 1
1058 353 2 4.0999999999999998e-01 -1.4194741793895551e+01 -7.0806952600838136e+00 2.1162396720234309e+00 3 -1 11
735 245 2 4.0999999999999998e-01 -8.5386624734857577e+00 -9.1218751973595325e+00 2.5882633450695796e+00 -1 1 1
606 202 2 4.0999999999999998e-01 -1.2975793045149906e+01 -8.9787361038429943e+00 5.4434977173226304e+00 -4 -2 1
604 202 1 -8.1999999999999995e-01 -1.3195845035397429e+01 -9.4762118819523664e+00 4.6044262160510616e+00 -4 -2 1
1352 451 2 4.0999999999999998e-01 -9.0223827413319810e+00 -1.1849651639527195e+01 7.3364510663263172e+00 -5 -1 1
1353 451 2 4.0999999999999998e-01 -8.9721118883773130e+00 -1.1170747382183084e+01 5.8521855033645327e+00 -5 -1 1
1351 451 1 -8.1999999999999995e-01 -8.9881724492082107e+00 -1.0985352821840380e+01 6.8346909735560164e+00 -5 -1 1
2163 721 2 4.0999999999999998e-01 -1.1146599033424632e+01 -6.8648982370929961e+00 4.4072218331872275e+00 0 -3 4
254 85 2 4.0999999999999998e-01 -1.0467229164208582e+01 -7.8266490819460603e+00 6.1778486870860778e+00 -1 1 6
255 85 2 4.0999999999999998e-01 -9.6990187954261984e+00 -9.0799950379539407e+00 5.4668922519600773e+00 -1 1 6
253 85 1 -8.1999999999999995e-01 -9.7967732907135883e+00 -8.0849315983257952e+00 5.4823452744365593e+00 -1 1 6
336 112 2 4.0999999999999998e-01 -8.6948909759744719e+00 -7.4127369574705133e+00 4.1588054702695043e+00 -7 6 2
863 288 2 4.0999999999999998e-01 -1.2933019814783670e+01 -5.9928541165244571e+00 3.3407145066209747e+00 -1 -1 1
668 223 2 4.0999999999999998e-01 -1.3521445351673323e+01 -5.8163767578821126e+00 7.2175862876326153e+00 1 6 4
1059 353 2 4.0999999999999998e-01 -1.3406087968304647e+01 -7.2094189778413611e+00 6.9218286930154527e-01 3 -1 11
2161 721 1 -8.1999999999999995e-01 -1.1476528678898312e+01 -6.8290149897243619e+00 3.4639271977524562e+00 0 -3 4
667 223 1 -8.1999999999999995e-01 -1.4352377900660388e+01 -6.3442846035488394e+00 7.3931150418855953e+00 1 6 4
2162 721 2 4.0999999999999998e-01 -1.1402446556631205e+01 -7.7363530662991735e+00 3.0501695708115069e+00 0 -3 4
1057 353 1 -8.1999999999999995e-01 -1.4270025537575799e+01 -7.3812848295205340e+00 1.1654903646956090e+00 3 -1 11
721 241 1 -8.1999999999999995e-01 -1.3632014912644484e+01 -1.4815982601153930e+01 5.0702341413439438e+00 -5 3 -1
2353 785 1 -8.1999999999999995e-01 -1.0703192549409373e+01 -9.1298988560386451e+00 1.8134021681882455e+00 1 2 0
2068 690 1 -8.1999999999999995e-01 -1.3224616545005382e+01 -1.2519680591670292e+01 3.0369389729922407e+00 0 6 4
2254 752 1 -8.1999999999999995e-01 -9.0209966946710587e+00 -1.4053632553288899e+01 3.2555193864323950e+00 -6 5 2
770 257 2 4.0999999999999998e-01 -1.1086957651724404e+01 -1.3304065366243588e+01 7.6300470958604905e-01 -2 1 4
1722 574 2 4.0999999999999998e-01 -7.7686107963832534e+00 -1.2742110601871099e+01 4.0650901953562926e+00 -4 2 3
334 112 1 -8.1999999999999995e-01 -8.2393134889015425e+00 -6.7264274129194277e+00 3.5919066369998927e+00 -7 6 2
1510 504 1 -8.1999999999999995e-01 -8.6039204469856116e+00 -5.8212689794701244e+00 1.1604320162562143e+00 1 4 7
769 257 1 -8.1999999999999995e-01 -1.0837240624904508e+01 -1.4177200597755839e+01 1.1816002486312893e+00 -2 1 4
2255 752 2 4.0999999999999998e-01 -9.0348371966827905e+00 -1.4803671342903220e+01 3.9167275331750648e+00 -6 5 2