LAMMPS data file via write_data, version 15 May 2015, timestep = 8008000

2611 atoms
6 atom types
1749 bonds
4 bond types
894 angles
3 angle types
44 dihedrals
3 dihedral types
10 impropers
1 improper types

-1.4932447192776797e+01 1.4932447192776797e+01 xlo xhi
-1.4932447192776797e+01 1.4932447192776797e+01 ylo yhi
-1.4932447192776797e+01 1.4932447192776797e+01 zlo zhi

Masses

1 15.9994
2 1.00794
3 12.0107
4 1.00794
5 12.0107
6 12.0107

Bond Coeffs # harmonic

1 1000 1
2 469 1.4
3 367 1.08
4 469 0.7

Angle Coeffs # harmonic

1 100 109.47
2 35 120
3 63 120

Dihedral Coeffs # opls

1 0 7.25 0 0
2 0 7.25 0 0
3 0 7.25 0 0

Improper Coeffs # cvff

1 2.5 -1 2

Atoms # full

1925 642 2 4.0999999999999998e-01 -1.0054400576519345e+01 -1.3744822890366311e+01 -9.9431128696110953e+00 0 -1 1
1326 442 2 4.0999999999999998e-01 -8.8070052551579536e+00 -1.0881332915546576e+01 -8.9238449291503592e+00 0 0 1
1325 442 2 4.0999999999999998e-01 -8.5643776768006425e+00 -9.2681781662991085e+00 -8.8506155194163156e+00 0 0 1
1324 442 1 -8.1999999999999995e-01 -8.7954011205144464e+00 -1.0032594773127606e+01 -9.4524856362716374e+00 0 0 1
1917 639 2 4.0999999999999998e-01 -1.0967806394146411e+01 -9.0167280517910910e+00 -1.3790382098561228e+01 1 -1 2
1915 639 1 -8.1999999999999995e-01 -1.1591637452792696e+01 -9.4911718786035255e+00 -1.4411421593789436e+01 1 -1 2
1916 639 2 4.0999999999999998e-01 -1.1770209066515569e+01 -1.0412130565603643e+01 -1.4065156473269447e+01 1 -1 2
1924 642 1 -8.1999999999999995e-01 -9.2630895424704498e+00 -1.3167710895855127e+01 -9.7413190472544464e+00 0 -1 1
1746 582 2 4.0999999999999998e-01 -1.1631381665771974e+01 -8.0628753598469221e+00 -8.7369789913384377e+00 1 2 0
1744 582 1 -8.1999999999999995e-01 -1.2027844535741893e+01 -8.9617337976773577e+00 -8.9235882026197650e+00 1 2 0
537 179 2 4.0999999999999998e-01 -9.5895937866117364e+00 -8.7446106558113854e+00 -1.1675994558812516e+01 2 -3 -4
1745 582 2 4.0999999999999998e-01 -1.2057476649189137e+01 -9.1143881353744458e+00 -9.9113993607079998e+00 1 2 0
1926 642 2 4.0999999999999998e-01 -9.4211122479122391e+00 -1.2672136146378385e+01 -8.8872777012626472e+00 0 -1 1
535 179 1 -8.1999999999999995e-01 -9.7741084577544051e+00 -8.0940051492125580e+00 -1.2412621359370268e+01 2 -3 -4
2435 812 2 4.0999999999999998e-01 -1.1884429411965112e+01 -1.2435293549950256e+01 -1.4097513711202355e+01 -1 2 4
469 157 1 -8.1999999999999995e-01 -1.2193668301866804e+01 -1.1579741995824719e+01 -8.5912040306580515e+00 1 1 1
471 157 2 4.0999999999999998e-01 -1.2144403232524429e+01 -1.0581136382574570e+01 -8.6088640366386926e+00 1 1 1
2005 669 1 -8.1999999999999995e-01 -8.2698984360423822e+00 -9.9888545045098383e+00 -1.4770748833346216e+01 -1 3 -1
2335 779 1 -8.1999999999999995e-01 -1.2331059109040602e+01 -6.4235070057069983e+00 -1.3223481247462638e+01 -2 -1 -1
2336 779 2 4.0999999999999998e-01 -1.1400253791484188e+01 -6.6943085024923406e+00 -1.3468878934241845e+01 -2 -1 -1
2337 779 2 4.0999999999999998e-01 -1.2855481159080590e+01 -7.2333817589103973e+00 -1.2960733085092970e+01 -2 -1 -1
2434 812 1 -8.1999999999999995e-01 -1.1534011868506372e+01 -1.1909874288416843e+01 -1.3322210943616080e+01 -1 2 4
536 179 2 4.0999999999999998e-01 -8.9290193622130172e+00 -7.6183992207285511e+00 -1.2656702647007066e+01 2 -3 -4
1290 430 2 4.0999999999999998e-01 -7.7151517738764852e+00 -6.5093931386322801e+00 -8.3029104479409703e+00 2 0 2
256 86 1 -8.1999999999999995e-01 -1.4777975035244454e+01 -1.1976093375958445e+01 -1.4308399480395446e+01 2 2 1
1181 394 2 4.0999999999999998e-01 -1.3257611876927903e+01 -1.3020247250022715e+01 -9.0124545839527315e+00 5 -2 0
2530 844 1 -8.1999999999999995e-01 -1.1171969917586690e+01 -6.3120480243270549e+00 -8.7401866673467872e+00 1 4 1
2436 812 2 4.0999999999999998e-01 -1.0540661053921554e+01 -1.2012962626183640e+01 -1.3271425078000977e+01 -1 2 4
2391 797 2 4.0999999999999998e-01 -8.8183241162702970e+00 -1.1275348885482348e+01 -1.1266406732748791e+01 1 0 3
2389 797 1 -8.1999999999999995e-01 -8.8571158164043045e+00 -1.1466115139287760e+01 -1.2247250964780671e+01 1 0 3
278 93 2 4.0999999999999998e-01 -1.2061577162996965e+01 -1.0946456207435235e+01 -1.2116338112919355e+01 2 2 2
279 93 2 4.0999999999999998e-01 -1.2551928763584339e+01 -1.1058084309660410e+01 -1.0562763623872021e+01 2 2 2
2532 844 2 4.0999999999999998e-01 -1.0501001361447679e+01 -5.7481022585153578e+00 -9.2215578677250321e+00 1 4 1
2531 844 2 4.0999999999999998e-01 -1.1756643411056931e+01 -5.7273863570477950e+00 -8.1777990109050300e+00 1 4 1
277 93 1 -8.1999999999999995e-01 -1.2502670624933094e+01 -1.0459663906491450e+01 -1.1362400373732847e+01 2 2 2
2007 669 2 4.0999999999999998e-01 -8.4093903168875315e+00 -1.0069478720061717e+01 -1.3783837526241014e+01 -1 3 -1
258 86 2 4.0999999999999998e-01 -1.4744217147912389e+01 -1.2963849978504705e+01 -1.4156250572995029e+01 2 2 1
2390 797 2 4.0999999999999998e-01 -8.0157433121843482e+00 -1.1926123156048900e+01 -1.2530865502051299e+01 1 0 3
2234 745 2 4.0999999999999998e-01 -1.3573513161252638e+01 -9.0616824402922269e+00 -1.2029677705886684e+01 1 2 -1
2023 675 1 -8.1999999999999995e-01 -7.4820891715651623e+00 -7.0027581594381756e+00 -1.3317920180364418e+01 1 2 4
79 27 1 -8.1999999999999995e-01 -1.4623362462561033e+01 -6.8692438362006563e+00 -7.9571025923968275e+00 -1 1 2
1149 383 2 4.0999999999999998e-01 -8.0592155991746353e+00 -1.4699493053318212e+01 -8.1942842311883162e+00 0 3 0
81 27 2 4.0999999999999998e-01 -1.4776595439873697e+01 -6.4579007997300621e+00 -8.8555839635806350e+00 -1 1 2
2233 745 1 -8.1999999999999995e-01 -1.4296655407182538e+01 -8.3880462732516143e+00 -1.2182097875240791e+01 1 2 -1
1180 394 1 -8.1999999999999995e-01 -1.3429040279021461e+01 -1.3915844909234664e+01 -9.4229048766481611e+00 5 -2 0
1978 660 1 -8.1999999999999995e-01 -9.1768528922019641e+00 -7.9082194594923632e+00 -7.6471146479506880e+00 -1 0 1
470 157 2 4.0999999999999998e-01 -1.1872029311940613e+01 -1.1913704183524299e+01 -7.7052188582810395e+00 1 1 1
407 136 2 4.0999999999999998e-01 -1.1357681138328347e+01 -1.4213565576466630e+01 -1.2041665372595645e+01 -3 2 -2
1980 660 2 4.0999999999999998e-01 -1.0020892603162785e+01 -7.4536001522875459e+00 -7.9314920109347131e+00 -1 0 1
406 136 1 -8.1999999999999995e-01 -1.1283963155335302e+01 -1.4432498338135977e+01 -1.1068738739487330e+01 -3 2 -2
1182 394 2 4.0999999999999998e-01 -1.2707862641597586e+01 -1.4123112091857868e+01 -1.0083885362115041e+01 5 -2 0
24 8 2 4.0999999999999998e-01 -1.3860175193342855e+01 -5.5992211925640838e+00 -1.2783445685529365e+01 0 1 -1
1739 580 2 4.0999999999999998e-01 -1.2911505003309061e+01 -5.2899940416449240e+00 -1.4597174018287815e+01 0 2 3
1946 649 2 4.0999999999999998e-01 -1.4872855384439337e+01 -8.8663447458501121e+00 -1.0080744930128013e+01 2 1 0
257 86 2 4.0999999999999998e-01 -1.3991690086381380e+01 -1.1696669935531425e+01 -1.4859426394737916e+01 2 2 1
2158 720 1 -8.1999999999999995e-01 -1.3441261308533653e+01 -1.4929726044865420e+01 -1.4391514000208351e+01 1 -1 1
1288 430 1 -8.1999999999999995e-01 -7.3275180206881627e+00 -5.7774010802691826e+00 -8.8631603439327780e+00 2 0 2
1289 430 2 4.0999999999999998e-01 -6.3798653726297054e+00 -5.9994496224636737e+00 -9.0925096768491311e+00 2 0 2
1233 411 2 4.0999999999999998e-01 -3.9530146250493345e+00 -1.4432805718874341e+01 -1.0265750021111415e+01 -1 1 4
365 122 2 4.0999999999999998e-01 -2.0969172194292245e+00 -5.5118258816968435e+00 -9.6256706186132135e+00 -1 6 1
1839 613 2 4.0999999999999998e-01 -7.4450273089277292e+00 -1.2987890156217212e+01 -1.0620250101205432e+01 -1 0 2
2272 758 1 -8.1999999999999995e-01 -5.4394966631960635e+00 -1.1084888767549923e+01 -1.1708969542392181e+01 3 2 2
533 178 2 4.0999999999999998e-01 -2.7725786437855540e+00 -1.2974949202949224e+01 -8.1921446575588455e+00 2 -1 0
2260 754 1 -8.1999999999999995e-01 -2.4868371175289496e+00 -1.0518770842551007e+01 -1.1116275175120069e+01 0 0 1
1837 613 1 -8.1999999999999995e-01 -6.8982140674779711e+00 -1.3269150961092217e+01 -1.1408818377641380e+01 -1 0 2
534 178 2 4.0999999999999998e-01 -2.2247452605055589e+00 -1.4513252748515377e+01 -8.1922720836707299e+00 2 -1 0
2037 679 2 4.0999999999999998e-01 -5.6604630027739802e+00 -9.7110553181943811e+00 -1.2599869103145725e+01 5 5 6
532 178 1 -8.1999999999999995e-01 -2.5095154282722110e+00 -1.3747918402845126e+01 -8.7694389016170540e+00 2 -1 0
1350 450 2 4.0999999999999998e-01 -4.8416826263844133e+00 -6.7875424076974120e+00 -1.0396256404349911e+01 1 0 4
2024 675 2 4.0999999999999998e-01 -7.2608927529651641e+00 -6.3251200816358129e+00 -1.4019226828615638e+01 1 2 4
1714 572 1 -8.1999999999999995e-01 -2.4196430955951609e+00 -9.4293157578537503e+00 -1.4376403518716932e+01 1 3 -1
364 122 1 -8.1999999999999995e-01 -2.2937621637614747e+00 -5.8365902084126500e+00 -8.7006125887346855e+00 -1 6 1
2061 687 2 4.0999999999999998e-01 -1.7338435469364075e+00 -1.3882570395444420e+01 -1.3392391110295096e+01 3 3 0
1154 385 2 4.0999999999999998e-01 -1.5747446613377711e+00 -1.4745335447754524e+01 -9.9939644526330049e+00 2 1 -2
1838 613 2 4.0999999999999998e-01 -6.9712522804408312e+00 -1.4259187499868929e+01 -1.1529007228656333e+01 -1 0 2
823 275 1 -8.1999999999999995e-01 -1.1213670475538802e+00 -8.0945492726360690e+00 -1.1862455791088630e+01 -1 1 3
1349 450 2 4.0999999999999998e-01 -3.7358753474710529e+00 -6.7878823523003451e+00 -9.1947202748456558e+00 1 0 4
2059 687 1 -8.1999999999999995e-01 -1.2824077348849503e+00 -1.4757057716760784e+01 -1.3215106371866186e+01 3 3 0
2025 675 2 4.0999999999999998e-01 -6.7296869954750793e+00 -7.6564325034653402e+00 -1.3236969230624126e+01 1 2 4
2262 754 2 4.0999999999999998e-01 -2.7354291534938611e+00 -1.0445237811582587e+01 -1.0150486910512804e+01 0 0 1
1716 572 2 4.0999999999999998e-01 -1.9624683946489849e+00 -9.0980345433249639e+00 -1.3551057322515204e+01 1 3 -1
2580 860 2 4.0999999999999998e-01 -3.0659544591398316e+00 -5.4771924947568262e+00 -1.1813635741764891e+01 -2 1 0
361 121 1 -8.1999999999999995e-01 -4.8345070107320733e+00 -6.3237353377148349e+00 -1.2014461187241999e+01 5 -1 5
2273 758 2 4.0999999999999998e-01 -5.4329772187853909e+00 -1.0567494013158536e+01 -1.0853275446791880e+01 3 2 2
2036 679 2 4.0999999999999998e-01 -5.2425356131602694e+00 -9.0831010048138303e+00 -1.4048147164298916e+01 5 5 6
824 275 2 4.0999999999999998e-01 -1.4499143095323230e+00 -7.2681444949784133e+00 -1.1405220603666320e+01 -1 1 3
2261 754 2 4.0999999999999998e-01 -3.2185417892697590e+00 -1.0984112997900491e+01 -1.1614288436143609e+01 0 0 1
437 146 2 4.0999999999999998e-01 -4.8025133651500305e+00 -8.8900665304484310e+00 -9.3451343571958994e+00 -2 1 2
558 186 2 4.0999999999999998e-01 -1.1575440212224919e-01 -1.0277710908368947e+01 -1.0102644584728207e+01 3 3 -1
1025 342 2 4.0999999999999998e-01 -2.4806847664483485e+00 -1.1683259936388680e+01 -1.4669850739120371e+01 4 2 3
2035 679 1 -8.1999999999999995e-01 -5.5441002951544842e+00 -8.8649698735745801e+00 -1.3120014712553347e+01 5 5 6
1348 450 1 -8.1999999999999995e-01 -4.6768962635670093e+00 -7.0225549894801622e+00 -9.4383594842596850e+00 1 0 4
825 275 2 4.0999999999999998e-01 -1.4405857455489866e+00 -8.9005400343403807e+00 -1.1364027687418266e+01 -1 1 3
2274 758 2 4.0999999999999998e-01 -6.0553151563500336e+00 -1.1867754955093215e+01 -1.1620423472133787e+01 3 2 2
363 121 2 4.0999999999999998e-01 -5.1960855892474509e+00 -7.1177129063299551e+00 -1.2503145924275952e+01 5 -1 5
438 146 2 4.0999999999999998e-01 -4.8416316899073450e+00 -1.0147098770085268e+01 -8.3035783308483744e+00 -2 1 2
436 146 1 -8.1999999999999995e-01 -4.6632348362363381e+00 -9.8756500306177628e+00 -9.2493279743314574e+00 -2 1 2
362 121 2 4.0999999999999998e-01 -5.4429137353902970e+00 -5.5421674938678880e+00 -1.2152102518643467e+01 5 -1 5
2578 860 1 -8.1999999999999995e-01 -2.2058036972842565e+00 -5.3596573048148439e+00 -1.1317371259297705e+01 -2 1 0
2016 672 2 4.0999999999999998e-01 -1.7422192537837233e+00 -7.2711979815421524e+00 -7.5234614884450774e+00 2 1 3
1715 572 2 4.0999999999999998e-01 -2.7928293987781547e+00 -8.6533934629230060e+00 -1.4884959181056052e+01 1 3 -1
1024 342 1 -8.1999999999999995e-01 -2.5346536256362615e+00 -1.2676483207145200e+01 -1.4772550176042584e+01 4 2 3
366 122 2 4.0999999999999998e-01 -2.4579658338052486e+00 -5.0537907329035470e+00 -8.1004340732612157e+00 -1 6 1
1073 358 2 4.0999999999999998e-01 -4.4559247997336371e-01 -5.1793810967108982e+00 -8.4265595605623940e+00 2 3 1
1724 575 2 4.0999999999999998e-01 -8.6595395970380338e+00 -1.3814947560514820e+01 -5.1787573904683857e+00 0 6 5
1723 575 1 -8.1999999999999995e-01 -7.6843508859033562e+00 -1.3732985665889682e+01 -5.3842847452141758e+00 0 6 5
1304 435 2 4.0999999999999998e-01 -9.9550949121105106e+00 -1.2747890317757006e+01 -3.2847131282179891e+00 0 5 -1
1303 435 1 -8.1999999999999995e-01 -1.0090778637256243e+01 -1.1785750697037548e+01 -3.5209957853300384e+00 0 5 -1
1305 435 2 4.0999999999999998e-01 -1.0947187966450697e+01 -1.1461464541954921e+01 -3.1193072291994000e+00 0 5 -1
1457 486 2 4.0999999999999998e-01 -1.4320869129797510e+01 -1.4593451557845093e+01 -1.3664403784605685e+00 -1 -1 3
2465 822 2 4.0999999999999998e-01 -1.0983591673268288e+01 -1.2462316366717081e+01 -5.5630294093586325e+00 -2 2 0
2466 822 2 4.0999999999999998e-01 -1.2039298656027160e+01 -1.1260631703605938e+01 -5.2344932947087450e+00 -2 2 0
2446 816 1 -8.1999999999999995e-01 -7.7260924551265600e+00 -1.0523214437281201e+01 -2.5288044831954704e+00 3 3 1
476 159 2 4.0999999999999998e-01 -1.3158846948738995e+01 -1.3299994166827540e+01 -5.8490748021140906e+00 3 1 0
2448 816 2 4.0999999999999998e-01 -8.6438596523117432e+00 -1.0699521290126551e+01 -2.8845733658316064e+00 3 3 1
1729 577 1 -8.1999999999999995e-01 -1.1181107663499549e+01 -8.0406938589592105e+00 -2.6141992034856631e+00 3 1 2
2289 763 2 4.0999999999999998e-01 -1.3858716254639818e+01 -7.9746123528794115e+00 -6.9868698754201306e+00 0 1 0
1787 596 2 4.0999999999999998e-01 -1.3073593734369819e+01 -9.3485924779481842e+00 -4.8974924264538640e+00 3 -5 1
2447 816 2 4.0999999999999998e-01 -7.7924967062828880e+00 -9.9941552265033433e+00 -1.6828499722413479e+00 3 3 1
2227 743 1 -8.1999999999999995e-01 -8.9357335280602221e+00 -7.9280844845425609e+00 -4.5527605582584574e+00 -2 0 2
2228 743 2 4.0999999999999998e-01 -8.4928400060363067e+00 -7.0415284688569333e+00 -4.4192841121411259e+00 -2 0 2
1731 577 2 4.0999999999999998e-01 -1.0999437449173771e+01 -8.4631763611471946e+00 -1.7262483989892274e+00 3 1 2
1730 577 2 4.0999999999999998e-01 -1.1585160494491726e+01 -7.1363893860842378e+00 -2.4766241616051818e+00 3 1 2
1788 596 2 4.0999999999999998e-01 -1.2067622370845928e+01 -9.0875354612177226e+00 -3.6379805867115529e+00 3 -5 1
2229 743 2 4.0999999999999998e-01 -9.7329425526641913e+00 -7.9960787812805920e+00 -3.9529383207772959e+00 -2 0 2
2589 863 2 4.0999999999999998e-01 -1.3193108666808891e+01 -1.3138947035824394e+01 -2.2578697751324253e+00 3 3 4
1786 596 1 -8.1999999999999995e-01 -1.2632798418367340e+01 -9.7682114871092871e+00 -4.1040368974633221e+00 3 -5 1
2048 683 2 4.0999999999999998e-01 -1.1765051525924294e+01 -1.2124953677726818e+01 -1.3278623076779361e-01 2 0 -1
2470 824 1 -8.1999999999999995e-01 -1.4028363227101593e+01 -1.1727023289770926e+01 -2.4577177192424546e+00 -2 1 -1
1562 521 2 4.0999999999999998e-01 -1.4554179454591873e+01 -8.6963061292236041e+00 -3.4712988128585209e+00 3 3 5
2287 763 1 -8.1999999999999995e-01 -1.3383834318038893e+01 -8.7570716710823895e+00 -6.5841333152546309e+00 0 1 0
2472 824 2 4.0999999999999998e-01 -1.3492055801395255e+01 -1.1344767188119992e+01 -3.2101848542657621e+00 -2 1 -1
332 111 2 4.0999999999999998e-01 -7.5870794183187238e+00 -9.4492655821734886e+00 -5.2437350739815063e+00 1 0 -1
477 159 2 4.0999999999999998e-01 -1.3651423995318101e+01 -1.4397534374610434e+01 -6.9532814468922330e+00 3 1 0
1000 334 1 -8.1999999999999995e-01 -7.4715410965380560e+00 -5.5470963133872200e+00 -5.4981026396533661e+00 2 3 3
2464 822 1 -8.1999999999999995e-01 -1.1848587649113984e+01 -1.2039082401205579e+01 -5.8324866833761035e+00 -2 2 0
1767 589 2 4.0999999999999998e-01 -7.9657063730013666e+00 -1.0863265491017522e+01 -6.8887099084464118e+00 -1 0 0
1626 542 2 4.0999999999999998e-01 -1.1205158894114577e+01 -5.0373845733834060e+00 -1.3329705107957217e+00 0 -2 0
267 89 2 4.0999999999999998e-01 -7.6424851110065024e+00 -6.0406467522872145e+00 -2.1793846953302971e+00 0 2 4
83 28 2 4.0999999999999998e-01 -1.3440186389952011e+01 -5.6454402539011426e+00 -7.2552693342929526e+00 2 2 4
2288 763 2 4.0999999999999998e-01 -1.2963975586269655e+01 -9.3018327541974699e+00 -7.3100161975627351e+00 0 1 0
2587 863 1 -8.1999999999999995e-01 -1.2684218693434978e+01 -1.3933934769027040e+01 -1.9277520110959347e+00 3 3 4
475 159 1 -8.1999999999999995e-01 -1.3930999047632842e+01 -1.3852491337089077e+01 -6.1628903707729474e+00 3 1 0
896 299 2 4.0999999999999998e-01 -1.4915662128072665e+01 -1.0885293239201900e+01 -1.1055981753508188e+00 -2 -1 0
1624 542 1 -8.1999999999999995e-01 -1.1796389875803001e+01 -5.7552130572433526e+00 -1.7005578616600481e+00 0 -2 0
1979 660 2 4.0999999999999998e-01 -9.1353565783271868e+00 -7.9396474299271258e+00 -6.6484942936384979e+00 -1 0 1
1001 334 2 4.0999999999999998e-01 -8.0491473023063911e+00 -5.0680052708937939e+00 -6.1590073313598399e+00 2 3 3
1765 589 1 -8.1999999999999995e-01 -8.0195231894422605e+00 -1.1799377189262183e+01 -7.2362018987615917e+00 -1 0 0
1766 589 2 4.0999999999999998e-01 -7.6144715065506183e+00 -1.2425882392190953e+01 -6.5703365546380681e+00 -1 0 0
1615 539 1 -8.1999999999999995e-01 -1.0204337183016314e+01 -1.4754554979001941e+01 -3.9635314483240336e+00 3 2 1
1034 345 2 4.0999999999999998e-01 -1.4686290890451634e+01 -6.1142842377913045e+00 -3.4092154038594806e+00 2 -2 1
683 228 2 4.0999999999999998e-01 -7.5045886485145532e+00 -7.7470079393303024e+00 -5.4081993110902893e-01 0 -2 0
1033 345 1 -8.1999999999999995e-01 -1.4678350978233546e+01 -5.1160045726639520e+00 -3.4668947798969665e+00 2 -2 1
82 28 1 -8.1999999999999995e-01 -1.2697391012279317e+01 -5.0982894560880307e+00 -6.8694801766808045e+00 2 2 4
1625 542 2 4.0999999999999998e-01 -1.2723732403221643e+01 -5.6376178634032925e+00 -1.3453685404591216e+00 0 -2 0
2588 863 2 4.0999999999999998e-01 -1.2309352237524717e+01 -1.4436661865305700e+01 -2.7066568862937679e+00 3 3 4
1571 524 2 4.0999999999999998e-01 -8.1056070990298767e+00 -1.4643294624234759e+01 -8.4712256330825397e-01 -1 1 0
1617 539 2 4.0999999999999998e-01 -1.0452692151662745e+01 -1.4853129820748922e+01 -4.9271470227486382e+00 3 2 1
682 228 1 -8.1999999999999995e-01 -7.9060881499933267e+00 -8.5004654239005468e+00 -2.0193158019159441e-02 0 -2 0
2 1 2 4.0999999999999998e-01 -5.8865955259594465e+00 -1.4838672727310900e+01 -3.7789546987001881e+00 2 0 2
1683 561 2 4.0999999999999998e-01 -2.9026900409666290e-01 -5.4065861959087318e+00 -1.1397031846989059e+00 2 0 3
1954 652 1 -8.1999999999999995e-01 -3.2018414846726557e+00 -1.2788589824998072e+01 -2.7979348552926986e-01 3 5 1
515 172 2 4.0999999999999998e-01 -2.8881190605352494e+00 -1.4655795625766402e+01 -4.0355212918625991e+00 1 -3 3
872 291 2 4.0999999999999998e-01 -4.7836936315168490e+00 -1.4559872789513422e+01 -6.1528897421788997e-01 -1 -3 -1
2003 668 2 4.0999999999999998e-01 -4.6955021300038791e+00 -7.0511629320274700e+00 -3.7249008613718573e+00 4 2 2
141 47 2 4.0999999999999998e-01 -3.1874028843202140e-01 -1.2988380861589388e+01 -3.5798937100414410e+00 3 -1 0
265 89 1 -8.1999999999999995e-01 -6.9872398690437896e+00 -6.5995227125214786e+00 -1.6711882886556371e+00 0 2 4
1725 575 2 4.0999999999999998e-01 -7.2282275808966707e+00 -1.3238396061528114e+01 -4.6444976689418187e+00 0 6 5
2512 838 1 -8.1999999999999995e-01 -2.4643445416641949e+00 -1.1817415232189996e+01 -6.4151931262182913e+00 1 1 0
1203 401 2 4.0999999999999998e-01 -5.1762638272710948e+00 -1.1829321402743496e+01 -3.4592709148425271e-01 -1 -2 2
139 47 1 -8.1999999999999995e-01 -7.4596906549303732e-01 -1.3164817888114097e+01 -2.6931593521933141e+00 3 -1 0
1848 616 2 4.0999999999999998e-01 -3.1606456118544024e+00 -5.0994994524772164e+00 -1.2122656316531337e+00 2 -1 6
159 53 2 4.0999999999999998e-01 -9.9006753081837218e-01 -6.2344017005773189e+00 -4.1185860606265834e+00 -3 1 0
157 53 1 -8.1999999999999995e-01 -7.8567668745498231e-01 -6.9467840188743146e+00 -3.4472530277742273e+00 -3 1 0
566 189 2 4.0999999999999998e-01 -5.1457588515646542e+00 -7.0895279605747250e+00 -6.0418433497172703e+00 2 -1 3
321 107 2 4.0999999999999998e-01 -5.4741851495229046e+00 -1.0478754507300227e+01 -5.8981733263983234e+00 2 1 1
583 195 1 -8.1999999999999995e-01 -2.0154529575652269e+00 -1.0087491396819608e+01 -5.0744224511574920e-01 0 0 0
584 195 2 4.0999999999999998e-01 -2.2341606249727040e+00 -9.6984196727054623e+00 -1.4022843960236813e+00 0 0 0
2004 668 2 4.0999999999999998e-01 -5.7520294218633321e+00 -8.2943370129433340e+00 -3.6558536112283058e+00 4 2 2
331 111 1 -8.1999999999999995e-01 -7.0010984754830901e+00 -1.0237692045442831e+01 -5.0567532146176966e+00 1 0 -1
319 107 1 -8.1999999999999995e-01 -4.6924110163895207e+00 -1.0173425923011994e+01 -6.4418238248773996e+00 2 1 1
140 47 2 4.0999999999999998e-01 -1.6869883840943078e+00 -1.3473273906425277e+01 -2.8320468035929611e+00 3 -1 0
1847 616 2 4.0999999999999998e-01 -2.2152612393400535e+00 -5.8544308314387639e+00 -2.3089998414005066e+00 2 -1 6
1201 401 1 -8.1999999999999995e-01 -5.6932937288423311e+00 -1.0984540249841750e+01 -4.8368464191809224e-01 -1 -2 2
320 107 2 4.0999999999999998e-01 -4.0026743582154136e+00 -1.0896928325955065e+01 -6.4693875299496231e+00 2 1 1
244 82 1 -8.1999999999999995e-01 -4.5935682465651144e+00 -8.0763592354628884e+00 -1.3146652204362397e-01 -1 -2 1
2514 838 2 4.0999999999999998e-01 -2.5547916989161532e+00 -1.2290292237730666e+01 -5.5387463616705581e+00 1 1 0
1 1 1 -8.1999999999999995e-01 -5.8687757020929165e+00 -1.3993585807022882e+01 -3.2446675042342665e+00 2 0 2
245 82 2 4.0999999999999998e-01 -3.7462249236411083e+00 -8.5009959755794284e+00 -4.5028492372876450e-01 -1 -2 1
565 189 1 -8.1999999999999995e-01 -5.8135225625252680e+00 -7.7097762282198863e+00 -6.4533478020780084e+00 2 -1 3
266 89 2 4.0999999999999998e-01 -6.2372543415067678e+00 -6.8667513269038185e+00 -2.2762195309537656e+00 0 2 4
1002 334 2 4.0999999999999998e-01 -6.8305376266861355e+00 -6.1408576368432097e+00 -5.9844299991154362e+00 2 3 3
1828 610 1 -8.1999999999999995e-01 -1.1185150526367593e-02 -1.0228040001589868e+01 -6.6018599777206841e+00 2 1 -2
516 172 2 4.0999999999999998e-01 -4.1877858733272024e+00 -1.3681585282781001e+01 -3.8673558981441563e+00 1 -3 3
2015 672 2 4.0999999999999998e-01 -1.2140379005089983e+00 -7.3089879808039893e+00 -5.9787623565866710e+00 2 1 3
323 108 2 4.0999999999999998e-01 -4.4090359210368710e+00 -5.2241270694856325e+00 -4.7653979488605138e+00 0 3 1
1202 401 2 4.0999999999999998e-01 -6.1004028129840684e+00 -1.0988104032029845e+01 -1.3970311010429981e+00 -1 -2 2
1897 633 1 -8.1999999999999995e-01 -2.6368470406590951e+00 -8.7706890526680503e+00 -2.7124659364878685e+00 -1 -1 0
333 111 2 4.0999999999999998e-01 -7.1231421032927598e+00 -1.0525898357213499e+01 -4.1070191611918059e+00 1 0 -1
567 189 2 4.0999999999999998e-01 -5.5074460113716643e+00 -8.6545006465361407e+00 -6.3360232295312429e+00 2 -1 3
1829 610 2 4.0999999999999998e-01 -5.8231110869371072e-01 -9.4076541059692520e+00 -6.6289596264999240e+00 2 1 -2
1898 633 2 4.0999999999999998e-01 -3.5892482539999531e+00 -8.6574057161539990e+00 -2.9953988678269425e+00 -1 -1 0
246 82 2 4.0999999999999998e-01 -5.3658789534249181e+00 -8.4432544597011425e+00 -6.4999936355090426e-01 -1 -2 1
324 108 2 4.0999999999999998e-01 -3.0986823513473318e+00 -5.7692991835074974e+00 -5.5730241658716633e+00 0 3 1
1899 633 2 4.0999999999999998e-01 -2.0597643137643473e+00 -8.1318869954807695e+00 -3.2212484606403589e+00 -1 -1 0
2014 672 1 -8.1999999999999995e-01 -1.2508455092087409e+00 -7.8130441633371959e+00 -6.8416208927005169e+00 2 1 3
2513 838 2 4.0999999999999998e-01 -1.8871437944634994e+00 -1.1009042251404368e+01 -6.2997612858968512e+00 1 1 0
1846 616 1 -8.1999999999999995e-01 -2.3812850126052041e+00 -4.9926914396352053e+00 -1.8296320080470867e+00 2 -1 6
322 108 1 -8.1999999999999995e-01 -3.9123250336577655e+00 -6.0408391962367549e+00 -5.0590165598134824e+00 0 3 1
2002 668 1 -8.1999999999999995e-01 -5.1105789642095907e+00 -7.7377068071958952e+00 -3.1279745849389951e+00 4 2 2
514 172 1 -8.1999999999999995e-01 -3.1966916885106489e+00 -1.3705352461667076e+01 -3.9981982266696221e+00 1 -3 3
585 195 2 4.0999999999999998e-01 -2.2577090581011294e+00 -1.1057628976188864e+01 -4.9757739003483969e-01 0 0 0
3 1 2 4.0999999999999998e-01 -5.8190270539407365e+00 -1.4215837357902197e+01 -2.2709727009319902e+00 2 0 2
1526 509 2 4.0999999999999998e-01 -9.9169909327272876e-02 -1.4100467568747392e+01 -1.3990581217914713e+00 1 1 1
1955 652 2 4.0999999999999998e-01 -2.9325695702678551e+00 -1.3477678291411562e+01 -9.5255045603591881e-01 3 5 1
871 291 1 -8.1999999999999995e-01 -5.7776610401207726e+00 -1.4620258895881332e+01 -7.0658284266372462e-01 -1 -3 -1
1123 375 1 -8.1999999999999995e-01 -1.0493000124111003e+00 -5.1630344385440576e+00 -5.4255583294142582e+00 1 1 3
666 222 2 4.0999999999999998e-01 -4.3032803459650673e+00 -6.3307835901819871e+00 -2.9502134231549348e-02 0 -1 2
619 207 1 -8.1999999999999995e-01 -1.1181330478958465e+01 -1.3257128847696491e+01 6.0489705997016703e+00 4 1 -2
527 176 2 4.0999999999999998e-01 -1.4501145429067389e+01 -1.0035641387650330e+01 6.9760065347168041e+00 1 -5 3
2555 852 2 4.0999999999999998e-01 -8.0030471636804812e+00 -1.1514744935004646e+01 3.3358680238119991e+00 -1 0 6
620 207 2 4.0999999999999998e-01 -1.1392853234377800e+01 -1.2777499987794036e+01 5.1974035418143938e+00 4 1 -2
2554 852 1 -8.1999999999999995e-01 -8.4955230647479425e+00 -1.1065319562668108e+01 4.0811439959979534e+00 -1 0 6
621 207 2 4.0999999999999998e-01 -1.1387968291611518e+01 -1.4229855274560691e+01 5.9438213154072006e+00 4 1 -2
1591 531 1 -8.1999999999999995e-01 -7.8946976828299888e+00 -8.5760225239221342e+00 5.0622525026223055e+00 0 -2 -4
526 176 1 -8.1999999999999995e-01 -1.3848940978068988e+01 -1.0655191407950266e+01 7.4127437613636271e+00 1 -5 3
2112 704 2 4.0999999999999998e-01 -1.0815571234065249e+01 -9.5697380961256027e+00 6.9574720489361059e+00 0 3 2
521 174 2 4.0999999999999998e-01 -1.1920616197320106e+01 -8.8547727307871682e+00 5.3147484737717132e+00 3 -2 0
2111 704 2 4.0999999999999998e-01 -1.0786580929559708e+01 -1.1097495673051057e+01 6.3816113044524645e+00 0 3 2
520 174 1 -8.1999999999999995e-01 -1.2521483253523067e+01 -8.1545051995039834e+00 4.9293442714933757e+00 3 -2 0
609 203 2 4.0999999999999998e-01 -1.1288974260644078e+01 -1.1337219360657937e+01 2.4401875737854848e+00 -1 -2 0
522 174 2 4.0999999999999998e-01 -1.3419522512154684e+01 -8.2088861633020329e+00 5.3658307153291691e+00 3 -2 0
2110 704 1 -8.1999999999999995e-01 -1.1241282214106008e+01 -1.0209202716844349e+01 6.3173100046894657e+00 0 3 2
608 203 2 4.0999999999999998e-01 -1.0244748001524451e+01 -1.1296127488891223e+01 3.6949394231600596e+00 -1 -2 0
2556 852 2 4.0999999999999998e-01 -8.0206311684730416e+00 -1.0222361808439711e+01 4.3338337218673129e+00 -1 0 6
1216 406 1 -8.1999999999999995e-01 -1.2415518207826956e+01 -7.3194361349810952e+00 2.1788310505213904e+00 0 4 0
1592 531 2 4.0999999999999998e-01 -8.7108363363616910e+00 -8.4525379453404419e+00 5.6267182116620109e+00 0 -2 -4
66 22 2 4.0999999999999998e-01 -9.6501464718986227e+00 -1.4582221076891118e+01 2.7764111755868992e+00 0 3 1
1217 406 2 4.0999999999999998e-01 -1.1517931560527686e+01 -7.5261658792258768e+00 1.7895330739119668e+00 0 4 0
1818 606 2 4.0999999999999998e-01 -1.3088252559500519e+01 -1.1487650200086399e+01 3.6272545455512688e+00 4 2 -1
607 203 1 -8.1999999999999995e-01 -1.1155334037531894e+01 -1.1585248830648355e+01 3.3996530133862475e+00 -1 -2 0
528 176 2 4.0999999999999998e-01 -1.2954986460595762e+01 -1.0560893378167410e+01 6.9746737208529606e+00 1 -5 3
202 68 1 -8.1999999999999995e-01 -8.6406222060001490e+00 -1.3483416105746022e+01 7.1876911640227039e+00 -1 1 3
1021 341 1 -8.1999999999999995e-01 -1.0662453140402562e+01 -8.9631794095563073e+00 3.4311705820317862e-01 5 0 -1
2351 784 2 4.0999999999999998e-01 -1.3571551104799633e+01 -6.2690465486370908e+00 1.2557791108620595e+00 5 2 2
2481 827 2 4.0999999999999998e-01 -1.4422248598679195e+01 -5.0067788089894147e+00 2.5867773305657362e+00 3 1 -1
203 68 2 4.0999999999999998e-01 -9.4275753939230569e+00 -1.3217883611430787e+01 6.6307805884207855e+00 -1 1 3
1218 406 2 4.0999999999999998e-01 -1.2364339190026445e+01 -7.3637488000865936e+00 3.1765128764404924e+00 0 4 0
1891 631 1 -8.1999999999999995e-01 -9.0933161937985929e+00 -6.3571394985437930e+00 1.3624766974235616e+00 2 0 -1
1642 548 1 -8.1999999999999995e-01 -1.4608567408799555e+01 -9.3401831639985478e+00 1.7820002364601191e+00 2 2 1
1875 625 2 4.0999999999999998e-01 -8.8363377258639346e+00 -5.8623224691570641e+00 3.0453181645182017e+00 2 0 4
1022 341 2 4.0999999999999998e-01 -1.0811699425342610e+01 -9.9505228306798230e+00 3.9632217297390504e-01 5 0 -1
1874 625 2 4.0999999999999998e-01 -8.9158986870678003e+00 -6.0767605507350861e+00 4.6621624920396183e+00 2 0 4
1873 625 1 -8.1999999999999995e-01 -8.9983341668633656e+00 -5.4094258785512466e+00 3.9220131489379231e+00 2 0 4
1023 341 2 4.0999999999999998e-01 -9.6899207757515562e+00 -8.7659647527147406e+00 4.6656491039177794e-01 5 0 -1
2047 683 1 -8.1999999999999995e-01 -1.1182409559165734e+01 -1.1699626322194371e+01 5.5972891954184867e-01 2 0 -1
1644 548 2 4.0999999999999998e-01 -1.3808916705387846e+01 -8.7440492077126990e+00 1.8536609838013529e+00 2 2 1
2352 784 2 4.0999999999999998e-01 -1.4862450820066124e+01 -6.0779673185839691e+00 2.7416522433549773e-01 5 2 2
1893 631 2 4.0999999999999998e-01 -9.5715924483144850e+00 -5.7193265239542583e+00 7.5882229361791609e-01 2 0 -1
2350 784 1 -8.1999999999999995e-01 -1.4103223593494961e+01 -5.6088789483532899e+00 7.2525542275314869e-01 5 2 2