2611
Atoms. Timestep: 8000000
O -8.71809 -14.4505 -1.67003
H -8.07316 -14.5422 -0.911299
H -8.79724 14.5579 -2.1479
O -2.74869 -11.0882 6.39605
H -3.67004 -11.2089 6.76563
H -2.72671 -10.275 5.81446
O -12.2581 12.1272 6.37356
H -11.4899 11.7028 6.85288
H -12.1404 13.1203 6.36879
O 8.72532 11.0876 6.91456
H 7.96585 11.7176 6.75226
H 9.26731 11.4117 7.68998
O -10.9059 8.09492 -9.28056
H -11.1911 7.58782 -8.46723
H -11.6303 8.05581 -9.96886
O 9.42229 -2.75599 11.112
H 10.3373 -2.52612 11.4436
H 9.22178 -2.22248 10.2903
O -12.6602 8.9065 -11.4453
H -12.8003 9.85688 -11.1675
H -13.5368 8.50338 -11.7081
O 12.9868 -6.9043 -10.2735
H 12.0291 -7.1894 -10.2329
H 13.5693 -7.64391 -9.93631
O -7.71529 1.96765 6.37942
H -8.13666 2.68461 5.82403
H -7.44461 1.20586 5.79082
O 9.68406 6.22694 4.89857
H 9.57932 6.47686 3.93596
H 8.79811 6.29124 5.35792
O -8.57601 11.6513 -11.1277
H -8.25971 12.4785 -10.6632
H -9.47551 11.394 -10.7746
O 12.7322 14.6267 -6.92279
H 12.7837 13.6281 -6.91002
H 12.4328 -14.9267 -6.02744
O -9.359 1.75466 -0.503073
H -9.67351 0.854094 -0.803249
H -9.97901 2.10777 0.197595
O 5.93951 -7.74719 4.65583
H 5.70281 -7.47751 5.58925
H 6.91462 -7.9639 4.6086
O 7.47564 -11.1022 -0.120439
H 7.31657 -11.4897 -1.02848
H 6.65184 -10.6265 0.187924
O 6.94106 7.0871 -1.97019
H 7.35604 6.22747 -1.67211
H 7.16466 7.80965 -1.316
O -13.152 1.24922 11.5119
H -14.1385 1.38942 11.4266
H -12.968 0.286426 11.7099
O 0.0786882 11.3502 -10.9013
H -0.228116 10.4205 -11.1051
H 0.23221 11.4424 -9.91745
O -13.8367 -5.48035 14.7862
H -14.0229 -6.28117 -14.5278
H -12.997 -5.6303 14.2643
O 5.69791 10.9546 12.2056
H 5.11812 10.6656 11.4438
H 5.54616 10.3503 12.9878
O 2.638 -1.52953 -10.5397
H 2.41905 -0.865549 -11.2547
H 2.93579 -2.38645 -10.9605
O -8.03768 -11.5924 2.44514
H -8.85173 -12.0297 2.06282
H -7.37885 -11.417 1.71356
O -3.28671 2.75729 13.667
H -3.35832 1.79053 13.9125
H -3.3578 2.85524 12.6743
O -0.580678 -12.3944 11.606
H -1.39629 -12.5327 12.1679
H 0.20582 -12.8254 12.0484
O 3.3643 -11.4344 -3.19691
H 3.05738 -11.284 -4.1367
H 3.51029 -12.4122 -3.04645
O -3.31591 -6.46602 -14.6937
H -2.80746 -7.32594 -14.6484
H -3.26374 -6.09644 14.2617
O 14.289 -9.14504 -9.19705
H 13.5242 -9.69492 -8.86112
H -14.8985 -9.74644 -9.58981
O -14.7241 -4.49267 -10.4946
H 14.3101 -4.75847 -10.9512
H -14.2695 -3.77783 -11.026
O 12.1966 -2.21282 11.7072
H 13.0106 -2.59113 12.148
H 12.0033 -1.30731 12.0851
O 2.84332 -10.7084 -0.477437
H 2.65894 -11.0572 -1.39633
H 2.29143 -11.212 0.187244
O 14.8262 12.7857 6.52798
H -14.1898 12.3086 6.38556
H 14.582 13.2881 5.69852
O 8.20432 13.0589 -3.66241
H 7.62737 12.3829 -4.12088
H 8.0421 13.9613 -4.06174
O 9.25978 -11.3284 -12.1066
H 10.0306 -11.4906 -12.7227
H 8.52438 -11.9729 -12.3159
O -5.44574 -14.5829 8.24211
H -4.47962 -14.7424 8.03913
H -5.52698 -13.8643 8.93278
O 4.24726 9.30391 2.1257
H 4.42227 9.66526 1.20982
H 4.50233 9.98856 2.8085
O -2.9079 -13.1055 12.7665
H -3.61364 -12.5958 12.2744
H -3.33982 -13.7209 13.4259
O -0.652729 5.22213 -0.655583
H -0.835247 5.29611 -1.63602
H -1.41818 4.75976 -0.207997
O 1.71246 -13.9052 12.7876
H 2.23872 -14.7473 12.669
H 2.17014 -13.1559 12.3089
O -9.72891 -0.382951 4.34397
H -8.85709 -0.0940526 3.94835
H -9.55782 -0.942399 5.15501
O 10.5308 -12.9642 -2.92714
H 9.96152 -12.9293 -3.74855
H 10.4225 -12.1151 -2.41019
O 10.2491 14.9101 2.09293
H 10.65 14.717 1.19737
H 10.1757 14.0606 2.61542
O 8.4509 -13.1423 -4.8254
H 7.56939 -12.6789 -4.91597
H 8.95019 -13.0807 -5.68967
O -5.29049 2.34025 1.894
H -5.66964 2.56611 0.99663
H -5.1142 3.18278 2.40302
O 14.2257 -13.2227 11.0051
H 13.4227 -12.6434 11.1451
H 13.9415 -14.1801 10.9552
O 12.2477 0.59838 7.00483
H 12.3731 -0.0866675 7.7225
H 12.8306 0.37355 6.22397
O -11.7726 7.00533 -6.92037
H -12.2344 6.51434 -6.18161
H -10.9929 7.50955 -6.54912
O -3.1538 -14.2033 -2.16192
H -3.56175 -14.5924 -2.98789
H -2.41326 -14.7959 -1.84496
O -3.33251 13.7345 -11.8696
H -3.59845 13.9489 -12.8095
H -3.83189 14.3279 -11.2383
O 7.93003 -2.63327 13.6418
H 8.26803 -2.52411 12.707
H 6.971 -2.91567 13.6186
O 10.1336 7.95253 -3.22328
H 9.26093 8.43667 -3.28695
H 10.651 8.08554 -4.06863
O -1.09346 2.12943 -13.7404
H -1.55949 1.24883 -13.8264
H -1.75773 2.86966 -13.8446
O 0.914122 0.827173 3.54141
H 1.56144 0.0696997 3.62658
H 0.0446662 0.484224 3.18578
O 0.315071 -3.88268 -4.40513
H 0.393663 -3.96969 -5.39825
H -0.366184 -3.18462 -4.18457
O -8.22661 11.4744 -0.744013
H -8.46755 10.8874 -1.51701
H -7.3803 11.9658 -0.949711
O 8.81957 -7.07888 9.65687
H 8.7633 -6.43759 8.89161
H 9.72646 -7.5 9.67286
O -4.55847 3.15521 -1.97747
H -3.92679 3.83075 -1.59711
H -4.04638 2.34752 -2.26975
O -10.7693 -8.5431 10.7363
H -10.2035 -9.27887 10.364
H -10.6445 -7.71647 10.1875
O -5.78344 -2.52692 14.4211
H -5.12455 -2.36945 -14.7265
H -6.70213 -2.2956 14.7413
O -10.8151 -12.2851 10.6902
H -10.6759 -13.2111 10.3392
H -10.1478 -12.0981 11.4111
O 1.89889 -3.86702 1.96905
H 2.76371 -4.18139 1.57752
H 1.22221 -4.60137 1.91537
O 8.59686 -1.25838 0.595225
H 9.02771 -0.375292 0.781139
H 9.23712 -1.84339 0.0973565
O -6.77278 2.51888 14.1931
H -6.12429 3.17238 14.5835
H -7.45353 2.27226 14.8829
O -12.1488 -0.309072 1.92088
H -11.3664 -0.101313 2.50793
H -12.4691 -1.23762 2.10862
O -4.0212 -14.4689 5.19118
H -3.88454 -13.4796 5.13969
H -4.92727 -14.6991 4.83612
O 5.24745 -12.1955 -10.6275
H 4.44444 -12.2791 -11.2176
H 6.0044 -12.7191 -11.0185
O -3.1081 -6.92936 4.11067
H -3.97419 -7.35713 4.36938
H -3.10631 -6.74861 3.12712
O -8.46149 -9.77154 14.5554
H -7.55463 -9.41887 14.3246
H -9.1336 -9.03441 14.4851
O -9.41892 -11.3619 6.5404
H -8.63336 -11.9756 6.61993
H -9.61207 -10.9506 7.4312
O -11.932 2.9437 -13.4072
H -12.4031 2.7351 -14.2643
H -12.3511 3.74669 -12.9834
O -6.77466 -0.0661897 -8.24793
H -7.19566 0.0753433 -7.35196
H -7.30126 -0.74463 -8.76022
O 9.49058 14.735 8.18255
H 10.0614 13.9416 8.39383
H 8.52794 14.4643 8.18907
O -12.0437 -3.76032 -13.1897
H -12.4677 -3.34676 -13.9954
H -11.7049 -4.67201 -13.4223
O 14.1165 11.3711 1.5732
H 14.1542 11.8224 0.681623
H 13.6219 11.9516 2.22002
O 11.9558 11.4321 10.8363
H 11.7689 10.6817 11.4704
H 12.9385 11.4801 10.6572
O -9.40004 -8.90003 4.18282
H -9.39413 -9.66894 4.82217
H -8.69573 -9.03985 3.48681
O -4.1799 -2.66921 -3.4067
H -3.91636 -3.3814 -2.75603
H -4.84133 -3.04103 -4.05807
O 8.67386 5.15543 14.6799
H 8.72704 5.6051 13.7883
H 8.94234 4.19669 14.5863
O 12.7751 3.38593 10.5402
H 12.3565 4.04569 11.1643
H 12.066 2.96839 9.97197
O -0.662802 -6.82207 14.7571
H -0.00654948 -6.9844 -14.3892
H -0.40698 -5.99321 14.2595
O -1.35136 12.4966 11.568
H -0.432648 12.1295 11.4222
H -1.39686 12.9341 12.4661
O 2.30805 -2.76412 5.84211
H 1.5806 -2.46913 6.46165
H 2.15943 -3.71879 5.58415
O -6.94415 -6.73008 0.842201
H -7.65642 -6.96411 0.180433
H -6.04496 -6.8798 0.43102
O 0.707818 -0.168686 -12.8851
H 0.237705 0.507405 -13.4524
H 0.112158 -0.442001 -12.1297
O -11.569 6.50785 2.80951
H -11.8125 6.51156 3.77941
H -10.9959 7.3019 2.60669
O 8.4442 -5.14568 7.82305
H 9.0294 -4.60686 7.21704
H 7.48817 -4.89243 7.67507
O 11.7578 -9.16047 -13.0505
H 12.6127 -9.44579 -12.6172
H 11.4965 -9.83047 -13.7454
O -6.4749 8.68361 5.69569
H -7.3895 8.4604 6.03292
H -6.01802 7.84724 5.39277
O 7.24297 13.2573 5.62011
H 7.42205 14.2377 5.53734
H 7.28634 12.833 4.7156
O -9.24533 -5.06505 -3.10043
H -8.62694 -5.30076 -3.85014
H -9.09382 -4.11436 -2.82975
O -0.707964 9.95452 -1.5913
H -1.35418 9.82872 -0.838554
H -1.026 10.695 -2.18339
O -12.9861 -2.20188 -10.9165
H -12.2973 -2.20294 -10.1915
H -12.5484 -2.40478 -11.7924
O 12.0339 2.7991 14.5824
H 12.9978 3.04398 14.4777
H 11.9573 1.98628 -14.7233
O -13.0798 -14.0227 -8.98777
H -14.043 -13.9946 -8.72009
H -12.6311 -14.7947 -8.53756
O -5.73484 6.92061 10.43
H -5.25363 7.67623 9.98556
H -5.08934 6.3935 10.9827
O 8.8036 1.85929 -12.4898
H 9.16611 1.29047 -11.7515
H 7.82281 1.69132 -12.5891
O 7.77675 9.43328 -3.41698
H 7.47741 10.1499 -4.04698
H 7.08012 9.29627 -2.71273
O -1.56989 11.6933 -3.51992
H -1.34523 12.4091 -4.18109
H -2.46984 11.313 -3.73329
O 9.45141 5.36426 -7.06949
H 9.47467 4.97229 -6.14978
H 8.58544 5.12842 -7.51052
O 13.7709 8.17825 -4.83369
H 12.8484 8.35535 -5.17667
H 14.2731 9.0405 -4.76722
O -12.4558 13.4049 -0.0779113
H -11.9613 14.0893 0.457936
H -12.1271 12.4917 0.163231
O 4.8574 13.3971 -2.00427
H 5.72633 13.2262 -1.53973
H 4.87083 12.9648 -2.90593
O -4.53771 -3.08289 8.27404
H -4.47917 -3.63798 7.44429
H -5.48738 -3.04793 8.58537
O -1.14112 -6.04656 -9.19982
H -2.08948 -5.9848 -8.88862
H -1.12381 -6.28553 -10.1707
O -0.900958 7.39874 8.28208
H -1.04829 8.35462 8.02786
H -0.136243 7.02777 7.75517
O -0.717759 13.6633 -5.40499
H -1.24113 14.4769 -5.65853
H -0.432503 13.1793 -6.23225
O 4.33039 9.88482 -3.32517
H 4.02356 9.93139 -2.37452
H 4.61967 10.7933 -3.62693
O -5.32569 -9.6766 -6.32871
H -4.63559 -9.12665 -6.7992
H -5.74464 -9.13407 -5.60058
O -0.928103 -6.22493 -4.15139
H -0.364378 -5.39896 -4.15514
H -0.340704 -7.02977 -4.23645
O 14.082 -14.0131 -9.03268
H 13.4989 -13.2464 -9.30142
H 13.6515 -14.5116 -8.28024
O -12.7549 0.00729549 -5.16826
H -12.5883 0.98921 -5.25845
H -13.1487 -0.182759 -4.2689
O -6.4239 -8.85639 -3.76339
H -6.04179 -8.24433 -3.07099
H -7.22336 -9.32588 -3.38859
O 4.38965 10.3955 6.5971
H 4.04573 10.8876 5.79734
H 4.75056 11.05 7.26142
O 9.23398 10.1627 -7.28646
H 9.26434 10.8008 -6.517
H 8.43766 9.56515 -7.19273
O 11.0892 12.0651 -13.3154
H 11.3564 13.0064 -13.5218
H 11.9055 11.5231 -13.1157
O -7.25497 10.9088 -7.38802
H -8.14166 10.8273 -7.84318
H -6.57873 11.2596 -8.03587
O 13.9294 7.98824 -2.16378
H 14.5859 8.7214 -1.98623
H 13.6343 8.02906 -3.11838
O 11.5305 6.10522 6.81774
H 10.6678 6.10651 6.31189
H 11.8457 5.16368 6.93664
O -6.62779 6.90054 -2.44601
H -7.46202 6.38721 -2.24454
H -6.19405 7.18107 -1.58974
O 4.59741 -3.85413 1.29791
H 4.89256 -3.24494 0.561827
H 4.53083 -4.78934 0.950059
O 12.3641 11.9824 13.6535
H 11.9966 11.1112 13.3278
H 13.1109 11.8098 14.2959
O -4.80677 -5.98363 -12.4375
H -4.32794 -5.94466 -13.3145
H -4.6111 -6.85596 -11.9893
O -3.76285 -5.5345 -8.4232
H -4.58362 -5.28278 -8.93604
H -3.4171 -4.73397 -7.93366
O -6.58391 1.58689 -0.989412
H -5.95523 2.16196 -1.51294
H -7.50778 1.96539 -1.04638
O -11.1211 12.5286 9.38986
H -10.5502 11.925 8.83338
H -11.9239 12.8074 8.86281
O 9.96778 -0.95938 4.92765
H 10.1897 -0.364466 5.70023
H 9.01395 -0.818999 4.66205
O 13.5739 -0.918014 -4.53456
H 12.7523 -1.44122 -4.30778
H 13.5194 -0.0127906 -4.11308
O -7.73998 -6.37464 8.72993
H -8.73599 -6.3531 8.64314
H -7.40087 -5.4509 8.9081
O 2.44955 -7.57493 0.784749
H 1.93918 -7.96887 0.0203019
H 3.31754 -7.2067 0.451533
O 1.59196 -14.5671 -5.56749
H 0.744821 14.8564 -5.30094
H 1.43184 -13.5818 -5.62757
O -14.7588 10.9667 12.5438
H -14.2349 10.4589 11.86
H 14.2195 10.5532 12.6451
O -4.25634 1.99951 10.4247
H -4.10166 2.88794 9.99248
H -4.92298 1.48024 9.88989
O -3.74257 4.15022 -6.42715
H -3.13382 4.90212 -6.17397
H -4.46411 4.05992 -5.74066
O 14.8292 -14.545 4.01023
H 14.1226 14.6602 3.80791
H 14.431 -13.7967 4.5409
O 5.87078 -1.34438 -0.390362
H 5.52213 -0.642526 -1.01156
H 6.82689 -1.15013 -0.170921
O -6.1577 13.1194 2.58514
H -6.02074 14.1039 2.69491
H -5.31706 12.7024 2.23946
O -13.8303 -13.886 -11.8396
H -13.8115 -12.8875 -11.8905
H -13.6728 -14.1747 -10.8952
O -4.66515 9.11447 9.14761
H -3.99332 9.59907 9.70784
H -5.35428 9.76082 8.81994
O 3.5179 -8.12065 12.2605
H 3.49931 -7.53376 11.451
H 2.59366 -8.20381 12.6332
O -0.765266 14.264 -10.3641
H -1.59532 14.5764 -10.8262
H -0.290721 13.6012 -10.9434
O 2.89825 -5.42801 4.89103
H 2.57721 -6.10958 4.23343
H 3.85651 -5.21082 4.70498
O 7.25743 14.7526 -8.20979
H 6.94107 14.3568 -7.34766
H 7.90473 -14.3923 -8.01994
O -9.56076 5.98265 0.702433
H -8.84763 5.83968 1.38876
H -10.4463 5.71293 1.08071
O -3.29809 -8.08616 9.26103
H -4.27052 -8.30322 9.17566
H -3.0444 -7.41359 8.56582
O 12.0528 1.8229 -10.3438
H 11.4212 1.30744 -10.923
H 12.8668 1.27039 -10.1642
O -3.25796 -3.27329 4.01744
H -3.04487 -3.91209 3.27814
H -2.56813 -2.54971 4.04192
O -3.85292 -8.09651 -8.00186
H -3.83973 -7.10376 -8.12151
H -3.12689 -8.5083 -8.55262
O 9.00003 -6.47287 14.4802
H 9.18201 -5.92305 13.6649
H 8.16742 -6.14337 14.9254
O 13.4689 8.12693 6.58217
H 12.7151 7.48109 6.70348
H 14.3378 7.65944 6.74486
O -7.42541 5.2632 2.70824
H -6.46888 5.3343 2.99115
H -7.91688 4.66569 3.34187
O -9.98827 -5.77151 1.27977
H -9.34946 -5.00281 1.24737
H -9.74757 -6.43501 0.571344
O 4.14115 -1.76611 7.73289
H 3.57023 -2.12099 6.99252
H 3.5797 -1.62458 8.54822
O 5.54407 -3.60658 -7.35181
H 4.87666 -2.86188 -7.34721
H 6.4251 -3.26259 -7.6766
O 7.00332 11.5578 -5.52552
H 6.54066 10.7042 -5.76523
H 6.51879 12.3276 -5.941
O -3.14164 4.12531 -13.3208
H -4.02518 4.39787 -13.7017
H -2.84116 4.80772 -12.6544
O 3.58048 -13.8202 -8.48015
H 3.13321 -14.7041 -8.3433
H 4.19126 -13.8745 -9.27011
O -12.0968 -1.74736 8.24241
H -12.9475 -1.71743 7.71762
H -11.3258 -1.54241 7.63942
O -9.57231 -11.3352 -8.648
H -8.57419 -11.281 -8.67706
H -9.90056 -10.9727 -7.77572
O 3.42391 -14.1848 -2.99324
H 3.76286 14.835 -2.61948
H 2.42396 -14.1863 -2.98166
O 13.9078 -12.995 -4.10869
H 13.8866 -12.3203 -3.37085
H 13.4728 -12.6116 -4.92345
O 13.6509 4.0934 4.63122
H 13.2137 3.89991 5.50958
H 13.4104 5.01799 4.33572
O 8.2477 7.52059 -5.48915
H 8.24384 8.17305 -4.73131
H 8.13509 6.59355 -5.13142
O 1.26206 3.07075 -7.8573
H 0.788867 2.19794 -7.97698
H 1.696 3.33548 -8.71849
O -14.8875 2.68553 -11.342
H 14.0249 2.62982 -11.1089
H -14.774 2.5647 -12.3282
O -7.0394 -4.74519 12.1785
H -6.09056 -4.93332 12.4322
H -7.62513 -4.84265 12.9832
O 6.8896 -7.64506 -2.5273
H 6.09176 -8.23529 -2.65026
H 6.64102 -6.70003 -2.73983
O -12.0878 2.61965 -4.96439
H -11.3879 3.12359 -4.45819
H -12.5442 3.23637 -5.60579
O -8.2606 5.93056 8.93385
H -7.44781 6.25481 9.41785
H -8.86793 5.46451 9.57727
O 2.74143 5.15772 14.5743
H 1.89097 4.93888 -14.8306
H 3.39516 4.41117 14.6982
O -5.56938 6.45533 0.231145
H -5.88633 6.03389 1.08084
H -5.12721 7.32838 0.436816
O -13.68 2.55639 3.91443
H -13.6969 2.07147 4.78885
H -14.2392 3.38281 3.98075
O 2.93721 11.013 -6.51059
H 2.70139 11.7468 -7.14773
H 3.71587 10.4979 -6.8689
O -4.20915 -11.4536 -3.8943
H -4.64721 -11.9806 -3.16599
H -4.91047 -11.0184 -4.45892
O -0.416342 3.41645 -4.43746
H -0.632748 4.31388 -4.82194
H 0.505105 3.14721 -4.7176
O -13.3946 -6.97268 4.88376
H -12.597 -7.11815 4.29836
H -13.7025 -7.85011 5.25159
O 3.74792 -8.7999 3.28351
H 4.53893 -8.42743 3.7689
H 3.69311 -8.39119 2.37247
O -11.7982 -8.72535 7.14527
H -12.755 -8.9218 6.9311
H -11.2052 -9.27064 6.55271
O -13.1528 5.06307 -11.822
H -12.7266 5.5871 -11.0846
H -13.8301 4.43609 -11.4371
O -3.43444 -11.9234 -7.69635
H -3.89848 -11.3735 -7.00183
H -2.65216 -12.3903 -7.28394
O -8.41508 -7.42545 -11.8152
H -8.21043 -7.71496 -12.7503
H -8.40134 -8.22098 -11.2094
O 6.44895 -9.96685 -9.37521
H 6.12205 -10.6668 -10.0102
H 5.99695 -10.082 -8.49063
O 6.87559 0.677968 11.0801
H 6.29629 1.48743 10.9841
H 6.87397 0.163348 10.2227
O -2.87732 11.2603 -7.49062
H -3.30201 10.4202 -7.15313
H -3.57694 11.8467 -7.89884
O 3.93098 -1.45162 -5.28333
H 3.67617 -2.37033 -4.98152
H 4.92556 -1.35335 -5.24893
O 14.5506 4.25716 14.6889
H -14.6453 4.03199 13.9983
H 14.1949 5.176 14.5179
O -8.4963 -1.64001 -13.5921
H -8.9087 -2.40642 -13.0995
H -7.78727 -1.22175 -13.0243
O 1.78367 -11.6243 -8.46982
H 2.50619 -12.302 -8.60632
H 1.23615 -11.5483 -9.30318
O 4.24979 0.382618 2.55448
H 3.70976 -0.414662 2.8242
H 3.64619 1.07694 2.16254
O 0.319369 14.4071 3.94382
H -0.633541 14.5026 4.23171
H 0.799849 -14.6113 4.08952
O -5.95066 -5.95148 -2.79158
H -5.20428 -5.28593 -2.79316
H -6.43601 -5.91009 -3.66494
O 4.94144 6.977 8.30996
H 5.22135 6.33362 9.02253
H 5.25717 7.89563 8.54759
O 6.24286 -3.9612 6.83464
H 5.93182 -4.12644 5.8987
H 5.57837 -3.38436 7.30977
O -5.69594 -1.95643 5.21617
H -4.86521 -2.37001 4.84353
H -6.25079 -2.66207 5.65691
O 7.91347 9.22617 2.5732
H 8.7389 8.73703 2.29134
H 7.2261 8.56919 2.88294
O -12.0266 -5.68378 12.7754
H -11.2942 -5.42008 12.1477
H -12.7588 -6.13301 12.2635
O -2.28241 -9.83562 0.0532712
H -2.40711 -10.0562 -0.91412
H -3.1726 -9.65423 0.47123
O 10.1485 13.5674 12.1002
H 10.9378 13.0949 12.4923
H 9.56059 12.9052 11.6355
O -3.70032 -2.7667 -12.4019
H -4.27788 -3.46906 -11.9858
H -2.843 -3.17942 -12.7097
O 2.6325 10.2956 14.028
H 2.30881 10.9714 14.6902
H 3.56844 10.0272 14.2561
O -3.38214 5.27183 -0.794177
H -4.18364 5.63058 -0.315718
H -3.22358 5.80515 -1.62511
O -5.09339 9.379 1.39765
H -5.03954 9.80471 2.30092
H -6.0485 9.34005 1.10392
O -13.0599 3.86777 -2.48242
H -12.1393 3.70782 -2.83887
H -13.5795 4.41809 -3.13605
O -13.0244 12.012 -13.2993
H -13.3963 12.9196 -13.494
H -12.0271 12.0644 -13.2477
O -11.5617 -10.7964 -0.209682
H -11.9166 -9.99778 0.276458
H -12.2739 -11.1677 -0.80537
O -9.2036 -2.42751 -6.63541
H -10.081 -2.88697 -6.77342
H -9.3626 -1.5002 -6.29649
O 1.90724 13.5736 -7.80617
H 1.91457 14.1738 -7.00633
H 1.0058 13.1503 -7.89701
O -5.54671 -10.6459 7.42298
H -5.74744 -9.87641 8.02932
H -5.85951 -10.4315 6.49765
O -10.4145 -12.6906 1.55459
H -10.7841 -11.9915 0.942491
H -10.9467 -12.7076 2.40108
O 14.3741 -0.642957 -13.0073
H 14.9179 0.10385 -13.3901
H 14.3719 -0.57618 -12.0095
O 6.16619 -2.61711 -3.97765
H 6.5098 -2.06925 -4.74043
H 6.20037 -2.07655 -3.13702
O -14.09 -1.29849 -2.92188
H -14.0858 -0.582843 -2.22341
H -14.9404 -1.24816 -3.44557
O -8.74743 8.23762 7.24044
H -8.49964 8.41566 8.19277
H -8.74095 7.25173 7.07306
O 10.0584 2.60811 9.84476
H 9.9314 3.60003 9.84705
H 9.78679 2.23523 10.732
O 14.2602 -3.04472 13.3545
H 13.76 -3.20138 14.2061
H -14.6812 -2.78237 13.5646
O -5.66217 -13.4522 -14.8131
H -5.48067 -13.0049 14.1943
H -6.62678 -13.3392 -14.5748
O -12.6951 9.10872 0.399186
H -13.2835 9.04665 1.2054
H -12.5277 8.19162 0.0373403
O 7.22132 -0.394153 4.82583
H 6.61447 0.36802 5.05136
H 6.99707 -0.740493 3.9149
O 12.2369 11.55 -9.66278
H 12.7137 10.6767 -9.76246
H 11.2548 11.4099 -9.78905
O 12.7406 9.57939 -12.5543
H 12.5324 9.65283 -11.5789
H 12.1759 8.86214 -12.9626
O 6.33739 -1.93076 2.58729
H 5.59568 -2.56745 2.37625
H 6.62015 -1.45969 1.75172
O -10.1114 -1.93436 12.2948
H -10.103 -1.42935 13.1579
H -9.49085 -2.71582 12.3598
O -9.37513 -2.24226 2.36575
H -8.95328 -1.60002 1.72574
H -9.50515 -1.79434 3.25034
O -2.68213 -4.28402 1.11232
H -1.77818 -4.18212 1.52768
H -2.93036 -5.25242 1.08762
O 9.9451 -8.83732 13.36
H 9.72555 -7.92778 13.713
H 10.9162 -8.87815 13.1249
O -10.4973 3.6455 -2.54676
H -9.87971 2.93525 -2.88462
H -10.577 3.57262 -1.55259
O 5.83519 14.1117 -5.8906
H 5.26905 13.5893 -5.25292
H 5.30708 14.8796 -6.25307
O -7.91663 12.2215 6.36052
H -8.49207 13.0377 6.41289
H -7.73459 12.003 5.4018
O -12.463 -1.60849 11.0412
H -11.5483 -1.86436 11.3541
H -12.5218 -1.72835 10.0501
O -6.10664 -3.90919 0.18845
H -6.42936 -4.83586 0.381205
H -6.82979 -3.39314 -0.270662
O 0.767223 12.1183 7.19775
H 0.0341093 12.7969 7.24384
H 1.58087 12.475 7.65691
O -12.4872 -11.3012 12.9907
H -12.3848 -11.7174 13.8943
H -12.1374 -11.9273 12.2938
O 8.83197 9.1814 14.2568
H 8.76487 9.93383 14.9121
H 8.04784 8.57096 14.3688
O -2.71797 -3.6269 12.7096
H -1.73752 -3.72793 12.8785
H -3.20774 -4.39693 13.1185
O 2.03339 -7.99313 -3.6739
H 2.09352 -7.78089 -4.64928
H 2.95426 -8.09571 -3.29771
O -7.61503 13.2277 -3.91966
H -7.13874 12.8641 -3.11904
H -8.43701 12.6853 -4.09333
O -8.24965 1.65689 9.59678
H -9.11189 2.14364 9.737
H -7.83278 1.45522 10.4831
O -13.2256 -8.2678 11.9381
H -13.7995 -9.02255 11.6203
H -12.3262 -8.32779 11.505
O -2.19107 8.39924 5.06525
H -3.02643 8.0112 5.45464
H -1.71483 8.93371 5.76352
O 9.38221 11.9074 0.281148
H 9.72067 11.1012 -0.204141
H 8.75731 12.4154 -0.311721
O 9.20814 2.69064 -14.9329
H 9.06138 2.35009 -14.0042
H 10.1895 2.73671 14.7634
O 9.76064 -3.4676 6.16113
H 10.0127 -2.65966 5.62845
H 10.5704 -4.03568 6.30837
O -11.0005 11.2552 0.113185
H -10.062 11.4234 -0.188423
H -11.2878 10.3444 -0.18326
O -0.557953 14.3981 8.26481
H -0.814704 -14.6289 7.81642
H -1.33941 14.0433 8.77807
O -7.33109 9.59949 -4.87918
H -7.11712 10.2058 -5.64512
H -6.73759 8.79541 -4.91467
O 12.8363 9.01484 4.04537
H 12.8243 8.75768 5.01169
H 12.0645 9.62078 3.85216
O 14.5963 3.29956 7.65147
H 13.6456 3.39242 7.35575
H 14.6885 3.63714 8.58826
O 1.3924 10.6609 4.75177
H 1.14624 11.3157 5.4664
H 1.71745 9.8142 5.1731
O 11.5495 0.9853 -7.5187
H 11.1791 0.0671722 -7.65962
H 11.3261 1.5594 -8.30643
O -12.8597 -4.80027 8.32558
H -13.0855 -4.4764 7.40679
H -13.1775 -4.13483 9.00103
O -0.853494 -8.19828 10.7094
H -0.219616 -7.48194 10.4177
H -1.77403 -7.98136 10.3844
O 14.8475 8.3378 -7.3624
H 14.1947 8.39416 -6.60692
H -14.6911 7.40195 -7.43594
O 3.62773 -14.3808 5.6501
H 3.76359 14.7283 5.03175
H 3.24344 -14.7075 6.51362
O -4.34935 -14.5086 -4.67428
H -5.06111 -13.8247 -4.5137
H -4.76904 14.5261 -4.99651
O -8.70396 14.8548 1.38835
H -9.32551 -14.3027 1.68346
H -9.1761 13.9743 1.4298
O 14.8533 10.9167 -4.08683
H -14.6883 11.4566 -4.85606
H -14.3953 10.9932 -3.31784
O 0.803726 -2.08856 14.6919
H 0.342466 -1.20483 14.7713
H 1.78866 -1.96228 14.8102
O -9.56068 4.97276 -9.22813
H -10.5027 5.25912 -9.05296
H -8.93658 5.52156 -8.67194
O 1.37351 11.1709 11.4169
H 1.74317 10.9495 12.3193
H 1.42969 10.3654 10.8269
O 14.4794 5.31539 -7.82851
H -14.9338 4.47132 -8.08668
H 13.6797 5.09424 -7.27037
O 7.51901 2.49762 -0.742866
H 7.01168 2.15088 0.0460712
H 7.15474 2.08841 -1.57946
O 3.97502 11.4785 -11.7857
H 3.55975 10.7119 -12.2755
H 4.82965 11.1792 -11.3613
O 2.21649 3.34058 -5.526
H 3.12606 3.73544 -5.39638
H 1.9809 3.35807 -6.49771
O -13.1122 3.02598 13.5166
H -12.5752 3.82338 13.2413
H -13.1617 2.37869 12.756
O -1.07966 4.57423 13.7293
H -1.7164 3.84925 13.992
H -0.973489 4.5805 12.735
O -13.2499 -1.73682 13.7591
H -13.0783 -1.7665 12.7744
H -12.4566 -1.34359 14.224
O 4.41445 10.3151 9.86838
H 5.10329 9.83213 9.32773
H 3.8207 9.65049 10.3221
O 4.69394 3.26254 -14.4621
H 5.42644 3.75619 -13.9933
H 4.64077 2.32914 -14.1072
O 9.24999 1.43733 12.2351
H 9.35971 1.88272 13.1237
H 8.31209 1.10266 12.1435
O -9.97271 8.95025 3.03414
H -10.7347 9.47806 3.40941
H -9.25124 8.87115 3.72208
O -1.54817 -0.474717 14.8193
H -1.59033 -1.47259 14.8694
H -2.43294 -0.118395 14.5188
O 10.0028 -12.9681 6.47455
H 9.80161 -13.6431 7.18438
H 9.91268 -12.0476 6.85478
O -7.56023 3.9456 -6.37691
H -7.05463 3.10853 -6.16783
H -8.26967 3.74643 -7.05297
O 5.62717 11.9942 -13.8179
H 5.06063 12.4812 -14.4826
H 5.08737 11.7999 -12.9988
O 12.286 -6.89333 11.6589
H 11.773 -6.133 12.0573
H 13.223 -6.59997 11.4688
O -12.4289 -11.101 8.72735
H -11.9399 -10.2861 8.4163
H -11.955 -11.4936 9.51553
O -1.57729 -8.88729 -9.19065
H -1.25644 -8.38097 -9.99111
H -1.80307 -9.82425 -9.45739
O 8.70378 4.77402 -4.40244
H 7.86121 4.42324 -3.9937
H 9.2152 5.2935 -3.71787
O 3.87184 -5.00016 -9.65559
H 4.23818 -4.76456 -8.75541
H 4.42935 -5.72322 -10.0635
O -6.41476 14.3288 12.027
H -7.07438 13.9639 12.6841
H -5.95781 13.5726 11.5585
O -11.5356 3.01205 1.02919
H -12.4784 3.33851 0.961408
H -11.3461 2.73376 1.97083
O -6.86402 -9.9733 11.2407
H -6.61 -9.72048 12.1742
H -6.21496 -10.6483 10.8898
O 11.9186 -11.812 -6.14358
H 11.747 -11.0639 -5.5025
H 11.8944 -11.4609 -7.07964
O 2.33506 8.61079 6.32381
H 2.88983 9.38125 6.63788
H 2.17139 7.98509 7.08653
O 13.936 -2.01224 -7.13239
H 13.6424 -1.66472 -6.24187
H 13.3748 -2.80068 -7.38411
O 3.41683 10.5091 -0.856401
H 2.67083 9.94675 -0.499723
H 3.33065 11.4405 -0.502609
O 1.7491 -10.8977 7.69761
H 2.01138 -11.8467 7.87252
H 1.21113 -10.5533 8.46705
O 0.985756 -8.17016 13.0168
H 0.596618 -7.56505 13.7113
H 0.372476 -8.20987 12.2279
O -6.98476 -0.0353481 3.8172
H -6.69529 -0.911042 4.20373
H -6.61829 0.0578057 2.89143
O -12.464 14.3652 4.35654
H -13.2802 14.7827 3.95701
H -12.1977 13.5684 3.81421
O -3.92599 -4.31603 -1.31177
H -3.21663 -4.50207 -0.631893
H -4.76827 -4.04117 -0.848026
O 1.87717 3.36781 5.30978
H 1.86778 3.58829 4.33442
H 0.953652 3.12292 5.60506
O -6.40639 -14.7407 -0.0915107
H -7.02148 14.9165 0.663891
H -5.58565 -14.2969 0.268288
O -2.09447 13.3027 14.2437
H -1.31712 13.9317 14.2345
H -2.80764 13.6629 14.8451
O 13.8655 -11.7916 7.96577
H 13.3019 -11.6529 8.78016
H 14.6843 -12.3103 8.21144
O -9.51788 -13.3582 -5.67682
H -9.71266 -14.0436 -6.37845
H -10.2691 -13.3337 -5.01716
O -0.127778 -10.4048 14.5466
H 0.378733 -9.6772 14.084
H 0.501357 -10.9462 -14.7789
O 11.8102 -11.6199 9.87941
H 11.4555 -12.1602 10.6425
H 11.0757 -11.4482 9.22276
O 2.35996 -7.76383 -6.35749
H 2.97783 -8.19144 -7.01736
H 1.41349 -7.90068 -6.64989
O 7.44338 0.578821 -2.62505
H 6.49876 0.382773 -2.36179
H 7.46025 0.952184 -3.5526
O 11.601 -7.62579 -2.16439
H 11.5766 -6.9119 -2.86425
H 10.7738 -7.57242 -1.60491
O 10.2399 8.02048 -12.5759
H 10.3494 7.06472 -12.849
H 9.96522 8.06329 -11.6153
O -14.7929 1.6244 1.30327
H -14.2528 1.31488 2.08595
H 14.2644 2.08438 1.6292
O 10.083 1.87506 -2.40333
H 10.4833 0.974091 -2.23599
H 9.13315 1.88104 -2.09055
O 8.34053 -4.94214 -1.16856
H 8.74259 -5.84616 -1.02318
H 7.50463 -5.03226 -1.71002
O -10.684 7.5941 12.3749
H -10.8764 8.15555 11.5701
H -9.9727 6.92691 12.1537
O 14.2946 -10.0059 -12.1477
H 14.7875 -10.6868 -12.6895
H -14.9345 -9.37584 -11.7292
O -9.89023 0.234188 -6.13782
H -10.8726 0.314052 -5.96842
H -9.55913 1.06841 -6.57882
O -0.920557 8.25169 -3.91623
H -0.891787 8.36279 -2.92282
H -0.387828 8.97924 -4.34856
O -6.46238 -10.3251 4.6662
H -6.23599 -9.46647 4.20622
H -6.99365 -10.9044 4.048
O 7.24769 7.54049 -7.92701
H 7.07315 6.66772 -8.38291
H 7.62888 7.37139 -7.01809
O 11.1732 -6.8498 -6.93062
H 12.1478 -7.07148 -6.89906
H 10.7719 -7.2291 -7.76437
O 10.4766 -6.89867 -12.8166
H 11.1035 -7.67338 -12.899
H 10.0529 -6.71679 -13.704
O 2.36654 8.56346 10.4045
H 2.21455 8.28408 11.3526
H 2.19639 7.78755 9.79701
O 0.265826 -13.6923 -12.6722
H 1.23901 -13.749 -12.4492
H -0.225077 -13.2613 -11.915
O 1.09083 10.031 -4.94013
H 1.71315 10.3892 -5.63614
H 0.972203 10.7115 -4.21703
O 7.8791 6.99821 11.6684
H 8.52597 7.68612 11.3392
H 7.19346 6.82057 10.9625
O 13.485 6.17107 -10.2835
H 12.5901 5.72665 -10.2414
H 13.918 6.13435 -9.38281
O 12.8217 -7.78013 7.44954
H 13.7031 -7.79108 7.92181
H 12.8009 -7.01992 6.80017
O -13.4876 10.4796 -8.01755
H -14.0012 9.62288 -7.96978
H -13.3282 10.7197 -8.97513
O 0.218988 6.53531 1.84626
H 1.21802 6.56708 1.87725
H -0.0768619 6.22959 0.941248
O 7.23849 -2.93723 -10.9393
H 7.64664 -3.26581 -10.0876
H 7.6413 -3.42695 -11.7126
O -14.7887 1.97176 -14.0376
H -14.5766 1.532 -14.9103
H -14.8181 2.9635 -14.1625
O -9.55243 4.20643 13.0692
H -8.81396 3.61855 13.3995
H -10.2756 4.25215 13.7583
O 11.591 -4.33986 -12.1766
H 11.1712 -5.23774 -12.3096
H 12.3358 -4.21958 -12.833
O 12.7842 11.8596 -6.92597
H 12.0264 11.7613 -6.28088
H 12.4256 11.8926 -7.8589
O -8.61269 -5.30446 14.3235
H -8.68536 -4.77731 -14.713
H -9.43433 -5.8624 14.2067
O 12.1253 -2.59113 -9.78222
H 12.4062 -3.38089 -9.23687
H 11.8602 -2.89522 -10.6973
O 4.51082 5.50131 0.134634
H 4.57578 5.62415 -0.855681
H 3.91861 6.2089 0.520151
O -5.38075 4.1701 -4.3601
H -6.37518 4.06612 -4.37823
H -5.0163 3.74585 -3.53111
O -9.96802 4.62381 10.4808
H -9.783 4.6421 11.4634
H -10.4954 3.8044 10.2562
O 6.37702 -13.0567 8.42192
H 6.89516 -12.5122 9.08149
H 6.6538 -14.0152 8.49049
O -6.29088 -12.9927 -2.70771
H -6.3992 -13.7114 -2.02084
H -6.94143 -13.1424 -3.45229
O -0.961424 -12.9497 7.19178
H -1.60363 -12.3835 6.67501
H -0.0751514 -12.9559 6.72862
O 7.8472 6.58632 1.27525
H 7.60545 5.66661 1.58465
H 7.20395 7.24764 1.66115
O -5.62517 -3.24615 -5.72661
H -6.28275 -3.85385 -6.17195
H -4.72766 -3.35579 -6.15378
O -4.8601 10.3732 3.9093
H -3.95189 10.7848 3.98535
H -5.1321 9.99972 4.79618
O 7.4911 -13.9831 -0.705239
H 7.31183 -13.3242 0.0254113
H 7.34476 -13.5451 -1.59226
O -12.3263 6.72751 9.85537
H -12.0134 6.38106 10.7397
H -11.787 7.5307 9.60229
O 9.66479 -5.4401 11.8759
H 9.21868 -6.07993 11.2501
H 9.50486 -4.50328 11.5647
O 5.83951 -9.06455 -6.30124
H 6.15209 -8.11585 -6.25329
H 4.91555 -9.09219 -6.68276
O 1.67417 9.64645 -8.82622
H 2.29773 9.49086 -9.59237
H 2.00428 9.15206 -8.02208
O -14.1107 -8.59367 -1.97283
H -14.343 -7.97959 -2.72714
H -14.161 -8.09355 -1.10831
O -3.6594 -13.0402 -11.948
H -3.30788 -12.6103 -12.7797
H -4.59053 -13.3671 -12.1098
O -7.21848 -13.0563 6.91371
H -6.69454 -12.2435 6.65901
H -6.5935 -13.7704 7.22901
O -5.91297 -12.9978 12.2399
H -5.68329 -12.6149 11.345
H -6.10922 -13.9737 12.1445
O 12.3672 -4.72524 -1.30771
H 12.5588 -5.26486 -2.12754
H 13.1588 -4.1533 -1.09257
O -13.8628 -9.57647 5.70535
H -14.6929 -9.90864 6.1533
H -13.7371 -10.0573 4.83759
O 4.4642 6.99326 5.2918
H 4.85301 6.92918 6.21091
H 3.72827 7.67033 5.28766
O -9.66894 6.77407 -13.6114
H -9.24567 7.43044 -14.2359
H -10.6557 6.93326 -13.5791
O -3.89786 8.14592 12.4909
H -3.52381 8.26814 13.4102
H -3.23237 7.66297 11.9217
O 6.25106 -6.06985 -6.60983
H 7.2138 -6.17848 -6.36208
H 6.05309 -5.1014 -6.7613
O 14.8137 7.85985 -12.257
H 14.4646 6.99442 -11.8975
H 14.0773 8.53623 -12.2711
O -1.80943 -12.1511 -13.8562
H -1.13506 -12.8323 -13.5713
H -1.46532 -11.6545 -14.6531
O 9.25649 -3.81991 2.42847
H 8.61075 -3.1191 2.12529
H 8.81403 -4.41173 3.10228
O 9.03297 -12.3711 14.0207
H 8.49025 -13.2101 14.0606
H 8.44782 -11.6083 13.7453
O -4.07932 -0.239538 -11.6314
H -3.17066 0.132164 -11.4411
H -3.98877 -1.14153 -12.0536
O -1.63881 2.32405 -9.57359
H -1.0683 2.12017 -8.77799
H -2.35062 2.97703 -9.31479
O 7.19176 4.7519 -8.46282
H 6.90484 3.91237 -8.0014
H 6.85167 4.74831 -9.40322
O -0.497619 -3.86608 -7.71215
H -1.35506 -3.68486 -7.23049
H -0.658093 -4.53461 -8.43833
O -10.5473 -1.83524 -9.35986
H -9.67939 -1.8378 -9.8566
H -10.4108 -2.22327 -8.44836
O 12.3418 11.4094 6.75201
H 13.3167 11.6314 6.73498
H 12.0723 11.0238 5.86955
O 2.22911 -14.7816 7.9337
H 1.25672 -14.5491 7.91251
H 2.41761 14.5291 8.73165
O 10.5339 3.70839 4.52431
H 10.6318 3.54785 3.54213
H 10.2651 4.65867 4.68156
O 0.1546 -8.45001 -1.201
H 0.462768 -8.40581 -2.15133
H -0.591608 -7.79895 -1.06195
O 13.3489 -8.95727 13.6198
H 13.2065 -8.20846 12.9724
H 13.7384 -9.74335 13.1397
O 12.029 4.69631 -6.54571
H 11.7237 3.79923 -6.22614
H 11.2685 5.3439 -6.49723
O -10.329 11.5533 11.9464