2611
Atoms. Timestep: 23000000
O -1.07272 9.61328 7.19802
H -0.518522 9.68774 6.36896
H -0.89447 8.73426 7.64028
O 0.842744 -12.6814 -4.88043
H 1.49431 -13.1327 -4.27064
H 1.06501 -12.9044 -5.82959
O 4.33737 -1.59981 -10.6684
H 4.59185 -2.55636 -10.526
H 4.27078 -1.41503 -11.649
O 6.13435 -5.81543 2.40877
H 7.05744 -5.88564 2.78693
H 6.13256 -6.15584 1.46847
O -13.0519 -8.60234 9.04254
H -13.5862 -7.84448 8.66819
H -12.8643 -8.43207 10.0099
O 9.69553 5.88141 1.67688
H 10.5729 6.27907 1.40843
H 9.08188 6.60716 1.98794
O -12.7192 0.909949 -8.81142
H -12.0543 1.41004 -9.36632
H -12.4483 0.950468 -7.84965
O 10.266 5.31688 13.2126
H 10.9829 5.12674 13.8834
H 10.671 5.3792 12.3004
O 1.15658 -12.5606 -0.78157
H 0.171877 -12.6932 -0.668354
H 1.49601 -13.1754 -1.49352
O 9.62775 14.7243 -12.5204
H 8.83383 14.5183 -13.0925
H 9.33676 -14.8622 -11.7258
O -1.70207 -5.42205 2.71114
H -1.01972 -5.48534 1.98284
H -1.90775 -6.33802 3.05571
O -11.0742 -8.97034 -11.4489
H -10.2008 -8.619 -11.1117
H -11.0107 -9.13153 -12.4338
O -9.09895 2.73689 12.934
H -9.96887 3.16397 13.1807
H -8.80331 2.13164 13.6731
O -7.36501 -2.47669 -14.6054
H -8.35242 -2.61818 -14.5344
H -7.01517 -2.12602 -13.7367
O 5.99685 -6.63833 -0.166286
H 6.05528 -7.62296 -0.00158758
H 6.90232 -6.28555 -0.4023
O 2.41024 10.278 -7.98135
H 3.14257 10.8893 -7.68121
H 2.04782 9.78005 -7.19349
O -11.2066 -2.57581 -1.91233
H -12.0352 -2.05896 -1.69713
H -11.4098 -3.25158 -2.62089
O 8.35947 7.35753 -11.9566
H 8.12317 8.1491 -12.5201
H 9.18407 6.92389 -12.3199
O -10.9985 3.82612 -0.434745
H -10.0664 3.54496 -0.206345
H -10.9808 4.41211 -1.24489
O -7.45797 4.49219 3.05567
H -7.61931 3.62563 3.52798
H -6.66458 4.40108 2.45379
O -0.765721 5.65883 1.90564
H -0.0450601 5.20481 1.38167
H -1.63367 5.58152 1.41501
O -6.11234 -1.46374 -3.32036
H -6.13599 -0.690151 -2.68708
H -7.04339 -1.79123 -3.48143
O 9.51126 14.6465 12.1299
H 9.84144 -14.7982 11.4696
H 9.8917 14.8493 13.0322
O 14.9374 -1.83438 10.9024
H -14.3725 -2.41869 10.9612
H -14.9503 -0.992023 10.4158
O -0.929646 5.30545 -11.1165
H -1.22314 6.16305 -11.5389
H -0.508122 4.71996 -11.809
O -8.08067 -14.7229 -0.433337
H -8.13896 14.4402 -0.720384
H -7.16615 -14.3704 -0.631962
O -7.01454 -0.307836 8.10384
H -7.91906 -0.122703 7.71963
H -6.65222 0.526052 8.52024
O -1.4894 3.08621 -4.71448
H -1.88272 3.97249 -4.46988
H -2.2202 2.40863 -4.79723
O 1.49778 -9.42375 14.0406
H 1.67333 -9.0453 14.9494
H 2.11926 -10.189 13.8724
O -6.20311 10.9952 11.8646
H -5.74148 11.7395 11.382
H -6.75304 10.4683 11.2166
O 2.46512 -5.21157 -2.63894
H 1.99899 -5.01159 -3.50078
H 3.45287 -5.11946 -2.76504
O 2.87739 8.82004 -10.6424
H 3.87681 8.84919 -10.6609
H 2.54154 9.38101 -9.88573
O -6.12248 0.460381 -1.29549
H -6.5455 1.33413 -1.53559
H -5.49687 0.593039 -0.526693
O -3.6664 12.0852 13.4005
H -2.93094 12.52 13.9203
H -4.45817 11.9467 13.9955
O -10.5357 11.7808 8.81348
H -10.816 11.5735 7.87618
H -9.6662 11.3273 9.00938
O -7.49664 11.5367 7.27435
H -7.35377 12.1611 8.0423
H -7.51393 12.057 6.4205
O -8.56477 -7.72554 -5.67212
H -9.18692 -8.30411 -5.14466
H -9.07419 -6.9601 -6.06533
O 6.37586 5.54168 -1.07348
H 5.71451 6.24403 -0.810105
H 6.7728 5.13272 -0.251756
O 3.83007 0.49531 10.6349
H 2.90048 0.135181 10.5561
H 3.86398 1.17255 11.3699
O -5.31513 -5.27505 -5.13025
H -4.80803 -4.44158 -4.91068
H -4.68221 -6.04793 -5.17627
O -10.2916 -9.79678 -4.48126
H -10.9864 -9.30067 -3.96059
H -10.7253 -10.2737 -5.24579
O 7.44654 2.78107 6.5355
H 6.63299 2.40869 6.98216
H 8.24532 2.62946 7.11774
O -2.83357 0.199991 13.3954
H -2.79773 1.04895 13.9227
H -2.48727 -0.553979 13.9536
O -5.2928 -4.41911 8.89516
H -4.77175 -4.46469 8.04283
H -5.3406 -3.46992 9.20625
O -7.89611 8.16655 -12.1442
H -7.80971 7.80973 -11.214
H -7.25198 8.92055 -12.2731
O -4.76426 -2.94977 -7.72614
H -4.81362 -2.3652 -6.91628
H -5.62739 -3.44308 -7.83425
O 7.73401 -0.519623 -14.7794
H 7.3496 0.390603 -14.6252
H 7.32075 -0.922024 14.523
O -7.68491 -14.031 -8.01829
H -7.26368 -13.2849 -7.5026
H -7.85886 -14.8026 -7.40632
O -2.9138 -3.0399 10.6305
H -3.61165 -2.4429 10.2347
H -3.35179 -3.72206 11.216
O 5.1319 8.69664 13.8111
H 5.71184 7.94252 13.5029
H 4.68255 8.44296 14.6677
O 1.03648 -2.73209 -4.0003
H 1.73566 -2.01878 -3.9515
H 0.693036 -2.92561 -3.08126
O 11.529 -6.02427 6.2999
H 11.8447 -5.58176 7.13927
H 10.6815 -6.52212 6.48402
O 10.0631 10.7859 5.67053
H 10.0019 10.6692 4.67923
H 10.7235 10.1337 6.04277
O -6.81372 1.96914 -8.9636
H -6.76068 1.31955 -8.20515
H -6.06663 1.79443 -9.60497
O 2.51038 7.75376 6.18812
H 3.38183 8.24269 6.14876
H 2.65138 6.85393 6.60099
O 5.5568 6.20818 -4.51792
H 6.54898 6.23148 -4.39519
H 5.16373 5.50696 -3.92309
O 0.977901 -9.79255 -4.52409
H 0.623124 -10.5601 -3.99023
H 0.362642 -9.60678 -5.29024
O 5.96329 -11.6438 5.53261
H 6.58954 -11.679 6.31146
H 5.48303 -12.5172 5.45137
O -0.871793 -9.86258 12.7492
H -0.0808609 -9.65081 13.3233
H -1.11893 -10.8248 12.864
O -7.15367 -12.1256 6.82242
H -6.17477 -11.984 6.67495
H -7.61297 -11.2395 6.88471
O -0.466279 2.04763 14.492
H -1.41101 2.03388 14.8196
H 0.0821131 2.6414 -15.0385
O 5.00556 1.3381 -9.22915
H 4.34736 2.02469 -9.53802
H 4.68201 0.427211 -9.48532
O 0.374663 -10.8649 4.06993
H 0.659008 -10.0027 4.48915
H 0.39149 -11.5912 4.75717
O -0.727295 -7.29644 -6.73268
H -0.0605329 -7.05509 -6.02754
H -0.649217 -8.27034 -6.94587
O -2.31393 7.77729 -11.504
H -2.1962 8.77006 -11.5283
H -2.92837 7.53272 -10.7539
O -7.27819 -0.553056 1.05367
H -7.09627 -0.257989 0.115649
H -6.87593 -1.45636 1.20288
O 10.2695 -6.05069 -2.201
H 10.808 -5.24844 -1.9432
H 10.8131 -6.63853 -2.80013
O -9.14718 0.564245 -10.4336
H -8.38025 0.662921 -9.79949
H -9.60998 1.44473 -10.5366
O -10.0918 -13.3472 -1.26059
H -9.46383 -13.8275 -0.648308
H -10.2682 -12.4296 -0.904163
O -3.57472 -0.87797 -9.23663
H -2.79787 -0.532313 -8.71027
H -3.9064 -1.72608 -8.82343
O 6.43873 9.63571 -1.5621
H 6.8248 10.4414 -2.01128
H 5.44841 9.74462 -1.47582
O -11.6288 -11.4758 -10.2956
H -11.6554 -10.5448 -10.6597
H -11.7341 -12.1298 -11.0447
O -3.29285 -13.9663 -9.77242
H -3.90855 -14.1662 -10.5346
H -2.42929 -13.6075 -10.1268
O 10.4009 -6.87278 -14.0696
H 10.9236 -7.47123 -14.6768
H 9.99314 -6.13129 -14.6025
O -4.54321 10.8928 -4.55828
H -4.55531 10.3047 -5.36699
H -3.75871 11.511 -4.60743
O 12.1311 -11.8803 -12.3531
H 13.0784 -11.5634 -12.4006
H 11.5348 -11.1138 -12.1143
O 4.82787 -12.6649 -3.41411
H 4.55608 -11.704 -3.46776
H 5.81858 -12.738 -3.52894
O 12.5757 5.66055 14.9164
H 12.5906 4.66866 15.0427
H 13.4351 5.95638 14.4993
O 2.63187 10.6206 12.7022
H 3.19816 9.94541 13.1749
H 2.94068 10.7102 11.7552
O -5.76292 -14.4311 13.3128
H -6.24305 -13.8812 12.6293
H -5.18305 15.0161 12.8523
O -12.5918 6.03571 -7.40825
H -13.2944 5.32738 -7.34037
H -11.8769 5.8621 -6.73085
O 8.07821 -3.52742 -13.0261
H 7.21675 -3.39206 -13.5156
H 8.43609 -2.6418 -12.7301
O -12.0748 2.71628 5.84401
H -11.4625 2.58785 5.06385
H -12.6771 1.92257 5.92919
O 10.1011 -12.2562 5.97936
H 10.6563 -13.0861 6.03461
H 9.72614 -12.1669 5.0566
O -8.42731 -6.84078 6.50286
H -8.72875 -6.09885 7.10179
H -8.83281 -7.70205 6.80915
O 14.0393 -7.98352 -2.19854
H 14.5444 -8.74137 -2.61154
H 13.063 -8.09242 -2.38563
O 10.1813 -4.27127 15.0352
H 9.43531 -3.81852 -14.5957
H 10.6022 -3.62607 14.3975
O -5.27167 14.4577 -13.7134
H -4.92094 -14.9874 -13.0635
H -5.87717 14.9097 -14.3685
O 1.84683 -13.3238 -7.35489
H 1.7255 -14.3074 -7.22115
H 1.55832 -13.0751 -8.27951
O -14.7608 4.73281 -10.0472
H -14.117 4.87249 -10.7995
H 14.7785 5.54165 -9.95037
O 14.5945 -11.298 -12.1831
H 14.6601 -10.6484 -11.4257
H -14.7 -11.8627 -12.2103
O -3.36956 -5.30541 -14.0023
H -3.84916 -5.36732 -13.127
H -2.3825 -5.30022 -13.8419
O 10.1824 -4.93521 -12.2432
H 9.45572 -4.39697 -12.6701
H 10.3982 -5.72189 -12.8216
O -0.259751 10.6388 -0.431896
H -1.19225 10.6464 -0.0707495
H -0.153857 9.87209 -1.06516
O 5.26268 -3.14501 -1.16274
H 6.21234 -3.10672 -0.851776
H 5.20168 -3.72185 -1.97734
O -10.5487 -0.338331 14.4688
H -10.2633 -1.2789 14.6529
H -10.4747 0.20249 -14.8126
O 3.88021 -5.92998 4.09684
H 3.12617 -6.50412 3.77773
H 4.60621 -5.92069 3.40918
O 0.550829 -2.83652 -1.19536
H 0.0839474 -2.051 -0.789138
H 1.50361 -2.85145 -0.891999
O -14.4538 -11.917 -9.19928
H -14.6441 -10.9861 -9.51125
H -13.6086 -11.9232 -8.66484
O 11.467 -8.0018 -9.32769
H 10.6092 -7.49546 -9.23939
H 12.2133 -7.36304 -9.51462
O -0.0875678 13.1122 10.6717
H -0.743281 12.5297 10.1914
H -0.35382 14.0704 10.567
O -1.63829 7.86168 12.7914
H -1.64788 8.77411 12.3822
H -0.757939 7.70665 13.2397
O -9.41528 -0.131797 -1.04154
H -8.95737 -0.523104 -0.243263
H -9.72585 -0.8686 -1.64212
O -5.34732 -1.64721 9.86441
H -5.69593 -1.07954 9.11859
H -5.62646 -1.25449 10.7407
O -4.76889 0.690903 -13.5904
H -5.54236 0.755524 -12.9598
H -4.75091 -0.219552 -14.0036
O 9.16726 -8.72981 -0.869603
H 9.18501 -7.75473 -1.09084
H 9.16661 -8.84629 0.123606
O -9.62986 -1.92639 5.23449
H -8.90429 -2.61258 5.18222
H -9.63993 -1.38714 4.39238
O -12.9073 2.0982 14.1924
H -13.8144 1.67792 14.1662
H -12.3416 1.62797 14.8698
O 5.73584 -2.7136 -14.1425
H 4.93331 -3.28953 -14.2983
H 5.51128 -1.76342 -14.3587
O -9.56769 5.76527 7.36638
H -8.93818 5.73382 8.14276
H -9.16054 6.30393 6.62874
O -9.62549 11.498 3.34499
H -9.99686 12.1895 2.72531
H -9.10173 10.827 2.82022
O -8.34027 -5.00039 4.3611
H -7.55953 -5.07707 3.74094
H -8.42247 -5.8395 4.89884
O -12.5366 -3.21665 10.6987
H -11.934 -2.75722 10.0461
H -12.578 -4.19252 10.4842
O -4.19082 13.5082 -2.5639
H -4.29001 12.5356 -2.77446
H -4.97903 14.0088 -2.92185
O -8.18365 13.691 11.3896
H -8.52824 14.5855 11.6744
H -7.96832 13.7122 10.4132
O 1.04223 4.31448 0.442545
H 1.74008 4.57655 1.10914
H 1.21669 3.38189 0.126511
O 11.5693 -8.85393 14.2057
H 12.3352 -9.33822 14.6288
H 10.9698 -9.51186 13.7499
O -10.7976 12.6989 -2.74132
H -11.6582 12.2177 -2.90761
H -10.977 13.5308 -2.21615
O -3.88008 -1.91323 -12.1893
H -4.87868 -1.86068 -12.1813
H -3.50829 -1.29599 -11.4959
O -13.4825 6.51316 -11.9637
H -13.7906 7.45801 -12.0748
H -13.9414 5.93171 -12.6355
O -9.29521 8.3634 1.80323
H -9.97479 8.09822 1.11921
H -8.3837 8.34427 1.39236
O 7.79053 12.6464 -5.12088
H 7.84857 13.5886 -5.45111
H 7.68402 12.0266 -5.89842
O 14.0672 -11.75 -5.12812
H 14.3633 -12.562 -5.63107
H 13.5055 -12.0272 -4.3486
O -9.01198 -6.22674 -12.7463
H -8.72218 -6.89434 -12.0604
H -9.75744 -5.67176 -12.3771
O -10.2403 -2.96718 -14.7421
H -10.3174 -3.2691 -13.7918
H -10.8954 -3.47025 14.8135
O -3.30163 -13.0791 -2.56421
H -2.77654 -13.6398 -3.20441
H -3.89059 -12.4528 -3.07511
O -10.5974 2.50336 3.5078
H -10.6729 3.48348 3.32429
H -9.6407 2.26948 3.68134
O 6.48552 5.02762 5.31344
H 6.63231 5.75958 5.97881
H 6.40951 4.1527 5.79174
O -1.50655 3.29335 8.55207
H -0.806865 3.92526 8.88549
H -1.81565 2.71127 9.30419
O 4.30568 5.15016 -6.64341
H 3.63792 5.79381 -7.01737
H 4.86001 5.61033 -5.94987
O -11.1422 -11.7134 6.29521
H -10.3986 -11.9248 6.92949
H -11.1495 -12.385 5.55433
O -0.471356 -13.5297 -10.0323
H -0.123666 -12.5929 -10.0724
H -0.0384088 -14.0769 -10.7486
O -10.2312 14.0649 -9.76418
H -9.72161 13.2389 -10.0053
H -9.77931 14.8634 -10.1619
O 13.5555 13.9847 -6.87096
H 12.5742 13.8189 -6.77319
H 13.8448 13.7378 -7.79585
O 2.5674 8.98895 -0.983532
H 2.98242 9.87474 -1.19132
H 1.85011 8.79194 -1.65189
O -4.17384 7.46313 -3.32339
H -4.38846 8.28407 -3.85257
H -3.99451 7.71672 -2.37283
O -13.212 11.2705 -3.12307
H -13.9978 11.7771 -3.47785
H -13.5319 10.4598 -2.6327
O 14.9986 4.60668 -13.6718
H 14.6988 3.86545 -14.2724
H 14.7935 5.48661 -14.1004
O -11.8439 14.7933 13.8394
H -11.2138 14.0345 13.6741
H -11.667 -14.596 13.1792
O 3.93417 -10.0303 -3.80661
H 3.02034 -9.93743 -4.202
H 3.94649 -9.61862 -2.89535
O 8.38614 5.94996 10.05
H 8.31715 6.79505 10.5802
H 7.68785 5.30443 10.3594
O 10.1095 13.0741 -0.011228
H 10.0379 13.9029 0.543738
H 9.28378 12.5223 0.10571
O 14.2358 -0.0744961 0.114274
H 14.0863 -0.0992081 -0.874205
H 14.3943 0.869435 0.403918
O -9.20383 -5.31525 8.8357
H -8.45943 -5.76367 9.33048
H -9.10827 -4.32316 8.91738
O -2.87986 14.1236 3.56961
H -3.10682 14.5964 4.42108
H -3.0055 13.139 3.69136
O 13.8545 3.17666 14.5035
H 14.2125 2.25986 14.6807
H 14.1954 3.50289 13.6218
O -9.69162 5.21785 -10.2169
H -8.92936 5.79773 -9.92925
H -10.5338 5.75689 -10.2305
O 11.7501 -2.11121 -8.05196
H 10.7612 -2.06374 -8.19308
H 11.9676 -2.9022 -7.48007
O 7.93103 4.12978 0.754208
H 7.46651 3.67696 1.51526
H 8.63726 4.74126 1.11111
O 10.2545 14.988 1.97984
H 10.5821 14.9582 2.92422
H 10.4394 -14.2286 1.59125
O -13.0497 3.84751 10.7451
H -13.1444 4.24106 9.83071
H -12.1949 4.16339 11.1571
O 14.9042 -11.4664 12.6861
H -14.9335 -12.425 12.7279
H 14.6716 -11.228 11.7432
O -9.78467 11.9844 12.9566
H -9.382 12.5227 12.2162
H -9.08239 11.7762 13.6373
O 2.62798 -14.1095 -3.35154
H 3.37946 -13.4498 -3.36287
H 2.94804 -14.9855 -3.71223
O 13.7004 14.0994 6.29778
H 14.3679 14.7842 6.59028
H 14.1642 13.2275 6.14096
O 2.14704 4.42808 -2.43293
H 1.90073 4.62553 -1.48405
H 3.13485 4.28673 -2.49839
O 4.30001 6.03687 3.74275
H 5.16113 5.80161 4.19347
H 4.33906 6.98349 3.4227
O 11.8842 7.05902 -5.37204
H 11.1325 6.62058 -4.87932
H 11.7198 8.04414 -5.42268
O -9.18166 9.22262 7.64461
H -8.59862 9.99046 7.37909
H -8.91581 8.90089 8.55337
O 12.5202 -9.57139 1.54856
H 12.7923 -8.62139 1.7019
H 13.1804 -10.182 1.98609
O 5.6112 -10.4269 -11.8048
H 4.65365 -10.6524 -11.9845
H 5.76473 -10.3874 -10.8175
O -10.5198 5.00331 2.09729
H -11.3241 5.43619 2.50436
H -10.7759 4.57002 1.23316
O -10.0953 -2.21183 -10.0228
H -10.0831 -1.23368 -10.2305
H -10.6641 -2.37433 -9.21657
O -2.34989 -8.55881 3.38888
H -1.98088 -9.37079 2.93662
H -3.27746 -8.74901 3.71055
O -11.3712 0.646041 8.56065
H -12.2147 0.877814 9.04524
H -10.5876 1.0165 9.0595
O 11.5966 9.78501 -5.87566
H 12.349 10.0513 -6.47814
H 11.3872 10.5376 -5.25134
O 12.5059 3.8175 -2.64095
H 13.0527 3.33274 -3.3237
H 13.1026 4.14822 -1.90976
O 14.0315 -5.21427 -1.97166
H 14.1495 -6.20627 -2.01704
H 14.7279 -4.82296 -1.36997
O 0.811173 7.82874 -12.2674
H 1.4051 8.52264 -11.8602
H -0.13075 7.97803 -11.9665
O -2.43684 5.61286 -4.05548
H -1.70222 5.99236 -4.61793
H -3.01388 6.35546 -3.71546
O 4.12085 -4.09601 -6.96679
H 3.43993 -4.82802 -6.99
H 3.6576 -3.21149 -6.91154
O -2.48234 -8.36325 -12.2771
H -2.04904 -9.20709 -12.5937
H -2.45526 -7.68044 -13.0072
O -9.39183 -0.847563 2.77496
H -8.53615 -1.00114 2.28073
H -10.1379 -1.31805 2.30381
O 6.77148 13.0912 6.59994
H 6.42146 14.0239 6.68774
H 7.28985 12.8511 7.42071
O 8.53337 0.199894 8.22533
H 9.40112 0.692654 8.29031
H 8.61839 -0.686343 8.68072
O 10.0947 -1.86565 3.40003
H 10.0426 -2.59631 4.08081
H 9.32139 -1.94096 2.77045
O -14.3057 -5.27144 -9.15333
H 14.9403 -5.71752 -9.34911
H -13.5867 -5.9629 -9.08238
O 4.94381 2.22393 14.4609
H 5.81244 2.71651 14.4072
H 4.45676 2.49662 -14.8287
O 1.21301 -3.53322 -12.2918
H 1.04061 -3.36234 -11.3217
H 0.870274 -2.76442 -12.8317
O -4.3517 -11.844 6.19076
H -4.12419 -11.1355 5.52278
H -3.83469 -11.6871 7.03227
O 7.12913 6.43586 -14.7465
H 7.82118 7.1568 -14.7831
H 7.19898 5.86494 14.5547
O 14.2255 9.43278 -1.42797
H 13.3304 9.16441 -1.07178
H 14.1353 9.70327 -2.38648
O 9.08052 -1.65278 -8.4564
H 8.87023 -2.08137 -9.33511
H 8.26907 -1.67437 -7.87234
O -3.52703 -8.08875 7.07819
H -3.27076 -7.22865 7.51931
H -2.98255 -8.83497 7.46125
O -3.45095 -11.5106 8.99649
H -3.17795 -10.6411 9.40801
H -3.67421 -12.1656 9.71848
O -0.769268 -7.90654 -0.0220841
H -0.208586 -8.12979 -0.819472
H -0.86973 -6.91401 0.0474077
O -8.71089 2.65082 0.37226
H -7.89088 2.586 0.940945
H -9.0948 1.7376 0.235599
O 0.0177928 0.296237 4.23248
H 0.256281 -0.0998214 5.11921
H -0.886175 -0.0287635 3.95454
O 13.8489 4.9146 6.31146
H 13.2932 5.45223 5.67729
H 14.6642 4.57998 5.83892
O 5.25369 -12.7656 9.81214
H 6.06869 -12.9344 9.2578
H 4.82881 -13.6378 10.0545
O 1.67923 12.2397 -1.87318
H 1.51248 13.1377 -1.46606
H 0.958281 11.6067 -1.59098
O -0.941403 13.8496 7.03359
H -1.2384 14.197 6.14412
H 0.0483102 13.9623 7.12189
O 11.0553 8.79384 13.1764
H 10.6147 8.00152 12.7543
H 10.3565 9.44306 13.4768
O -1.7454 13.4289 -12.6554
H -1.65913 13.0358 -13.5709
H -2.51816 13.0056 -12.1824
O -6.62522 -12.4237 -15.023
H -6.04398 -12.1991 -14.2408
H -6.23067 -13.1962 14.5988
O 2.03286 -8.16179 -13.4371
H 2.591 -7.41803 -13.805
H 1.26887 -7.77951 -12.9173
O 2.67778 10.51 1.51359
H 2.49398 10.057 0.641242
H 2.0669 11.295 1.61672
O 5.61638 2.67167 -6.95127
H 5.19046 2.20013 -7.72346
H 5.30725 3.62246 -6.92971
O 0.804763 14.7006 -14.8421
H 1.7023 -15.0079 -15.0025
H 0.777032 13.7893 14.8664
O -3.56613 1.37368 -5.50876
H -4.33755 2.00976 -5.52729
H -3.90531 0.436081 -5.58565
O -14.1066 -13.1462 -2.05766
H -14.0399 -12.4455 -1.34736
H -14.4648 -13.9909 -1.65994
O -12.4171 -9.16947 4.9725
H -12.789 -8.28056 5.24002
H -13.0609 -9.89073 5.22814
O -13.7339 -1.76499 14.1137
H -13.2987 -1.36603 13.3066
H -13.3287 -2.65935 14.3032
O 0.93288 12.589 13.1837
H 1.46894 11.7448 13.19
H 0.444897 12.6675 12.3144
O -14.3458 9.09937 2.90856
H -13.5188 9.05768 3.46931
H -14.1866 9.69853 2.1239
O -1.42013 -13.2976 -0.518966
H -1.78632 -13.3463 0.41032
H -2.1698 -13.3698 -1.17685
O -11.5306 2.54438 -10.5278
H -10.956 3.36273 -10.5169
H -12.3892 2.74629 -10.9991
O -1.17881 -5.72133 -4.05238
H -2.11409 -6.06247 -4.14684
H -1.05237 -5.34505 -3.13453
O 5.19343 -5.16434 -3.32614
H 5.61971 -5.75734 -2.643
H 5.02708 -5.6859 -4.163
O -10.4976 10.8407 0.630787
H -9.61264 11.2684 0.446642
H -10.3643 10.033 1.20525
O 0.371695 -14.9909 -12.0106
H 0.653514 -14.9971 -12.97
H -0.412715 14.52 -11.8897
O -13.0546 14.4605 7.56093
H -13.2089 13.4744 7.62287
H -12.6721 14.7928 8.42306
O -12.1989 -2.57069 6.15049
H -11.4278 -2.43779 5.52775
H -11.8606 -2.6463 7.0885
O 10.0846 12.4645 8.19306
H 10.0183 11.9639 7.32989
H 10.982 12.3033 8.60381
O 2.78642 2.61159 -9.9779
H 2.93877 3.43975 -10.5173
H 2.70315 2.85402 -9.01129
O -1.31832 -9.77706 7.98061
H -1.05491 -9.41149 8.87337
H -1.31125 -10.7765 8.0144
O 11.1415 9.82421 -0.698942
H 10.703 10.7199 -0.625214
H 10.9201 9.41659 -1.58485
O 1.96278 -2.81166 8.71981
H 2.05355 -3.06503 9.68293
H 2.65976 -3.2871 8.18296
O -9.2697 -6.50675 0.301281
H -10.1609 -6.94233 0.174705
H -8.54499 -7.16951 0.112653
O -1.04628 -11.1398 1.91286
H -0.313569 -10.9465 2.56542
H -1.41565 -12.0526 2.08715
O 11.2775 14.9251 6.96883
H 10.8049 14.1657 7.41613
H 12.2338 14.6773 6.81321
O 2.57693 -3.94563 -14.5319
H 2.10881 -3.29501 14.9894
H 2.05893 -4.05034 -13.683
O -12.9323 -6.18787 6.19704
H -12.4702 -5.37887 6.56044
H -13.8917 -6.17848 6.47879
O -13.3368 12.3653 4.73386
H -13.6802 12.141 3.82182
H -13.0125 13.3112 4.74462
O 8.77724 -0.942277 -12.2204
H 8.26864 -0.834897 -13.0747
H 9.43177 -0.192187 -12.1256
O 12.3859 -4.1899 -11.2949
H 11.4255 -4.2572 -11.5653
H 12.8645 -3.56968 -11.9164
O 8.97442 3.33388 -3.75041
H 9.87166 3.74878 -3.5992
H 8.57073 3.70782 -4.58542
O 3.36596 -14.6132 11.0105
H 2.53086 -14.0751 11.1246
H 3.99331 -14.4191 11.7646
O -14.9515 -10.1514 -3.37541
H 14.729 -10.603 -4.15227
H -14.6192 -10.8418 -2.73274
O 10.7441 6.08707 -12.9866
H 10.7431 5.11264 -12.7618
H 11.3471 6.24828 -13.7679
O -11.9701 -13.5732 -7.67865
H -11.7392 -13.6311 -8.64992
H -11.9362 -14.4865 -7.27288
O 13.6987 -6.37988 4.85728
H 13.711 -5.47935 4.42262
H 12.9091 -6.44462 5.46752
O 7.75289 -14.2974 9.1483
H 8.19525 -13.7059 8.47423
H 8.05652 -14.042 10.0662
O 5.10878 -0.81186 8.3959
H 4.73526 -0.120464 9.01436
H 4.66158 -0.738197 7.50449
O -2.12424 1.69052 -11.8296
H -1.35825 2.26546 -12.1172
H -2.70985 1.49714 -12.6168
O 14.026 -8.68106 9.51388
H 14.2409 -9.63741 9.71199
H 13.8158 -8.20307 10.3667
O -2.41319 -13.7969 1.96336
H -3.32973 -13.4975 2.22863
H -2.32104 -14.7782 2.13256
O 8.27027 2.34674 -1.16437
H 8.47601 2.79702 -2.03325
H 8.12038 3.03836 -0.45781
O -4.92862 2.28916 12.0349
H -4.05532 2.74003 11.8502
H -4.76052 1.36713 12.3837
O 14.7725 1.41962 3.37807
H -14.5274 0.870567 3.54279
H 13.9815 0.970931 3.79397
O -12.7818 -15.0264 4.73893
H -12.7771 -14.8821 5.72848
H -12.0237 -14.5225 4.32501
O -14.7046 12.7071 -8.52967
H -14.6337 12.7239 -9.52703
H -13.7993 12.8476 -8.12875
O 0.234058 -3.2853 -9.69395
H -0.324984 -3.82548 -9.06489
H -0.201196 -2.39844 -9.84909
O -6.14024 -12.2995 -6.22023
H -6.77326 -12.5416 -5.48491
H -5.32884 -12.8815 -6.16668
O -8.89554 -9.81749 1.57839
H -8.18623 -9.14013 1.3832
H -9.29544 -10.1382 0.71976
O 4.75554 3.40975 6.95066
H 4.09329 4.012 6.50485
H 4.27437 2.64686 7.38253
O -4.2124 12.0443 9.54958
H -4.69419 11.2702 9.13882
H -3.23961 11.9889 9.32456
O 11.6984 -1.03959 -3.30865
H 11.6327 -1.98496 -2.98927
H 10.8136 -0.587411 -3.19579
O -3.74428 -8.61371 -9.71872
H -3.8488 -7.68402 -9.36545
H -3.37775 -8.57775 -10.6485
O -4.65103 9.50449 -0.465872
H -5.32914 9.1342 0.169021
H -4.97206 9.38228 -1.40504
O 3.26658 -14.0027 6.56839
H 2.8417 -14.8843 6.77399
H 2.74547 -13.271 7.00782
O -14.8986 14.5154 -1.1488
H 15.0378 14.1293 -2.05298
H 14.3565 14.6587 -0.666533
O -6.28736 2.03178 9.57792
H -5.60693 2.39484 8.94134
H -5.97946 2.1835 10.5172
O 13.8697 8.72529 12.2209
H 12.9051 8.61763 12.4617
H 13.972 8.6826 11.2271
O -11.1159 11.1319 -14.0658
H -10.6698 10.2711 -13.8211
H -11.5497 11.0395 -14.9621
O -4.12897 14.4063 -8.04881
H -4.97851 13.8886 -8.15014
H -4.17785 -14.8809 -8.60127
O -9.08136 -14.1382 2.19845
H -9.90426 -14.7038 2.14432
H -8.38439 -14.5038 1.58155
O -0.97805 6.69759 6.95362
H -0.293529 6.2456 7.5256
H -0.8798 6.38727 6.00806
O 13.4385 -0.131341 5.2335
H 13.8994 -0.938516 4.86453
H 13.7472 0.0292858 6.17103
O 1.90872 -8.16194 4.6308
H 1.78315 -8.02204 3.64861
H 1.02379 -8.35126 5.05634
O 7.60849 7.44893 3.01785
H 7.40833 8.00681 2.2124
H 7.90114 8.0408 3.7689
O 2.33208 0.158393 -5.96059
H 2.83632 -0.234956 -5.19179
H 2.05396 -0.571416 -6.58514
O 1.19074 -12.5779 -14.5162
H 0.780402 -13.2757 15.016
H 2.06701 -12.2902 -14.9028
O -3.89559 -13.4702 11.0599
H -3.70249 -14.4378 11.223
H -4.82725 -13.2615 11.3573
O -3.93893 -13.5727 -12.5126
H -3.24339 -13.8614 -13.1705
H -4.06693 -12.5829 -12.5757
O 7.6468 8.04629 -9.48661
H 8.17967 7.58609 -10.1967
H 8.20388 8.14284 -8.66176
O 8.0941 9.66144 -13.6529
H 7.58572 10.5188 -13.7332
H 9.07377 9.84622 -13.7313
O -7.8748 11.5071 0.00651804
H -7.90885 12.0807 -0.811937
H -7.0335 11.6978 0.512394
O 3.13538 -3.56751 5.27903
H 3.62628 -3.41053 6.13601
H 3.43849 -4.43037 4.87451
O -6.22267 -7.40156 -6.82031
H -7.17897 -7.64299 -6.6553
H -5.94155 -6.69245 -6.17365
O 5.07093 7.73806 -13.2488
H 5.66008 6.95681 -13.4552
H 5.52333 8.32959 -12.5814
O -3.35246 4.45678 -8.26618
H -2.51738 3.91475 -8.36039
H -3.87651 4.1278 -7.48057
O -13.004 -8.79835 -6.62344
H -13.9553 -8.85224 -6.92703
H -12.6392 -9.72184 -6.50448
O -8.92994 11.6548 -10.4036
H -8.86043 11.7799 -11.3933
H -9.31766 10.754 -10.2079
O 6.5173 0.868722 -4.87456
H 6.16841 1.51069 -5.55735
H 6.14327 1.10116 -3.97672
O 7.92926 13.6497 1.57015
H 7.89334 13.2237 2.47419
H 8.7199 14.26 1.52042
O 4.71499 6.01421 12.383
H 4.15034 5.25299 12.7019
H 5.62372 5.6757 12.1388
O -9.01841 8.39701 13.6406
H -9.82525 7.88705 13.3423
H -9.22855 8.88884 14.4856
O 4.20162 -0.30141 14.2397
H 4.5351 0.630211 14.0951
H 4.52651 -0.890349 13.4997
O -1.15981 -7.44813 -14.5877
H -0.620451 -8.2902 -14.5952
H -0.749944 -6.79544 -13.9505
O -4.88274 -8.94818 -14.8841
H -5.22691 -8.38462 -14.1331
H -5.5983 -9.05708 14.5452
O 12.8421 -13.8957 -14.0529
H 13.5352 -13.3371 -14.5085
H 12.4355 -13.3755 -13.3019
O 10.8704 11.5969 -8.82918
H 11.8332 11.5734 -8.55972
H 10.7983 11.8886 -9.78299
O 1.54282 -11.6571 7.51533
H 2.20584 -11.0073 7.14364
H 1.06164 -11.2385 8.28559
O 5.39657 14.0513 2.90464
H 6.29078 14.3825 2.6034
H 4.68276 14.6648 2.56676
O -2.62555 7.16478 -14.9449
H -2.55425 7.58869 14.2715
H -3.19804 6.34704 -15.0049
O -7.32712 13.6946 8.77042
H -8.05209 14.0507 8.18082
H -6.44288 13.8089 8.31757
O -13.2377 -5.86757 3.02123
H -12.3799 -6.27824 2.71198
H -13.1085 -5.47034 3.92983
O 4.33475 8.50265 2.66948
H 3.48944 8.90157 2.31403
H 4.89392 9.22092 3.08355
O 12.8839 -2.01536 9.17106
H 11.9564 -1.64208 9.15182
H 13.3479 -1.71236 10.0035
O -14.6946 9.38993 -8.99298
H -14.8157 10.0234 -9.75721
H 14.984 8.51871 -9.20922
O 1.09589 5.40158 8.17742
H 1.85677 5.0395 7.63892
H 1.45257 5.97652 8.9138
O 13.9343 -9.13826 5.9758
H 13.8053 -9.98117 5.45341
H 14.1025 -8.37896 5.34715
O -1.67348 -5.19046 -1.1948
H -1.00047 -4.49466 -0.943898
H -2.56565 -4.75867 -1.3276
O 0.13667 4.42186 11.157
H 0.124135 3.44019 11.3472
H 0.965427 4.82589 11.5442
O -14.6784 -14.7475 2.66696
H -14.0538 -14.5911 3.43215
H -14.3596 14.5902 2.13087
O 4.43829 -0.566434 -1.2916
H 3.83598 -0.337798 -0.526762
H 4.55196 -1.55873 -1.34126
O 4.49027 -6.99841 6.49542
H 5.32725 -7.54557 6.48432
H 4.27124 -6.70539 5.56472
O -9.57563 9.78383 -3.49166
H -10.4564 9.58698 -3.92239
H -9.7025 10.4631 -2.76883
O -13.4503 14.8173 -13.9719
H -12.9708 14.412 -14.7502
H -14.4087 14.9697 -14.2134
O -1.60113 -13.6647 -14.905
H -2.01001 -14.5771 -14.8886
H -0.754638 -13.6692 -14.3725
O -8.36017 -14.0616 -10.6147
H -8.74143 -13.2369 -11.0324
H -8.14012 -13.8787 -9.65652
O -13.5428 1.11203 10.0907
H -13.3944 2.09991 10.1364
H -13.25 0.690925 10.9492
O -14.5464 12.7883 13.71
H -14.194 13.3888 12.9922
H -13.9158 12.0239 13.8445
O -0.473921 -8.55365 5.38445
H -0.938608 -8.78478 6.23924
H -1.1202 -8.62283 4.62446
O -2.62499 7.15622 -8.61261
H -1.66403 6.95197 -8.42588
H -3.09012 6.32396 -8.91433
O -7.55873 6.70745 -9.43297
H -7.42795 7.28627 -8.62805
H -6.74625 6.14125 -9.57193
O 3.39221 -11.5431 13.9238
H 4.00632 -10.9906 14.4875
H 3.83846 -12.408 13.694
O 9.189 -10.4509 10.2854
H 10.0762 -10.0082 10.1549
H 9.18218 -10.9317 11.1622
O 11.5411 8.85979 -9.51203
H 11.6922 9.82073 -9.74396
H 10.7315 8.78058 -8.93041
O -9.73238 0.444029 -13.1146
H -8.87503 0.730228 -13.5425
H -9.59378 0.335966 -12.1301
O -11.7123 -12.9886 12.2154
H -11.7602 -12.1054 11.7488
H -10.7742 -13.3334 12.1808
O 13.3323 -8.09642 -12.4305
H 12.4083 -8.463 -12.5389
H 13.8314 -8.19051 -13.292
O 3.51403 4.77472 1.38056
H 3.99159 5.41211 1.98531
H 3.77791 3.83753 1.60878
O -11.9552 4.38077 7.8295
H -12.1313 3.60423 7.22452
H -11.1908 4.91639 7.47045
O -12.4858 0.198472 12.375
H -11.6261 -0.304876 12.4624
H -12.553 0.873502 13.1098
O 7.00668 -5.86825 -12.2872
H 7.51016 -5.01592 -12.4289
H 6.6862 -6.21644 -13.1682
O -2.29566 3.28938 11.8332
H -2.07351 4.26269 11.7752
H -1.85935 2.89555 12.6423
O 13.5619 -4.74995 14.7743
H 12.9153 -5.42386 -14.9874
H 14.4962 -5.0781 14.9131
O 7.44466 11.8641 -2.58281
H 7.38444 12.6366 -1.95057
H 7.73656 12.191 -3.48166
O -4.16176 -4.18912 -1.74497
H -4.2206 -3.51769 -2.48373
H -4.73376 -3.89371 -0.979735
O 5.72709 -14.6329 5.47602
H 4.93998 -14.3727 6.03529
H 5.44185 14.8171 4.79001
O -2.86754 -6.72698 9.76773
H -3.35144 -5.93044 10.1302
H -1.96084 -6.44989 9.44968
O -11.7116 -8.38774 12.0708
H -11.5794 -7.4826 11.6668
H -10.8842 -8.65678 12.5638
O 7.64862 5.71141 12.771
H 8.61581 5.54213 12.9605
H 7.33512 5.08773 12.0549
O 6.51122 -0.260982 12.7287
H 6.68549 -0.922417 11.9992
H 6.52502 0.664402 12.3499
O 4.92048 -13.5014 12.9578
H 5.52688 -14.2698 13.1624
H 5.46794 -12.6885 12.7592
O -3.20207 11.4486 3.91668
H -2.53344 11.2452 3.20143
H -3.14883 10.7508 4.63097
O 12.9033 -5.13461 8.72474
H 13.0952 -4.17125 8.53724
H 12.2596 -5.20406 9.48684
O -13.3865 1.94284 0.409936
H -14.2769 2.29663 0.696157
H -12.7582 2.7057 0.256882
O 6.56319 -2.19613 10.7489
H 6.08418 -1.86378 9.93637
H 7.29417 -2.82025 10.4729
O -6.19146 9.27662 -3.10956
H -5.81948 10.1526 -3.41667
H -7.18991 9.32785 -3.08739
O -7.30141 7.04774 6.40922
H -7.68623 6.97699 5.48892
H -7.23833 8.01082 6.671
O -10.883 -13.112 3.85729
H -11.389 -12.4108 3.35502
H -10.0167 -13.2951 3.39248
O -5.06328 10.5903 -7.39281
H -5.64443 11.2283 -7.89803
H -4.38213 10.1985 -8.01134
O -12.5317 0.676797 2.66402
H -12.6975 1.15807 1.80325
H -11.7922 1.12975 3.16206
O 1.15082 -0.176455 10.6388
H 0.54866 -0.817058 11.1153
H 1.08605 -0.328845 9.6526
O 13.8071 11.5532 12.1119
H 14.3962 11.9434 12.8195
H 13.9247 10.5603 12.0905
O -4.8867 -12.9787 2.49989
H -5.51391 -12.5481 1.85086
H -5.29104 -12.9634 3.41439
O -13.5792 8.8547 7.83652
H -14.1622 8.42494 7.14697
H -12.6263 8.82133 7.53507
O -11.413 -4.06668 -4.45454
H -12.2383 -3.7207 -4.90089
H -10.9011 -4.63746 -5.09661
O 4.32727 -0.630221 5.36554
H 3.67147 -0.96397 4.68836
H 5.15397 -0.31299 4.90081
O 7.8094 12.0667 -9.90384
H 7.0188 11.9509 -10.5052
H 8.64547 11.8465 -10.4064
O 14.8648 -4.80656 -4.73825
H 14.6967 -4.96782 -3.76575
H -14.6752 -3.9987 -4.84687
O -8.60984 6.81483 -4.83353
H -9.21257 7.38902 -4.27941
H -8.11839 7.38529 -5.49163
O -8.46323 6.68442 4.02113
H -9.19087 6.93565 3.38281
H -8.25486 5.71131 3.92281
O 11.3648 1.48792 14.7048
H 11.3867 0.610247 -14.9357
H 11.9631 1.44611 13.9046
O 13.7734 -2.6216 -9.62152
H 12.928 -2.41134 -9.13032
H 13.6077 -3.36847 -10.2655
O -5.00261 14.517 7.71237
H -4.2488 13.9303 8.00842
H -4.68287 -14.9869 6.99196
O 2.79888 -7.24971 -6.30247
H 2.31876 -6.42242 -6.01072
H 3.67253 -7.31561 -5.82038
O -9.81838 9.01463 -9.52679
H -10.3082 8.22736 -9.90133
H -10.1231 9.18149 -8.58905
O 4.84729 3.95085 -2.62085
H 5.398 4.66837 -2.19433
H 5.19747 3.05496 -2.34737
O -14.687 -8.11416 0.0735527
H 15.0102 -7.77221 0.913136
H 14.7916 -8.01175 -0.687345
O -4.53272 -4.84832 1.22283
H -3.62432 -4.52977 1.49371
H -4.44148 -5.5865 0.554407
O 3.54381 -9.13041 -1.10616
H 2.85683 -9.47881 -0.468428
H 4.44252 -9.14333 -0.66777
O -10.9722 11.8928 5.94584
H -10.2565 11.791 5.25494
H -11.8592 11.9918 5.49477
O 8.31751 8.26299 12.0153
H 7.90506 9.08345 12.4112
H 7.93173 7.45121 12.4538
O -11.4711 -0.951135 -5.54262
H -12.0925 -1.73409 -5.51292
H -11.9973 -0.104672 -5.46136
O -3.17188 2.33376 15.0176
H -3.70733 1.87176 -14.3947
H -3.47517 3.28325 14.9369
O -14.0494 4.22108 -4.40762
H -14.5877 3.43044 -4.11588
H -13.8446 4.14322 -5.38335
O -6.25857 12.5377 -8.97251
H -7.15302 12.091 -8.9514
H -6.19037 13.1087 -9.79068
O 2.11213 6.82707 -4.49806
H 3.09431 6.66834 -4.59883
H 1.77792 6.34488 -3.68822
O 9.7477 -9.62431 1.73233
H 10.7127 -9.88637 1.74564
H 9.38667 -9.63439 2.66485
O -12.3997 11.0507 13.6374
H -11.6402 11.4491 13.1231
H -12.5842 10.1281 13.2983