LAMMPS data file via write_data, version 15 May 2015, timestep = 8008000

2611 atoms
6 atom types
1749 bonds
4 bond types
894 angles
3 angle types
44 dihedrals
3 dihedral types
10 impropers
1 improper types

-1.4964411887529305e+01 1.4964411887529305e+01 xlo xhi
-1.4964411887529305e+01 1.4964411887529305e+01 ylo yhi
-1.4964411887529305e+01 1.4964411887529305e+01 zlo zhi

Masses

1 15.9994
2 1.00794
3 12.0107
4 1.00794
5 12.0107
6 12.0107

Bond Coeffs # harmonic

1 1000 1
2 469 1.4
3 367 1.08
4 469 0.7

Angle Coeffs # harmonic

1 100 109.47
2 35 120
3 63 120

Dihedral Coeffs # opls

1 0 7.25 0 0
2 0 7.25 0 0
3 0 7.25 0 0

Improper Coeffs # cvff

1 2.5 -1 2

Atoms # full

102 34 2 4.0999999999999998e-01 -1.1059695733925599e+01 -1.2545834558293661e+01 -1.3090142292859692e+01 -2 1 -3
1912 638 1 -8.1999999999999995e-01 -1.3035544914583884e+01 -1.3524500890662837e+01 -9.9631978074546836e+00 0 1 -3
122 41 2 4.0999999999999998e-01 -1.2873406155062215e+01 -5.8139425098520050e+00 -1.1567914747156181e+01 2 0 -2
1913 638 2 4.0999999999999998e-01 -1.2840454047878641e+01 -1.2554735232843260e+01 -1.0109806466156773e+01 0 1 -3
1914 638 2 4.0999999999999998e-01 -1.2777007357712012e+01 -1.4043398155976266e+01 -1.0778000820729192e+01 0 1 -3
914 305 2 4.0999999999999998e-01 -9.9011926804757326e+00 -1.1318760428338303e+01 -1.0829910945647025e+01 1 -2 -2
915 305 2 4.0999999999999998e-01 -1.1182976582449573e+01 -1.0309575554536128e+01 -1.0902038112082408e+01 1 -2 -2
913 305 1 -8.1999999999999995e-01 -1.0196969133680437e+01 -1.0367229047158411e+01 -1.0745624040782292e+01 1 -2 -2
1839 613 2 4.0999999999999998e-01 -1.2684028664224281e+01 -7.4871211342738171e+00 -1.0504110943719173e+01 3 0 0
1030 344 1 -8.1999999999999995e-01 -9.5065271865049397e+00 -1.2876925295829352e+01 -1.0747213287102959e+01 0 -1 -3
970 324 1 -8.1999999999999995e-01 -1.1436290210930260e+01 -7.5511442156469961e+00 -1.3664680116486533e+01 0 -3 -4
972 324 2 4.0999999999999998e-01 -1.0813180040332476e+01 -8.1784518678949745e+00 -1.4131819090357515e+01 0 -3 -4
413 138 2 4.0999999999999998e-01 -9.7162831123854012e+00 -9.5168183462768408e+00 -9.1832451367856756e+00 0 1 -3
728 243 2 4.0999999999999998e-01 -1.4667585414204098e+01 -9.0215790111383285e+00 -9.6658600342686718e+00 4 -1 1
971 324 2 4.0999999999999998e-01 -1.1089189724572448e+01 -7.3585106437540002e+00 -1.2746849227506768e+01 0 -3 -4
1888 630 1 -8.1999999999999995e-01 -1.1965666714056203e+01 -7.5723687955648273e+00 -8.8034030496466027e+00 1 -1 -1
1031 344 2 4.0999999999999998e-01 -9.5178455171436873e+00 -1.3403269852093302e+01 -9.8970172508128584e+00 0 -1 -3
1090 364 1 -8.1999999999999995e-01 -1.2733681075101241e+01 -1.0854702600931301e+01 -1.1604426766422188e+01 0 0 -1
1092 364 2 4.0999999999999998e-01 -1.3178033582943943e+01 -1.1136371611744112e+01 -1.2454846317502174e+01 0 0 -1
100 34 1 -8.1999999999999995e-01 -1.0798080150367090e+01 -1.2057027971560260e+01 -1.3922383464502117e+01 -2 1 -3
1091 364 2 4.0999999999999998e-01 -1.3384178213382544e+01 -1.0344884076977896e+01 -1.1041453820536200e+01 0 0 -1
1032 344 2 4.0999999999999998e-01 -9.0351448327666812e+00 -1.3400345596479697e+01 -1.1457022998372427e+01 0 -1 -3
101 34 2 4.0999999999999998e-01 -1.1144032143085267e+01 -1.1119684569982089e+01 -1.3881097452465003e+01 -2 1 -3
1838 613 2 4.0999999999999998e-01 -1.3895293488775408e+01 -8.2229032594902431e+00 -1.1315337578706000e+01 3 0 0
286 96 1 -8.1999999999999995e-01 -9.1892045157203484e+00 -8.0460748603376260e+00 -1.1735937969748791e+01 2 2 -2
287 96 2 4.0999999999999998e-01 -9.0755524138703141e+00 -8.0011118214689638e+00 -1.0743435322259021e+01 2 2 -2
361 121 1 -8.1999999999999995e-01 -9.6015402132271159e+00 -1.4786923008389959e+01 -8.5853471145096165e+00 2 5 1
951 317 2 4.0999999999999998e-01 -8.2082535978083691e+00 -7.3769836093149426e+00 -8.3018403480215728e+00 2 -1 0
288 96 2 4.0999999999999998e-01 -9.6673721541505628e+00 -8.8901038401321042e+00 -1.1978776989284995e+01 2 2 -2
542 181 2 4.0999999999999998e-01 -8.0058618669844890e+00 -7.2980694286667411e+00 -1.2764093507243061e+01 2 -2 0
1850 617 2 4.0999999999999998e-01 -1.4407252536654063e+01 -1.3661879443050205e+01 -8.8531313924445953e+00 -4 1 -2
2546 849 2 4.0999999999999998e-01 -1.3794616893139278e+01 -8.2042379267114889e+00 -1.3523556309190461e+01 2 1 -3
2545 849 1 -8.1999999999999995e-01 -1.4600267995617719e+01 -8.3535846388346009e+00 -1.4096811794632172e+01 2 1 -3
362 121 2 4.0999999999999998e-01 -9.9585002078207783e+00 -1.4179980252693149e+01 -7.8752766472872446e+00 2 5 1
955 319 1 -8.1999999999999995e-01 -1.3978041936586219e+01 -1.1450796355203703e+01 -1.3802730316188020e+01 0 4 0
956 319 2 4.0999999999999998e-01 -1.3582759461142775e+01 -1.2258323693858959e+01 -1.4240510351163694e+01 0 4 0
412 138 1 -8.1999999999999995e-01 -9.7646986600790058e+00 -9.3574213549416356e+00 -8.1972185041270968e+00 0 1 -3
1119 373 2 4.0999999999999998e-01 -1.4378207663277648e+01 -1.4259606463650826e+01 -1.4370054770326346e+01 1 0 -1
1837 613 1 -8.1999999999999995e-01 -1.3268239983929607e+01 -7.4439274558145758e+00 -1.1314562324135551e+01 3 0 0
1890 630 2 4.0999999999999998e-01 -1.2894861286247638e+01 -7.8450022257787424e+00 -8.5538665662654267e+00 1 -1 -1
509 170 2 4.0999999999999998e-01 -8.1869036352077593e+00 -1.0828247525745098e+01 -8.5505345998653706e+00 -4 0 -1
1384 462 1 -8.1999999999999995e-01 -7.6097063160207137e+00 -1.3889295271374611e+01 -1.3046353593337670e+01 -3 2 -2
543 181 2 4.0999999999999998e-01 -7.6719978592770648e+00 -6.1634818981718347e+00 -1.3890091922936913e+01 2 -2 0
414 138 2 4.0999999999999998e-01 -1.0494751081905157e+01 -8.7028526100954195e+00 -8.0008434466193421e+00 0 1 -3
957 319 2 4.0999999999999998e-01 -1.4537120258602902e+01 -1.0952468904915825e+01 -1.4465377399354402e+01 0 4 0
1889 630 2 4.0999999999999998e-01 -1.1673345629424848e+01 -6.8134749348405066e+00 -8.2214851111292457e+00 1 -1 -1
949 317 1 -8.1999999999999995e-01 -8.2638259737559849e+00 -6.6668291226576279e+00 -9.0036895523081846e+00 2 -1 0
2577 859 2 4.0999999999999998e-01 -1.4818687874590081e+01 -5.2748414767516820e+00 -1.1867610609965775e+01 2 -1 1
950 317 2 4.0999999999999998e-01 -7.5667778656869915e+00 -5.9711822001317056e+00 -8.8299101753711859e+00 2 -1 0
1385 462 2 4.0999999999999998e-01 -8.0145398664153866e+00 -1.4162983289490827e+01 -1.3918824017175847e+01 -3 2 -2
727 243 1 -8.1999999999999995e-01 -1.4863380911944279e+01 -9.4688396375560302e+00 -1.0538569645392784e+01 4 -1 1
891 297 2 4.0999999999999998e-01 -9.4869246301758103e+00 -5.4091541539785108e+00 -8.1899761093412788e+00 -5 2 -1
555 185 2 4.0999999999999998e-01 -1.3443908191595282e+01 -6.1417326248403512e+00 -1.4822169050994535e+01 -1 -1 1
2496 832 2 4.0999999999999998e-01 -6.4148627102692988e+00 -1.2631023930877806e+01 -7.8356470249014318e+00 -1 1 -3
2273 758 2 4.0999999999999998e-01 -4.0042781645518666e+00 -1.2462341558070218e+01 -9.1570627676201468e+00 -2 1 -1
2274 758 2 4.0999999999999998e-01 -5.4642804316488771e+00 -1.2253731433665605e+01 -9.8581345068413597e+00 -2 1 -1
2018 673 2 4.0999999999999998e-01 -2.7173202649211881e-01 -6.0312241786309855e+00 -7.9604598071709356e+00 0 2 -5
1970 657 2 4.0999999999999998e-01 -4.0950842331006498e+00 -5.1135878770895413e+00 -1.1449246185052120e+01 -3 0 0
1559 520 2 4.0999999999999998e-01 -5.2161588993153103e+00 -1.2430891879110286e+01 -1.4674680302445889e+01 0 0 -3
1261 421 1 -8.1999999999999995e-01 -4.7161564879964857e+00 -6.7759451183327197e+00 -9.1540013680609444e+00 1 1 1
510 170 2 4.0999999999999998e-01 -6.5653913180327592e+00 -1.0695895480335274e+01 -8.6912725880946091e+00 -4 0 -1
1558 520 1 -8.1999999999999995e-01 -5.3203803707244681e+00 -1.2385678192938723e+01 -1.3681154471762135e+01 0 0 -3
1333 445 1 -8.1999999999999995e-01 -2.8455231611156417e+00 -1.1761949900509208e+01 -7.8478305102583779e+00 0 1 -1
1969 657 1 -8.1999999999999995e-01 -3.1144155512237148e+00 -5.1001238127692190e+00 -1.1644457959584136e+01 -3 0 0
1335 445 2 4.0999999999999998e-01 -1.9444021988342648e+00 -1.1778111838159504e+01 -8.2810969425660552e+00 0 1 -1
1680 560 2 4.0999999999999998e-01 -1.3928208273321285e+00 -1.3455138135935812e+01 -1.4554581430471687e+01 2 1 0
1263 421 2 4.0999999999999998e-01 -4.3602481326251503e+00 -6.3317986009479217e+00 -8.3317708060879010e+00 1 1 1
4 2 1 -8.1999999999999995e-01 -1.2060465392989865e+00 -7.1510485381991531e+00 -1.1944055156552778e+01 -2 -1 -3
508 170 1 -8.1999999999999995e-01 -7.3295100941550233e+00 -1.1337530975436577e+01 -8.6247414776270048e+00 -4 0 -1
898 300 1 -8.1999999999999995e-01 -1.8821764721189833e+00 -9.5493680060343493e+00 -1.0500264996372572e+01 1 -1 -1
2272 758 1 -8.1999999999999995e-01 -4.4934508098432175e+00 -1.2422605456577447e+01 -1.0028344096578897e+01 -2 1 -1
2042 681 2 4.0999999999999998e-01 -1.9690224370685776e+00 -1.2839235206887778e+01 -1.2058071695759198e+01 0 2 -4
1611 537 2 4.0999999999999998e-01 -1.5530205763258849e+00 -6.6213914917471808e+00 -1.3601881867000944e+01 1 2 1
1609 537 1 -8.1999999999999995e-01 -2.1082486817185071e+00 -6.4165845605021108e+00 -1.4407968635139605e+01 1 2 1
1290 430 2 4.0999999999999998e-01 -3.0992601940164910e-01 -9.1432162424461332e+00 -9.9367827995192943e+00 -2 5 -4
2367 789 2 4.0999999999999998e-01 -2.8825528219734728e+00 -1.4753013000502165e+01 -1.3443111228315974e+01 0 -1 -3
2365 789 1 -8.1999999999999995e-01 -2.7667602766758783e+00 -1.3777857611827079e+01 -1.3631960550972824e+01 0 -1 -3
2041 681 1 -8.1999999999999995e-01 -2.0274270278009272e+00 -1.2188884156548363e+01 -1.1300686463708011e+01 0 2 -4
2366 789 2 4.0999999999999998e-01 -3.6258685230223513e+00 -1.3299038323762877e+01 -1.3451225694248068e+01 0 -1 -3
1678 560 1 -8.1999999999999995e-01 -4.5965036922607361e-01 -1.3462995893165827e+01 -1.4913929678811058e+01 2 1 0
1453 485 1 -8.1999999999999995e-01 -5.4821855876286012e+00 -9.5392672690294411e+00 -9.4104645000379072e+00 -1 4 -3
1454 485 2 4.0999999999999998e-01 -4.9794781823736951e+00 -9.9211272077508283e+00 -1.0186008305105069e+01 -1 4 -3
900 300 2 4.0999999999999998e-01 -1.9361653060309152e+00 -1.0393133266847130e+01 -1.1034255072524912e+01 1 -1 -1
1386 462 2 4.0999999999999998e-01 -6.7859490734819445e+00 -1.3348400023702336e+01 -1.3216225133614055e+01 -3 2 -2
6 2 2 4.0999999999999998e-01 -1.3924224488210086e+00 -6.3947346716502764e+00 -1.1316956016581830e+01 -2 -1 -3
2043 681 2 4.0999999999999998e-01 -2.9454006257777987e+00 -1.2219364177235340e+01 -1.0905217863885643e+01 0 2 -4
813 271 2 4.0999999999999998e-01 -4.8729337650311528e+00 -9.1402483934069565e+00 -1.3385553149014463e+01 -1 3 -2
5 2 2 4.0999999999999998e-01 -1.3108785122203734e+00 -8.0194463762828825e+00 -1.1459395028315880e+01 -2 -1 -3
407 136 2 4.0999999999999998e-01 -6.3674433657846361e+00 -7.8119293715866958e+00 -1.4118740458873969e+01 -2 1 -2
899 300 2 4.0999999999999998e-01 -2.4127867596060462e+00 -9.6528037194846945e+00 -9.6589839690746437e+00 1 -1 -1
406 136 1 -8.1999999999999995e-01 -5.7186299590587897e+00 -8.1773093556835939e+00 -1.4786227246876226e+01 -2 1 -2
1383 461 2 4.0999999999999998e-01 -4.1409371326145301e+00 -1.4878986475691153e+01 -1.0038945387518599e+01 0 2 -3
1560 520 2 4.0999999999999998e-01 -5.0111641294316875e+00 -1.1492779564455168e+01 -1.3353866618764719e+01 0 0 -3
2499 833 2 4.0999999999999998e-01 -1.0305960782087276e-01 -1.4608049731995163e+01 -1.3525452710793155e+01 3 2 -3
2278 760 1 -8.1999999999999995e-01 -5.7614406445783750e+00 -5.2078932798039155e+00 -1.1392261542744176e+01 2 -1 -3
811 271 1 -8.1999999999999995e-01 -4.2727060777480812e+00 -9.8470231804953308e+00 -1.3011125437350318e+01 -1 3 -2
1387 463 1 -8.1999999999999995e-01 -1.0033869664702166e-01 -1.1705666617128603e+01 -8.5655046474361285e+00 2 -1 2
1455 485 2 4.0999999999999998e-01 -5.3889050773856013e+00 -8.5436274291671666e+00 -9.4104502484450041e+00 -1 4 -3
812 271 2 4.0999999999999998e-01 -3.3780602234348187e+00 -9.4501468020975565e+00 -1.2805947668999609e+01 -1 3 -2
2279 760 2 4.0999999999999998e-01 -6.3113663405050016e+00 -5.9150673964890341e+00 -1.1836656045775030e+01 2 -1 -3
1262 421 2 4.0999999999999998e-01 -4.7154571748890799e+00 -6.1236977079081019e+00 -9.9120071862961350e+00 1 1 1
541 181 1 -8.1999999999999995e-01 -7.2743601174197519e+00 -6.8331074341097988e+00 -1.3262807409761031e+01 2 -2 0
1971 657 2 4.0999999999999998e-01 -2.9261092261776938e+00 -5.6688368056101819e+00 -1.2445149043715936e+01 -3 0 0
1790 597 2 4.0999999999999998e-01 -9.3941119739778571e+00 -7.3412107751850861e+00 -4.7489246814129995e+00 -2 1 -3
2073 691 2 4.0999999999999998e-01 -1.1785525635228490e+01 -1.0382466331220986e+01 -5.8140247660656552e+00 -2 3 1
586 196 1 -8.1999999999999995e-01 -1.2698626056283899e+01 -1.2958298125545484e+01 -5.3111685923008807e+00 0 2 -3
575 192 2 4.0999999999999998e-01 -1.2729558973419351e+01 -1.4917043473461330e+01 -5.7195794122548680e+00 0 -4 -5
310 104 1 -8.1999999999999995e-01 -8.6256931938730812e+00 -1.1344240115450074e+01 -2.0522397102834606e+00 0 1 -4
2265 755 2 4.0999999999999998e-01 -1.1754933567465869e+01 -7.0132469181515082e+00 -4.6783076455386237e+00 1 1 0
1789 597 1 -8.1999999999999995e-01 -9.9811687893523100e+00 -6.9823588111737136e+00 -4.0232597803804548e+00 -2 1 -3
2264 755 2 4.0999999999999998e-01 -1.3325667439790642e+01 -6.7880183426049925e+00 -5.0639158069792405e+00 1 1 0
2263 755 1 -8.1999999999999995e-01 -1.2647350970288196e+01 -7.4569974554044993e+00 -4.7600182927850980e+00 1 1 0
1791 597 2 4.0999999999999998e-01 -9.6420223022229266e+00 -6.0878802522530311e+00 -3.7319047796941653e+00 -2 1 -3
2072 691 2 4.0999999999999998e-01 -1.2673206009307117e+01 -9.0225895613844447e+00 -5.6426039381537798e+00 -2 3 1
588 196 2 4.0999999999999998e-01 -1.3533519002873714e+01 -1.2429397169723710e+01 -5.1587955913632761e+00 0 2 -3
587 196 2 4.0999999999999998e-01 -1.2298919752627448e+01 -1.3211360149062175e+01 -4.4301496366605164e+00 0 2 -3
312 104 2 4.0999999999999998e-01 -8.9302804023971216e+00 -1.1831858382391882e+01 -1.2340373791753052e+00 0 1 -4
546 182 2 4.0999999999999998e-01 -1.4131916126921992e+01 -5.9114932652242960e+00 -2.4036177744223757e+00 -4 -1 -1
1322 441 2 4.0999999999999998e-01 -1.0830765490351030e+01 -1.3594876428079463e+01 -3.1234443001748780e+00 0 3 -2
491 164 2 4.0999999999999998e-01 -1.4273111497223638e+01 -5.7891563861045778e+00 -6.4223391181484129e+00 1 0 -6
1230 410 2 4.0999999999999998e-01 -1.2135592127339953e+01 -1.1723487118990239e+01 -1.3798127764149868e+00 2 0 -4
1228 410 1 -8.1999999999999995e-01 -1.1894414426600012e+01 -1.1179649844876643e+01 -5.7602532940381934e-01 2 0 -4
2071 691 1 -8.1999999999999995e-01 -1.2697188364329199e+01 -9.9842914189282972e+00 -5.9156504136302193e+00 -2 3 1
1726 576 1 -8.1999999999999995e-01 -9.3777521041329965e+00 -1.3213929845739889e+01 -4.2819721005360876e+00 0 1 -2
1982 661 2 4.0999999999999998e-01 -1.1284370457061552e+01 -1.3146496699056229e+01 -6.3987575222546145e+00 0 1 -3
1229 410 2 4.0999999999999998e-01 -1.1871876166470756e+01 -1.0211013260331910e+01 -8.2348272569462466e-01 2 0 -4
1728 576 2 4.0999999999999998e-01 -9.6791146644417658e+00 -1.2751937489530324e+01 -5.1160846022030189e+00 0 1 -2
545 182 2 4.0999999999999998e-01 -1.4589654832000218e+01 -6.0138617148572759e+00 -8.3944948348485582e-01 -4 -1 -1
1981 661 1 -8.1999999999999995e-01 -1.0429813677815472e+01 -1.2901323352799931e+01 -6.8566032928039000e+00 0 1 -3
544 182 1 -8.1999999999999995e-01 -1.4683201788803153e+01 -6.4251291652399640e+00 -1.7461512204633483e+00 -4 -1 -1
1727 576 2 4.0999999999999998e-01 -8.6351720191297119e+00 -1.3846795341077588e+01 -4.5011890688013754e+00 0 1 -2
1293 431 2 4.0999999999999998e-01 -8.9124884426194484e+00 -8.7702995069477581e+00 -6.5550476760588516e+00 1 1 -3
449 150 2 4.0999999999999998e-01 -1.2384333472070303e+01 -8.8146435171912643e+00 -2.5275463358974335e+00 0 0 -3
448 150 1 -8.1999999999999995e-01 -1.1696582162388705e+01 -8.7556030751240925e+00 -1.8040047955875487e+00 0 0 -3
349 117 1 -8.1999999999999995e-01 -1.0271544034562201e+01 -9.8768603730310929e+00 -4.3254732912037284e+00 0 3 3
1321 441 1 -8.1999999999999995e-01 -1.1804230722383959e+01 -1.3473764790090897e+01 -2.9292861642083281e+00 0 3 -2
311 104 2 4.0999999999999998e-01 -8.6671962443426587e+00 -1.1957854645230920e+01 -2.8407539373927335e+00 0 1 -4
450 150 2 4.0999999999999998e-01 -1.0858927776540773e+01 -8.3523931728415413e+00 -2.1724568204150092e+00 0 0 -3
1291 431 1 -8.1999999999999995e-01 -8.4645500320523652e+00 -8.1773383210171495e+00 -5.8859077724303059e+00 1 1 -3
351 117 2 4.0999999999999998e-01 -9.9278113415104237e+00 -1.0443731808610600e+01 -3.5768047520748834e+00 0 3 3
350 117 2 4.0999999999999998e-01 -1.0103835109513032e+01 -8.9131121578657222e+00 -4.1179568205230996e+00 0 3 3
1724 575 2 4.0999999999999998e-01 -1.4317353268215546e+01 -9.6571032840258759e+00 -4.4195306320215408e+00 2 2 2
2200 734 1 -8.1999999999999995e-01 -7.7802383085140052e+00 -9.0259155078637967e+00 -6.9817251786813017e-01 0 2 2
2202 734 2 4.0999999999999998e-01 -8.0773124905881239e+00 -9.8129868778856384e+00 -1.2387884674355032e+00 0 2 2
1323 441 2 4.0999999999999998e-01 -1.2193742587245701e+01 -1.4342564817649661e+01 -2.6235624848417043e+00 0 3 -2
1292 431 2 4.0999999999999998e-01 -7.7532320637430834e+00 -8.6923456336506888e+00 -5.4075833778487929e+00 1 1 -3
3 1 2 4.0999999999999998e-01 -1.4504749657995282e+01 -1.0743964281330893e+01 -6.5265002753173373e+00 -3 -1 -4
1719 573 2 4.0999999999999998e-01 -1.2048599723815293e+01 -5.1363867354761013e+00 -6.9394092543788126e+00 0 0 0
692 231 2 4.0999999999999998e-01 -7.9881198144518937e+00 -7.3191979957385609e+00 -3.0430899959146274e-02 0 1 -3
1983 661 2 4.0999999999999998e-01 -1.0510370667677236e+01 -1.1982487399177504e+01 -7.2429335158488097e+00 0 1 -3
2432 811 2 4.0999999999999998e-01 -5.1376194798057213e+00 -1.1790222597364069e+01 -4.5780822266924623e+00 1 3 0
1164 388 2 4.0999999999999998e-01 -6.9585748545676829e-01 -1.3346307547230396e+01 -5.8785217024762861e+00 1 2 -2
777 259 2 4.0999999999999998e-01 -2.7453659711768204e+00 -6.2217892816135851e+00 -7.1377244226100975e+00 2 0 1
837 279 2 4.0999999999999998e-01 -8.1510721003979114e-01 -9.2475385879079326e+00 -3.0902776996056147e-01 0 4 1
962 321 2 4.0999999999999998e-01 -5.2732279387097059e-01 -1.1747414015679116e+01 -4.7114053592810361e+00 1 -2 -3
1218 406 2 4.0999999999999998e-01 -5.1103960001883664e-02 -5.2564862079732002e+00 -1.4205663873583170e+00 1 4 -3
442 148 1 -8.1999999999999995e-01 -4.1842607560220983e+00 -9.7718458275553761e+00 -6.3723325822209329e+00 -2 -1 1
568 190 1 -8.1999999999999995e-01 -3.9772474864643659e+00 -7.8741079534093021e+00 -1.6122618895922436e-01 -3 4 -3
1334 445 2 4.0999999999999998e-01 -2.7805268484441203e+00 -1.2150834401213242e+01 -6.9288395899278470e+00 0 1 -1
756 252 2 4.0999999999999998e-01 -3.0551995094175748e+00 -1.2067290474752934e+01 -3.6477164845355698e+00 1 1 0
444 148 2 4.0999999999999998e-01 -3.6665330335708628e+00 -8.9919683402490662e+00 -6.7241124898651528e+00 -2 -1 1
1557 519 2 4.0999999999999998e-01 -4.7192784836319035e-01 -1.3217552769113059e+01 -1.8202215072746437e+00 -1 1 1
109 37 1 -8.1999999999999995e-01 -5.6405557751982016e-01 -9.2500857726448977e+00 -2.1819196337876008e+00 -1 0 -3
371 124 2 4.0999999999999998e-01 -1.2843997384745567e+00 -1.0888487670679115e+01 -1.8466535937863000e+00 1 -2 -1
775 259 1 -8.1999999999999995e-01 -3.3480726165220318e+00 -6.4648080723713637e+00 -6.3776674931189969e+00 2 0 1
110 37 2 4.0999999999999998e-01 -1.1584194526824589e+00 -8.5486531466996070e+00 -2.5752691690249936e+00 -1 0 -3
2495 832 2 4.0999999999999998e-01 -5.8162858551624730e+00 -1.2879568725337950e+01 -6.3367949025572088e+00 -1 1 -3
372 124 2 4.0999999999999998e-01 -2.4741164291676423e+00 -1.1670441897858140e+01 -1.0468110274961955e+00 1 -2 -1
443 148 2 4.0999999999999998e-01 -4.1537586885134150e+00 -1.0518983610641342e+01 -7.0363015225833108e+00 -2 -1 1
755 252 2 4.0999999999999998e-01 -2.7730484778169000e+00 -1.0726083930288517e+01 -4.5355127718214501e+00 1 1 0
1149 383 2 4.0999999999999998e-01 -7.2554529987553167e+00 -6.1392225788833574e+00 -1.3152920164637880e+00 1 1 1
2508 836 2 4.0999999999999998e-01 -4.9390854348077440e+00 -1.4603076801447994e+01 -7.2217124979895457e+00 0 4 2
1892 631 2 4.0999999999999998e-01 -1.8815429448787100e+00 -6.5759136841199783e+00 -3.6232263651920462e+00 4 1 0
1147 383 1 -8.1999999999999995e-01 -6.6412983725694854e+00 -5.6862207267108928e+00 -1.9615143994204960e+00 1 1 1
2494 832 1 -8.1999999999999995e-01 -5.7066719771413084e+00 -1.3098317513060756e+01 -7.3063998472646574e+00 -1 1 -3
1891 631 1 -8.1999999999999995e-01 -1.8811699639615078e+00 -7.5664743096148603e+00 -3.7603010718218126e+00 4 1 0
35 12 2 4.0999999999999998e-01 -4.6217236963015633e+00 -5.6366292112083620e+00 -5.6521839570226255e+00 1 3 -1
754 252 1 -8.1999999999999995e-01 -3.4370999573511671e+00 -1.1195019669129172e+01 -3.9531598738647009e+00 1 1 0
1991 664 2 4.0999999999999998e-01 -6.7881432827207426e+00 -1.4316722119264670e+01 -2.3340399654145045e+00 2 3 -2
1992 664 2 4.0999999999999998e-01 -6.3527799873646682e+00 -1.3142515783354543e+01 -3.3820498560457306e+00 2 3 -2
861 287 2 4.0999999999999998e-01 -5.7314290843629134e+00 -1.2172452203787408e+01 -1.5841844291838054e+00 -1 -1 2
1990 664 1 -8.1999999999999995e-01 -6.5721963540576187e+00 -1.3344811971838967e+01 -2.4276219128223264e+00 2 3 -2
896 299 2 4.0999999999999998e-01 -4.2103746852586283e+00 -7.3506073219576091e+00 -2.0866018205956696e+00 -1 1 -2
1148 383 2 4.0999999999999998e-01 -5.9673255857518601e+00 -6.3439705436748586e+00 -2.2978561869585317e+00 1 1 1
1893 631 2 4.0999999999999998e-01 -1.1847003340094862e+00 -7.8092574005686544e+00 -4.4355687248116489e+00 4 1 0
895 299 1 -8.1999999999999995e-01 -4.8057819993802902e+00 -7.4508026347463536e+00 -2.8837536331198024e+00 -1 1 -2
1299 433 2 4.0999999999999998e-01 -6.0965546447476164e+00 -8.8613447227277078e+00 -3.9208690918889104e+00 2 3 -5
897 299 2 4.0999999999999998e-01 -4.2487192305459871e+00 -7.4867535174483733e+00 -3.7134454912841264e+00 -1 1 -2
370 124 1 -8.1999999999999995e-01 -1.5634372401849301e+00 -1.1762779429240432e+01 -1.4494735816496735e+00 1 -2 -1
34 12 1 -8.1999999999999995e-01 -5.2593730191950545e+00 -5.0698805529854152e+00 -5.1304568042591878e+00 1 3 -1
1162 388 1 -8.1999999999999995e-01 -1.4999073552447637e+00 -1.3006013520070345e+01 -5.3909729620946454e+00 1 2 -2
859 287 1 -8.1999999999999995e-01 -5.2012583987137067e+00 -1.1339515285252647e+01 -1.4256436929961183e+00 -1 -1 2
1163 388 2 4.0999999999999998e-01 -2.1470703850019088e+00 -1.3755495769632233e+01 -5.2514869842797829e+00 1 2 -2
860 287 2 4.0999999999999998e-01 -5.2599578213987215e+00 -1.0748810774788126e+01 -2.2303936875450336e+00 -1 -1 2
776 259 2 4.0999999999999998e-01 -2.7980319830388218e+00 -6.7733337717604609e+00 -5.6016087641062846e+00 2 0 1
2431 811 1 -8.1999999999999995e-01 -6.0178171036447239e+00 -1.2180446717794105e+01 -4.8482253249524732e+00 1 3 0
2433 811 2 4.0999999999999998e-01 -6.7360289397638553e+00 -1.1494187162894391e+01 -4.7332488772077514e+00 1 3 0
1297 433 1 -8.1999999999999995e-01 -6.3969641484189594e+00 -9.3776213461613942e+00 -4.7228744037604979e+00 2 3 -5
1298 433 2 4.0999999999999998e-01 -5.6353156992008415e+00 -9.4701075788616880e+00 -5.3642307146680466e+00 2 3 -5
2201 734 2 4.0999999999999998e-01 -6.8606118346421656e+00 -9.1935354301436938e+00 -3.4293923123349579e-01 0 2 2
24 8 2 4.0999999999999998e-01 -7.8658344225012495e+00 -1.2940340631321661e+01 5.3337517276057760e+00 -1 1 0
256 86 1 -8.1999999999999995e-01 -1.4191464990151387e+01 -1.4836728212104987e+01 2.2520960981298543e-01 -2 2 4
16 6 1 -8.1999999999999995e-01 -1.3450420672893255e+01 -1.0341282268737494e+01 4.2697630465644671e+00 -4 2 -1
17 6 2 4.0999999999999998e-01 -1.2807738177513368e+01 -1.0486382148109943e+01 3.5174963402104069e+00 -4 2 -1
2186 729 2 4.0999999999999998e-01 -1.0553146202782058e+01 -1.0481888688012956e+01 2.2323820949326105e+00 -2 1 0
2185 729 1 -8.1999999999999995e-01 -1.0976317588316768e+01 -1.1186107125100810e+01 2.8024718816099394e+00 -2 1 0
2187 729 2 4.0999999999999998e-01 -1.0430049182031713e+01 -1.1318066930925939e+01 3.6296220654454672e+00 -2 1 0
774 258 2 4.0999999999999998e-01 -1.2451457476083061e+01 -1.0129705280539667e+01 5.7742623257264150e+00 1 1 0
18 6 2 4.0999999999999998e-01 -1.4288641205333073e+01 -1.0858343196135134e+01 4.0964588976465102e+00 -4 2 -1
1635 545 2 4.0999999999999998e-01 -1.0597129158820515e+01 -8.6278590301615914e+00 1.3519104801554107e+00 -4 5 3
1633 545 1 -8.1999999999999995e-01 -9.6752994562526915e+00 -8.9499994903306241e+00 1.5674459484548251e+00 -4 5 3
1634 545 2 4.0999999999999998e-01 -9.0876229137131155e+00 -8.8392496088224952e+00 7.6596560915162293e-01 -4 5 3
623 208 2 4.0999999999999998e-01 -9.0413794332401967e+00 -1.1510588715311663e+01 1.0890075436997648e+00 0 2 -3
22 8 1 -8.1999999999999995e-01 -8.7220657879219221e+00 -1.2424531511334028e+01 5.3053128034154469e+00 -1 1 0
772 258 1 -8.1999999999999995e-01 -1.1740766156312255e+01 -9.9223990801922071e+00 6.4465286453703214e+00 1 1 0
773 258 2 4.0999999999999998e-01 -1.2130981600400940e+01 -9.3731409783804054e+00 7.1854788654593733e+00 1 1 0
1041 347 2 4.0999999999999998e-01 -1.3480890685014128e+01 -6.9410268393126202e+00 5.1835321382893191e+00 0 0 -2
1040 347 2 4.0999999999999998e-01 -1.1886414496635849e+01 -6.8984750146765670e+00 5.5334771489860763e+00 0 0 -2
2517 839 2 4.0999999999999998e-01 -9.6762863018396068e+00 -5.4754366131828398e+00 5.6652842250468680e+00 1 0 3
138 46 2 4.0999999999999998e-01 -1.2817956233770147e+01 -9.0995427203460455e+00 1.0380446561639864e+00 1 1 -3
1039 347 1 -8.1999999999999995e-01 -1.2647483389686775e+01 -6.3910236893555528e+00 5.1294136795247809e+00 0 0 -2
1137 379 2 4.0999999999999998e-01 -1.0077881048232605e+01 -8.8594956169103529e+00 3.4562115565146954e+00 5 1 -3
1135 379 1 -8.1999999999999995e-01 -1.0006226733456380e+01 -8.3133312518041542e+00 4.2908193307083948e+00 5 1 -3
421 141 1 -8.1999999999999995e-01 -1.2399783302876509e+01 -1.3699428585577124e+01 2.1818144122975554e+00 3 -1 -3
302 101 2 4.0999999999999998e-01 -1.0455555594714777e+01 -6.0017515860885595e+00 1.8864758149514351e+00 -1 4 -4
1226 409 2 4.0999999999999998e-01 -1.3427679135335437e+01 -1.1206399037071147e+01 9.9399601050219388e-01 -1 -2 -3
2247 749 2 4.0999999999999998e-01 -1.0354831953526306e+01 -1.2545823218847730e+01 6.9702641111369346e+00 0 3 1
422 141 2 4.0999999999999998e-01 -1.2315166722382179e+01 -1.2766968379530288e+01 2.5330379842644710e+00 3 -1 -3
136 46 1 -8.1999999999999995e-01 -1.2192420180079612e+01 -8.3193569557009024e+00 1.0341978521851676e+00 1 1 -3
1136 379 2 4.0999999999999998e-01 -1.0304079846714174e+01 -8.8599322450548836e+00 5.0734500611833795e+00 5 1 -3
423 141 2 4.0999999999999998e-01 -1.1506336719654572e+01 -1.4147832697315005e+01 2.2080238083755539e+00 3 -1 -3
1225 409 1 -8.1999999999999995e-01 -1.4186612663731893e+01 -1.0587498417775269e+01 1.1964358687641088e+00 -1 -2 -3
257 86 2 4.0999999999999998e-01 -1.3505440266401529e+01 -1.4386342308048382e+01 7.9663117434100350e-01 -2 2 4
303 101 2 4.0999999999999998e-01 -1.1316750236492211e+01 -5.3006706721664703e+00 6.8920566354600155e-01 -1 4 -4
622 208 1 -8.1999999999999995e-01 -9.4578538596840396e+00 -1.2108083553689344e+01 4.0377112256426173e-01 0 2 -3
2516 839 2 4.0999999999999998e-01 -9.4071566867827414e+00 -6.7844602067017519e+00 4.7268530877441322e+00 1 0 3
301 101 1 -8.1999999999999995e-01 -1.0402705652790573e+01 -5.5840117649576477e+00 9.7944751988793755e-01 -1 4 -4
244 82 1 -8.1999999999999995e-01 -7.9863597579876533e+00 -1.0242152143147747e+01 6.7276745504634903e+00 0 -1 -3
2515 839 1 -8.1999999999999995e-01 -9.0346363734779267e+00 -5.9080060465990663e+00 5.0319051334824820e+00 1 0 3
693 231 2 4.0999999999999998e-01 -8.8107262969472977e+00 -5.9568603258514727e+00 3.3560345658300506e-01 0 1 -3
23 8 2 4.0999999999999998e-01 -8.6417563303809803e+00 -1.1613106642500014e+01 5.8842256151332819e+00 -1 1 0
1396 466 1 -8.1999999999999995e-01 -1.4867085435456541e+01 -1.4564892847195731e+01 3.0378484866823285e+00 -1 3 -2
1170 390 2 4.0999999999999998e-01 -1.4260015708864060e+01 -8.6383966831156549e+00 4.1857134108974563e+00 -5 2 -2
1398 466 2 4.0999999999999998e-01 -1.3878918623785754e+01 -1.4449083768017111e+01 2.9372771224672967e+00 -1 3 -2
2246 749 2 4.0999999999999998e-01 -1.1186134251016931e+01 -1.1164820772857798e+01 7.2317888810539586e+00 0 3 1
624 208 2 4.0999999999999998e-01 -1.0441201707626075e+01 -1.1931455212822609e+01 3.6099967564329205e-01 0 2 -3
691 231 1 -8.1999999999999995e-01 -7.9017501612520356e+00 -6.3676104330548569e+00 2.6456299760022439e-01 0 1 -3
1166 389 2 4.0999999999999998e-01 -9.1341851602331339e+00 -1.3878037455113313e+01 4.4925703372373427e-01 -2 0 -2
1165 389 1 -8.1999999999999995e-01 -9.4817144206325352e+00 -1.4814660000341053e+01 4.9354720818216791e-01 -2 0 -2
137 46 2 4.0999999999999998e-01 -1.2054314436653568e+01 -8.0074992161413618e+00 9.4159810420144652e-02 1 1 -3
246 82 2 4.0999999999999998e-01 -8.3013991161854719e+00 -9.4213742199782349e+00 7.2041970864360749e+00 0 -1 -3
1742 581 2 4.0999999999999998e-01 -1.4674175890498582e+01 -8.0952522787960781e+00 7.4631821752015917e+00 -1 0 -5
2586 862 2 4.0999999999999998e-01 -1.9829831233681006e+00 -6.2860983991271890e+00 4.3772442179131872e+00 3 1 -1
632 211 2 4.0999999999999998e-01 -1.0694812656727493e-01 -8.0585980967725028e+00 1.4624657437454580e+00 0 1 -4
592 198 1 -8.1999999999999995e-01 -3.5389413784222139e+00 -5.1342878863992407e+00 4.4166156831859098e+00 -1 -1 -5
637 213 1 -8.1999999999999995e-01 -2.5035967906984418e+00 -6.5815723413163294e+00 7.2443474831675125e+00 -3 1 -5
1379 460 2 4.0999999999999998e-01 -3.5922494588645826e-01 -5.9595813540529790e+00 9.1054459727896209e-01 -3 -2 -4
1479 493 2 4.0999999999999998e-01 -4.8902974882093417e+00 -1.4857102805833254e+01 5.8013454791329089e-01 3 2 1
2533 845 1 -8.1999999999999995e-01 -6.6929499575788345e+00 -9.9278902483605158e+00 4.4002319462159072e+00 -1 -1 -2
1378 460 1 -8.1999999999999995e-01 -6.5535596032739463e-01 -5.0047548827142450e+00 8.8578923230654638e-01 -3 -2 -4