LAMMPS data file via write_data, version 15 May 2015, timestep = 23005000

2611 atoms
6 atom types
1749 bonds
4 bond types
894 angles
3 angle types
44 dihedrals
3 dihedral types
10 impropers
1 improper types

-1.4903966694560342e+01 1.4903966694560342e+01 xlo xhi
-1.4903966694560342e+01 1.4903966694560342e+01 ylo yhi
-1.4903966694560342e+01 1.4903966694560342e+01 zlo zhi

Masses

1 15.9994
2 1.00794
3 12.0107
4 1.00794
5 12.0107
6 12.0107

Bond Coeffs # harmonic

1 1000 1
2 469 1.4
3 367 1.08
4 469 0.7

Angle Coeffs # harmonic

1 100 109.47
2 35 120
3 63 120

Dihedral Coeffs # opls

1 0 7.25 0 0
2 0 7.25 0 0
3 0 7.25 0 0

Improper Coeffs # cvff

1 2.5 -1 2

Atoms # full

1324 442 1 -8.1999999999999995e-01 -1.4295879952639572e+01 -1.0535155418571645e+01 -1.4344608127145248e+01 -1 -1 -11
2043 681 2 4.0999999999999998e-01 -1.1501297988152917e+01 -1.3757637275502635e+01 -1.2758067172595869e+01 -2 -4 -7
1921 641 1 -8.1999999999999995e-01 -1.0924616046275990e+01 -1.0040798770721914e+01 -1.0684750760172523e+01 -1 5 1
1923 641 2 4.0999999999999998e-01 -1.0174698747736620e+01 -9.6191026598905243e+00 -1.0174973983518253e+01 -1 5 1
516 172 2 4.0999999999999998e-01 -1.3718655330490721e+01 -1.4638013085962628e+01 -1.0959097895017635e+01 1 -1 -6
1048 350 1 -8.1999999999999995e-01 -1.3711440163765218e+01 -9.6997829402329163e+00 -9.3678314531498206e+00 3 -2 -5
1922 641 2 4.0999999999999998e-01 -1.1773996440774171e+01 -9.9492154585506576e+00 -1.0164903337910875e+01 -1 5 1
1050 350 2 4.0999999999999998e-01 -1.3632690305978954e+01 -9.2708017383693555e+00 -1.0267747870818752e+01 3 -2 -5
2215 739 1 -8.1999999999999995e-01 -1.3313254847089269e+01 -8.2296434211006044e+00 -1.1630560094139252e+01 1 -1 -9
1469 490 2 4.0999999999999998e-01 -1.1347093023350244e+01 -1.1112778019470044e+01 -1.3518024095797065e+01 8 1 -9
1468 490 1 -8.1999999999999995e-01 -1.1415937607154868e+01 -1.0117669852982690e+01 -1.3446637062563457e+01 8 1 -9
1999 667 1 -8.1999999999999995e-01 -9.0338350770304192e+00 -8.9710513002925758e+00 -9.1960314180703904e+00 -3 -1 0
2052 684 2 4.0999999999999998e-01 -1.2443978455623695e+01 -1.2544836955331274e+01 -7.8929074837881901e+00 6 -4 -4
1049 350 2 4.0999999999999998e-01 -1.4321130963045741e+01 -1.0490216318124052e+01 -9.4275654077218825e+00 3 -2 -5
2050 684 1 -8.1999999999999995e-01 -1.2848658181388499e+01 -1.3444980228151316e+01 -7.7315001378528816e+00 6 -4 -4
2041 681 1 -8.1999999999999995e-01 -1.1374709109649062e+01 -1.2951022130086224e+01 -1.3335495271336189e+01 -2 -4 -7
1642 548 1 -8.1999999999999995e-01 -8.5359847250721810e+00 -1.2317825629008659e+01 -7.9507344936464293e+00 1 -9 -1
1643 548 2 4.0999999999999998e-01 -8.7739095824965929e+00 -1.2408641715631024e+01 -8.9178023229177263e+00 1 -9 -1
2051 684 2 4.0999999999999998e-01 -1.2292185010366930e+01 -1.4145578608797734e+01 -8.1782387596608466e+00 6 -4 -4
1542 514 2 4.0999999999999998e-01 -7.1099744635834217e+00 -1.1600319776666181e+01 -9.0339907393925323e+00 5 -2 -7
2261 754 2 4.0999999999999998e-01 -7.5343315127567845e+00 -1.0133464402999785e+01 -1.2915779091033583e+01 -1 -3 3
1849 617 1 -8.1999999999999995e-01 -7.8785136786660122e+00 -8.6768630922058563e+00 -1.1964192992315727e+01 -2 -4 -2
2385 795 2 4.0999999999999998e-01 -9.8147885355851088e+00 -1.1433050249000999e+01 -1.0728278172367714e+01 4 -4 -1
2042 681 2 4.0999999999999998e-01 -1.2122074454826032e+01 -1.2894418387808974e+01 -1.3997550437461689e+01 -2 -4 -7
1851 617 2 4.0999999999999998e-01 -8.0023845979260919e+00 -9.0969424224351201e+00 -1.1065157222927244e+01 -2 -4 -2
2383 795 1 -8.1999999999999995e-01 -9.2201341585327476e+00 -1.2195232068352309e+01 -1.0472268469750047e+01 4 -4 -1
1540 514 1 -8.1999999999999995e-01 -6.6376080345078137e+00 -1.0735051161456006e+01 -9.2020862303719611e+00 5 -2 -7
1470 490 2 4.0999999999999998e-01 -1.1142124614543608e+01 -9.8295808000044858e+00 -1.2528973119857049e+01 8 1 -9
1850 617 2 4.0999999999999998e-01 -8.4580033390060976e+00 -7.8649571524778388e+00 -1.2035442179927410e+01 -2 -4 -2
1325 442 2 4.0999999999999998e-01 -1.3459829757810843e+01 -9.9900790506842814e+00 -1.4407757014085124e+01 -1 -1 -11
2384 795 2 4.0999999999999998e-01 -9.4370707510741827e+00 -1.2991524987219783e+01 -1.1037009122246323e+01 4 -4 -1
836 279 2 4.0999999999999998e-01 -1.0844513947095464e+01 -8.8824376713736939e+00 -1.4878690141111854e+01 1 3 1
2000 667 2 4.0999999999999998e-01 -9.8231943925213692e+00 -8.9969251962964556e+00 -8.5825834882333893e+00 -3 -1 0
2217 739 2 4.0999999999999998e-01 -1.3071756687057301e+01 -7.9596511061296864e+00 -1.2562686023615402e+01 1 -1 -9
1541 514 2 4.0999999999999998e-01 -7.1362272092995651e+00 -9.9911452678951314e+00 -8.7570481409153906e+00 5 -2 -7
834 278 2 4.0999999999999998e-01 -7.0439904947768444e+00 -8.2712096296871565e+00 -1.3561917108503538e+01 3 0 -3
2260 754 1 -8.1999999999999995e-01 -6.9898382143725843e+00 -1.0874839716530015e+01 -1.3308163645010056e+01 -1 -3 3
2262 754 2 4.0999999999999998e-01 -7.5991412670584335e+00 -1.1570483623247991e+01 -1.3688827894332022e+01 -1 -3 3
715 239 1 -8.1999999999999995e-01 -1.1660402730420603e+01 -8.1121299929005044e+00 -8.4751905579091211e+00 3 0 -7
716 239 2 4.0999999999999998e-01 -1.2271188538310156e+01 -8.7726635342528603e+00 -8.9118965060205824e+00 3 0 -7
792 264 2 4.0999999999999998e-01 -7.5473776702254529e+00 -1.4300685159362338e+01 -1.3154987670129126e+01 6 0 -5
1194 398 2 4.0999999999999998e-01 -5.6164428020014316e+00 -1.0981604725317442e+01 -1.0511247406366230e+01 4 1 0
1192 398 1 -8.1999999999999995e-01 -5.0538260543760565e+00 -1.1001391355129460e+01 -1.1337774367062421e+01 4 1 0
1193 398 2 4.0999999999999998e-01 -5.6370274945762642e+00 -1.0879645908399169e+01 -1.2140974240388617e+01 4 1 0
1498 500 1 -8.1999999999999995e-01 -8.2709502858276078e+00 -1.3198175265249546e+01 -1.4563734244841708e+01 3 -3 -4
1082 361 2 4.0999999999999998e-01 -5.2621656415779636e+00 -1.0214343833405330e+01 -1.4428308424933824e+01 -4 -8 2
2001 667 2 4.0999999999999998e-01 -8.3110700527358592e+00 -8.4147224684527266e+00 -8.7859278832289665e+00 -3 -1 0
832 278 1 -8.1999999999999995e-01 -6.5004751066605539e+00 -7.6520821847770648e+00 -1.4128792889619405e+01 3 0 -3
514 172 1 -8.1999999999999995e-01 -1.4642295971136196e+01 -1.4469668320382929e+01 -1.0614679596309024e+01 1 -1 -6
1326 442 2 4.0999999999999998e-01 -1.4451694333242758e+01 -1.0797371429405821e+01 -1.3392221337410179e+01 -1 -1 -11
717 239 2 4.0999999999999998e-01 -1.2182271865445518e+01 -7.5479668307061729e+00 -7.8353089554169824e+00 3 0 -7
1500 500 2 4.0999999999999998e-01 -9.1772184064396622e+00 -1.3611379261071855e+01 -1.4474199263267936e+01 3 -3 -4
817 273 1 -8.1999999999999995e-01 -1.1438061720664990e+01 -7.1451613978040918e-01 -1.3050672713166175e+01 3 -4 -1
2216 739 2 4.0999999999999998e-01 -1.3654151936841330e+01 -7.4334331929443476e+00 -1.1130645690870574e+01 1 -1 -9
1949 650 2 4.0999999999999998e-01 -1.4375968185317744e+01 -3.8410740018151444e+00 -8.8594225898809000e+00 -2 4 -7
622 208 1 -8.1999999999999995e-01 -1.4861229101681975e+01 -5.7815550428295701e+00 -1.0670312896413549e+01 -3 -4 -10
1460 487 2 4.0999999999999998e-01 -6.4450749858918588e+00 -2.5867736284117271e-01 -1.4564578273466106e+01 -3 -9 -5
1374 458 2 4.0999999999999998e-01 -1.3792658383693613e+01 -5.6841788515266156e+00 -9.1175329089893360e+00 2 0 -3
2155 719 1 -8.1999999999999995e-01 -1.1547305963516823e+01 -6.1044308025887162e-01 -7.7889271917469234e+00 2 -6 -5
1275 425 2 4.0999999999999998e-01 -8.3445146741697425e+00 -1.4800924295240492e-01 -1.2079038766829459e+01 2 3 0
614 205 2 4.0999999999999998e-01 -8.3844880711332728e+00 -6.0100104746728960e+00 -1.1551194209921285e+01 1 -2 2
1987 663 1 -8.1999999999999995e-01 -9.2630290141594642e+00 -3.1192839936612344e+00 -1.1204497661567393e+01 -2 0 -7
2157 719 2 4.0999999999999998e-01 -1.1009616869958414e+01 -6.0798991104476841e-02 -8.4283470552067126e+00 2 -6 -5
497 166 2 4.0999999999999998e-01 -1.4495415327645366e+01 -1.8272509852744001e-01 -1.0011616799291149e+01 1 -5 -1
1988 663 2 4.0999999999999998e-01 -8.7000949571834525e+00 -3.9350674767322502e+00 -1.1337458065215131e+01 -2 0 -7
634 212 1 -8.1999999999999995e-01 -5.0779872759987974e+00 -3.5841375112383727e+00 -1.4522758352318741e+01 4 -2 -7
2154 718 2 4.0999999999999998e-01 -4.9720551141271034e+00 -1.2463449888028784e+00 -9.8750224986808544e+00 1 -6 -5
1897 633 1 -8.1999999999999995e-01 -5.3570820330920075e+00 -5.6184648415218774e+00 -1.2526521857226301e+01 0 0 -4
47 16 2 4.0999999999999998e-01 -1.0723004115510035e+01 -7.1564612608249956e+00 -1.1784785526647140e+01 0 -2 -2
46 16 1 -8.1999999999999995e-01 -9.9102884253345120e+00 -6.8021404550337969e+00 -1.2247414810232257e+01 0 -2 -2
1461 487 2 4.0999999999999998e-01 -6.0226214803172251e+00 -1.8356608581560572e+00 -1.4526041234568291e+01 -3 -9 -5
1459 487 1 -8.1999999999999995e-01 -6.7861822731501356e+00 -1.1930871622113148e+00 -1.4461621506153818e+01 -3 -9 -5
1434 478 2 4.0999999999999998e-01 -9.6937306284741833e+00 -3.4552838956392176e+00 -8.1719029369862639e+00 -2 -3 -2
48 16 2 4.0999999999999998e-01 -1.0174499507540819e+01 -6.0605759418430463e+00 -1.2864140461890365e+01 0 -2 -2
970 324 1 -8.1999999999999995e-01 -1.0642351098713824e+01 -5.1714680714864674e+00 -8.1108769788141970e+00 1 -7 -7
818 273 2 4.0999999999999998e-01 -1.0510820219673317e+01 -9.6199453881522956e-01 -1.2769507965308033e+01 3 -4 -1
1767 589 2 4.0999999999999998e-01 -7.8018767418300605e+00 -1.6584139451444813e+00 -8.8322143636366235e+00 4 -8 -4
1766 589 2 4.0999999999999998e-01 -6.7775369749131009e+00 -9.3594865744189271e-01 -7.7855047652058378e+00 4 -8 -4
719 240 2 4.0999999999999998e-01 -6.6247099236032181e+00 -6.5986245767187235e+00 -8.4442263803975752e+00 -2 -6 -2
1432 478 1 -8.1999999999999995e-01 -8.8757723359077740e+00 -3.0386194845312993e+00 -8.5686533989084559e+00 -2 -3 -2
971 324 2 4.0999999999999998e-01 -1.1396875945631759e+01 -4.5287795346402877e+00 -8.2439921755185566e+00 1 -7 -7
1273 425 1 -8.1999999999999995e-01 -8.6823940554629804e+00 -8.5735534793074564e-01 -1.2697699881477384e+01 2 3 0
950 317 2 4.0999999999999998e-01 -1.1212921804911030e+01 -3.3482868870187019e+00 -1.1687820264738118e+01 6 -2 1
1433 478 2 4.0999999999999998e-01 -9.0033577643680633e+00 -2.9265513388184790e+00 -9.5541678047897349e+00 -2 -3 -2
1989 663 2 4.0999999999999998e-01 -9.0544555647184168e+00 -2.4504400437143765e+00 -1.1918094771243670e+01 -2 0 -7
488 163 2 4.0999999999999998e-01 -1.4750980339249628e+01 -3.2864286606740087e+00 -1.2326680354036700e+01 6 -6 -12
1899 633 2 4.0999999999999998e-01 -6.1491446485957013e+00 -5.5331542504068612e+00 -1.1922009760768029e+01 0 0 -4
1765 589 1 -8.1999999999999995e-01 -7.2143724747936746e+00 -8.6318280982205131e-01 -8.6821406104125529e+00 4 -8 -4
2156 719 2 4.0999999999999998e-01 -1.2458852917800819e+01 -7.6742697754986189e-01 -8.1690773752971886e+00 2 -6 -5
1274 425 2 4.0999999999999998e-01 -7.9864318928808533e+00 -1.0572008939122277e+00 -1.3387463874203398e+01 2 3 0
833 278 2 4.0999999999999998e-01 -5.9286834975046112e+00 -7.0785115824368141e+00 -1.3542152425848920e+01 3 0 -3
2028 676 2 4.0999999999999998e-01 -1.2676921609344761e+01 -4.7396889214257776e+00 -1.2722502133585756e+01 4 0 -3
949 317 1 -8.1999999999999995e-01 -1.1969294327163359e+01 -3.1759321031439889e+00 -1.2318906861305571e+01 6 -2 1
2027 676 2 4.0999999999999998e-01 -1.3695081852141758e+01 -5.2765521024995863e+00 -1.3880930618882184e+01 4 0 -3
718 240 1 -8.1999999999999995e-01 -7.6020453702931698e+00 -6.7939170265774695e+00 -8.5263982852365849e+00 -2 -6 -2
613 205 1 -8.1999999999999995e-01 -7.6789723200784321e+00 -5.5294630358657937e+00 -1.1030235928494921e+01 1 -2 2
951 317 2 4.0999999999999998e-01 -1.1943210496496194e+01 -2.2219725035504876e+00 -1.2617832680356432e+01 6 -2 1
1372 458 1 -8.1999999999999995e-01 -1.3524725403574195e+01 -5.3744328835083799e+00 -8.2052033076751645e+00 2 0 -3
2026 676 1 -8.1999999999999995e-01 -1.3230214977522053e+01 -5.5146353276447080e+00 -1.3028116964648492e+01 4 0 -3
491 164 2 4.0999999999999998e-01 -1.2099096377463530e+01 -7.9139383896880311e-01 -1.4669162144785387e+01 6 -4 -12
615 205 2 4.0999999999999998e-01 -7.6043641871027603e+00 -5.9336637637455159e+00 -1.0118571872644623e+01 1 -2 2
1594 532 1 -8.1999999999999995e-01 -1.0045180699814548e+01 -4.6904888804238158e+00 -1.4489326936053152e+01 0 7 -1
972 324 2 4.0999999999999998e-01 -1.0895625142076664e+01 -6.0645253810049660e+00 -8.4828673739965517e+00 1 -7 -7
636 212 2 4.0999999999999998e-01 -5.1059480596026994e+00 -4.2915343278433866e+00 -1.3816441216587526e+01 4 -2 -7
623 208 2 4.0999999999999998e-01 -1.4842603836784232e+01 -5.4422026992608252e+00 -1.1610828200893515e+01 -3 -4 -10
1595 532 2 4.0999999999999998e-01 -1.0966700458597467e+01 -4.9111901774742144e+00 -1.4808964581120055e+01 0 7 -1
720 240 2 4.0999999999999998e-01 -8.1045930277766089e+00 -6.2775979484439901e+00 -7.8329025116846838e+00 -2 -6 -2
1373 458 2 4.0999999999999998e-01 -1.3818296270353361e+01 -6.0465792234020519e+00 -7.5254155564860064e+00 2 0 -3
651 217 2 4.0999999999999998e-01 -1.3164984285246586e+01 -9.9688464319360310e+00 -2.1781354814764153e+00 5 -1 -1
793 265 1 -8.1999999999999995e-01 -1.3662291798123517e+01 -1.3003110696658196e+01 -5.0900703250755992e+00 -1 -7 -12
388 130 1 -8.1999999999999995e-01 -1.4212781951649776e+01 -1.4134244882454794e+01 -2.7327636421956374e+00 -2 2 -6
795 265 2 4.0999999999999998e-01 -1.4151425368333580e+01 -1.3401828451257598e+01 -5.8658592492630177e+00 -1 -7 -12
1246 416 1 -8.1999999999999995e-01 -1.1848778223787113e+01 -1.3017588508513652e+01 -1.5644075520102980e+00 6 -2 -7
649 217 1 -8.1999999999999995e-01 -1.2370279079902762e+01 -1.0368125768976904e+01 -1.7208657494549033e+00 5 -1 -1
1687 563 1 -8.1999999999999995e-01 -1.0626239219748221e+01 -9.7307203648583602e+00 -4.9597641016424969e+00 7 -2 2
1198 400 1 -8.1999999999999995e-01 -1.4000643913018173e+01 -7.4974048620933713e+00 -6.4694422021723081e+00 0 -6 -3
1991 664 2 4.0999999999999998e-01 -9.8559502501637741e+00 -1.2891779167876500e+01 -1.0732331419292525e+00 -1 3 -6
1199 400 2 4.0999999999999998e-01 -1.4008134390992092e+01 -8.4970259312751573e+00 -6.4415573478637640e+00 0 -6 -3
1688 563 2 4.0999999999999998e-01 -1.1045294156321759e+01 -1.0049619600317850e+01 -5.8099241994631878e+00 7 -2 2
1990 664 1 -8.1999999999999995e-01 -8.9487655606312408e+00 -1.3118800077151981e+01 -1.4275682386908244e+00 -1 3 -6
1992 664 2 4.0999999999999998e-01 -8.7921688982443218e+00 -1.4102360577796839e+01 -1.3372234079856238e+00 -1 3 -6
1689 563 2 4.0999999999999998e-01 -1.0985212998286736e+01 -1.0261172043325672e+01 -4.1917570713528267e+00 7 -2 2
585 195 2 4.0999999999999998e-01 -7.3710545574401269e+00 -1.3306644658283561e+01 -5.2314541114409021e+00 -7 -2 -1
1382 461 2 4.0999999999999998e-01 -6.2452991476350466e+00 -1.2123419608362585e+01 -2.5436899345704163e+00 4 -3 -3
1248 416 2 4.0999999999999998e-01 -1.2011063219087934e+01 -1.2130966227858098e+01 -1.9975824393778403e+00 6 -2 -7
1247 416 2 4.0999999999999998e-01 -1.2530950582078617e+01 -1.3674927399277188e+01 -1.8847548711054003e+00 6 -2 -7
1302 434 2 4.0999999999999998e-01 -1.1651394704088229e+01 -1.3365653430830868e+01 -6.0091375614123717e+00 0 -6 -3
902 301 2 4.0999999999999998e-01 -8.7232788452073358e+00 -1.0031899823663261e+01 -5.3275641502777304e+00 -1 -7 -4
2400 800 2 4.0999999999999998e-01 -8.2433501560684981e+00 -8.1486908597831693e+00 -2.3525622806203152e+00 5 -2 -6
583 195 1 -8.1999999999999995e-01 -6.8829744599607068e+00 -1.2975260272874676e+01 -6.0389429154652685e+00 -7 -2 -1
901 301 1 -8.1999999999999995e-01 -7.7236501664938313e+00 -1.0041759103359460e+01 -5.3007098557000276e+00 -1 -7 -4
903 301 2 4.0999999999999998e-01 -7.4106369767474618e+00 -1.0875391878093613e+01 -4.8455669484963710e+00 -1 -7 -4
2399 800 2 4.0999999999999998e-01 -7.9098022145127826e+00 -8.8064573609578876e+00 -3.8095859601447160e+00 5 -2 -6
1383 461 2 4.0999999999999998e-01 -7.8663572700954134e+00 -1.2219324200217226e+01 -2.7163220393799232e+00 4 -3 -3
1381 461 1 -8.1999999999999995e-01 -7.0394848230377427e+00 -1.1745819968345099e+01 -3.0198869280151595e+00 4 -3 -3
2398 800 1 -8.1999999999999995e-01 -8.0029112018561754e+00 -7.9494975482664803e+00 -3.3026080950320225e+00 5 -2 -6
1300 434 1 -8.1999999999999995e-01 -1.0715598149222799e+01 -1.3014981220345222e+01 -6.0464170978922187e+00 0 -6 -3
329 110 2 4.0999999999999998e-01 -6.1471828553100067e+00 -7.4925378959729061e+00 -6.1363940399700851e+00 1 -4 -4
929 310 2 4.0999999999999998e-01 -9.4180841005189979e+00 -1.3756326904903116e+01 -3.3005892030269042e+00 5 -6 -8
1693 565 1 -8.1999999999999995e-01 -1.3923778609374192e+01 -1.0347248729113389e+01 -5.3926327140610972e+00 4 0 -6
584 195 2 4.0999999999999998e-01 -7.5360378495891531e+00 -1.2576626791187131e+01 -6.6828959563024490e+00 -7 -2 -1
2065 689 1 -8.1999999999999995e-01 -1.4750964231289309e+01 -1.2282129984673434e+01 -8.2097590149842326e-01 -3 -1 -2
794 265 2 4.0999999999999998e-01 -1.3317296137996657e+01 -1.2099060060482335e+01 -5.3425506790087862e+00 -1 -7 -12
1966 656 1 -8.1999999999999995e-01 -5.3724291242276081e+00 -9.1424929155724435e+00 -6.6113737688762058e+00 3 1 3
389 130 2 4.0999999999999998e-01 -1.4481402178314278e+01 -1.3354108174879325e+01 -2.1676920866697778e+00 -2 2 -6
2035 679 1 -8.1999999999999995e-01 -9.2132516093910493e+00 -7.7031197255828951e+00 -6.1198455004601193e-01 2 -2 -12
1301 434 2 4.0999999999999998e-01 -1.0156922322514761e+01 -1.3482443775033174e+01 -5.3612630735978399e+00 0 -6 -3
650 217 2 4.0999999999999998e-01 -1.2257914104949265e+01 -9.9480105513106380e+00 -8.2033630761605458e-01 5 -1 -1
2067 689 2 4.0999999999999998e-01 -1.3986505323562826e+01 -1.2472110010180749e+01 -2.0487029058767625e-01 -3 -1 -2
928 310 1 -8.1999999999999995e-01 -9.0054950949826100e+00 -1.3967456516462526e+01 -4.1867441279225890e+00 5 -6 -8
390 130 2 4.0999999999999998e-01 -1.4219753685087765e+01 -1.3866116094107531e+01 -3.6961609275891831e+00 -2 2 -6
1606 536 1 -8.1999999999999995e-01 -1.4545632961702784e+01 -9.0493081505869082e+00 -2.7310621554695462e+00 0 -10 -2
1967 656 2 4.0999999999999998e-01 -6.1337930380011301e+00 -9.6072663856211751e+00 -6.1592824360498142e+00 3 1 3
1694 565 2 4.0999999999999998e-01 -1.4126177916427649e+01 -9.7655686880491785e+00 -4.6047502442925126e+00 4 0 -6
1695 565 2 4.0999999999999998e-01 -1.4779378319624518e+01 -1.0673022719366861e+01 -5.7949962157263109e+00 4 0 -6
189 63 2 4.0999999999999998e-01 -5.7953485527997763e+00 -1.3907731803535988e+01 -5.1707302888307680e+00 -4 -4 -3
187 63 1 -8.1999999999999995e-01 -5.4466812730884975e+00 -1.4681050483314912e+01 -4.6411216965183737e+00 -4 -4 -3
2359 787 1 -8.1999999999999995e-01 -5.1449452528967523e+00 -1.3620601010464053e+01 -1.9742687819826799e+00 4 2 -3
2361 787 2 4.0999999999999998e-01 -5.6777016399151581e+00 -1.4375331540654281e+01 -1.5913478887882277e+00 4 2 -3
2055 685 2 4.0999999999999998e-01 -5.6485787543881898e+00 -1.3611865219242425e+01 -7.0938984774858431e+00 -1 0 -1
1607 536 2 4.0999999999999998e-01 -1.4581359602892693e+01 -8.1337593490975042e+00 -3.1317739735722707e+00 0 -10 -2
930 310 2 4.0999999999999998e-01 -8.6512077737326685e+00 -1.4902561990841436e+01 -4.1751604283859702e+00 5 -6 -8
188 63 2 4.0999999999999998e-01 -5.2859014600568717e+00 -1.4393055028728257e+01 -3.6970430926558979e+00 -4 -4 -3
1644 548 2 4.0999999999999998e-01 -9.2826286963912601e+00 -1.2674101293943938e+01 -7.3888925362241924e+00 1 -9 -1
1608 536 2 4.0999999999999998e-01 -1.4729617159170704e+01 -8.9911090425251281e+00 -1.7498187454542240e+00 0 -10 -2
1148 383 2 4.0999999999999998e-01 -1.4676210710124518e+01 -1.3936399538315811e+01 -7.3630844315589306e+00 8 -5 -5
1282 428 1 -8.1999999999999995e-01 -1.1510386147263112e+01 -7.0907871385401222e+00 -1.9766702639764908e+00 -2 0 -3
1283 428 2 4.0999999999999998e-01 -1.1275375734414880e+01 -7.0282990473804903e+00 -2.9466915437372432e+00 -2 0 -3
1284 428 2 4.0999999999999998e-01 -1.0707100601271968e+01 -7.3822477501212544e+00 -1.4571907275284737e+00 -2 0 -3
1291 431 1 -8.1999999999999995e-01 -9.0548918506232887e+00 -6.3602812591728508e-02 -2.0748132715817320e+00 4 -8 -3
1936 646 1 -8.1999999999999995e-01 -9.9526783906773453e+00 -6.0056172850793548e+00 -4.1253293316799180e+00 -2 -2 -1
1937 646 2 4.0999999999999998e-01 -9.2761373513410845e+00 -6.6718489923243922e+00 -4.4391819320394337e+00 -2 -2 -1
1527 509 2 4.0999999999999998e-01 -1.4637268906232860e+01 -3.8243981901869386e+00 -3.4492268024487291e+00 3 -2 -2
787 263 1 -8.1999999999999995e-01 -1.3676428232473009e+01 -3.2088710433210856e+00 -4.9339225338027646e+00 2 -3 1
330 110 2 4.0999999999999998e-01 -6.1307681923667676e+00 -6.5780844151844153e+00 -4.7834955221484829e+00 1 -4 -4
1938 646 2 4.0999999999999998e-01 -9.7785118270270921e+00 -5.1228393066165303e+00 -4.5617294006511351e+00 -2 -2 -1
436 146 1 -8.1999999999999995e-01 -5.8941386517931829e+00 -5.7379073803280818e+00 -3.1430479424394289e+00 3 -3 -10
1818 606 2 4.0999999999999998e-01 -1.0179172040783033e+01 -3.4389876605713656e+00 -4.9106349696514862e-01 -1 -2 -6
328 110 1 -8.1999999999999995e-01 -6.2432805971821423e+00 -6.5642383559984996e+00 -5.7770875959432999e+00 1 -4 -4
1200 400 2 4.0999999999999998e-01 -1.3370402081518415e+01 -7.1493019261142230e+00 -5.7753993103320198e+00 0 -6 -3
2307 769 2 4.0999999999999998e-01 -7.4300145663132424e+00 -3.7233414709913575e+00 -7.0622299159775555e+00 5 3 -9
438 146 2 4.0999999999999998e-01 -6.4372892731273446e+00 -6.5399940105988748e+00 -2.8946120450867419e+00 3 -3 -10
2411 804 2 4.0999999999999998e-01 -7.2533289498488012e+00 -4.8246023117808630e+00 -1.2058393846820348e+00 2 -1 -1
2410 804 1 -8.1999999999999995e-01 -7.3265451939726072e+00 -5.5232716598886729e+00 -4.9409751925005807e-01 2 -1 -1
2305 769 1 -8.1999999999999995e-01 -7.1031797207881748e+00 -3.9752347231378113e+00 -6.1512937545404185e+00 5 3 -9
956 319 2 4.0999999999999998e-01 -7.1247369462830790e+00 -2.5096684276969814e+00 -2.1783665934134842e+00 0 3 -4
2070 690 2 4.0999999999999998e-01 -5.9406366835204540e+00 -2.4795817297104303e+00 -6.2874479994883288e+00 3 -1 -8
729 243 2 4.0999999999999998e-01 -1.2361439524242519e+01 -6.0103828733215003e-01 -1.7398183370855325e+00 2 -6 -2
192 64 2 4.0999999999999998e-01 -1.1111241748601019e+01 -8.9972499650470183e-01 -5.9848918171231755e+00 -1 -3 -4
851 284 2 4.0999999999999998e-01 -1.3029527375672474e+01 -6.7238896721359076e+00 -3.1260303799750204e+00 -2 3 -5
437 146 2 4.0999999999999998e-01 -6.3955354361401415e+00 -4.9074937792369351e+00 -2.8999626282959561e+00 3 -3 -10
1410 470 2 4.0999999999999998e-01 -1.4147032383030730e+01 -1.7670127269109628e+00 -2.3963724683494902e-01 -3 -6 -8
788 263 2 4.0999999999999998e-01 -1.2941878830885809e+01 -2.5302907383726545e+00 -4.9403926390632460e+00 2 -3 1
1408 470 1 -8.1999999999999995e-01 -1.4218423092671323e+01 -8.3407362401646523e-01 -5.9263010419861395e-01 -3 -6 -8
789 263 2 4.0999999999999998e-01 -1.3747563939722454e+01 -3.6317116300593515e+00 -5.8373723121718690e+00 2 -3 1
957 319 2 4.0999999999999998e-01 -8.0343647599383026e+00 -3.6712753610137927e+00 -2.8784205970450127e+00 0 3 -4
850 284 1 -8.1999999999999995e-01 -1.3805755610137961e+01 -6.5922366991331938e+00 -3.7426446114160186e+00 -2 3 -5
1547 516 2 4.0999999999999998e-01 -1.0243793784838676e+01 -3.3261788378434929e+00 -2.8243823012514788e+00 2 -5 -6
1548 516 2 4.0999999999999998e-01 -1.0200079520524110e+01 -4.9447105158364852e+00 -2.6116073894594614e+00 2 -5 -6
1546 516 1 -8.1999999999999995e-01 -1.0183500696417735e+01 -4.0593353246793136e+00 -2.1469442869654536e+00 2 -5 -6
852 284 2 4.0999999999999998e-01 -1.4329146082856864e+01 -5.7907480913596654e+00 -3.4532411678672226e+00 -2 3 -5
2306 769 2 4.0999999999999998e-01 -6.9154870511771751e+00 -4.9571280400483513e+00 -6.1242207662801782e+00 5 3 -9
955 319 1 -8.1999999999999995e-01 -7.3310700919037277e+00 -3.4881012914192144e+00 -2.1914709536644565e+00 0 3 -4
2235 745 2 4.0999999999999998e-01 -6.2155937629524445e+00 -2.0942868452006635e-01 -3.7142581642136712e+00 3 -1 -7
2233 745 1 -8.1999999999999995e-01 -6.5616187886297404e+00 -8.3452285685377703e-01 -3.0145440032377131e+00 3 -1 -7
2234 745 2 4.0999999999999998e-01 -7.5589491004683893e+00 -7.7213078725869622e-01 -2.9756164179555817e+00 3 -1 -7
151 51 1 -8.1999999999999995e-01 -9.5775306999530301e+00 -3.5602767891821401e+00 -4.9383469939975857e+00 3 1 -10
191 64 2 4.0999999999999998e-01 -1.1597206968315660e+01 -5.6101657696163798e-01 -4.4630694147285705e+00 -1 -3 -4
190 64 1 -8.1999999999999995e-01 -1.1405029775837784e+01 -1.2950027778419226e+00 -5.1145355572731042e+00 -1 -3 -4
153 51 2 4.0999999999999998e-01 -1.0242255833032971e+01 -2.9296847104699815e+00 -5.3390589243028845e+00 3 1 -10
2037 679 2 4.0999999999999998e-01 -8.5109834381809399e+00 -7.0584611093084897e+00 -3.0980803777638322e-01 2 -2 -12
152 51 2 4.0999999999999998e-01 -8.6733429000281035e+00 -3.3826673516330992e+00 -5.3269022658766243e+00 3 1 -10
1232 411 2 4.0999999999999998e-01 -1.2235378080978071e+01 -6.6936462303302608e+00 -2.4206465658479992e-01 0 2 -4
2522 841 2 4.0999999999999998e-01 -6.0020054659777262e+00 -7.6523400069264724e-02 -1.4307728735078769e+00 1 8 -9
727 243 1 -8.1999999999999995e-01 -1.1799203467421036e+01 -1.7946326135519719e-01 -2.4513245353256732e+00 2 -6 -2
2068 690 1 -8.1999999999999995e-01 -5.2825310317808540e+00 -1.9063023818775324e+00 -6.7756320516591302e+00 3 -1 -8
332 111 2 4.0999999999999998e-01 -5.2897683446734067e+00 -2.8505728117107232e-01 -5.9415352206923924e+00 -1 -7 -8
1481 494 2 4.0999999999999998e-01 -1.3089224544914766e+01 -3.3521970324451367e-01 -6.4557560052883076e+00 0 -5 -6
1292 431 2 4.0999999999999998e-01 -8.9255799076493183e+00 -2.3957575938538689e-01 -1.0989096532569249e+00 4 -8 -3
1293 431 2 4.0999999999999998e-01 -9.9620771204970744e+00 -3.7927470301568178e-01 -2.3530972639259478e+00 4 -8 -3
2057 686 2 4.0999999999999998e-01 -1.1402934574940991e+01 -1.4499219421613878e+01 4.6416995340455536e+00 2 -2 -2
454 152 1 -8.1999999999999995e-01 -1.2859147447091072e+01 -9.1483038453700800e+00 1.2349894386017120e+00 5 -4 -6
2176 726 1 -8.1999999999999995e-01 -7.9893080653610031e+00 -1.1783262411570663e+01 1.2332044625500806e+00 3 -2 3
2178 726 2 4.0999999999999998e-01 -7.3880967824131192e+00 -1.2477396052080167e+01 1.6291835820215148e+00 3 -2 3
18 6 2 4.0999999999999998e-01 -1.0606434550297504e+01 -1.2556420781150571e+01 3.9506276459460175e+00 -4 -2 -6
167 56 2 4.0999999999999998e-01 -1.2855770597112631e+01 -8.8956594871089578e+00 4.1818944620659906e+00 0 1 -6
166 56 1 -8.1999999999999995e-01 -1.2099632999461363e+01 -9.4097777894286025e+00 3.7769077464276073e+00 0 1 -6
168 56 2 4.0999999999999998e-01 -1.1776713400114893e+01 -1.0096377206868844e+01 4.4283523892311436e+00 0 1 -6
373 125 1 -8.1999999999999995e-01 -1.0202235140074254e+01 -1.1067882784331129e+01 5.2908506183818567e+00 0 2 -7
375 125 2 4.0999999999999998e-01 -9.6398131524508575e+00 -1.0346133799824493e+01 4.8873213425132001e+00 0 2 -7
16 6 1 -8.1999999999999995e-01 -1.0404393174362500e+01 -1.3462858512993780e+01 3.5796480232083283e+00 -4 -2 -6
17 6 2 4.0999999999999998e-01 -1.0566664997051500e+01 -1.3462910627283421e+01 2.5928634750389534e+00 -4 -2 -6
456 152 2 4.0999999999999998e-01 -1.2612660835498193e+01 -9.2651674116651108e+00 2.1971033737292842e+00 5 -4 -6
2445 815 2 4.0999999999999998e-01 -9.0753588194524646e+00 -1.0409144474587968e+01 1.4007947640899694e+00 4 -5 -7
2177 726 2 4.0999999999999998e-01 -7.9128745422157145e+00 -1.1805514982026008e+01 2.3634004517126961e-01 3 -2 3
1646 549 2 4.0999999999999998e-01 -1.1235846629446845e+01 -1.2440663416985478e+01 6.0781926196012321e+00 -5 -2 -3
2443 815 1 -8.1999999999999995e-01 -9.6106869080196304e+00 -9.6149466986081755e+00 1.6884572339143489e+00 4 -5 -7
1100 367 2 4.0999999999999998e-01 -7.3723944508745411e+00 -9.5555038747186796e+00 7.0356429459402392e+00 4 -2 3
56 19 2 4.0999999999999998e-01 -8.6891415699107863e+00 -1.2329428246199710e+01 5.5414749481919507e+00 -2 -3 1
374 125 2 4.0999999999999998e-01 -1.0567770924534113e+01 -1.0754781545663199e+01 6.1674503640292428e+00 0 2 -7
455 152 2 4.0999999999999998e-01 -1.2829131389863893e+01 -8.1770184040323031e+00 9.9881238411874307e-01 5 -4 -6
1647 549 2 4.0999999999999998e-01 -1.2446546931657359e+01 -1.3523983061080243e+01 6.2438801340511176e+00 -5 -2 -3
184 62 1 -8.1999999999999995e-01 -6.4901591628189621e+00 -1.3824218472949333e+01 2.1363332695087820e+00 1 -3 -6
55 19 1 -8.1999999999999995e-01 -8.3819623837735229e+00 -1.3164683159808289e+01 5.9976175599584991e+00 -2 -3 1
870 290 2 4.0999999999999998e-01 -1.2539986405259882e+01 -1.3380903977889103e+01 1.4386529606326022e+00 -1 -4 -4
868 290 1 -8.1999999999999995e-01 -1.2060243768129665e+01 -1.2590704054752981e+01 1.0571990999267307e+00 -1 -4 -4
57 19 2 4.0999999999999998e-01 -9.0642860091778843e+00 -1.3446236281846714e+01 6.6723309952012890e+00 -2 -3 1
980 327 2 4.0999999999999998e-01 -8.3980510791023715e+00 -9.2441312125430457e+00 3.3483813679137455e+00 3 -2 2
186 62 2 4.0999999999999998e-01 -5.7480402245343214e+00 -1.3323132729488309e+01 2.5815843401090497e+00 1 -3 -6
2444 815 2 4.0999999999999998e-01 -1.0568745613118988e+01 -9.7492627890717394e+00 1.4351616356920402e+00 4 -5 -7
185 62 2 4.0999999999999998e-01 -6.7180244441278969e+00 -1.4633343259386645e+01 2.6780624024354687e+00 1 -3 -6
979 327 1 -8.1999999999999995e-01 -8.5482139760123310e+00 -9.0078132262007014e+00 4.3084234745602963e+00 3 -2 2
2276 759 2 4.0999999999999998e-01 -7.0675861144654881e+00 -1.0132819534241335e+01 4.9460356872148665e+00 9 -5 0
2275 759 1 -8.1999999999999995e-01 -6.7788908598570856e+00 -1.0609524453019397e+01 5.7763870598910891e+00 9 -5 0
1652 551 2 4.0999999999999998e-01 -6.3815849949787609e+00 -1.4480422863895177e+01 5.6393070952820565e+00 0 -5 -4
1645 549 1 -8.1999999999999995e-01 -1.2000006295738240e+01 -1.2729273756044687e+01 6.6551155111389235e+00 -5 -2 -3
102 34 2 4.0999999999999998e-01 -1.4450060937367919e+01 -8.7915318327988690e+00 7.1861238492787471e+00 -2 -4 -8
2277 759 2 4.0999999999999998e-01 -5.9558457962247413e+00 -1.1144244659728999e+01 5.5846918211231760e+00 9 -5 0