2611
Atoms. Timestep: 8000000
O -11.2469 -10.5196 -3.28028
H -11.0511 -10.0038 -4.11433
H -11.4629 -9.88461 -2.5386
O -0.80469 -8.28942 -11.3208
H -0.66076 -9.11231 -10.7712
H -1.41032 -8.50244 -12.0876
O -13.9302 12.1748 3.17429
H -14.2756 13.1066 3.06268
H -13.0258 12.2033 3.60004
O 13.8013 8.53045 -0.559678
H 14.5566 8.01553 -0.96503
H 13.2184 8.89468 -1.2861
O -1.1353 -9.64018 13.7034
H -1.76366 -10.3178 14.0856
H -1.65691 -8.93739 13.2197
O -14.0205 -10.6709 5.20105
H -13.5079 -11.4951 4.9605
H -14.8268 -10.9241 5.73566
O -0.0726195 5.23856 -4.05349
H 0.289812 5.223 -4.98538
H -0.571419 4.39028 -3.87564
O -10.0563 -11.4642 5.49204
H -9.14438 -11.2833 5.12371
H -10.0572 -11.2952 6.47768
O -2.85558 -0.647169 -10.1732
H -3.30166 -1.36585 -9.63976
H -3.52778 0.0510486 -10.4195
O 12.561 -8.94679 7.70994
H 12.3118 -8.66128 6.7845
H 13.3005 -9.61837 7.66386
O -14.6372 0.411632 -1.91851
H -13.8286 0.813842 -2.34804
H -14.7283 0.761679 -0.986208
O -4.6705 -8.05291 -3.20588
H -4.14998 -8.20958 -4.04525
H -4.15873 -8.41044 -2.42468
O -10.6428 -1.4822 10.2126
H -10.683 -0.937452 11.0502
H -11.3802 -2.1577 10.2186
O 6.30874 0.800685 -2.37817
H 6.39562 0.142853 -3.12632
H 7.08445 1.4315 -2.39723
O -5.31455 -11.062 12.0433
H -4.67569 -11.4387 12.7141
H -5.48368 -11.7391 11.3272
O 0.89707 -9.79435 7.24509
H 0.36095 -10.5396 6.84855
H 1.8561 -9.89636 6.98077
O -10.0968 10.0168 6.94508
H -9.61795 10.8541 6.68122
H -10.6638 10.1964 7.749
O -4.1623 11.1604 8.31681
H -3.51181 10.6256 7.77751
H -4.39312 11.9996 7.82427
O -3.87048 -13.3167 4.52921
H -2.93371 -13.603 4.32792
H -4.29564 -12.959 3.69776
O 0.53845 9.65631 8.39368
H 0.615254 9.23148 7.49166
H 0.774427 8.98722 9.09842
O 1.15346 -2.78777 12.6929
H 1.53228 -1.88747 12.4785
H 0.793156 -2.78423 13.6258
O -10.9493 14.8585 2.33112
H -10.9194 14.596 1.36665
H -11.6631 14.3356 2.79694
O 6.24615 -2.50298 -13.9977
H 6.4377 -2.99171 -13.1466
H 6.49141 -1.53938 -13.8912
O 14.3772 -12.1676 10.3166
H 14.5311 -11.2203 10.0355
H 13.9655 -12.1822 11.2278
O -8.00376 -1.75073 9.1375
H -7.97649 -1.15391 8.33557
H -8.92025 -1.73045 9.53707
O 0.636311 0.476972 5.94992
H 0.449739 0.523375 6.93128
H -0.113364 0.000825007 5.49026
O 0.759459 -11.7914 3.7706
H 0.549559 -11.7511 4.7475
H 1.51991 -12.4228 3.6188
O 1.87394 1.96904 -6.29042
H 2.80586 1.78755 -6.60442
H 1.75699 1.60588 -5.36606
O 13.5576 13.2125 -10.1186
H 14.4229 13.6752 -9.92594
H 13.5451 12.3243 -9.65939
O 1.04957 -8.14426 14.5821
H 0.350937 -8.85743 14.6398
H 0.750806 -7.34236 -14.6752
O -13.4341 -1.94667 1.27624
H -13.5927 -1.83401 0.295329
H -13.4335 -1.04999 1.71893
O 13.9676 -1.47763 4.66477
H 13.5408 -0.801434 4.06427
H 13.7485 -2.39759 4.3397
O 10.4946 -13.6496 2.26483
H 9.68217 -14.1959 2.46835
H 10.2372 -12.8685 1.69593
O -10.0352 -13.8111 -10.7108
H -9.58163 -14.1574 -11.5319
H -9.40545 -13.8619 -9.9356
O 2.9539 6.57029 -7.51227
H 2.27126 6.8177 -8.19989
H 3.44447 7.39096 -7.21927
O 7.87755 8.22909 -9.38653
H 7.20223 8.72544 -8.841
H 8.22627 8.8261 -10.109
O -0.30681 -10.5907 1.75466
H 0.0323496 -10.8887 2.64693
H 0.238026 -9.81639 1.43265
O 13.6163 -11.0489 -1.14525
H 13.9293 -11.9151 -1.53471
H 14.4021 -10.4502 -0.98961
O 2.50364 12.265 -11.9574
H 1.77809 12.1359 -11.2814
H 3.36019 11.8901 -11.6027
O 14.3804 0.539065 -13.648
H 14.0031 1.0918 -12.9049
H 14.7215 -0.325917 -13.2799
O -14.6689 -2.00052 -12.097
H 14.6819 -1.91644 -11.1952
H -13.6903 -2.17636 -11.9903
O 13.4653 -7.33844 -9.8321
H 12.956 -7.29991 -10.6918
H 14.1456 -8.06988 -9.88015
O 3.30992 11.8716 3.31181
H 4.09459 11.2595 3.21321
H 3.57931 12.6763 3.84075
O 10.954 1.92693 -3.15295
H 11.1433 2.20561 -4.09451
H 9.98182 2.05463 -2.95655
O -5.41224 14.0885 10.5711
H -5.51278 -14.7229 10.3222
H -4.48862 13.78 10.3434
O -11.3424 -8.11525 1.31913
H -10.3752 -8.06752 1.06983
H -11.5002 -8.92117 1.88977
O 2.22126 -5.981 1.04062
H 1.52431 -5.71687 1.70734
H 3.08621 -6.15183 1.51253
O -6.12293 11.2482 0.0754815
H -5.82876 10.5557 0.734168
H -5.64112 12.1058 0.255857
O 8.88573 -2.15947 14.0789
H 8.9774 -1.67152 -14.8277
H 9.1303 -1.54873 13.3258
O 6.24423 4.5574 13.7813
H 5.40301 4.08237 13.523
H 6.4249 4.4103 14.7538
O 4.35019 -13.4454 1.00363
H 3.63728 -13.6068 1.68605
H 5.21269 -13.238 1.46528
O -1.22128 -7.09556 10.536
H -0.597661 -6.32124 10.6434
H -1.5943 -7.34942 11.4284
O -1.48098 2.99512 -3.81766
H -1.80459 2.41308 -3.07166
H -2.01041 2.80305 -4.644
O -10.6715 7.46284 -4.77931
H -11.1988 6.6661 -4.48404
H -11.0663 7.83043 -5.62134
O -7.9047 6.19892 -4.84153
H -8.78899 6.66432 -4.80334
H -7.22633 6.73 -4.33381
O 14.6198 -9.80552 13.1776
H 14.5415 -10.7518 13.4913
H 14.1812 -9.71341 12.2836
O 14.8511 5.45968 6.37927
H 14.0828 5.85185 5.87332
H -14.2604 5.07825 5.73533
O -1.72678 3.40828 2.10494
H -1.38659 2.89856 2.89518
H -2.70864 3.2485 2.00278
O 5.41191 -5.30843 -4.18888
H 6.1988 -5.10835 -3.60511
H 5.29975 -4.57549 -4.85988
O 14.0512 7.85631 11.8674
H 13.8123 8.53231 12.5645
H 13.3398 7.15478 11.8257
O 7.36491 -2.46957 -9.81967
H 7.61577 -2.98697 -10.6378
H 7.25791 -1.50376 -10.0558
O 8.4233 -10.1679 11.5701
H 9.04317 -10.5761 10.8999
H 8.95427 -9.79156 12.3293
O 1.46864 -8.36517 11.7235
H 2.17297 -7.68592 11.5172
H 1.16434 -8.25307 12.6694
O -7.53889 14.4558 7.1785
H -7.80014 13.921 7.98212
H -8.27236 -14.6781 6.95169
O -11.6123 2.80831 -1.88071
H -11.8836 2.99073 -2.82575
H -10.64 3.01298 -1.76771
O -0.696154 -6.16248 4.82492
H -0.554575 -6.98539 4.27466
H -1.21989 -6.39545 5.64433
O 4.38616 0.72739 13.2183
H 5.05064 -0.0173896 13.1567
H 3.49306 0.403978 12.9056
O 2.2776 2.93035 6.04034
H 1.62584 2.25389 5.69737
H 3.20981 2.60097 5.89035
O 14.864 -13.2377 -1.77079
H 14.229 -13.9927 -1.93488
H -14.2186 -13.2215 -2.49238
O -3.2167 10.9298 -9.47959
H -3.53378 11.3325 -10.3383
H -2.39444 10.3867 -9.6497
O 13.4944 -4.58141 -8.85177
H 13.5967 -5.5442 -9.10192
H 12.5258 -4.33318 -8.87098
O 14.6922 4.18972 13.8316
H 14.6571 3.22613 13.5665
H -14.6214 4.71548 13.1167
O -3.94541 6.1248 9.22241
H -3.9131 6.61852 10.0914
H -3.37788 6.59825 8.54878
O -8.63671 7.54502 -0.900382
H -9.28317 7.98135 -1.52626
H -9.11079 7.28571 -0.0589375
O 8.62903 7.88594 14.6868
H 8.82098 7.39132 13.8392
H 7.66224 8.14022 14.7128
O -8.82234 2.79986 -0.286683
H -7.91863 2.4014 -0.443379
H -8.9001 3.65896 -0.792566
O 8.6489 14.2559 -13.4175
H 8.98254 14.578 -14.3034
H 7.71675 14.5875 -13.2718
O 4.6855 -8.84805 11.7207
H 5.50552 -8.28897 11.8432
H 4.42983 -9.26085 12.5949
O 11.6299 -0.907274 7.87174
H 12.5722 -1.04508 7.56666
H 11.0944 -1.73028 7.68214
O 11.7107 6.38292 10.9401
H 11.6836 6.22045 9.95373
H 10.7838 6.55024 11.2759
O -4.0722 13.4638 6.46106
H -3.12819 13.653 6.19083
H -4.6963 13.9874 5.88117
O -10.44 -10.6526 8.24268
H -11.2055 -10.0405 8.04424
H -9.57907 -10.1553 8.13494
O -8.22677 -14.0403 11.7456
H -7.49073 -13.7108 11.1542
H -9.10229 -13.9471 11.2714
O 1.05449 6.5984 14.062
H 0.282316 7.23382 14.0584
H 1.3783 6.46209 13.1257
O 7.21344 -4.33635 -2.20656
H 7.1594 -3.35057 -2.04737
H 7.96456 -4.53146 -2.83725
O -14.5142 -12.6576 1.38494
H -14.6563 -12.7778 0.402405
H 14.6467 -11.9454 1.72575
O -11.4339 5.25724 -0.0328975
H -11.1083 4.59444 -0.70721
H -10.6637 5.57695 0.519056
O 6.34498 -8.49893 -14.7692
H 5.48549 -8.84944 14.6335
H 7.10849 -9.02978 14.6377
O -11.8536 -1.53514 14.1582
H -11.6747 -2.51901 14.152
H -12.6741 -1.34212 13.6202
O 4.90857 6.9961 -10.5178
H 4.25283 7.42091 -9.89366
H 4.41688 6.45565 -11.2006
O -1.58851 -10.3122 -6.07189
H -0.746493 -10.6263 -5.63329
H -1.37166 -9.59597 -6.73523
O 11.5821 4.92985 3.58005
H 11.0283 5.69323 3.91263
H 12.3604 5.28378 3.0615
O 6.96731 8.00064 9.59799
H 6.83592 7.08716 9.9831
H 6.54852 8.04335 8.6909
O 6.8509 0.543175 2.00647
H 7.7865 0.812918 1.77867
H 6.20617 1.1269 1.5129
O 6.71665 -2.46108 -6.98558
H 5.73094 -2.29507 -7.01464
H 7.11599 -2.25407 -7.87872
O -9.01662 -7.36522 -8.42303
H -8.82116 -8.28921 -8.09433
H -8.59189 -6.69724 -7.81194
O 1.85578 13.5732 -2.85156
H 2.52234 13.6063 -3.59629
H 2.15867 14.1675 -2.10651
O -7.78977 4.56177 10.1271
H -7.32256 5.0223 9.37237
H -7.48568 4.95305 10.9957
O 2.61257 -6.97137 -11.6199
H 3.19712 -7.75254 -11.4006
H 2.93543 -6.53952 -12.4621
O -7.37231 -4.58507 9.00741
H -7.78194 -4.92559 9.85374
H -6.91474 -3.71391 9.18555
O -12.0708 -5.61756 0.36875
H -12.0796 -6.59173 0.59443
H -12.3541 -5.49316 -0.582188
O 5.37498 -9.774 2.65689
H 4.52065 -9.56158 3.13125
H 5.22299 -9.74799 1.66884
O 11.8044 -11.2546 3.95087
H 10.9882 -11.5976 3.48609
H 12.5379 -11.1244 3.28374
O -6.99108 -14.3454 0.735623
H -7.55242 14.7537 0.257535
H -7.58364 -13.667 1.16991
O -1.81129 5.99288 3.1356
H -1.75889 5.26571 2.45112
H -2.43819 5.71938 3.86513
O -12.6754 3.07588 -4.47147
H -12.5822 2.14073 -4.81327
H -13.6422 3.27954 -4.31724
O 10.1906 4.51666 -0.108217
H 9.59996 5.05192 0.495697
H 11.0178 5.03931 -0.31435
O -11.2276 -2.87533 7.29824
H -11.5594 -3.19006 8.18753
H -12.004 -2.73183 6.68451
O -13.4911 -12.5109 -4.1573
H -14.2372 -12.0655 -4.65221
H -12.7582 -11.8503 -3.99434
O 7.34362 -10.7656 -11.0053
H 7.903 -10.8481 -10.1805
H 7.02927 -9.82118 -11.1018
O 1.09095 -2.1901 8.27004
H 0.559778 -2.90239 7.81123
H 0.4887 -1.42976 8.51335
O -1.94957 10.4332 4.0611
H -1.03389 10.8003 3.89748
H -2.13449 9.6965 3.41059
O -12.6548 -13.8269 9.75173
H -13.5873 -13.6156 10.0449
H -12.6034 -13.7928 8.75363
O 14.5596 14.673 2.80733
H -14.8029 -14.2012 2.66849
H 13.8344 14.531 2.13357
O 5.11153 -11.3307 -6.61376
H 5.3974 -12.2651 -6.40123
H 5.89737 -10.7167 -6.53968
O 5.1711 1.7936 5.97987
H 4.97309 1.40416 6.8794
H 5.78924 1.18527 5.48202
O -6.19959 -13.8467 -4.2455
H -6.18504 -13.0903 -3.59157
H -7.14372 -14.1411 -4.3936
O -9.20825 -0.4538 14.5767
H -10.1498 -0.602788 14.2746
H -8.57703 -0.824519 13.8954
O -6.49579 -13.2503 9.36164
H -5.88684 -13.4039 8.58344
H -7.0034 -12.3997 9.22482
O 0.71394 9.10765 -4.66587
H 0.0325312 9.60697 -5.20101
H 0.251865 8.46897 -4.05057
O -9.37663 14.0148 -7.90946
H -10.2792 13.7009 -7.61473
H -8.90863 13.2758 -8.39414
O 4.43819 -7.63646 7.98552
H 4.62487 -8.09393 8.85494
H 5.12671 -7.90626 7.31234
O 6.71693 0.115476 -10.6458
H 6.8067 0.776177 -9.90055
H 6.07346 0.466022 -11.3263
O -0.705664 14.3292 -2.58036
H 0.212492 13.9414 -2.49908
H -0.71183 -14.5208 -2.19961
O 6.78162 -5.30014 -7.2815
H 7.49819 -5.59419 -7.91402
H 6.95768 -4.35912 -6.99255
O 7.14292 -7.83878 -12.1484
H 6.83028 -8.09823 -13.0622
H 6.58274 -7.08441 -11.8061
O 8.48636 2.45672 9.79862
H 7.70528 2.30181 10.4035
H 9.26834 1.92301 10.1206
O -9.67996 1.55612 4.46272
H -9.83603 0.699243 4.95406
H -9.08572 2.14871 5.00654
O -5.30418 4.06137 -2.35519
H -5.3029 4.61736 -3.18639
H -5.62435 4.61351 -1.58535
O 8.48623 1.06477 -12.6567
H 8.14284 0.739877 -11.7755
H 9.28165 0.52147 -12.9253
O -14.1026 12.0708 -5.56261
H -14.0786 12.4126 -4.62312
H -13.4353 12.5695 -6.11583
O -11.5503 -12.1868 -12.3469
H -11.2374 -12.5551 -13.2225
H -11.098 -12.6739 -11.5998
O 4.83903 -7.73196 -5.16931
H 4.71453 -7.55854 -6.14627
H 4.86269 -6.862 -4.67673
O 0.597416 -0.764841 -14.433
H 0.43785 -0.131955 -13.6754
H 0.668365 -0.250499 14.487
O -12.4652 0.524134 1.54489
H -11.5087 0.76688 1.38277
H -12.6842 0.659513 2.51118
O -7.27042 -10.8393 -14.8008
H -8.14739 -10.4375 -14.5371
H -7.39225 -11.8148 14.7911
O 0.329878 14.739 1.29721
H -0.0368802 13.8949 0.905924
H 0.92912 -14.5922 0.6307
O -11.6268 -12.2763 -8.78687
H -11.3966 -11.3079 -8.68988
H -10.973 -12.7141 -9.4039
O -0.0141868 -14.1964 -10.5647
H -0.0546224 -13.5982 -9.76433
H -0.682988 14.8417 -10.4645
O -9.15041 3.47692 -5.1466
H -8.57563 4.29173 -5.07097
H -9.54982 3.4346 -6.06241
O -11.6912 12.689 4.74964
H -11.945 12.8225 5.70763
H -10.7058 12.8225 4.64422
O -5.15499 -3.39495 4.28443
H -4.75549 -4.21279 3.87024
H -4.46558 -2.93335 4.84269
O -12.5691 8.78383 14.0417
H -12.8665 8.19131 13.2931
H -13.1814 8.666 14.8235
O -5.57814 -5.59106 11.3382
H -6.55391 -5.73539 11.1737
H -5.04658 -6.14892 10.7008
O -11.3999 13.5179 10.257
H -10.9225 13.5621 11.1345
H -11.8331 14.3992 10.0684
O -4.83483 -2.65877 10.6593
H -5.15003 -1.90187 11.2318
H -4.76393 -3.48845 11.213
O 14.2907 -0.803704 7.40874
H 14.6029 -1.36974 6.64572
H 14.1008 0.121877 7.08126
O -2.70898 -12.7486 -6.96627
H -2.69607 -13.5769 -6.40611
H -2.39054 -11.9728 -6.42151
O -7.58676 12.5333 2.51471
H -7.78065 11.6571 2.07358
H -8.44322 13.0266 2.66692
O -5.34036 -13.1815 -1.30955
H -4.69198 -13.7399 -1.82703
H -5.91742 -13.7748 -0.748248
O 11.2387 3.51495 -5.36232
H 10.6913 4.31342 -5.11165
H 11.8262 3.74391 -6.13852
O -13.3008 4.17883 -10.7244
H -12.8974 4.97801 -11.1701
H -13.3432 4.33354 -9.73735
O 0.36108 7.10742 4.39226
H 0.591919 6.71259 5.28155
H -0.42553 6.62466 4.00729
O -1.19808 9.82783 -6.69687
H -1.31503 10.8206 -6.66826
H -2.06685 9.38343 -6.47832
O 7.6411 -8.36527 2.42077
H 7.26414 -7.4441 2.32399
H 6.92106 -8.99003 2.72284
O 8.83012 -10.8001 4.24912
H 8.89828 -9.8309 4.48583
H 8.39584 -11.297 5.00048
O 9.63619 13.1269 4.95578
H 10.2872 13.8625 4.76864
H 8.73785 13.3769 4.59452
O 2.08287 1.25109 9.62362
H 1.92386 2.21655 9.41716
H 2.44688 0.792442 8.81297
O 5.90367 9.83034 -8.23319
H 5.96743 10.8162 -8.07847
H 5.06589 9.48063 -7.81386
O -8.17754 12.7641 -11.4141
H -7.58705 13.5612 -11.5403
H -8.10464 12.4414 -10.4704
O 12.0974 12.5513 13.5067
H 11.5149 11.902 13.9957
H 11.6017 13.4096 13.3742
O -3.53094 12.4848 2.80659
H -2.93586 12.7691 2.05486
H -2.99653 11.9737 3.47977
O 3.88363 14.2866 4.5135
H 3.59092 13.7652 5.31506
H 4.33683 -14.6474 4.80999
O -14.4015 -7.88844 -4.20545
H 14.42 -7.61931 -4.34336
H -14.3585 -8.8638 -3.98902
O -14.2809 -0.995634 9.7735
H -14.6095 -0.840593 8.84183
H -13.7977 -1.87018 9.81533
O 3.45106 -3.49012 8.85223
H 2.71233 -2.88071 8.56426
H 3.15918 -4.44075 8.74672
O 12.3755 -14.5138 -2.35453
H 11.46 -14.5022 -1.95222
H 12.3334 -14.1596 -3.2888
O 5.96135 -6.37984 1.81786
H 5.79225 -6.14203 0.861369
H 5.96044 -5.54825 2.37326
O 6.85167 1.24593 -5.86141
H 6.64948 0.536856 -5.18587
H 7.05238 2.10587 -5.39213
O -6.21479 -11.6057 -6.81758
H -5.58473 -12.378 -6.73617
H -6.30582 -11.1548 -5.92966
O 11.9971 3.90609 12.8677
H 12.8787 4.03587 13.3215
H 11.8367 4.65898 12.2294
O 11.9843 10.5932 -13.8171
H 11.4592 9.81858 -13.4646
H 11.7663 11.4126 -13.2868
O -7.411 -0.719337 4.17733
H -8.32873 -0.936774 3.84489
H -7.23455 -1.2236 5.02267
O 8.3093 2.53852 -1.61974
H 8.17848 2.16875 -0.699865
H 9.00366 3.25771 -1.59425
O -1.58803 3.47964 7.1938
H -2.35594 3.00796 6.76038
H -1.69388 3.44545 8.1876
O 11.621 -7.28687 -11.9819
H 10.9078 -7.94864 -12.2131
H 11.2043 -6.48139 -11.5605
O 10.3028 -4.09272 4.27083
H 11.1807 -4.06492 3.79288
H 10.071 -5.04111 4.48723
O 11.7388 -7.26827 -7.43576
H 10.9419 -6.81317 -7.83312
H 12.2361 -7.75619 -8.15312
O -5.92942 11.0297 -13.3568
H -5.34169 10.3922 -13.855
H -6.67414 10.5248 -12.9203
O 10.2124 -1.92528 2.64772
H 10.8608 -1.18458 2.8238
H 10.1463 -2.50969 3.4565
O -5.86091 -5.33843 -9.82105
H -6.30465 -4.45771 -9.65537
H -5.83892 -5.52091 -10.804
O -12.8213 -5.57258 -2.2157
H -13.7802 -5.49583 -2.4886
H -12.2382 -5.20267 -2.93906
O 10.9727 13.17 -12.4805
H 10.0617 13.5048 -12.2396
H 11.6653 13.7544 -12.0576
O 7.5983 -2.11296 1.47591
H 8.51424 -2.19269 1.86926
H 7.20069 -1.23213 1.73293
O -12.9632 -5.67469 -11.0967
H -12.0626 -6.07425 -11.2676
H -13.3663 -6.09644 -10.2845
O -5.84979 -3.83982 13.4224
H -5.92017 -4.62314 12.8048
H -5.15533 -4.02494 14.1178
O 1.3124 3.97044 14.4742
H 1.36861 4.02976 13.4776
H 0.897137 4.80558 14.835
O -0.590596 -1.26071 -6.15496
H -0.521144 -1.52167 -7.11782
H 0.254028 -1.50891 -5.68059
O 10.8168 -9.61005 -10.1394
H 10.9996 -10.0946 -9.28395
H 11.5181 -9.84548 -10.8123
O -4.22544 -5.93408 3.32217
H -3.60621 -6.01931 2.54159
H -4.1497 -6.74805 3.89814
O -11.908 -9.08338 12.7582
H -12.7927 -9.33161 12.3637
H -12.0524 -8.57136 13.6049
O -11.8306 13.4103 -7.25379
H -12.0832 14.2958 -6.86381
H -11.9853 13.4249 -8.24165
O -13.8473 9.47588 -5.18264
H -14.0715 10.434 -5.36102
H -13.5607 9.37236 -4.23019
O 12.186 0.785166 -1.07641
H 11.5986 1.27001 -1.72441
H 11.896 -0.169782 -1.01358
O -3.19549 -13.2576 12.7787
H -2.44597 -13.9142 12.8631
H -4.06679 -13.7255 12.9266
O -12.781 -13.9217 -6.61376
H -13.0902 -13.5883 -5.72311
H -12.5815 -13.144 -7.20989
O -14.4625 -4.5306 1.94308
H -14.2665 -3.582 1.6945
H -14.146 -5.13824 1.21464
O -0.808226 -3.36028 5.38878
H -0.684399 -4.24997 4.9493
H -1.42031 -3.45843 6.17347
O 7.01209 13.3629 -10.8989
H 6.14081 13.7783 -11.1603
H 7.21923 12.6053 -11.5179
O 12.3168 3.62431 -8.14197
H 11.7238 2.83659 -8.30898
H 11.9159 4.43834 -8.56233
O 13.6155 3.22445 -0.852866
H 13.1481 2.37028 -1.08075
H 14.5593 3.02741 -0.587503
O -8.89448 12.7746 5.06895
H -8.64014 13.357 5.84107
H -8.22751 12.0354 4.97506
O 8.91578 7.29255 7.85881
H 8.24596 7.51441 8.56742
H 8.59552 6.50502 7.33227
O -13.9328 -12.8503 -13.5062
H -14.5456 -13.3039 -12.8591
H -13.2705 -12.2942 -13.0041
O 9.27021 -5.25974 9.5609
H 8.94013 -4.84154 10.4072
H 8.68687 -4.97662 8.7996
O 3.46062 -11.0111 6.20623
H 4.08911 -10.4484 6.74325
H 3.5364 -10.7658 5.23975
O 10.5784 -11.0596 10.1036
H 11.3972 -10.5999 10.4475
H 10.2875 -10.6279 9.24979
O -8.55878 -11.0619 0.0800446
H -8.67775 -11.6117 0.906856
H -9.28502 -11.2793 -0.572136
O -2.2268 9.03844 1.86217
H -1.53818 9.63116 1.44442
H -1.82819 8.13888 2.04081
O -8.32108 -5.37032 -6.34681
H -7.67914 -4.67888 -6.0154
H -9.25796 -5.05389 -6.19802
O -0.533633 -8.24034 2.92341
H -0.747232 -7.52415 2.25898
H -1.17111 -9.00224 2.80875
O -7.57313 -10.6764 9.39784
H -7.41177 -9.9596 10.0762
H -7.66317 -10.2634 8.49155
O -1.60395 -8.36474 8.30102
H -1.46089 -8.30477 9.28892
H -0.730289 -8.54189 7.84786
O -11.6561 -6.80332 14.4653
H -12.3814 -6.44168 -14.7236
H -10.7684 -6.48732 14.8003
O 4.66112 1.96823 -7.07561
H 5.38364 1.62068 -6.47796
H 4.68718 2.96787 -7.08351
O 2.54664 -14.4385 -0.804149
H 3.06478 -14.0423 -0.0461711
H 2.38871 -13.7393 -1.50146
O -14.3892 -1.69374 -4.73715
H -14.6232 -1.99982 -5.65996
H -14.8011 -2.31094 -4.06678
O -13.7583 6.87782 -1.15456
H -12.9777 6.34927 -1.48811
H -14.4282 6.25959 -0.743419
O 12.2487 6.74399 -8.86121
H 12.9401 6.98764 -8.18105
H 12.6895 6.59706 -9.74672
O -2.16161 6.0721 12.8367
H -2.29954 5.20092 13.3079
H -2.03436 6.79938 13.5112
O -13.5639 4.52252 1.36265
H -12.8846 4.98991 0.796834
H -13.5694 3.54765 1.13987
O -6.23612 8.35911 -6.71984
H -6.43737 9.02661 -6.00292
H -6.83164 7.56318 -6.61089
O 3.56059 6.24377 4.00847
H 2.779 6.18893 3.38708
H 4.32435 5.72058 3.63037
O 11.5792 -2.33477 -9.21249
H 11.1794 -1.85475 -8.4316
H 12.5764 -2.31534 -9.14076
O 5.84938 1.98671 10.4478
H 5.28698 2.76169 10.1595
H 5.49308 1.14619 10.0396
O -13.0326 11.4263 13.7115
H -12.8208 10.4614 13.8669
H -13.4531 11.5344 12.8106
O 10.4544 11.6419 -1.63191
H 9.96718 12.0374 -0.853368
H 9.90766 10.9038 -2.0272
O -0.0864071 -4.95606 2.37045
H 0.287419 -4.02882 2.34803
H -0.123163 -5.27784 3.31656
O 0.0354198 -5.04465 -14.2515
H 0.0298661 -5.14718 -13.2568
H -0.729768 -4.4647 -14.5311
O 7.96465 -14.7197 2.39424
H 7.50743 -13.8326 2.33113
H 7.39981 14.4262 2.92862
O -8.02438 -4.96181 2.95493
H -7.4834 -5.15357 3.77382
H -7.53553 -5.29224 2.14756
O 2.22371 -14.6699 -12.125
H 1.39364 -14.501 -11.5935
H 2.3455 14.1201 -12.2491
O -0.498807 -14.2925 7.45188
H -1.27783 -14.1792 8.06858
H 0.319551 -14.5079 7.9847
O 14.1885 -4.33439 -4.13455
H 14.7228 -4.92164 -4.74255
H 13.2181 -4.41304 -4.36311
O -3.75091 3.03805 5.59343
H -2.8375 2.75836 5.29767
H -4.42369 2.37095 5.27349
O 11.8413 -3.34682 11.1776
H 12.1332 -3.73023 12.0539
H 11.4385 -2.44371 11.3266
O 1.15264 4.48475 -6.30928
H 1.88851 5.03215 -6.70788
H 1.34456 3.51379 -6.45218
O 8.71969 11.6172 -7.96822
H 8.7941 11.2276 -8.88618
H 9.33763 11.1324 -7.34923
O 7.58318 -11.6342 -0.0360473
H 7.04272 -12.4251 0.251026
H 8.31905 -11.4766 0.622489
O 11.626 0.395402 2.75299
H 11.2955 1.10713 3.37284
H 11.805 0.793708 1.85336
O 6.12565 -3.76718 2.99875
H 6.50945 -3.11013 2.3499
H 5.92273 -3.30399 3.86148
O 5.5203 1.93415 0.42936
H 5.02475 2.77722 0.638382
H 5.74162 1.91059 -0.545566
O -13.8931 -5.8367 -5.72985
H -13.9823 -6.68373 -5.20584
H -13.5166 -6.04178 -6.63332
O 10.9908 -1.89343 -12.1803
H 11.7999 -2.46747 -12.3063
H 10.9189 -1.62492 -11.2197
O 2.56836 -5.96897 9.05001
H 2.73 -6.08863 10.0296
H 3.19845 -6.54998 8.5348
O -11.0192 5.75007 7.91597
H -11.2669 4.93405 7.3937
H -10.9468 5.51605 8.88551
O -10.487 -0.254529 -7.20881
H -11.36 0.205622 -7.3705
H -9.95291 0.267962 -6.54416
O -10.1281 10.0946 -8.25234
H -10.8161 9.42074 -7.98273
H -9.85531 10.6304 -7.4533
O -11.3145 5.94361 12.5739
H -10.6944 5.28223 12.152
H -12.2603 5.69099 12.3698
O -1.5168 1.60303 4.37532
H -1.42373 0.678723 4.00516
H -0.631113 1.91518 4.71903
O 12.1387 9.63776 9.56108
H 12.3484 8.76173 9.99532
H 12.9779 10.0354 9.19029
O -0.435993 -12.7644 -2.88189
H -0.607839 -11.9053 -2.39964
H -0.248958 -12.5739 -3.84562
O 5.99951 -12.6964 -3.64069
H 5.74856 -11.7621 -3.38748
H 6.05246 -13.2619 -2.81769
O 6.87459 13.3546 4.14887
H 7.02949 12.4659 4.58031
H 6.26452 13.9016 4.72214
O 5.06913 -13.1736 5.37791
H 4.52559 -12.4407 5.78713
H 5.8779 -13.3431 5.94111
O 11.2673 -14.5277 5.07677
H 11.1306 -13.992 4.24349
H 11.0625 -13.9609 5.87477
O -9.20664 -4.97027 7.06219
H -10.0575 -4.45375 7.15851
H -8.65444 -4.86006 7.88859
O -12.1523 -9.18329 6.81513
H -11.524 -8.48238 6.47753
H -12.7243 -9.50871 6.06221
O -2.20142 -7.90238 -4.76189
H -2.09986 -8.70399 -5.35106
H -1.45303 -7.87894 -4.09903
O 6.40333 4.55792 -10.2417
H 7.23301 4.96842 -9.86333
H 5.67007 5.2378 -10.2524
O 11.626 -4.52589 -4.90766
H 11.1674 -4.4071 -4.02695
H 10.9686 -4.38305 -5.64762
O 8.56222 11.6764 6.89405
H 8.995 10.8619 7.28046
H 9.22017 12.1623 6.31869
O 12.3868 14.3841 1.10292
H 11.6115 -14.7979 1.32089
H 12.3952 14.1936 0.121243
O 5.87066 -5.3775 -11.623
H 5.05916 -5.58417 -12.1697
H 5.59303 -4.94994 -10.7627
O -6.31994 2.24755 9.72069
H -7.00047 2.91008 10.0337
H -5.63216 2.71376 9.16424
O 5.95663 -11.2441 10.5234
H 5.03853 -10.8629 10.4149
H 6.53565 -10.5867 11.0057
O -2.89469 10.0148 10.5319
H -3.44176 9.25662 10.8867
H -3.2993 10.3478 9.68014
O 0.449958 0.728668 -12.2709
H -0.150148 0.770958 -11.4721
H 1.31917 1.17534 -12.0589
O 13.8219 6.68053 -11.2273
H 14.3144 6.33977 -12.0281
H 14.4697 7.09931 -10.5909
O -3.12344 -0.152038 10.9068
H -2.96255 -1.13802 10.9512
H -3.46568 0.08926 9.99871
O -5.3436 -8.77955 -12.4055
H -5.90461 -8.35459 -11.695
H -5.80982 -9.59127 -12.7573
O -0.155724 -3.80204 10.4754
H 0.404381 -3.38701 11.1923
H -0.0908525 -3.25309 9.64202
O -2.54023 1.87586 -13.1205
H -3.50196 1.96809 -12.8624
H -2.331 2.51479 -13.8607
O -2.59066 -11.5509 14.8728
H -2.82514 -12.3469 14.3148
H -2.36276 -11.849 -13.975
O -8.17934 11.9369 -8.9622
H -7.27477 11.5107 -8.97218
H -8.84211 11.303 -8.56349
O 10.9487 -5.58641 1.6415
H 10.1303 -5.16153 1.25447
H 11.6025 -5.77835 0.909566
O -0.801867 7.66435 -2.78757
H -0.177503 7.5702 -2.01212
H -0.944276 6.76984 -3.21136
O 12.6969 -9.23317 10.7465
H 13.0111 -9.33296 9.80239
H 12.1843 -8.37953 10.8388
O -1.98879 -7.86902 0.012494
H -2.79735 -8.45743 0.00695252
H -1.30502 -8.2362 -0.618105
O -12.5725 5.70582 -3.74853
H -12.3903 4.79862 -4.12777
H -13.4867 6.0043 -4.02274
O 0.918028 12.536 -9.65976
H -0.0132027 12.7127 -9.9785
H 1.00177 12.816 -8.70342
O -2.89577 12.5183 -7.23315
H -3.06077 11.8963 -7.99859
H -3.46567 12.2497 -6.45656
O 8.76031 -10.1209 -1.96667
H 8.6552 -9.3104 -1.39038
H 8.19559 -10.8626 -1.60487
O 3.94085 2.22018 -3.24312
H 4.74451 1.68813 -2.97654
H 3.17154 1.60262 -3.4068
O 3.9872 -0.0785674 7.63159
H 3.50032 -0.74844 7.07102
H 4.0946 -0.435557 8.55951
O 3.91847 -9.13881 -12.9011
H 3.03167 -9.34874 -12.4893
H 4.58428 -8.94857 -12.1796
O -2.76097 -14.5433 -0.338088
H -2.53746 -13.5832 -0.169793
H -2.64633 -14.7467 -1.31045
O -6.30922 -6.92661 7.672
H -6.71419 -6.24848 8.28532
H -5.33873 -6.72245 7.54361
O -5.03314 -12.7556 1.94377
H -4.33619 -12.7098 1.2281
H -5.71045 -13.4516 1.70538
O -5.79013 -5.33923 -12.5006
H -5.65555 -6.33004 -12.5152
H -5.10532 -4.90125 -13.083
O -11.8947 11.4341 0.526078
H -12.6547 10.7959 0.648847
H -11.3345 11.4487 1.35438
O 10.0598 -1.02071 -7.43315
H 9.25492 -0.471071 -7.65682
H 10.2434 -0.959148 -6.45206
O 8.32459 -8.3052 5.62482
H 8.18934 -7.36768 5.30423
H 7.73795 -8.47455 6.41677
O -1.68364 12.8149 0.595928
H -1.51796 12.2077 -0.181142
H -2.03581 13.6906 0.265498
O 3.97397 -3.54318 13.6087
H 4.61189 -2.78218 13.7269
H 3.04384 -3.18736 13.5178
O -9.72052 -8.32219 11.4595
H -10.0574 -8.05962 10.5553
H -10.4924 -8.57817 12.0415
O -7.6379 -7.98852 -5.08478
H -7.94028 -7.19547 -5.61361
H -7.14055 -7.6788 -4.27439
O 3.9065 11.952 0.356543
H 3.96243 12.9267 0.140422
H 4.15462 11.8082 1.31456
O -6.47171 -6.63463 1.41787
H -5.91208 -6.52678 2.23957
H -6.07695 -6.09699 0.672803
O 0.121833 -10.4113 -9.47981
H -0.564914 -9.91749 -8.94637
H 0.338406 -11.2756 -9.02578
O 8.97583 -6.27518 13.7215
H 9.52749 -5.73155 14.3541
H 8.00564 -6.10801 13.897
O -4.58323 1.68488 -2.97634
H -4.89245 2.59251 -2.69245
H -4.5881 1.62826 -3.97473
O 2.97559 -5.80647 11.8046
H 3.26814 -5.03803 12.3737
H 1.97805 -5.87418 11.8231
O 4.22787 4.28524 1.23879
H 4.93534 4.63672 1.85195
H 3.91194 5.02 0.638515
O -11.4527 -9.45813 -9.3727
H -11.9465 -9.60026 -10.2306
H -11.7957 -8.63321 -8.92338
O 7.39138 -5.74285 4.82318
H 6.51157 -5.4552 4.44475
H 8.06908 -5.79393 4.0896
O -10.3945 -1.76962 -2.45933
H -10.0831 -1.37653 -1.59416
H -9.79278 -2.52538 -2.7178
O 7.35627 5.83032 -6.88249
H 8.27153 6.078 -7.20024
H 6.99276 6.56412 -6.30855
O 9.59111 -2.52889 6.5744
H 9.96605 -2.90861 5.72867
H 9.0519 -3.22832 7.0435
O -6.72778 -6.47647 -2.7159
H -6.00849 -7.17051 -2.74665
H -6.31268 -5.5669 -2.69588
O 8.78623 10.5678 -10.5626
H 9.72698 10.7051 -10.8727
H 8.21434 10.3041 -11.3394
O 1.32992 -8.5309 0.447502
H 1.93032 -8.86073 -0.281017
H 1.68248 -7.6656 0.80384
O -5.10027 5.8106 -9.21366
H -4.54849 5.23383 -8.61126
H -4.53729 6.55748 -9.56755
O -11.7402 -4.79417 12.1536
H -11.6967 -5.69542 12.5848
H -10.8771 -4.31145 12.3025
O -4.3049 7.82242 11.3282
H -4.37167 7.37625 12.2206
H -5.22253 8.03477 10.9922
O 2.18626 -0.20216 11.9658
H 1.43204 0.190794 12.4919
H 2.1661 0.15902 11.0335
O -8.41975 -10.0388 -7.63592
H -7.46666 -9.79861 -7.45171
H -8.53334 -11.0298 -7.56536
O -3.6958 10.0463 -1.50336
H -3.85843 9.38915 -2.23941
H -4.07044 9.68821 -0.648097
O 14.3544 -12.1933 13.9924
H -14.8755 -12.515 14.7668
H 13.525 -12.7467 13.9155
O -0.97665 -0.525946 8.28924
H -1.70189 0.0537195 8.66077
H -1.38346 -1.316 7.83063
O 0.771326 -10.8283 -4.72173
H 1.33214 -11.5653 -5.09911
H 1.36344 -10.0858 -4.40857
O -4.09869 -3.87229 -13.8734
H -3.89995 -3.17968 -13.1799
H -3.24135 -4.25612 -14.2164
O 3.50533 -5.28165 -13.7605
H 3.37621 -5.57146 -14.7088
H 3.54075 -4.28313 -13.719
O -10.256 -6.39913 -11.0464
H -10.0391 -6.8537 -10.1825
H -9.61132 -6.69649 -11.7506
O 2.92518 1.87065 -11.8432
H 3.16883 1.89439 -12.8128
H 3.72285 2.11753 -11.2929
O 4.05347 5.62232 -12.604
H 3.24488 5.19466 -13.0081
H 4.85998 5.39098 -13.1481
O -0.514943 4.00114 10.0025
H 0.231017 4.05723 9.33889
H -0.706993 4.91276 10.366
O 4.93764 -1.74482 5.37383
H 5.56631 -1.02304 5.66335
H 4.13303 -1.33387 4.94517
O 10.393 11.3865 10.6091
H 11.0174 10.6984 10.2394
H 10.914 12.1922 10.8909
O 5.5282 7.37346 -4.2856
H 4.84391 7.91923 -3.80197
H 5.26645 6.40875 -4.2565
O 10.2376 -1.04608 11.8831
H 10.7944 -0.218602 11.8111
H 9.39717 -0.929368 11.3538
O 10.8465 -3.51636 -2.35559
H 10.3252 -3.05944 -1.63481
H 11.8244 -3.4324 -2.16406
O 4.87065 4.62812 -7.16787
H 4.21493 5.34464 -7.40591
H 5.80098 4.98014 -7.27073
O 9.53512 10.3062 2.19106
H 10.2466 9.67222 1.888
H 9.33066 10.1413 3.15595
O -13.4404 -14.3249 -11.1606
H -13.5666 14.7424 -11.8561
H -12.7102 -14.5993 -10.5349
O -9.46571 -2.54051 3.6762
H -8.85817 -3.27905 3.96854
H -10.0409 -2.86037 2.92329
O 1.44638 -12.1166 -13.3203
H 1.74558 -12.9864 -12.9281
H 1.79493 -11.3625 -12.7636
O -6.77685 -0.150808 -11.6234
H -7.40549 -0.0354208 -10.8543
H -6.93302 -1.04127 -12.0509
O 4.9062 2.45121 -9.8468
H 4.71759 2.28783 -8.87842
H 5.54917 3.21173 -9.93746
O 5.46789 10.4121 9.68209
H 5.9359 11.1525 10.1647
H 5.88611 9.53755 9.92748
O 3.52481 -3.12231 -6.59884
H 3.78245 -2.26664 -7.04769
H 3.44402 -3.84668 -7.28351
O 8.38928 11.6479 14.2764
H 8.71115 11.1988 -14.6648
H 7.77406 12.3982 14.5183
O 1.41571 -9.8392 -11.7835
H 0.856779 -9.08201 -12.1216
H 1.08752 -10.1188 -10.8812
O -8.48994 -13.2382 -8.46838
H -8.74215 -14.137 -8.10985
H -7.56944 -13.0016 -8.15739
O -8.67494 2.51355 -9.2193
H -7.85235 2.94112 -8.8444
H -8.65443 1.53124 -9.03309
O -3.16148 -10.2934 4.05278
H -3.02953 -10.3074 5.04395
H -2.51856 -10.9267 3.62194
O -14.2059 -6.62862 5.82985
H -13.5594 -5.96489 5.4537
H -14.5813 -7.18521 5.08869
O 10.707 0.981964 9.91587
H 10.964 0.397134 9.14648
H 11.3983 1.69402 10.0387
O 5.52766 7.58431 7.32469
H 5.10708 8.39792 6.92325
H 4.8518 6.84882 7.37246
O -6.44845 3.3005 -7.95241
H -6.57952 4.28378 -8.07888
H -5.65247 3.00002 -8.47791
O 0.925569 7.97226 -0.664554
H 0.73318 7.00872 -0.478552
H 1.00001 8.47013 0.199509
O 9.41764 3.11282 13.2774
H 10.3045 3.50925 13.0401
H 8.83735 3.81608 13.6882
O 3.39386 7.91096 14.6807
H 3.21954 8.40322 -14.2412
H 2.72454 7.17514 14.5778
O 10.0049 -9.80641 7.58675
H 9.38625 -9.13448 7.17962
H 10.9474 -9.48086 7.51056
O 5.84379 12.4922 -14.6023
H 4.99123 12.2497 14.7094
H 5.81739 13.4565 -14.3389
O -10.7413 3.13675 -7.94987
H -11.2021 2.24947 -7.97014
H -9.95012 3.11545 -8.56106
O 7.69211 5.9249 -2.92818
H 6.97565 6.42543 -3.41416
H 7.28097 5.38004 -2.19735
O -2.74809 3.40974 14.2166
H -2.47622 3.12264 13.2981
H -3.7236 3.62966 14.222
O 2.06311 11.4095 9.97382
H 2.82076 10.7598 9.91159
H 1.30096 11.0876 9.41213
O 8.61105 -7.50505 -4.72271
H 7.66385 -7.50443 -4.40202
H 8.97135 -8.43751 -4.69609
O 9.23931 -10.3255 -4.5774
H 8.83587 -10.2127 -3.66938
H 8.51176 -10.3736 -5.26178
O -10.3682 -12.6432 10.3285
H -11.2034 -13.1235 10.0607
H -10.2126 -11.8741 9.70864
O -14.881 1.56344 10.7923
H -14.0351 2.06467 10.9746
H -14.6607 0.663528 10.416
O -11.9189 -7.55431 -7.5352
H -11.2159 -6.89943 -7.25807
H -11.6859 -8.4616 -7.18515
O 11.7746 -6.64224 -2.25662