2611
Atoms. Timestep: 23000000
O -2.05352 5.15173 -13.8721
H -1.14341 5.03246 -13.4753
H -2.27641 4.3588 -14.4392
O -2.82838 -10.9435 -1.66563
H -1.97539 -10.8711 -2.18253
H -3.41707 -10.165 -1.8832
O 0.163231 -12.3254 -4.82266
H -0.418918 -12.6533 -5.5667
H 0.999473 -11.9304 -5.20305
O 3.87696 1.725 1.56918
H 2.94295 1.95718 1.29766
H 3.86461 1.29596 2.47239
O 13.4078 2.18721 1.22663
H 13.1329 3.12416 1.44244
H 14.0165 2.19281 0.433193
O -11.1334 -12.6643 3.56275
H -11.6319 -13.5245 3.67039
H -10.3562 -12.804 2.94912
O -1.17122 -1.20037 8.26071
H -1.57237 -0.36657 8.64002
H -0.533771 -1.59461 8.92272
O -3.60491 9.39061 -1.46433
H -4.03966 9.01135 -2.28114
H -4.02997 8.99906 -0.648216
O 9.39676 -13.6192 13.8429
H 9.98752 -14.3262 13.4541
H 9.6265 -13.4859 14.807
O 0.996866 11.4921 3.71942
H 1.27697 12.3575 4.13491
H 0.800165 11.6362 2.7496
O -3.31032 7.41024 10.3111
H -2.35229 7.33744 10.0338
H -3.40292 8.12339 11.006
O 10.4528 -6.87704 2.40458
H 11.211 -7.44146 2.7311
H 9.71598 -6.88517 3.08061
O 0.635034 9.91154 -9.66011
H 0.687905 9.85632 -10.6572
H -0.263741 9.59575 -9.35598
O 11.4417 -4.25113 8.19621
H 12.1572 -3.55601 8.12582
H 11.6852 -4.90906 8.90887
O 8.64022 6.71499 6.97927
H 8.06831 5.95614 7.29085
H 9.21998 7.02645 7.7322
O -10.0807 -8.59637 -14.4948
H -9.87046 -8.54009 -13.5188
H -10.3039 -7.68504 -14.8408
O 13.9437 -12.6064 6.09808
H 13.1887 -12.4745 6.74037
H 14.5984 -13.2573 6.48244
O 10.3635 -7.00012 12.6122
H 10.816 -7.46312 13.3744
H 10.9863 -6.95754 11.831
O -4.35952 -13.4667 4.24865
H -3.70104 -13.3631 3.50321
H -4.4911 -12.5852 4.70215
O 7.89735 -4.14116 -4.81738
H 8.16531 -3.27564 -5.24058
H 6.91963 -4.29398 -4.96136
O 6.43683 -12.0407 -0.487493
H 6.25818 -11.1324 -0.865774
H 6.3272 -12.0154 0.506167
O -8.8711 3.62305 -12.7997
H -9.81623 3.69209 -12.4803
H -8.8203 3.9121 -13.7556
O 3.93259 0.764546 4.06842
H 4.49532 0.181487 4.65442
H 3.0058 0.81571 4.44052
O -2.23915 -8.29288 1.00912
H -2.35315 -7.94204 0.0796383
H -1.26683 -8.30935 1.24226
O 1.18089 10.9914 -7.01437
H 0.354332 10.6716 -6.55119
H 1.26678 10.5316 -7.89823
O 1.43095 -5.13862 -3.92884
H 1.80186 -4.41914 -4.51603
H 2.1812 -5.68584 -3.55777
O -7.08487 4.93379 5.42306
H -6.97033 5.25149 4.48181
H -7.96849 4.47463 5.51468
O 13.3684 14.292 0.80499
H 12.7623 13.8941 1.4937
H 12.951 14.2005 -0.0991399
O 7.95671 -7.1723 -4.30851
H 7.30698 -6.80759 -3.64154
H 8.83422 -7.34272 -3.86024
O 10.4642 -10.2195 -2.17708
H 10.1266 -10.413 -1.25587
H 9.99173 -10.8058 -2.83517
O 9.73859 -10.2602 0.511579
H 8.8372 -10.1136 0.919044
H 10.2838 -10.8465 1.11066
O 8.00251 5.71772 -1.18017
H 7.30822 5.81798 -0.467487
H 8.3084 4.76631 -1.21602
O 5.58886 -8.23228 -1.47774
H 5.48158 -7.24995 -1.32436
H 4.72808 -8.69776 -1.2718
O -13.5028 -9.07056 7.69648
H -13.7441 -8.15019 8.00422
H -13.992 -9.27768 6.84922
O 13.5333 -9.21113 -0.155686
H 12.6083 -9.0807 -0.512651
H 14.1987 -8.88427 -0.826787
O -4.61137 -7.26104 9.92484
H -4.55517 -7.14365 10.9163
H -4.22481 -6.45778 9.47165
O -3.87485 4.7982 -11.7068
H -3.26743 4.8508 -12.4995
H -4.45096 3.98426 -11.7818
O 8.87539 -3.89243 8.77828
H 9.86836 -4.00807 8.80404
H 8.43374 -4.78691 8.84787
O -14.1542 1.34537 -3.83293
H -14.9028 0.931562 -4.35101
H -13.5589 1.85332 -4.45548
O 14.5473 6.49044 3.75823
H -14.6284 5.961 3.30962
H 14.6553 6.42624 4.75032
O -12.8404 11.3323 -11.9471
H -12.6434 11.0944 -12.8982
H -12.0309 11.1601 -11.3858
O 12.6108 13.7146 4.87211
H 12.1138 13.7489 5.73916
H 12.0485 14.1164 4.1494
O 2.28227 -13.475 -3.28026
H 1.70978 -13.1235 -4.02105
H 3.00344 -12.8137 -3.07389
O -4.92155 4.28353 -14.7129
H -4.91655 5.25323 14.9386
H -4.17374 3.81694 14.7106
O 11.5907 -0.0804475 0.833738
H 11.0697 0.437914 0.155552
H 12.4147 0.42902 1.08167
O 10.657 1.50478 -4.17353
H 10.2086 2.2453 -4.6741
H 11.2765 1.89157 -3.49047
O -1.98008 4.23181 11.8946
H -2.34124 5.10155 11.5583
H -1.12891 4.01682 11.4158
O 2.73674 14.8798 6.53491
H 1.97048 14.4776 7.03597
H 3.59697 14.604 6.96381
O 13.1719 -9.26638 -12.3047
H 13.7445 -10.0601 -12.5099
H 13.6922 -8.42844 -12.4693
O 2.35245 -14.2974 10.4883
H 2.04617 -13.3544 10.358
H 3.15927 -14.467 9.92235
O -11.2723 -4.83986 -2.46374
H -11.6559 -3.98271 -2.12
H -10.9575 -4.71073 -3.40407
O -13.4164 -0.809818 7.17563
H -13.6771 -0.991465 6.22746
H -14.2016 -0.440135 7.67231
O -5.46389 6.59811 -10.5896
H -4.93631 5.98391 -11.1765
H -5.53617 7.49521 -11.0255
O 0.0150464 3.81042 -8.02416
H -0.432415 4.07777 -7.17075
H 0.982495 4.06061 -7.98586
O -6.40544 -13.3406 11.1868
H -5.68335 -12.8054 10.7485
H -7.17306 -12.7415 11.4143
O -11.7092 -9.85234 3.78559
H -12.55 -9.69769 4.30441
H -11.5466 -10.8353 3.69962
O 14.7578 12.1805 -5.43025
H 14.0426 11.5233 -5.66823
H -14.5364 12.3179 -6.21714
O -2.29581 10.9337 0.496952
H -2.60776 10.8867 -0.451996
H -3.08292 10.8675 1.11022
O -7.33178 12.8728 6.86922
H -6.68067 12.495 7.5275
H -8.12034 13.2467 7.35745
O 13.7102 -6.1364 12.4666
H 13.5257 -5.79197 13.3871
H 14.4119 -6.84746 12.5112
O -10.5766 -0.458573 -9.84108
H -10.3655 -0.251369 -10.7963
H -10.7045 0.394598 -9.33536
O -6.14935 -13.7808 1.78034
H -5.60914 -14.6182 1.6967
H -5.63372 -13.1024 2.3037
O -5.25062 14.1993 -5.11973
H -5.79368 -14.8573 -5.09014
H -5.51829 13.6022 -4.36351
O -11.9024 -3.43007 -5.23071
H -11.6348 -2.53319 -5.58282
H -11.2702 -4.12494 -5.57343
O -4.17351 -12.6733 -4.16066
H -3.55122 -12.9922 -4.87555
H -3.72922 -12.76 -3.26898
O -6.04561 -12.2256 6.51237
H -6.77008 -12.8286 6.17827
H -5.9723 -11.4287 5.9128
O -0.0711768 4.66795 0.893509
H -0.315304 4.58152 -0.0723837
H 0.918756 4.7814 0.978242
O -14.213 -1.59172 4.65433
H -14.4971 -0.721418 4.25203
H -14.4952 -2.34278 4.05744
O -9.00788 6.36635 -8.49642
H -8.20175 6.75399 -8.04931
H -8.72227 5.82326 -9.28603
O -9.62968 7.61491 -5.40144
H -8.85845 7.87144 -5.98404
H -9.41944 7.84272 -4.4507
O -6.10642 10.7112 0.560607
H -7.04721 10.8134 0.88384
H -5.4794 11.1156 1.22642
O 12.478 10.0458 7.17291
H 12.6676 9.08907 6.95197
H 12.6284 10.1984 8.1497
O -11.7985 3.50327 -12.1566
H -12.1043 4.35191 -11.7249
H -12.3742 2.74608 -11.8479
O 7.75282 -5.4445 6.12067
H 7.44604 -6.0134 5.35762
H 8.66686 -5.08914 5.92507
O 4.97753 -11.0125 -6.87858
H 4.9407 -10.8937 -7.87083
H 5.93168 -11.024 -6.57944
O -6.73567 5.60661 2.87865
H -6.84157 5.28122 1.93901
H -7.15131 6.51188 2.96674
O 1.35599 14.3676 -0.0880641
H 1.65471 13.9012 -0.920636
H 0.772747 13.7555 0.445969
O 5.86441 -11.5807 13.7934
H 6.47553 -11.0354 13.2197
H 6.39625 -12.2692 14.2865
O -3.50202 -13.8419 -9.00853
H -4.44018 -14.1156 -9.22058
H -3.00895 -13.6558 -9.85837
O 9.11783 -1.52888 13.897
H 8.38229 -1.94634 14.4306
H 9.16153 -1.95962 12.9956
O -5.35168 1.21236 0.469041
H -4.84042 1.4498 1.29503
H -4.86016 0.501812 -0.034487
O 8.18773 12.3798 5.54692
H 8.4496 13.3158 5.31145
H 8.15302 11.8244 4.71608
O 12.6895 -11.5598 -3.52503
H 13.0471 -12.3955 -3.10823
H 11.7415 -11.4232 -3.23742
O -13.4128 -11.3598 9.04884
H -13.4452 -10.4843 8.56674
H -13.0887 -12.0716 8.42574
O 4.18039 9.415 -8.96565
H 4.33665 10.252 -8.44114
H 4.267 9.61253 -9.94213
O -7.07285 3.079 -8.5517
H -7.24842 3.81113 -9.20987
H -6.09739 2.85879 -8.55044
O -4.43641 -4.70212 9.12803
H -5.04222 -3.91513 9.2449
H -3.71765 -4.47479 8.47097
O 4.46107 9.83409 6.3357
H 4.45967 10.5921 5.68341
H 5.0875 10.042 7.08695
O -10.5299 0.136999 5.07911
H -11.1029 0.369463 5.86502
H -10.4882 -0.857157 4.97945
O 7.10242 -14.8242 -10.2585
H 7.26734 -14.1608 -9.52862
H 7.08148 -14.3519 -11.1397
O -10.1406 -4.78149 10.3067
H -10.3142 -4.1001 11.0178
H -10.9412 -5.37267 10.2091
O 8.30368 -12.1847 -3.00026
H 7.61293 -11.4623 -2.96831
H 8.4521 -12.5449 -2.07926
O 8.40153 7.1813 -12.6505
H 8.36478 7.69227 -11.7917
H 9.29219 6.73446 -12.7346
O 4.53799 4.26198 4.12049
H 4.56149 5.2071 4.44638
H 5.18587 4.15317 3.36655
O 4.61949 5.6359 7.67325
H 5.5752 5.44554 7.89777
H 4.04562 5.4452 8.46969
O -5.1595 -2.97729 -0.0267085
H -4.89905 -2.21278 -0.616382
H -6.14901 -2.96512 0.117274
O 7.54709 -11.6237 -5.87295
H 7.94809 -10.7099 -5.93786
H 7.95378 -12.1121 -5.10089
O 13.075 -1.10807 11.2037
H 12.6277 -1.94015 11.5317
H 12.5272 -0.701227 10.4727
O -9.79937 9.10952 -14.7506
H -9.8936 8.11735 -14.8327
H -10.6637 9.50148 -14.4353
O 3.92264 -7.33504 -7.11659
H 3.34564 -8.09612 -7.41298
H 3.59186 -6.48592 -7.52841
O 4.30475 -11.6385 -3.14639
H 5.23346 -11.2693 -3.11171
H 3.7466 -11.0797 -3.75978
O 8.24747 -1.88726 10.9008
H 7.27312 -1.66657 10.8564
H 8.43102 -2.69871 10.3459
O -13.3088 4.62273 12.3165
H -12.8345 4.57561 13.1956
H -14.2877 4.7548 12.4725
O 6.5602 -14.8835 -1.19923
H 6.93942 -14.014 -0.882785
H 5.58272 -14.9164 -0.990747
O 9.29363 -11.8249 3.64724
H 8.66057 -11.0649 3.5004
H 9.91719 -11.5995 4.39581
O -7.40006 8.1875 -6.70781
H -6.65753 7.53378 -6.8538
H -7.19372 9.03929 -7.18935
O 7.02153 11.4087 8.25156
H 7.76557 10.7551 8.11296
H 7.35369 12.1823 8.79115
O -4.89633 8.36955 6.074
H -5.39513 7.99185 6.8541
H -5.4408 9.09248 5.64861
O -0.716227 14.4522 -5.35192
H 0.179557 14.0898 -5.60927
H -0.683026 14.7847 -4.40939
O -7.91107 -7.12307 -7.11477
H -7.0607 -6.60184 -7.18686
H -8.12405 -7.28174 -6.15067
O -4.48629 -0.828567 -7.3463
H -4.55024 -1.00488 -8.32856
H -5.37657 -0.529691 -7.00265
O 0.307051 4.94297 -12.6902
H 1.00679 5.60592 -12.424
H -0.258428 4.71837 -11.8966
O -10.1533 -6.66811 13.0259
H -9.41751 -6.83638 12.3699
H -10.9654 -7.18544 12.7559
O -7.4882 4.86568 11.969
H -6.88833 4.06678 12.0129
H -8.24159 4.68249 11.3374
O 12.4622 -2.38491 2.03936
H 12.0328 -1.51134 1.81016
H 11.9052 -3.13422 1.68109
O 5.82968 6.50964 0.5152
H 5.56125 7.31389 1.04544
H 5.04073 6.16907 0.00374803
O -1.01262 10.2025 -5.63279
H -1.57026 10.9415 -6.01093
H -0.57408 10.5138 -4.78971
O -5.66263 12.1513 13.8887
H -4.77545 12.263 13.441
H -6.32076 11.7767 13.2357
O -9.50192 -7.05034 6.61186
H -8.50994 -6.99017 6.50055
H -9.94157 -7.00078 5.71505
O -5.88804 12.038 -3.62211
H -5.6377 11.3904 -4.3418
H -6.49341 11.5886 -2.96516
O 1.93954 -12.0436 6.37483
H 2.10164 -13.0225 6.49925
H 1.59606 -11.8774 5.45048
O -13.5636 12.5145 -2.96136
H -13.9969 12.7503 -3.83123
H -13.7535 13.2304 -2.28952
O -3.87398 4.52187 3.40834
H -4.81596 4.85683 3.3858
H -3.34624 4.96198 2.68184
O -1.82258 -2.62862 -10.8127
H -1.59908 -2.22156 -11.6984
H -1.30836 -2.16286 -10.0926
O -10.0431 -11.0499 6.69236
H -10.2634 -10.3213 7.3409
H -9.25666 -10.7765 6.13845
O 0.851143 1.28594 -11.3864
H 0.301485 2.0565 -11.7091
H 1.70205 1.24115 -11.9098
O -5.68786 10.835 8.7836
H -4.93866 10.9468 8.13074
H -6.39174 10.2466 8.38568
O -0.349912 -1.61856 -8.76242
H -0.44593 -2.12976 -7.90833
H -0.134919 -0.663772 -8.55704
O -5.76784 -5.65938 12.4301
H -6.58841 -6.01965 11.9864
H -5.76843 -5.92146 13.3951
O -13.9846 14.2383 -0.772979
H -14.6955 14.1411 -0.0763632
H -13.3507 -14.9326 -0.503459
O 5.85553 -1.41866 -8.15999
H 5.39695 -2.29029 -7.98688
H 6.10305 -0.993554 -7.28934
O -2.74642 -1.95016 6.17652
H -1.92207 -1.80094 6.7226
H -2.96098 -2.92668 6.15686
O -13.0712 6.72622 8.05656
H -12.5999 6.11867 8.69589
H -12.4137 7.3658 7.65826
O 9.64724 -13.5561 -0.84998
H 10.2994 -13.133 -0.22096
H 10.144 -14.0073 -1.59142
O 10.8831 -11.1392 12.1465
H 10.3345 -11.4044 12.9394
H 11.8269 -10.9757 12.4338
O -10.8327 -8.8768 8.35965
H -11.7697 -9.06167 8.06318
H -10.4576 -8.11879 7.82599
O -2.45081 -3.50725 -5.17868
H -2.33799 -3.21591 -4.22873
H -3.06885 -4.29256 -5.2153
O 11.0061 13.6836 9.85596
H 11.7103 13.2335 10.405
H 11.0118 14.6653 10.0464
O 10.5907 -14.5007 -3.38391
H 9.6423 -14.7082 -3.62364
H 11.1374 -14.429 -4.21821
O -3.5481 -7.39947 5.45198
H -3.61551 -6.81469 6.26038
H -2.797 -8.04868 5.57192
O 1.93593 5.51061 -3.66772
H 2.40258 6.3867 -3.78909
H 0.966326 5.67209 -3.48383
O 14.5889 0.776275 13.2216
H 13.9858 0.16835 12.7051
H 14.1909 0.955084 14.1214
O 8.63782 8.06666 11.4289
H 8.00486 8.82862 11.566
H 9.06731 8.14783 10.5295
O 6.4659 5.2974 11.1164
H 6.73173 6.02712 10.4864
H 5.52623 5.01555 10.9225
O -7.84885 -10.6612 8.97184
H -8.50321 -11.2515 9.44449
H -7.12945 -11.2221 8.5621
O -6.50057 -6.54468 -4.14613
H -6.5087 -5.90468 -3.3778
H -6.82256 -7.4398 -3.83775
O 8.24396 2.03993 2.70383
H 8.7151 1.18768 2.47644
H 8.73845 2.50919 3.43547
O 12.0689 -8.12901 14.5575
H 12.6936 -7.40264 14.8442
H 12.503 -8.68008 13.8449
O 11.8722 -10.0925 9.84218
H 11.4267 -10.3302 10.7054
H 12.7733 -10.5242 9.80216
O 7.46523 -9.54457 -8.9339
H 7.00846 -9.2369 -8.09921
H 8.32758 -9.05025 -9.04353
O 11.198 -2.73185 -1.47379
H 10.5292 -3.45253 -1.65615
H 11.4183 -2.25807 -2.32643
O -12.7013 -8.52567 1.62797
H -12.3413 -7.59347 1.58998
H -12.3918 -8.96845 2.4695
O -4.46493 -1.68625 13.2668
H -4.71468 -1.5863 12.3036
H -3.78136 -2.4101 13.3605
O -14.4158 2.3521 6.27122
H -14.6785 3.31341 6.35424
H -14.7149 2.00023 5.38423
O -9.84405 7.17863 11.9475
H -8.90105 6.98626 11.6759
H -9.99381 6.85708 12.8825
O 9.88998 -13.4931 -13.1644
H 10.3302 -14.3731 -13.3431
H 10.5507 -12.8681 -12.7487
O -2.50866 3.87148 5.65876
H -2.98561 4.11494 4.81421
H -2.83318 4.45341 6.40445
O 1.5183 -8.12912 7.94433
H 1.82191 -7.70679 8.79842
H 0.56197 -8.40801 8.03192
O 5.37282 14.7147 -7.58852
H 5.46523 -14.6047 -8.40046
H 5.08073 -14.6207 -6.81346
O 14.1191 -11.3328 10.343
H 14.1831 -12.2455 10.7465
H 14.8709 -11.2005 9.69701
O -7.71789 9.73535 7.25937
H -8.50598 9.98604 7.82159
H -7.97775 9.00464 6.62806
O 2.65302 8.11213 -0.364281
H 3.5618 8.51995 -0.275873
H 2.0044 8.61663 0.205625
O 13.3044 -5.46522 -14.8891
H 13.8211 -4.61398 -14.7973
H 12.325 -5.26424 -14.871
O -14.874 -1.686 -14.0054
H -14.071 -1.10377 -14.1327
H 14.7251 -1.6408 -13.0515
O 11.0658 13.3841 -5.82238
H 10.198 13.2972 -6.3118
H 11.0069 12.8977 -4.95061
O 13.0801 2.27557 -12.1536
H 12.9563 1.35545 -11.782
H 12.508 2.38661 -12.9662
O -1.2314 -0.782066 -12.729
H -0.910514 -0.00124611 -12.193
H -0.825497 -0.748726 -13.6423
O 8.26954 10.6542 3.34392
H 9.09187 10.3867 2.84165
H 8.33993 10.3393 4.29045
O -7.11408 3.34495 9.07257
H -7.91682 3.88984 9.3149
H -6.62728 3.08017 9.905
O 1.52141 6.24529 3.50316
H 2.30919 6.40206 4.09885
H 1.82738 5.82199 2.65039
O -14.8202 7.80629 -5.29199
H 14.4246 8.3043 -4.71903
H -14.5833 8.36287 -6.08828
O -14.9166 -14.5432 -10.0002
H -14.6904 14.3785 -10.0096
H -14.2486 -14.0512 -9.44182
O 3.09538 -8.49125 14.038
H 2.23991 -8.99519 13.9187
H 3.56545 -8.41959 13.1582
O 3.28671 -4.13737 7.2488
H 4.27768 -4.06522 7.13572
H 2.85573 -3.28028 6.96653
O -2.57898 3.11586 14.1973
H -2.18698 3.55598 13.3894
H -2.55451 2.12295 14.0808
O 9.58998 -0.0694069 5.1475
H 9.56256 -0.581216 6.00617
H 10.0239 0.818169 5.30221
O -1.73382 -9.81614 5.30343
H -1.39196 -10.0477 6.2142
H -1.38046 -10.4734 4.63769
O -0.370304 -5.31779 2.51474
H -1.2525 -5.16928 2.06786
H -0.0401494 -6.2377 2.30316
O -10.6958 3.86118 -1.86699
H -10.5643 4.23862 -2.78364
H -10.1887 3.00335 -1.78378
O -13.2534 11.2426 -0.611235
H -13.2806 11.5407 -1.56536
H -14.1845 11.1993 -0.248849
O 14.513 1.25018 3.97331
H 14.3671 1.65255 3.06952
H 13.7001 0.734125 4.24354
O -0.925289 4.89554 -5.46427
H -0.385732 4.11767 -5.14207
H -1.26071 5.4165 -4.67934
O 3.44734 -9.82688 -0.170165
H 2.63195 -9.47296 -0.628309
H 3.32662 -10.8013 0.0194889
O -2.60174 -9.12105 -11.4431
H -3.44411 -9.50559 -11.0655
H -1.83597 -9.33682 -10.8372
O -7.85241 -1.81865 4.91301
H -7.23323 -1.03342 4.90559
H -7.42896 -2.57228 5.41574
O 13.2698 -5.27874 4.53057
H 13.8977 -4.51659 4.37284
H 13.7825 -6.06902 4.86614
O 5.67588 2.31941 5.94061
H 5.20674 2.51775 6.80118
H 5.16384 2.7214 5.1815
O -11.6906 9.27337 0.706618
H -11.9326 9.75468 -0.135897
H -11.4061 9.93621 1.3992
O 6.99212 -0.0226717 -13.952
H 7.1375 0.230395 -12.9956
H 7.77021 0.284388 -14.5
O 5.70481 13.4103 13.4636
H 5.39047 13.8929 14.2811
H 5.59662 12.425 13.5959
O 9.28568 2.26064 -8.67677
H 8.95445 2.38132 -7.74096
H 9.78185 1.39514 -8.74572
O 9.49789 -7.35523 -10.3518
H 9.60979 -6.6163 -9.68734
H 9.56907 -6.98445 -11.2778
O -13.3792 -10.4892 11.9336
H -12.7377 -9.72663 12.017
H -13.4062 -10.7997 10.9834
O 8.35118 12.3606 13.2218
H 7.60058 13.0205 13.2568
H 8.0743 11.5694 12.6766
O -6.99909 -13.4432 -5.18866
H -7.61398 -13.1071 -5.90208
H -7.09959 -12.8791 -4.36907
O 9.92723 3.28643 7.79567
H 10.0178 2.82697 8.67925
H 8.98721 3.60806 7.68201
O -10.9875 1.63695 -8.06574
H -11.9734 1.78623 -8.14082
H -10.5783 2.3758 -7.53031
O -12.0102 -4.97032 3.62978
H -12.0505 -5.20035 2.65742
H -12.3693 -4.04747 3.76914
O 10.824 -4.66907 0.985598
H 10.8084 -5.48206 1.56768
H 11.3477 -4.8631 0.156079
O -6.44378 10.657 -7.97902
H -6.27854 10.4133 -8.9347
H -6.47495 11.6525 -7.8895
O -7.49904 -1.89072 2.18267
H -7.64026 -2.0354 3.16203
H -7.85638 -2.67467 1.67499
O -0.156136 -10.526 7.64371
H 0.506725 -11.2019 7.32167
H -0.293513 -10.6366 8.62805
O 11.3097 10.0595 4.78922
H 11.8391 10.2379 5.61863
H 10.4807 9.55256 5.02551
O -13.4037 9.80041 -8.15423
H -14.3918 9.66581 -8.22902
H -13.0789 10.3286 -8.93881
O -7.51101 -5.38879 -10.6433
H -8.1128 -4.62718 -10.8838
H -7.01102 -5.16709 -9.80616
O -2.64116 -5.0063 6.86772
H -1.6967 -4.95048 6.54386
H -3.25499 -4.63552 6.17076
O 0.135076 -0.583549 2.82274
H 0.691973 0.227663 2.64436
H -0.833498 -0.337367 2.78703
O 14.5305 -6.91749 -12.7995
H 14.2109 -6.67065 -13.7143
H -14.3769 -6.77675 -12.7423
O 12.0574 -1.4866 14.1374
H 12.2902 -2.4188 13.8602
H 11.1002 -1.30174 13.9145
O 5.86166 7.89061 -13.4882
H 5.20544 7.38889 -12.9246
H 6.73981 7.41223 -13.483
O 9.50155 3.90276 -5.00104
H 8.78727 4.59577 -5.09878
H 10.3569 4.34211 -4.72653
O -4.44068 -3.13275 -12.133
H -3.51513 -3.32815 -11.8087
H -4.46013 -3.17704 -13.1318
O -7.14374 0.0917232 -6.74002
H -6.98483 0.976749 -7.17762
H -7.9035 0.170645 -6.09461
O 6.84921 6.90414 -3.16765
H 7.38744 6.36538 -2.51953
H 6.77553 7.84546 -2.83825
O 0.358364 9.99916 0.513439
H -0.244478 10.7856 0.647863
H 0.628355 9.63027 1.40285
O -1.07489 -6.75809 11.0471
H -1.88191 -6.22519 11.3015
H -1.03201 -7.58579 11.6066
O -11.0105 -11.7242 -1.79785
H -11.9706 -11.8106 -1.53188
H -10.9526 -11.3222 -2.71168
O -12.9203 -14.4954 10.9878
H -12.0776 -14.0481 11.2876
H -12.7263 14.4484 10.7508
O 13.926 4.80587 9.5814
H 14.2938 3.92323 9.87423
H 14.0849 5.48687 10.2962
O 14.9258 10.7244 10.7665
H 14.9075 10.0367 10.0407
H -14.867 10.2716 11.6521
O -0.888054 7.14121 6.37791
H -0.161076 6.46268 6.48333
H -1.30092 7.32858 7.26923
O 6.70375 -2.44526 3.15222
H 6.64253 -1.68179 3.79517
H 7.62479 -2.83356 3.18258
O 13.6917 -2.76442 8.74457
H 14.3238 -2.04142 8.4658
H 14.1975 -3.48468 9.21928
O -11.0893 14.2626 6.52296
H -10.4737 13.4828 6.63739
H -11.9199 13.9652 6.05222
O 5.88371 -10.3581 8.45793
H 5.74028 -10.5778 9.42291
H 5.0773 -9.88748 8.09979
O -9.29483 13.8808 -5.33782
H -8.83629 13.9435 -6.22429
H -8.80055 14.4337 -4.66703
O 3.96045 -1.08585 -9.93054
H 4.11131 -1.79602 -10.6182
H 4.60709 -1.20824 -9.17761
O 13.6164 -10.9762 4.03034
H 13.5231 -11.5449 3.2131
H 13.436 -11.5293 4.84369
O -3.83837 12.0662 6.9636
H -3.37088 12.8822 6.62347
H -3.21085 11.288 6.93917
O 10.3968 3.68362 -10.7751
H 10.0416 3.41695 -9.87917
H 10.9421 2.93568 -11.1536
O 5.65887 10.6769 14.0864
H 4.95294 9.97188 14.0182
H 6.41108 10.3416 14.6536
O -4.39704 -12.2196 9.64466
H -4.07755 -11.3919 9.18329
H -4.45194 -12.969 8.98476
O -5.04567 -0.388313 6.53015
H -4.68745 0.475642 6.88408
H -4.29182 -1.0313 6.39492
O 11.7999 -6.21919 10.4406
H 12.5456 -6.40573 11.0802
H 11.8992 -6.8017 9.63381
O 13.6381 -13.675 -1.94685
H 13.4745 -14.3394 -2.67619
H 14.4309 -13.96 -1.40809
O -0.577276 13.1778 1.11094
H -1.25369 12.6899 0.559224
H -1.00428 13.9792 1.52986
O -9.46341 10.8148 -6.51395
H -9.18805 9.85974 -6.62382
H -10.3912 10.8536 -6.14295
O 8.49356 -1.8332 -5.86964
H 7.73347 -1.27065 -5.54434
H 9.32994 -1.28532 -5.88749
O -11.5945 -9.49336 -8.0282
H -12.0912 -10.2724 -8.41081
H -12.2083 -8.9601 -7.44603
O -10.2995 -5.29373 -8.34126
H -10.045 -6.24678 -8.50544
H -11.0652 -5.2591 -7.69891
O 4.42151 5.9375 -12.1085
H 4.76297 5.38176 -11.3505
H 3.58025 6.40069 -11.8297
O 10.0223 4.12158 1.62009
H 10.9889 4.36071 1.713
H 9.4785 4.6838 2.24313
O -13.06 -2.8558 -1.48473
H -13.5802 -2.85776 -2.33878
H -13.3016 -2.04661 -0.94914
O 2.56433 2.63626 8.59738
H 3.40057 2.10216 8.72167
H 2.47053 2.8894 7.63449
O -6.43418 -0.502672 -14.8124
H -6.06549 -0.893158 14.2398
H -5.69491 -0.382545 -14.1497
O 7.09447 13.5245 -5.78063
H 6.60263 13.9165 -6.55813
H 6.84176 12.5625 -5.67699
O -0.154952 10.1379 12.4621
H -0.325141 11.0048 11.9935
H 0.389425 10.3047 13.2842
O 0.788028 -8.91438 -0.827539
H 0.750901 -8.35313 -1.65436
H 0.714674 -9.88008 -1.07664
O 5.68809 9.59458 3.25855
H 5.259 8.87123 3.79953
H 6.65783 9.65674 3.4947
O -2.41348 9.61723 5.97444
H -1.46431 9.32659 5.85352
H -3.01129 8.81563 5.96515
O 7.76958 5.32503 2.81902
H 7.39959 5.88651 2.07885
H 7.31265 4.43553 2.823
O -6.79938 -10.0301 11.9345
H -7.51658 -10.0348 11.2376
H -7.12592 -9.54478 12.7456
O -11.7844 0.214758 -0.416013
H -11.4464 1.03697 0.0419299
H -12.7467 0.0748564 -0.182419
O 2.39669 14.5743 -6.28428
H 2.69932 13.8675 -5.64489
H 3.00669 -14.5315 -6.22109
O -3.32392 -9.76368 8.97768
H -4.02702 -9.13856 9.31663
H -2.42137 -9.35452 9.11191
O 4.51577 4.87132 -14.6054
H 4.6969 5.35117 -13.7469
H 5.0743 5.26859 14.5622
O -2.52943 8.04533 -6.58383
H -2.89213 7.1783 -6.24218
H -1.75739 8.33061 -6.01586
O -2.03988 -3.11524 13.7814
H -1.13964 -3.30676 14.1725
H -2.29707 -3.85452 13.1591
O 9.18759 5.68187 12.511
H 8.84439 5.02557 11.8391
H 9.03886 6.61182 12.1748
O 3.76136 7.2535 5.57153
H 4.20318 8.12792 5.77204
H 3.92323 6.6175 6.32606
O 0.223398 -0.0731662 14.7366
H 0.677423 0.591082 14.1428
H 0.836423 -0.324261 -14.41
O -1.75709 13.9214 -13.1066
H -2.16919 14.3018 -13.9346
H -0.762922 13.8946 -13.2112
O -13.8881 -3.89041 -6.85731
H -13.9048 -4.86826 -7.06603
H -13.02 -3.65791 -6.41873
O -5.55795 12.8354 -11.0689
H -5.76692 11.9382 -11.4579
H -4.60175 12.8576 -10.777
O -13.754 -12.2995 -2.03379
H -14.3959 -12.9267 -2.47481
H -14.0075 -12.1839 -1.0734
O 1.45573 -1.98463 6.15591
H 0.688468 -2.59262 5.95175
H 2.11706 -2.01937 5.40661
O 0.534652 1.04708 -8.46673
H 0.83247 1.14965 -9.41583
H 0.333377 1.94764 -8.08137
O 5.21264 -4.79466 -5.28186
H 4.66151 -4.3698 -6.00003
H 4.6376 -5.40588 -4.73803
O 9.09609 1.25952 -14.7094
H 9.06035 2.24921 -14.5707
H 10 0.919078 -14.4506
O 14.9315 -7.09746 8.89102
H 14.8669 -6.18994 9.30604
H 14.0124 -7.46387 8.74594
O -1.97285 11.4199 9.98098
H -2.39319 12.127 9.41236
H -1.13131 11.0992 9.54628
O 5.08502 -9.03395 -12.5966
H 4.83434 -8.70271 -13.5063
H 6.07392 -9.17657 -12.5547
O -12.2499 0.0132363 -14.2438
H -12.1363 0.0212126 -13.2503
H -11.3625 -0.137361 -14.6795
O 6.97724 4.03593 -13.7122
H 7.19192 3.69434 -12.7972
H 6.03082 3.80692 -13.94
O -14.1335 -2.09965 11.5465
H -14.8274 -1.39519 11.3972
H -13.3075 -1.8681 11.0325
O 4.88164 13.9727 -11.8045
H 5.50383 14.4678 -11.1981
H 5.36989 13.7021 -12.6342
O 12.107 4.7326 7.50174
H 12.5361 4.83195 8.39952
H 11.2376 4.24828 7.59962
O -5.51242 -6.37794 -14.6853
H -5.25696 -6.07581 -13.7669
H -6.29771 -6.99433 -14.6271
O -10.0957 -10.8001 13.5556
H -10.2954 -10.0224 14.1518
H -10.5423 -10.6653 12.6711
O -0.273197 14.1331 7.67659
H -0.554515 -14.8539 7.9851
H -0.94316 13.7808 7.02315
O 5.60029 -7.93876 -10.1711
H 6.29571 -8.38765 -9.60998
H 5.42207 -8.49069 -10.9858
O -6.6774 6.00637 -0.537812
H -6.21057 6.75971 -0.074587
H -7.0151 6.31909 -1.42561
O -6.88423 14.5239 4.64154
H -6.1283 -14.7224 4.5593
H -6.81762 14.0439 5.51631
O -12.4103 -7.26006 -3.27223
H -11.9121 -8.00399 -2.82688
H -11.9822 -6.38655 -3.04054
O 6.21362 7.45996 -9.25208
H 5.609 8.25389 -9.31632
H 5.81051 6.78296 -8.63629
O -14.8618 -4.56283 10.3923
H 14.7612 -5.12713 11.1715
H -14.6867 -3.62841 10.7025
O -10.2466 -2.86307 4.78025
H -10.2143 -3.78077 4.38426
H -9.31862 -2.49668 4.84846
O -2.00424 -7.17359 -8.44862
H -2.23123 -6.30519 -8.88948
H -2.65461 -7.35265 -7.7104
O -14.4035 5.96668 -8.2366
H -13.5672 6.42138 -7.93008
H -14.2071 5.42225 -9.05212
O -12.2434 14.8249 3.45736
H -11.7815 14.1585 4.04268
H -13.2005 14.9059 3.7355
O 0.241948 -11.3438 -2.13306
H -0.143441 -11.9324 -1.42236
H 0.20018 -11.8144 -3.01443
O 1.61351 -13.4278 13.2762
H 1.54598 -13.8818 12.3877
H 0.695526 -13.2639 13.6374
O -4.76412 4.17889 -2.66227
H -4.64095 3.51579 -3.40061
H -5.51003 3.88016 -2.06696
O 5.57623 -1.10181 7.13467
H 5.91392 -0.840462 6.23041
H 5.81055 -2.05716 7.31467
O -4.31318 10.116 11.0912
H -3.46587 10.469 10.6943
H -5.04391 10.1598 10.4099
O -9.8754 3.41646 5.1453
H -9.73069 2.81371 4.36058
H -10.2952 4.27011 4.83695
O -6.58285 13.2408 9.46067
H -5.93154 13.9897 9.33782
H -6.10152 12.3666 9.39702
O 4.15572 -14.6843 0.670719
H 3.36529 -14.9423 1.22627
H 4.80097 -14.1642 1.23037
O -2.08922 11.7828 4.1652
H -2.36239 11.0051 4.73143
H -1.19597 11.5989 3.75494
O -2.41408 -14.1148 2.39221
H -3.05515 -14.8796 2.32779
H -2.68198 -13.4 1.74623
O -7.17973 -10.2019 -5.79424
H -8.00827 -10.7335 -5.97003
H -6.58377 -10.7095 -5.17199
O -0.613864 -6.27479 -11.9671
H -0.69196 -6.99509 -11.2778
H -0.751513 -6.66732 -12.8765
O 13.6955 2.3835 -5.67898
H 13.0152 2.36948 -4.94615
H 13.3613 1.84765 -6.45433
O 2.16785 -9.41234 -8.8314
H 2.52495 -9.5658 -9.75279
H 1.63206 -10.2066 -8.54501
O 8.87337 -14.037 5.72251
H 8.34579 -13.4086 6.29416
H 9.21207 -13.5504 4.91717
O 14.8943 3.00944 -1.38437
H -14.6021 3.92474 -1.43694
H -14.6517 2.44955 -2.13551
O 10.3683 -4.54629 5.54002
H 10.5177 -4.22321 6.47453
H 11.2221 -4.91798 5.17537
O -0.853826 7.54112 3.54896
H -0.855673 7.65613 4.54233
H 0.0289224 7.17237 3.25775
O -7.96128 14.2445 11.4959
H -7.37829 13.7291 10.8678
H -7.60334 -14.723 11.5971
O -11.8935 -14.7598 -5.74618
H -11.9461 -14.0685 -6.4669
H -10.9514 14.8108 -5.66432
O 6.67399 -2.64973 -14.7647
H 6.73246 -1.70566 -14.4401
H 6.87472 -3.2746 -14.0102
O 0.599765 -14.8404 -8.9286
H 0.908773 14.3754 -9.59357
H 1.18185 -14.8799 -8.11642
O -2.92934 -5.0452 -10.0212
H -3.08842 -5.50298 -10.8959
H -2.49666 -4.15829 -10.183
O 13.3588 5.21348 -2.86512
H 12.8307 5.65982 -3.58759
H 12.9068 4.36191 -2.5995
O 5.72815 -5.83606 11.025
H 4.93529 -5.23933 10.9013
H 6.20346 -5.94411 10.1519
O -2.71321 -0.426894 3.40761
H -3.4257 0.221256 3.13876
H -3.01281 -0.935732 4.21466
O -10.938 -5.13042 -11.0586
H -10.3199 -4.34689 -11.1229
H -10.8996 -5.51033 -10.1344
O 9.56831 13.1647 -11.4519
H 10.1417 13.3519 -12.2495
H 10.0233 13.5021 -10.6278
O -6.18462 -5.08175 -1.64944
H -6.91463 -4.41084 -1.77983
H -5.45659 -4.67863 -1.09492
O 12.1852 11.9092 -8.16921
H 12.5235 11.1628 -7.59614
H 11.6664 12.5527 -7.60639
O 10.5316 10.5729 -12.489
H 9.66444 10.1243 -12.2728
H 10.4647 11.5477 -12.2761
O 11.9566 5.64008 12.7366
H 10.9574 5.6466 12.777
H 12.2682 4.78053 12.3315
O -5.12886 4.27304 7.43307
H -5.67053 4.45508 6.61242
H -5.73533 3.99413 8.17766
O -13.109 -6.35189 -7.08079
H -13.4729 -6.707 -7.94192
H -13.2765 -7.01371 -6.35005
O -13.967 1.85857 -11.0909
H -14.1912 1.44938 -10.2064
H -14.7362 1.7381 -11.7185
O -11.8029 2.98628 7.28936
H -11.1213 3.1409 6.57411
H -12.6459 2.64055 6.87731
O -4.57018 -9.7895 1.3533
H -5.33813 -9.20999 1.08046
H -3.71068 -9.31416 1.16536
O 6.0631 7.51465 9.39587
H 5.89216 7.50162 8.41067
H 5.27416 7.91051 9.86585
O 2.65503 4.71892 1.35927
H 2.9186 4.74337 0.394933
H 3.36705 4.25663 1.8878
O 2.56177 8.24233 -3.59547
H 2.22457 8.39265 -2.66611
H 1.79908 8.29795 -4.23985
O -12.3541 11.7035 12.9954
H -11.9551 12.5818 13.2588
H -12.3439 11.6182 11.9991
O -10.3104 -1.55769 11.7923
H -11.0387 -1.28774 11.1625
H -10.6174 -2.33303 12.3442
O 11.5424 5.86295 -4.82844
H 11.0353 6.66426 -5.14588
H 12.2021 5.58744 -5.52769
O -4.3266 13.8463 1.40074
H -4.59999 13.0395 1.92444
H -4.22351 13.5992 0.437266
O -2.07112 9.33542 -11.1344
H -1.69804 8.46783 -10.8055
H -2.78001 9.6534 -10.5048
O 1.99304 -8.41358 3.83372
H 2.79765 -8.40063 3.24004
H 2.062 -7.67534 4.50473
O 1.78824 13.1758 14.7239
H 2.45763 13.9187 14.7132
H 1.40447 13.0862 -14.2528
O -1.82089 1.71858 9.43902
H -2.45592 1.74404 10.2111
H -2.3325 1.80139 8.58379
O -12.2966 -0.960089 9.94116
H -12.5818 -1.15537 9.00279
H -12.2813 0.0292793 10.0858
O -9.96406 1.72209 2.88071
H -9.13745 1.47057 2.37725
H -10.1793 1.00749 3.54631
O -4.56104 -14.2817 7.65259
H -5.09955 -13.5831 7.18142
H -3.66497 -14.3625 7.21607
O -8.29605 -6.9411 10.8026
H -7.92659 -7.60321 10.1506
H -8.40458 -6.05482 10.3523
O -4.57585 11.6495 2.87312
H -5.08423 11.4957 3.72041
H -3.5959 11.6697 3.07137
O -2.46937 5.67527 1.2894
H -1.51576 5.38052 1.22803
H -2.53413 6.4713 1.8912
O -2.42068 6.95703 -9.81066
H -2.76825 7.38592 -8.97684
H -3.15954 6.455 -10.2602
O -12.1068 -8.0336 11.7005
H -11.432 -8.70843 11.4017
H -12.2327 -7.34799 10.9835
O 7.12561 -6.26429 -14.1409
H 7.34442 -5.73765 14.9334
H 6.87868 -7.19816 -14.3997
O 9.18464 -4.96669 -2.11547
H 9.65592 -5.8486 -2.12764
H 8.82852 -4.76646 -3.02821
O -4.86183 5.88246 -4.75004
H -4.6899 5.31394 -3.94552
H -4.32129 5.54292 -5.51981
O -13.1222 -11.2476 -9.57895
H -14.112 -11.3618 -9.49315
H -12.9254 -10.5585 -10.2764
O -14.1486 -7.60955 13.5459
H -13.4577 -7.89199 12.8804
H -14.4967 -8.41422 14.027
O -14.7547 -3.31028 2.59535
H 14.2364 -2.88778 2.53938
H -14.6319 -3.93811 1.82673
O -14.5758 7.02595 -12.2469
H -14.3973 6.07185 -12.0064
H 14.5474 7.36596 -11.7106
O -2.7849 12.9931 -10.8071
H -2.38053 13.5778 -11.5104
H -2.35432 13.1858 -9.92533
O -11.3756 14.1793 13.9344
H -11.7725 14.1656 14.8522
H -10.5284 13.6481 13.9296
O 13.2605 1.1521 -8.39003
H 13.5288 0.283672 -8.80703
H 12.6402 1.63938 -9.00461
O 9.721 -2.60059 -12.5924
H 10.4233 -3.04439 -12.0358
H 8.81621 -2.8935 -12.2833
O -14.3404 -14.0973 -12.7898
H -13.5784 -14.5889 -13.2114
H -14.4223 -14.3685 -11.8308
O -5.80939 10.9225 5.22767
H -6.59964 10.8569 5.83695
H -5.02927 11.2924 5.73225
O 5.8638 -5.78734 2.63162
H 6.33841 -5.63094 1.76542
H 4.94166 -5.40385 2.5804
O -2.99404 -11.5169 14.6766
H -2.5208 -10.819 -14.6815
H -3.95463 -11.2604 14.5693
O -1.47067 -13.2159 8.3688
H -1.44372 -12.2545 8.09521
H -1.20741 -13.2964 9.33017
O -7.28087 10.1723 -2.01215
H -6.58898 9.95607 -1.32328
H -7.88528 9.3853 -2.13599
O -2.64193 0.268862 13.9546
H -3.13061 -0.596082 14.0689
H -1.68429 0.147704 14.2159
O 1.1511 7.20138 -5.90817
H 1.70917 7.19132 -6.73791