LAMMPS (15 May 2015)
Reading data file ...
  triclinic box = (-0.107635 -0.0404339 -0.357111) to (41.3876 35.9384 29.5551) with tilt (-0.0672341 -17.0362 -0.0417078)
  5 by 2 by 2 MPI processor grid
  reading atoms ...
  4560 atoms
  reading velocities ...
  4560 velocities
  scanning bonds ...
  3 = max bonds/atom
  scanning angles ...
  3 = max angles/atom
  scanning dihedrals ...
  8 = max dihedrals/atom
  scanning impropers ...
  1 = max impropers/atom
  reading bonds ...
  5040 bonds
  reading angles ...
  7200 angles
  reading dihedrals ...
  10560 dihedrals
  reading impropers ...
  2400 impropers
Finding 1-2 1-3 1-4 neighbors ...
 Special bond factors lj:   0          0          0         
 Special bond factors coul: 0          0          0         
  4 = max # of 1-2 neighbors
  8 = max # of 1-3 neighbors
  20 = max # of 1-4 neighbors
  16 = max # of special neighbors
4560 atoms in group all
720 atoms in group C
480 atoms in group S
1920 atoms in group H
720 atoms in group Si
240 atoms in group Na
240 atoms in group Ba
240 atoms in group O
4560 atoms in group naphthalene
1200 atoms in group fixed
960 atoms in group CO
Setting atom values ...
  720 settings made for charge
Setting atom values ...
  720 settings made for charge
Setting atom values ...
  1920 settings made for charge
Setting atom values ...
  480 settings made for charge
Setting atom values ...
  240 settings made for charge
Setting atom values ...
  240 settings made for charge
Setting atom values ...
  240 settings made for charge
Finding 1-2 1-3 1-4 neighbors ...
 Special bond factors lj:   0          0          0.5       
 Special bond factors coul: 0          0          0.5       
  4 = max # of 1-2 neighbors
  8 = max # of 1-3 neighbors
  20 = max # of 1-4 neighbors
  16 = max # of special neighbors
PPPM initialization ...
  G vector (1/distance) = 0.253736
  grid = 20 18 24
  stencil order = 5
  estimated absolute RMS force accuracy = 0.00131269
  estimated relative force accuracy = 3.95312e-06
  using double precision FFTs
  3d grid and FFT values/proc = 3344 720
Neighbor list info ...
  6 neighbor list requests
  update every 1 steps, delay 0 steps, check yes
  master list distance cutoff = 12
Setting up run ...
Memory usage per processor = 14.3555 Mbytes
Step Temp Density PotEng E_vdwl E_tail E_coul E_long Press Volume Xy Xz Yz E_mol E_bond E_angle E_dihed 14[1] 14[2] 14[3] msd[4] msd2[4] msd3[4] msd4[4] naphthal Cella Cellb Cellc CellAlpha CellBeta CellGamma 27[1] 27[2] 27[3] 
       0          298    1.2509986    2249.3316    -1011.635   -182.35337    2133.4636   -2371.3301   -1521.3139    44657.537 -0.067234084   -17.036218 -0.041707817     3498.833    1521.0094     935.4334    889.67826    28.379601    18.846571    14.337846 2.3535127e-29 2.7422013e-29 2.2534249e-29 2.2900766e-29          298     41.49527    35.978931    34.423473    90.016431    119.66323    90.107069    28.379761    18.846182    14.337739 
   10000    292.92549    1.2509986    2416.8738   -983.94675   -182.35337    2132.1665   -2371.5409   -1942.2316    44657.537 -0.067234084   -17.036218 -0.041707817     3640.195    1580.2254    987.78873    919.07121    28.377723     18.84635    14.337177 0.00031842124 0.00031817506 0.00032653975 0.0003258582    292.92549     41.49527    35.978931    34.423473    90.016431    119.66323    90.107069    28.379763    18.846558    14.337416 
   20000    299.96241    1.2509986     2347.308   -987.45272   -182.35337     2139.828   -2371.3314    924.36278    44657.537 -0.067234084   -17.036218 -0.041707817    3566.2641    1488.0599    979.53115     936.1416    28.380783    18.844771    14.337849 0.00031912378 0.00031897033 0.00033239103 0.00033217019    299.96241     41.49527    35.978931    34.423473    90.016431    119.66323    90.107069    28.380017    18.846464    14.337648 
   30000    298.88269    1.2509986     2276.938   -1009.3333   -182.35337    2135.3385   -2371.8338   -1947.0646    44657.537 -0.067234084   -17.036218 -0.041707817    3522.7666    1558.8061    938.04824    874.01114    28.380474     18.84562     14.33734 0.00032895185 0.00032894738 0.00033559249 0.00033545854    298.88269     41.49527    35.978931    34.423473    90.016431    119.66323    90.107069    28.379795    18.846159    14.337687 
   40000    299.30553    1.2509986    2340.4946   -991.42187   -182.35337    2138.5798   -2371.6055   -769.02656    44657.537 -0.067234084   -17.036218 -0.041707817    3564.9422    1553.9772    921.62613    929.47859    28.382932    18.843908    14.338108 0.00034300099 0.00034291519 0.00034671741 0.00034631693    299.30553     41.49527    35.978931    34.423473    90.016431    119.66323    90.107069    28.380051    18.846204    14.337772 
   50000    300.55912    1.2509986    2277.3806   -990.34006   -182.35337    2137.5003   -2371.7166    761.20478    44657.537 -0.067234084   -17.036218 -0.041707817    3501.9369    1485.0893    931.58881    923.45478    28.378436    18.846144    14.337564 0.00034218268 0.00034209968 0.00035015766 0.00034993023    300.55912     41.49527    35.978931    34.423473    90.016431    119.66323    90.107069    28.379527     18.84611    14.337891 
   60000    296.79233    1.2509986    2276.1584    -1015.363   -182.35337    2136.7239   -2371.2792   -1735.6365    44657.537 -0.067234084   -17.036218 -0.041707817    3526.0767    1533.1649    917.85415    914.67422    28.380549     18.84674    14.337938 0.0003328671 0.00033285889 0.00034698763 0.00034696687    296.79233     41.49527    35.978931    34.423473    90.016431    119.66323    90.107069    28.379839    18.846156    14.337702 
   70000      300.598    1.2509986    2320.2168   -996.50147   -182.35337    2139.4487   -2371.3818     327.8964    44657.537 -0.067234084   -17.036218 -0.041707817    3548.6515    1542.5117    958.31147    888.11889    28.379857    18.845618    14.337668 0.00032893835 0.00032883319 0.00034001061 0.00033986716      300.598     41.49527    35.978931    34.423473    90.016431    119.66323    90.107069    28.380011     18.84612    14.337936 
   80000    292.33034    1.2509986    2239.5554   -1008.0298   -182.35337    2135.5109   -2371.8102   -1408.0953    44657.537 -0.067234084   -17.036218 -0.041707817    3483.8844    1543.8214    919.37939    870.49466    28.381102    18.844662    14.337558 0.00033224912 0.00033175958 0.00034407985 0.00034344389    292.33034     41.49527    35.978931    34.423473    90.016431    119.66323    90.107069    28.379869    18.845492    14.337697 
   90000    301.99287    1.2509986    2307.1506   -991.80561   -182.35337    2135.6938   -2371.9049   -575.80086    44657.537 -0.067234084   -17.036218 -0.041707817    3535.1673    1529.0846    969.24451    886.73053    28.379887    18.844769    14.336471 0.00034576857 0.00034527325 0.00035351573 0.0003526888    301.99287     41.49527    35.978931    34.423473    90.016431    119.66323    90.107069    28.379292    18.845919    14.337285 
  100000    300.31324    1.2509986    2244.8725   -990.83242   -182.35337    2136.5769   -2371.5977   -534.42586    44657.537 -0.067234084   -17.036218 -0.041707817    3470.7258     1550.384     896.8999     873.1246    28.380353    18.846678    14.336351 0.00033269989  0.000332643 0.00033038925 0.00033010494    300.31324     41.49527    35.978931    34.423473    90.016431    119.66323    90.107069    28.379894    18.846036    14.337605 
  110000    294.58568    1.2509986    2245.6887   -1007.4855   -182.35337     2133.092    -2371.486    -1359.035    44657.537 -0.067234084   -17.036218 -0.041707817    3491.5682     1551.325    888.47566    896.05265    28.378695    18.844889    14.337063 0.00033939376 0.00033917725 0.0003456938 0.00034562514    294.58568     41.49527    35.978931    34.423473    90.016431    119.66323    90.107069    28.379717    18.846149    14.338201 
  120000    297.29783    1.2509986     2240.054   -997.62282   -182.35337    2131.8813   -2372.0908   -661.80173    44657.537 -0.067234084   -17.036218 -0.041707817    3477.8863    1515.0518    926.09816    881.14824    28.378323      18.8468    14.336571 0.00034309437 0.00034304066 0.00035148657 0.00035141287    297.29783     41.49527    35.978931    34.423473    90.016431    119.66323    90.107069    28.379537    18.846215    14.337789 
  130000    296.12009    1.2509986    2279.5159   -988.16172   -182.35337    2134.3032    -2371.601   -719.22316    44657.537 -0.067234084   -17.036218 -0.041707817    3504.9755    1563.8807     937.7962    853.18236    28.379698    18.845063    14.338028 0.0003594224 0.00035923674 0.00036546729 0.00036526726    296.12009     41.49527    35.978931    34.423473    90.016431    119.66323    90.107069    28.379391    18.846403    14.337755 
  140000    294.89371    1.2509986     2258.745   -994.90974   -182.35337    2132.4813   -2371.8492   -1642.8824    44657.537 -0.067234084   -17.036218 -0.041707817    3493.0226    1476.9096    967.12678      890.822    28.377911     18.84481    14.337447 0.00033961349 0.00033958181 0.0003491032 0.00034907268    294.89371     41.49527    35.978931    34.423473    90.016431    119.66323    90.107069    28.379656    18.846072    14.337646 
  150000     295.9405    1.2509986    2236.7944   -1004.8696   -182.35337    2138.1166   -2371.6505    86.546109    44657.537 -0.067234084   -17.036218 -0.041707817    3475.1978    1522.3205    926.35765    871.87926    28.379717    18.845309    14.337147 0.00032251938 0.00032243072 0.0003345749 0.00033445135     295.9405     41.49527    35.978931    34.423473    90.016431    119.66323    90.107069    28.379812    18.846475    14.337731 
  160000    292.27476    1.2509986    2262.1881   -1023.3954   -182.35337    2135.0682   -2371.6035   -2716.8622    44657.537 -0.067234084   -17.036218 -0.041707817    3522.1188    1547.4078    917.49739    895.67301    28.379358    18.844539    14.336072 0.00034426849 0.00034299714 0.00034966421 0.00034776355    292.27476     41.49527    35.978931    34.423473    90.016431    119.66323    90.107069    28.380722    18.846114    14.337153 
  170000    301.58177    1.2509986    2299.3116   -996.21552   -182.35337    2137.0487    -2371.674   -313.32694    44657.537 -0.067234084   -17.036218 -0.041707817    3530.1523    1533.1776     969.7765    874.32551    28.380345    18.845566    14.338323 0.00034812844 0.00034795497 0.00035671503 0.00035656768    301.58177     41.49527    35.978931    34.423473    90.016431    119.66323    90.107069    28.379928    18.845807    14.337806 
  180000    304.02151    1.2509986    2243.0724   -992.81997   -182.35337    2129.4082    -2372.061   -1532.2694    44657.537 -0.067234084   -17.036218 -0.041707817    3478.5451    1547.9063    910.33517    868.96776    28.379349    18.845067    14.337712 0.00035999045 0.0003599754 0.0003687872 0.00036868971    304.02151     41.49527    35.978931    34.423473    90.016431    119.66323    90.107069    28.379833    18.846272    14.337696 
  190000    296.97345    1.2509986    2200.3031   -1014.6909   -182.35337    2135.1625     -2372.01   -1321.2002    44657.537 -0.067234084   -17.036218 -0.041707817    3451.8415    1509.5556    928.41969    865.06431    28.379593    18.845374    14.338199 0.00034681662 0.00034665787 0.0003596081 0.0003593964    296.97345     41.49527    35.978931    34.423473    90.016431    119.66323    90.107069    28.379423    18.846211     14.33753 
  200000    296.63976    1.2509986    2218.4728   -1008.7869   -182.35337    2136.5732   -2371.3868   -519.61627    44657.537 -0.067234084   -17.036218 -0.041707817    3462.0734    1516.3298    931.83879     864.1553    28.379859    18.845023    14.337415 0.00034912313 0.00034885106 0.00034789172 0.00034770709    296.63976     41.49527    35.978931    34.423473    90.016431    119.66323    90.107069    28.379675    18.846053    14.337241 
Loop time of 521.334 on 20 procs for 200000 steps with 4560 atoms

Pair  time (%) = 325.482 (62.4325)
Bond  time (%) = 34.4162 (6.60157)
Kspce time (%) = 117.07 (22.4558)
Neigh time (%) = 5.52421 (1.05963)
Comm  time (%) = 23.708 (4.54757)
Outpt time (%) = 0.0637605 (0.0122303)
Other time (%) = 15.0704 (2.89073)

Nlocal:    228 ave 242 max 222 min
Histogram: 2 7 1 3 3 3 0 0 0 1
Nghost:    5782.85 ave 5846 max 5737 min
Histogram: 1 1 3 5 5 1 2 0 1 1
Neighs:    84320.9 ave 89954 max 81271 min
Histogram: 2 4 3 3 5 1 1 0 0 1

Total # of neighbors = 1686419
Ave neighs/atom = 369.829
Ave special neighs/atom = 10.6316
Neighbor list builds = 1166
Dangerous builds = 0
System init for write_data ...
PPPM initialization ...
  G vector (1/distance) = 0.253736
  grid = 20 18 24
  stencil order = 5
  estimated absolute RMS force accuracy = 0.00131269
  estimated relative force accuracy = 3.95312e-06
  using double precision FFTs
  3d grid and FFT values/proc = 3344 720
