LAMMPS data file via write_data, version 15 May 2015, timestep = 18500000

2593 atoms
6 atom types
1728 bonds
4 bond types
864 angles
3 angle types
0 dihedrals
3 dihedral types
0 impropers
1 improper types

-1.4980469875843450e+01 1.4980469875843450e+01 xlo xhi
-1.4980469875843450e+01 1.4980469875843450e+01 ylo yhi
-1.4980469875843450e+01 1.4980469875843450e+01 zlo zhi

Masses

1 15.9994
2 1.00794
3 12.0107
4 1.00794
5 12.0107
6 12.0107

Bond Coeffs # harmonic

1 1000 1
2 469 1.4
3 367 1.08
4 469 0.7

Angle Coeffs # harmonic

1 100 109.47
2 35 120
3 63 120

Dihedral Coeffs # opls

1 0 7.25 0 0
2 0 7.25 0 0
3 0 7.25 0 0

Improper Coeffs # cvff

1 2.5 -1 2

Atoms # full

1187 396 2 4.0999999999999998e-01 -1.3407119748948874e+01 -9.6950316216189307e+00 -1.0429548227732221e+01 -6 4 -4
1963 655 1 -8.1999999999999995e-01 -5.4310195439871531e+00 -1.0734719488090967e+01 -1.1207023373025724e+01 -9 6 -8
513 171 2 4.0999999999999998e-01 -1.4693468005541231e+01 -1.2102615714993680e+01 -7.6540116131980280e+00 -8 1 -7
2529 843 2 4.0999999999999998e-01 -8.2784492886232179e+00 -1.4907431831899373e+01 -9.6537120657618871e+00 -2 8 -10
2059 687 1 -8.1999999999999995e-01 -1.1240539219649206e+01 -1.2376958161476939e+01 -1.1413649235580891e+01 -7 7 -3
2060 687 2 4.0999999999999998e-01 -1.1721076486797116e+01 -1.2406381650218922e+01 -1.0537222425798806e+01 -7 7 -3
2061 687 2 4.0999999999999998e-01 -1.0420521280871569e+01 -1.1811558812137278e+01 -1.1325332239302945e+01 -7 7 -3
944 315 2 4.0999999999999998e-01 -7.1264224546082726e+00 -8.0674925958571162e+00 -1.3260750573285167e+01 -11 4 -6
157 53 1 -8.1999999999999995e-01 -1.3233046653622743e+01 -1.0824074984725044e+01 -1.2760894975339006e+01 -13 3 -4
159 53 2 4.0999999999999998e-01 -1.2498008069677528e+01 -1.1247532230426547e+01 -1.2231453826712336e+01 -13 3 -4
511 171 1 -8.1999999999999995e-01 -1.4583693223921172e+01 -1.1299109332960294e+01 -8.2390181485123932e+00 -8 1 -7
851 284 2 4.0999999999999998e-01 -9.1228038744876905e+00 -9.6584176268977835e+00 -1.3832131024638096e+01 -7 1 -3
852 284 2 4.0999999999999998e-01 -9.1039762952416332e+00 -8.3546204727342754e+00 -1.2849210142851714e+01 -7 1 -3
850 284 1 -8.1999999999999995e-01 -8.7175001512288333e+00 -8.7572135218452800e+00 -1.3678945418091956e+01 -7 1 -3
2105 702 2 4.0999999999999998e-01 -7.2373540368609115e+00 -1.2937258912546131e+01 -1.2565188547859632e+01 -17 6 -2
1051 351 1 -8.1999999999999995e-01 -1.3327495187006189e+01 -8.1107238630839760e+00 -1.3770995240483405e+01 -5 4 0
512 171 2 4.0999999999999998e-01 -1.4166892271371239e+01 -1.0558060551203290e+01 -7.7126823741699555e+00 -8 1 -7
1052 351 2 4.0999999999999998e-01 -1.4111430546332189e+01 -7.7426069048800006e+00 -1.3271154238793716e+01 -5 4 0
1186 396 1 -8.1999999999999995e-01 -1.4396463340203132e+01 -9.6177887612324291e+00 -1.0306509386662205e+01 -6 4 -4
2417 806 2 4.0999999999999998e-01 -1.2307769423965770e+01 -1.4966362790272951e+01 -1.2923426711704874e+01 -8 6 0
2106 702 2 4.0999999999999998e-01 -8.1058442257370764e+00 -1.1680031518526228e+01 -1.3140930936578346e+01 -17 6 -2
2104 702 1 -8.1999999999999995e-01 -7.2213065087287820e+00 -1.1957884293708336e+01 -1.2766369026527791e+01 -17 6 -2
1849 617 1 -8.1999999999999995e-01 -1.1520753282690851e+01 -9.8209347579769393e+00 -1.0273208579167999e+01 -9 6 -3
1850 617 2 4.0999999999999998e-01 -1.1601079776643472e+01 -8.8333706675269319e+00 -1.0408006757408803e+01 -9 6 -3
787 263 1 -8.1999999999999995e-01 -1.0732750740773870e+01 -1.3448314031996814e+01 -8.4977958111996763e+00 -7 4 -6
1358 453 2 4.0999999999999998e-01 -6.9375685144442638e+00 -9.7379537568324590e+00 -1.0444958436612076e+01 -8 6 -4
1357 453 1 -8.1999999999999995e-01 -7.5846439347948378e+00 -9.3066465549632795e+00 -9.8163304385036199e+00 -8 6 -4
1053 351 2 4.0999999999999998e-01 -1.3283518081056609e+01 -9.1010146284123437e+00 -1.3639480990080864e+01 -5 4 0
1540 514 1 -8.1999999999999995e-01 -9.4707517927788132e+00 -1.0917100139904619e+01 -8.4662895707502699e+00 -11 3 -2
1851 617 2 4.0999999999999998e-01 -1.1010738214341625e+01 -1.0002164145761403e+01 -9.4324075959874847e+00 -9 6 -3
2528 843 2 4.0999999999999998e-01 -7.0161159669271367e+00 -1.4252770311938372e+01 -8.8510240356618670e+00 -2 8 -10
195 65 2 4.0999999999999998e-01 -7.4204097293945352e+00 -7.5967670063936934e+00 -9.1012549709887551e+00 -11 0 -4
1542 514 2 4.0999999999999998e-01 -9.7544768502581221e+00 -1.1844145223391985e+01 -8.7112247510501994e+00 -11 3 -2
268 90 1 -8.1999999999999995e-01 -1.4659444733442745e+01 -1.4392771952839741e+01 -1.3323469493201413e+01 -13 6 -3
1259 420 2 4.0999999999999998e-01 -5.9674269155994182e+00 -1.2814256589878925e+01 -7.8400822584449292e+00 -8 12 -12
1359 453 2 4.0999999999999998e-01 -8.1793345156096073e+00 -1.0005412459054895e+01 -9.4188697478057257e+00 -8 6 -4
1260 420 2 4.0999999999999998e-01 -6.0774419724988373e+00 -1.1992751010326234e+01 -9.2469939558112859e+00 -8 12 -12
1498 500 1 -8.1999999999999995e-01 -9.4358585310032055e+00 -1.4869706522791670e+01 -1.1151281798165321e+01 -3 2 -7
789 263 2 4.0999999999999998e-01 -1.0439677504651856e+01 -1.4191730240509397e+01 -9.0989165641316987e+00 -7 4 -6
1693 565 1 -8.1999999999999995e-01 -9.5212027268783519e+00 -1.1360764299263945e+01 -1.4208718519034685e+01 -13 7 -4
1258 420 1 -8.1999999999999995e-01 -5.9207453529376810e+00 -1.2890773294948817e+01 -8.8360098729932073e+00 -8 12 -12
158 53 2 4.0999999999999998e-01 -1.3374418106406862e+01 -1.1339260923232050e+01 -1.3606177947970336e+01 -13 3 -4
1964 655 2 4.0999999999999998e-01 -6.0286765575315133e+00 -1.1185805519363791e+01 -1.1869770074578897e+01 -9 6 -8
1695 565 2 4.0999999999999998e-01 -1.0234225866844559e+01 -1.1868843026699846e+01 -1.3725645279728486e+01 -13 7 -4
1541 514 2 4.0999999999999998e-01 -9.7710092081996258e+00 -1.0711794792644275e+01 -7.5348386306062451e+00 -11 3 -2
276 92 2 4.0999999999999998e-01 -5.1975082220161077e+00 -1.3951188308783117e+01 -9.9460062530410909e+00 -12 4 -4
1499 500 2 4.0999999999999998e-01 -1.0308635021161093e+01 -1.4889971696301709e+01 -1.1638884379583937e+01 -3 2 -7
1602 534 2 4.0999999999999998e-01 -6.2734975449664372e+00 -1.1391092867987691e+01 -1.4273213004138794e+01 -11 4 -3
1188 396 2 4.0999999999999998e-01 -1.4697926833670461e+01 -1.0270816962800552e+01 -9.6118299643360725e+00 -6 4 -4
788 263 2 4.0999999999999998e-01 -1.1384277095656275e+01 -1.3800222311878491e+01 -7.8257990007039089e+00 -7 4 -6
1600 534 1 -8.1999999999999995e-01 -5.6006387560744084e+00 -1.0864832691382279e+01 -1.4793037025841546e+01 -11 4 -3
2474 825 2 4.0999999999999998e-01 -5.2020625255925239e+00 -7.7991634134189818e+00 -1.1550625453480803e+01 -7 6 -4
2507 836 2 4.0999999999999998e-01 -6.2557959937961236e+00 -8.9322651803653095e+00 -7.9908897268328971e+00 -11 10 -4
2527 843 1 -8.1999999999999995e-01 -7.7070192749383963e+00 -1.4975495043845839e+01 -8.8359462619459297e+00 -2 8 -10
1906 636 1 -8.1999999999999995e-01 -6.2743869635764860e+00 -3.6512645548388907e+00 -1.4820604108933658e+01 -7 5 -2
1548 516 2 4.0999999999999998e-01 -5.5647456955403793e+00 -2.5206823761505621e+00 -9.1901948295249092e+00 -4 4 -8
193 65 1 -8.1999999999999995e-01 -6.9907218664741588e+00 -6.9905110044093526e+00 -8.4321303687403777e+00 -11 0 -4
194 65 2 4.0999999999999998e-01 -6.4699132233620347e+00 -6.2829178962576311e+00 -8.9095987812329920e+00 -11 0 -4
2344 782 1 -8.1999999999999995e-01 -6.8252196550352338e+00 -3.6314016675998584e+00 -1.1579911291503700e+01 -14 4 1
1891 631 1 -8.1999999999999995e-01 -7.2498496298904200e+00 -3.3574583956150583e-01 -1.1925855206627643e+01 -6 4 -4
1547 516 2 4.0999999999999998e-01 -5.2378818864151402e+00 -9.5569174157595782e-01 -9.5223687807180681e+00 -4 4 -8
1165 389 1 -8.1999999999999995e-01 -1.3965240175607942e+01 -1.2227768323027099e-01 -8.0948147794476775e+00 -8 8 -6
1821 607 2 4.0999999999999998e-01 -8.5809658154926005e+00 -8.2655602924007177e-01 -8.1976001539323775e+00 -11 -3 0
2361 787 2 4.0999999999999998e-01 -1.3846326785796766e+01 -1.7884686919099835e-01 -1.2798978722869613e+01 -9 2 -6
2360 787 2 4.0999999999999998e-01 -1.4806888729650455e+01 -6.6749627933985423e-02 -1.4114702845704141e+01 -9 2 -6
943 315 1 -8.1999999999999995e-01 -6.4609885555389575e+00 -7.4351829458904284e+00 -1.2864155111633346e+01 -11 4 -6
945 315 2 4.0999999999999998e-01 -5.8436181247030738e+00 -7.1088826453280634e+00 -1.3579897793663161e+01 -11 4 -6
864 288 2 4.0999999999999998e-01 -1.4018803449627471e+01 -3.8027598293809142e+00 -1.0236913321487654e+01 -6 5 -4
2016 672 2 4.0999999999999998e-01 -1.1491549552508628e+01 -4.5370685881523425e+00 -8.5475069267642745e+00 -7 4 -1
1782 594 2 4.0999999999999998e-01 -1.4649242234799978e+01 -6.9489075347820854e+00 -7.5812844183937003e+00 -14 0 -4
2195 732 2 4.0999999999999998e-01 -5.2861854469192622e+00 -4.3483489455996978e+00 -1.2048084333567454e+01 -12 3 -8
1893 631 2 4.0999999999999998e-01 -6.5431256514439102e+00 -5.7758376850428306e-01 -1.1261053459780646e+01 -6 4 -4
1908 636 2 4.0999999999999998e-01 -6.6469899038012645e+00 -2.7323801487372137e+00 -1.4691281848035029e+01 -7 5 -2
1166 389 2 4.0999999999999998e-01 -1.3990611328692488e+01 -1.1186807267429142e+00 -8.0145461662188850e+00 -8 8 -6
815 272 2 4.0999999999999998e-01 -9.3308628845442758e+00 -3.4692163998058430e+00 -1.0263636819334504e+01 -7 12 -6
123 41 2 4.0999999999999998e-01 -1.0022400709020301e+01 -3.0396494343595002e+00 -1.2775081501624960e+01 -13 8 -3
121 41 1 -8.1999999999999995e-01 -1.0436647887508025e+01 -3.6733406042146992e+00 -1.3428335308333965e+01 -13 8 -3
2014 672 1 -8.1999999999999995e-01 -1.0947959519416663e+01 -5.3512045077489816e+00 -8.7514636707945606e+00 -7 4 -1
862 288 1 -8.1999999999999995e-01 -1.4094971950661087e+01 -4.7677058273251429e+00 -1.0487878114510108e+01 -6 5 -4
828 276 2 4.0999999999999998e-01 -8.6103662386490498e+00 -1.4080469747117998e+00 -1.1254997751406215e+01 -6 2 -5
1843 615 1 -8.1999999999999995e-01 -7.3188784002132676e+00 -1.2523152227959038e+00 -1.4796595518752390e+01 -7 3 -3
1408 470 1 -8.1999999999999995e-01 -1.1817805086193291e+01 -1.3833262255167842e+00 -1.4760718248512829e+01 -9 7 -8
1275 425 2 4.0999999999999998e-01 -1.2818867084938255e+01 -2.4146406023731011e+00 -1.0912106088398911e+01 -10 8 -6
863 288 2 4.0999999999999998e-01 -1.3504741642365635e+01 -4.9555148581283319e+00 -1.1272901516232848e+01 -6 5 -4
1907 636 2 4.0999999999999998e-01 -6.9069712167281008e+00 -4.3243752712697852e+00 -1.4437635586735025e+01 -7 5 -2
2015 672 2 4.0999999999999998e-01 -1.1388557040852023e+01 -5.8715051476043278e+00 -9.4829463292835285e+00 -7 4 -1
1048 350 1 -8.1999999999999995e-01 -1.2395943895404946e+01 -3.2295107706512844e+00 -7.5210256700711708e+00 -10 6 -9
814 272 1 -8.1999999999999995e-01 -9.0384385231109441e+00 -4.3949226650242164e+00 -1.0023925263068286e+01 -7 12 -6
707 236 2 4.0999999999999998e-01 -1.3242464357010604e+01 -5.5466334380119626e+00 -1.3629535475378896e+01 -12 1 -6
1273 425 1 -8.1999999999999995e-01 -1.3310940536473005e+01 -1.7943178076193931e+00 -1.1522818003353848e+01 -10 8 -6
816 272 2 4.0999999999999998e-01 -9.7443606920770129e+00 -4.8340663492960179e+00 -9.4682882502574355e+00 -7 12 -6
824 275 2 4.0999999999999998e-01 -1.0062217467961009e+01 -1.2282079262514323e-01 -1.4604975662047245e+01 -11 2 -2
1892 631 2 4.0999999999999998e-01 -7.0427429563847763e+00 -7.6666465220747781e-01 -1.2804104342145274e+01 -6 4 -4
1855 619 1 -8.1999999999999995e-01 -8.9044663098770442e+00 -6.7972077488260751e+00 -1.1554827544216863e+01 -6 4 -5
1409 470 2 4.0999999999999998e-01 -1.2702598254920696e+01 -1.0500991533009945e+00 -1.4435131760040328e+01 -9 7 -8
1856 619 2 4.0999999999999998e-01 -8.9633155140557470e+00 -5.9762549211686995e+00 -1.0986955184127767e+01 -6 4 -5
2345 782 2 4.0999999999999998e-01 -6.6694423296926661e+00 -2.6901115378866862e+00 -1.1280558503027226e+01 -14 4 1
1971 657 2 4.0999999999999998e-01 -1.2292497586896481e+01 -6.7432276823374195e+00 -1.1547824834613172e+01 -5 4 -4
1969 657 1 -8.1999999999999995e-01 -1.1596522639331598e+01 -6.8372422723632393e+00 -1.0836006163469996e+01 -5 4 -4
263 88 2 4.0999999999999998e-01 -8.3887754580803708e+00 -6.1673348441788445e+00 -1.3753118645344141e+01 -7 9 -4
1410 470 2 4.0999999999999998e-01 -1.1557476367585771e+01 -2.1981940670906415e+00 -1.4242910247510212e+01 -9 7 -8
1970 657 2 4.0999999999999998e-01 -1.0689982468377625e+01 -6.7046571491399138e+00 -1.1236645451851331e+01 -5 4 -4
262 88 1 -8.1999999999999995e-01 -8.2362639516187279e+00 -5.5980888115305110e+00 -1.4560958340693096e+01 -7 9 -4
1857 619 2 4.0999999999999998e-01 -7.9454883275746750e+00 -6.9923743659435944e+00 -1.1760197883826125e+01 -6 4 -5
122 41 2 4.0999999999999998e-01 -9.7256825473820125e+00 -4.0557228613565677e+00 -1.4018435181364131e+01 -13 8 -3
1546 516 1 -8.1999999999999995e-01 -5.9173387184040500e+00 -1.6841527213754706e+00 -9.6094824035962567e+00 -4 4 -8
2346 782 2 4.0999999999999998e-01 -7.5237652395079087e+00 -4.0535798171370114e+00 -1.1002238834655151e+01 -14 4 1
1274 425 2 4.0999999999999998e-01 -1.3659938866540161e+01 -1.0176748841108516e+00 -1.0998478734920162e+01 -10 8 -6
1844 615 2 4.0999999999999998e-01 -7.8867452992834055e+00 -4.4010027093436932e-01 -1.4663404602519419e+01 -7 3 -3
706 236 1 -8.1999999999999995e-01 -1.2705209926349086e+01 -5.1875386438685052e+00 -1.2866440214826291e+01 -12 1 -6
708 236 2 4.0999999999999998e-01 -1.1986289180773278e+01 -4.5879757381605071e+00 -1.3217984058487655e+01 -12 1 -6
827 276 2 4.0999999999999998e-01 -1.0068007681209682e+01 -1.2600819127566183e+00 -1.0534051932369341e+01 -6 2 -5
826 276 1 -8.1999999999999995e-01 -9.4405067023227307e+00 -1.8953192148753022e+00 -1.0984187210481323e+01 -6 2 -5
2359 787 1 -8.1999999999999995e-01 -1.3860341150503951e+01 -6.4659006190311175e-02 -1.3792291567808110e+01 -9 2 -6
5 2 2 4.0999999999999998e-01 -6.3311001175775061e+00 -9.4437417936501493e+00 -5.3725628401795138e+00 -14 6 -6
1529 510 2 4.0999999999999998e-01 -7.6260277391885101e+00 -1.0836750335938156e+01 -3.5905692115099352e+00 -13 -1 -8
1793 598 2 4.0999999999999998e-01 -1.2144661418856233e+01 -1.0298321094531586e+01 -6.8275455118896531e+00 -7 3 -6
1528 510 1 -8.1999999999999995e-01 -8.2373130066008038e+00 -1.1486838698244620e+01 -3.1393251181500759e+00 -13 -1 -8
767 256 2 4.0999999999999998e-01 -1.1626285001065273e+01 -9.4408783257399058e+00 -4.3892147116246019e+00 -14 10 -3
869 290 2 4.0999999999999998e-01 -8.3765311750822526e+00 -1.4961083305006472e+01 -7.1793413090595575e+00 -11 3 -7
748 250 1 -8.1999999999999995e-01 -1.4350121744481468e+01 -1.2144030226591742e+01 -1.8853400670146936e+00 -14 3 -6
1530 510 2 4.0999999999999998e-01 -7.7878526312392031e+00 -1.2377798777237830e+01 -3.0754404293881130e+00 -13 -1 -8
749 250 2 4.0999999999999998e-01 -1.3836891534285700e+01 -1.1960107297076123e+01 -1.0470842739175250e+00 -14 3 -6
2087 696 2 4.0999999999999998e-01 -1.0275965622498326e+01 -1.1082444121949933e+01 -5.1137511710722734e+00 -10 7 -1
766 256 1 -8.1999999999999995e-01 -1.1479216245689484e+01 -9.7259842092703401e+00 -3.4421185389817488e+00 -14 10 -3
768 256 2 4.0999999999999998e-01 -1.1592634859263384e+01 -1.0716929124294065e+01 -3.3709135989993939e+00 -14 10 -3
2086 696 1 -8.1999999999999995e-01 -1.0704252257838043e+01 -1.1383661966610978e+01 -5.9656573287702876e+00 -10 7 -1
1730 577 2 4.0999999999999998e-01 -1.1116365717415091e+01 -1.2946277958591226e+01 -2.0451160355018345e+00 -8 6 -7
1580 527 2 4.0999999999999998e-01 -1.3909098570953402e+01 -1.2444521350812195e+01 -3.6592982612569767e+00 -3 3 -7
2088 696 2 4.0999999999999998e-01 -1.1091956327482036e+01 -1.2296670522095223e+01 -5.8391397775108587e+00 -10 7 -1
1579 527 1 -8.1999999999999995e-01 -1.3097400194119571e+01 -1.2577959537523725e+01 -4.2278453039699837e+00 -3 3 -7
1581 527 2 4.0999999999999998e-01 -1.2286863409822709e+01 -1.2630294368403243e+01 -3.6445812357400946e+00 -3 3 -7
1729 577 1 -8.1999999999999995e-01 -1.0751389173551511e+01 -1.2847391305047674e+01 -2.9708153848663130e+00 -8 6 -7
4 2 1 -8.1999999999999995e-01 -6.9793708329190522e+00 -9.6688272706662204e+00 -4.6452476501117967e+00 -14 6 -6
1731 577 2 4.0999999999999998e-01 -9.8085234693177377e+00 -1.2517683465960140e+01 -2.9238824601204492e+00 -8 6 -7
1449 483 2 4.0999999999999998e-01 -1.0265361039457815e+01 -9.7146902703771563e+00 -1.8520452962469847e+00 -9 5 -1
1450 484 1 -8.1999999999999995e-01 -6.1093282331136294e+00 -1.2762183825847998e+01 -6.0565847544519578e+00 -6 5 -5
1447 483 1 -8.1999999999999995e-01 -9.5493182487157817e+00 -1.0083800839958453e+01 -1.2596384557469609e+00 -9 5 -1
1451 484 2 4.0999999999999998e-01 -7.0258055033402043e+00 -1.2763913735801541e+01 -5.6566194993022432e+00 -6 5 -5
436 146 1 -8.1999999999999995e-01 -7.2396620040810280e+00 -1.4082435569811462e+01 -3.3350444964246702e+00 -9 2 -6
297 99 2 4.0999999999999998e-01 -1.2240027587525567e+01 -1.3550316346964799e+01 -5.4258384004095781e+00 -7 8 -6
398 133 2 4.0999999999999998e-01 -5.5352578507696020e+00 -1.4178113160963786e+01 -5.5490510861894453e+00 -9 5 -1
1018 340 1 -8.1999999999999995e-01 -1.4637942737457177e+01 -1.3785335120762268e+01 -6.7677623892236696e+00 -7 3 -3
1452 484 2 4.0999999999999998e-01 -5.6857208042152969e+00 -1.1867470050553713e+01 -5.9153412110675720e+00 -6 5 -5
437 146 2 4.0999999999999998e-01 -6.7214264428366626e+00 -1.4637172204915815e+01 -3.9858938547776663e+00 -9 2 -6
1792 598 1 -8.1999999999999995e-01 -1.2572043062365303e+01 -9.4308259767345657e+00 -7.0819132185096061e+00 -7 3 -6
6 2 2 4.0999999999999998e-01 -7.6064379876723791e+00 -8.9019998180368880e+00 -4.5086160027408617e+00 -14 6 -6
750 250 2 4.0999999999999998e-01 -1.4564876863864448e+01 -1.1280211727716596e+01 -2.3409754818584716e+00 -14 3 -6
1020 340 2 4.0999999999999998e-01 -1.3826534970884982e+01 -1.4309905509037481e+01 -6.5101792371356311e+00 -7 3 -3
1614 538 2 4.0999999999999998e-01 -1.2149423868745917e+01 -8.4552375071903469e+00 -2.1839678013844068e+00 -10 7 -6
295 99 1 -8.1999999999999995e-01 -1.1830814285326591e+01 -1.4191657340237667e+01 -6.0747851130108934e+00 -7 8 -6
2506 836 1 -8.1999999999999995e-01 -5.7374452063386130e+00 -9.2964263565274265e+00 -7.2171942920070373e+00 -11 10 -4
2548 850 1 -8.1999999999999995e-01 -1.2094452076969333e+01 -1.3889122404285095e+01 -3.1965008540801065e-01 -15 4 1
1616 539 2 4.0999999999999998e-01 -1.3779426698500309e+01 -8.5717357849616072e+00 -3.8227107015767814e-02 -2 10 -4
1612 538 1 -8.1999999999999995e-01 -1.2317548024770657e+01 -7.6787046192940833e+00 -1.5768131817592259e+00 -10 7 -6
1448 483 2 4.0999999999999998e-01 -8.9194331570394318e+00 -1.0638008318219757e+01 -1.8037015238407506e+00 -9 5 -1
868 290 1 -8.1999999999999995e-01 -8.8945838418683536e+00 -1.4759592860698305e+01 -6.3481200492409027e+00 -11 3 -7
870 290 2 4.0999999999999998e-01 -9.7956134867637488e+00 -1.4403166170064559e+01 -6.5951246524122951e+00 -11 3 -7
438 146 2 4.0999999999999998e-01 -7.7491137041719300e+00 -1.4681841931181614e+01 -2.7177304230360360e+00 -9 2 -6
1781 594 2 4.0999999999999998e-01 -1.3654398741841447e+01 -7.9828025223173755e+00 -6.8017186519155715e+00 -14 0 -4
1794 598 2 4.0999999999999998e-01 -1.1862180591278594e+01 -8.7537716796989926e+00 -7.2758163253345272e+00 -7 3 -6
2549 850 2 4.0999999999999998e-01 -1.1133666220632261e+01 -1.3873664932235513e+01 -4.2960090765253867e-02 -15 4 1
1497 499 2 4.0999999999999998e-01 -1.3887251200718129e+01 -7.0355017667562576e+00 -1.8782249320220323e+00 -10 1 -2
1464 488 2 4.0999999999999998e-01 -5.3063964424349521e+00 -5.3761787624587587e+00 -5.4608812437312011e+00 -3 7 -8
1100 367 2 4.0999999999999998e-01 -6.1573090345935615e+00 -3.2205533413447682e+00 -7.4178847650408146e+00 -20 2 -6
1780 594 1 -8.1999999999999995e-01 -1.4210937578074823e+01 -7.1574504190770041e+00 -6.7070392435062942e+00 -14 0 -4
277 93 1 -8.1999999999999995e-01 -9.8236654753765755e+00 -7.4415545130401020e+00 -7.1047924351393190e+00 -15 4 -3
1819 607 1 -8.1999999999999995e-01 -8.8824220082139362e+00 -5.3048278936318205e-01 -7.2913051812503067e+00 -11 -3 0
1049 350 2 4.0999999999999998e-01 -1.3319178653853589e+01 -3.1014446987041620e+00 -7.1588896869331542e+00 -10 6 -9
1590 530 2 4.0999999999999998e-01 -8.4723292179192633e+00 -6.8555853700647589e+00 -2.5021990500799927e+00 -12 8 -8
2342 781 2 4.0999999999999998e-01 -9.6733632868289501e+00 -3.2090119272795317e+00 -4.5465418486691220e+00 -14 -2 -5
1575 525 2 4.0999999999999998e-01 -5.0234196567662259e+00 -8.3225059924126654e-01 -5.0428282778744382e+00 -12 5 -6
147 49 2 4.0999999999999998e-01 -8.9582245740773310e+00 -3.4516299945070426e+00 -4.2917719626894701e-01 -13 4 -13
146 49 2 4.0999999999999998e-01 -8.3108632642735429e+00 -4.9385002918111969e+00 -6.2026697326377800e-01 -13 4 -13
1050 350 2 4.0999999999999998e-01 -1.1736553679746898e+01 -2.7780620738368533e+00 -6.9199396389988639e+00 -10 6 -9
387 129 2 4.0999999999999998e-01 -6.9058372701169439e+00 -4.9106502559537191e-02 -4.7377674226299149e+00 -14 1 -7
1331 444 2 4.0999999999999998e-01 -1.3941985444036522e+01 -2.7876147556767812e+00 -5.5233261250843011e+00 -4 2 0
951 317 2 4.0999999999999998e-01 -9.4040402317358929e+00 -7.1022556345478378e+00 -4.6823638639337997e+00 -8 3 -3
1099 367 1 -8.1999999999999995e-01 -7.0093170343910129e+00 -3.3213174993041896e+00 -6.9042363174397980e+00 -20 2 -6
2251 751 1 -8.1999999999999995e-01 -1.0649235157525077e+01 -2.3168797405649073e+00 -5.6634282281659267e+00 -12 0 -1
1588 530 1 -8.1999999999999995e-01 -8.0585966018819342e+00 -6.3583001084973816e+00 -1.7396779163949923e+00 -12 8 -8
386 129 2 4.0999999999999998e-01 -7.7293732099886672e+00 -7.6580716699202434e-01 -5.9520589302413622e+00 -14 1 -7
2343 781 2 4.0999999999999998e-01 -9.4391236753229411e+00 -3.3056261647797474e+00 -2.9334167293100304e+00 -14 -2 -5
1495 499 1 -8.1999999999999995e-01 -1.4590806738033573e+01 -6.3514695167579998e+00 -2.0706177288648107e+00 -10 1 -2
474 158 2 4.0999999999999998e-01 -5.4132768641907987e+00 -4.2422473850636262e+00 -3.7000846230116871e+00 -9 -1 -3
1277 426 2 4.0999999999999998e-01 -1.4459259488255899e+01 -4.5829240516393526e+00 -3.1383040058958560e+00 -13 5 -4
2120 707 2 4.0999999999999998e-01 -1.2237950448669071e+01 -3.6139237572056206e+00 -1.7355159832134852e+00 -10 9 -6
2280 760 2 4.0999999999999998e-01 -6.9786416003896576e+00 -4.9799704785353196e+00 -6.1127865014961120e+00 -9 6 -4
2278 760 1 -8.1999999999999995e-01 -6.9527225580300804e+00 -5.9656248651198247e+00 -5.9462950789118292e+00 -9 6 -4
2119 707 1 -8.1999999999999995e-01 -1.2953327978299331e+01 -2.9300015458001685e+00 -1.5927184176076246e+00 -10 9 -6
713 238 2 4.0999999999999998e-01 -1.1886039854588306e+01 -4.9031058675910337e+00 -6.2112528775439202e+00 -13 6 -3
2253 751 2 4.0999999999999998e-01 -9.7943477775118595e+00 -1.9603940476484798e+00 -6.0402455446420529e+00 -12 0 -1
2337 779 2 4.0999999999999998e-01 -1.4604884141147718e+01 -4.7612560762792420e+00 -9.0955160029459314e-01 -9 9 -3
1330 444 1 -8.1999999999999995e-01 -1.4549496462523706e+01 -2.7225469489310559e+00 -6.3149082890781951e+00 -4 2 0
2326 776 1 -8.1999999999999995e-01 -1.1325771951951184e+01 -5.7046357548484572e-01 -3.8782066741684833e+00 -11 8 -5
498 166 2 4.0999999999999998e-01 -1.0477056468622809e+01 -4.6395071819678968e+00 -3.1994638502746611e+00 -9 4 -7
2341 781 1 -8.1999999999999995e-01 -9.1624223182150040e+00 -3.6714382075450711e+00 -3.8219681775776948e+00 -14 -2 -5
473 158 2 4.0999999999999998e-01 -6.8833887198470833e+00 -3.6289382880769807e+00 -3.3409212478103250e+00 -9 -1 -3
1364 455 2 4.0999999999999998e-01 -1.0059199228049035e+01 -1.2922479484902070e+00 -1.0111284570075405e+00 -12 2 -4
714 238 2 4.0999999999999998e-01 -1.3060762709988481e+01 -5.8784458152563968e+00 -5.6323630549273016e+00 -13 6 -3
385 129 1 -8.1999999999999995e-01 -6.9676560480405882e+00 -8.6545215658194508e-01 -5.3119311132847269e+00 -14 1 -7
2279 760 2 4.0999999999999998e-01 -6.9225548897345988e+00 -6.4505886429514607e+00 -6.8202549273517601e+00 -9 6 -4
712 238 1 -8.1999999999999995e-01 -1.2171993816630371e+01 -5.4648687526436799e+00 -5.4350064175478341e+00 -13 6 -3
1101 367 2 4.0999999999999998e-01 -7.3046441065445107e+00 -2.4264558706645367e+00 -6.5697063627231618e+00 -20 2 -6
1363 455 1 -8.1999999999999995e-01 -1.0124856671623872e+01 -2.0302717157780297e+00 -1.6826310939201985e+00 -12 2 -4
279 93 2 4.0999999999999998e-01 -1.0319434835095723e+01 -6.6416682124700497e+00 -7.4428759004469356e+00 -15 4 -3
496 166 1 -8.1999999999999995e-01 -1.1324917174546723e+01 -4.9453783115572296e+00 -2.7664732342404239e+00 -9 4 -7
1365 455 2 4.0999999999999998e-01 -1.0846150089204048e+01 -1.8179071691991293e+00 -2.3418297326261754e+00 -12 2 -4
1613 538 2 4.0999999999999998e-01 -1.1869405911342508e+01 -6.8643130565531187e+00 -1.9453790719097057e+00 -10 7 -6
2327 776 2 4.0999999999999998e-01 -1.2318246339571800e+01 -5.1058225190912765e-01 -3.9845764908708592e+00 -11 8 -5
949 317 1 -8.1999999999999995e-01 -8.5318378838289135e+00 -7.2989851089621212e+00 -4.2346292977687696e+00 -8 3 -3
2121 707 2 4.0999999999999998e-01 -1.3636449041675936e+01 -3.0055818044691041e+00 -2.3190371979117863e+00 -10 9 -6
950 317 2 4.0999999999999998e-01 -7.7959105817482497e+00 -6.8206299259013914e+00 -4.7136836250879774e+00 -8 3 -3
1589 530 2 4.0999999999999998e-01 -7.1719265569807709e+00 -5.9924421926155347e+00 -2.0222907013520484e+00 -12 8 -8
472 158 1 -8.1999999999999995e-01 -6.0758658361670932e+00 -4.0856008827180723e+00 -2.9677298537106651e+00 -9 -1 -3
2252 751 2 4.0999999999999998e-01 -1.0951572765235962e+01 -1.7315752156086646e+00 -4.9111541168434130e+00 -12 0 -1
497 166 2 4.0999999999999998e-01 -1.1915362597706629e+01 -5.3698926548551817e+00 -3.4528168480761252e+00 -9 4 -7
71 24 2 4.0999999999999998e-01 -6.6158857038333831e+00 -3.0746149395637019e+00 -1.0118863693133306e-01 -10 3 -3
278 93 2 4.0999999999999998e-01 -8.8416434974444247e+00 -7.2532395598964365e+00 -7.1135002542006358e+00 -15 4 -3
884 295 2 4.0999999999999998e-01 -1.1852859587362925e+01 -1.1404870876152884e+01 3.1538227565763286e+00 -13 7 -8
883 295 1 -8.1999999999999995e-01 -1.2768248056570959e+01 -1.1596628908346156e+01 3.5076568022938943e+00 -13 7 -8
885 295 2 4.0999999999999998e-01 -1.3318503374365001e+01 -1.0762207308929810e+01 3.4782402603535374e+00 -13 7 -8
2168 723 2 4.0999999999999998e-01 -9.9176427738047845e+00 -1.0037807529706440e+01 5.1586705687201402e+00 -9 10 -5
2169 723 2 4.0999999999999998e-01 -8.4818364147050751e+00 -9.9916481676219036e+00 4.3823300381164536e+00 -9 10 -5
2167 723 1 -8.1999999999999995e-01 -9.3566127724027019e+00 -1.0470858407602361e+01 4.4532501171376708e+00 -9 10 -5
2355 785 2 4.0999999999999998e-01 -1.0294943655833531e+01 -7.9688474501003501e+00 6.8447625422582128e+00 -7 2 0
898 300 1 -8.1999999999999995e-01 -6.9779668302878726e+00 -1.0435441720802320e+01 8.8244238677592080e-01 -9 8 -3
1046 349 2 4.0999999999999998e-01 -9.7310216398910114e+00 -1.2709932980846082e+01 1.4448245811531386e+00 -3 3 -4
1047 349 2 4.0999999999999998e-01 -8.6233514019854880e+00 -1.3432411463680726e+01 4.8697975845385422e-01 -3 3 -4
1045 349 1 -8.1999999999999995e-01 -9.5892160466963450e+00 -1.3409820900275301e+01 7.4485754662403814e-01 -3 3 -4
125 42 2 4.0999999999999998e-01 -1.0066525621371587e+01 -1.0652925215677465e+01 2.7424089863371606e+00 -11 0 -3
2353 785 1 -8.1999999999999995e-01 -1.0505376284894453e+01 -8.8078098208553381e+00 6.3429996299825078e+00 -7 2 0
2354 785 2 4.0999999999999998e-01 -1.1070627813567874e+01 -8.5878238046234863e+00 5.5480136739520631e+00 -7 2 0
124 42 1 -8.1999999999999995e-01 -1.0429618676615396e+01 -1.0872485721103221e+01 1.8369465842280874e+00 -11 0 -3
368 123 2 4.0999999999999998e-01 -1.0624831336105251e+01 -1.3652211507007967e+01 6.1609521403922543e+00 -13 1 -13
906 302 2 4.0999999999999998e-01 -6.3841600821265558e+00 -1.4546109768882456e+01 2.1427506031905246e+00 -1 5 -2
1093 365 1 -8.1999999999999995e-01 -7.4678637412608300e+00 -8.0994394336947888e+00 4.2927882258484189e+00 -5 4 2
1094 365 2 4.0999999999999998e-01 -7.9493517561272444e+00 -8.0985484924901243e+00 3.4163898039692278e+00 -5 4 2
1242 414 2 4.0999999999999998e-01 -6.9207824805253235e+00 -1.2110395167774296e+01 8.1838900165036854e-01 -10 4 -6
1240 414 1 -8.1999999999999995e-01 -6.9245220986301366e+00 -1.3078526145324229e+01 5.6816067341753396e-01 -10 4 -6
1095 365 2 4.0999999999999998e-01 -6.6345577657628940e+00 -7.5520982644849468e+00 4.2158170982221890e+00 -5 4 2
403 135 1 -8.1999999999999995e-01 -1.3583662505180943e+01 -1.1806731017318022e+01 6.4063941609574293e-01 -8 4 -3
1184 395 2 4.0999999999999998e-01 -1.1971324994268418e+01 -1.4521065131676510e+01 4.9242588199330939e+00 -12 7 -4
811 271 1 -8.1999999999999995e-01 -7.9653763422088693e+00 -1.3045063980921986e+01 4.3722053351075409e+00 -14 1 -2
899 300 2 4.0999999999999998e-01 -7.5652872263610060e+00 -9.6306960731613671e+00 9.6814487502359370e-01 -9 8 -3
782 261 2 4.0999999999999998e-01 -1.4142310550811281e+01 -1.4926800802877626e+01 3.2226126268037163e+00 -14 10 -5
812 271 2 4.0999999999999998e-01 -7.2921035823337750e+00 -1.2577221909360368e+01 4.9446853361372156e+00 -14 1 -2
1290 430 2 4.0999999999999998e-01 -5.8182666827403065e+00 -1.1197134181579024e+01 4.8695355811364500e+00 -8 9 -5
405 135 2 4.0999999999999998e-01 -1.2947187989999060e+01 -1.1248181273742214e+01 1.1724552382704800e+00 -8 4 -3
1288 430 1 -8.1999999999999995e-01 -6.0066073641390929e+00 -1.1410458943025795e+01 5.8281419016494311e+00 -8 9 -5
904 302 1 -8.1999999999999995e-01 -6.2396849009676512e+00 -1.4911732890472033e+01 3.0621810772024709e+00 -1 5 -2
369 123 2 4.0999999999999998e-01 -9.6234623988361605e+00 -1.3536137768647986e+01 4.8763656853274533e+00 -13 1 -13
813 271 2 4.0999999999999998e-01 -8.6377487369292520e+00 -1.2383559710936536e+01 4.0401914392567662e+00 -14 1 -2
404 135 2 4.0999999999999998e-01 -1.4163200582558318e+01 -1.2334334866653560e+01 1.2616672073487507e+00 -8 4 -3
900 300 2 4.0999999999999998e-01 -6.0892065790363610e+00 -1.0161802786132258e+01 5.1483830684538212e-01 -9 8 -3
1237 413 1 -8.1999999999999995e-01 -1.4827136879237052e+01 -9.0966433912200415e+00 2.7983981009822045e+00 -9 8 -4