2593
Atoms. Timestep: 1000000
O 0.312846 4.40668 13.521
H -0.465371 3.90646 13.1413
H 0.569651 4.00599 14.4004
O -10.5573 1.48413 -0.968969
H -9.75545 0.950442 -1.23767
H -11.188 1.55022 -1.7421
O -5.39442 -0.0871352 -12.8079
H -4.42248 -0.322132 -12.8162
H -5.55406 0.647504 -12.1485
O 14.3682 0.287133 -14.5764
H 14.562 -0.104562 -13.677
H 14.9024 1.12373 -14.6978
O -11.6081 13.401 -0.773484
H -10.8672 13.1592 -1.40001
H -11.9689 12.5711 -0.347875
O 1.01333 -3.99989 -0.51295
H 0.262407 -4.60929 -0.258573
H 1.49054 -3.6967 0.311858
O 2.66884 1.24111 -1.35138
H 3.49218 1.72307 -1.65104
H 2.57595 0.38852 -1.86559
O 6.74244 -3.27053 13.9559
H 6.80047 -2.50531 13.3148
H 6.06479 -3.92899 13.6285
O -9.14615 -3.99975 11.1162
H -9.5719 -4.26819 10.2521
H -8.15512 -3.94226 10.9958
O 3.96145 6.12535 -13.9174
H 4.27373 6.13033 -14.8674
H 4.75259 6.09354 -13.3067
O 7.65456 -10.3907 5.76377
H 7.35104 -9.5926 5.24334
H 8.62687 -10.55 5.59286
O 2.39848 -7.71262 5.46021
H 1.85437 -6.8752 5.40875
H 2.31238 -8.21928 4.6024
O 14.3055 -4.14998 -10.2668
H 14.7421 -4.1474 -11.1664
H 14.6134 -4.94821 -9.74913
O 9.21648 9.43015 12.1214
H 9.02051 9.10055 11.1978
H 9.182 10.4295 12.133
O -8.10698 -13.8312 10.4356
H -7.55329 -13.0122 10.2853
H -7.50665 -14.6214 10.5587
O 6.46348 8.67281 13.3967
H 7.07508 9.42588 13.1542
H 6.21194 8.74527 14.3618
O -6.26236 9.00276 -6.68266
H -5.69987 8.49819 -6.0277
H -5.68146 9.61564 -7.21829
O 14.0904 5.18811 12.8982
H 13.4348 5.89919 13.1521
H 13.7942 4.74911 12.05
O 4.31881 2.90165 1.44065
H 5.27754 2.62481 1.3763
H 4.2526 3.75683 1.9547
O 13.3623 -0.538231 8.66066
H 13.2298 -0.126233 7.75919
H 14.3169 -0.4313 8.93887
O 14.8045 4.37141 -12.3007
H -14.8788 3.44606 -12.622
H 14.9156 4.41107 -11.3077
O -1.91768 -4.5027 8.12656
H -2.01317 -5.12059 8.90698
H -2.72891 -3.92177 8.06017
O 8.26739 6.48798 -4.76344
H 8.94427 6.15319 -5.41896
H 7.88381 7.35109 -5.09187
O 5.15433 -5.40596 -8.96755
H 4.80287 -5.20667 -8.05283
H 4.48939 -5.10789 -9.65236
O -2.36459 11.8194 -9.96306
H -3.30375 11.7842 -9.62145
H -2.29189 11.2701 -10.7955
O -12.6335 8.30248 5.64218
H -11.6471 8.37002 5.49237
H -12.8311 8.41349 6.61614
O -9.28452 7.31604 7.03591
H -8.5254 7.91252 7.29651
H -9.21812 7.09816 6.06221
O -6.31356 -4.84771 -5.17644
H -5.61443 -4.77973 -5.88817
H -6.50028 -5.81098 -4.98355
O 10.6754 13.0204 -13.0304
H 11.424 12.7775 -13.6472
H 9.81034 12.694 -13.4115
O -3.73028 1.32544 1.77182
H -3.88802 2.13381 2.33894
H -3.23301 0.638447 2.30165
O -3.12445 11.8089 4.1119
H -3.1127 10.8464 3.84065
H -2.84928 12.3771 3.33643
O -7.40538 -8.59364 -7.924
H -8.04859 -8.71334 -8.68025
H -6.9344 -7.71705 -8.02259
O -3.64441 -9.39282 1.70087
H -4.13904 -9.05454 2.50141
H -3.47725 -10.3735 1.80221
O 1.79011 -5.39424 -9.19452
H 0.986494 -5.18205 -9.75051
H 2.53136 -4.76421 -9.42598
O -11.5577 2.441 -5.40103
H -10.8607 2.36267 -6.11372
H -12.2869 3.04986 -5.71344
O -12.3263 6.97932 -3.28389
H -11.9488 7.79686 -3.71879
H -13.301 7.11563 -3.10722
O 6.32715 8.83402 -13.6959
H 6.15829 8.02484 -13.1332
H 6.13879 9.65744 -13.1607
O -3.77227 -12.3851 1.41517
H -4.65788 -11.9374 1.29195
H -3.72803 -12.7908 2.32811
O 13.1703 11.2961 14.22
H 13.1948 11.427 13.229
H 13.7657 10.5326 14.4702
O 1.99993 8.20136 -6.93215
H 2.01965 7.88578 -5.98347
H 2.00468 9.20115 -6.95099
O 7.20006 2.28321 1.46351
H 7.1795 1.90133 2.38747
H 7.63429 3.18374 1.48464
O 9.2953 6.7384 -9.15528
H 9.19845 6.99643 -10.1165
H 9.74787 7.47711 -8.65585
O -7.84878 9.47513 8.73834
H -7.51212 9.78189 9.62858
H -8.82051 9.24994 8.80901
O 2.83052 -6.23932 9.46939
H 3.44793 -7.00865 9.30535
H 2.66776 -6.14614 10.4516
O 0.11336 4.84652 -4.86863
H -0.434245 4.02726 -5.03864
H 0.988569 4.76737 -5.34582
O -10.0621 5.64075 -2.75912
H -10.5751 5.7478 -1.90747
H -10.6356 5.91628 -3.53058
O 1.79035 -6.33507 13.9648
H 2.18116 -7.03647 13.3687
H 0.859775 -6.12414 13.6656
O -13.8975 2.51554 -14.597
H -13.029 2.54516 -14.1021
H -13.9041 3.22539 14.5833
O 9.86189 12.6887 9.93336
H 9.32146 12.4651 9.12224
H 9.25886 13.0414 10.6488
O -2.03381 -0.114147 3.39028
H -1.12344 -0.392962 3.08459
H -2.17273 -0.408878 4.33569
O 2.90681 -1.65584 7.77994
H 2.74683 -0.776365 7.33173
H 2.11111 -2.24691 7.64776
O -3.41765 -3.39569 -8.59978
H -2.43231 -3.54792 -8.67647
H -3.82304 -4.11462 -8.03519
O 4.25831 -4.12858 -6.64674
H 4.66597 -4.65956 -5.90388
H 3.33835 -3.83844 -6.38317
O -11.4962 -10.8339 0.338794
H -11.4008 -10.2036 -0.431669
H -12.0134 -11.6391 0.048634
O 11.9255 -5.26268 -8.93691
H 11.9601 -5.85367 -9.74281
H 12.4792 -4.44584 -9.09855
O 7.84772 -2.56039 -8.51732
H 7.96765 -3.47578 -8.13307
H 8.24795 -2.52829 -9.43315
O -2.46683 4.95382 7.80046
H -2.79002 5.49371 7.02326
H -2.41792 5.53504 8.61271
O 9.4082 -13.7823 2.69119
H 9.37164 -12.8009 2.50266
H 8.86654 -13.9854 3.50685
O -9.24298 4.26184 1.93047
H -8.82243 4.39897 1.03365
H -8.5334 4.26311 2.63507
O 4.4708 -11.0654 -9.15842
H 4.02693 -11.0641 -8.26235
H 4.52608 -10.1287 -9.5043
O 12.282 8.811 -1.53139
H 12.7935 8.61293 -2.36749
H 11.621 9.53988 -1.70981
O -0.712244 12.8283 14.5956
H -0.167521 12.5811 -14.4876
H -1.41574 12.134 14.4438
O -14.7363 3.47772 -5.54913
H -14.4279 3.73937 -4.63456
H -14.0726 3.79296 -6.22749
O 8.42088 -12.7994 -8.96146
H 7.69059 -13.2997 -8.49643
H 8.38305 -11.8349 -8.69985
O 13.9744 14.3286 6.63023
H 14.2874 14.0164 7.52715
H 13.0144 14.6025 6.68904
O 4.62823 -8.24621 8.9553
H 4.6214 -8.31123 7.95746
H 5.43254 -8.7194 9.31465
O 1.03039 -10.1936 14.2502
H 0.989654 -10.783 -14.8276
H 1.33826 -10.7274 13.4627
O 7.0175 8.94126 -9.76655
H 7.56401 9.73546 -9.50095
H 7.61233 8.24877 -10.1747
O 13.7645 -6.07624 -1.31433
H 13.7063 -6.90336 -0.755353
H 14.3452 -5.40393 -0.855263
O -4.19557 6.38633 -7.3716
H -3.27854 5.9972 -7.28454
H -4.42389 6.89105 -6.53908
O 4.11827 8.01567 0.0733239
H 3.27619 8.16172 0.592491
H 3.90689 7.53019 -0.774961
O 0.428167 2.67946 10.2351
H 0.821754 3.38381 9.6444
H 1.13554 2.32272 10.8453
O 4.74136 5.09236 12.2454
H 4.77492 4.55069 11.4055
H 3.92181 5.66532 12.24
O -10.5138 -0.57199 4.2497
H -10.08 -0.612824 5.14975
H -10.2191 -1.35489 3.70182
O 11.1546 -4.77561 14.6359
H 11.3409 -5.3201 13.8181
H 10.3012 -5.08524 -14.8295
O -13.6572 3.88535 6.86273
H -14.0207 4.67132 6.36262
H -13.4416 3.1513 6.21882
O 12.6657 6.8973 5.24754
H 12.2147 6.52576 4.43605
H 12.1067 6.70923 6.05506
O 4.89723 -8.17608 6.08839
H 5.48139 -8.13495 5.27782
H 3.98623 -7.83243 5.86048
O -4.47144 -13.4767 6.58113
H -5.06394 -14.107 7.08275
H -4.83398 -12.5478 6.65572
O 14.3786 -10.2502 -1.79411
H 13.5968 -10.1433 -1.17995
H 14.0528 -10.4743 -2.71259
O 7.2091 -11.0973 -5.10982
H 6.22589 -10.9373 -5.02214
H 7.46968 -11.0506 -6.07413
O 5.52617 3.13074 -14.7785
H 4.53203 3.1482 -14.885
H 5.95884 3.36245 14.2349
O 10.1562 -9.11664 -6.86473
H 10.3306 -8.132 -6.86628
H 10.4429 -9.50457 -5.9888
O 13.1355 1.59859 5.88919
H 13.2657 2.2374 5.13096
H 13.9232 0.985408 5.94749
O 12.3575 2.86093 -1.6919
H 11.3956 2.87707 -1.41883
H 12.5587 1.99651 -2.15263
O -2.55133 6.08902 -1.38946
H -2.41448 5.75977 -0.455209
H -3.51105 6.33903 -1.51752
O 14.6145 -11.7257 -9.83109
H 13.8159 -11.5313 -10.4006
H -14.735 -12.4609 -10.2471
O -14.8743 -3.95003 -12.8419
H -14.7953 -3.89598 -13.8373
H -13.9755 -4.13767 -12.4459
O 8.20086 13.7414 7.77113
H 7.65998 14.4764 8.18001
H 7.68554 13.3256 7.02179
O 7.18733 -10.2927 -13.3202
H 6.82407 -9.4196 -12.9952
H 6.83969 -11.0332 -12.745
O -7.79549 8.4823 2.90728
H -8.36252 9.13162 3.41405
H -7.87588 7.57563 3.32134
O 3.06681 -0.690233 -12.2006
H 4.00576 -0.709245 -12.5441
H 2.88569 0.196059 -11.7744
O 13.0304 -0.859516 1.34776
H 12.869 -1.29474 0.462044
H 13.9952 -0.607945 1.42465
O -4.55127 6.25866 6.56332
H -5.41533 6.60532 6.19837
H -4.72066 5.78461 7.42735
O -9.38481 -4.48223 0.48918
H -9.79593 -5.08831 -0.191708
H -10.0398 -3.76937 0.73965
O 2.67454 -9.56039 -7.1863
H 2.10552 -9.12165 -6.49082
H 2.74243 -8.9641 -7.98616
O -8.76755 8.49862 -5.41263
H -7.864 8.8678 -5.63002
H -8.68465 7.82577 -4.67753
O 12.4349 11.9085 5.57055
H 11.975 12.565 6.16842
H 13.1889 12.3618 5.0953
O 11.5378 6.38176 8.08237
H 11.2617 7.32961 7.92332
H 11.0637 6.02722 8.88827
O 1.23877 8.86361 1.62262
H 0.839301 8.14798 1.04968
H 0.920813 9.7582 1.30866
O -14.7822 -0.266287 6.02868
H -14.3971 -0.817774 5.28874
H -14.6676 -0.747782 6.89759
O -10.5018 -13.0041 -10.2479
H -11.4193 -13.3945 -10.1717
H -10.3612 -12.6622 -11.177
O 10.9726 2.52759 7.55437
H 11.8697 2.25365 7.2078
H 10.3803 1.72435 7.61803
O 8.94513 -10.8905 2.39553
H 9.11089 -10.4314 1.52281
H 7.97431 -11.1171 2.47382
O 10.4294 11.1224 -1.94739
H 9.6532 10.5109 -2.10099
H 10.0938 12.0303 -1.69646
O 5.71754 -8.93248 -10.761
H 4.86001 -8.50468 -11.0467
H 6.45021 -8.25206 -10.7747
O 0.785447 6.3064 9.71438
H 1.44349 6.45375 10.4528
H -0.140056 6.4727 10.0546
O 1.42272 6.92871 -13.3815
H 1.46959 6.36043 -12.5601
H 2.30759 6.91513 -13.8471
O -2.83604 -3.87381 -4.56976
H -2.01916 -4.28613 -4.16646
H -2.90721 -2.92025 -4.27714
O 7.55873 1.3823 4.06795
H 8.36708 0.936567 3.68343
H 6.84271 0.700882 4.21943
O -1.19544 -0.657112 13.6173
H -0.288434 -0.640967 13.1965
H -1.87568 -0.342791 12.9551
O -6.49973 -2.89139 10.1562
H -6.84347 -2.76762 9.22536
H -6.18093 -2.01342 10.5133
O 6.81469 3.60332 7.81464
H 6.17677 2.92869 8.18597
H 7.06109 4.2578 8.52941
O -0.199659 8.37097 4.12961
H 0.359013 8.43699 3.30287
H 0.330452 8.6874 4.91626
O 7.28813 11.9727 12.9834
H 7.73801 12.7103 12.4799
H 6.31286 11.9649 12.7626
O -3.39831 -12.0722 -7.05429
H -3.35687 -12.7974 -6.36706
H -4.29607 -11.633 -7.02163
O -0.093384 -0.624413 -12.4905
H -0.157217 0.0328582 -13.2414
H 0.491988 -0.251942 -11.7704
O -3.44235 4.23311 -5.21864
H -2.95254 4.66146 -4.45931
H -3.75058 3.32208 -4.94483
O -9.55679 -11.0997 -7.23896
H -9.16884 -10.7231 -8.08018
H -8.81921 -11.4335 -6.65205
O 11.4636 7.23297 12.3724
H 11.2049 6.48027 11.767
H 10.7804 7.96059 12.3101
O -10.0418 -11.5309 2.50994
H -10.4705 -11.2055 1.66713
H -9.55073 -12.3825 2.32687
O -9.83652 -13.9197 8.42232
H -10.7877 -14.1086 8.66644
H -9.2758 -13.9087 9.25023
O -6.86764 -6.44838 2.84212
H -7.5604 -6.31162 3.55018
H -6.39672 -5.58415 2.66522
O 1.87025 -9.06488 -11.7815
H 0.877777 -9.00576 -11.6744
H 2.31325 -8.83585 -10.9148
O 7.03606 -14.29 3.90486
H 6.32352 -14.9408 3.64268
H 7.01451 -14.1532 4.89521
O -11.5101 10.8212 0.200414
H -11.9981 10.384 0.955872
H -10.6418 10.3495 0.0470342
O -11.8091 -7.64115 8.38282
H -12.7948 -7.47468 8.35751
H -11.416 -7.19346 9.18593
O -10.5466 -0.161074 -4.56223
H -11.0838 0.682136 -4.54286
H -9.90093 -0.12746 -5.32505
O -8.59787 3.81619 -9.68671
H -7.73428 4.31922 -9.65289
H -9.35971 4.45385 -9.57286
O 14.097 -11.1669 5.43226
H 13.871 -11.4783 6.35524
H 13.4203 -11.52 4.78628
O 13.3456 -1.29054 -7.1579
H 14.3439 -1.23286 -7.1603
H 13.0239 -1.53816 -8.07175
O 14.4924 -1.53076 -3.64194
H 14.007 -2.2455 -4.14545
H -14.8435 -0.988744 -4.27838
O 1.63213 -0.921638 14.8974
H 1.93206 -0.647017 -14.0737
H 1.8131 -1.89631 14.7661
O -11.4837 -11.9523 -14.4716
H -12.1922 -11.3693 -14.0741
H -10.8941 -11.4035 14.8204
O 9.66934 -3.36525 11.5125
H 10.6414 -3.57865 11.61
H 9.56402 -2.41101 11.2327
O 4.3991 -10.6249 -5.25489
H 3.95591 -10.3022 -6.0912
H 3.99643 -10.163 -4.4647
O -11.7764 -8.52504 5.49474
H -10.9727 -9.10643 5.36804
H -11.6664 -7.98107 6.32659
O 2.66778 -13.2105 7.83066
H 2.76403 -12.2175 7.89904
H 1.88942 -13.5088 8.38308
O -9.54869 -1.1839 9.78569
H -10.3895 -1.53848 9.37662
H -9.59671 -1.2773 10.7801
O -10.8446 -0.128785 -13.893
H -9.86309 -0.0493144 -14.0672
H -11.2094 0.763734 -13.6279
O -0.360828 13.0801 -8.58607
H -0.287251 12.2799 -7.99095
H -1.1189 12.9515 -9.2254
O 3.354 -9.44405 -2.68136
H 4.24394 -9.58461 -2.24753
H 2.6385 -9.85147 -2.11388
O 2.60183 -3.75358 14.0688
H 1.86089 -4.42408 14.1063
H 3.41748 -4.17972 13.6775
O 13.4551 9.41255 4.53009
H 12.7964 10.1371 4.73281
H 13.0274 8.5214 4.68135
O -8.87736 -13.8087 1.70361
H -8.79111 -14.1587 0.770843
H -9.03239 -14.5706 2.33245
O -0.751764 -9.31093 -9.43511
H -0.711493 -10.2281 -9.03866
H -0.745687 -9.37851 -10.4328
O 7.4069 0.468034 -0.800798
H 6.83817 -0.325284 -0.583669
H 7.5505 1.01157 0.0261911
O 9.11026 -11.3317 13.7626
H 8.2336 -10.851 13.7437
H 9.54722 -11.1931 14.6513
O -13.2424 2.02728 2.94011
H -12.5887 2.59314 2.43767
H -13.5207 1.25401 2.37043
O -7.2643 10.6159 11.0989
H -7.63203 10.4962 12.0211
H -7.68948 11.4137 10.6715
O 14.5051 -3.50381 4.49798
H 14.6153 -4.44742 4.18588
H -14.5149 -3.01348 4.38888
O -9.09522 4.158 13.8539
H -9.16657 3.21961 13.5159
H -9.24951 4.79654 13.1
O -2.09159 13.6302 8.34671
H -2.00592 13.1278 7.48637
H -1.66702 13.1041 9.08359
O -6.51859 5.03858 11.8368
H -6.50428 4.35248 12.5641
H -6.98876 4.66627 11.0366
O 0.402277 -14.3604 -8.46958
H 1.39684 -14.4513 -8.41913
H -0.0200409 14.6227 -8.37526
O -4.15835 -3.0399 7.67437
H -4.6094 -3.82595 7.2517
H -4.74307 -2.2334 7.58705
O 9.61038 0.119961 2.68415
H 10.5166 0.100127 3.10638
H 9.69002 0.435709 1.73868
O -5.2758 -8.27731 -2.23
H -4.63057 -7.69398 -1.73669
H -4.80343 -8.73335 -2.98423
O 2.82549 14.0233 8.98294
H 2.48754 14.2373 9.89944
H 2.71494 14.8224 8.39195
O -11.4863 8.83814 -5.60328
H -11.8621 9.75542 -5.47175
H -10.4957 8.86134 -5.46853
O -11.0575 -2.41097 1.78766
H -11.2251 -1.88037 0.956808
H -11.9248 -2.58046 2.25558
O 4.99223 -14.3236 -10.6288
H 5.29527 14.6087 -10.665
H 5.77094 -13.7194 -10.7975
O 11.9664 7.23208 -7.962
H 11.5025 7.67446 -7.1945
H 12.5464 7.89882 -8.42996
O -6.1536 5.14758 -4.95514
H -6.16778 4.58003 -4.13194
H -5.24226 5.11673 -5.36559
O 4.41406 0.469454 -7.56902
H 4.75224 -0.095588 -8.32157
H 4.89606 0.226619 -6.72719
O -1.11754 6.35142 -13.7655
H -1.06606 5.47773 -13.2818
H -0.215511 6.78301 -13.771
O 3.65844 4.99191 3.72853
H 3.7382 4.33068 4.47443
H 4.56512 5.34487 3.49762
O 9.10143 12.5334 -6.79705
H 9.63594 13.1196 -7.40585
H 9.6763 12.2297 -6.03729
O 1.28018 -0.751772 12.1438
H 1.71477 -1.49469 11.6347
H 1.58783 -0.774981 13.095
O 5.72241 2.03841 -2.11001
H 6.20742 1.29448 -1.65033
H 6.2501 2.88348 -2.02421
O 1.66936 -3.83642 -5.76669
H 0.788542 -3.36814 -5.69717
H 1.53611 -4.73756 -6.17918
O 11.9385 -12.6785 -7.13278
H 11.4762 -12.3286 -7.94753
H 11.258 -12.9171 -6.44002
O -3.71224 8.77612 7.00758
H -3.95452 7.80593 7.00599
H -2.74156 8.8769 7.22574
O 4.95378 -5.16464 12.854
H 4.59848 -6.04432 13.17
H 5.51771 -5.30582 12.0403
O 4.506 -8.112 13.5668
H 3.76039 -8.23881 12.9126
H 4.19409 -8.3687 14.4815
O -13.2628 -4.53888 2.31308
H -13.9951 -4.9635 2.84534
H -12.5061 -5.18487 2.21271
O -2.38155 2.40241 6.9655
H -3.13588 2.0703 6.39924
H -2.61006 3.30562 7.32876
O 3.26644 -12.8844 5.21493
H 3.21125 -13.1134 6.18675
H 2.36177 -12.9763 4.79891
O -1.24827 -9.0626 8.85208
H -0.518696 -8.3845 8.7634
H -1.74261 -8.91033 9.70789
O -7.93809 12.856 -8.65782
H -7.32062 12.0743 -8.74522
H -8.09131 13.0531 -7.6895
O 8.17749 2.71955 13.5113
H 9.05956 3.14722 13.3137
H 8.31767 1.75567 13.7376
O -14.7376 -3.88259 7.20432
H 14.6759 -4.04245 6.33688
H -13.7773 -3.66728 7.0273
O -12.3972 1.79024 -2.95325
H -12.1788 2.00517 -3.90512
H -12.8586 2.57132 -2.53262
O 6.95504 -13.5552 -13.6368
H 6.25639 -12.8402 -13.6135
H 7.74204 -13.2702 -13.0897
O 0.286172 -5.7598 5.30597
H 0.414273 -4.77517 5.18739
H 0.194755 -6.19431 4.40998
O -8.18429 -13.782 -8.95752
H -8.95307 -13.3943 -9.46608
H -7.61451 -14.3231 -9.57598
O 12.0354 -0.52747 3.72666
H 12.6055 0.0751898 4.28492
H 12.4145 -0.583692 2.80306
O 0.438576 2.57515 -2.4708
H 1.25717 2.10158 -2.14584
H -0.130939 2.8306 -1.68954
O -6.77003 1.95048 4.46162
H -7.48095 1.89406 3.76064
H -7.17849 1.8064 5.36294
O 3.15139 -14.2743 -8.41481
H 3.45374 -14.725 -7.5749
H 3.8521 -14.3797 -9.12041
O 5.44948 13.586 3.76235
H 5.00738 13.045 3.04693
H 5.51029 13.044 4.60051
O 12.011 10.7476 9.29244
H 11.3837 11.4852 9.54248
H 12.4453 10.3856 10.1172
O -1.97183 -13.4669 7.45982
H -2.80652 -13.4131 6.91177
H -1.8125 -14.4158 7.73215
O 14.0511 14.3278 -8.81484
H 13.2185 14.8785 -8.8733
H 14.8349 14.8765 -9.10561
O -4.30061 -4.27557 -0.922858
H -5.27181 -4.27253 -1.161
H -3.90819 -3.3755 -1.11215
O 4.77191 -4.67703 4.87655
H 4.57804 -4.93471 5.82311
H 4.42359 -5.3837 4.26072
O -13.9594 -0.492578 -1.74729
H -14.6455 -0.841742 -2.3855
H -13.7781 0.470365 -1.94683
O 12.5974 -6.27189 2.6427
H 12.7918 -5.3103 2.44903
H 11.7312 -6.34382 3.13725
O -7.9321 11.453 -3.95204
H -7.96381 12.2439 -4.56319
H -8.80232 11.3722 -3.46608
O 10.9571 5.55743 14.3918
H 11.3673 6.33076 13.9084
H 11.4202 5.42894 -14.6159
O 1.86039 -6.60889 -13.0672
H 1.74502 -6.59279 -14.0603
H 1.8966 -7.55693 -12.7512
O -3.54035 1.95851 11.6589
H -3.48498 1.36141 10.8587
H -2.94859 2.75314 11.5234
O -11.2737 -6.49578 3.09888
H -10.9663 -6.49496 2.14732
H -11.8535 -7.29418 3.26117
O 8.41339 14.4434 -4.80884
H 7.99829 13.8414 -5.49094
H 8.10059 14.1791 -3.89656
O 4.48566 -7.01687 -12.9289
H 4.60768 -7.60025 -13.7318
H 3.50986 -6.86211 -12.7745
O 2.67337 -1.03131 -2.96195
H 3.44056 -0.63057 -3.46274
H 2.2987 -1.79772 -3.48367
O 6.49615 10.3771 3.13223
H 5.5573 10.0641 3.27546
H 6.6339 10.5856 2.16398
O -7.91484 1.58076 6.91649
H -8.87402 1.84968 6.82929
H -7.76436 1.1696 7.81553
O 10.293 12.5014 3.90319
H 10.4329 12.475 2.91339
H 11.0984 12.1281 4.36367
O -0.580246 -11.8107 9.10384
H -0.808367 -10.8453 8.97756
H -1.15249 -12.3697 8.50379
O -10.8931 10.7499 11.2277
H -11.7797 10.8602 10.7786
H -10.4004 11.6199 11.2106
O 14.3825 8.43918 14.557
H 14.6907 7.63274 -14.823
H 13.383 8.47077 14.5574
O 11.1322 11.5255 -4.79835
H 10.8126 11.2682 -3.88642
H 11.7314 12.323 -4.72883
O 7.33557 14.7176 -7.81985
H 7.70947 13.8698 -7.44379
H 6.37107 14.797 -7.56811
O 7.56713 5.19162 9.7292
H 8.07971 5.50289 10.5294
H 7.04878 5.95667 9.34713
O -3.9994 0.650899 -8.11836
H -4.01321 0.0340997 -8.90534
H -4.81895 1.22377 -8.12946
O -2.86722 -9.14819 11.122
H -3.12665 -10.1129 11.0778
H -2.4386 -8.9584 12.0053
O -13.2792 -10.1985 -8.60279
H -12.9916 -9.6458 -9.38499
H -13.8154 -10.9786 -8.92502
O -13.4542 -7.42028 -3.05522
H -13.653 -6.45975 -2.86071
H -14.2539 -7.84733 -3.47721
O 5.5608 -4.39573 1.70657
H 5.2919 -5.27713 2.09486
H 6.55042 -4.3825 1.56357
O 10.5758 -5.12833 -4.96465
H 9.8322 -4.47575 -4.81935
H 10.3802 -5.68172 -5.77426
O -9.38377 -1.06397 -8.88825
H -10.3321 -1.1047 -9.20272
H -8.7716 -1.03412 -9.67839
O -11.8 -8.99052 13.4804
H -12.7838 -9.16867 13.5016
H -11.3387 -9.72613 12.9844
O -1.36754 12.4114 10.5425
H -1.40967 11.4649 10.8625
H -0.717669 12.9242 11.1035
O -11.0189 11.7317 6.46643
H -10.2467 12.3593 6.5653
H -11.8678 12.2095 6.6924
O -3.72887 14.8286 -8.32761
H -3.46902 14.0963 -7.69814
H -4.68155 -14.7992 -8.16508
O -4.93151 -11.9749 -11.7511
H -4.14444 -12.4656 -11.3773
H -5.36423 -12.5305 -12.461
O 13.5699 -12.0747 8.85089
H 13.4263 -12.9917 8.47887
H 13.0798 -11.9863 9.71808
O 10.4239 9.02184 7.74371
H 11.0094 9.7683 8.05997
H 9.67762 8.88471 8.39501
O 14.0419 -7.90467 0.66766
H 13.6805 -7.17886 1.25295
H 13.2987 -8.5176 0.399417
O -12.5632 13.8271 -5.67858
H -13.1506 14.4389 -5.14885
H -12.2713 14.2882 -6.51657
O -5.10167 -13.5484 14.8783
H -5.7476 -13.5869 -14.2439
H -4.94103 -12.5944 14.6253
O 4.82927 14.5841 -6.53228
H 4.56403 -14.5382 -5.94191
H 5.27482 13.8768 -5.98343
O -6.39488 -6.9439 14.6965
H -7.27131 -6.77826 14.2444
H -6.30399 -6.33164 -14.4027
O 0.605876 3.89667 1.33231
H 1.05837 3.58466 2.16769
H 0.0679462 3.14792 0.945053
O -3.89028 12.4028 -6.90148
H -3.19516 11.7598 -6.57992
H -4.31286 12.0473 -7.73518
O -12.8825 -1.97025 4.26687
H -12.499 -2.29176 5.13263
H -12.2337 -1.35122 3.82439
O 8.90792 -0.0389924 14.6185
H 8.73412 -1.00465 14.4255
H 9.79657 0.0565652 -14.8176
O -13.8245 14.0576 -2.7496
H -14.5671 13.4622 -2.4429
H -13.1557 14.1622 -2.01366
O -7.77112 9.55172 6.00006
H -7.79117 9.80473 6.9673
H -6.86411 9.74207 5.62448
O -1.4309 -11.9304 0.11381
H -2.07873 -12.1992 0.826555
H -0.722223 -11.3469 0.510389
O -1.30979 2.10039 0.0411064
H -1.8213 1.7044 -0.721459
H -1.77312 1.88517 0.900738
O -2.51327 -1.3505 10.8179
H -2.12365 -0.736503 10.1315
H -3.46128 -1.08904 10.9992
O 12.6102 -1.59884 -1.1414
H 13.022 -1.22394 -1.97201
H 12.3222 -2.54173 -1.30851
O -0.633996 7.61994 -7.12269
H -1.07173 8.28927 -6.5224
H 0.321364 7.87711 -7.268
O 8.63564 5.26565 12.2129
H 8.95497 5.86572 12.9463
H 7.68401 5.00947 12.3823
O 7.60865 -9.36276 -3.06742
H 7.41907 -10.0539 -3.76479
H 8.21702 -8.66531 -3.44611
O 9.3482 -2.7041 14.5513
H 8.76712 -2.98243 13.7866
H 10.1633 -3.28281 14.5785
O -4.39068 -8.91102 -11.929
H -5.31919 -8.7124 -12.2426
H -4.29884 -9.89226 -11.7596
O 2.07208 14.3652 4.17488
H 2.8856 13.7935 4.28134
H 1.61891 14.4682 5.06031
O -2.1076 6.73882 10.0028
H -3.02095 7.12586 9.8765
H -1.85298 6.7937 10.9683
O 1.82247 9.25234 12.4876
H 2.38226 8.76241 11.8193
H 2.33421 10.0354 12.8409
O 2.60353 7.61167 -4.32532
H 1.88076 8.25024 -4.06112
H 3.49479 8.00552 -4.1006
O -9.6232 -6.41396 -4.03422
H -10.335 -6.77016 -4.63952
H -8.74594 -6.83271 -4.26879
O -12.5054 2.94097 11.421
H -12.6154 3.52667 12.224
H -11.9989 2.11733 11.6761
O 3.6835 -5.28622 -1.78727
H 4.29518 -5.73446 -1.13543
H 2.92705 -4.85713 -1.29368
O -6.43018 0.866907 -5.24652
H -6.73716 0.613062 -4.32931
H -5.43544 0.969169 -5.24867
O 0.280972 -13.0434 5.11827
H 0.134415 -12.1992 5.6338
H -0.162534 -13.8044 5.59178
O -3.74023 -6.88274 7.97021
H -4.32885 -6.30421 8.53483
H -3.02832 -6.32197 7.5475
O 8.32917 9.34944 -2.75954
H 8.36361 8.35055 -2.72791
H 8.14663 9.64714 -3.69656
O 7.54577 7.86062 3.81684
H 8.50094 7.97451 4.09003
H 7.17626 8.74163 3.52146
O 2.60995 1.59355 -5.21304
H 3.52022 1.20185 -5.07911
H 2.28247 1.36957 -6.13095
O 14.3181 -14.7731 12.5203
H 14.5943 14.7084 13.3927
H 13.6837 14.4949 12.0542
O -3.64879 -14.7963 -0.0977932
H -3.13367 -14.0111 0.24588
H -4.60579 -14.5365 -0.226715
O 5.16932 -2.50659 8.63725
H 4.26418 -2.25771 8.29266
H 5.87167 -2.10762 8.04777
O 3.09969 -1.83074 3.64807
H 3.91301 -2.27512 4.02358
H 3.34796 -0.932285 3.28599
O -8.62153 -2.98762 -13.3315
H -9.60919 -3.03959 -13.4792
H -8.26706 -3.89942 -13.1243
O 9.91842 5.38254 -6.427
H 10.8182 4.94823 -6.3852
H 9.5648 5.32749 -7.36075
O 10.9592 -11.479 -9.7018
H 10.0769 -11.8289 -9.3871
H 10.8899 -10.4941 -9.86029
O -1.07959 7.01873 12.8767
H -0.880995 6.09423 13.202
H -1.68343 7.47861 13.5278
O -11.4148 -7.27269 -6.02249
H -11.764 -6.92413 -6.89224
H -11.3001 -8.26425 -6.0827
O 5.4154 12.7228 -10.0005
H 6.2614 12.531 -9.503
H 4.83512 11.9084 -9.99755
O 5.41673 -1.70201 -9.14519
H 6.39921 -1.81695 -8.99862
H 5.08911 -2.40606 -9.77523
O -13.1154 4.62964 13.5506
H -12.8164 5.39296 14.1232
H -14.0409 4.80664 13.2158
O 6.02949 2.88781 -7.21366
H 5.50957 2.03366 -7.22272
H 6.17604 3.19878 -8.15269
O -12.4228 11.4663 -4.40887
H -13.274 11.3023 -3.91035
H -12.4702 12.3542 -4.86636
O 11.1562 -9.70174 -4.12856
H 11.352 -10.4996 -3.55844
H 12.0099 -9.22587 -4.34027
O -2.30347 -7.73361 -4.31513
H -1.68361 -8.31804 -3.79152
H -2.87352 -7.20467 -3.68646
O 2.8673 3.32702 13.8693
H 3.14357 2.84086 13.0403
H 2.69051 4.28646 13.6498
O 10.7314 -10.1778 9.47858
H 11.1268 -10.3055 10.3882
H 10.192 -9.33587 9.46475
O -6.08198 -13.8972 -0.831359
H -7.01376 -14.2288 -0.683668
H -6.10476 -13.0918 -1.42359
O 6.65934 -12.9971 -1.90824
H 7.64719 -12.8509 -1.9606
H 6.2846 -13.0756 -2.83203
O 7.02359 -9.50869 13.9032
H 6.86022 -9.86532 14.823
H 6.29459 -8.86912 13.6594
O 0.988268 -11.0078 -1.93671
H 0.962193 -11.7479 -2.60861
H 0.0756947 -10.6096 -1.84387
O 3.11887 7.96881 10.2985
H 2.83102 7.98936 9.34106
H 3.94344 8.52332 10.4106
O -4.13414 6.77888 3.30016
H -4.44321 6.38128 2.43625
H -3.45998 6.17359 3.72336
O -12.2679 7.06836 8.34339
H -12.4313 6.10722 8.56572
H -11.3456 7.32511 8.63232
O 4.46913 -10.7819 4.06176
H 4.52331 -10.1546 4.83867
H 4.0957 -11.6581 4.36623
O -6.19284 2.08748 11.7911
H -6.53123 2.78877 11.1637
H -5.20711 1.97554 11.6656
O -14.4669 6.44852 -13.8341
H 14.9305 5.69691 -13.3894
H -13.5272 6.16762 -14.0289
O 14.1842 10.0195 7.33526
H 13.4708 10.3144 7.97081
H 13.772 9.49032 6.59363
O -9.48775 9.05844 0.490817
H -9.0175 8.84238 1.34647
H -8.82682 9.06785 -0.259554
O -10.408 1.77204 -10.449
H -10.4904 0.897249 -9.97163
H -9.50902 2.16918 -10.2644
O -5.0082 -8.3446 3.61521
H -5.59235 -7.60767 3.27513
H -5.5747 -9.12801 3.87077
O -6.94349 14.0811 -10.9206
H -6.37715 13.3961 -11.3788
H -7.25635 13.7212 -10.0417
O -3.30651 3.60883 -2.52247
H -3.03304 2.65175 -2.42663
H -2.70344 4.18467 -1.9705
O -4.36093 -10.8592 13.7788
H -4.26785 -11.2575 12.8663
H -3.45326 -10.693 14.164
O -13.7951 -13.3629 -7.3419
H -14.4216 -12.7702 -7.84795
H -13.8696 -13.1689 -6.36375
O 8.091 4.02424 -2.87079
H 8.32543 3.40798 -3.6226
H 8.17073 4.97203 -3.17949
O -11.9248 9.50995 2.94053
H -11.1446 9.39241 3.55485
H -12.6708 9.9598 3.43153
O -4.64102 13.0516 9.5892
H -4.57717 12.1624 9.1362
H -3.87704 13.6285 9.30026
O 10.5384 14.4876 -8.10614
H 11.2169 14.8619 -7.47407
H 9.87422 -14.6873 -8.34084
O 1.95569 10.6939 -5.52811
H 1.41729 10.1437 -4.88986
H 2.6561 11.1991 -5.02398
O 11.053 7.01009 0.20649
H 11.733 7.54624 -0.29367
H 10.6043 7.591 0.885589
O 11.9314 -7.1074 -11.2147
H 11.4616 -7.15194 -12.0963
H 12.2698 -8.01629 -10.9711
O -8.56326 -0.583085 -6.3857
H -8.83386 -0.647013 -7.34624
H -7.88473 0.143556 -6.27822
O -3.89491 11.1683 -2.07489
H -4.06866 12.1313 -2.28082
H -3.62084 11.0763 -1.11761
O 5.93656 5.71032 -6.09914
H 6.87793 5.86091 -5.79729
H 5.87045 4.82232 -6.55416
O 6.69589 -6.58638 -5.19922
H 7.36326 -7.04828 -4.61507
H 5.79546 -6.6171 -4.76535
O 3.87378 -9.86879 1.51423
H 4.34392 -10.3037 0.746236
H 4.09702 -10.354 2.35963
O -9.79663 11.5873 -11.5444
H -9.81843 12.1237 -10.7007
H -10.4001 10.7954 -11.4515
O -8.27423 -1.15493 -11.3329
H -7.46463 -0.612236 -11.5565
H -8.32872 -1.9413 -11.9482
O -5.4932 6.46984 -1.3429
H -6.17805 6.59342 -2.061
H -5.5431 7.23386 -0.699674
O -8.67233 -7.78006 -12.6064
H -8.0611 -8.5543 -12.7704
H -9.48704 -7.87145 -13.1789
O -0.0539783 -4.57873 -12.7539
H 0.614614 -5.32195 -12.7778
H 0.424223 -3.70072 -12.7342
O -2.67087 11.084 13.8864
H -2.39359 10.135 14.0366
H -3.4191 11.1117 13.2236
O 10.1167 -5.50295 -0.0616902
H 10.5687 -6.39413 -0.0997179
H 10.7887 -4.78105 -0.226638
O 12.0972 1.02743 -6.82114
H 11.1494 0.87965 -6.53848
H 12.5993 0.164306 -6.76794
O 2.83152 2.47547 -8.58723
H 2.39871 3.18729 -8.03411
H 3.02755 1.68043 -8.01327
O -12.0794 -9.79061 -3.22946
H -12.4377 -8.86638 -3.09742
H -12.2981 -10.104 -4.15356
O -0.205413 3.80066 -9.70825
H -0.171368 2.81445 -9.87011
H -0.647316 3.97909 -8.82914
O -0.166243 0.736047 -7.00941
H -0.891421 0.0501377 -6.94936
H 0.232994 0.719624 -7.92609
O 2.98892 -9.14567 -14.1667
H 2.32382 -9.55928 -14.7884
H 2.57893 -9.04274 -13.2605
O -5.04325 8.56894 0.400578
H -4.08992 8.86466 0.34
H -5.55174 9.20093 0.98537
O 11.6915 5.29726 -3.78102
H 12.0886 4.94814 -2.93226
H 11.9229 4.68234 -4.53488
O -9.62953 12.7057 13.2627
H -9.20207 13.2611 13.976
H -9.30466 11.7627 13.3351
O 7.45139 -5.6834 -7.46979
H 6.64201 -5.39578 -7.98179
H 7.16848 -6.10352 -6.60757
O 1.11531 4.47159 7.94361
H 2.03704 4.83412 7.80596
H 0.654711 4.99535 8.66019
O -1.93563 3.86302 10.916
H -1.04014 3.53119 10.6195
H -2.21735 4.62651 10.3349
O 3.26038 0.194618 1.12997
H 3.4889 1.14579 1.33734
H 2.91718 0.130962 0.192886
O -0.840533 -5.33161 -10.256
H -0.703249 -4.95774 -11.1733
H -1.71826 -5.80929 -10.2187
O -13.2542 9.19731 12.7747
H -13.4178 9.69339 11.922
H -14.1285 8.99713 13.2169
O -7.20148 -9.74116 14.8173
H -6.50327 -10.1197 14.2097
H -7.05436 -8.75764 14.9222
O -1.66068 8.61334 -1.74627
H -1.92761 9.24155 -1.01547
H -1.9631 7.68807 -1.51742
O -14.6584 6.17156 5.32568
H -13.9952 6.81902 5.70108
H 14.3175 6.58891 5.32343
O -12.3654 -5.8414 13.227
H -13.1646 -5.4622 12.7607
H -12.566 -5.94545 14.2011
O 0.74844 14.0518 6.36995
H 0.603772 14.4603 7.27115
H 0.133646 13.2715 6.2551
O -2.71979 -8.86746 5.04804
H -3.11627 -8.78577 5.96242
H -3.42544 -8.69114 4.3618
O 14.7101 -9.47606 9.79772
H 14.4286 -10.3095 9.32218
H 14.8418 -8.7411 9.13256
O 2.83524 -12.8522 0.178162
H 3.75883 -12.4826 0.279707
H 2.86068 -13.6532 -0.420048
O 6.92785 -5.56302 -11.966
H 6.05688 -5.81211 -12.3895
H 7.14918 -4.61442 -12.1922
O 8.39326 2.5053 10.3821
H 8.14432 2.45453 11.3493
H 8.11004 3.38963 10.011
O -9.0803 -7.0464 4.55083
H -9.99978 -6.75992 4.28169
H -8.9388 -8.00119 4.28948
O -11.6177 4.01739 -9.43967
H -11.3471 3.19371 -9.93796
H -12.4975 4.34265 -9.7862
O -0.830937 8.04818 -10.7404
H -0.182262 7.29549 -10.8528
H -0.605994 8.56111 -9.91199
O 13.7268 13.9418 -0.162273
H 12.9216 14.3715 0.246345
H 14.3238 13.5962 0.561748
O 9.47677 -7.5847 -3.7585
H 10.0455 -8.39763 -3.63324
H 9.99866 -6.77045 -3.50437
O -2.66679 13.5511 -4.68868
H -3.23742 13.4506 -3.87366
H -3.207 13.3363 -5.50231
O -1.20768 -5.37869 1.15514
H -2.09024 -5.80705 1.34892
H -0.839623 -4.97913 1.99469
O -0.942758 -13.5556 2.77695
H -0.21182 -13.7854 2.13438
H -0.558329 -13.4451 3.69345
O 9.70544 -13.1254 -5.26778
H 9.41615 -14.073 -5.1322
H 8.89938 -12.5392 -5.34921
O -3.49756 -2.73111 0.995229
H -3.78826 -3.62475 0.653355
H -2.6232 -2.82472 1.47135
O -14.6587 -10.1191 12.5347
H -14.6697 -9.84696 11.5725
H -14.5097 -11.1057 12.6003
O -9.15111 13.9576 6.39872
H -8.17121 13.918 6.20327
H -9.3602 14.8066 6.88391
O 12.5459 13.7848 10.5341
H 12.4702 14.5063 9.84589
H 11.667 13.3166 10.6242
O 12.56 13.641 -3.8156
H 12.9186 14.3939 -4.36742
H 13.3204 13.1284 -3.41685
O -0.639797 -2.87292 -7.95908
H 0.219903 -2.39633 -8.14277
H -0.499912 -3.85903 -8.04841
O 4.85417 1.57037 8.49913
H 3.89117 1.49237 8.24126
H 5.10245 0.806944 9.09538
O 2.9627 -11.559 12.5801
H 2.6784 -11.181 11.699
H 3.93998 -11.7692 12.5528
O -11.6425 -3.72547 -6.23
H -10.6601 -3.67176 -6.40873
H -11.8584 -3.21396 -5.39831
O -3.03593 -7.18388 -10.2979
H -3.57858 -7.55613 -11.0509
H -2.42315 -7.89186 -9.94687
O -14.6941 8.47637 -11.5367
H -14.7998 7.85698 -10.7588
H -14.3521 7.96557 -12.3255
O 13.2518 9.44315 11.3756
H 12.8831 8.62405 11.815
H 14.0212 9.1893 10.7895
O -2.51557 -8.01109 -13.6972
H -2.65017 -7.09007 -14.0627
H -3.24505 -8.2213 -13.0464
O -9.17761 -4.28551 -9.53506
H -8.55006 -4.52366 -10.2763
H -8.66959 -3.83811 -8.79905
O -8.62015 1.37914 12.9987
H -8.73302 0.431445 12.7003