2593
Atoms. Timestep: 18495000
O -6.20283 -10.0296 13.4367
H -5.77459 -9.12996 13.5215
H -6.06403 -10.3789 12.51
O -8.47142 -7.62131 -4.97194
H -8.28619 -7.89578 -5.91551
H -8.21449 -6.663 -4.84703
O -8.01234 0.795985 -13.976
H -8.38573 0.555988 -14.8721
H -7.13739 0.330187 -13.8438
O 6.60988 10.2539 -14.4216
H 6.00946 10.6126 14.6933
H 6.82659 9.2975 -14.6173
O 12.3544 -14.1339 14.3384
H 11.9136 -13.6794 13.5643
H 13.3458 -14.1279 14.2079
O -2.28148 -12.6816 11.5636
H -2.32267 -13.3749 12.283
H -2.06379 -13.1192 10.6911
O -13.983 13.8832 13.2996
H -13.0601 14.0555 12.9553
H -14.2521 14.6228 13.9165
O 9.10229 -4.80856 -10.1286
H 8.34767 -4.16332 -10.2477
H 9.41218 -5.12798 -11.0241
O -4.88578 5.59964 7.64438
H -5.80246 5.38694 7.30609
H -4.48631 4.78289 8.06071
O 6.46229 -13.6065 -7.69057
H 7.10262 -13.7715 -6.94042
H 6.69217 -14.2002 -8.46169
O 2.46432 14.5238 -6.86589
H 2.65739 -14.328 -6.78517
H 3.27747 14.0012 -6.6096
O -0.608718 7.52176 6.1819
H -0.316662 8.42445 6.49785
H 0.193916 6.94226 6.04069
O 9.98203 1.25972 -2.64427
H 10.5543 2.00663 -2.30564
H 10.3704 0.900731 -3.49297
O 13.8364 -2.6959 3.18573
H 14.103 -2.22658 2.34394
H 14.1152 -3.65492 3.13528
O -5.31206 9.29892 -1.20222
H -4.93778 9.79981 -1.98261
H -6.17382 8.86585 -1.4664
O 9.0448 7.538 3.59476
H 9.4631 7.21693 4.44442
H 8.6204 8.43029 3.7486
O -7.94837 13.3057 8.66977
H -7.22343 12.6453 8.4739
H -7.71025 13.8291 9.48783
O 4.24915 6.95461 -10.1177
H 5.09856 7.23888 -10.5623
H 4.36976 6.97396 -9.12523
O -0.87617 -8.78935 8.0698
H -0.650779 -9.36677 7.2851
H -1.25679 -9.35491 8.8014
O 1.71214 -6.85968 -8.06607
H 2.62261 -7.27001 -8.01463
H 1.06925 -7.52208 -8.45064
O -4.61486 -0.805585 10.3019
H -3.72156 -1.212 10.4938
H -5.29257 -1.53122 10.183
O -4.11482 -9.06488 -14.6947
H -4.3464 -9.83552 -14.1011
H -4.7401 -8.30561 -14.5145
O 1.02435 14.3095 8.38992
H 0.163195 14.7837 8.57288
H 1.66895 14.4906 9.13265
O -4.10327 -3.79088 2.84581
H -4.84365 -3.31041 3.31587
H -3.91385 -3.33958 1.97379
O 5.25549 -2.26327 2.8069
H 5.72667 -1.38724 2.90946
H 5.21331 -2.72479 3.69301
O -1.55652 9.64022 -8.60914
H -1.68541 9.67316 -7.61804
H -1.13919 8.76741 -8.86215
O 5.91836 -3.89985 -13.5553
H 6.67215 -4.33003 -13.0586
H 5.17686 -4.56036 -13.6731
O -5.32637 0.825985 12.5892
H -4.59857 0.951722 13.2634
H -4.96486 0.336166 11.7959
O 6.47768 -9.38636 -9.73926
H 6.36046 -10.2595 -10.2124
H 6.27078 -9.50318 -8.76791
O -2.05043 4.01818 -12.732
H -2.2868 3.85825 -13.6904
H -2.3233 4.94427 -12.4714
O 1.40983 5.62611 6.32747
H 0.944801 5.06129 5.64578
H 2.3875 5.66128 6.12032
O 10.931 11.6931 -3.51481
H 11.8201 11.556 -3.07807
H 10.2818 12.0512 -2.84385
O 6.79506 -11.5126 8.54321
H 6.18773 -11.4088 9.33084
H 7.14851 -10.6166 8.27454
O 2.40017 -12.611 6.87613
H 2.83387 -11.8165 6.45114
H 2.59827 -13.4282 6.33486
O 5.49265 7.27804 0.108096
H 6.41347 6.91479 0.249899
H 5.40005 7.59199 -0.836803
O -5.55203 6.73754 -10.6651
H -5.33697 6.21717 -9.83869
H -5.05114 7.60296 -10.6538
O 7.84035 6.80668 -10.2495
H 7.75621 7.75929 -9.95721
H 8.3289 6.28531 -9.54984
O 0.444691 -11.5174 -11.9138
H 0.796798 -11.6448 -12.841
H 0.451479 -12.3933 -11.4314
O 3.60323 -0.709935 -7.48303
H 2.84319 -0.267165 -7.00736
H 3.49172 -0.593817 -8.46998
O -9.75458 3.75625 -14.2848
H -10.7313 3.74045 -14.0709
H -9.38877 2.82659 -14.2414
O -8.7393 -4.43823 -12.3291
H -9.5526 -4.98991 -12.1443
H -8.57398 -3.82027 -11.5605
O -8.51999 -9.63801 1.23525
H -8.09558 -9.44192 2.11922
H -7.8367 -9.54952 0.510504
O 3.92299 -3.7651 -7.26489
H 3.01109 -3.67109 -6.86542
H 4.32779 -2.8591 -7.3884
O -6.38304 -5.25754 5.49505
H -7.33627 -5.44119 5.73506
H -6.18216 -5.65526 4.59982
O 5.51255 11.8827 6.01109
H 4.73623 11.2773 6.18652
H 5.22728 12.8336 6.13053
O 3.73305 1.86573 14.6727
H 3.22763 1.04023 14.4215
H 4.10516 1.76107 -14.2347
O -1.79381 -8.92748 -4.94132
H -1.34088 -9.48007 -5.64094
H -1.1916 -8.17768 -4.66726
O -6.58332 12.6371 -6.3826
H -6.86317 12.0654 -7.15385
H -5.61661 12.8747 -6.47735
O -6.15786 -5.00413 0.640404
H -5.72132 -5.85512 0.348484
H -6.16545 -4.35533 -0.120504
O -3.22209 6.76358 -8.71328
H -2.51018 6.20397 -8.28904
H -3.5652 7.42687 -8.04822
O -4.26391 1.85857 -8.43416
H -3.79986 1.53093 -9.25713
H -3.58464 2.0823 -7.73522
O 3.37204 -7.0915 5.38965
H 3.88157 -6.84872 6.21512
H 2.46065 -6.68176 5.42793
O -9.72046 -12.792 -10.9923
H -9.72285 -13.7126 -10.602
H -10.1192 -12.1509 -10.3366
O 0.594064 -1.72504 5.87713
H -0.186315 -1.46612 6.44629
H 0.331389 -1.68487 4.91309
O 3.44299 5.75352 0.974573
H 4.05472 5.2087 1.54809
H 3.96975 6.46137 0.503983
O 13.266 4.10992 -12.76
H 13.7074 3.24318 -12.9923
H 13.6609 4.46889 -11.9144
O -8.44198 8.90205 -0.664723
H -8.32656 8.05314 -0.148969
H -8.95094 9.56155 -0.111558
O 5.10624 8.73977 2.26375
H 5.00074 8.36633 1.34212
H 4.24755 8.63625 2.76564
O 8.85368 -9.69471 -0.558841
H 9.2396 -10.5384 -0.932
H 8.31617 -9.23333 -1.26467
O 7.51763 7.3807 -14.5767
H 6.99935 7.33255 14.3991
H 8.49235 7.46669 -14.7829
O -0.0264352 0.506703 -9.713
H 0.00127372 0.393458 -8.71983
H -0.106059 1.47835 -9.93558
O 13.2175 -12.8021 -12.6641
H 12.98 -13.1457 -13.5726
H 13.4765 -11.8385 -12.7294
O -8.06445 13.9555 -4.4798
H -8.58273 14.7773 -4.71662
H -7.59995 13.6081 -5.29438
O 4.85971 -8.97544 8.41033
H 4.70541 -9.52318 9.23261
H 4.3602 -9.37787 7.64319
O -5.28483 -7.25052 -6.06149
H -4.39412 -7.20485 -6.51374
H -5.91129 -6.60128 -6.49278
O -5.09046 -0.440733 5.07584
H -4.20586 0.00770657 4.94794
H -5.31287 -0.467315 6.05042
O 3.08816 -9.78754 -11.1162
H 2.59099 -10.4049 -11.7258
H 4.06912 -9.85963 -11.2964
O -9.14177 8.29652 7.63428
H -8.50901 8.19407 6.86675
H -9.38626 9.26056 7.73829
O 8.54193 7.04789 11.6668
H 7.7406 6.45754 11.7634
H 9.36891 6.52284 11.8678
O 8.80069 11.9654 -13.6166
H 8.27759 11.3058 -14.1563
H 9.3191 12.5613 -14.2298
O 11.829 -3.78604 -13.0501
H 11.7965 -4.78479 -13.0878
H 10.9737 -3.41101 -13.4075
O 4.46491 -3.67875 5.2742
H 3.52472 -3.91412 5.02798
H 4.4776 -3.26618 6.18503
O 6.04811 -12.06 -10.6329
H 6.93732 -12.5174 -10.6448
H 5.35394 -12.6711 -11.0133
O -0.597666 -11.5061 -1.5555
H -0.200177 -10.6214 -1.79898
H -1.55852 -11.5272 -1.83171
O -6.92223 -8.79311 10.5021
H -6.48498 -8.1742 11.1545
H -6.29338 -8.98037 9.74744
O -6.29784 3.90413 -11.6878
H -5.33269 3.72231 -11.876
H -6.38674 4.78585 -11.2245
O 14.1984 14.1108 2.17599
H 13.3621 13.6144 1.94327
H 14.0039 14.7688 2.9035
O -4.78075 -14.7566 4.42402
H -5.26996 14.8629 3.57756
H -5.1911 -13.9532 4.85551
O -11.0731 11.0766 12.3052
H -11.1904 12.0524 12.4897
H -11.1789 10.5615 13.1558
O -9.82841 -14.1931 11.5115
H -9.24977 -13.4284 11.228
H -10.7771 -14.0053 11.2573
O 7.3291 -11.976 -0.0983533
H 6.91162 -12.8074 -0.464886
H 7.9454 -11.5836 -0.781118
O 1.85671 -4.35355 5.63116
H 1.68128 -3.38122 5.78531
H 2.04216 -4.80153 6.50575
O 1.56189 12.1498 6.27011
H 1.70786 12.9382 6.86772
H 1.75365 12.409 5.32354
O 7.69008 -7.1864 1.30556
H 7.76017 -8.17036 1.14163
H 8.48778 -6.87708 1.82322
O -2.12799 -2.97436 5.20341
H -2.14997 -2.14961 5.76844
H -2.87958 -2.94701 4.54437
O -13.011 0.826968 -11.8178
H -12.2699 1.10632 -11.2073
H -13.8283 1.36786 -11.6192
O -6.99115 4.78715 3.58671
H -6.08204 4.93371 3.9766
H -6.91947 4.18642 2.7905
O -8.8077 -5.80895 -9.30881
H -8.15632 -5.54383 -8.59791
H -8.52909 -6.6829 -9.70701
O 10.395 13.2994 -0.64036
H 10.695 14.1244 -1.11933
H 9.74872 12.797 -1.21471
O -14.7009 14.5581 -12.8408
H 14.4384 -14.8378 -12.2617
H 14.6973 14.2196 -13.6771
O -3.14419 7.99039 11.9394
H -3.50582 8.17042 12.8542
H -2.14986 7.89535 11.9869
O -3.05517 -14.2546 -10.1871
H -2.27983 -14.8202 -9.90607
H -3.40727 -13.7549 -9.39573
O -11.2615 -8.06652 -5.48589
H -10.276 -8.09665 -5.65289
H -11.539 -7.12446 -5.29747
O 10.5705 2.28005 -11.3445
H 11.4667 2.39937 -11.7717
H 10.2715 1.33239 -11.4563
O -3.02547 0.451959 14.4671
H -2.79041 0.945778 -14.5253
H -3.05777 -0.529327 14.6569
O -5.08406 -8.83195 7.85328
H -4.31469 -9.23988 7.3617
H -5.10459 -7.84698 7.68181
O 4.50442 7.03546 -7.44069
H 4.67239 6.77861 -6.48896
H 3.69251 7.61708 -7.49064
O 7.64694 5.48512 0.488625
H 7.94108 4.90457 -0.270596
H 8.37595 5.53593 1.17122
O -10.3602 -14.837 -6.01795
H -10.9315 14.4133 -6.59936
H -10.9232 -14.4266 -5.30058
O 10.4902 -5.26149 -5.36749
H 10.9531 -4.48849 -4.93378
H 9.75842 -5.58959 -4.77012
O 13.492 9.60417 -12.1946
H 13.6563 8.7684 -11.6706
H 14.3204 10.1644 -12.1967
O 11.3614 3.78598 -2.00755
H 10.8889 4.60634 -1.68543
H 12.3033 4.01759 -2.2506
O -7.52528 4.7513 6.90405
H -7.8992 3.965 6.41222
H -8.06589 5.56525 6.69144
O 11.4766 -13.8077 -8.33642
H 11.7799 -12.8567 -8.39695
H 10.8488 -14.0059 -9.08913
O -9.26517 7.82373 -14.0098
H -8.68611 7.3949 -14.7032
H -10.1053 8.15757 -14.4372
O 2.60116 -9.72509 14.4169
H 1.79636 -9.15824 14.5929
H 2.66109 -10.4433 -14.7195
O -5.47742 -0.220618 -13.2521
H -5.16581 -0.731536 -14.0533
H -4.76169 0.415131 -12.9631
O -10.7876 -6.43957 -12.659
H -11.4261 -6.9904 -12.1215
H -11.2525 -5.61826 -12.9896
O 10.2308 2.49208 -6.94152
H 10.9524 2.13986 -6.34561
H 9.92179 1.76601 -7.55581
O -14.7286 11.8748 -11.5126
H -14.3816 12.6126 -12.0916
H 14.1444 12.0535 -11.2825
O 7.43513 -0.804616 0.190377
H 7.40568 -0.696956 1.18412
H 8.2361 -0.32872 -0.172856
O 5.61614 -9.86083 0.523785
H 6.40014 -10.4526 0.336263
H 5.1857 -10.1399 1.38217
O 0.789952 -3.72114 -3.5538
H 1.31561 -4.4467 -3.99789
H -0.12224 -4.06188 -3.32627
O -2.31774 5.54309 7.43733
H -1.821 6.23398 6.91207
H -3.27103 5.82613 7.54264
O -13.3994 3.75706 11.9458
H -13.4652 4.1629 12.8573
H -13.8998 4.3241 11.2915
O -5.71189 0.50763 7.61955
H -6.27413 1.33451 7.60828
H -5.77549 0.0735383 8.51816
O -9.65196 0.354809 0.082272
H -10.4523 0.953534 0.113887
H -8.83388 0.901125 -0.0973501
O -2.26171 -10.4818 9.68997
H -2.80113 -10.689 8.87382
H -2.47941 -11.1412 10.4096
O 13.5228 1.40264 -14.7445
H 12.6006 1.38043 14.699
H 14.1873 1.17114 14.3745
O 8.09265 -5.42696 -13.0276
H 8.57235 -5.84368 -13.7997
H 7.3139 -5.99933 -12.7708
O 6.46741 9.54573 7.30053
H 6.58569 9.9818 8.19262
H 6.54277 10.235 6.57998
O 0.3467 -13.62 0.104214
H -0.0579935 -12.9962 -0.564397
H 0.315525 -14.5545 -0.250323
O -8.26347 -12.3945 8.12738
H -9.21231 -12.5655 7.86203
H -8.21625 -12.2383 9.11398
O -12.3515 -13.2604 11.3724
H -13.0733 -12.6429 11.685
H -12.5676 -13.5869 10.4523
O 10.6341 8.55759 1.07861
H 10.7344 7.97662 1.88631
H 11.4557 9.11634 0.965809
O -9.00601 -2.79863 2.77529
H -8.81515 -3.33736 1.95472
H -8.22014 -2.84117 3.39219
O -7.15244 -6.45349 2.9289
H -6.40588 -6.10578 2.3617
H -8.02264 -6.09499 2.59095
O -2.11587 2.17636 10.5195
H -3.11402 2.23161 10.5446
H -1.78084 2.58239 9.66927
O -6.60965 -0.262909 -4.23149
H -7.11308 -0.418539 -5.08138
H -6.80012 0.659441 -3.89539
O 7.20011 -1.73431 14.5542
H 7.71586 -1.34463 -14.5124
H 6.58376 -2.44359 14.8963
O 6.0126 11.8751 -2.59024
H 5.0851 11.533 -2.43957
H 6.27335 11.7226 -3.5435
O 10.8391 -0.35516 -4.83837
H 9.94023 -0.684243 -5.12782
H 11.48 -0.420105 -5.60322
O -4.09553 13.5099 -1.69478
H -5.03921 13.4532 -2.02073
H -3.49392 13.7518 -2.45604
O -3.22775 1.54452 -12.4666
H -3.06162 1.24166 -11.5281
H -2.74916 2.40759 -12.6279
O -12.2591 -13.0238 0.292263
H -12.2977 -12.6923 1.23491
H -12.8569 -13.8194 0.193925
O -4.61665 3.41359 9.61364
H -4.74125 4.17359 10.2515
H -5.51044 3.06014 9.33762
O -0.145108 3.13962 -10.6953
H 0.762503 3.01628 -11.0965
H -0.833674 3.13409 -11.4204
O -2.98666 3.70939 14.5137
H -2.80234 2.93963 13.9026
H -3.21866 4.51711 13.9717
O -13.148 -1.26921 9.4875
H -12.405 -0.71765 9.10844
H -13.156 -1.17831 10.4833
O 13.6915 -2.28682 13.3061
H 13.5527 -3.24898 13.0717
H 12.8264 -1.89042 13.6134
O -3.57325 -2.18937 -14.7614
H -2.66507 -2.52389 14.8167
H -4.25475 -2.89361 14.8693
O -0.568115 6.71303 -0.611617
H -1.54527 6.81885 -0.795839
H -0.0523715 7.37142 -1.15981
O -7.07635 13.3088 -2.15613
H -7.66968 13.7349 -1.47319
H -7.38219 13.5687 -3.07203
O -14.0967 9.34482 -14.625
H -14.8365 8.68824 -14.7718
H -14.4452 10.2735 -14.7517
O -5.44587 11.4574 7.12127
H -5.11618 11.7084 8.03137
H -4.89777 11.9247 6.4276
O -4.7947 -13.2995 -4.19
H -4.29275 -14.1133 -4.48268
H -4.99582 -12.7279 -4.9855
O 11.8609 -7.99372 -9.31969
H 12.16 -7.83277 -8.37916
H 10.9405 -7.62322 -9.44477
O 11.0599 12.9263 -6.35036
H 10.9788 12.5794 -5.41601
H 12.0218 12.9255 -6.62389
O 4.18547 -5.00538 -9.65605
H 4.07935 -5.97947 -9.45639
H 3.93694 -4.47061 -8.84844
O 13.8094 12.8212 -7.19334
H 14.0524 11.8549 -7.10845
H 14.4526 13.2737 -7.81106
O -11.3278 10.1905 4.03776
H -10.5021 10.4522 4.53737
H -11.1172 9.43362 3.41906
O 4.12781 8.81836 -4.70303
H 4.56495 8.21308 -4.03781
H 3.13489 8.7139 -4.64664
O -9.84669 0.159223 -3.12882
H -10.2392 0.288798 -2.21826
H -9.33982 0.979708 -3.39313
O 3.64448 -3.91781 -1.30769
H 3.75838 -3.95157 -2.30059
H 4.41101 -3.42084 -0.900964
O -12.649 -11.0566 -1.94405
H -13.6404 -11.0597 -1.81332
H -12.2061 -11.4632 -1.145
O 3.80893 -2.14847 13.0802
H 4.80384 -2.13969 12.9799
H 3.38764 -2.38097 12.2036
O -9.58975 4.86508 0.302816
H -10.176 4.23474 0.811754
H -8.72096 4.97558 0.785468
O -6.28826 -3.10672 -1.11757
H -7.15034 -2.60012 -1.10542
H -5.68951 -2.72881 -1.82372
O 10.7054 6.3689 -1.04152
H 10.8969 7.05915 -0.343774
H 10.5346 6.81927 -1.91786
O 9.26406 -2.86772 8.9388
H 9.17941 -3.50187 8.17025
H 10.1856 -2.92974 9.32216
O 5.2659 10.7478 13.1712
H 4.85204 9.90148 12.836
H 6.12024 10.9183 12.6803
O 2.49901 2.79464 -11.8053
H 3.18062 2.17058 -12.1873
H 2.51478 3.65636 -12.3125
O 8.98605 -4.47431 13.7959
H 8.51493 -3.76223 14.3164
H 9.94552 -4.21957 13.6754
O -1.21754 -14.4202 -12.3924
H -0.518119 -14.3517 -11.681
H -2.11795 -14.25 -11.9921
O 9.59728 -6.70969 8.91998
H 9.85805 -6.00036 8.26513
H 8.64263 -6.58087 9.18834
O -10.6578 -5.09582 -2.33277
H -11.5576 -4.66666 -2.4103
H -9.97821 -4.53245 -2.80266
O 1.04326 9.81835 -4.32174
H 0.719748 10.0537 -3.40527
H 0.356575 9.25707 -4.78369
O 13.9379 -13.4547 4.18075
H 14.7483 -13.7609 4.68016
H 14.1763 -12.6712 3.60693
O 1.55359 -11.4667 -5.84571
H 2.39459 -11.0424 -5.51006
H 0.87552 -10.7571 -6.03688
O 9.50225 -14.5975 -10.1005
H 8.82663 14.6895 -10.5996
H 9.45159 -13.6447 -10.4
O -13.757 -12.2618 -9.13973
H -14.3423 -12.9442 -9.57752
H -13.9514 -12.2356 -8.15918
O 14.1084 -1.33983 -9.93882
H 13.6403 -1.76605 -10.7129
H 13.7922 -0.396734 -9.83625
O -4.34114 12.4397 -12.0718
H -4.4421 11.947 -11.2075
H -3.38426 12.4128 -12.361
O -5.77003 7.86873 13.7917
H -6.75409 7.87335 13.6141
H -5.36074 7.05472 13.3796
O -2.4381 12.3699 13.6195
H -2.20132 13.0802 12.9566
H -2.125 12.6448 14.5286
O -2.33278 2.76025 -6.54344
H -1.54071 2.19914 -6.78376
H -2.52032 2.67058 -5.5653
O 7.66033 2.34381 -6.16657
H 7.3021 2.54343 -7.0786
H 8.65246 2.22891 -6.21596
O 10.3203 -1.32361 -1.44884
H 9.85959 -2.16585 -1.72876
H 9.94999 -0.552965 -1.96745
O 12.0191 -11.884 1.92241
H 12.9997 -12.0783 1.89649
H 11.8356 -11.1875 2.61611
O 3.2614 8.62788 12.3718
H 2.97362 9.58054 12.2738
H 3.31055 8.20001 11.4693
O -2.68645 -3.24743 9.54143
H -1.88328 -3.26717 10.1368
H -2.52295 -3.82539 8.74193
O 1.68644 -0.28482 12.5588
H 2.31499 -0.978897 12.9097
H 0.936002 -0.156395 13.2071
O 13.5429 14.6429 8.91824
H 12.6243 14.7953 8.55358
H 13.613 -14.7757 9.82715
O 14.5828 -5.40617 -11.754
H 14.5225 -6.36376 -11.4723
H 13.756 -4.9219 -11.4678
O 1.44306 13.6683 14.8191
H 1.30321 14.6234 -14.7495
H 2.41634 13.5063 14.6564
O -6.34324 -3.41228 14.3814
H -7.1277 -3.96958 14.6534
H -6.63264 -2.46169 14.269
O 11.5309 6.02741 -13.9822
H 12.1397 5.44978 -13.4385
H 11.0126 5.45775 -14.6201
O -12.4543 -11.7818 2.9357
H -12.0592 -11.1335 2.28495
H -12.1101 -11.5844 3.85358
O 0.544634 7.12174 8.76638
H 0.945721 6.62118 7.99921
H -0.379758 6.7818 8.93935
O -12.471 3.65134 -13.9997
H -12.6683 2.70642 -14.2608
H -12.9121 4.27459 -14.6454
O 0.497764 -0.0200797 -14.7224
H 0.712682 0.949596 -14.6061
H -0.00783131 -0.347443 -13.9241
O -7.08694 12.2592 14.1857
H -7.22265 11.6521 -14.8609
H -7.92211 12.2865 13.6364
O 1.02951 -11.3181 11.1765
H 0.280917 -11.862 10.7973
H 1.90399 -11.7048 10.8836
O -12.3284 0.865834 -14.4629
H -11.8345 0.0767342 -14.8282
H -12.6342 0.665956 -13.5321
O -1.33144 4.80853 -8.23323
H -0.708664 4.3048 -8.83187
H -1.72277 4.18361 -7.55772
O 4.5807 -7.5932 -8.56737
H 5.02558 -8.17875 -9.245
H 4.69812 -7.98885 -7.65652
O 1.62217 11.4104 -10.6721
H 2.32768 10.9041 -10.1762
H 1.60871 11.1145 -11.6272
O 3.3164 10.69 -8.51809
H 3.14695 11.2019 -7.67598
H 4.28658 10.7473 -8.75353
O -14.781 11.0428 2.30043
H -14.8617 12.0312 2.17183
H -14.2982 10.8564 3.15608
O -11.1654 -11.7084 7.2257
H -10.6997 -10.8797 7.53605
H -11.4788 -11.582 6.28452
O -0.335211 -11.5455 6.99291
H -0.594495 -11.3269 6.05219
H 0.440882 -12.1761 6.98678
O 5.90565 14.156 13.3805
H 5.50442 13.5324 14.0514
H 6.79006 14.4814 13.715
O 14.0368 -1.49326 0.509315
H 13.2862 -2.05608 0.163235
H 14.4869 -1.03141 -0.254934
O 8.63795 -14.4158 -6.10632
H 9.09827 -14.1443 -5.26113
H 9.20747 14.7563 -6.59963
O -13.3553 2.4163 7.18006
H -12.6496 3.12448 7.20022
H -12.9748 1.57754 6.7906
O 1.94323 4.56037 -4.96905
H 1.60631 4.53965 -4.02776
H 1.24372 4.95497 -5.56484
O -4.81687 -12.1204 -1.61563
H -4.67283 -12.4485 -2.54921
H -4.3608 -11.2383 -1.49831
O 10.6871 7.00025 -8.77598
H 10.8078 6.38289 -9.55332
H 10.4413 7.91076 -9.1085
O -13.9766 -1.38992 12.1588
H -13.7641 -0.501024 12.5646
H -14.8307 -1.7373 12.5457
O -13.5038 12.5406 -4.64114
H -13.5108 13.0381 -3.77372
H -13.4054 11.5615 -4.46308
O -2.1713 10.7968 4.02741
H -1.38881 10.4443 3.51412
H -2.58948 10.0536 4.54962
O 10.3263 -0.22801 7.30141
H 11.2666 -0.553921 7.20414
H 9.87887 -0.719277 8.04871
O 8.65057 13.9427 9.05453
H 7.69936 13.6667 8.9167
H 9.25198 13.1617 8.88617
O 13.7834 -4.37693 11.2061
H 13.2071 -5.16237 10.9803
H 14.6177 -4.69428 11.6567
O -9.79015 -13.139 14.2716
H -8.87298 -13.5374 14.272
H -10.4046 -13.7174 13.735
O -0.366238 -14.6315 5.18649
H 0.37888 -14.2214 5.71237
H -0.636952 14.3338 5.61037
O 9.16684 -11.1108 -7.80687
H 8.5187 -10.4029 -7.52609
H 9.02523 -11.9311 -7.25279
O 13.8028 14.3522 -4.22808
H 13.9282 13.3636 -4.31157
H 14.6929 14.7922 -4.1088
O -8.90693 4.14927 10.8924
H -9.13579 5.12001 10.9649
H -8.16523 3.93335 11.5274
O 7.30508 -12.9976 -3.22593
H 7.95148 -13.7605 -3.23553
H 6.3728 -13.3495 -3.30932
O 12.643 9.26358 4.52798
H 12.3883 10.2207 4.39007
H 13.4785 9.21656 5.07535
O -4.43731 -14.0639 -0.0136264
H -4.66265 -13.3391 -0.664689
H -4.15039 -14.8821 -0.511834
O 7.63196 -11.3048 -13.8297
H 7.43221 -10.3672 -14.1144
H 8.22635 -11.2895 -13.0257
O -10.3455 9.355 -3.1848
H -10.4802 10.3434 -3.115
H -9.70926 9.05433 -2.47432
O -7.11202 4.32676 -14.7143
H -6.59847 4.26917 -13.8582
H -8.09185 4.28718 -14.5186
O 14.2942 10.1808 -6.48785
H 13.491 10.1683 -5.89236
H -14.7166 9.9879 -5.94714
O 13.5399 -8.53059 -11.3248
H 14.2582 -9.08076 -10.899
H 12.8667 -8.26854 -10.6334
O -2.1561 -8.28893 11.1414
H -2.22205 -7.49105 10.5422
H -2.25669 -9.12268 10.5985
O 8.9964 -12.0427 -10.2964
H 9.07074 -11.2241 -10.8659
H 8.89495 -11.7742 -9.33851
O 1.8075 10.7924 12.177
H 1.5281 11.3386 11.3872
H 1.11572 10.8668 12.8952
O 8.51561 -13.5504 5.01496
H 9.11515 -12.8956 5.47513
H 8.75126 -13.5929 4.04406
O 10.3535 14.2328 -14.2981
H 10.7913 13.5975 -13.6619
H 11.0426 14.8467 -14.6832
O 1.9256 8.40675 -7.87748
H 1.14316 8.14537 -8.44268
H 2.28327 9.28678 -8.18989
O -0.852485 -2.78207 11.9965
H -0.968532 -3.2413 12.8772
H -1.01737 -1.80202 12.1073
O 8.48703 -11.4159 11.0823
H 8.55533 -11.5651 10.0958
H 8.60932 -12.2858 11.5602
O -12.6918 -4.48515 -11.0361
H -13.5684 -4.82372 -11.378
H -12.5657 -3.53601 -11.3245
O -0.781538 4.08064 0.243061
H 0.130544 3.84579 0.579105
H -0.847403 5.07111 0.122181
O -13.1801 -4.04784 -2.86035
H -13.4089 -3.1261 -3.1734
H -14.0027 -4.49386 -2.50766
O -2.60025 -0.821197 -6.53317
H -3.38584 -1.05052 -7.10783
H -2.90729 -0.670796 -5.59345
O 6.74091 6.3956 4.66313
H 7.48441 6.9218 4.25045
H 6.74362 6.53495 5.65336
O 11.6968 9.28476 13.267
H 11.8217 10.0511 12.6369
H 12.397 8.59242 13.0927
O 9.73527 6.18675 -4.60713
H 9.01471 5.94062 -5.25535
H 10.6045 5.79686 -4.91113
O 14.8228 2.20086 -7.65504
H 13.862 2.3663 -7.43262
H -14.4557 2.97803 -7.35121
O 3.09619 5.65655 12.6373
H 2.18257 5.49234 12.2654
H 3.03365 6.29269 13.4063
O -14.6842 4.96951 -10.8912
H -14.875 5.39948 -10.0088
H -13.8674 5.3828 -11.2937
O 0.0968561 6.28129 -6.50383
H -0.521678 5.93514 -7.20922
H 0.812383 6.8346 -6.93026
O 0.392389 -4.62099 -9.20161
H 0.750057 -3.84478 -8.68244
H 1.06395 -5.36191 -9.1985
O 7.37764 2.86651 10.3891
H 6.93297 2.03098 10.0664
H 6.70691 3.4414 10.8577
O -5.56672 -6.76871 -14.5922
H -4.94351 -5.9871 -14.5663
H -6.49449 -6.44902 -14.7846
O -11.0174 -10.361 -4.09436
H -11.3331 -9.58489 -4.64018
H -11.6708 -10.5387 -3.35846
O 13.8328 1.53315 10.9042
H 14.046 1.66205 9.9358
H 14.6828 1.46398 11.4264
O 6.52402 -2.30586 -7.93129
H 6.49453 -3.05053 -7.26454
H 7.2618 -1.67425 -7.69314
O 11.9196 12.8288 1.55597
H 11.141 13.0005 2.15955
H 11.688 13.1105 0.624864
O 10.4932 8.42516 -14.258
H 10.9368 7.55911 -14.0274
H 11.0112 8.8829 14.849
O 12.9951 0.591954 -11.9455
H 13.6801 1.26193 -11.6592
H 13.2118 0.266209 -12.8658
O -10.3754 -8.82923 -1.30514
H -10.6904 -9.66103 -0.848109
H -9.66072 -9.06162 -1.96483
O 13.0636 -7.47856 3.80688
H 12.5553 -6.73326 3.37535
H 12.4274 -8.19776 4.0863
O 12.7621 -7.43391 -3.31338
H 12.9388 -7.7771 -2.39089
H 13.4599 -7.78365 -3.93846
O 4.167 14.8422 -11.7857
H 3.29227 14.7617 -11.3079
H 4.28286 14.0635 -12.4023
O -5.69078 14.4118 1.93473
H -5.01997 -14.835 1.47614
H -6.60803 14.6374 1.60651
O -12.0454 12.8357 2.35542
H -11.8615 13.4058 3.15616
H -12.1495 11.8831 2.64125
O 9.41943 -13.4877 2.468
H 9.13718 -13.9994 1.65654
H 10.3033 -13.0524 2.29683
O -8.33603 -13.7374 -7.71005
H -9.04819 -14.309 -7.30255
H -8.13125 -12.9733 -7.09829
O -1.66346 -0.133036 11.9631
H -1.99139 0.271666 12.8167
H -1.79101 0.518078 11.2149
O -2.76437 -9.03845 0.110281
H -1.95645 -8.49687 -0.121928
H -3.25916 -9.27438 -0.726084
O 9.0571 4.22463 8.60637
H 8.46301 3.77763 9.27511
H 9.09727 5.20507 8.799
O 2.00733 11.7999 9.48612
H 1.6496 12.6003 9.00504
H 3.0019 11.8727 9.56039
O 7.12758 -6.67019 10.055
H 6.2644 -7.02177 9.69268
H 6.94761 -5.87032 10.6275
O 7.30465 2.96622 7.10544
H 7.30349 2.77447 6.12401
H 8.14559 3.44906 7.34972
O -2.19018 8.6781 8.91533
H -1.26791 9.04642 8.79815
H -2.51707 8.88505 9.83744
O -8.16802 -11.9282 10.9221
H -7.21061 -11.8021 11.1818
H -8.6046 -11.035 10.8145
O -8.13488 -2.7274 -7.48415
H -8.97516 -2.71699 -6.94212
H -7.62086 -1.8858 -7.31838
O 14.2063 -7.9509 13.9029
H -14.8462 -8.51188 13.6177
H 14.4996 -6.99985 14.0001
O 8.95986 -0.0613616 11.3439
H 8.6915 0.700426 10.7543
H 9.95719 -0.130793 11.3656
O -9.66214 -2.19624 -13.7886
H -9.32362 -3.12792 -13.6569
H -9.32464 -1.61157 -13.0509
O -8.82384 -1.50005 -11.2362
H -9.53355 -1.3241 -10.554
H -7.93005 -1.26153 -10.8564
O -4.57378 -11.8551 8.69631
H -4.44208 -11.3649 7.83473
H -4.74999 -12.821 8.50665
O -7.51493 -14.7092 14.7899
H -7.07067 -13.8872 -14.6834
H -6.87384 14.3537 14.8239
O -12.4247 -4.80653 8.58862
H -13.2764 -4.36006 8.86314
H -12.0157 -4.30434 7.82674
O -0.534581 -3.15553 1.78086
H -0.465018 -2.32107 2.32749
H -0.697771 -3.93637 2.38387
O 12.3726 -7.0839 -6.51082
H 11.7878 -6.56652 -5.88608
H 13.3058 -6.7272 -6.46624
O 13.358 9.14099 7.90684
H 12.4149 9.23496 7.58796
H 13.8804 8.59992 7.24778
O -10.8333 13.3934 -0.207355
H -11.3108 13.2694 0.662451
H -10.0666 14.0227 -0.079898
O -10.1847 -9.61515 -12.3352
H -10.8559 -9.61358 -13.0764
H -10.6397 -9.84104 -11.4739
O -11.2272 8.25406 -9.79845
H -11.6143 9.1606 -9.96684
H -11.2034 7.73757 -10.6544
O 9.5572 8.8951 9.86415
H 10.2118 9.33013 10.4823
H 9.20971 8.05631 10.2832
O -4.97419 0.38047 0.722498
H -4.57603 -0.533628 0.645878
H -4.24346 1.06311 0.725707
O 14.7117 -5.60058 -6.57534
H -14.2271 -5.40569 -6.98591
H 14.0644 -4.88086 -6.82624
O -10.9534 -4.28894 6.1577
H -10.5669 -5.1931 5.97589
H -10.2198 -3.60958 6.17223
O -4.44635 13.6743 -8.06231
H -5.25944 14.1724 -8.36358
H -3.6358 14.0637 -8.49975
O 0.740568 13.8095 -8.7717
H 1.27483 14.2427 -8.04579
H 1.2002 12.9731 -9.07004
O -3.24408 -10.2768 -8.45663
H -4.11659 -10.6823 -8.72909
H -3.0607 -9.47108 -9.01983
O -11.4314 4.36237 -11.5989
H -11.9477 4.07845 -12.4069
H -11.2339 3.56286 -11.0316
O 9.67791 -4.14803 1.40243
H 9.04815 -3.98632 0.642672
H 9.16885 -4.49882 2.18842
O -11.2053 -9.81591 1.27884
H -11.725 -8.97824 1.11111
H -10.2448 -9.58638 1.43598
O 2.21192 -2.63395 -12.3191
H 2.22361 -3.41154 -11.6905
H 1.27093 -2.44807 -12.6019
O 8.8146 -3.40916 -2.03557
H 8.82439 -4.18287 -1.40213
H 8.33319 -3.66963 -2.87245
O -9.80357 5.86782 -5.47206
H -9.01556 6.01849 -6.06897
H -10.3166 6.72072 -5.37573
O -9.4407 13.4274 -13.9806
H -9.05058 14.0672 -14.6427
H -8.78762 13.2762 -13.2385
O -4.76677 -6.96248 -0.445034
H -3.90383 -7.1601 0.0200102
H -4.66422 -7.13389 -1.42487
O -2.66009 6.74637 -11.8374
H -3.22044 7.11934 -11.0979
H -3.10698 6.92097 -12.7148
O -5.94378 -12.1722 5.92853
H -5.7878 -11.4484 5.2563
H -6.7412 -11.9425 6.48653
O -0.673887 10.2991 13.6508
H -0.667063 10.0685 14.6238
H -1.52944 10.7647 13.4245
O -13.5764 1.17169 -5.4165
H -14.074 1.43878 -6.24174
H -14.2282 0.954852 -4.68977
O -13.0257 7.27131 -1.89221
H -12.4029 7.90813 -2.34675
H -13.7684 7.78271 -1.45999
O -3.71896 11.9154 0.781846
H -3.93768 12.0872 -0.178687
H -4.46279 12.2531 1.35862
O -14.7137 -11.7243 12.4273
H 14.63 -11.4533 11.5963
H -14.2281 -10.9345 12.802
O 0.222025 -1.37788 -2.54258
H 1.09682 -0.899878 -2.46376
H 0.327124 -2.16793 -3.14653
O -10.499 8.53296 2.22323
H -10.0338 7.80754 2.73058
H -10.7709 8.1894 1.32434
O -9.17983 11.2726 -10.1223
H -8.84502 10.5306 -9.54157
H -9.62803 11.9635 -9.55513
O -9.00043 1.93785 3.31803
H -8.075 1.68197 3.03862
H -9.62682 1.18169 3.12874
O 11.2259 -1.75393 2.53164
H 12.1234 -2.14956 2.72668
H 10.6657 -2.42303 2.04334
O -13.2239 -2.35879 4.32994
H -14.178 -2.62826 4.46116
H -12.7218 -2.48286 5.18576
O 11.7166 -0.000782534 11.0217
H 12.4834 0.640232 11.0534
H 11.8788 -0.679275 10.3052
O -7.90195 -8.14679 -10.8737
H -8.22517 -8.12217 -11.8197
H -7.10795 -8.75117 -10.8084
O -8.23287 -5.3579 11.0112
H -7.34998 -5.64181 11.3852
H -8.30741 -4.36154 11.0524
O -7.38068 -5.16806 -4.35895
H -6.79115 -5.61326 -3.68499
H -7.71992 -4.30437 -3.98622
O -12.9248 -0.0985566 2.59468
H -13.1015 -0.856248 3.22289
H -11.9794 -0.146424 2.27234
O -6.6059 -2.57085 9.82601
H -6.29622 -3.47206 9.52288
H -7.37253 -2.67741 10.4592
O -3.05271 8.98987 5.84699
H -3.76915 9.07659 6.5392
H -2.44931 8.2289 6.08533
O -2.28928 -14.0415 3.40902
H -3.23219 -14.3659 3.48415
H -1.75325 -14.3945 4.17587
O -11.7298 2.11097 0.556595
H -11.7804 2.64152 1.40272
H -12.6168 2.13385 0.0953107
O 9.26414 -1.71152 4.48333
H 9.70823 -1.45452 5.34164
H 9.94373 -1.73398 3.7501
O 13.1802 9.29778 10.7739
H 13.2603 9.06541 9.80455
H 12.6432 10.1355 10.8725
O -5.34967 -11.9997 11.3711
H -4.94875 -11.8546 10.4666
H -4.8767 -12.7528 11.8285
O -3.25879 -5.39242 11.3957
H -2.27981 -5.52535 11.2411
H -3.61182 -4.72379 10.7413
O 6.46552 -1.89121 12.0383
H 6.80277 -1.23904 11.3594
H 6.88769 -1.6985 12.9241
O -13.8234 11.6233 -2.00728
H -13.1364 11.1362 -1.46809
H -13.7995 12.5961 -1.77691
O 5.90516 2.14741 2.25294
H 6.81052 1.86799 1.93321
H 5.97308 3.03163 2.71501
O 0.0667653 -0.733922 3.32138
H 0.876301 -0.149234 3.26879
H -0.709072 -0.199609 3.65688
O 0.451365 -13.5349 -14.5151
H 0.162934 -12.9748 14.538
H -0.333194 -14.0447 -14.1622
O 14.6475 -4.49102 6.23416
H 14.5316 -4.18959 7.18057
H -14.6632 -5.34566 6.21771
O 4.58945 14.2803 6.58917
H 5.09764 -14.7016 6.43729
H 3.69075 14.3483 6.15593
O -11.0263 7.04292 -0.0422704
H -11.7754 7.07233 -0.704083
H -10.5407 6.17283 -0.12689
O 4.09582 -13.0402 -6.15582
H 4.38464 -13.2482 -5.22133
H 4.80655 -13.3302 -6.79671
O 10.7808 -9.44774 -3.54216
H 10.7977 -8.4679 -3.34318
H 11.3432 -9.63405 -4.34772
O -12.6591 10.2916 0.392446
H -13.3505 10.2611 1.11419
H -11.9395 10.9375 0.647336
O -0.317117 -8.98511 -12.0031
H -0.0782949 -9.9543 -12.0632
H -0.366801 -8.59643 -12.9231
O 4.74111 -1.85031 -12.4271
H 5.30729 -2.62066 -12.7203
H 3.79796 -2.15833 -12.3023
O -13.3403 14.7821 -6.28488
H -13.5717 14.61 -7.24239
H -13.4139 13.9306 -5.76589
O 9.54353 10.6348 5.76575
H 10.1833 11.2218 5.2696
H 8.90881 10.212 5.11894
O -4.73116 2.77565 -1.99441
H -5.08093 3.70993 -2.06337
H -4.36319 2.62437 -1.07698
O -4.95669 11.7645 12.5352
H -4.04961 11.9816 12.8957
H -5.65463 12.196 13.1067
O 14.697 -11.2553 2.45677
H 14.7134 -10.2639 2.58628
H -14.204 -11.5845 2.28536
O 10.8704 -1.29257 -8.22479
H 10.433 -2.14218 -7.93015
H 11.8438 -1.32258 -7.99753
O -4.46727 12.5257 4.82223
H -4.56095 13.5036 4.63534
H -3.69968 12.1581 4.29723
O -9.9347 -8.9307 11.566
H -9.15796 -8.69544 10.9818
H -9.60172 -9.35171 12.4097
O 5.88738 -10.1034 4.53214
H 6.32688 -10.7115 3.87102
H 5.59505 -9.2655 4.07128
O -7.9693 -12.5605 3.40893
H -8.47164 -11.9104 3.97903
H -7.56721 -12.0793 2.62996
O -12.5459 -4.47932 -7.10285
H -12.1148 -5.15328 -7.70281
H -12.5963 -3.5983 -7.57322
O -12.9135 -8.22708 -11.783
H -12.9799 -8.60736 -10.8606
H -12.8638 -8.97229 -12.448
O 12.8868 -1.42978 -2.71641
H 12.6767 -0.659952 -3.31907
H 12.0902 -1.63504 -2.14785
O -3.15858 2.41176 0.648536
H -2.27443 2.76943 0.348002
H -3.21435 2.45585 1.64599
O 5.11752 -7.80589 3.62715
H 4.46806 -7.5403 4.33965
H 4.89955 -7.32127 2.78003
O -7.19652 14.7433 10.6906
H -8.08826 -14.7802 11.0239
H -6.48983 -14.8376 11.3529
O 12.2473 -3.56796 -10.4068
H 12.0007 -3.35708 -11.3527
H 11.674 -3.03347 -9.78581
O 1.62958 4.07125 8.6925
H 2.12387 4.30936 7.85646
H 2.18869 3.45389 9.2459
O 4.87849 -14.6869 -3.61545
H 5.18293 14.2073 -3.79542
H 4.80686 -14.5438 -2.62835
O -0.458911 -11.0037 1.78669
H -0.349282 -11.918 1.39666
H -1.15997 -10.5055 1.27648
O 8.81721 4.27891 -8.59783
H 9.46436 3.73858 -8.06005
H 9.29151 4.68795 -9.37738
O -6.41977 -2.83645 4.33475
H -6.38356 -3.51782 5.06577
H -5.89879 -2.02748 4.60703
O 7.0932 -8.56701 -2.79127
H 6.84012 -9.19674 -3.52568
H 6.26912 -8.26665 -2.311
O -0.119204 10.1255 -1.60433
H -0.352272 11.0976 -1.63042
H 0.528624 9.95793 -0.861228
O 14.6036 7.95375 -10.248
H -14.686 7.72695 -9.43743