LAMMPS data file via write_data, version 15 May 2015, timestep = 1000000

4560 atoms
7 atom types
5040 bonds
3 bond types
7200 angles
2 angle types
10560 dihedrals
3 dihedral types
2400 impropers
1 improper types

-1.0763502675555259e-01 4.1387635026745990e+01 xlo xhi
-4.0433884491974936e-02 3.5938433884472119e+01 ylo yhi
-3.5711112484589691e-01 2.9555111124838550e+01 zlo zhi
-6.7234083837551181e-02 -1.7036217651000683e+01 -4.1707816797290791e-02 xy xz yz

Masses

1 12.0107
2 1.008
3 12.0107
4 12.0107
5 12.0107
6 12.0107
7 12.0107

Pair Coeffs # lj/cut/coul/long

1 0.07 3.55
2 0.03 2.42
3 0.07 3.55
4 0.07 3.55
5 0.07 3.55
6 0 0
7 0.07 3.55

Bond Coeffs # harmonic

1 469 1.4
2 367 1.08
3 469 0.7

Angle Coeffs # harmonic

1 35 120
2 63 120

Dihedral Coeffs # opls

1 0 7.25 0 0
2 0 7.25 0 0
3 0 7.25 0 0

Improper Coeffs # cvff

1 2.5 -1 2

Atoms # full

219 13 3 0.0000000000000000e+00 -3.4522897857869550e-01 2.6832551756168055e+00 3.6344498856617307e+00 1 0 0
220 13 4 -1.1500000000000000e-01 3.4009289707061097e-01 3.5692531279010762e+00 2.7920037008861835e+00 1 0 0
224 13 2 1.1500000000000000e-01 7.5800936775326733e-01 4.5398959292996297e+00 3.1176208130699319e+00 1 0 0
580 33 4 -1.1500000000000000e-01 2.5160487525939415e+00 6.9910470438700472e+00 3.7405421909946446e+00 1 0 0
228 13 3 0.0000000000000000e+00 -8.8378368612457869e-01 1.4877361239078053e+00 3.1452997304300823e+00 1 0 0
989 53 4 -1.1500000000000000e-01 -1.4890224316614660e+00 7.0955102856195928e+00 3.6689402862586782e+00 1 0 0
600 34 2 1.1500000000000000e-01 -9.1375395013243654e-02 6.0938358088605069e+00 7.2072163047704585e+00 1 0 0
992 53 2 1.1500000000000000e-01 -8.6543285031231754e-01 6.1571900292070127e+00 1.2126964623946153e+00 1 0 0
244 14 1 -1.1500000000000000e-01 -4.3575845531143154e+00 1.8831376917934233e+00 7.9100917657962597e+00 1 0 0
4382 233 2 1.1500000000000000e-01 4.4376891373464664e+00 4.3401762700929453e-01 -2.5489265144594009e-01 1 1 0
733 13 6 0.0000000000000000e+00 -5.0682280395196266e-01 2.0581901969889516e+00 3.4406048659627317e+00 1 0 0
1009 54 2 1.1500000000000000e-01 -4.2113249368838357e+00 7.4003557788789252e+00 6.8892748452138761e+00 1 0 0
230 13 1 -1.1500000000000000e-01 5.0981827483054021e-01 3.2918727455445960e+00 1.4485646638203409e+00 1 0 0
217 13 7 -1.1500000000000000e-01 -1.1692845132689116e+00 2.2297904717542627e+00 5.8245253268515897e+00 1 0 0
218 13 5 -1.1500000000000000e-01 -4.5256291457126441e-01 3.0389961524639015e+00 4.9631155695282061e+00 1 0 0
221 13 1 -1.1500000000000000e-01 -1.7948180979147288e+00 1.0218528456175828e+00 5.3750744080493389e+00 1 0 0
222 13 2 1.1500000000000000e-01 -1.3056604268871079e+00 2.4599638100593868e+00 6.8536991110718049e+00 1 0 0
223 13 2 1.1500000000000000e-01 4.4342027591242061e-02 3.8854341799987102e+00 5.4557101767186369e+00 1 0 0
248 14 1 -1.1500000000000000e-01 -3.7663695753178308e+00 3.0798948276894631e+00 8.2738541075062386e+00 1 0 0
4380 233 4 -1.1500000000000000e-01 2.6095821103697374e+00 5.6262706185322775e-01 3.9720743214633520e+00 1 1 0
599 34 1 -1.1500000000000000e-01 -1.7430231990605449e-02 4.4884044586954497e+00 8.6509388330025931e+00 1 0 0
4401 234 2 1.1500000000000000e-01 -7.4229103419375342e-01 1.4187396084637149e+00 8.9187407367835654e+00 1 1 0
1005 54 4 -1.1500000000000000e-01 -4.8045421979216991e+00 7.0971831653093425e+00 8.9174369482588940e+00 1 0 0
1493 53 6 0.0000000000000000e+00 -6.1201918625926655e-01 8.4428996907447118e+00 2.7338973081708060e+00 1 0 0
579 33 3 0.0000000000000000e+00 3.1476378137703098e+00 6.0524842955609142e+00 2.9372346672917558e+00 1 0 0
252 14 2 1.1500000000000000e-01 -3.2662589808336335e+00 3.6062162981484192e+00 7.4352314496114209e+00 1 0 0
581 33 1 -1.1500000000000000e-01 5.0658059016757004e+00 4.4765926317447402e+00 1.4342923671480776e+00 1 0 0
4396 234 5 -1.1500000000000000e-01 -4.9711591176140590e-01 3.5415254757923764e-01 9.1056776360182887e+00 1 1 0
577 33 7 -1.1500000000000000e-01 4.3747379033910256e+00 5.5166888826223879e+00 8.3833776612193267e-01 1 0 0
588 33 3 0.0000000000000000e+00 3.6826056585809388e+00 4.9206340557347206e+00 3.4951749964724561e+00 1 0 0
589 33 4 -1.1500000000000000e-01 4.6422732113633636e+00 4.1406645656457597e+00 2.7596957964570445e+00 1 0 0
593 33 2 1.1500000000000000e-01 5.1613030756554554e+00 3.3357879944197690e+00 3.2548005767684409e+00 1 0 0
753 33 6 0.0000000000000000e+00 3.5878798998498542e+00 5.5182701549406703e+00 3.0598550799907427e+00 1 0 0
4383 233 2 1.1500000000000000e-01 2.8701742750413546e+00 1.3927792563333858e+00 1.4244178608253850e+00 1 1 0
234 13 2 1.1500000000000000e-01 9.8023354983726940e-01 4.0441307845382797e+00 8.3338247847027436e-01 1 0 0
578 33 5 -1.1500000000000000e-01 3.4617335241929661e+00 6.3208964735881965e+00 1.5938459264402141e+00 1 0 0
985 53 2 1.1500000000000000e-01 -2.0226389139155314e+00 7.2251212339352344e+00 5.7353249975640805e+00 1 0 0
4384 233 2 1.1500000000000000e-01 2.3037227690528570e+00 1.5303035269291985e+00 3.6885529896761877e+00 1 1 0
586 33 1 -1.1500000000000000e-01 2.7412110700187209e+00 5.5049396273455908e+00 5.6622532130981220e+00 1 0 0
587 33 4 -1.1500000000000000e-01 3.4658541717847102e+00 4.5896192925770647e+00 4.8663770512989091e+00 1 0 0
4378 233 5 -1.1500000000000000e-01 3.4711365951174384e+00 4.5960199910677341e-01 1.6349378404660555e+00 1 1 0
591 33 2 1.1500000000000000e-01 2.5232498119799285e+00 5.2471628699487614e+00 6.6400495160294861e+00 1 0 0
249 14 2 1.1500000000000000e-01 -4.1997432173459517e+00 1.5466970181923174e+00 6.9615391740295909e+00 1 0 0
590 33 1 -1.1500000000000000e-01 2.2361434547655108e+00 6.6890189685035741e+00 5.0600315135100216e+00 1 0 0
584 33 2 1.1500000000000000e-01 2.1191693270960821e+00 7.9156021758484139e+00 3.4425215762889989e+00 1 0 0
1004 54 1 -1.1500000000000000e-01 -4.2340984308738800e+00 7.8218517355919683e+00 7.8529154833160923e+00 1 0 0
229 13 4 -1.1500000000000000e-01 -1.6177048459091465e+00 6.8239037474808562e-01 4.0006816045555604e+00 1 0 0
993 53 2 1.1500000000000000e-01 -1.8782535755764584e+00 6.0636099902754257e+00 3.4537479482057591e+00 1 0 0
582 33 2 1.1500000000000000e-01 4.8145820173547413e+00 5.7123990444215789e+00 -1.4422749063713547e-01 1 0 0
603 34 2 1.1500000000000000e-01 3.7904019571488856e-01 3.7178390287911487e+00 7.9976130499757794e+00 1 0 0
4394 233 2 1.1500000000000000e-01 1.7577506500494660e+00 4.3424677238308867e-01 5.9744306353018342e+00 1 1 0
988 53 3 0.0000000000000000e+00 -7.9745967938068629e-01 7.7796579123684859e+00 2.6386221260536447e+00 1 0 0
595 34 7 -1.1500000000000000e-01 -2.3046052007328566e-01 5.8272944867727743e+00 8.2106752327718073e+00 1 0 0
981 53 1 -1.1500000000000000e-01 -1.5958064818026401e+00 7.7605672945622759e+00 4.8857257041335469e+00 1 0 0
226 13 1 -1.1500000000000000e-01 8.6258814428363251e-02 2.0911975303335648e+00 9.1143623724298184e-01 1 0 0
1010 54 2 1.1500000000000000e-01 -5.1045657093254366e+00 6.0878950392815865e+00 8.7829318181821581e+00 1 0 0
583 33 2 1.1500000000000000e-01 3.0915804016824633e+00 7.2521499154007039e+00 1.1775203010226012e+00 1 0 0
596 34 5 -1.1500000000000000e-01 -7.5917476208021295e-01 6.7768156956930365e+00 9.0645289482054867e+00 1 0 0
245 14 4 -1.1500000000000000e-01 -5.0925795367056574e+00 1.1864450150662853e+00 8.8980499802638935e+00 1 0 0
585 33 2 1.1500000000000000e-01 5.8160177525324688e+00 3.9231920166260768e+00 9.3664685138931425e-01 1 0 0
601 34 2 1.1500000000000000e-01 -9.2546175346791593e-01 7.8036792837248212e+00 8.6803228919993298e+00 1 0 0
986 53 1 -1.1500000000000000e-01 1.9343483682179752e-01 7.7894862287721107e+00 3.4486092286964465e-01 1 0 0
594 33 2 1.1500000000000000e-01 1.7941017297184612e+00 7.3587213716111695e+00 5.7529666505111665e+00 1 0 0
227 13 4 -1.1500000000000000e-01 -7.0331094628412227e-01 1.2079581964344437e+00 1.7355830006517285e+00 1 0 0
592 33 2 1.1500000000000000e-01 3.8486826579984470e+00 3.6358412743422388e+00 5.2464198704187606e+00 1 0 0
225 13 2 1.1500000000000000e-01 -2.2271749837430965e+00 3.8780283507535590e-01 6.1291700506553504e+00 1 0 0
987 53 4 -1.1500000000000000e-01 -5.2048348923428178e-01 7.1170008932705846e+00 1.3813863901193417e+00 1 0 0
232 13 2 1.1500000000000000e-01 -1.1021798033442882e+00 2.7912096997279079e-01 1.4264394461723984e+00 1 0 0
1082 58 2 1.1500000000000000e-01 2.9179969718344418e+00 6.4843922066315764e+00 8.4636935534259177e+00 1 0 0
1353 73 2 1.1500000000000000e-01 4.5442484048020315e+00 8.8478977610802350e+00 2.6965515359149612e+00 1 0 0
231 13 2 1.1500000000000000e-01 3.4357849616974434e-01 1.8162929626295246e+00 -1.2946976556657544e-01 1 0 0
238 14 4 -1.1500000000000000e-01 -3.8941905235160457e+00 3.6352557792938485e+00 9.5779147239279769e+00 1 0 0
235 14 7 -1.1500000000000000e-01 -5.3282406388762027e+00 2.6769547945742831e+00 1.2851014317939319e+01 1 0 0
236 14 5 -1.1500000000000000e-01 -4.6380918531762729e+00 3.3424207893871904e+00 1.1848924545434100e+01 1 0 0
263 15 4 -1.1500000000000000e-01 -9.0502661535333822e+00 1.6111031108862006e+00 1.6305254307444073e+01 1 0 0
610 34 2 1.1500000000000000e-01 -6.0067541703801641e-01 3.8770554626974292e+00 1.2504089240672505e+01 1 0 0
239 14 1 -1.1500000000000000e-01 -6.0187752541973776e+00 1.5466716801915450e+00 1.2499282674523354e+01 1 0 0
240 14 2 1.1500000000000000e-01 -5.4635278521856900e+00 3.0196009931748828e+00 1.3832841511831800e+01 1 0 0
602 34 2 1.1500000000000000e-01 -1.8736147227757796e+00 8.4392196755002136e+00 1.0902899555027870e+01 1 0 0
268 15 2 1.1500000000000000e-01 -9.4092653340149166e+00 6.2561803136619609e-01 1.6006110832391371e+01 1 0 0
1028 55 2 1.1500000000000000e-01 -9.4486938580898858e+00 6.6999016861740932e+00 1.6069813081937912e+01 1 0 0
237 14 3 0.0000000000000000e+00 -4.5640777803175077e+00 2.8934809889926107e+00 1.0546993304997933e+01 1 0 0
4402 234 2 1.1500000000000000e-01 -1.6675776301867735e+00 1.8131998407667436e+00 1.0938017095168968e+01 1 1 0
1023 55 4 -1.1500000000000000e-01 -9.0016900890217446e+00 7.5752924184028130e+00 1.6481227741826054e+01 1 0 0
1022 55 1 -1.1500000000000000e-01 -8.3455632444583348e+00 8.4703576589306859e+00 1.5656210192544240e+01 1 0 0
255 15 3 0.0000000000000000e+00 -8.8756275685944583e+00 3.0349092802360964e+00 1.8231302464877864e+01 1 0 0
256 15 4 -1.1500000000000000e-01 -8.1342963312556229e+00 3.9510111655468263e+00 1.7424434388172166e+01 1 0 0
260 15 2 1.1500000000000000e-01 -7.7567068161919810e+00 4.8749856366069153e+00 1.7822961342495365e+01 1 0 0
623 35 4 -1.1500000000000000e-01 -4.9412942595257583e+00 4.4610267417632450e+00 1.9528403322002113e+01 1 0 0
1011 54 2 1.1500000000000000e-01 -5.9504946797324312e+00 6.0085189327488431e+00 1.1090468272434929e+01 1 0 0
264 15 3 0.0000000000000000e+00 -9.3636870617693688e+00 1.8939387738671847e+00 1.7623408618202571e+01 1 0 0
597 34 3 0.0000000000000000e+00 -1.0482214616066612e+00 6.4469144430762064e+00 1.0354836205965018e+01 1 0 0
266 15 1 -1.1500000000000000e-01 -7.8738699611804979e+00 3.7465331304970708e+00 1.6106654319516679e+01 1 0 0
4412 234 2 1.1500000000000000e-01 -2.4523833271546760e+00 9.4806402982088811e-01 1.3209846438421250e+01 1 1 0
609 34 2 1.1500000000000000e-01 -1.5276948620037087e+00 5.3981401869390115e+00 1.4061931043879968e+01 1 0 0
620 35 2 1.1500000000000000e-01 -5.6970223741610981e+00 8.1023996392359585e+00 1.8336036068410564e+01 1 0 0
735 15 6 0.0000000000000000e+00 -9.2610069405725639e+00 2.4400268485229617e+00 1.8059252169860002e+01 1 0 0
4398 234 4 -1.1500000000000000e-01 -1.4616593875558177e+00 7.8972847549013780e-01 1.1262876151133447e+01 1 1 0
267 15 2 1.1500000000000000e-01 -8.1616277308023584e+00 2.3821902583024044e+00 1.4470760613861849e+01 1 0 0
604 34 1 -1.1500000000000000e-01 -1.3955718392802350e+00 5.7875444600837751e+00 1.3057236075528900e+01 1 0 0
605 34 4 -1.1500000000000000e-01 -9.1941656163730912e-01 4.8280145927100495e+00 1.2158743197981313e+01 1 0 0
606 34 3 0.0000000000000000e+00 -6.9017292451697276e-01 5.1684415327695401e+00 1.0823809479941492e+01 1 0 0
611 34 2 1.1500000000000000e-01 3.4648592187217897e-01 3.2390045599512418e+00 1.0238737352800861e+01 1 0 0
242 14 2 1.1500000000000000e-01 -3.3885346804465679e+00 4.5603775947744989e+00 9.7647294663101434e+00 1 0 0
1024 55 3 0.0000000000000000e+00 -9.0898984419670388e+00 7.7944980364816914e+00 1.7883630625175510e+01 1 0 0
1494 54 6 0.0000000000000000e+00 -4.6286700395338727e+00 8.2976102614729790e+00 1.0425929315120241e+01 1 0 0
241 14 2 1.1500000000000000e-01 -4.2466542043017981e+00 4.3170265199792919e+00 1.2121568994839391e+01 1 0 0
4420 235 2 1.1500000000000000e-01 -6.4950917178836489e+00 1.7629976099330555e+00 1.8078487637627855e+01 1 1 0
598 34 4 -1.1500000000000000e-01 -1.5643100755329487e+00 7.4454643197827295e+00 1.1252720428511100e+01 1 0 0
754 34 6 0.0000000000000000e+00 -7.5218569315379202e-01 5.8361540026480245e+00 1.0685880914022190e+01 1 0 0
4414 235 5 -1.1500000000000000e-01 -5.2593205645150229e+00 2.3784687419780637e-01 1.6116002764753286e+01 1 1 0
613 35 7 -1.1500000000000000e-01 -4.2325309312612376e+00 5.4273998229920446e+00 1.5468037865695960e+01 1 0 0
618 35 2 1.1500000000000000e-01 -4.0070098057562706e+00 5.6796576504254643e+00 1.4459921664971132e+01 1 0 0
615 35 3 0.0000000000000000e+00 -4.9752723865318691e+00 6.1848567097170042e+00 1.7702572095681969e+01 1 0 0
617 35 1 -1.1500000000000000e-01 -3.8671113656021960e+00 4.1417330899145490e+00 1.5962671500124891e+01 1 0 0
621 35 2 1.1500000000000000e-01 -3.3757389103294839e+00 3.3342374579734493e+00 1.5445475797109758e+01 1 0 0
624 35 3 0.0000000000000000e+00 -4.7659609427868483e+00 4.8427690126700966e+00 1.8143129630243276e+01 1 0 0
625 35 4 -1.1500000000000000e-01 -4.1854150513586248e+00 3.9195644808389356e+00 1.7282501607273598e+01 1 0 0
629 35 2 1.1500000000000000e-01 -3.7621828041121059e+00 3.0774097468430548e+00 1.7660965413364309e+01 1 0 0
755 35 6 0.0000000000000000e+00 -4.7990962765734571e+00 5.5231172136732312e+00 1.7997956487188343e+01 1 0 0
270 15 2 1.1500000000000000e-01 -7.4276094205414260e+00 4.5625494564834481e+00 1.5633657646088256e+01 1 0 0
607 34 4 -1.1500000000000000e-01 -1.3291311564184660e-01 4.1973625945327555e+00 9.9889189614623106e+00 1 0 0
4416 235 4 -1.1500000000000000e-01 -5.9927321865083938e+00 8.6349632019496991e-01 1.8374058628139398e+01 1 1 0
614 35 5 -1.1500000000000000e-01 -4.6477757166580949e+00 6.4927516009783481e+00 1.6382876339672368e+01 1 0 0
247 14 4 -1.1500000000000000e-01 -5.8863956452169184e+00 9.4094901339585846e-01 1.1215497379990046e+01 1 0 0
4419 235 2 1.1500000000000000e-01 -5.5262079212747750e+00 1.2476021527306120e+00 1.5708770027121890e+01 1 1 0
4408 234 1 -1.1500000000000000e-01 -1.8832748988597547e+00 3.4286621723376959e-01 1.2552726451257280e+01 1 1 0
608 34 1 -1.1500000000000000e-01 -1.7333507214427550e+00 7.1060615865222614e+00 1.2590285733001913e+01 1 0 0
1025 55 4 -1.1500000000000000e-01 -9.7273567454993373e+00 6.8591243868978946e+00 1.8725453831972999e+01 1 0 0
612 34 2 1.1500000000000000e-01 -2.1552204517137730e+00 7.8710835025527279e+00 1.3219708885629828e+01 1 0 0
734 14 6 0.0000000000000000e+00 -5.0703183068330926e+00 2.3602573588262854e+00 1.0421516975866322e+01 1 0 0
1007 54 4 -1.1500000000000000e-01 -5.4504362439712137e+00 6.9211203748579591e+00 1.1274276269782522e+01 1 0 0
262 15 1 -1.1500000000000000e-01 -8.3534115553710446e+00 2.5637330674454692e+00 1.5485264416017504e+01 1 0 0
246 14 3 0.0000000000000000e+00 -5.2413630310886123e+00 1.7127968239690399e+00 1.0192551334340811e+01 1 0 0
4415 235 3 0.0000000000000000e+00 -5.4336747490702368e+00 -5.9564931784639549e-02 1.7481503301197321e+01 1 1 0
619 35 2 1.1500000000000000e-01 -4.8410952963093985e+00 7.4470560305339051e+00 1.5923000463508533e+01 1 0 0
1006 54 3 0.0000000000000000e+00 -4.8691934837947377e+00 7.6791049455892288e+00 1.0218281177622405e+01 1 0 0
1495 55 6 0.0000000000000000e+00 -8.8158023350823633e+00 8.4110192726097441e+00 1.8188036087260819e+01 1 0 0
1003 54 2 1.1500000000000000e-01 -6.1222788177033989e+00 6.9018472279277114e+00 1.3335321531793230e+01 1 0 0
243 14 2 1.1500000000000000e-01 -6.6236015326077817e+00 1.0669081553508686e+00 1.3259556307708788e+01 1 0 0
999 54 1 -1.1500000000000000e-01 -5.6053389823735165e+00 7.4740940888727421e+00 1.2580451665976980e+01 1 0 0
265 15 4 -1.1500000000000000e-01 -1.0147782786959187e+01 9.9026379370882933e-01 1.8395391331809879e+01 1 0 0
1029 55 2 1.1500000000000000e-01 -1.0249437897735232e+01 5.9700720943318748e+00 1.8319007682205996e+01 1 0 0
616 35 4 -1.1500000000000000e-01 -5.5725663181575573e+00 7.0750109881002157e+00 1.8640833763465697e+01 1 0 0
1027 55 2 1.1500000000000000e-01 -8.3718744908170208e+00 8.2009408967104207e+00 1.4624350213078722e+01 1 0 0
251 14 2 1.1500000000000000e-01 -6.3660454655393854e+00 2.9149369716049194e-02 1.1013915734587375e+01 1 0 0
340 19 2 1.1500000000000000e-01 -1.2444759433244679e+00 6.2429895476238007e-01 1.5642577722356403e+01 1 0 0
995 54 7 -1.1500000000000000e-01 -5.1361271184651249e+00 8.7692923900849244e+00 1.2824339237739599e+01 1 0 0
254 15 5 -1.1500000000000000e-01 -9.1484113518618955e+00 3.3040856483857808e+00 1.9577777399209698e+01 1 0 0
341 19 2 1.1500000000000000e-01 -2.3403692989650029e+00 9.1253559914638641e-02 1.7869701066170556e+01 1 0 0
281 16 4 -1.1500000000000000e-01 -1.3582626484439743e+01 1.1197329515386043e+00 2.4189093433386745e+01 1 0 0
627 35 2 1.1500000000000000e-01 -5.5395225854142511e+00 5.0568639978552650e+00 2.1449308187407599e+01 1 0 0
258 15 2 1.1500000000000000e-01 -1.0197575367687879e+01 2.7294892890480367e+00 2.1336985871109942e+01 1 0 0
634 36 4 -1.1500000000000000e-01 -9.8779281548048630e+00 6.6476790094437668e+00 2.6059236831611020e+01 1 0 0
1042 56 3 0.0000000000000000e+00 -1.3419018807120526e+01 7.5452011080679950e+00 2.5366784689879008e+01 1 0 0
4432 236 5 -1.1500000000000000e-01 -9.2029015965626044e+00 5.4797487428428060e-01 2.4324547861144783e+01 1 1 0
284 16 1 -1.1500000000000000e-01 -1.2169186499405853e+01 2.9836795837822887e+00 2.3704969718593563e+01 1 0 0
1013 55 7 -1.1500000000000000e-01 -9.1944427927600039e+00 8.3652647245427438e+00 2.0627832640550832e+01 1 0 0
1036 56 2 1.1500000000000000e-01 -1.4291139248265271e+01 8.3105301845202142e+00 2.9011117126690817e+01 1 0 0
288 16 2 1.1500000000000000e-01 -1.1527545597668480e+01 3.4614097732554732e+00 2.2995058028873288e+01 1 0 0
271 16 7 -1.1500000000000000e-01 -1.3921577280845009e+01 2.3851581917801550e+00 2.8202803974474097e+01 1 0 0
272 16 5 -1.1500000000000000e-01 -1.3102807527856747e+01 3.1229359723477761e+00 2.7315559826464575e+01 1 0 0
273 16 3 0.0000000000000000e+00 -1.3125717149499286e+01 2.7369582806398571e+00 2.5910010149860064e+01 1 0 0
274 16 4 -1.1500000000000000e-01 -1.2344617937598947e+01 3.4748587903446966e+00 2.5000477197692739e+01 1 0 0
275 16 1 -1.1500000000000000e-01 -1.4570408533133028e+01 1.2006973522015210e+00 2.7817482582130630e+01 1 0 0
1017 55 1 -1.1500000000000000e-01 -9.7591786686374498e+00 7.1117748258236233e+00 2.0138705093049573e+01 1 0 0
277 16 2 1.1500000000000000e-01 -1.2433359868485901e+01 3.9757186462609466e+00 2.7556400470666048e+01 1 0 0
278 16 2 1.1500000000000000e-01 -1.1751761546353347e+01 4.3589219160501349e+00 2.5353874942750778e+01 1 0 0
1018 55 2 1.1500000000000000e-01 -9.2635585598191490e+00 8.5705124819121288e+00 2.1680855888980723e+01 1 0 0
282 16 3 0.0000000000000000e+00 -1.3713786162881423e+01 1.5426861943998571e+00 2.5532009384997757e+01 1 0 0
4448 236 2 1.1500000000000000e-01 -1.0541131767291727e+01 1.1141236577769305e+00 2.8688719103817245e+01 1 1 0
736 16 6 0.0000000000000000e+00 -1.3324890142963472e+01 2.0712324713056720e+00 2.5786268731388777e+01 1 0 0
632 36 5 -1.1500000000000000e-01 -8.9800152876934174e+00 6.2274383481802307e+00 2.3824434118636457e+01 1 0 0
636 36 2 1.1500000000000000e-01 -8.1344366880203829e+00 5.7385913893837079e+00 2.2017790463026799e+01 1 0 0
4438 236 2 1.1500000000000000e-01 -1.0337643036342104e+01 1.8727214536139205e+00 2.6480330476445072e+01 1 1 0
1047 56 2 1.1500000000000000e-01 -1.4636517532420106e+01 5.7719106388430914e+00 2.5612228665786077e+01 1 0 0
261 15 2 1.1500000000000000e-01 -1.0944205114112686e+01 5.8816522704514662e-01 2.0311403047906744e+01 1 0 0
1043 56 4 -1.1500000000000000e-01 -1.4223496119724334e+01 6.6657456605666052e+00 2.6081383911980286e+01 1 0 0
644 36 1 -1.1500000000000000e-01 -1.0075305119205467e+01 6.1652937134680998e+00 2.7320607647474649e+01 1 0 0
631 36 7 -1.1500000000000000e-01 -8.1970674748410453e+00 5.4388030612371967e+00 2.2994049262096521e+01 1 0 0
635 36 1 -1.1500000000000000e-01 -7.6204485626563718e+00 4.2327527924006239e+00 2.3398488721717857e+01 1 0 0
1031 56 7 -1.1500000000000000e-01 -1.4012147419263805e+01 8.1344115580430394e+00 2.8013152603821865e+01 1 0 0
639 36 2 1.1500000000000000e-01 -7.1578711760655702e+00 3.5587958850654271e+00 2.2720847833740677e+01 1 0 0
283 16 4 -1.1500000000000000e-01 -1.4462441015504584e+01 8.0124005074112381e-01 2.6484534401586256e+01 1 0 0
259 15 2 1.1500000000000000e-01 -8.8337117674569541e+00 4.2889760862438751e+00 1.9990902823769289e+01 1 0 0
630 35 2 1.1500000000000000e-01 -6.1967166094445778e+00 7.3592030743225845e+00 2.0599406889468646e+01 1 0 0
1040 56 1 -1.1500000000000000e-01 -1.2468350569910614e+01 8.2666844923696026e+00 2.3212686950320958e+01 1 0 0
633 36 3 0.0000000000000000e+00 -9.1452713071589748e+00 5.8294050705168345e+00 2.5147251073014701e+01 1 0 0
4437 236 2 1.1500000000000000e-01 -9.7035908257302204e+00 1.4566027413626395e+00 2.4032458069637851e+01 1 1 0
640 36 1 -1.1500000000000000e-01 -9.5267856225099656e+00 4.9447420214932096e+00 2.7739839973924628e+01 1 0 0
641 36 4 -1.1500000000000000e-01 -8.8809693421246614e+00 4.1254586118664482e+00 2.6839681333719824e+01 1 0 0
642 36 3 0.0000000000000000e+00 -8.6812160265768057e+00 4.5854560583164465e+00 2.5548151280106563e+01 1 0 0
643 36 4 -1.1500000000000000e-01 -7.9220780549158363e+00 3.7706199735357733e+00 2.4725269498451791e+01 1 0 0
622 35 1 -1.1500000000000000e-01 -5.3752316151583548e+00 5.3928130896734920e+00 2.0402553292564111e+01 1 0 0
1045 56 2 1.1500000000000000e-01 -1.2226752936653854e+01 8.0729331892857239e+00 2.2214997055027311e+01 1 0 0
647 36 2 1.1500000000000000e-01 -7.4959762667968883e+00 2.8549426439744732e+00 2.5144661306883432e+01 1 0 0
756 36 6 0.0000000000000000e+00 -8.9886976577157149e+00 5.1896471978899115e+00 2.5303240090275715e+01 1 0 0
1021 55 2 1.1500000000000000e-01 -1.0261702469204064e+01 6.5503575673379544e+00 2.0880825903761888e+01 1 0 0
4434 236 4 -1.1500000000000000e-01 -9.9157083408402045e+00 8.8228604972904934e-01 2.6676214004100192e+01 1 1 0
626 35 1 -1.1500000000000000e-01 -5.7903184169036752e+00 6.6970663989511516e+00 1.9952776060965615e+01 1 0 0
1046 56 2 1.1500000000000000e-01 -1.3589426039060355e+01 6.5877336060654397e+00 2.3464688510652497e+01 1 0 0
638 36 2 1.1500000000000000e-01 -1.0345547419929037e+01 7.5909125126594725e+00 2.5898852133462864e+01 1 0 0
1496 56 6 0.0000000000000000e+00 -1.3305867320607215e+01 8.2155448895310936e+00 2.5610876294799443e+01 1 0 0
4430 235 2 1.1500000000000000e-01 -6.5185605238580973e+00 1.5180255720236939e+00 2.0275372164708628e+01 1 1 0
1035 56 1 -1.1500000000000000e-01 -1.4517868069545262e+01 6.9258839525767444e+00 2.7467367030020871e+01 1 0 0
1039 56 2 1.1500000000000000e-01 -1.5149364657740396e+01 6.2706565550741562e+00 2.8022753244788955e+01 1 0 0
279 16 2 1.1500000000000000e-01 -1.5285222971404826e+01 5.7447172203548225e-01 2.8400776665622388e+01 1 0 0
648 36 2 1.1500000000000000e-01 -1.0485659431175037e+01 6.7839552378621431e+00 2.8104972456112552e+01 1 0 0
4436 236 2 1.1500000000000000e-01 -8.4263273579958415e+00 3.6387672817925487e-02 2.2260690199874368e+01 1 1 0
4444 236 1 -1.1500000000000000e-01 -9.9891373533165044e+00 4.6373316879236193e-01 2.8032785473797425e+01 1 1 0
637 36 2 1.1500000000000000e-01 -9.3177862659296267e+00 7.2393642502090598e+00 2.3474582265679199e+01 1 0 0
253 15 7 -1.1500000000000000e-01 -9.9091614238910246e+00 2.4591847902729236e+00 2.0355952336298461e+01 1 0 0
276 16 2 1.1500000000000000e-01 -1.4085053471808816e+01 2.7261147204054241e+00 2.9237601590178933e+01 1 0 0
646 36 2 1.1500000000000000e-01 -8.4610964036511724e+00 3.1907896461352561e+00 2.7165623634083921e+01 1 0 0
645 36 2 1.1500000000000000e-01 -9.5426956033087222e+00 4.8388675300766462e+00 2.8897603384012864e+01 1 0 0
4426 235 1 -1.1500000000000000e-01 -6.0465027142557517e+00 7.2056769078822180e-01 1.9743317130160008e+01 1 1 0
280 16 1 -1.1500000000000000e-01 -1.2768486818602085e+01 1.7769131343098521e+00 2.3269522083618437e+01 1 0 0
1041 56 4 -1.1500000000000000e-01 -1.3216601507616422e+01 7.3908075709097290e+00 2.3980436572342516e+01 1 0 0
1033 56 3 0.0000000000000000e+00 -1.2888344607558365e+01 8.7318082454935073e+00 2.5933968583214192e+01 1 0 0
285 16 2 1.1500000000000000e-01 -1.2634178853280813e+01 1.3160781632962109e+00 2.2337320143354649e+01 1 0 0
4433 236 3 0.0000000000000000e+00 -9.3504513329214731e+00 6.3323989141466835e-02 2.5655190043686982e+01 1 1 0
991 53 2 1.1500000000000000e-01 -1.6654967217666194e+01 7.2111810613473102e+00 2.9355759965632984e+01 1 0 -1
257 15 1 -1.1500000000000000e-01 -1.0376210771453016e+01 1.2659119582579554e+00 1.9765774290876109e+01 1 0 0
628 35 2 1.1500000000000000e-01 -4.7800972402006625e+00 3.4216270171014553e+00 1.9856782621654837e+01 1 0 0
1407 76 2 1.1500000000000000e-01 -7.7913523477555566e+00 8.8906830542549429e+00 2.5137771511969522e+01 1 0 0
2123 114 2 1.1500000000000000e-01 1.5311981729315711e+00 1.5921418747647030e+01 8.3965893792395416e+00 1 0 0
980 53 4 -1.1500000000000000e-01 3.3321017166053046e-01 9.7743928933099955e+00 1.7567898596383649e+00 1 0 0
984 53 2 1.1500000000000000e-01 7.2617477031005162e-01 1.0786440103600095e+01 1.9329075548103560e+00 1 0 0
990 53 1 -1.1500000000000000e-01 6.6313970341960005e-01 9.0824777578036784e+00 5.8850548363637178e-01 1 0 0
2112 113 2 1.1500000000000000e-01 3.9245795421704837e+00 1.5634269264976934e+01 5.2919077495650999e+00 1 0 0
2253 93 6 0.0000000000000000e+00 -7.2070866610620166e-01 1.4350316936305608e+01 3.3474561669756517e+00 1 0 0
1352 73 2 1.1500000000000000e-01 3.7433607199820571e+00 9.5137845389157363e+00 4.9914987046050046e+00 1 0 0
1741 93 1 -1.1500000000000000e-01 -1.8020660062010012e+00 1.3726746344638045e+01 5.4771062960163084e+00 1 0 0
1361 74 2 1.1500000000000000e-01 -1.3710600868770930e+00 1.3859576379791564e+01 8.8517282948746132e+00 1 0 0
983 53 2 1.1500000000000000e-01 -9.6481310258725195e-02 1.0637183062481380e+01 4.2935267439603644e+00 1 0 0
1012 54 2 1.1500000000000000e-01 -3.1737816685084388e+00 9.6587747738599479e+00 7.3268051752436625e+00 1 0 0
2115 114 7 -1.1500000000000000e-01 4.3101041922809724e-01 1.7712473427954343e+01 8.4827283750907121e+00 1 0 0
1745 93 2 1.1500000000000000e-01 -2.3683937796463370e+00 1.3305305314130322e+01 6.2685895022279388e+00 1 0 0
1746 93 1 -1.1500000000000000e-01 -6.5932799122903263e-01 1.4013267366991611e+01 8.6474458178691060e-01 1 0 0
1338 73 5 -1.1500000000000000e-01 3.5372450706696630e+00 1.2332472816383172e+01 1.3875001763358137e+00 1 0 0
1339 73 3 0.0000000000000000e+00 3.2503937935895424e+00 1.1938609260032063e+01 2.7050723189853385e+00 1 0 0
1340 73 4 -1.1500000000000000e-01 2.6223160874266349e+00 1.2887738908838967e+01 3.5440660037235179e+00 1 0 0
1341 73 1 -1.1500000000000000e-01 4.5234051616067728e+00 1.0143833619811023e+01 9.4942304783532339e-01 1 0 0
1337 73 7 -1.1500000000000000e-01 4.1755300113250033e+00 1.1420119433030981e+01 5.1545103581316243e-01 1 0 0
1343 73 2 1.1500000000000000e-01 3.3318283552320107e+00 1.3238216747911569e+01 9.3248599493377737e-01 1 0 0
1348 73 3 0.0000000000000000e+00 3.6327540034863808e+00 1.0722300358321771e+01 3.1972893219134537e+00 1 0 0
1349 73 4 -1.1500000000000000e-01 4.3153941170597072e+00 9.8503933575156370e+00 2.3270885968983337e+00 1 0 0
1513 73 6 0.0000000000000000e+00 3.2790591325174647e+00 1.1266623991105860e+01 2.9444737526170193e+00 1 0 0
978 53 5 -1.1500000000000000e-01 -4.4764117281273341e-01 9.7168543150019797e+00 3.9986360640431808e+00 1 0 0
1354 73 2 1.1500000000000000e-01 1.7926385451744693e+00 1.3327808095849029e+01 5.4951176333970544e+00 1 0 0
1346 73 1 -1.1500000000000000e-01 2.8429352859340420e+00 1.1417315491769914e+01 5.4210631407440060e+00 1 0 0
1347 73 4 -1.1500000000000000e-01 3.3826777911748378e+00 1.0445522244064213e+01 4.5517161270923889e+00 1 0 0
1350 73 1 -1.1500000000000000e-01 2.3498283094345989e+00 1.2610001549840339e+01 4.8528366944499313e+00 1 0 0
1842 98 2 1.1500000000000000e-01 2.9353243397629321e+00 1.2486402794705734e+01 8.7205459451199392e+00 1 0 0
1754 93 2 1.1500000000000000e-01 6.9515531844667011e-01 1.5740721753127660e+01 3.9065877141984573e-01 1 0 0
1008 54 1 -1.1500000000000000e-01 -3.6287275702974204e+00 9.1019390657838795e+00 8.0958201277511161e+00 1 0 0
1355 74 7 -1.1500000000000000e-01 -4.0085931197151936e-01 1.2063124741378370e+01 8.1749392622518045e+00 1 0 0
1359 74 1 -1.1500000000000000e-01 9.3954878512085394e-02 1.0795057982186490e+01 8.5672446803721520e+00 1 0 0
1360 74 2 1.1500000000000000e-01 -3.5520153993722436e-01 1.2437250381608337e+01 7.1791415780659582e+00 1 0 0
1351 73 2 1.1500000000000000e-01 2.8033298432573281e+00 1.1276057328493772e+01 6.4923396373581213e+00 1 0 0
1748 93 3 0.0000000000000000e+00 -1.2453788503968335e+00 1.3863502130655707e+01 3.1780210884244697e+00 1 0 0
1764 94 1 -1.1500000000000000e-01 -4.5598784856692616e+00 1.4462862590108315e+01 7.9857841689728311e+00 1 0 0
977 53 7 -1.1500000000000000e-01 -1.0661794179745372e+00 9.0280698057731819e+00 5.0604928667806055e+00 1 0 0
1747 93 4 -1.1500000000000000e-01 -1.2695812094567409e+00 1.3352423016423694e+01 1.9013209444796564e+00 1 0 0
1749 93 4 -1.1500000000000000e-01 -1.8909703002599296e+00 1.3158047943238849e+01 4.2124325563667480e+00 1 0 0
1753 93 2 1.1500000000000000e-01 -2.4244396858518664e+00 1.2233826624722095e+01 4.0388365990021411e+00 1 0 0
1344 73 2 1.1500000000000000e-01 2.1826676100159359e+00 1.3825237745148353e+01 3.2028169810597142e+00 1 0 0
1737 93 7 -1.1500000000000000e-01 -1.2369432963029703e+00 1.4997979343630966e+01 5.7218043393942235e+00 1 0 0