LAMMPS (15 May 2015)
Reading data file ...
  triclinic box = (-0.107635 -0.0404339 -0.357111) to (41.3876 35.9384 29.5551) with tilt (-0.0672341 -17.0362 -0.0417078)
  5 by 4 by 3 MPI processor grid
  reading atoms ...
  4560 atoms
  reading velocities ...
  4560 velocities
  scanning bonds ...
  3 = max bonds/atom
  scanning angles ...
  3 = max angles/atom
  scanning dihedrals ...
  8 = max dihedrals/atom
  scanning impropers ...
  1 = max impropers/atom
  reading bonds ...
  5040 bonds
  reading angles ...
  7200 angles
  reading dihedrals ...
  10560 dihedrals
  reading impropers ...
  2400 impropers
Finding 1-2 1-3 1-4 neighbors ...
 Special bond factors lj:   0          0          0         
 Special bond factors coul: 0          0          0         
  4 = max # of 1-2 neighbors
  8 = max # of 1-3 neighbors
  20 = max # of 1-4 neighbors
  16 = max # of special neighbors
4560 atoms in group all
720 atoms in group C
480 atoms in group S
1920 atoms in group H
720 atoms in group Si
240 atoms in group Na
240 atoms in group Ba
240 atoms in group O
4560 atoms in group naphthalene
1200 atoms in group fixed
960 atoms in group CO
Setting atom values ...
  720 settings made for charge
Setting atom values ...
  720 settings made for charge
Setting atom values ...
  1920 settings made for charge
Setting atom values ...
  480 settings made for charge
Setting atom values ...
  240 settings made for charge
Setting atom values ...
  240 settings made for charge
Setting atom values ...
  240 settings made for charge
Finding 1-2 1-3 1-4 neighbors ...
 Special bond factors lj:   0          0          0.5       
 Special bond factors coul: 0          0          0.5       
  4 = max # of 1-2 neighbors
  8 = max # of 1-3 neighbors
  20 = max # of 1-4 neighbors
  16 = max # of special neighbors
PPPM initialization ...
  G vector (1/distance) = 0.246499
  grid = 16 16 20
  stencil order = 5
  estimated absolute RMS force accuracy = 0.00242397
  estimated relative force accuracy = 7.2997e-06
  using double precision FFTs
  3d grid and FFT values/proc = 1053 112
Neighbor list info ...
  4 neighbor list requests
  update every 1 steps, delay 0 steps, check yes
  master list distance cutoff = 12
Setting up run ...
Memory usage per processor = 13.288 Mbytes
Step Temp Density PotEng E_vdwl E_tail E_coul E_long Press Volume Xy Xz Yz E_mol E_bond E_angle E_dihed 14[1] 14[2] 14[3] msd[4] msd2[4] msd3[4] msd4[4] naphthal Cella Cellb Cellc CellAlpha CellBeta CellGamma 27[2] 27[3] 28[1] 28[2] 28[3] 
       0          298    1.2509986    2087.5869   -1173.1339   -211.49952    2070.8667    -2308.979    790.88859    44657.537 -0.067234084   -17.036218 -0.041707817     3498.833    1521.0094     935.4334    889.67826    28.379601    18.846571    14.337846 2.3535127e-29 2.3910021e-29 2.7538641e-29 3.294809e-29          298     41.49527    35.978931    34.423473    90.016431    119.66323    90.107069    18.846182    14.337739    28.379557    18.849013    14.339638 
    1000    289.65269    1.2509986    2232.0163   -1174.5852   -211.49952    2082.7024   -2309.2426   -2312.6975    44657.537 -0.067234084   -17.036218 -0.041707817    3633.1417    1645.0098    933.72138    898.18371    28.379592     18.84655    14.337832   0.17434498   0.17433793   0.14777475   0.14758395    289.65269     41.49527    35.978931    34.423473    90.016431    119.66323    90.107069    18.847056    14.337276    28.390339    18.847515    14.331136 
    2000    301.26371    1.2509986    2105.1695   -1183.3858   -211.49952    2075.9885    -2309.666    -951.6626    44657.537 -0.067234084   -17.036218 -0.041707817    3522.2328    1556.4445    946.96878    864.96835    28.379593    18.846533    14.337831    0.2318928    0.2318878   0.19315562   0.19310783    301.26371     41.49527    35.978931    34.423473    90.016431    119.66323    90.107069     18.84658    14.336954    28.376677    18.844208    14.335588 
    3000    292.05251    1.2509986     2161.151    -1171.284   -211.49952    2081.3194   -2308.7425   -380.40027    44657.537 -0.067234084   -17.036218 -0.041707817     3559.858    1555.0641    959.04262    888.18978    28.379596    18.846515    14.337822    0.2760442   0.27604171   0.24112602    0.2410982    292.05251     41.49527    35.978931    34.423473    90.016431    119.66323    90.107069    18.847053    14.337924    28.375777    18.845407    14.338903 
    4000    300.66223    1.2509986    2096.1061   -1205.3636   -211.49952    2080.3346   -2309.2232   -978.70106    44657.537 -0.067234084   -17.036218 -0.041707817    3530.3583    1562.3809    952.46159    867.29545    28.379608      18.8465    14.337827    0.2844341   0.28443069   0.23938166   0.23928301    300.66223     41.49527    35.978931    34.423473    90.016431    119.66323    90.107069    18.846461    14.338808    28.387656    18.846715    14.344909 
    5000    297.35634    1.2509986    2067.4696   -1195.5428   -211.49952    2078.9221    -2309.296   -865.44654    44657.537 -0.067234084   -17.036218 -0.041707817    3493.3863    1578.0584    898.28352     867.9544     28.37959    18.846479    14.337822   0.29573524   0.29573259   0.25261409   0.25245619    297.35634     41.49527    35.978931    34.423473    90.016431    119.66323    90.107069    18.846933    14.336311    28.375538    18.847726    14.327802 
    6000    298.76769    1.2509986    2048.1242   -1203.4037   -211.49952    2074.9353   -2309.5627    26.714078    44657.537 -0.067234084   -17.036218 -0.041707817    3486.1553    1535.8038    903.05992    894.91182    28.379586     18.84646     14.33782   0.28904485   0.28904211   0.24588514   0.24570826    298.76769     41.49527    35.978931    34.423473    90.016431    119.66323    90.107069    18.845934    14.336224    28.385843    18.846554    14.328179 
    7000    302.33077    1.2509986    2151.1277   -1169.2165   -211.49952    2074.6079    -2309.162    1036.1529    44657.537 -0.067234084   -17.036218 -0.041707817    3554.8983    1631.5727    921.75737    855.53537    28.379612    18.846445    14.337822   0.31918064   0.31917587   0.27257277   0.27238464    302.33077     41.49527    35.978931    34.423473    90.016431    119.66323    90.107069     18.84637    14.337713    28.391225    18.843494    14.334998 
    8000    301.35413    1.2509986    2115.5396   -1170.6101   -211.49952    2078.1229   -2308.5782   -453.71072    44657.537 -0.067234084   -17.036218 -0.041707817     3516.605     1556.595    944.78844    863.08128    28.379605    18.846426    14.337812   0.31974284     0.319734   0.26459079   0.26448516    301.35413     41.49527    35.978931    34.423473    90.016431    119.66323    90.107069    18.848149    14.337002    28.369669    18.846367    14.338706 
    9000    300.78502    1.2509986    2124.8758   -1189.9915   -211.49952    2076.0109   -2309.3849      707.015    44657.537 -0.067234084   -17.036218 -0.041707817    3548.2413    1558.5987    943.81669    891.43833      28.3796    18.846401    14.337817   0.30168754   0.30168351   0.24471496   0.24454037    300.78502     41.49527    35.978931    34.423473    90.016431    119.66323    90.107069    18.846247    14.336093     28.37705    18.844949    14.327318 
   10000    298.47293    1.2509986    2166.3364   -1161.9228   -211.49952    2077.2374   -2309.0349   -532.23012    44657.537 -0.067234084   -17.036218 -0.041707817    3560.0567    1586.5169    948.03339    871.72493    28.379604    18.846376    14.337823   0.30382385   0.30382213   0.23636726   0.23633244    298.47293     41.49527    35.978931    34.423473    90.016431    119.66323    90.107069    18.846347    14.337333    28.381492    18.846434    14.334696 
   11000    297.23103    1.2509986    2132.7912   -1174.0263   -211.49952    2073.3108   -2309.4777    992.53626    44657.537 -0.067234084   -17.036218 -0.041707817    3542.9844    1565.5507    945.80918    880.74808    28.379634    18.846366    14.337822   0.29214223   0.29214205   0.22622195   0.22615591    297.23103     41.49527    35.978931    34.423473    90.016431    119.66323    90.107069    18.846175    14.337878    28.382851    18.842518    14.336032 
   12000    294.57328    1.2509986    2045.4613   -1197.8021   -211.49952    2073.2651    -2309.709    256.10482    44657.537 -0.067234084   -17.036218 -0.041707817    3479.7072    1534.6701    929.45357    862.55291    28.379634    18.846351    14.337818   0.32047758   0.32047668   0.26719234   0.26699867    294.57328     41.49527    35.978931    34.423473    90.016431    119.66323    90.107069    18.846577    14.337407      28.3913    18.849512    14.332188 
   13000    298.30916    1.2509986    2083.7342   -1205.4766   -211.49952     2076.187   -2309.4056   -965.67038    44657.537 -0.067234084   -17.036218 -0.041707817    3522.4294    1595.5875    933.14391    847.82569    28.379647    18.846339    14.337823   0.31028562   0.31025782   0.25555546   0.25515551    298.30916     41.49527    35.978931    34.423473    90.016431    119.66323    90.107069    18.847214    14.333766    28.373556    18.844709    14.321053 
   14000    293.59966    1.2509986    2118.7359   -1169.9802   -211.49952    2079.2382   -2309.4668    730.61371    44657.537 -0.067234084   -17.036218 -0.041707817    3518.9448    1545.5402    942.14329     881.9858    28.379656    18.846325    14.337825   0.32486428   0.32485473   0.27122412   0.27105434    293.59966     41.49527    35.978931    34.423473    90.016431    119.66323    90.107069    18.844647    14.338343    28.387069    18.838367    14.339554 
   15000    300.18617    1.2509986    2187.0004   -1178.8523   -211.49952    2074.6141   -2309.6795   -400.17914    44657.537 -0.067234084   -17.036218 -0.041707817    3600.9182    1618.8902    933.66855     892.7563    28.379671    18.846307    14.337831    0.3296263   0.32962326   0.26955272   0.26943217    300.18617     41.49527    35.978931    34.423473    90.016431    119.66323    90.107069     18.84505    14.337844    28.374733    18.841322    14.333463 
   16000    299.62273    1.2509986    2137.2709   -1196.0435   -211.49952    2073.3926   -2309.7206   -748.36851    44657.537 -0.067234084   -17.036218 -0.041707817    3569.6423    1565.1194    965.28266    883.20076    28.379679    18.846289     14.33783   0.30401069   0.30400767   0.26085186   0.26080211    299.62273     41.49527    35.978931    34.423473    90.016431    119.66323    90.107069    18.847236    14.337633    28.380392    18.850683    14.332836 
   17000    299.58034    1.2509986     2150.747   -1194.6049   -211.49952    2070.5972   -2310.3527    650.55973    44657.537 -0.067234084   -17.036218 -0.041707817    3585.1074     1555.101    975.55564    901.24511    28.379645    18.846273    14.337818     0.310797   0.31077077   0.26758748   0.26721654    299.58034     41.49527    35.978931    34.423473    90.016431    119.66323    90.107069    18.846321     14.33459    28.369271    18.842479    14.324723 
   18000    298.49088    1.2509986    2114.1768    -1194.611   -211.49952    2072.5603   -2309.8891   -77.622137    44657.537 -0.067234084   -17.036218 -0.041707817    3546.1166    1558.5818     933.6221    900.09817    28.379668    18.846268    14.337809   0.31973958    0.3197388   0.27757933   0.27739616    298.49088     41.49527    35.978931    34.423473    90.016431    119.66323    90.107069    18.846832    14.337179     28.38552    18.844027    14.328559 
   19000    301.96214    1.2509986    2103.0473   -1187.1525   -211.49952    2078.5746   -2308.9132     692.5693    44657.537 -0.067234084   -17.036218 -0.041707817    3520.5385    1553.8145    952.81585    867.10722    28.379689    18.846261    14.337815   0.30776011   0.30775967   0.27142278    0.2713865    301.96214     41.49527    35.978931    34.423473    90.016431    119.66323    90.107069    18.846524     14.33826    28.374251     18.85176    14.338869 
   20000    296.38452    1.2509986    2105.8589   -1159.5716   -211.49952    2078.7537   -2309.4747    2506.7736    44657.537 -0.067234084   -17.036218 -0.041707817    3496.1514    1576.5321    922.49363    850.99403    28.379686    18.846251    14.337808   0.32138795   0.32138291   0.27790755   0.27783839    296.38452     41.49527    35.978931    34.423473    90.016431    119.66323    90.107069    18.844944    14.339445    28.378858    18.841609    14.343361 
   21000    300.17457    1.2509986    2135.2678   -1184.1039   -211.49952    2080.4481   -2309.4876   -725.19284    44657.537 -0.067234084   -17.036218 -0.041707817    3548.4112    1567.2876    959.23173    871.16176    28.379683    18.846248    14.337809   0.32913938   0.32912672   0.27590176   0.27580443    300.17457     41.49527    35.978931    34.423473    90.016431    119.66323    90.107069     18.84747    14.337302    28.369841    18.847352    14.339206 
   22000    303.39036    1.2509986    2092.4507   -1182.7917   -211.49952    2072.2362   -2309.3723   -731.85724    44657.537 -0.067234084   -17.036218 -0.041707817    3512.3785    1548.7155    926.69222      885.113    28.379686     18.84623    14.337807    0.3384021   0.33839696   0.29774931   0.29766528    303.39036     41.49527    35.978931    34.423473    90.016431    119.66323    90.107069    18.846572    14.339491    28.384006    18.851424    14.347282 
   23000    299.74776    1.2509986    2085.5493   -1194.8748   -211.49952     2075.448   -2309.2698   -989.12289    44657.537 -0.067234084   -17.036218 -0.041707817    3514.2459    1517.7546    942.51612    897.56089    28.379691    18.846217    14.337809   0.34387114   0.34387064   0.30342572   0.30337871    299.74776     41.49527    35.978931    34.423473    90.016431    119.66323    90.107069    18.846766     14.33801    28.385291    18.845277    14.339219 
   24000     289.8022    1.2509986    2159.4995    -1179.233   -211.49952    2078.6878   -2308.7491    -844.8975    44657.537 -0.067234084   -17.036218 -0.041707817    3568.7939     1630.449    919.09368    864.98007    28.379687    18.846217    14.337796   0.33116312   0.33114591   0.28716054   0.28707041     289.8022     41.49527    35.978931    34.423473    90.016431    119.66323    90.107069    18.847018    14.340115    28.381998     18.84496    14.347869 
   25000    295.51032    1.2509986    2130.8322   -1198.0121   -211.49952    2072.8635   -2309.9747   -1240.4288    44657.537 -0.067234084   -17.036218 -0.041707817    3565.9554    1561.3565    964.22169    882.36035    28.379672    18.846214    14.337794   0.32854161   0.32854083   0.27551964   0.27544597    295.51032     41.49527    35.978931    34.423473    90.016431    119.66323    90.107069     18.84679    14.337095     28.37879    18.841808    14.335038 
   26000    296.64157    1.2509986    2107.0105   -1174.1884   -211.49952    2077.4314   -2309.1767    1459.9479    44657.537 -0.067234084   -17.036218 -0.041707817    3512.9442    1535.8203    940.73398    885.24532    28.379688    18.846219    14.337806   0.32557852   0.32557661   0.26932188   0.26929857    296.64157     41.49527    35.978931    34.423473    90.016431    119.66323    90.107069    18.846292    14.338627    28.381297    18.845056    14.341789 
   27000    297.32298    1.2509986    2157.8393   -1158.6043   -211.49952    2074.1248   -2309.7825    -96.60246    44657.537 -0.067234084   -17.036218 -0.041707817    3552.1013    1564.0955    939.83388    894.40603    28.379668    18.846211    14.337795   0.30044784   0.30044285   0.25060507   0.25054735    297.32298     41.49527    35.978931    34.423473    90.016431    119.66323    90.107069    18.845558    14.338661    28.384926    18.843639    14.339559 
   28000    294.22777    1.2509986    2232.1329   -1178.6096   -211.49952    2077.3548    -2309.155    680.53621    44657.537 -0.067234084   -17.036218 -0.041707817    3642.5428    1563.4017    974.07506     943.2965    28.379643    18.846203    14.337786   0.29061147   0.29060805   0.24006513   0.24001854    294.22777     41.49527    35.978931    34.423473    90.016431    119.66323    90.107069    18.846821    14.336798    28.374417    18.852381    14.336667 
   29000    295.86792    1.2509986    2104.5863   -1159.6534   -211.49952    2079.5265   -2309.4222    1156.8005    44657.537 -0.067234084   -17.036218 -0.041707817    3494.1354    1536.9779     928.4162     878.9446    28.379653    18.846188    14.337788    0.3202464   0.32024186   0.25906791   0.25903535    295.86792     41.49527    35.978931    34.423473    90.016431    119.66323    90.107069    18.844706    14.337493    28.381863    18.843813    14.340089 
   30000    298.16653    1.2509986    2141.8522   -1204.9214   -211.49952    2071.3261   -2309.4016   -1694.7091    44657.537 -0.067234084   -17.036218 -0.041707817    3584.8491    1547.4376    969.67922    910.21523    28.379661     18.84619    14.337788   0.31545587   0.31544677   0.25645216   0.25641847    298.16653     41.49527    35.978931    34.423473    90.016431    119.66323    90.107069    18.847499    14.339607    28.380049    18.849734    14.345376 
   31000    296.23415    1.2509986    2109.2682   -1193.2885   -211.49952    2079.7703   -2308.8184   -178.06104    44657.537 -0.067234084   -17.036218 -0.041707817    3531.6048    1544.1456    943.04937    887.85559    28.379658     18.84619    14.337778   0.30922674   0.30922559    0.2445868   0.24452076    296.23415     41.49527    35.978931    34.423473    90.016431    119.66323    90.107069    18.845658    14.336916    28.379938    18.846463    14.331931 
   32000    299.22741    1.2509986    2105.5559   -1217.7093   -211.49952    2072.4406   -2309.9724   -119.47694    44657.537 -0.067234084   -17.036218 -0.041707817     3560.797    1566.9276     964.5628    880.67475    28.379654    18.846187    14.337784    0.3151861   0.31518429   0.27797084   0.27787372    299.22741     41.49527    35.978931    34.423473    90.016431    119.66323    90.107069     18.84684    14.337095    28.371213    18.845418     14.33582 
   33000    286.65063    1.2509986    2142.1147    -1174.788   -211.49952    2070.6269   -2309.8527   -664.51247    44657.537 -0.067234084   -17.036218 -0.041707817    3556.1285    1552.8707     965.1172    886.43877    28.379641    18.846182    14.337776   0.32287974   0.32287948   0.26839674   0.26826081    286.65063     41.49527    35.978931    34.423473    90.016431    119.66323    90.107069    18.846449    14.337388    28.389852    18.844078    14.337276 
   34000    299.82508    1.2509986    2116.6498   -1216.3065   -211.49952    2074.9493   -2309.1933   -1514.3954    44657.537 -0.067234084   -17.036218 -0.041707817    3567.2003    1615.4202    915.86319    884.64896    28.379631    18.846173    14.337778   0.30856431   0.30856404   0.25470613   0.25458708    299.82508     41.49527    35.978931    34.423473    90.016431    119.66323    90.107069    18.846419     14.33727    28.389557    18.846096    14.336391 
   35000    299.21269    1.2509986    2133.7116    -1173.745   -211.49952    2071.3919    -2309.628   -1387.9457    44657.537 -0.067234084   -17.036218 -0.041707817    3545.6927    1569.4922    938.78121    881.74738    28.379632    18.846172    14.337777   0.31743724   0.31743471   0.26366607   0.26359844    299.21269     41.49527    35.978931    34.423473    90.016431    119.66323    90.107069    18.845957    14.338724    28.374811    18.843862    14.343948 
   36000    293.27254    1.2509986    2174.1679   -1168.0812   -211.49952    2080.1581     -2309.34   -1503.8066    44657.537 -0.067234084   -17.036218 -0.041707817     3571.431    1561.1208    946.20018    910.70594    28.379614    18.846156    14.337782   0.31420144   0.31419539   0.26690676   0.26685096    293.27254     41.49527    35.978931    34.423473    90.016431    119.66323    90.107069     18.84695    14.337584    28.384281     18.84592    14.334748 
   37000     300.1769    1.2509986    2134.5567   -1152.3092   -211.49952     2079.192   -2309.0647    1197.9443    44657.537 -0.067234084   -17.036218 -0.041707817    3516.7387    1545.4514    971.76925    852.92114    28.379622    18.846164    14.337778   0.32732458   0.32732376   0.27919899   0.27909491     300.1769     41.49527    35.978931    34.423473    90.016431    119.66323    90.107069    18.845572    14.337134     28.38555    18.843266    14.333712 
   38000    293.70021    1.2509986    2110.3255   -1179.3237   -211.49952    2083.9288   -2309.4058     14.61813    44657.537 -0.067234084   -17.036218 -0.041707817    3515.1261    1550.5195    917.43471    888.86401     28.37961    18.846167    14.337768   0.30433809   0.30433542   0.25951815   0.25948219    293.70021     41.49527    35.978931    34.423473    90.016431    119.66323    90.107069    18.846519    14.337386    28.374977    18.846058    14.337135 
   39000    297.85026    1.2509986    2169.0147   -1175.7536   -211.49952    2076.8488   -2309.1526   -1051.8515    44657.537 -0.067234084   -17.036218 -0.041707817    3577.0721      1599.46    933.08588    887.39729    28.379623     18.84616    14.337766   0.30496344   0.30495423   0.25561581   0.25551858    297.85026     41.49527    35.978931    34.423473    90.016431    119.66323    90.107069    18.846725    14.340318    28.379863    18.848382    14.349474 
   40000    299.16222    1.2509986    2124.3583    -1160.959   -211.49952    2079.0033   -2309.3077    1278.8818    44657.537 -0.067234084   -17.036218 -0.041707817    3515.6216    1547.4916    950.86518    867.84748    28.379615     18.84616    14.337758   0.30502932   0.30501704    0.2482832   0.24816544    299.16222     41.49527    35.978931    34.423473    90.016431    119.66323    90.107069    18.847651    14.336169    28.375675    18.847618      14.3296 
   41000    299.70678    1.2509986    2162.1587   -1210.1315   -211.49952    2078.5691   -2309.5429   -1486.6591    44657.537 -0.067234084   -17.036218 -0.041707817     3603.264    1610.2168    979.31287    859.94676    28.379632    18.846154    14.337763   0.31306622    0.3130592   0.26484359   0.26474904    299.70678     41.49527    35.978931    34.423473    90.016431    119.66323    90.107069      18.8472    14.336824    28.371317     18.84969    14.334519 
   42000    297.34076    1.2509986    2117.9157    -1159.495   -211.49952    2078.8121   -2308.9673    299.34285    44657.537 -0.067234084   -17.036218 -0.041707817    3507.5659      1557.44    944.12023    856.78074     28.37964     18.84616     14.33776   0.29234979   0.29233877    0.2533228   0.25316054    297.34076     41.49527    35.978931    34.423473    90.016431    119.66323    90.107069     18.84464    14.337203    28.389456    18.842356    14.335171 
   43000    295.52539    1.2509986    2100.1425   -1217.5196   -211.49952    2071.7279   -2310.0055   -2690.0829    44657.537 -0.067234084   -17.036218 -0.041707817    3555.9396    1581.1765    925.17372    898.84338    28.379635     18.84618    14.337753    0.2799507   0.27994844   0.23517426   0.23499895    295.52539     41.49527    35.978931    34.423473    90.016431    119.66323    90.107069    18.847553    14.337151    28.388479    18.851706    14.330234 
   44000    302.74052    1.2509986    2146.8124   -1166.3739   -211.49952    2072.0035   -2309.7706    1279.2637    44657.537 -0.067234084   -17.036218 -0.041707817    3550.9534    1596.5157     923.7242    876.26722    28.379645    18.846192    14.337763   0.29938697   0.29938532   0.26492622   0.26482192    302.74052     41.49527    35.978931    34.423473    90.016431    119.66323    90.107069    18.846255    14.336465    28.384338    18.846513    14.330967 
   45000    296.33746    1.2509986    2129.1257     -1173.54   -211.49952    2076.7254   -2309.5747   -1662.6457    44657.537 -0.067234084   -17.036218 -0.041707817    3535.5151    1551.8656    936.59689    888.16507    28.379625    18.846175    14.337758   0.30311499    0.3031018   0.24417212   0.24390109    296.33746     41.49527    35.978931    34.423473    90.016431    119.66323    90.107069    18.845121    14.334918    28.383139    18.839735    14.326518 
   46000    297.87904    1.2509986    2225.1808   -1155.0243   -211.49952    2077.6791   -2309.8354    438.90829    44657.537 -0.067234084   -17.036218 -0.041707817    3612.3614    1619.0286    971.63128    866.76604    28.379613    18.846161    14.337761   0.30926475   0.30926275   0.26669257   0.26663216    297.87904     41.49527    35.978931    34.423473    90.016431    119.66323    90.107069    18.845021    14.337632    28.385918    18.844637    14.338751 
   47000    296.37557    1.2509986    2162.6516   -1147.1907   -211.49952    2074.2504    -2309.713    1572.0054    44657.537 -0.067234084   -17.036218 -0.041707817    3545.3049    1552.5521    946.33412    889.53893    28.379612     18.84617    14.337767   0.32451458   0.32451241   0.28333449   0.28332536    296.37557     41.49527    35.978931    34.423473    90.016431    119.66323    90.107069    18.845746    14.337241    28.377074    18.847576    14.340589 
   48000    294.43086    1.2509986    2074.6649   -1186.5403   -211.49952    2080.0819   -2309.5457   -616.18937    44657.537 -0.067234084   -17.036218 -0.041707817    3490.6689    1552.5095     929.5848    863.31301    28.379618    18.846179    14.337761   0.32600739    0.3260044   0.26635609   0.26627292    294.43086     41.49527    35.978931    34.423473    90.016431    119.66323    90.107069    18.845586    14.338077    28.385805    18.845494    14.334004 
   49000    300.05828    1.2509986     2121.899   -1224.4923   -211.49952    2075.1668   -2309.8897   -666.33408    44657.537 -0.067234084   -17.036218 -0.041707817    3581.1141     1554.588    968.25259    899.97922    28.379623    18.846189    14.337747   0.30947059    0.3094666   0.26576885   0.26575008    300.05828     41.49527    35.978931    34.423473    90.016431    119.66323    90.107069    18.847266    14.337384    28.378185    18.845164    14.341077 
   50000    303.99178    1.2509986    2144.5541   -1173.9921   -211.49952    2078.0904    -2309.463     393.1891    44657.537 -0.067234084   -17.036218 -0.041707817    3549.9188     1615.456    930.91179    860.77513     28.37965    18.846195    14.337751   0.33132621   0.33131791   0.28988779   0.28982444    303.99178     41.49527    35.978931    34.423473    90.016431    119.66323    90.107069    18.845516    14.337674    28.376655    18.841911    14.341758 
   51000    299.73807    1.2509986    2173.0573    -1225.239   -211.49952    2078.1943   -2309.8097   -2785.9757    44657.537 -0.067234084   -17.036218 -0.041707817    3629.9117    1631.5148     955.8863    886.22975    28.379657    18.846181    14.337751   0.34052582   0.34052359   0.29095812   0.29091786    299.73807     41.49527    35.978931    34.423473    90.016431    119.66323    90.107069    18.846916    14.336599    28.374716    18.845684    14.337242 
   52000    296.74438    1.2509986    2158.6108   -1202.5621   -211.49952    2076.5584   -2309.7106   -1585.0184    44657.537 -0.067234084   -17.036218 -0.041707817     3594.325    1572.8081     1001.136    872.40254    28.379673    18.846171     14.33775   0.33696658   0.33696333   0.29894699   0.29887228    296.74438     41.49527    35.978931    34.423473    90.016431    119.66323    90.107069    18.845003    14.338563    28.379301    18.843074    14.345913 
   53000    294.01245    1.2509986    2152.3789    -1213.253   -211.49952    2082.9203    -2309.516   -850.83499    44657.537 -0.067234084   -17.036218 -0.041707817    3592.2275    1609.4274    937.60992    888.52698    28.379683    18.846173     14.33775   0.32844165   0.32843307   0.27954389   0.27931591    294.01245     41.49527    35.978931    34.423473    90.016431    119.66323    90.107069    18.845624    14.335757    28.371403    18.848584    14.326937 
   54000    295.87344    1.2509986    2219.5861   -1186.6516   -211.49952     2083.502   -2309.0999   -63.098696    44657.537 -0.067234084   -17.036218 -0.041707817    3631.8356    1600.5357    971.10963    901.86608    28.379682    18.846179    14.337753   0.32402303   0.32401912   0.28661324   0.28653262    295.87344     41.49527    35.978931    34.423473    90.016431    119.66323    90.107069    18.847198    14.337694    28.382759    18.847339    14.347858 
   55000    301.67466    1.2509986    2175.3948   -1191.7543   -211.49952    2076.1619   -2309.3997    10.054885    44657.537 -0.067234084   -17.036218 -0.041707817     3600.387    1624.9999    934.80624    886.81336    28.379683    18.846163    14.337756   0.31763005   0.31762301   0.27970254   0.27940215    301.67466     41.49527    35.978931    34.423473    90.016431    119.66323    90.107069    18.846115     14.33618    28.386091    18.843892    14.324424 
   56000    304.83313    1.2509986    2087.4973   -1176.6552   -211.49952    2066.4164   -2310.2826   -94.924136    44657.537 -0.067234084   -17.036218 -0.041707817    3508.0187    1553.5204    919.10961    882.21702    28.379705    18.846162    14.337767   0.33700786   0.33699782   0.29400008   0.29394092    304.83313     41.49527    35.978931    34.423473    90.016431    119.66323    90.107069     18.84811    14.336781     28.37425    18.849848    14.334134 
   57000       298.68    1.2509986    2133.3787   -1192.9216   -211.49952    2072.9887   -2309.9018   -169.02901    44657.537 -0.067234084   -17.036218 -0.041707817    3563.2134    1557.4254    941.50407      905.175     28.37973    18.846168    14.337773   0.31922704   0.31922688   0.26661721   0.26661537       298.68     41.49527    35.978931    34.423473    90.016431    119.66323    90.107069    18.845896    14.337858    28.379419    18.849364    14.338336 
   58000    296.78387    1.2509986    2063.7533   -1215.1646   -211.49952    2068.5342    -2310.075   -2002.8024    44657.537 -0.067234084   -17.036218 -0.041707817    3520.4586    1552.7197    967.29715    854.15155    28.379739    18.846171    14.337765   0.30542025   0.30541333   0.25594706   0.25581276    296.78387     41.49527    35.978931    34.423473    90.016431    119.66323    90.107069    18.846392    14.338274    28.390274    18.846327    14.336143 
   59000    301.23218    1.2509986    2142.6021   -1211.5998   -211.49952    2075.4261   -2309.7155    -1935.604    44657.537 -0.067234084   -17.036218 -0.041707817    3588.4913    1594.3156      943.369    898.72546    28.379716    18.846176    14.337747   0.31140937   0.31139989    0.2770575   0.27703506    301.23218     41.49527    35.978931    34.423473    90.016431    119.66323    90.107069     18.84565    14.339448    28.382926    18.845689    14.339855 
   60000    294.44499    1.2509986    2058.6354    -1198.751   -211.49952    2075.0314   -2309.4474    90.144742    44657.537 -0.067234084   -17.036218 -0.041707817    3491.8024    1534.1954    932.81954     867.2416    28.379729    18.846184    14.337745   0.30163959   0.30162033   0.25536109   0.25508611    294.44499     41.49527    35.978931    34.423473    90.016431    119.66323    90.107069     18.84692    14.337441     28.36335    18.849255    14.343142 
   61000    300.78013    1.2509986    2078.8458   -1160.4755   -211.49952    2073.5734   -2309.7985    264.35777    44657.537 -0.067234084   -17.036218 -0.041707817    3475.5464    1551.7461    900.39473    874.51928    28.379737     18.84619    14.337754   0.29345245   0.29345198   0.24206152   0.24203386    300.78013     41.49527    35.978931    34.423473    90.016431    119.66323    90.107069    18.846378     14.33823    28.375873    18.850473    14.343095 
   62000    298.45461    1.2509986    2061.3213   -1198.1477   -211.49952     2076.184   -2308.9563   -284.37435    44657.537 -0.067234084   -17.036218 -0.041707817    3492.2414    1543.9316    940.66202    859.01353    28.379747    18.846191    14.337763   0.31347778   0.31347533   0.26896256   0.26891896    298.45461     41.49527    35.978931    34.423473    90.016431    119.66323    90.107069    18.846019    14.338973    28.384547    18.846519    14.343171 
   63000    296.50081    1.2509986    2158.9136   -1189.3059   -211.49952     2076.147     -2309.18   -1955.6423    44657.537 -0.067234084   -17.036218 -0.041707817    3581.2525    1625.9506    951.36691    851.27777    28.379769    18.846192    14.337777   0.30861146   0.30860934   0.25523621   0.25520559    296.50081     41.49527    35.978931    34.423473    90.016431    119.66323    90.107069    18.846885    14.336668    28.382392    18.849135    14.334887 
   64000    293.64247    1.2509986    2081.6461   -1219.0096   -211.49952    2077.3249   -2309.8786   -836.16022    44657.537 -0.067234084   -17.036218 -0.041707817    3533.2094     1533.311    950.29765     898.9006    28.379771    18.846195    14.337779   0.30066883   0.30066772   0.25372454   0.25365766    293.64247     41.49527    35.978931    34.423473    90.016431    119.66323    90.107069    18.846615    14.338682    28.385684    18.851465    14.344468 
   65000    295.58973    1.2509986    2096.8208   -1197.6937   -211.49952    2081.8361   -2309.4714   -1369.4337    44657.537 -0.067234084   -17.036218 -0.041707817    3522.1498    1560.1191     976.5058    839.60637    28.379765    18.846201    14.337779    0.3128706   0.31286689   0.25471199   0.25455731    295.58973     41.49527    35.978931    34.423473    90.016431    119.66323    90.107069    18.844511    14.337206    28.374462    18.841186    14.331424 
   66000    300.62731    1.2509986    2178.4977   -1200.8437   -211.49952    2076.4904   -2308.8791   -1681.7194    44657.537 -0.067234084   -17.036218 -0.041707817    3611.7301    1597.4621    977.78476    882.23598    28.379751    18.846206    14.337766   0.33274191   0.33273837   0.27246725   0.27234558    300.62731     41.49527    35.978931    34.423473    90.016431    119.66323    90.107069    18.845562    14.336324    28.386661    18.845215    14.332103 
   67000    295.97202    1.2509986    2089.7195   -1209.4007   -211.49952    2075.8089   -2310.0073   -1387.0043    44657.537 -0.067234084   -17.036218 -0.041707817    3533.3185    1618.4514    917.45291    848.99248    28.379753    18.846201    14.337772   0.31198998   0.31198606   0.26604673   0.26589693    295.97202     41.49527    35.978931    34.423473    90.016431    119.66323    90.107069    18.846858    14.338609     28.36891    18.843396    14.341851 
   68000    298.63945    1.2509986    2150.2043    -1167.351   -211.49952    2081.9754   -2309.5183    1203.0602    44657.537 -0.067234084   -17.036218 -0.041707817    3545.0982    1540.4234    972.65729    877.34386    28.379767    18.846191    14.337772   0.31190803   0.31190592   0.27070097   0.27051049    298.63945     41.49527    35.978931    34.423473    90.016431    119.66323    90.107069    18.845513     14.33659    28.374668    18.838454    14.332215 
   69000    301.88285    1.2509986    2177.4524   -1210.2817   -211.49952    2078.6743   -2309.9195   -1830.7441    44657.537 -0.067234084   -17.036218 -0.041707817    3618.9794    1606.9159    938.66124     916.9229    28.379764    18.846188     14.33778   0.29774416   0.29774251   0.25155018   0.25151519    301.88285     41.49527    35.978931    34.423473    90.016431    119.66323    90.107069    18.845204     14.33808    28.381354     18.84354    14.338295 
   70000    298.17876    1.2509986    2123.2682   -1148.1191   -211.49952    2074.7716   -2309.7689    530.91591    44657.537 -0.067234084   -17.036218 -0.041707817    3506.3846    1526.8803    986.30516    843.61231    28.379763    18.846208    14.337788    0.3360533   0.33605006   0.28549789   0.28541972    298.17876     41.49527    35.978931    34.423473    90.016431    119.66323    90.107069    18.845826    14.336197    28.378537    18.841918    14.334462 
   71000    300.49415    1.2509986    2107.5634   -1189.6395   -211.49952    2076.1608   -2309.7914   -1082.6784    44657.537 -0.067234084   -17.036218 -0.041707817    3530.8335    1567.9584    959.05954    852.13205     28.37975    18.846218    14.337785   0.34075019   0.34074806   0.29574397   0.29570215    300.49415     41.49527    35.978931    34.423473    90.016431    119.66323    90.107069    18.846863    14.337688    28.383355    18.844728    14.336632 
   72000    294.70062    1.2509986    2064.1586   -1187.3484   -211.49952      2072.48   -2309.5374   -1058.4594    44657.537 -0.067234084   -17.036218 -0.041707817    3488.5644    1545.2497    939.33757    856.33471    28.379756    18.846229    14.337775    0.3223095   0.32230589   0.27021478   0.27016237    294.70062     41.49527    35.978931    34.423473    90.016431    119.66323    90.107069    18.846428    14.338689    28.385563    18.845404    14.341456 
   73000    300.03505    1.2509986    2153.9119   -1191.4202   -211.49952    2078.5934   -2309.1929    1079.0804    44657.537 -0.067234084   -17.036218 -0.041707817    3575.9317    1578.1202    965.40797    880.34847    28.379743    18.846228    14.337774   0.32033599   0.32033589   0.26309263   0.26304157    300.03505     41.49527    35.978931    34.423473    90.016431    119.66323    90.107069    18.846165    14.338057    28.379141    18.841882    14.339838 
   74000    299.73601    1.2509986    2172.7962   -1171.4991   -211.49952    2077.7489   -2309.5835    1420.0444    44657.537 -0.067234084   -17.036218 -0.041707817    3576.1299    1601.2123    964.15227    858.43384    28.379743    18.846218    14.337775   0.31109232   0.31108544   0.26148388   0.26144472    299.73601     41.49527    35.978931    34.423473    90.016431    119.66323    90.107069    18.846966    14.337979    28.376348     18.85366    14.342335 
   75000    298.25834    1.2509986    2119.9937   -1190.0723   -211.49952     2075.727      -2309.4   -1741.4338    44657.537 -0.067234084   -17.036218 -0.041707817    3543.7389    1582.9354    931.20102    879.44477    28.379753    18.846207    14.337779   0.32843188   0.32842992   0.28317753   0.28310728    298.25834     41.49527    35.978931    34.423473    90.016431    119.66323    90.107069    18.846318     14.33706    28.373447    18.846703    14.334386 
   76000    299.07564    1.2509986    2121.0098   -1195.4388   -211.49952    2076.7229   -2308.6929   -1349.3385    44657.537 -0.067234084   -17.036218 -0.041707817    3548.4186    1564.5697    961.00529    877.38587    28.379756    18.846204    14.337777   0.32613795   0.32613563    0.2812083   0.28117248    299.07564     41.49527    35.978931    34.423473    90.016431    119.66323    90.107069    18.846379    14.337077    28.382239      18.8472    14.334605 
   77000    299.34864    1.2509986    2103.5676   -1186.0245   -211.49952    2079.6867   -2309.4113   -280.26981    44657.537 -0.067234084   -17.036218 -0.041707817    3519.3167    1597.9315    920.03815    852.36118    28.379741    18.846215     14.33778   0.31099909   0.31099806   0.25222528   0.25205717    299.34864     41.49527    35.978931    34.423473    90.016431    119.66323    90.107069    18.845395    14.337697    28.390115    18.841709    14.337821 
   78000     296.6365    1.2509986    2022.9469   -1200.6702   -211.49952    2074.4998   -2309.8298    -939.1403    44657.537 -0.067234084   -17.036218 -0.041707817    3458.9471    1524.9313    926.69903     852.8759    28.379696    18.846209    14.337761   0.32158433   0.32157602   0.27752383   0.27739557     296.6365     41.49527    35.978931    34.423473    90.016431    119.66323    90.107069    18.845967    14.337649    28.389176    18.845404    14.334874 
   79000    292.97276    1.2509986    2067.7114   -1179.5915   -211.49952     2078.928   -2309.2045   -41.487177    44657.537 -0.067234084   -17.036218 -0.041707817    3477.5794    1532.9557    943.65456    852.52374    28.379681      18.8462    14.337763   0.30645888   0.30645267   0.26892641   0.26885779    292.97276     41.49527    35.978931    34.423473    90.016431    119.66323    90.107069    18.847296    14.338106     28.38774    18.847733    14.339622 
   80000    294.09617    1.2509986    2191.8207   -1159.8062   -211.49952    2076.7503    -2308.862   -695.01074    44657.537 -0.067234084   -17.036218 -0.041707817    3583.7387    1613.1301    961.45268    860.50769    28.379683    18.846192    14.337751   0.31627648   0.31627458   0.27132834   0.27131715    294.09617     41.49527    35.978931    34.423473    90.016431    119.66323    90.107069    18.847502    14.338117    28.379539    18.851636    14.337562 
   81000    301.57693    1.2509986    2143.4556   -1183.6387   -211.49952    2072.9678   -2310.2824   -361.19395    44657.537 -0.067234084   -17.036218 -0.041707817     3564.409    1581.2771    940.67889    885.51794    28.379662    18.846174    14.337741   0.31440157   0.31439306   0.26185141    0.2618411    301.57693     41.49527    35.978931    34.423473    90.016431    119.66323    90.107069    18.848016    14.338653    28.382517     18.85025    14.339523 
   82000    298.15938    1.2509986    2079.3546   -1196.9209   -211.49952    2070.6311   -2310.7168   -1067.6586    44657.537 -0.067234084   -17.036218 -0.041707817    3516.3612    1578.3433    949.07347    842.25184    28.379649    18.846148     14.33773   0.30901068   0.30901045   0.26783605   0.26776665    298.15938     41.49527    35.978931    34.423473    90.016431    119.66323    90.107069    18.846245    14.338195     28.37555    18.841904    14.337958 
   83000    297.00792    1.2509986    2196.0067   -1182.9607   -211.49952     2076.921   -2309.2002   -160.47396    44657.537 -0.067234084   -17.036218 -0.041707817    3611.2465    1611.9211    941.39561    900.15723    28.379636    18.846143    14.337722   0.31191114   0.31191098   0.26056001   0.26047564    297.00792     41.49527    35.978931    34.423473    90.016431    119.66323    90.107069    18.846372    14.338065    28.388098    18.846724    14.337154 
   84000    295.67621    1.2509986    2160.7854   -1176.7635   -211.49952    2076.6067   -2309.2076    379.29332    44657.537 -0.067234084   -17.036218 -0.041707817    3570.1497    1586.4153    948.56069     885.8535    28.379633    18.846134    14.337715   0.33798904   0.33797589   0.29448866   0.29394777    295.67621     41.49527    35.978931    34.423473    90.016431    119.66323    90.107069    18.847344    14.337519    28.401078    18.847806    14.330904 
   85000    300.30319    1.2509986     2197.687   -1179.6783   -211.49952    2072.0219   -2310.2542   -280.32494    44657.537 -0.067234084   -17.036218 -0.041707817    3615.5976    1606.0804    951.94163    898.39636    28.379667    18.846136    14.337724   0.34663567   0.34663187    0.2794461   0.27936522    300.30319     41.49527    35.978931    34.423473    90.016431    119.66323    90.107069     18.84625    14.337934    28.388255    18.850598    14.337995 
   86000    307.28007    1.2509986    2136.5398   -1171.1138   -211.49952    2074.8996   -2309.8673    267.61786    44657.537 -0.067234084   -17.036218 -0.041707817    3542.6214    1578.6809    964.75503    848.61274    28.379665    18.846126    14.337717    0.3426585   0.34265694   0.27819154   0.27807532    307.28007     41.49527    35.978931    34.423473    90.016431    119.66323    90.107069    18.846524    14.338803    28.378714    18.847626    14.350296 
   87000     292.5063    1.2509986    2079.2058   -1198.9136   -211.49952    2073.6066   -2309.5829   -388.74669    44657.537 -0.067234084   -17.036218 -0.041707817    3514.0956    1538.1204    926.53061    893.94056    28.379675    18.846118    14.337713   0.32021871    0.3202175   0.27340226   0.27333484     292.5063     41.49527    35.978931    34.423473    90.016431    119.66323    90.107069    18.846194    14.338044    28.375382    18.845903    14.333288 
   88000    291.49928    1.2509986    2073.7681    -1179.857   -211.49952    2074.0699   -2309.7351    32.498752    44657.537 -0.067234084   -17.036218 -0.041707817    3489.2903    1544.4209    961.20405    841.90663    28.379662     18.84611    14.337711   0.30570626     0.305706   0.25213249   0.25208387    291.49928     41.49527    35.978931    34.423473    90.016431    119.66323    90.107069    18.845832    14.337932    28.386191    18.846946    14.339058 
   89000    297.27498    1.2509986    2118.1644   -1205.0038   -211.49952     2075.896   -2308.8222   -379.19008    44657.537 -0.067234084   -17.036218 -0.041707817    3556.0944    1579.7832    928.32102    895.68264    28.379666    18.846117    14.337708   0.30958312   0.30957919   0.26104521   0.26096546    297.27498     41.49527    35.978931    34.423473    90.016431    119.66323    90.107069    18.847016    14.339539    28.377249    18.846992    14.348025 
   90000    302.93683    1.2509986    2116.4862   -1202.4933   -211.49952    2075.0572   -2309.7867   -1548.5149    44657.537 -0.067234084   -17.036218 -0.041707817     3553.709    1586.4041    963.89426    853.10031    28.379673    18.846123    14.337698   0.32189274   0.32188918   0.27039957   0.27030898    302.93683     41.49527    35.978931    34.423473    90.016431    119.66323    90.107069    18.845809    14.337202    28.378863    18.842369    14.332858 
   91000    300.48345    1.2509986    2106.4197    -1188.353   -211.49952    2074.8756   -2309.2008   -1135.0795    44657.537 -0.067234084   -17.036218 -0.041707817    3529.0978    1582.7654    952.72876    848.67768    28.379682    18.846128    14.337703    0.3034358    0.3034333   0.25701819    0.2569734    300.48345     41.49527    35.978931    34.423473    90.016431    119.66323    90.107069    18.846432     14.33898    28.375667    18.852723    14.343624 
   92000     291.7035    1.2509986    2099.9455   -1206.2472   -211.49952    2079.7191   -2308.7496   -553.50634    44657.537 -0.067234084   -17.036218 -0.041707817    3535.2231    1585.7139    947.97676    853.67536    28.379713    18.846119    14.337712   0.29977287   0.29977123   0.24833857   0.24828427     291.7035     41.49527    35.978931    34.423473    90.016431    119.66323    90.107069    18.845706    14.338488    28.383769    18.844601    14.343772 
   93000    304.61513    1.2509986    2222.3501   -1177.9628   -211.49952     2077.841   -2309.6214   -264.37941    44657.537 -0.067234084   -17.036218 -0.041707817    3632.0934    1590.5979    974.68667    905.06193    28.379737    18.846111    14.337721   0.32387412   0.32387055   0.26775379   0.26756585    304.61513     41.49527    35.978931    34.423473    90.016431    119.66323    90.107069    18.847299    14.336266    28.383355    18.850004    14.326503 
   94000    290.66539    1.2509986    2049.9742   -1212.2532   -211.49952    2077.7027   -2309.7807   -1630.5384    44657.537 -0.067234084   -17.036218 -0.041707817    3494.3054    1562.1142    932.58126    855.26754    28.379743     18.84611    14.337722   0.31237799   0.31236867   0.26412847   0.26405761    290.66539     41.49527    35.978931    34.423473    90.016431    119.66323    90.107069    18.845954    14.337028    28.371818    18.847506    14.336688 
   95000    295.93417    1.2509986    2089.5406   -1190.0478   -211.49952    2077.0304   -2309.8825   -141.86262    44657.537 -0.067234084   -17.036218 -0.041707817    3512.4405    1577.7804    943.42872    849.22159    28.379746    18.846117    14.337721   0.30787883   0.30786602   0.25301499   0.25273605    295.93417     41.49527    35.978931    34.423473    90.016431    119.66323    90.107069    18.846447    14.336273    28.366305    18.845509    14.330096 
   96000    292.72201    1.2509986    2151.7769    -1220.716   -211.49952    2080.9062   -2309.2129   -1777.5038    44657.537 -0.067234084   -17.036218 -0.041707817    3600.7995    1618.3499    943.78197    887.40357    28.379757    18.846121     14.33773   0.32974857   0.32974512   0.28121295    0.2810418    292.72201     41.49527    35.978931    34.423473    90.016431    119.66323    90.107069    18.846588    14.339546    28.374092    18.853194    14.350766 
   97000    297.64853    1.2509986    2018.0669   -1152.7169   -211.49952    2074.3128    -2308.983    1581.1795    44657.537 -0.067234084   -17.036218 -0.041707817    3405.4539     1508.151    899.33317    848.61089    28.379735    18.846114    14.337728   0.33363266   0.33363112   0.28311796   0.28311142    297.64853     41.49527    35.978931    34.423473    90.016431    119.66323    90.107069    18.847106    14.337245    28.381053    18.849899    14.337763 
   98000    297.08439    1.2509986    1985.9377   -1213.3518   -211.49952    2076.5984   -2309.5286   -2193.7716    44657.537 -0.067234084   -17.036218 -0.041707817    3432.2197    1499.6665    939.67108    850.01014    28.379742    18.846121     14.33773   0.31034927   0.31034842   0.25881292   0.25877061    297.08439     41.49527    35.978931    34.423473    90.016431    119.66323    90.107069    18.845609    14.337528    28.382401    18.843496    14.341584 
   99000    297.78716    1.2509986    2078.6282   -1190.8953   -211.49952    2081.1159   -2309.5684   -549.68429    44657.537 -0.067234084   -17.036218 -0.041707817     3497.976    1508.3361    970.73573    869.33155     28.37973    18.846135    14.337727   0.31751019   0.31750944    0.2772083   0.27714779    297.78716     41.49527    35.978931    34.423473    90.016431    119.66323    90.107069    18.845495    14.337231    28.381449    18.845717    14.332851 
  100000    302.78761    1.2509986    2097.2591   -1200.1927   -211.49952    2072.7858    -2309.464   -2122.4206    44657.537 -0.067234084   -17.036218 -0.041707817    3534.1299      1560.33    936.54109    886.15824    28.379728    18.846148    14.337735   0.32721092   0.32720789   0.27585531   0.27579015    302.78761     41.49527    35.978931    34.423473    90.016431    119.66323    90.107069    18.845715    14.338392    28.376734      18.8445    14.345707 
  101000    296.93641    1.2509986    2111.8389   -1185.2177   -211.49952    2070.7222   -2309.7533   -484.69192    44657.537 -0.067234084   -17.036218 -0.041707817    3536.0877    1610.0719    924.55941    853.62724    28.379708    18.846167    14.337731   0.32926125   0.32925488   0.28435366   0.28385562    296.93641     41.49527    35.978931    34.423473    90.016431    119.66323    90.107069    18.845401    14.335388    28.389538    18.845064    14.320073 
  102000    300.06678    1.2509986    2167.0502   -1191.4185   -211.49952    2074.6569   -2309.9288   -1280.6917    44657.537 -0.067234084   -17.036218 -0.041707817    3593.7407    1595.3222     958.1539    891.12848    28.379698     18.84617    14.337732   0.33764787   0.33764458   0.29437508   0.29425116    300.06678     41.49527    35.978931    34.423473    90.016431    119.66323    90.107069    18.845741    14.339426     28.38273    18.842985    14.348443 
  103000    293.03551    1.2509986    2111.2815   -1192.5078   -211.49952    2075.0396    -2309.363   -651.78794    44657.537 -0.067234084   -17.036218 -0.041707817    3538.1127    1610.8321    926.20775    852.81738     28.37971    18.846158     14.33774   0.33192975   0.33192127   0.28633851   0.28614497    293.03551     41.49527    35.978931    34.423473    90.016431    119.66323    90.107069    18.846253    14.337634    28.365817    18.851193    14.339587 
  104000    294.43461    1.2509986    2136.4965   -1165.6721   -211.49952    2076.2645   -2309.4075    434.80374    44657.537 -0.067234084   -17.036218 -0.041707817    3535.3116    1552.9831    947.57091    883.44346    28.379725    18.846168     14.33774   0.34964899   0.34964099   0.30219739   0.30213029    294.43461     41.49527    35.978931    34.423473    90.016431    119.66323    90.107069    18.848306    14.338463    28.373497    18.851484    14.344566 
  105000    296.54353    1.2509986    2084.8075   -1183.4904   -211.49952    2074.5152   -2309.7765   -2123.3081    44657.537 -0.067234084   -17.036218 -0.041707817    3503.5591    1578.5611    922.38511    856.59414    28.379762     18.84615    14.337746   0.36379006   0.36378807   0.32184907   0.32182108    296.54353     41.49527    35.978931    34.423473    90.016431    119.66323    90.107069    18.845305     14.33828    28.380094    18.843763    14.339261 
  106000    293.16552    1.2509986    2156.1352   -1180.4097   -211.49952    2073.8308    -2309.704   -163.05135    44657.537 -0.067234084   -17.036218 -0.041707817    3572.4181    1569.0259    955.77594    889.70294    28.379745    18.846158    14.337738   0.34610203    0.3461012   0.29505181   0.29497901    293.16552     41.49527    35.978931    34.423473    90.016431    119.66323    90.107069    18.846121    14.337312    28.378684    18.850533    14.331288 
  107000      294.262    1.2509986     2101.074   -1150.9796   -211.49952    2074.4224   -2309.4707     2564.678    44657.537 -0.067234084   -17.036218 -0.041707817    3487.1019    1563.5639    920.20608    854.91595    28.379752    18.846161    14.337738   0.33420069   0.33420053    0.2865607   0.28653779      294.262     41.49527    35.978931    34.423473    90.016431    119.66323    90.107069    18.845955    14.337855    28.379403    18.845338    14.336575 
  108000    297.72449    1.2509986    2173.2641   -1180.6758   -211.49952    2070.4028   -2309.8562   -236.76802    44657.537 -0.067234084   -17.036218 -0.041707817    3593.3933    1583.7352    972.04815    883.86927    28.379768    18.846162    14.337737   0.34842017   0.34841076   0.28223004    0.2821336    297.72449     41.49527    35.978931    34.423473    90.016431    119.66323    90.107069    18.846559    14.336277    28.383151    18.846681    14.330802 
  109000    296.64556    1.2509986     2132.699   -1178.6696   -211.49952    2080.1922   -2309.3762   -227.99723    44657.537 -0.067234084   -17.036218 -0.041707817    3540.5526    1601.1536    923.65859    864.57732    28.379792    18.846146    14.337747   0.34171911   0.34171118   0.28833335   0.28824327    296.64556     41.49527    35.978931    34.423473    90.016431    119.66323    90.107069    18.847807    14.338483     28.38883    18.848594    14.337659 
  110000    299.20798    1.2509986    2082.6841   -1205.9615   -211.49952    2080.6114   -2309.2848   -623.05084    44657.537 -0.067234084   -17.036218 -0.041707817     3517.319    1569.1207    953.79701    850.60353    28.379801    18.846149    14.337757   0.33989121   0.33988272   0.29828637   0.29824515    299.20798     41.49527    35.978931    34.423473    90.016431    119.66323    90.107069    18.846493    14.337371    28.384198    18.848778    14.335209 
  111000    295.76515    1.2509986    2201.1078   -1197.7636   -211.49952    2075.6909   -2309.4102   -429.19688    44657.537 -0.067234084   -17.036218 -0.041707817    3632.5907    1636.5323     932.4804    902.31445    28.379791    18.846162     14.33775   0.33724449   0.33721993   0.29282557   0.29233945    295.76515     41.49527    35.978931    34.423473    90.016431    119.66323    90.107069    18.845634    14.334797     28.36685    18.841521    14.323251 
  112000    297.65723    1.2509986    2032.5123   -1171.8583   -211.49952    2072.8699   -2309.4476    1241.2496    44657.537 -0.067234084   -17.036218 -0.041707817    3440.9483    1489.1711    928.83152    870.54046    28.379821    18.846161    14.337759   0.34424149   0.34424083   0.29193754   0.29191418    297.65723     41.49527    35.978931    34.423473    90.016431    119.66323    90.107069    18.846921    14.337423    28.381664    18.846533    14.336065 
  113000    302.08855    1.2509986    2071.8955   -1200.4241   -211.49952    2078.2987   -2309.0544   -1013.6487    44657.537 -0.067234084   -17.036218 -0.041707817    3503.0753    1546.6668    946.53975     863.2928    28.379811    18.846158    14.337758   0.31083867   0.31083507   0.25665202    0.2565726    302.08855     41.49527    35.978931    34.423473    90.016431    119.66323    90.107069    18.846422    14.339614    28.376673    18.846548    14.347702 
  114000    299.56732    1.2509986    2152.0237   -1201.5504   -211.49952    2074.0739   -2309.3107   -1214.4877    44657.537 -0.067234084   -17.036218 -0.041707817     3588.811    1639.1988    933.37828    863.38368     28.37979     18.84616    14.337744   0.31157197   0.31157073   0.25776853   0.25771185    299.56732     41.49527    35.978931    34.423473    90.016431    119.66323    90.107069    18.845409    14.337698    28.376825    18.842679    14.336621 
  115000    290.12859    1.2509986    2093.3186   -1177.4453   -211.49952    2076.4756   -2309.3307   -818.48225    44657.537 -0.067234084   -17.036218 -0.041707817     3503.619    1553.8685    929.72069    873.92021    28.379812    18.846165    14.337742   0.31646018   0.31645402   0.26982215   0.26971745    290.12859     41.49527    35.978931    34.423473    90.016431    119.66323    90.107069    18.844264    14.336444    28.378173    18.840885    14.333578 
  116000    302.72821    1.2509986    2176.9587   -1188.7323   -211.49952    2070.7748   -2309.9331    -1098.924    44657.537 -0.067234084   -17.036218 -0.041707817    3604.8493    1582.9937    986.14966    885.24989    28.379822     18.84616    14.337746   0.32178044   0.32177202   0.25956467    0.2595256    302.72821     41.49527    35.978931    34.423473    90.016431    119.66323    90.107069    18.847739    14.336661    28.374376    18.849095     14.33614 
  117000    298.25567    1.2509986    2132.6934   -1187.0165   -211.49952    2074.8093   -2309.8442    1411.3432    44657.537 -0.067234084   -17.036218 -0.041707817    3554.7448      1545.33    958.59547     898.7135    28.379828    18.846157    14.337752   0.32255981   0.32255778   0.27410794    0.2740664    298.25567     41.49527    35.978931    34.423473    90.016431    119.66323    90.107069    18.845788    14.336574    28.377447    18.843116    14.338117 
  118000    303.49763    1.2509986    2207.1536   -1158.8055   -211.49952    2077.9694   -2309.1639    2240.3568    44657.537 -0.067234084   -17.036218 -0.041707817    3597.1536    1577.4748    979.04959    887.00579    28.379821    18.846149    14.337741   0.32272912   0.32272678   0.27843656   0.27840311    303.49763     41.49527    35.978931    34.423473    90.016431    119.66323    90.107069    18.846252    14.338673    28.383109     18.84523    14.342191 
  119000    301.02384    1.2509986    2176.5663    -1189.813   -211.49952    2080.2298   -2309.2805    595.50343    44657.537 -0.067234084   -17.036218 -0.041707817    3595.4299    1618.2041    979.13568    852.42228    28.379814    18.846137    14.337738   0.33370536   0.33370429   0.29332532   0.29328164    301.02384     41.49527    35.978931    34.423473    90.016431    119.66323    90.107069    18.846043    14.337825     28.38259    18.845046     14.33531 
  120000    294.29363    1.2509986    2050.1562   -1146.6046   -211.49952    2076.4642   -2308.9372    2348.5436    44657.537 -0.067234084   -17.036218 -0.041707817    3429.2337    1509.7934    909.34496    862.27168    28.379819    18.846118    14.337751   0.32750847   0.32750673    0.2795307   0.27949763    294.29363     41.49527    35.978931    34.423473    90.016431    119.66323    90.107069    18.845904    14.336915    28.376943    18.845579    14.335838 
  121000     295.7598    1.2509986    2007.8719   -1224.2937   -211.49952    2079.7199   -2309.5102   -955.91023    44657.537 -0.067234084   -17.036218 -0.041707817    3461.9559     1543.516    946.02805    827.99301    28.379833     18.84612    14.337759   0.34478767   0.34478671   0.28632096   0.28625909     295.7598     41.49527    35.978931    34.423473    90.016431    119.66323    90.107069    18.845629    14.337918    28.383098    18.841992    14.339461 
  122000    294.78536    1.2509986     2121.353   -1226.6382   -211.49952    2073.5581   -2309.2595   -2285.2299    44657.537 -0.067234084   -17.036218 -0.041707817    3583.6926    1626.7514    930.20279    875.73366    28.379846    18.846112    14.337759   0.35615169   0.35614914   0.31208572   0.31207999    294.78536     41.49527    35.978931    34.423473    90.016431    119.66323    90.107069    18.847752    14.337947    28.379085    18.851066    14.338503 
  123000    291.33103    1.2509986     2023.428    -1205.294   -211.49952    2073.2873   -2309.8469   -1697.7364    44657.537 -0.067234084   -17.036218 -0.041707817    3465.2816    1535.7474    925.11602    855.53057    28.379846    18.846097    14.337751   0.33279089   0.33278993   0.27153331   0.27151393    291.33103     41.49527    35.978931    34.423473    90.016431    119.66323    90.107069    18.846657    14.337888    28.377865     18.84748    14.335874 
  124000    300.11785    1.2509986    2149.2593   -1167.2108   -211.49952    2078.8961   -2309.1202    629.44927    44657.537 -0.067234084   -17.036218 -0.041707817    3546.6943    1593.0298    922.54266    875.99581    28.379829    18.846109    14.337756   0.30872556   0.30872458    0.2572086   0.25709269    300.11785     41.49527    35.978931    34.423473    90.016431    119.66323    90.107069    18.845941    14.336827    28.378097    18.843197    14.330697 
  125000    293.94065    1.2509986    2100.5262   -1165.0677   -211.49952    2075.1687    -2308.939   -309.53832    44657.537 -0.067234084   -17.036218 -0.041707817    3499.3643    1520.1925    909.83569    913.04436    28.379839    18.846089    14.337765   0.34027074   0.34026848   0.28707091   0.28694897    293.94065     41.49527    35.978931    34.423473    90.016431    119.66323    90.107069    18.844925    14.337911    28.388694    18.845181    14.344514 
  126000    296.86212    1.2509986    2129.2603   -1215.0889   -211.49952    2079.6327   -2309.8685   -216.82706    44657.537 -0.067234084   -17.036218 -0.041707817     3574.585    1628.5957    956.73986    847.08948    28.379834    18.846081    14.337762   0.32715363   0.32714941   0.28086368   0.28071398    296.86212     41.49527    35.978931    34.423473    90.016431    119.66323    90.107069    18.846371    14.335747    28.381889    18.846552    14.327882 
  127000    298.40163    1.2509986    2074.1402   -1218.3464   -211.49952     2076.733    -2309.537    -926.5473    44657.537 -0.067234084   -17.036218 -0.041707817    3525.2905    1592.9901    943.95715    845.62757    28.379834    18.846101    14.337757   0.34354421   0.34354305   0.29776896   0.29773612    298.40163     41.49527    35.978931    34.423473    90.016431    119.66323    90.107069    18.845981    14.338041    28.377591    18.844457    14.336772 
  128000    286.32072    1.2509986     2181.052   -1162.4971   -211.49952    2076.6374     -2309.31   -1477.4717    44657.537 -0.067234084   -17.036218 -0.041707817    3576.2217    1607.3246    938.82205    880.06758    28.379825    18.846101     14.33775   0.33931574   0.33931239   0.29606223   0.29601134    286.32072     41.49527    35.978931    34.423473    90.016431    119.66323    90.107069    18.845485    14.336861    28.380443    18.842825    14.336201 
  129000     296.9117    1.2509986    2226.9046   -1167.0224   -211.49952    2075.6559   -2309.0095   -929.48342    44657.537 -0.067234084   -17.036218 -0.041707817    3627.2806    1605.6567     981.4133    883.92513    28.379814    18.846117    14.337752   0.35683862    0.3568359    0.2907487   0.29071864     296.9117     41.49527    35.978931    34.423473    90.016431    119.66323    90.107069     18.84509    14.338801     28.38412    18.846744    14.341658 
  130000    295.09886    1.2509986    2195.3554    -1189.523   -211.49952    2074.7415   -2309.1777   -1665.6301    44657.537 -0.067234084   -17.036218 -0.041707817    3619.3145    1581.2374    963.88599    914.23297    28.379811     18.84611    14.337756   0.33634579   0.33633761   0.28347143   0.28326002    295.09886     41.49527    35.978931    34.423473    90.016431    119.66323    90.107069    18.845991    14.338964    28.391505    18.847738    14.347825 
  131000    296.53081    1.2509986    2138.8998   -1166.0612   -211.49952     2073.697   -2309.0812   -7.8075948    44657.537 -0.067234084   -17.036218 -0.041707817    3540.3453    1555.5669    951.98049    877.68461      28.3798    18.846106     14.33776   0.34621209   0.34620812   0.28491594   0.28482521    296.53081     41.49527    35.978931    34.423473    90.016431    119.66323    90.107069    18.848164    14.337913    28.370519    18.851789    14.338477 
  132000    296.43039    1.2509986    2133.9343   -1171.3518   -211.49952    2082.5543   -2308.8198    2379.2657    44657.537 -0.067234084   -17.036218 -0.041707817    3531.5516    1546.7028    940.91066    891.93647      28.3798    18.846101     14.33776   0.32827142   0.32826667   0.28727902   0.28717994    296.43039     41.49527    35.978931    34.423473    90.016431    119.66323    90.107069    18.844803     14.33941    28.381899    18.843746    14.347753 
  133000     297.7547    1.2509986     2112.421   -1213.2942   -211.49952    2083.4002   -2309.1883   -432.52374    44657.537 -0.067234084   -17.036218 -0.041707817    3551.5033    1565.7235    947.87517    882.64429    28.379792    18.846108    14.337746    0.3458112   0.34581116   0.29706562   0.29694364     297.7547     41.49527    35.978931    34.423473    90.016431    119.66323    90.107069    18.846125    14.337553    28.382741    18.839614     14.33479 
  134000    295.68766    1.2509986    2043.6529   -1204.2736   -211.49952    2079.8519   -2309.3246    12.869401    44657.537 -0.067234084   -17.036218 -0.041707817    3477.3992    1520.5353    934.55262    869.55285    28.379798    18.846107    14.337758    0.3277245   0.32772095   0.27402905    0.2738638    295.68766     41.49527    35.978931    34.423473    90.016431    119.66323    90.107069    18.845605    14.337015    28.369541    18.844288     14.33311 
  135000    297.18498    1.2509986    2132.1423   -1135.3623   -211.49952    2075.1962   -2309.5288   -77.064374    44657.537 -0.067234084   -17.036218 -0.041707817    3501.8371    1511.5766    959.63647    878.83495    28.379805    18.846115    14.337747    0.3575384   0.35753712   0.29481734   0.29480251    297.18498     41.49527    35.978931    34.423473    90.016431    119.66323    90.107069    18.846255    14.337085    28.379241    18.848739    14.335809 
  136000    299.82912    1.2509986    2111.9737   -1190.9859   -211.49952    2073.7197   -2309.6134   -1443.7264    44657.537 -0.067234084   -17.036218 -0.041707817    3538.8532     1589.999    930.34228    870.49875    28.379781    18.846118     14.33774   0.37045713   0.37045613   0.32151333   0.32150889    299.82912     41.49527    35.978931    34.423473    90.016431    119.66323    90.107069    18.846749    14.338524    28.380581     18.84889    14.341477 
  137000    299.68101    1.2509986    2223.3407   -1164.8297   -211.49952    2069.6703   -2309.9342    1639.1802    44657.537 -0.067234084   -17.036218 -0.041707817    3628.4343    1608.6234    949.76032    914.50866    28.379766    18.846109    14.337732   0.33236158   0.33234943   0.27718589   0.27697841    299.68101     41.49527    35.978931    34.423473    90.016431    119.66323    90.107069    18.845757    14.335957     28.37689    18.851278    14.325665 
  138000    291.53087    1.2509986    2185.8888   -1161.6602   -211.49952    2075.4631    -2308.852   -156.98932    44657.537 -0.067234084   -17.036218 -0.041707817    3580.9379    1581.3507    960.94831    890.76131    28.379771    18.846106    14.337735   0.33006537   0.33005895   0.28180751   0.28162942    291.53087     41.49527    35.978931    34.423473    90.016431    119.66323    90.107069    18.846113    14.336617    28.389562    18.848299    14.330836 
  139000    298.22182    1.2509986    2197.5687   -1158.5777   -211.49952    2079.0384   -2309.2047   -138.81589    44657.537 -0.067234084   -17.036218 -0.041707817    3586.3127    1581.4156    960.11266    894.35085    28.379745    18.846115    14.337729   0.33623878   0.33622704   0.28554844   0.28550012    298.22182     41.49527    35.978931    34.423473    90.016431    119.66323    90.107069    18.846237     14.33908    28.385527    18.850597    14.342826 
  140000     299.5476    1.2509986    2149.2227   -1212.1073   -211.49952    2074.8506   -2309.7898   -2662.5315    44657.537 -0.067234084   -17.036218 -0.041707817    3596.2693    1596.2156    956.23568    895.60644    28.379756    18.846115    14.337731   0.32773533   0.32773391   0.26677224   0.26673318     299.5476     41.49527    35.978931    34.423473    90.016431    119.66323    90.107069    18.846195    14.338286    28.377417    18.847511    14.333961 
  141000    298.25034    1.2509986    2042.6252   -1179.9477   -211.49952    2079.1345    -2309.159    943.57139    44657.537 -0.067234084   -17.036218 -0.041707817    3452.5975    1525.2759    947.04845    837.55861    28.379766    18.846108     14.33773   0.32520699   0.32520381   0.26155216   0.26136521    298.25034     41.49527    35.978931    34.423473    90.016431    119.66323    90.107069    18.845091    14.337824     28.38297    18.835835    14.340914 
  142000    292.82337    1.2509986    2177.0352   -1190.4516   -211.49952    2076.0536   -2309.5823   -2002.7923    44657.537 -0.067234084   -17.036218 -0.041707817    3601.0155    1640.7324     945.4935     864.6162    28.379748    18.846103    14.337731   0.33628653   0.33627279   0.29115911   0.29089406    292.82337     41.49527    35.978931    34.423473    90.016431    119.66323    90.107069    18.845369    14.335282    28.372695    18.848077    14.324904 
  143000    297.60541    1.2509986    2136.9583   -1142.7677   -211.49952    2074.4262    -2309.564    1995.3398    44657.537 -0.067234084   -17.036218 -0.041707817    3514.8638    1521.9143    959.23055    883.17437    28.379769    18.846101    14.337746   0.33974271   0.33974085   0.29781633   0.29764401    297.60541     41.49527    35.978931    34.423473    90.016431    119.66323    90.107069     18.84508    14.336951    28.375035    18.843505    14.328614 
  144000    298.17993    1.2509986     2187.863   -1156.2661   -211.49952    2076.4084   -2309.6551    687.91998    44657.537 -0.067234084   -17.036218 -0.041707817    3577.3758    1580.0802     925.9932    910.82123    28.379777    18.846102    14.337745   0.34691126   0.34689776   0.29493663   0.29471731    298.17993     41.49527    35.978931    34.423473    90.016431    119.66323    90.107069    18.846386    14.338751    28.367394    18.842869    14.345439 
  145000    295.16402    1.2509986    2109.5261   -1212.4741   -211.49952    2077.7812   -2309.6359   -1447.1266    44657.537 -0.067234084   -17.036218 -0.041707817     3553.855    1621.2926    896.24865    883.33968    28.379777    18.846116    14.337748    0.3304172   0.33039862   0.28067908   0.28060411    295.16402     41.49527    35.978931    34.423473    90.016431    119.66323    90.107069    18.844849    14.336985    28.380987    18.840507    14.338877 
  146000    297.94919    1.2509986    2172.0382   -1177.7986   -211.49952    2075.3742    -2309.208   -693.36616    44657.537 -0.067234084   -17.036218 -0.041707817    3583.6706    1581.0077    974.63102    877.89165    28.379784    18.846139    14.337745   0.33843289   0.33842416   0.28712406   0.28654479    297.94919     41.49527    35.978931    34.423473    90.016431    119.66323    90.107069    18.845137    14.335654     28.39378     18.83808    14.323594 
  147000    299.52058    1.2509986    2124.1385   -1200.7577   -211.49952    2080.8704   -2309.0467   -518.81797    44657.537 -0.067234084   -17.036218 -0.041707817    3553.0725    1564.2239    943.14282    892.09545    28.379789    18.846139    14.337749   0.31795287   0.31794924   0.26530425   0.26518046    299.52058     41.49527    35.978931    34.423473    90.016431    119.66323    90.107069    18.846403    14.336863    28.371177    18.846043    14.332948 
  148000    295.99805    1.2509986    2194.2955   -1192.0032   -211.49952    2080.4832   -2309.2218   -634.93836    44657.537 -0.067234084   -17.036218 -0.041707817    3615.0373    1641.3394    942.49625    881.81875     28.37978    18.846141    14.337748   0.34670484   0.34670435   0.28333833   0.28318752    295.99805     41.49527    35.978931    34.423473    90.016431    119.66323    90.107069    18.845714    14.338256    28.381672    18.837646    14.343777 
  149000    298.89247    1.2509986    2180.6543   -1174.0312   -211.49952    2079.6829     -2309.44   -790.14257    44657.537 -0.067234084   -17.036218 -0.041707817    3584.4425    1616.1742    939.86051    878.56564    28.379769    18.846141    14.337738   0.33203245   0.33202696   0.27515341   0.27505481    298.89247     41.49527    35.978931    34.423473    90.016431    119.66323    90.107069    18.846476    14.339705    28.386524    18.844014    14.344643 
  150000    298.37832    1.2509986    2188.9688   -1191.5571   -211.49952    2081.1053   -2308.9422    1000.6209    44657.537 -0.067234084   -17.036218 -0.041707817    3608.3627    1574.0308    952.25228    926.34282    28.379808    18.846141    14.337751   0.34079034   0.34078734   0.28449218   0.28445634    298.37832     41.49527    35.978931    34.423473    90.016431    119.66323    90.107069    18.845649    14.337901    28.380073    18.843054    14.339883 
  151000    291.84549    1.2509986    2116.9943   -1198.2546   -211.49952    2081.7134   -2308.6036    -643.5123    44657.537 -0.067234084   -17.036218 -0.041707817    3542.1391    1584.3754    928.71697    875.20078    28.379817    18.846138    14.337751   0.31622204   0.31621995   0.26144482   0.26142991    291.84549     41.49527    35.978931    34.423473    90.016431    119.66323    90.107069    18.847048    14.338684    28.383045      18.8502    14.340793 
  152000    297.69695    1.2509986    2178.1801   -1201.9259   -211.49952    2075.5108   -2309.4753    -1021.271    44657.537 -0.067234084   -17.036218 -0.041707817    3614.0704    1650.3356    908.29926    897.91992    28.379816    18.846142    14.337756   0.29446651   0.29446628   0.23903497   0.23901442    297.69695     41.49527    35.978931    34.423473    90.016431    119.66323    90.107069    18.846377     14.33745    28.383613    18.847123    14.340364 
  153000    297.44407    1.2509986     2194.456   -1179.9936   -211.49952    2079.1266    -2309.964    311.14662    44657.537 -0.067234084   -17.036218 -0.041707817    3605.2871    1586.4785    970.30821    895.85428    28.379817     18.84613    14.337748   0.29590907   0.29590781   0.25155397   0.25152588    297.44407     41.49527    35.978931    34.423473    90.016431    119.66323    90.107069    18.845094    14.338015    28.380463    18.843822    14.339074 
  154000    309.34584    1.2509986    2045.3779   -1227.2739   -211.49952    2073.5751   -2309.3507   -700.62264    44657.537 -0.067234084   -17.036218 -0.041707817    3508.4274    1525.9881    936.88358    892.14278     28.37983    18.846136    14.337747    0.2749541   0.27495015   0.22328595   0.22323507    309.34584     41.49527    35.978931    34.423473    90.016431    119.66323    90.107069    18.846624    14.338363    28.386685    18.848872    14.339853 
  155000    306.26605    1.2509986    2159.5088   -1186.7303   -211.49952    2074.0777   -2309.2583    917.99781    44657.537 -0.067234084   -17.036218 -0.041707817    3581.4198    1581.9343    934.49107    904.45168    28.379822    18.846145    14.337744   0.28436525   0.28436352   0.23363894   0.23349591    306.26605     41.49527    35.978931    34.423473    90.016431    119.66323    90.107069      18.8463    14.338592    28.371427    18.844575    14.347204 
  156000    301.16506    1.2509986    2079.7347   -1224.3369   -211.49952    2075.0982    -2309.334    -2096.873    44657.537 -0.067234084   -17.036218 -0.041707817    3538.3074    1586.9929    962.21384    841.28262    28.379817     18.84615    14.337741   0.29735169   0.29734919   0.25370541   0.25369376    301.16506     41.49527    35.978931    34.423473    90.016431    119.66323    90.107069     18.84665     14.33897      28.3776    18.848054    14.342265 
  157000    305.44258    1.2509986    2143.5113   -1176.5607   -211.49952    2074.3989   -2309.2174    741.71637    44657.537 -0.067234084   -17.036218 -0.041707817    3554.8904    1534.3706    982.03919    888.41912    28.379835     18.84613    14.337739   0.30749218   0.30748875   0.24918917   0.24915186    305.44258     41.49527    35.978931    34.423473    90.016431    119.66323    90.107069    18.846425    14.338577     28.37354    18.849272     14.34066 
  158000    296.67821    1.2509986    2163.3796   -1168.7042   -211.49952    2084.3952   -2308.8106   -422.20957    44657.537 -0.067234084   -17.036218 -0.041707817    3556.4993    1553.7925    924.67442    920.82411    28.379866    18.846133    14.337746   0.35182284   0.35182178    0.3000485   0.30004117    296.67821     41.49527    35.978931    34.423473    90.016431    119.66323    90.107069    18.845899    14.338172     28.38023    18.846389    14.339605 
  159000    297.22834    1.2509986    2108.7784    -1166.744   -211.49952     2083.817   -2309.5457    1267.4076    44657.537 -0.067234084   -17.036218 -0.041707817    3501.2511    1592.5995    925.19352     839.7023    28.379875    18.846136    14.337755   0.34218967   0.34218831    0.2900203   0.28996698    297.22834     41.49527    35.978931    34.423473    90.016431    119.66323    90.107069    18.846393    14.337506    28.372949    18.848069      14.3426 
  160000     297.0845    1.2509986    2138.9793   -1211.6405   -211.49952    2081.9783   -2308.9156   -1252.0455    44657.537 -0.067234084   -17.036218 -0.041707817    3577.5571    1599.4938    907.51283    908.78711    28.379868    18.846141    14.337755   0.33300218   0.33299767   0.27929478   0.27914481     297.0845     41.49527    35.978931    34.423473    90.016431    119.66323    90.107069    18.844323     14.33758    28.388899    18.843057    14.334422 
  161000    296.55462    1.2509986    2089.7967   -1185.4045   -211.49952    2076.6033   -2309.1182    2038.0331    44657.537 -0.067234084   -17.036218 -0.041707817    3507.7161     1552.729    921.50753    880.60613    28.379845    18.846144    14.337756   0.31057176   0.31056907   0.27028478   0.27018197    296.55462     41.49527    35.978931    34.423473    90.016431    119.66323    90.107069    18.847391    14.336695    28.374702    18.850733    14.330904 
  162000     299.6096    1.2509986    2125.8019   -1180.6864   -211.49952    2075.1143   -2309.0299    62.518285    44657.537 -0.067234084   -17.036218 -0.041707817    3540.4039    1559.5478    958.10335    870.18178    28.379847    18.846143    14.337752      0.32048   0.32047918    0.2700341   0.26981276     299.6096     41.49527    35.978931    34.423473    90.016431    119.66323    90.107069    18.846288    14.336931    28.383185     18.84739    14.325301 
  163000    303.46543    1.2509986     2128.747   -1182.0607   -211.49952    2079.0329   -2309.7223   -1324.1474    44657.537 -0.067234084   -17.036218 -0.041707817    3541.4971    1586.3245    950.73418    853.92509    28.379834    18.846144    14.337748   0.33115557   0.33115509   0.28573593   0.28571876    303.46543     41.49527    35.978931    34.423473    90.016431    119.66323    90.107069    18.846207    14.338309    28.383672    18.848635    14.339936 
  164000    299.28151    1.2509986    2111.8466   -1160.0349   -211.49952    2073.2508   -2309.0924    676.42092    44657.537 -0.067234084   -17.036218 -0.041707817     3507.723    1515.2773    926.13124    910.79241    28.379834    18.846156    14.337752   0.32145135   0.32144371   0.27548711    0.2753986    299.28151     41.49527    35.978931    34.423473    90.016431    119.66323    90.107069    18.846123    14.336135    28.374716    18.848464     14.33159 
  165000    298.89209    1.2509986    2063.6701   -1185.8236   -211.49952    2073.1172   -2310.1948   -781.18433    44657.537 -0.067234084   -17.036218 -0.041707817    3486.5713    1537.8817    934.75941    863.18488    28.379858    18.846168    14.337753    0.3483252   0.34831909   0.29924198   0.29922367    298.89209     41.49527    35.978931    34.423473    90.016431    119.66323    90.107069    18.847286    14.336837    28.376018    18.848838     14.33724 
[...]
  961000    297.07467    1.2509986    2160.8478    -1197.879   -211.49952    2078.7695   -2309.3532   -424.77755    44657.537 -0.067234084   -17.036218 -0.041707817    3589.3106    1588.2953    975.27048    870.76001    28.379786    18.846151    14.337756   0.31121967    0.3112127   0.25071004   0.25026275    297.07467     41.49527    35.978931    34.423473    90.016431    119.66323    90.107069    18.846478    14.337978    28.399967    18.843671    14.341107 
  962000    297.50901    1.2509986    2122.5877   -1217.0935   -211.49952     2072.542   -2310.2403   -1955.7139    44657.537 -0.067234084   -17.036218 -0.041707817    3577.3795    1609.8749    919.50852    891.14343    28.379769    18.846143    14.337754   0.32200185   0.32200106   0.27841725   0.27839392    297.50901     41.49527    35.978931    34.423473    90.016431    119.66323    90.107069    18.845834    14.337796    28.378862    18.844307    14.340479 
  963000    294.19375    1.2509986    2188.6531   -1165.6973   -211.49952      2073.06   -2309.0186    398.40633    44657.537 -0.067234084   -17.036218 -0.041707817    3590.3089    1569.7479    964.74444    899.95893    28.379774     18.84613     14.33775   0.33101449   0.33100905    0.2847882   0.28474395    294.19375     41.49527    35.978931    34.423473    90.016431    119.66323    90.107069    18.846346    14.338134    28.384823    18.852047    14.336934 
  964000    294.42827    1.2509986    2196.4747   -1155.0613   -211.49952    2073.4103   -2309.4986    1516.0578    44657.537 -0.067234084   -17.036218 -0.041707817    3587.6244    1564.6304    966.02843    906.26059    28.379747    18.846132    14.337745   0.32299626   0.32298403   0.26268093   0.26262906    294.42827     41.49527    35.978931    34.423473    90.016431    119.66323    90.107069    18.845952    14.338534    28.385586    18.845686    14.337527 
  965000    290.55663    1.2509986    2053.5881   -1195.0592   -211.49952    2072.4873   -2309.8481   -1178.2967    44657.537 -0.067234084   -17.036218 -0.041707817     3486.008    1552.7376    926.63976    860.56685    28.379738    18.846126    14.337743   0.30736854   0.30736204   0.25247297   0.25225783    290.55663     41.49527    35.978931    34.423473    90.016431    119.66323    90.107069    18.847485    14.336486    28.371931    18.849197     14.32711 
  966000    301.99237    1.2509986    2111.7864   -1186.1424   -211.49952    2075.4312   -2309.7976   -846.02153    44657.537 -0.067234084   -17.036218 -0.041707817    3532.2952    1550.8677    974.15893    856.99189    28.379738    18.846128    14.337756   0.30266948   0.30266204   0.24918511   0.24913585    301.99237     41.49527    35.978931    34.423473    90.016431    119.66323    90.107069    18.847432    14.339177    28.373606    18.848257    14.343281 
  967000    299.10041    1.2509986    2123.8958   -1149.8068   -211.49952    2080.3081   -2308.9047    2230.8718    44657.537 -0.067234084   -17.036218 -0.041707817    3502.2992    1573.4292    927.27469    853.54011    28.379741    18.846129    14.337746   0.32114055   0.32112407   0.26619118    0.2660218    299.10041     41.49527    35.978931    34.423473    90.016431    119.66323    90.107069    18.847144    14.338778    28.370964    18.848945    14.349413 
  968000    297.22521    1.2509986    2171.2635   -1176.8607   -211.49952    2077.6635   -2308.7507    811.41253    44657.537 -0.067234084   -17.036218 -0.041707817    3579.2114    1576.8308    950.08862     900.2601    28.379743    18.846115    14.337751   0.33247287   0.33247232   0.28614733   0.28614556    297.22521     41.49527    35.978931    34.423473    90.016431    119.66323    90.107069    18.846173    14.337655    28.378883    18.848491    14.338618 
  969000    303.83542    1.2509986    2215.8805   -1202.8066   -211.49952    2074.7656    -2309.686   -1101.2999    44657.537 -0.067234084   -17.036218 -0.041707817    3653.6075    1616.6664    984.79221    899.30191    28.379743     18.84612    14.337761   0.31997424   0.31997287   0.26590818   0.26581251    303.83542     41.49527    35.978931    34.423473    90.016431    119.66323    90.107069    18.846111    14.337414    28.374238    18.841981    14.335402 
  970000    296.02218    1.2509986    2128.1562    -1154.292   -211.49952    2074.7985   -2309.4169    871.36787    44657.537 -0.067234084   -17.036218 -0.041707817    3517.0666    1549.1081    936.22737    880.07137    28.379754    18.846108    14.337762   0.31137138   0.31136967   0.25974628   0.25966659    296.02218     41.49527    35.978931    34.423473    90.016431    119.66323    90.107069    18.845185    14.337627    28.384709    18.842446    14.336473 
  971000    301.57151    1.2509986    2049.0933   -1192.2406   -211.49952    2079.6753   -2309.3472   -1213.3125    44657.537 -0.067234084   -17.036218 -0.041707817    3471.0058    1546.9909    938.56375     842.2624    28.379741    18.846113    14.337757   0.31483097   0.31482677   0.26384384   0.26362967    301.57151     41.49527    35.978931    34.423473    90.016431    119.66323    90.107069    18.846779    14.336492    28.381737    18.846532    14.325381 
  972000    297.08088    1.2509986    2217.3178   -1203.9946   -211.49952    2072.6792   -2308.6573   -1472.0022    44657.537 -0.067234084   -17.036218 -0.041707817    3657.2906    1635.5954    970.47668    897.55321    28.379744    18.846118    14.337748   0.30708425   0.30708363    0.2587433   0.25866095    297.08088     41.49527    35.978931    34.423473    90.016431    119.66323    90.107069    18.845834    14.337483    28.376468    18.847146    14.331312 
  973000    304.31679    1.2509986    2084.0533   -1179.9387   -211.49952    2077.1025   -2309.8404    737.45011    44657.537 -0.067234084   -17.036218 -0.041707817      3496.73    1549.1943    930.26801    869.34272     28.37976    18.846133    14.337747   0.30620862   0.30620725   0.25906024   0.25898731    304.31679     41.49527    35.978931    34.423473    90.016431    119.66323    90.107069    18.845542    14.336998     28.38203    18.843855    14.333297 
  974000     298.8753    1.2509986    2174.4631   -1200.2471   -211.49952    2077.9781   -2309.1193   -1394.1016    44657.537 -0.067234084   -17.036218 -0.041707817    3605.8513    1614.7483    936.53328    900.82333    28.379734    18.846155    14.337743   0.30052326   0.30052159   0.25113102   0.25106114     298.8753     41.49527    35.978931    34.423473    90.016431    119.66323    90.107069    18.845666    14.338279    28.387071    18.845377    14.340072 
  975000    296.77761    1.2509986    2074.6158   -1223.2869   -211.49952    2079.0842   -2309.7232   -672.55364    44657.537 -0.067234084   -17.036218 -0.041707817    3528.5417    1573.5451    901.33326    894.36265    28.379725    18.846159    14.337748   0.29447016   0.29446731   0.24234571   0.24220647    296.77761     41.49527    35.978931    34.423473    90.016431    119.66323    90.107069    18.846612     14.33717    28.368364    18.849587    14.335945 
  976000    293.81473    1.2509986    2107.0124   -1207.5374   -211.49952    2076.7358   -2309.6937   -1656.0852    44657.537 -0.067234084   -17.036218 -0.041707817    3547.5077    1527.5696    937.24696    923.83879    28.379713     18.84615    14.337734   0.29125397   0.29124932   0.24265381   0.24250268    293.81473     41.49527    35.978931    34.423473    90.016431    119.66323    90.107069    18.847185    14.336453    28.372356    18.847929    14.329733 
  977000    297.29996    1.2509986    2100.6718   -1208.0208   -211.49952    2073.6823   -2309.5245    -1961.957    44657.537 -0.067234084   -17.036218 -0.041707817    3544.5349     1587.769    878.27878    917.68111    28.379722    18.846144    14.337735   0.28630737   0.28630355   0.24027522   0.24022883    297.29996     41.49527    35.978931    34.423473    90.016431    119.66323    90.107069    18.846828    14.337591    28.385537    18.846651    14.337391 
  978000    297.64736    1.2509986    2051.3883   -1180.4289   -211.49952    2074.6723   -2309.7277    682.79935    44657.537 -0.067234084   -17.036218 -0.041707817    3466.8725    1529.2699    928.49709     858.0134     28.37973    18.846143    14.337737   0.29090305    0.2909018   0.23953117   0.23952825    297.64736     41.49527    35.978931    34.423473    90.016431    119.66323    90.107069    18.846769    14.337817    28.380739    18.848321    14.340656 
  979000    297.70947    1.2509986    2115.6089   -1190.0106   -211.49952    2076.0529   -2309.3669   -366.97776    44657.537 -0.067234084   -17.036218 -0.041707817    3538.9335    1586.5221    951.37507    854.56139    28.379731    18.846139    14.337743   0.29379648   0.29378785   0.24129685   0.24126327    297.70947     41.49527    35.978931    34.423473    90.016431    119.66323    90.107069    18.847076    14.338898    28.381981    18.853704    14.342026 
  980000    303.06244    1.2509986      2121.36     -1200.06   -211.49952    2079.3447   -2308.5837   -1247.6886    44657.537 -0.067234084   -17.036218 -0.041707817    3550.6589     1594.812    965.94465    841.33058    28.379703    18.846136    14.337727   0.30973158   0.30972914   0.25706332   0.25689806    303.06244     41.49527    35.978931    34.423473    90.016431    119.66323    90.107069    18.846894    14.338797    28.370045     18.84835    14.348261 
  981000    300.03872    1.2509986    2194.1302   -1179.7374   -211.49952    2074.8736   -2309.4883   -1375.3946    44657.537 -0.067234084   -17.036218 -0.041707817    3608.4823    1610.7732    953.81006    886.87091    28.379692    18.846142    14.337723   0.34979374   0.34978779   0.28625655   0.28611576    300.03872     41.49527    35.978931    34.423473    90.016431    119.66323    90.107069     18.84542    14.337506    28.382522    18.844081    14.329262 
  982000    302.74625    1.2509986    2098.2961   -1190.8535   -211.49952    2068.5486   -2309.9638   -786.35919    44657.537 -0.067234084   -17.036218 -0.041707817    3530.5648    1583.9283    927.61808    868.61205    28.379667    18.846143    14.337726   0.31926697   0.31926603   0.27301765   0.27292956    302.74625     41.49527    35.978931    34.423473    90.016431    119.66323    90.107069    18.845654    14.337152    28.374743    18.842165    14.335392 
  983000     297.1453    1.2509986    2063.8094   -1199.2513   -211.49952    2069.2992   -2310.3709   -1471.0434    44657.537 -0.067234084   -17.036218 -0.041707817    3504.1323    1587.6968    916.42333    852.43978    28.379672    18.846146    14.337731   0.31566124   0.31565968    0.2615209   0.26148642     297.1453     41.49527    35.978931    34.423473    90.016431    119.66323    90.107069    18.846287    14.337336    28.382514    18.844136    14.341034 
  984000     296.9073    1.2509986    2104.0212   -1161.3676   -211.49952     2071.864   -2309.5716     100.6806    44657.537 -0.067234084   -17.036218 -0.041707817    3503.0963    1568.2605    938.66117    845.66426    28.379667    18.846171    14.337735   0.35264702   0.35264163   0.30296138   0.30290886     296.9073     41.49527    35.978931    34.423473    90.016431    119.66323    90.107069    18.844921    14.338911    28.378103    18.842014    14.338446 
  985000     298.7181    1.2509986    2171.6698   -1160.1711   -211.49952    2076.7111   -2309.7541    942.01011    44657.537 -0.067234084   -17.036218 -0.041707817    3564.8839    1549.1769    959.18407    902.81118    28.379647    18.846176    14.337736   0.33955535   0.33954843   0.26856053   0.26850231     298.7181     41.49527    35.978931    34.423473    90.016431    119.66323    90.107069     18.84544    14.337001    28.377468    18.844227    14.334074 
  986000    287.65372    1.2509986    2110.1018   -1144.3913   -211.49952    2077.4983   -2309.3979    297.23352    44657.537 -0.067234084   -17.036218 -0.041707817    3486.3927    1550.0027    921.55686    867.07592    28.379645    18.846184    14.337728   0.32775892   0.32774962    0.2611588   0.26093116    287.65372     41.49527    35.978931    34.423473    90.016431    119.66323    90.107069    18.844968     14.33597    28.373108    18.841685    14.328133 
  987000    294.41783    1.2509986    2101.6274   -1164.7389   -211.49952    2070.3826   -2309.7633   -854.39014    44657.537 -0.067234084   -17.036218 -0.041707817     3505.747    1561.4701     960.0925    840.03574    28.379644    18.846196    14.337727   0.30522976   0.30522462   0.24165905   0.24162181    294.41783     41.49527    35.978931    34.423473    90.016431    119.66323    90.107069    18.845586    14.336381    28.380234    18.843743    14.336638 
  988000    296.19704    1.2509986    2075.9609   -1200.2268   -211.49952    2072.6508   -2309.9735   -187.99756    44657.537 -0.067234084   -17.036218 -0.041707817    3513.5104    1561.0532    942.53264    862.57575    28.379615    18.846211    14.337714    0.3020477   0.30204263   0.24404038   0.24395856    296.19704     41.49527    35.978931    34.423473    90.016431    119.66323    90.107069    18.845641    14.337267    28.385578     18.84853    14.332905 
  989000    299.09985    1.2509986    2170.0769   -1166.2131   -211.49952    2074.9516   -2309.8643    1025.7169    44657.537 -0.067234084   -17.036218 -0.041707817    3571.2028     1562.407    950.79225    899.88768    28.379589    18.846209    14.337703   0.33119436   0.33119321   0.26590276   0.26590036    299.09985     41.49527    35.978931    34.423473    90.016431    119.66323    90.107069    18.845805     14.33794    28.381069    18.849162     14.33934 
  990000    293.63414    1.2509986     2128.049   -1185.7695   -211.49952    2077.1466   -2309.6151   -1238.1969    44657.537 -0.067234084   -17.036218 -0.041707817     3546.287    1574.0528    928.12886    893.22703    28.379595      18.8462    14.337703   0.33220895   0.33220722   0.26823107   0.26816732    293.63414     41.49527    35.978931    34.423473    90.016431    119.66323    90.107069    18.846839    14.336602    28.380474     18.84873    14.331712 
  991000    296.31613    1.2509986    2089.2054   -1185.8746   -211.49952    2074.4665   -2309.5146    55.241847    44657.537 -0.067234084   -17.036218 -0.041707817    3510.1281    1570.9624    960.24955    835.18901    28.379612      18.8462    14.337714   0.32372606   0.32372502    0.2640261   0.26400828    296.31613     41.49527    35.978931    34.423473    90.016431    119.66323    90.107069    18.846093    14.337074    28.381725    18.845799    14.337966 
  992000    297.93813    1.2509986    2039.5196   -1173.2728   -211.49952    2072.5319   -2309.1956    1329.5388    44657.537 -0.067234084   -17.036218 -0.041707817    3449.4561     1526.767    924.87916    847.43916    28.379588    18.846187    14.337716   0.32333298   0.32332499   0.26987915   0.26981851    297.93813     41.49527    35.978931    34.423473    90.016431    119.66323    90.107069    18.845909    14.339195    28.386903    18.846504    14.340246 
  993000     297.8401    1.2509986    2078.7045   -1228.3752   -211.49952    2070.0525   -2309.6295   -2055.1238    44657.537 -0.067234084   -17.036218 -0.041707817    3546.6567    1568.3255     920.0492    905.90511    28.379579    18.846184    14.337711   0.31035239   0.31035177    0.2548882   0.25482076     297.8401     41.49527    35.978931    34.423473    90.016431    119.66323    90.107069    18.846209    14.336961    28.386085    18.846897    14.335127 
  994000    300.77103    1.2509986    2007.1954   -1177.2879   -211.49952    2076.5743   -2309.4407    650.20103    44657.537 -0.067234084   -17.036218 -0.041707817    3417.3497    1523.2577    872.10302    871.89746    28.379589    18.846186    14.337721   0.31357084   0.31357004    0.2667752   0.26671023    300.77103     41.49527    35.978931    34.423473    90.016431    119.66323    90.107069    18.845488    14.338269    28.377544    18.841234    14.338996 
  995000    289.43692    1.2509986     2088.451   -1195.3779   -211.49952    2079.6824   -2309.0526   -174.74617    44657.537 -0.067234084   -17.036218 -0.041707817    3513.1992    1528.4117     977.1016     859.7442    28.379607    18.846189     14.33772   0.34977933   0.34977633    0.2917818   0.29167045    289.43692     41.49527    35.978931    34.423473    90.016431    119.66323    90.107069    18.845393      14.3362     28.38093    18.844637    14.330134 
  996000    298.33172    1.2509986    2196.3625   -1166.4355   -211.49952    2073.5452   -2309.0017   -525.13773    44657.537 -0.067234084   -17.036218 -0.041707817    3598.2544    1596.2616    953.78023    892.69867    28.379607    18.846195    14.337719   0.36875694   0.36875078   0.31315808   0.31314547    298.33172     41.49527    35.978931    34.423473    90.016431    119.66323    90.107069     18.84619    14.336664    28.376527     18.84876    14.341475 
  997000    297.89578    1.2509986     2130.196   -1181.6078   -211.49952    2078.7638   -2309.2514     770.1353    44657.537 -0.067234084   -17.036218 -0.041707817    3542.2914    1563.8158    972.25769    857.93752    28.379642     18.84619    14.337734   0.32242459   0.32241551   0.26819151    0.2681222    297.89578     41.49527    35.978931    34.423473    90.016431    119.66323    90.107069    18.848697    14.339397    28.379006    18.850592    14.347794 
  998000    296.46901    1.2509986    2093.4283   -1197.5341   -211.49952    2072.9496   -2308.7301   -2311.3973    44657.537 -0.067234084   -17.036218 -0.041707817     3526.743    1608.5082    914.76739    852.82617    28.379631    18.846178    14.337723   0.34237729   0.34237626   0.29588348   0.29581737    296.46901     41.49527    35.978931    34.423473    90.016431    119.66323    90.107069    18.846376    14.336927    28.386719    18.850217    14.335983 
  999000     301.8305    1.2509986    2079.7747   -1181.4148   -211.49952     2072.924   -2309.5327    1339.5377    44657.537 -0.067234084   -17.036218 -0.041707817    3497.7981     1556.608    916.11841    871.58493    28.379637    18.846178    14.337735   0.33931943   0.33930421   0.29872491   0.29829111     301.8305     41.49527    35.978931    34.423473    90.016431    119.66323    90.107069    18.846392    14.334533    28.376169    18.846353    14.319261 
 1000000    297.39802    1.2509986    2101.7642   -1187.8402   -211.49952    2065.2125   -2310.6759    105.30832    44657.537 -0.067234084   -17.036218 -0.041707817    3535.0678    1574.1912    948.73108    861.73073    28.379635    18.846173    14.337735   0.33206081   0.33206008   0.29573467   0.29563318    297.39802     41.49527    35.978931    34.423473    90.016431    119.66323    90.107069    18.845632    14.338017    28.386273    18.842268    14.342937 
Loop time of 3045.49 on 60 procs for 1000000 steps with 4560 atoms

Pair  time (%) = 551.869 (18.1208)
Bond  time (%) = 59.063 (1.93936)
Kspce time (%) = 1585.8 (52.0703)
Neigh time (%) = 15.1152 (0.496314)
Comm  time (%) = 580.166 (19.05)
Outpt time (%) = 3.07954 (0.101118)
Other time (%) = 250.404 (8.22212)

Nlocal:    76 ave 85 max 69 min
Histogram: 2 7 5 14 6 15 7 1 0 3
Nghost:    3991.25 ave 4062 max 3898 min
Histogram: 4 10 6 0 0 3 8 13 9 7
Neighs:    28096.8 ave 31552 max 25439 min
Histogram: 2 7 6 11 12 13 3 3 0 3

Total # of neighbors = 1685810
Ave neighs/atom = 369.695
Ave special neighs/atom = 10.6316
Neighbor list builds = 6609
Dangerous builds = 0
System init for write_data ...
PPPM initialization ...
  G vector (1/distance) = 0.246499
  grid = 16 16 20
  stencil order = 5
  estimated absolute RMS force accuracy = 0.00242397
  estimated relative force accuracy = 7.2997e-06
  using double precision FFTs
  3d grid and FFT values/proc = 1053 112
