LAMMPS data file via write_data, version 15 May 2015, timestep = 4999000

2611 atoms
6 atom types
1749 bonds
4 bond types
894 angles
3 angle types
44 dihedrals
3 dihedral types
10 impropers
1 improper types

-1.5161386223279383e+01 1.5161386223279383e+01 xlo xhi
-1.5161386223279383e+01 1.5161386223279383e+01 ylo yhi
-1.5161386223279383e+01 1.5161386223279383e+01 zlo zhi

Masses

1 15.9994
2 1.00794
3 12.0107
4 1.00794
5 12.0107
6 12.0107

Bond Coeffs # harmonic

1 1000 1
2 469 1.4
3 367 1.08
4 469 0.7

Angle Coeffs # harmonic

1 100 109.47
2 35 120
3 63 120

Dihedral Coeffs # opls

1 0 7.25 0 0
2 0 7.25 0 0
3 0 7.25 0 0

Improper Coeffs # cvff

1 2.5 -1 2

Atoms # full

498 166 2 4.0999999999999998e-01 -9.4273362532253895e+00 -1.0853661232160027e+01 -7.2353589730423273e+00 3 -1 -1
1510 504 1 -8.1999999999999995e-01 -1.3173759511248873e+01 -1.1991263742235253e+01 -8.9129533354355743e+00 -1 -1 4
2536 846 1 -8.1999999999999995e-01 -1.1628819555219948e+01 -1.0806767885477365e+01 -1.1186909815772859e+01 2 -1 1
2537 846 2 4.0999999999999998e-01 -1.1541489458417461e+01 -1.0017596444285022e+01 -1.1794847462855788e+01 2 -1 1
91 31 1 -8.1999999999999995e-01 -1.2165936561308191e+01 -8.3327223643095714e+00 -1.2576631126930058e+01 3 -3 -1
2538 846 2 4.0999999999999998e-01 -1.2329172530691428e+01 -1.0620751378852868e+01 -1.0497772777856905e+01 2 -1 1
2551 851 1 -8.1999999999999995e-01 -1.3401713941641590e+01 -1.4643129164364414e+01 -1.3438652415133461e+01 0 -1 -2
1701 567 2 4.0999999999999998e-01 -1.0302340018196784e+01 -1.1455980835007585e+01 -9.8180307842631187e+00 2 1 0
2215 739 1 -8.1999999999999995e-01 -9.9494018709890018e+00 -1.1576535150770178e+01 -1.3865080130195139e+01 3 -2 0
2216 739 2 4.0999999999999998e-01 -1.0726517120006900e+01 -1.1596279049805815e+01 -1.3236026601302411e+01 3 -2 0
1134 378 2 4.0999999999999998e-01 -1.4212766926515446e+01 -8.0080763331050164e+00 -1.0460870714513980e+01 1 -1 0
1700 567 2 4.0999999999999998e-01 -8.7984237188171335e+00 -1.0859884926697646e+01 -1.0040626305832744e+01 2 1 0
2190 730 2 4.0999999999999998e-01 -9.7595013125076520e+00 -7.7475353513317122e+00 -1.0381403574028017e+01 1 0 0
93 31 2 4.0999999999999998e-01 -1.3158036029129015e+01 -8.2875024066137080e+00 -1.2459583783504044e+01 3 -3 -1
582 194 2 4.0999999999999998e-01 -8.2713025388203114e+00 -8.5640121109395615e+00 -1.1850330880393560e+01 3 -2 2
1038 346 2 4.0999999999999998e-01 -1.0893398188687723e+01 -1.3749324184004561e+01 -1.1623766273887883e+01 1 2 1
2217 739 2 4.0999999999999998e-01 -1.0248562289507159e+01 -1.1868032414156570e+01 -1.4773671729809685e+01 3 -2 0
2403 801 2 4.0999999999999998e-01 -1.2557035530891675e+01 -1.0924948174215398e+01 -7.3327538457041239e+00 2 -1 -1
580 194 1 -8.1999999999999995e-01 -8.6000692077880174e+00 -7.6348769351524242e+00 -1.1681136973600118e+01 3 -2 2
1283 428 2 4.0999999999999998e-01 -9.2903052729064015e+00 -1.3453815275395375e+01 -1.4622046026388407e+01 1 0 2
2552 851 2 4.0999999999999998e-01 -1.4282880104436915e+01 -1.4857165087660841e+01 -1.3017058845449197e+01 0 -1 -2
2553 851 2 4.0999999999999998e-01 -1.2819494786062450e+01 -1.4174338693568377e+01 -1.2774376374941752e+01 0 -1 -2
2498 833 2 4.0999999999999998e-01 -8.5600064834062888e+00 -1.1212754125805505e+01 -1.2124015938360593e+01 2 -1 3
2497 833 1 -8.1999999999999995e-01 -7.8933017369264808e+00 -1.0555989511499705e+01 -1.1771636339485520e+01 2 -1 3
1699 567 1 -8.1999999999999995e-01 -9.4189559916336734e+00 -1.1285006711807245e+01 -9.3816744965269940e+00 2 1 0
1511 504 2 4.0999999999999998e-01 -1.4069551636239476e+01 -1.2170096941446737e+01 -9.3198704178661789e+00 -1 -1 4
1512 504 2 4.0999999999999998e-01 -1.2741941816664749e+01 -1.2858047363091362e+01 -8.6635019148610688e+00 -1 -1 4
831 277 2 4.0999999999999998e-01 -8.4544822260486683e+00 -1.3639404195246620e+01 -1.0981323852107261e+01 -1 -1 -2
1036 346 1 -8.1999999999999995e-01 -1.1868508375149627e+01 -1.3534396213659312e+01 -1.1569246418447984e+01 1 2 1
830 277 2 4.0999999999999998e-01 -8.8534212999305986e+00 -1.4091771242139028e+01 -1.2498839883163546e+01 -1 -1 -2
829 277 1 -8.1999999999999995e-01 -9.1924459849118030e+00 -1.3978248690742792e+01 -1.1564933467099307e+01 -1 -1 -2
1037 346 2 4.0999999999999998e-01 -1.1984779080661447e+01 -1.2585548392317278e+01 -1.1275690197988826e+01 1 2 1
2436 812 2 4.0999999999999998e-01 -1.1746096599500966e+01 -1.3260860968960296e+01 -6.7151477618084101e+00 2 -1 0
2401 801 1 -8.1999999999999995e-01 -1.2237272069307707e+01 -1.0613516680755538e+01 -6.4378973959755452e+00 2 -1 -1
2402 801 2 4.0999999999999998e-01 -1.2651924635392426e+01 -9.7287476135982072e+00 -6.2251693040228826e+00 2 -1 -1
496 166 1 -8.1999999999999995e-01 -9.5757865199458259e+00 -1.1261658679323435e+01 -6.3345222015189311e+00 3 -1 -1
1132 378 1 -8.1999999999999995e-01 -1.4706153529282185e+01 -8.0876974110868289e+00 -1.1327032617885177e+01 1 -1 0
497 166 2 4.0999999999999998e-01 -1.0496827153909921e+01 -1.1038581756486348e+01 -6.0152619039481259e+00 3 -1 -1
2435 812 2 4.0999999999999998e-01 -1.1486729433754025e+01 -1.4719533648319539e+01 -7.4019126605507219e+00 2 -1 0
2434 812 1 -8.1999999999999995e-01 -1.1947448578658619e+01 -1.3838163825930785e+01 -7.5064663256794200e+00 2 -1 0
2023 675 1 -8.1999999999999995e-01 -8.4625112485033434e+00 -9.0816553342170359e+00 -1.4673147192547003e+01 2 1 0
2025 675 2 4.0999999999999998e-01 -8.9683466519273196e+00 -9.6304559794599793e+00 -1.4007598780081722e+01 2 1 0
403 135 1 -8.1999999999999995e-01 -1.2853942603690653e+01 -8.2543520672224666e+00 -5.1998198139452292e+00 1 -3 1
2580 860 2 4.0999999999999998e-01 -1.4302907137943798e+01 -1.2225781262324734e+01 -5.4216990160748146e+00 1 0 2
2166 722 2 4.0999999999999998e-01 -7.7396444071872539e+00 -9.2164639382930496e+00 -6.1585035889281414e+00 2 -2 -2
1282 428 1 -8.1999999999999995e-01 -8.5425139297560602e+00 -1.4105713853473249e+01 -1.4496178459990055e+01 1 0 2
2096 699 2 4.0999999999999998e-01 -1.3363584889859363e+01 -1.3878174737400698e+01 -1.5063542807467609e+01 1 -2 0
2578 860 1 -8.1999999999999995e-01 -1.5071538984479419e+01 -1.2185609736833710e+01 -6.0601327558265474e+00 1 0 2
321 107 2 4.0999999999999998e-01 -1.2225138143949483e+01 -1.5125242502000150e+01 -9.7952920078201799e+00 1 -3 1
2024 675 2 4.0999999999999998e-01 -9.0482693249800779e+00 -8.3454351559552187e+00 -1.5012077312104260e+01 2 1 0
1821 607 2 4.0999999999999998e-01 -1.0966574130829542e+01 -2.1884398132884328e+00 -6.8256015183535492e+00 4 0 -1
2188 730 1 -8.1999999999999995e-01 -1.0537343397397725e+01 -7.4850595083036842e+00 -9.8103743112645745e+00 1 0 0
92 31 2 4.0999999999999998e-01 -1.1801386870870449e+01 -7.4086343153675411e+00 -1.2691396598013057e+01 3 -3 -1
1234 412 1 -8.1999999999999995e-01 -1.3017289451013433e+01 -7.0482676718306649e+00 -9.1857509723282309e+00 -1 1 -4
1236 412 2 4.0999999999999998e-01 -1.2081476892621458e+01 -7.0365959660237110e+00 -9.5380647342884917e+00 -1 1 -4
1235 412 2 4.0999999999999998e-01 -1.2997677284957312e+01 -7.1473888703945985e+00 -8.1908657120161781e+00 -1 1 -4
1767 589 2 4.0999999999999998e-01 -1.2891562319157725e+01 -3.1771113906982684e-01 -5.2185329013083486e+00 0 -3 -1
1820 607 2 4.0999999999999998e-01 -1.2400533492806446e+01 -2.8688315705368534e+00 -6.4415820299416922e+00 4 0 -1
37 13 1 -8.1999999999999995e-01 -8.2097658181268862e+00 -2.1444060517324459e-01 -1.2451370164958854e+01 1 0 -1
581 194 2 4.0999999999999998e-01 -9.2697666133135996e+00 -7.3857121038604863e+00 -1.2380728695374714e+01 3 -2 2
2069 690 2 4.0999999999999998e-01 -1.1337893335072586e+01 -5.4558692959029376e+00 -7.3488860841627126e+00 4 -2 0
2363 788 2 4.0999999999999998e-01 -1.1064377992016713e+01 -4.9701750478386604e+00 -1.2832246147911256e+01 2 -2 0
2189 730 2 4.0999999999999998e-01 -1.0226781668155770e+01 -7.3378649451093265e+00 -8.8712835511597650e+00 1 0 0
2362 788 1 -8.1999999999999995e-01 -1.1026763766714556e+01 -5.8182485952750866e+00 -1.2303698413522250e+01 2 -2 0
2364 788 2 4.0999999999999998e-01 -1.1392645703838134e+01 -5.6563277814023660e+00 -1.1387227822660833e+01 2 -2 0
2087 696 2 4.0999999999999998e-01 -1.0349037735364949e+01 -7.3550229561088178e+00 -6.3733214008996129e+00 0 -4 -1
2086 696 1 -8.1999999999999995e-01 -1.0111300866460823e+01 -6.7546967434581191e+00 -7.1369285739378121e+00 0 -4 -1
1752 584 2 4.0999999999999998e-01 -7.8239269869288055e+00 -6.4713939483378322e+00 -5.7230968340301231e+00 1 -1 1
2088 696 2 4.0999999999999998e-01 -9.1247316128237017e+00 -6.5913364943004709e+00 -7.1378479043759011e+00 0 -4 -1
703 235 1 -8.1999999999999995e-01 -1.4129138055779682e+01 -1.7782003766211805e+00 -7.9766950235999472e+00 2 -3 1
1832 611 2 4.0999999999999998e-01 -9.8336067317838758e+00 -1.6212549325549297e+00 -1.0263231855564236e+01 2 -1 2
1678 560 1 -8.1999999999999995e-01 -1.1584555713524001e+01 -4.0003605339110226e+00 -1.0056076459878856e+01 2 1 1
1334 445 2 4.0999999999999998e-01 -8.8041928199213189e+00 -2.5851577776360823e+00 -5.9624852412560081e+00 0 -4 -1
2559 853 2 4.0999999999999998e-01 -1.3521610470316626e+01 -1.7731036154907365e+00 -1.1405738465502470e+01 3 0 -1
2070 690 2 4.0999999999999998e-01 -1.1831222042420727e+01 -4.1815977052980013e+00 -8.2430347995404532e+00 4 -2 0
705 235 2 4.0999999999999998e-01 -1.3970713027876725e+01 -1.1164473851952650e+00 -8.7094915738542475e+00 2 -3 1
2557 853 1 -8.1999999999999995e-01 -1.3485831676092237e+01 -2.7083445586310226e+00 -1.1757946638657382e+01 3 0 -1
1831 611 1 -8.1999999999999995e-01 -9.2452408321846633e+00 -2.4251408490909050e+00 -1.0176057921621410e+01 2 -1 2
2558 853 2 4.0999999999999998e-01 -1.4383162344922091e+01 -2.9634201532280677e+00 -1.2118141598758541e+01 3 0 -1
39 13 2 4.0999999999999998e-01 -7.9434589315530317e+00 -1.0869547345240829e+00 -1.2861011534127311e+01 1 0 -1
645 215 2 4.0999999999999998e-01 -1.0781048901872566e+01 -3.1627683540998444e+00 -1.5075106687802833e+01 0 -1 2
644 215 2 4.0999999999999998e-01 -9.3986125203248179e+00 -4.0317829080761793e+00 -1.5057034289391696e+01 0 -1 2
643 215 1 -8.1999999999999995e-01 -1.0394291852279295e+01 -4.0797732494103407e+00 -1.4977498839105627e+01 0 -1 2
1679 560 2 4.0999999999999998e-01 -1.2196319742854131e+01 -3.4401690375216027e+00 -1.0614589268937673e+01 2 1 1
659 220 2 4.0999999999999998e-01 -9.3251312062907381e+00 -1.1844394482143343e+00 -1.4549215943882665e+01 3 0 3
704 235 2 4.0999999999999998e-01 -1.3522608827806826e+01 -1.5757037773813867e+00 -7.2078493188248851e+00 2 -3 1
1833 611 2 4.0999999999999998e-01 -8.7016801496798912e+00 -2.3512686826410363e+00 -9.3399413133410647e+00 2 -1 2
1680 560 2 4.0999999999999998e-01 -1.0662457772622437e+01 -3.6142683736407566e+00 -1.0082048047341488e+01 2 1 1
2068 690 1 -8.1999999999999995e-01 -1.1952323417055418e+01 -4.6674093590707155e+00 -7.3773975840143171e+00 4 -2 0
654 218 2 4.0999999999999998e-01 -1.4466775303650980e+01 -5.1310958760391099e+00 -9.7519493548909360e+00 1 -1 -1
2247 749 2 4.0999999999999998e-01 -1.3525645071752376e+01 -2.1074512259957121e+00 -1.4589522873359332e+01 4 -1 -2
1819 607 1 -8.1999999999999995e-01 -1.1883568883813838e+01 -2.0132058503804373e+00 -6.4672441459736785e+00 4 0 -1
2260 754 1 -8.1999999999999995e-01 -1.3398655611522909e+01 -2.3763404167598701e-01 -1.0315743091197659e+01 2 -1 -3
1335 445 2 4.0999999999999998e-01 -9.3152746043160803e+00 -1.3146943346627733e+00 -6.8520701360455707e+00 0 -4 -1
1333 445 1 -8.1999999999999995e-01 -9.0556106846729811e+00 -2.2799634984133679e+00 -6.8809904320349364e+00 0 -4 -1
841 281 1 -8.1999999999999995e-01 -1.2434340089805737e+01 -1.0793334805155927e+01 -3.6609511803474071e+00 1 0 0
1195 399 1 -8.1999999999999995e-01 -1.0629334780500528e+01 -1.4376942663207792e+01 -2.1505301606492662e+00 3 -2 1
842 281 2 4.0999999999999998e-01 -1.2928314228434092e+01 -1.0193171173924569e+01 -3.0318251764917790e+00 1 0 0
1759 587 1 -8.1999999999999995e-01 -9.7707015523757939e+00 -1.2091791570675010e+01 -3.6344353847963635e+00 3 -2 1
490 164 1 -8.1999999999999995e-01 -1.1773878010304518e+01 -7.8139138836465349e+00 -2.1438358858085316e-01 -2 -2 -2
492 164 2 4.0999999999999998e-01 -1.2529221504773380e+01 -8.1958548761997765e+00 -7.4690924350765187e-01 -2 -2 -2
1761 587 2 4.0999999999999998e-01 -1.0514261507515339e+01 -1.1434739436497679e+01 -3.5103087093618601e+00 3 -2 1
202 68 1 -8.1999999999999995e-01 -1.3514906106498822e+01 -1.3318159445946083e+01 -3.7035540252983505e+00 1 0 2
204 68 2 4.0999999999999998e-01 -1.3802285640679349e+01 -1.3717546959370612e+01 -2.8329743769895810e+00 1 0 2
1197 399 2 4.0999999999999998e-01 -1.0420550463243403e+01 -1.3405493901895021e+01 -2.2632368679776356e+00 3 -2 1
1159 387 1 -8.1999999999999995e-01 -1.3423537459891470e+01 -8.7751503221292939e+00 -2.0312125796014779e+00 4 -1 -1
203 68 2 4.0999999999999998e-01 -1.2890870506024037e+01 -1.2556091086111675e+01 -3.5308181529504203e+00 1 0 2
1280 427 2 4.0999999999999998e-01 -1.0170711577250271e+01 -9.0837034388634770e+00 -1.3854284279477529e+00 -1 3 1
1279 427 1 -8.1999999999999995e-01 -9.7561244831472465e+00 -9.2914472258675520e+00 -2.2714117133237934e+00 -1 3 1
1196 399 2 4.0999999999999998e-01 -1.0693730998805718e+01 -1.4810495547026271e+01 -3.0493580075822617e+00 3 -2 1
843 281 2 4.0999999999999998e-01 -1.2523207248633408e+01 -1.0444044003867106e+01 -4.5937452911021257e+00 1 0 0
1160 387 2 4.0999999999999998e-01 -1.4147682224154478e+01 -9.1303009553055663e+00 -1.4400368941485944e+00 4 -1 -1
1281 427 2 4.0999999999999998e-01 -9.0085311834301045e+00 -9.9434505471392569e+00 -2.1449117454465103e+00 -1 3 1
1161 387 2 4.0999999999999998e-01 -1.3797895137652061e+01 -8.0641092319932195e+00 -2.6264295050349453e+00 4 -1 -1
1298 433 2 4.0999999999999998e-01 -8.0957742072677696e+00 -1.1761285842712148e+01 -2.5867864764256741e+00 0 -1 -2
295 99 1 -8.1999999999999995e-01 -1.3071973353673766e+01 -1.1693302672278213e+01 2.8308482369980581e-01 -1 -1 1
31 11 1 -8.1999999999999995e-01 -1.3315425779875557e+01 -1.4581609832583792e+01 -1.3093194283020200e+00 1 1 1
296 99 2 4.0999999999999998e-01 -1.3081174089649576e+01 -1.1566261406260885e+01 -7.0877311586098557e-01 -1 -1 1
297 99 2 4.0999999999999998e-01 -1.3737075577904115e+01 -1.2396185292928511e+01 5.3527787715910158e-01 -1 -1 1
448 150 1 -8.1999999999999995e-01 -9.9406402182433489e+00 -7.9230026078211759e+00 -4.5376302225279979e+00 1 1 2
1788 596 2 4.0999999999999998e-01 -9.9031823189821893e+00 -1.4749742192954557e+01 -5.7787982751172784e-01 0 1 0
695 232 2 4.0999999999999998e-01 -7.8403104858719583e+00 -8.3089367791411188e+00 1.3915556475406419e+00 1 -2 0
449 150 2 4.0999999999999998e-01 -1.0221523059231624e+01 -8.2006682504321198e+00 -3.6189284722632333e+00 1 1 2
291 97 2 4.0999999999999998e-01 -1.4449988148278734e+01 -1.1169792079751355e+01 3.9103949909004037e+00 1 -1 -1
665 222 2 4.0999999999999998e-01 -1.0501080586720656e+01 -1.1357303359081738e+01 2.0836935801539411e+00 2 2 -1
85 29 1 -8.1999999999999995e-01 -1.0833183450993197e+01 -1.4000956095793462e+01 4.1867131266042961e+00 2 1 0
664 222 1 -8.1999999999999995e-01 -1.1438937786285003e+01 -1.1228340432493187e+01 2.4058717324620069e+00 2 2 -1
666 222 2 4.0999999999999998e-01 -1.2072225119986168e+01 -1.1333833000492513e+01 1.6391744069489000e+00 2 2 -1
1786 596 1 -8.1999999999999995e-01 -9.2018789464165636e+00 -1.4887733938996424e+01 1.2150432073997486e-01 0 1 0
1371 457 2 4.0999999999999998e-01 -1.2757651454293043e+01 -7.6869711497554754e+00 2.7172021895580478e+00 1 -1 -1
1876 626 1 -8.1999999999999995e-01 -1.1721125160524414e+01 -8.6353157974977108e+00 3.5319018092255980e+00 3 -2 -1
1877 626 2 4.0999999999999998e-01 -1.1437840625179604e+01 -9.5696325839782599e+00 3.3155494620318535e+00 3 -2 -1
1878 626 2 4.0999999999999998e-01 -1.1442479095244165e+01 -8.4102832420263987e+00 4.4655628902380435e+00 3 -2 -1
1005 335 2 4.0999999999999998e-01 -1.4418803735264362e+01 -1.4206839158755425e+01 2.5908808769410818e-01 0 1 1
290 97 2 4.0999999999999998e-01 -1.4212994179166001e+01 -9.5745494120919634e+00 3.6541178954804145e+00 1 -1 -1
289 97 1 -8.1999999999999995e-01 -1.4554632801978659e+01 -1.0255550792448613e+01 4.3018265624170695e+00 1 -1 -1
611 204 2 4.0999999999999998e-01 -1.2685273784151176e+01 -1.2859692709943243e+01 3.3274152995214763e+00 1 -1 0
612 204 2 4.0999999999999998e-01 -1.4148869877315258e+01 -1.3402901125999888e+01 2.8484012040781579e+00 1 -1 0
610 204 1 -8.1999999999999995e-01 -1.3644931444063818e+01 -1.2960153204017358e+01 3.5900390225101368e+00 1 -1 0
677 226 2 4.0999999999999998e-01 -8.6995201986982789e+00 -1.3135305198485980e+01 7.8098173048196884e-01 -1 -1 -4
694 232 1 -8.1999999999999995e-01 -8.7034729653778555e+00 -8.3484376389858319e+00 1.8949407105768721e+00 1 -2 0
676 226 1 -8.1999999999999995e-01 -8.9333361965564464e+00 -1.2303069807226223e+01 1.2836950624365180e+00 -1 -1 -4
678 226 2 4.0999999999999998e-01 -8.6700668011126609e+00 -1.1502989003321376e+01 7.4465305628001843e-01 -1 -1 -4
696 232 2 4.0999999999999998e-01 -9.4512078186346002e+00 -8.0582468743041602e+00 1.2977069196086291e+00 1 -2 0
2475 825 2 4.0999999999999998e-01 -7.9731435622325426e+00 -9.5928767319438712e+00 3.5028897665960912e+00 6 1 2
750 250 2 4.0999999999999998e-01 -8.3533062567319742e+00 -1.3606869258245958e+01 4.3379776773654193e+00 0 0 1
1003 335 1 -8.1999999999999995e-01 -1.4693456143709934e+01 -1.3898784017047852e+01 1.1699527277012223e+00 0 1 1
1674 558 2 4.0999999999999998e-01 -1.3295641424185291e+01 -1.4904650008181337e+01 -4.6612016239787817e+00 1 1 0
1760 587 2 4.0999999999999998e-01 -9.6246944209620295e+00 -1.2249344770836977e+01 -4.6110956093853339e+00 3 -2 1
33 11 2 4.0999999999999998e-01 -1.2420913611518753e+01 -1.4824111454371945e+01 -1.6848820014440946e+00 1 1 1
749 250 2 4.0999999999999998e-01 -8.1688456870300428e+00 -1.3176224649687869e+01 2.7736366397139847e+00 0 0 1
87 29 2 4.0999999999999998e-01 -1.1474864524894752e+01 -1.4223968230793087e+01 4.9205505176309678e+00 2 1 0
748 250 1 -8.1999999999999995e-01 -7.6908862205108477e+00 -1.3469935523322864e+01 3.6014621119695569e+00 0 0 1
86 29 2 4.0999999999999998e-01 -1.0302537455485274e+01 -1.3192755976931371e+01 4.4421220978258340e+00 2 1 0
404 135 2 4.0999999999999998e-01 -1.1933146699688660e+01 -8.0289864498048154e+00 -4.8814622117173929e+00 1 -3 1
450 150 2 4.0999999999999998e-01 -8.9918325463435735e+00 -8.1977843862326250e+00 -4.6934033154699648e+00 1 1 2
1836 612 2 4.0999999999999998e-01 -1.0833371756460895e+01 -1.5075936514866065e+01 3.0324065736475205e+00 2 -1 0
248 83 2 4.0999999999999998e-01 -1.4985722767843304e+01 -2.2881875711854285e+00 -4.4689228505013237e+00 4 -1 -2
2383 795 1 -8.1999999999999995e-01 -7.7052271450096450e+00 -4.8123429136943034e+00 -9.4614307814102361e-01 0 0 -1
1346 449 2 4.0999999999999998e-01 -8.1436447732357617e+00 -1.7547872106951861e+00 -3.8591226292129264e+00 1 1 0
1750 584 1 -8.1999999999999995e-01 -8.1274975172279991e+00 -6.0370837291878363e+00 -4.8750249556452836e+00 1 -1 1
491 164 2 4.0999999999999998e-01 -1.2102452924923716e+01 -7.5596648914916758e+00 6.9523296560150349e-01 -2 -2 -2
2317 773 1 -8.1999999999999995e-01 -7.5953576774212168e+00 -3.3481645968473579e+00 -4.5112920431383543e+00 2 -2 1
301 101 1 -8.1999999999999995e-01 -1.1046526862170616e+01 -5.1520225184593507e+00 -3.9532525963587286e+00 2 1 1
2219 740 2 4.0999999999999998e-01 -1.1408675179277706e+01 -4.4126377126353553e+00 1.3300792115529987e+00 3 -1 0
1818 606 2 4.0999999999999998e-01 -1.2882798402916446e+01 -2.7249619970216550e+00 3.7929905415660663e+00 4 -2 -1
2218 740 1 -8.1999999999999995e-01 -1.2376930432244139e+01 -4.6540609632632393e+00 1.3949091417812625e+00 3 -1 0
1816 606 1 -8.1999999999999995e-01 -1.3636676775920836e+01 -3.2412999070413022e+00 3.3867038539222278e+00 4 -2 -1
724 242 1 -8.1999999999999995e-01 -1.0433042133843948e+01 -5.9292842502360923e+00 -1.4200480192302702e+00 4 -2 1
2384 795 2 4.0999999999999998e-01 -8.6163191112919861e+00 -5.1605599160755968e+00 -1.1667391929538056e+00 0 0 -1
731 244 2 4.0999999999999998e-01 -1.4811085402633051e+01 -1.4739589671962658e+00 1.9771335714908140e+00 -1 -1 0
303 101 2 4.0999999999999998e-01 -1.0650986283763880e+01 -4.2543778391470042e+00 -4.1476439284498952e+00 2 1 1
877 293 1 -8.1999999999999995e-01 -1.4803449480872668e+01 -6.6014372929490097e+00 -4.0518421255634696e+00 3 -1 0
726 242 2 4.0999999999999998e-01 -1.1126104029790744e+01 -6.4126202373921100e+00 -8.8520421356932388e-01 4 -2 1
408 136 2 4.0999999999999998e-01 -1.0363391974516833e+01 -2.6196133456086432e+00 4.9046945863128606e+00 5 1 -1
878 293 2 4.0999999999999998e-01 -1.5121079897424954e+01 -5.9297497343017085e+00 -4.7211350773354219e+00 3 -1 0
1347 449 2 4.0999999999999998e-01 -8.8885678642448589e+00 -3.6528478184275848e-01 -4.2845821835193085e+00 1 1 0
113 38 2 4.0999999999999998e-01 -9.7945464616143418e+00 -3.3383037779642493e+00 3.4680056597905384e-01 0 -1 1
1370 457 2 4.0999999999999998e-01 -1.3367732963047377e+01 -6.2777367442074041e+00 2.1617723684670906e+00 1 -1 -1
1369 457 1 -8.1999999999999995e-01 -1.3417032308008421e+01 -7.2738730579758597e+00 2.0890515741199671e+00 1 -1 -1
1751 584 2 4.0999999999999998e-01 -9.0155055557153929e+00 -6.4115214935589009e+00 -4.6081084566197656e+00 1 -1 1
2376 792 2 4.0999999999999998e-01 -1.5071056104150429e+01 -6.9901411168409311e+00 1.1969987086932150e+00 2 -1 -1
2220 740 2 4.0999999999999998e-01 -1.2904293224716621e+01 -4.0903467620764875e+00 7.5920390930070880e-01 3 -1 0
2490 830 2 4.0999999999999998e-01 -1.3005721159301343e+01 -4.3471793846708362e+00 -3.8545483262444371e+00 3 -1 -3
2016 672 2 4.0999999999999998e-01 -9.8408007326403180e+00 -1.0570877289728529e+00 -1.9758126110483829e+00 2 -1 0
2212 738 1 -8.1999999999999995e-01 -1.3032640987546143e+01 -1.4454699771270008e+00 -2.1113707119998413e+00 5 -3 -2
2488 830 1 -8.1999999999999995e-01 -1.3529425145961023e+01 -3.5128116125539357e+00 -4.0265102571259543e+00 3 -1 -3
2489 830 2 4.0999999999999998e-01 -1.3153363944699340e+01 -2.7646284391393401e+00 -3.4798785533490904e+00 3 -1 -3
2303 768 2 4.0999999999999998e-01 -1.4020941913845972e+01 -2.9349788933930281e+00 -1.0196519405819977e+00 2 -1 1
2014 672 1 -8.1999999999999995e-01 -1.0531437479104991e+01 -1.4082280586240010e+00 -1.3435724389771018e+00 2 -1 0
2213 738 2 4.0999999999999998e-01 -1.2119019026887891e+01 -1.5991858828835799e+00 -1.7349764196222797e+00 5 -3 -2
2214 738 2 4.0999999999999998e-01 -1.3289158100953076e+01 -4.8748398719740749e-01 -1.9830424536881601e+00 5 -3 -2
2302 768 1 -8.1999999999999995e-01 -1.4150181819621762e+01 -3.3072342352391377e+00 -1.0056037707897580e-01 2 -1 1
725 242 2 4.0999999999999998e-01 -1.0809372884072751e+01 -5.6906864367194636e+00 -2.3152868692938497e+00 4 -2 1
2015 672 2 4.0999999999999998e-01 -1.0641548248970551e+01 -7.6960234519340354e-01 -5.8196942261511175e-01 2 -1 0
302 101 2 4.0999999999999998e-01 -1.0977201392250631e+01 -5.7299796090801696e+00 -4.7663736882307131e+00 2 1 1
2304 768 2 4.0999999999999998e-01 -1.4826398241223476e+01 -2.7573608218467758e+00 3.8972212374221016e-01 2 -1 1
1137 379 2 4.0999999999999998e-01 -8.6269960938207717e+00 -6.1244977625728723e+00 3.2527598261174191e+00 0 -1 -1
112 38 1 -8.1999999999999995e-01 -9.8124950114902028e+00 -3.6150778293386239e+00 1.3075712392301284e+00 0 -1 1
407 136 2 4.0999999999999998e-01 -1.0793907015322812e+01 -2.8726616527674871e+00 3.3499384689545266e+00 5 1 -1
406 136 1 -8.1999999999999995e-01 -1.0945278237676732e+01 -2.3010722716930445e+00 4.1563990243934050e+00 5 1 -1
114 38 2 4.0999999999999998e-01 -8.9769889009907651e+00 -4.1198492277352230e+00 1.5246925741986033e+00 0 -1 1
1817 606 2 4.0999999999999998e-01 -1.3272783455740214e+01 -3.8997308530184966e+00 2.7278740766560468e+00 4 -2 -1
1914 638 2 4.0999999999999998e-01 -1.0599774469500108e+01 -1.7207354762267535e-01 3.7292213438404858e+00 2 -2 1
1345 449 1 -8.1999999999999995e-01 -8.6409721216496820e+00 -9.5726865720722110e-01 -3.5176025212300797e+00 1 1 0
1135 379 1 -8.1999999999999995e-01 -9.5244771329707181e+00 -5.9904917612812412e+00 3.6729698603711789e+00 0 -1 -1
2319 773 2 4.0999999999999998e-01 -7.8306545547246360e+00 -4.3166137114518754e+00 -4.5934383978804014e+00 2 -2 1
1136 379 2 4.0999999999999998e-01 -1.0233312517132511e+01 -6.3529706226616813e+00 3.0678518876627408e+00 0 -1 -1
146 49 2 4.0999999999999998e-01 -1.3652173095989134e+01 -8.4539159545469644e-02 3.4380598634803867e+00 0 -1 -1
1913 638 2 4.0999999999999998e-01 -8.9720256708371782e+00 -6.1046711128687647e-02 3.7981427024776515e+00 2 -2 1
405 135 2 4.0999999999999998e-01 -1.3491006242960077e+01 -7.5401955916047241e+00 -4.9097563795782388e+00 1 -3 1
1329 443 2 4.0999999999999998e-01 -1.2271862389399658e+01 -9.3563905362685915e+00 6.4315514778462912e+00 -1 -3 2
2340 780 2 4.0999999999999998e-01 -8.8462778007684246e+00 -1.1657769382816962e+01 6.1403496973050267e+00 -1 1 0
2338 780 1 -8.1999999999999995e-01 -9.4119535763111202e+00 -1.2469933460733127e+01 5.9974976398976132e+00 -1 1 0
2041 681 1 -8.1999999999999995e-01 -1.2759821389980770e+01 -1.2964932280836774e+01 6.3220496307862248e+00 4 0 0
1327 443 1 -8.1999999999999995e-01 -1.2931095543339797e+01 -1.0077643344545006e+01 6.6441833695000412e+00 -1 -3 2
166 56 1 -8.1999999999999995e-01 -1.4595446629025197e+01 -9.2241734701028761e+00 1.3349194536185710e+01 4 -1 -1
2043 681 2 4.0999999999999998e-01 -1.2555235391838396e+01 -1.1995858935897431e+01 6.4600631538936035e+00 4 0 0
2421 807 2 4.0999999999999998e-01 -9.8599923197045953e+00 -8.1169120991546997e+00 6.2935067201887200e+00 2 -2 0
2419 807 1 -8.1999999999999995e-01 -1.0812568012902194e+01 -8.2777456305125874e+00 6.0351689307774308e+00 2 -2 0
65 22 2 4.0999999999999998e-01 -1.3912864720067374e+01 -1.4415141610814086e+01 7.1390771108070368e+00 2 -1 1
59 20 2 4.0999999999999998e-01 -9.6501586187955901e+00 -1.5127942679574353e+01 1.1825285194723705e+01 0 -1 -2
2339 780 2 4.0999999999999998e-01 -9.3449479069658850e+00 -1.3067541571135525e+01 6.7964851816402536e+00 -1 1 0
2441 814 2 4.0999999999999998e-01 -1.1936458119811558e+01 -9.2753357438877906e+00 9.0984755331674698e+00 5 -2 0
855 285 2 4.0999999999999998e-01 -1.1172350633784102e+01 -1.1709283220403536e+01 1.3376955602846991e+01 2 -2 0
853 285 1 -8.1999999999999995e-01 -1.0874125481866127e+01 -1.2551317465463072e+01 1.3826451305167360e+01 2 -2 0
2440 814 1 -8.1999999999999995e-01 -1.2089493175581030e+01 -1.0253317100916959e+01 9.2403875699064066e+00 5 -2 0
854 285 2 4.0999999999999998e-01 -1.0622868546364741e+01 -1.3227751883741306e+01 1.3134127149880815e+01 2 -2 0
1858 620 1 -8.1999999999999995e-01 -1.5152956042587483e+01 -8.4340188216474381e+00 8.5206474551849283e+00 2 -3 2
360 120 2 4.0999999999999998e-01 -1.2034329340696466e+01 -1.4685454981124259e+01 9.7430686667647493e+00 -1 0 1
1965 655 2 4.0999999999999998e-01 -1.1324745230262852e+01 -9.5295205211436365e+00 1.2731752317497918e+01 2 -2 -2
1728 576 2 4.0999999999999998e-01 -9.9031222822469509e+00 -1.1146157743752951e+01 1.1588410556063060e+01 -1 -1 0
1649 550 2 4.0999999999999998e-01 -1.0677216441573293e+01 -1.2132686547624671e+01 8.6054283621669150e+00 4 0 -2
1726 576 1 -8.1999999999999995e-01 -1.0859496847025323e+01 -1.0901607899085487e+01 1.1748252235376512e+01 -1 -1 0
1727 576 2 4.0999999999999998e-01 -1.1326414384318472e+01 -1.0791163258836502e+01 1.0870871873993057e+01 -1 -1 0
487 163 1 -8.1999999999999995e-01 -1.1121621427648957e+01 -7.6486978836797332e+00 9.2551750040880307e+00 -2 -2 3
2442 814 2 4.0999999999999998e-01 -1.2510753987206758e+01 -1.0646791047261051e+01 8.4232438207763565e+00 5 -2 0
1650 550 2 4.0999999999999998e-01 -9.3965375094220764e+00 -1.2671584420407454e+01 9.4633875028387031e+00 4 0 -2
255 85 2 4.0999999999999998e-01 -1.0039474174954131e+01 -1.4651138124812615e+01 8.3603196904745936e+00 -1 1 -1
1648 550 1 -8.1999999999999995e-01 -1.0068375837229393e+01 -1.2910334456449654e+01 8.7622184647767334e+00 4 0 -2
168 56 2 4.0999999999999998e-01 -1.4992180625343016e+01 -1.0142031499393214e+01 1.3361239213224799e+01 4 -1 -1
1795 599 1 -8.1999999999999995e-01 -1.4767810463467786e+01 -1.3798577359580806e+01 1.2227962265980977e+01 3 -2 -2
2097 699 2 4.0999999999999998e-01 -1.2686675417402549e+01 -1.2881100006385605e+01 1.4157286441966114e+01 1 -2 -1
1963 655 1 -8.1999999999999995e-01 -1.1720177295115398e+01 -8.7191851033851488e+00 1.3164183071842530e+01 2 -2 -2
1284 428 2 4.0999999999999998e-01 -7.8711971157476839e+00 -1.3988243282020958e+01 1.5094787501078290e+01 1 0 1
1964 655 2 4.0999999999999998e-01 -1.2708551465584812e+01 -8.8396720856960940e+00 1.3256950236345261e+01 2 -2 -2
1796 599 2 4.0999999999999998e-01 -1.4138105101829709e+01 -1.4312194118558415e+01 1.1645145598067902e+01 3 -2 -2
489 163 2 4.0999999999999998e-01 -1.0434788428866527e+01 -7.6711319392731436e+00 8.5287016944158758e+00 -2 -2 3
1797 599 2 4.0999999999999998e-01 -1.4336746581034014e+01 -1.3626154926110823e+01 1.3113660178749200e+01 3 -2 -2
167 56 2 4.0999999999999998e-01 -1.5077553900025269e+01 -8.6440279900559052e+00 1.4005708139125385e+01 4 -1 -1
2095 699 1 -8.1999999999999995e-01 -1.3531318434601140e+01 -1.3339710380629844e+01 1.4433440371258754e+01 1 -2 -1
858 286 2 4.0999999999999998e-01 -7.9597026028658240e+00 -9.5963016057681401e+00 1.1524497089306386e+01 2 -4 2
60 20 2 4.0999999999999998e-01 -1.1265880362240910e+01 -1.5043524103382895e+01 1.1604016164752238e+01 0 -1 -2
2042 681 2 4.0999999999999998e-01 -1.3295954912165522e+01 -1.3076534001915125e+01 5.4853225463964499e+00 4 0 0
58 20 1 -8.1999999999999995e-01 -1.0492400744651707e+01 -1.4677482438528111e+01 1.2121460909953839e+01 0 -1 -2
2452 818 1 -8.1999999999999995e-01 -8.2974303003699514e+00 -1.1514130278892477e+01 1.0696018278540802e+01 3 -1 0
2453 818 2 4.0999999999999998e-01 -7.9503754608001458e+00 -1.2210857774670886e+01 1.1323816029688576e+01 3 -1 0
1328 443 2 4.0999999999999998e-01 -1.3564737863654313e+01 -1.0186428135386986e+01 5.8782397956149524e+00 -1 -3 2
1312 438 1 -8.1999999999999995e-01 -1.3934795146779665e+01 -5.1263509134709953e+00 1.4186446309541807e+01 -2 -3 1
1857 619 2 4.0999999999999998e-01 -1.3010089811401677e+01 -6.0253436056093239e+00 7.3893331720752791e+00 1 -1 -1