2611
Atoms. Timestep: 4998000
O 3.62947 14.4423 -0.478406
H 3.3709 13.5842 -0.922089
H 4.56407 14.3691 -0.130442
O -14.8179 -0.342078 4.71103
H 14.915 0.426938 4.24717
H 14.7488 -1.13709 4.68601
O 9.7543 -6.59005 2.45246
H 10.5201 -6.85262 1.86552
H 10.0616 -6.54958 3.40316
O 3.29097 12.5588 -3.92918
H 3.28906 11.6592 -4.36581
H 4.21614 12.7765 -3.61837
O -9.97041 8.59227 13.4331
H -9.81035 7.76912 13.9778
H -9.11344 8.88165 13.0067
O 9.36239 7.83908 3.47189
H 10.2385 7.95867 3.93889
H 9.00771 8.73205 3.19493
O 3.04868 3.62425 -2.21413
H 2.13908 3.52393 -2.61721
H 3.29763 4.59242 -2.19002
O 4.80409 7.59809 9.44598
H 3.83513 7.75075 9.25174
H 5.14925 8.33888 10.0222
O 4.84448 -3.18487 -14.4665
H 5.66984 -3.22367 -15.0297
H 5.02175 -3.62212 -13.5849
O 12.0212 2.54669 5.92135
H 11.2039 3.10123 6.07737
H 11.8405 1.60215 6.19538
O -13.5092 -14.7479 -1.2277
H -14.3212 14.959 -1.57947
H -12.9551 14.7782 -0.703385
O 7.72657 9.23094 -4.94085
H 8.05026 8.73547 -4.13484
H 7.97624 8.72432 -5.76603
O -7.95302 -0.662862 -10.8118
H -7.55175 0.252991 -10.8013
H -8.01832 -0.987411 -11.7553
O -4.59212 -10.7313 10.5977
H -5.25346 -10.3943 9.92766
H -3.74805 -10.9936 10.1301
O 4.69033 10.5779 -6.9024
H 5.22067 9.86264 -6.4473
H 4.53277 11.3324 -6.26537
O 7.03932 -9.81802 8.71551
H 7.4826 -9.44152 7.90208
H 6.04681 -9.74465 8.61833
O 5.52691 10.7915 4.47315
H 5.22033 11.3784 3.72383
H 4.74307 10.3023 4.85541
O 5.55207 -8.22826 -6.19779
H 5.03941 -9.07922 -6.084
H 6.28477 -8.18719 -5.51853
O 12.1144 12.351 -13.5679
H 11.561 11.5661 -13.8463
H 12.4958 12.7945 -14.379
O -11.0571 -14.9898 11.5105
H -10.2363 14.8211 11.0684
H -11.7909 -14.9093 10.8361
O -14.1454 3.55813 0.927256
H -13.6268 2.73845 0.684242
H -14.3601 3.53937 1.90371
O -14.8693 14.7083 7.74263
H -14.5921 -14.93 6.94417
H 14.9262 13.8321 7.44271
O 10.5745 -11.1862 3.06314
H 11.2989 -10.6026 2.69618
H 10.5406 -12.0408 2.5451
O 13.6164 -6.06122 6.82865
H 14.0113 -5.14255 6.8336
H 14.13 -6.64817 7.45444
O -8.39808 5.70259 0.126417
H -8.89329 6.57045 0.165156
H -7.74782 5.7235 -0.632956
O 1.1821 -5.33943 -7.13203
H 1.17682 -5.7752 -6.23203
H 2.08365 -4.94297 -7.30509
O 14.1403 -14.5436 -11.7671
H 14.2954 14.9416 -11.0577
H 13.3261 -14.7865 -12.2943
O -8.78416 4.10013 -8.17777
H -8.35967 4.64676 -8.89952
H -9.77572 4.22699 -8.2031
O -11.1997 -13.7338 4.69068
H -10.3835 -13.5878 5.24969
H -11.9514 -13.179 5.04712
O 9.81706 4.14701 6.81803
H 9.75392 4.56357 7.7249
H 9.95338 4.86148 6.13183
O -11.7762 -8.79691 -12.768
H -10.9219 -8.27824 -12.7371
H -12.5505 -8.16868 -12.692
O 5.0054 4.38078 3.23928
H 4.45897 4.33536 2.40306
H 4.69997 3.67272 3.87589
O 14.0627 14.1034 -1.88059
H 13.4762 14.9131 -1.8603
H 14.1033 13.7446 -2.81305
O 4.50558 10.6617 -9.843
H 3.96283 9.84818 -10.0518
H 4.58647 10.7629 -8.85148
O -6.84262 10.6134 6.90924
H -6.02296 10.6783 7.47831
H -7.55452 10.1167 7.40564
O 3.11721 -3.68536 -4.95562
H 2.32516 -4.18251 -4.60148
H 3.71819 -4.31921 -5.44241
O -15.0801 -7.17087 11.2886
H 15.0272 -7.95625 11.9041
H 14.2018 -6.7207 11.2269
O -8.66971 -2.71178 1.85171
H -8.80361 -1.73736 1.67143
H -7.6968 -2.93264 1.78405
O 4.60499 0.281004 11.8766
H 5.43543 0.537432 12.3711
H 4.56132 -0.714424 11.7922
O 10.2833 -13.7119 1.71986
H 11.0552 -14.343 1.64401
H 9.67293 -13.8363 0.937629
O -12.6661 1.02039 -1.89369
H -12.4441 1.95651 -2.16627
H -13.6581 0.922822 -1.81393
O -3.03561 1.02246 6.55099
H -2.28864 1.68663 6.52204
H -2.71003 0.139733 6.21231
O 9.92198 5.53886 -10.3371
H 10.1563 4.89257 -9.61099
H 8.96453 5.41478 -10.5976
O -0.701404 -8.12005 0.298713
H -0.835692 -9.10004 0.445344
H 0.0207635 -7.98028 -0.378673
O -6.15673 5.21337 12.7663
H -6.54012 4.44772 12.2498
H -6.21119 6.04681 12.2164
O 2.51675 -10.9535 1.50426
H 2.05567 -11.8404 1.4787
H 2.05601 -10.3571 2.16152
O 3.28121 -14.5488 15.0061
H 3.2698 -14.115 -14.2656
H 3.79836 -13.9784 14.3681
O 5.73272 -1.62382 -7.21845
H 5.77225 -1.19267 -8.11982
H 6.37682 -1.16948 -6.60312
O -13.0875 0.0740758 1.92774
H -12.7634 0.0731368 2.87372
H -13.8734 -0.538452 1.84409
O 10.3204 11.9361 12.8752
H 9.48704 11.6431 12.4066
H 10.9679 12.3014 12.2065
O 7.9904 9.12635 13.2472
H 7.25318 8.46609 13.104
H 7.65037 9.89264 13.7922
O -6.25501 12.0867 12.4023
H -5.39098 12.2417 12.8812
H -6.18763 12.4417 11.4699
O 3.38355 7.77668 -3.58296
H 3.99385 8.5636 -3.67361
H 3.48351 7.38077 -2.67017
O 10.1843 -11.6009 -7.42691
H 10.5867 -10.7821 -7.0176
H 10.3791 -11.6134 -8.40764
O -2.77208 5.54028 13.5591
H -2.89614 4.65344 14.0041
H -3.2412 5.53858 12.676
O 14.8368 -9.19136 13.209
H 14.611 -8.4901 13.8852
H 14.6564 -10.0963 13.5944
O 3.14994 9.95948 14.1547
H 2.70273 10.4644 13.4165
H 2.56107 9.20631 14.4478
O -3.8563 -9.11795 -5.04641
H -3.64896 -10.0467 -4.73932
H -3.24038 -8.86869 -5.7937
O 14.8784 0.588921 7.48767
H -14.5363 1.15541 7.1644
H 14.4201 0.167282 6.70528
O -4.75959 -3.29195 5.32602
H -4.27283 -2.64996 5.91833
H -4.91744 -2.86846 4.43403
O 4.98105 -2.4332 12.9461
H 5.65388 -2.81419 12.312
H 4.4785 -3.17758 13.3857
O 9.6242 -1.30293 -14.3052
H 10.3906 -1.02339 -14.8834
H 9.9257 -1.35233 -13.3531
O -3.28573 -1.19329 -13.9974
H -3.26159 -2.14633 -14.2992
H -2.39436 -0.939998 -13.6216
O 6.8932 -14.8091 13.1714
H 6.71113 15.0629 14.1075
H 7.07611 -13.826 13.1667
O -12.7834 7.65402 -8.10487
H -11.8413 7.98917 -8.09902
H -12.9813 7.2314 -8.98926
O 9.72059 8.18278 -12.5203
H 10.0357 7.88709 -13.422
H 9.18994 9.02531 -12.6124
O -3.30222 11.9352 -13.1158
H -3.27183 11.8204 -12.123
H -2.40082 12.2142 -13.4468
O -13.8757 -12.9094 -4.10392
H -13.3687 -12.05 -4.1706
H -13.7215 -13.3184 -3.20456
O 1.87579 -13.707 -9.53965
H 0.885332 -13.5961 -9.45834
H 2.17776 -14.4516 -8.94444
O -1.32017 3.48642 -10.3962
H -1.92756 3.5776 -9.6071
H -0.394379 3.27682 -10.0817
O 11.9617 -1.10436 10.3333
H 12.4556 -1.97241 10.283
H 11.0901 -1.18828 9.85048
O -5.51696 -0.889759 9.61323
H -6.19113 -0.895511 10.3517
H -5.2045 0.0467648 9.45447
O -7.96753 -13.3552 10.7818
H -7.28435 -14.0854 10.7851
H -8.39039 -13.2904 11.6856
O -3.38399 -12.7696 2.11759
H -3.55668 -12.926 3.09001
H -3.99191 -13.348 1.5738
O -8.9664 1.53814 -7.31778
H -8.04444 1.20655 -7.11788
H -8.91258 2.45629 -7.71024
O -4.29734 8.94581 4.5934
H -4.11797 9.90855 4.39119
H -5.19528 8.85747 5.02447
O -14.9681 4.63938 -6.15574
H -14.2324 5.07675 -5.63876
H -14.6393 3.77583 -6.5379
O 13.2869 13.6524 14.3129
H 12.5766 13.2093 13.766
H 13.4333 14.5832 13.978
O 1.07247 11.206 9.57532
H 1.73309 10.5506 9.20921
H 1.25776 11.3591 10.546
O 8.64245 2.28419 -9.14751
H 8.25727 1.94586 -10.0061
H 9.47427 1.77316 -8.93112
O 3.61448 8.01045 1.92926
H 3.91436 8.93868 1.7093
H 4.00942 7.7312 2.80445
O 14.3278 -3.5357 10.8452
H -14.869 -3.58264 11.0584
H 13.9902 -4.45095 10.6255
O 14.1896 -3.42622 -4.94178
H -15.0181 -3.47176 -4.68325
H 14.032 -4.00205 -5.74395
O 13.6595 -10.245 -13.0569
H 14.1982 -9.53108 -12.6095
H 13.0188 -9.82543 -13.6998
O -10.2421 14.369 8.31683
H -9.69996 14.1231 9.12027
H -10.2432 -14.8097 8.20687
O 5.96457 -5.78495 12.8784
H 5.04817 -5.51224 12.5856
H 5.93764 -6.06813 13.837
O -6.31141 -4.28741 1.31443
H -6.86503 -4.924 0.777601
H -6.13067 -4.68108 2.21569
O 7.80804 0.299686 9.92138
H 7.8886 0.963661 10.6647
H 7.28667 0.702889 9.16937
O 14.2023 9.5985 7.49714
H 13.3886 9.20748 7.92715
H 13.9265 10.2021 6.74909
O 5.70158 2.5004 10.327
H 5.26851 1.72246 10.7821
H 5.96748 2.23807 9.39939
O 9.58385 8.39925 -9.08338
H 9.52665 7.68958 -9.78553
H 9.15957 8.06893 -8.2403
O -8.21605 5.50365 -3.42199
H -7.95932 5.78414 -4.34684
H -7.59302 5.92273 -2.76159
O 5.20822 -5.52261 -6.00455
H 5.20066 -6.52229 -6.02649
H 5.75329 -5.21042 -5.2265
O 1.90636 10.4156 -6.07576
H 1.52626 9.49447 -6.15962
H 2.80406 10.4469 -6.51515
O 3.17435 -1.16006 -6.2618
H 3.05403 -1.75632 -5.46812
H 4.11647 -1.22803 -6.58996
O -7.30445 9.71815 -0.31969
H -8.02845 9.0645 -0.0994975
H -7.15653 9.73107 -1.30856
O -14.1903 -10.458 2.59434
H -13.3493 -10.9005 2.28314
H -14.7269 -10.1674 1.80213
O 2.55314 -14.2532 -3.32197
H 1.79496 -14.0292 -3.93426
H 3.35672 -14.5007 -3.86322
O -11.6745 -11.1698 -0.200622
H -11.4349 -10.2308 -0.447294
H -11.6911 -11.7369 -1.02408
O 11.8682 -0.101412 7.11333
H 11.0061 -0.390262 7.52965
H 12.6331 -0.44692 7.65691
O -10.8867 -4.07316 -5.24335
H -10.8431 -4.64762 -6.06067
H -10.3614 -3.23609 -5.39585
O 13.747 0.940877 -8.73615
H 14.4595 0.240289 -8.77373
H 13.5994 1.21552 -7.78604
O -1.8382 -13.153 7.17302
H -1.8265 -12.6262 8.02287
H -0.917468 -13.4905 6.97736
O -2.00985 12.9114 11.7593
H -1.10576 13.3126 11.6122
H -2.64918 13.2727 11.0806
O -9.49524 8.17941 5.25305
H -10.0432 8.56241 4.50946
H -9.95772 8.34024 6.12492
O -6.66937 11.0422 -10.6798
H -6.51302 11.2757 -11.6395
H -6.68991 11.8788 -10.1324
O -12.4659 13.0585 -9.61324
H -11.5835 13.059 -9.14281
H -12.3551 13.4423 -10.5299
O 8.81721 -12.0004 -12.3611
H 9.12355 -12.6545 -13.0526
H 8.89966 -11.0713 -12.7215
O 3.65342 -7.63087 10.3871
H 3.84879 -6.69216 10.671
H 3.90865 -8.26082 11.1205
O 13.5457 5.63949 -8.91845
H 12.9452 6.37555 -9.23077
H 14.4463 6.01455 -8.69901
O -7.13504 -6.70105 9.51148
H -6.19455 -6.47585 9.25717
H -7.15516 -7.59777 9.95354
O -3.47127 13.9236 9.5324
H -2.53351 14.2137 9.34171
H -3.89772 13.5985 8.6884
O 0.375245 11.5219 -10.0364
H 0.774018 12.073 -9.30345
H 0.22102 12.0971 -10.8397
O 4.79839 3.86364 -8.87166
H 5.61447 4.41746 -9.03661
H 4.04012 4.2158 -9.42023
O -3.38576 -7.00103 3.67316
H -2.89984 -6.8399 4.53213
H -3.70768 -7.94732 3.64477
O -11.285 9.46961 -13.1527
H -11.213 9.72081 -14.118
H -11.283 10.2974 -12.5918
O 3.55547 -7.66302 -3.34905
H 4.41151 -8.15618 -3.50368
H 3.5819 -7.22269 -2.45166
O 12.5785 7.02293 -0.514792
H 13.2907 7.21642 0.159885
H 11.7947 7.62255 -0.353338
O 0.642761 -8.32016 -9.64376
H 1.38076 -8.77757 -10.1398
H 0.496296 -8.77848 -8.76717
O -12.7293 -13.9845 9.28915
H -13.32 -14.3421 8.56586
H -12.3374 -13.1117 8.99833
O 8.93378 -14.8079 8.11862
H 8.69056 -14.706 9.08318
H 9.86017 -14.4619 7.97015
O 2.19738 -4.82589 6.46854
H 3.09442 -5.22431 6.65957
H 1.94591 -5.01101 5.51859
O -5.71776 -8.94003 -14.5065
H -4.78134 -8.86649 -14.1635
H -5.70327 -9.29183 14.7303
O 7.0416 -4.31405 -10.1012
H 7.3663 -4.90956 -9.36645
H 7.55646 -3.45693 -10.0876
O 4.97221 10.1699 -3.57217
H 5.86347 9.88859 -3.92774
H 5.0721 10.4736 -2.62468
O 2.30234 -7.37486 13.4138
H 1.3626 -7.67079 13.5848
H 2.70279 -7.02986 14.2627
O -1.03497 -7.71366 -5.0085
H -1.22487 -7.96631 -4.05981
H -1.32177 -6.76867 -5.16556
O -6.26926 1.73262 -6.28993
H -5.39839 1.63794 -5.8077
H -6.47642 2.70267 -6.41648
O -6.98616 5.2684 -10.4629
H -6.072 5.28183 -10.0579
H -7.13773 6.11573 -10.9718
O 11.8954 -0.712171 14.7833
H 12.4824 -0.733702 -14.5801
H 12.3605 -1.16421 14.0221
O -4.20089 6.19006 1.30211
H -5.11736 5.90144 1.57904
H -4.26652 7.01593 0.742157
O 14.8279 -0.0336768 -1.78294
H 14.2833 -0.281088 -2.58428
H 14.7583 -0.75731 -1.09634
O 3.88217 12.6669 2.66365
H 3.32475 13.1579 3.33312
H 4.05159 13.2569 1.87425
O -6.93857 4.60799 -6.39061
H -6.73202 5.58624 -6.37437
H -7.72247 4.44274 -6.98903
O -12.5598 -6.98154 -6.88711
H -11.9198 -6.31676 -7.27233
H -13.4966 -6.6578 -7.01959
O -9.63344 -2.6992 4.42902
H -9.33603 -2.55372 3.48547
H -9.82375 -3.67033 4.57254
O 14.7349 11.2929 2.94002
H -14.9186 12.1474 2.95609
H -14.8059 10.5202 2.87947
O 11.1418 -13.0361 -5.37569
H 11.0458 -12.515 -6.22371
H 10.8997 -13.9919 -5.54257
O -2.94196 13.7547 -1.75998
H -2.19288 13.2808 -1.29715
H -3.68435 13.1093 -1.93939
O 6.6472 -9.65834 5.11078
H 5.74012 -9.97102 4.8291
H 7.17421 -10.434 5.45793
O -0.283846 -7.09687 15.0721
H -1.22384 -7.43012 14.9995
H -0.103868 -6.80942 -14.1599
O 11.7525 7.40105 -10.7819
H 11.3374 6.57376 -10.4034
H 11.0432 7.96824 -11.2005
O -6.73054 13.9018 2.74006
H -6.30336 14.7911 2.57726
H -6.88819 13.7822 3.72025
O -4.0502 -15.0682 13.5826
H -3.93949 14.1183 13.4594
H -4.65233 -14.7088 12.8698
O 7.64387 6.12174 -12.5748
H 7.81796 5.59244 -13.4052
H 8.37752 6.78864 -12.4447
O -3.25587 -5.36126 -6.27017
H -3.60624 -5.03001 -5.39414
H -3.32934 -4.63572 -6.95435
O 9.40956 -10.1778 -2.53176
H 8.98099 -9.86488 -1.68423
H 10.4017 -10.0751 -2.46122
O 6.80878 7.41085 1.99255
H 6.47154 8.35215 1.98112
H 7.43837 7.29167 2.76023
O -12.9692 -1.04682 10.9914
H -13.8669 -0.623707 10.8691
H -12.4873 -1.06536 10.1155
O -8.65967 -7.86471 -4.51024
H -8.45218 -7.92893 -3.53416
H -8.26074 -8.64735 -4.98799
O -10.4113 14.7884 -6.74165
H -10.6171 14.2216 -5.944
H -9.51748 14.5333 -7.11025
O 11.9532 8.92404 -7.9972
H 11.2117 8.52858 -8.5391
H 12.7462 9.08481 -8.5847
O 8.36465 -14.0326 -0.543935
H 8.43567 -15.024 -0.653467
H 8.72474 -13.5804 -1.35992
O -3.78429 -10.4424 6.56595
H -3.50328 -10.817 7.44948
H -4.53628 -9.7974 6.70138
O 10.9365 -13.9418 11.4263
H 10.8796 -13.1242 10.8533
H 11.8749 -14.0556 11.7523
O 9.68856 -6.89066 -3.59838
H 10.0942 -6.21166 -2.98658
H 10.3505 -7.14024 -4.30508
O -0.872593 -10.7519 0.733346
H -0.457033 -11.5307 1.20318
H -1.5937 -11.0776 0.121918
O 6.88319 -12.1143 -9.61132
H 7.45094 -11.3101 -9.43571
H 7.22098 -12.5898 -10.4235
O -1.42513 -8.78572 8.45054
H -0.533958 -8.47242 8.12255
H -1.85033 -8.06582 8.99905
O -0.884815 11.5839 -4.8293
H -1.68777 12.0357 -5.21796
H -0.21787 12.2737 -4.54778
O 12.5612 -3.89917 -7.8397
H 13.3048 -3.45617 -8.34042
H 12.8445 -4.81853 -7.56683
O -0.163311 -3.66098 -12.0683
H 0.198667 -3.59338 -11.1386
H 0.463835 -3.2106 -12.7037
O -11.4083 -8.41791 8.67665
H -11.8017 -7.57333 9.0397
H -10.4164 -8.31732 8.5995
O -11.5666 -8.28255 -0.932453
H -12.0178 -7.70106 -0.25556
H -12.2549 -8.69574 -1.52868
O -2.66954 0.59623 -8.74361
H -2.38718 0.0468687 -9.52999
H -3.66571 0.682944 -8.73805
O -9.50018 -11.4086 -7.20921
H -10.1949 -10.6948 -7.12071
H -8.90854 -11.203 -7.98871
O 1.39609 10.1126 4.08949
H 2.22167 10.1357 4.65322
H 1.27623 9.19469 3.7114
O 3.62694 -5.90471 -14.7313
H 3.95044 -4.97912 -14.535
H 3.50947 -6.4056 -13.8739
O -14.54 -4.88967 -1.31902
H -14.8649 -5.21749 -0.431923
H -13.7044 -4.35551 -1.19134
O 14.9931 -8.11928 -0.660322
H 14.6107 -8.80845 -0.0448796
H -15.0488 -7.26262 -0.161356
O 0.0922691 -10.6853 -11.4287
H 0.559734 -10.9011 -10.5715
H -0.382913 -11.499 -11.7632
O 12.9293 -5.7427 11.3857
H 12.2054 -5.26589 10.8871
H 12.5608 -6.10703 12.2408
O 7.48467 -7.20501 6.3427
H 7.11429 -7.879 5.70358
H 8.44145 -7.02208 6.11681
O 12.8246 -4.52477 2.65293
H 12.3766 -4.66577 3.53573
H 12.4092 -3.74204 2.1896
O -6.0774 9.58442 -7.61831
H -6.79539 9.7911 -8.28291
H -5.38808 8.99817 -8.04384
O -5.64021 3.67617 9.80596
H -6.48086 3.44918 10.2976
H -5.13763 2.83663 9.59978
O -9.83162 -1.19354 6.73502
H -9.43736 -0.275423 6.69579
H -9.64982 -1.67134 5.87561
O -4.14256 10.357 7.73981
H -3.59651 10.5928 8.54362
H -3.80641 9.50054 7.3481
O -11.3433 -5.68872 9.87251
H -11.9119 -5.05551 10.3975
H -10.3845 -5.41434 9.94528
O -6.68131 -1.66021 13.3265
H -6.71027 -0.6771 13.507
H -7.40935 -1.90297 12.6855
O -13.89 2.44698 -7.68572
H -14.2265 1.62933 -7.21869
H -13.9555 2.3165 -8.67497
O 0.228095 3.75351 13.1146
H 1.03393 3.42388 12.6228
H 0.134411 4.73963 12.9779
O 4.10083 -9.75743 8.71611
H 3.87097 -9.65502 7.74833
H 3.92484 -8.89652 9.19338
O -6.74954 10.5129 -2.89047
H -6.10764 10.6551 -3.64388
H -7.6482 10.2747 -3.25873
O -9.17857 6.87673 -9.38029
H -9.51397 7.72675 -8.9742
H -9.37756 6.87429 -10.3602
O -12.2508 3.51748 4.38712
H -11.8522 3.01193 3.62199
H -12.2395 2.94497 5.20689
O 11.2162 0.953003 -1.837
H 10.5207 0.273715 -1.60284
H 12.0269 0.809282 -1.26953
O -6.56912 4.14982 -14.4666
H -6.56283 5.08878 -14.1227
H -6.20384 4.13327 14.7754
O 5.12407 -2.48744 8.23822
H 5.43821 -3.29448 7.73832
H 4.98204 -1.73292 7.59756
O -1.39425 10.3084 8.43335
H -0.582176 10.5731 8.95335
H -1.31892 9.34853 8.16335
O 6.90008 -4.62444 -1.08127
H 7.76051 -4.33272 -0.663568
H 6.85438 -4.28627 -2.0212
O -11.8427 10.1127 14.4457
H -11.8055 11.0215 14.0303
H -11.1077 9.54588 14.0736
O -5.5267 1.86202 -2.0819
H -5.36362 1.53061 -1.15266
H -6.12355 1.22103 -2.56442
O -8.92392 -7.91824 -10.6372
H -9.65298 -7.39934 -11.0835
H -8.17617 -8.06646 -11.2844
O -0.789824 13.0202 -0.283946
H -0.163141 13.7975 -0.339111
H -0.265833 12.1686 -0.28941
O -3.98271 -10.3574 -7.6305
H -4.5453 -10.678 -8.39249
H -3.82409 -9.37449 -7.72376
O -0.754187 2.86341 6.64025
H -0.252294 3.43785 5.9937
H -1.47559 3.40257 7.07476
O -1.42015 -2.5039 -8.4375
H -0.729023 -2.37948 -7.72562
H -1.34197 -1.76816 -9.11017
O -1.02602 -6.20114 -9.04355
H -0.532827 -5.42063 -8.65952
H -0.37049 -6.88778 -9.35776
O 8.95412 2.38184 12.7482
H 9.20203 2.86658 13.5869
H 9.71834 1.80607 12.4577
O 12.5786 -8.99068 2.66177
H 12.9677 -8.41003 3.37687
H 12.0955 -8.42158 1.99645
O 2.43798 6.42933 -9.41318
H 2.03085 6.08871 -10.2606
H 1.89693 6.11447 -8.6334
O -4.36599 10.3053 -14.9099
H -4.45372 9.33917 -14.6673
H -3.7989 10.7696 -14.2296
O -13.7168 -13.8132 3.17991
H -13.0311 -13.0962 3.05477
H -14.3073 -13.854 2.37396
O -6.92848 6.87802 -13.684
H -6.68767 7.43761 -12.891
H -6.3564 7.13833 -14.4617
O 4.49376 -6.76387 5.25151
H 4.24403 -7.03503 4.32198
H 5.26279 -6.12564 5.21727
O 8.03892 12.6062 9.85412
H 8.93681 12.3294 9.51192
H 8.03437 13.5925 10.0183
O 11.4067 -3.46405 5.2065
H 10.9925 -2.71652 4.68737
H 12.401 -3.35783 5.20801
O -7.16566 8.15156 2.14551
H -6.7754 8.69044 1.39903
H -7.05269 8.64547 3.0076
O -3.00235 0.829373 11.657
H -3.27725 0.837945 12.6184
H -2.21914 0.218849 11.5397
O 1.57088 8.1726 0.340718
H 0.664371 7.93862 0.692007
H 2.27 7.83299 0.969856
O 7.68424 12.6811 -9.50964
H 8.08813 11.8477 -9.88669
H 7.04119 13.0683 -10.1703
O -12.5535 -7.13031 13.7615
H -12.7382 -7.9807 14.2541
H -13.0093 -7.1548 12.8717
O 8.22727 -9.84131 2.67783
H 9.05442 -10.3307 2.95388
H 7.58903 -9.80529 3.44677
O -10.4558 -3.97702 -13.8014
H -9.51617 -3.64786 -13.7081
H -11.0915 -3.22929 -13.6097
O -13.6729 5.3775 -14.0458
H -13.6539 6.05785 -13.3133
H -13.1203 5.6997 -14.8144
O 8.74489 8.20787 6.70361
H 8.02724 7.77296 6.15979
H 9.6092 7.72542 6.56172
O -14.1771 -4.74361 -10.6895
H -14.3233 -5.65449 -11.0753
H -13.2117 -4.63248 -10.4539
O -4.672 -13.1918 7.7888
H -5.33951 -13.8668 7.47445
H -3.77622 -13.4014 7.39693
O -9.33307 -1.23618 14.5299
H -9.31094 -1.90052 -14.8957
H -8.81774 -1.59329 13.751
O 10.6402 -0.329906 -6.51546
H 10.2751 -1.25899 -6.57371
H 10.7503 0.0432927 -7.4366
O -11.837 -11.8275 2.25848
H -10.9595 -12.0327 2.69186
H -11.6947 -11.6523 1.28433
O -7.55534 -7.19182 13.2112
H -8.27351 -7.66448 13.7218
H -7.26962 -7.7569 12.4372
O 5.45832 5.9631 -0.11621
H 5.95879 5.23801 -0.589174
H 6.04221 6.36612 0.588451
O 7.83043 11.1987 -13.3976
H 8.62077 11.0437 -13.9902
H 8.08765 11.0255 -12.4469
O -8.74676 -12.0435 2.27363
H -8.91795 -12.7296 1.56662
H -8.62136 -11.1483 1.84597
O -11.4705 4.24196 -8.47001
H -12.1019 3.54451 -8.13133
H -11.9895 5.03504 -8.78866
O -2.73332 13.7552 2.01786
H -2.12928 13.4227 1.29366
H -2.2494 13.7315 2.8926
O 11.1354 4.79591 -12.9463
H 12.1033 5.03319 -13.0294
H 10.8056 5.05458 -12.0384
O -1.35705 -13.8948 4.21052
H -1.69854 -14.8339 4.24722
H -1.90796 -13.3161 4.81176
O -13.1545 6.63957 -4.95963
H -12.2922 6.18736 -4.73185
H -13.0454 7.15725 -5.80817
O -7.87593 -9.76284 0.952306
H -6.88327 -9.8291 0.851539
H -8.25999 -9.28511 0.162253
O 14.8408 8.37337 -7.55435
H -14.3638 8.17788 -7.71163
H 14.727 9.34396 -7.34243
O 3.76241 -9.33692 6.08219
H 3.478 -9.87891 5.29145
H 4.05758 -8.43158 5.77697
O -13.9574 -0.949882 -8.8687
H -13.1561 -1.13789 -8.30086
H -13.6716 -0.47858 -9.70301
O 6.62763 -4.99314 7.49244
H 6.61627 -5.06666 8.48962
H 6.93755 -5.85817 7.09797
O -4.25777 -9.51165 3.28988
H -4.36204 -9.85583 2.35683
H -3.46508 -9.94514 3.7184
O 9.05509 -13.9964 4.23863
H 9.00729 -14.8696 4.72364
H 9.54729 -14.1203 3.37705
O 14.755 13.0489 -9.51878
H 14.2574 12.6046 -10.2637
H -14.4341 12.947 -9.66762
O -14.5984 2.21414 -10.3572
H 14.8417 1.62101 -10.0232
H -14.9837 3.09203 -10.6413
O 14.4445 -11.394 14.6647
H 14.3123 -11.1389 -14.5502
H -14.8613 -11.8827 14.5665
O -9.47722 -5.15408 -2.83054
H -10.121 -4.62509 -3.38339
H -9.25463 -6.00688 -3.30288
O -6.38521 6.44178 -1.5196
H -5.55303 5.99198 -1.84374
H -6.19372 7.40632 -1.33822
O 14.8606 -1.86831 1.4944
H 15.0484 -2.35976 2.34478
H 14.0285 -1.3241 1.6007
O 5.99747 1.43133 -9.0836
H 6.71778 1.46487 -8.39081
H 5.5771 2.33438 -9.17132
O 13.0957 6.80009 -5.53724
H 13.6606 6.06692 -5.91565
H 12.979 7.51859 -6.22284
O -12.2694 3.00686 13.2702
H -11.5928 2.4852 13.7899
H -13.0479 3.22292 13.8593
O -12.9758 2.174 7.23881
H -13.1184 3.16348 7.21663
H -12.079 1.97535 7.63407
O -5.45071 -7.95171 -0.407053
H -5.9579 -7.37315 0.231653
H -5.66432 -7.67935 -1.3452
O -6.54845 -13.3954 3.79077
H -7.27341 -13.1005 3.16833
H -6.84989 -13.2713 4.7361
O 13.2405 -11.9396 -11.1896
H 13.4323 -11.2152 -11.8517
H 13.6999 -12.7811 -11.4738
O -13.6304 7.66067 12.8706
H -13.1432 6.83479 13.1541
H -13.0043 8.44012 12.8895
O 15.0649 4.48323 -11.8246
H -14.4251 4.45273 -12.5547
H 14.4098 5.21528 -12.0112
O 9.86088 -11.6811 10.2096
H 10.1066 -10.7612 10.5154
H 9.32761 -11.6205 9.36592
O -1.58232 3.1008 10.9706
H -0.742136 3.19725 11.5042
H -2.08293 2.2925 11.2804
O -1.89236 -12.2769 -4.18036
H -1.65966 -13.1922 -3.85163
H -1.35557 -11.5969 -3.68097
O -0.373764 12.3048 -13.8884
H 0.599151 12.4976 -13.7612
H -0.723467 12.8455 -14.6534
O 2.21078 9.27658 -9.96611
H 1.46403 9.87635 -9.6788
H 1.96838 8.32608 -9.77193
O -0.950595 7.48628 -8.68479
H -1.27606 8.4282 -8.60236
H -1.7139 6.89056 -8.93455
O 14.5417 7.03304 10.8669
H -14.8218 7.36796 11.3496
H 14.6008 6.03991 10.7664
O -0.728237 8.95206 11.2876
H -1.41987 9.22114 10.6174
H -1.03874 9.2005 12.2051
O 3.91227 10.5246 8.47966
H 3.9363 10.3884 9.47001
H 4.4055 11.3626 8.2464
O -3.21072 8.85344 -11.1986
H -2.61108 9.45213 -10.6677
H -2.65635 8.21631 -11.734
O 10.6461 -12.7151 -10.3556
H 11.5104 -12.4469 -10.7811
H 9.88465 -12.4164 -10.9309
O -4.46179 4.8384 -2.60702
H -3.55288 4.70158 -2.21323
H -4.96173 3.97241 -2.60032
O -4.35526 -6.0467 8.73928
H -3.72597 -6.21286 9.49842
H -3.88512 -5.53037 8.02354
O -4.60564 0.741357 14.3737
H -5.53853 0.467333 14.1401
H -4.08337 -0.0626215 14.6578
O -6.13916 4.9893 5.33441
H -5.74244 4.56705 4.51941
H -6.96965 5.48572 5.0819
O -3.91917 1.49854 9.07642
H -3.1862 1.47345 9.75615
H -3.52798 1.40569 8.16085
O 10.8994 0.652096 12.3291
H 11.2854 0.521287 13.2422
H 11.3631 0.0476195 11.6814
O 10.7007 11.0498 -2.92303
H 10.688 10.0664 -3.10374
H 10.0934 11.5149 -3.56704
O 8.16854 13.5957 -0.839289
H 7.94483 12.7521 -0.351153
H 8.83174 13.3973 -1.56091
O -11.1323 14.5708 -4.01
H -10.9268 13.6327 -3.73116
H -12.1067 14.6503 -4.21994
O -2.72575 -7.96546 -14.0253
H -2.2752 -7.8855 -13.1361
H -3.51763 -7.35552 -14.0537
O 3.98341 -14.1695 8.68903
H 4.76316 -13.7717 8.20563
H 4.30498 -14.6374 9.51221
O -3.5872 3.27235 14.8271
H -3.24305 3.24624 -14.407
H -3.85781 2.35179 14.5456
O -8.38954 -14.1068 -11.5896
H -8.15393 -13.7186 -12.4805
H -8.60377 -13.3684 -10.9504
O -9.72985 5.26072 6.20651
H -9.43311 4.65241 5.47043
H -9.72609 6.20579 5.8798
O 5.84662 12.1227 11.3506
H 6.68025 12.124 10.7983
H 6.08274 12.271 12.3109
O -4.5338 8.52258 -1.06403
H -3.86865 8.35678 -1.79204
H -4.59343 9.50445 -0.884329
O -12.6883 -10.4784 -4.32157
H -13.0329 -9.65485 -3.87108
H -12.3213 -10.238 -5.22011
O 9.78102 -4.24948 7.6937
H 8.82384 -4.44541 7.48078
H 10.2597 -3.97906 6.85842
O -12.5547 13.3505 -13.4008
H -13.1118 13.0221 -14.1635
H -12.5925 14.3491 -13.3662
O -7.74715 -3.29742 -13.9855
H -6.94648 -3.16948 -13.4003
H -7.51286 -3.90774 -14.7422
O -10.498 -12.6321 13.6766
H -10.4769 -13.6318 13.6623
H -10.6079 -12.2877 12.7443
O -6.85667 -8.90797 11.3223
H -6.08313 -9.4749 11.6054
H -7.59212 -9.49364 10.9817
O 9.0247 -3.44171 3.33024
H 9.55248 -4.17702 3.75529
H 8.17018 -3.31122 3.83291
O -4.24772 7.76578 -8.91103
H -3.97759 8.27212 -9.72992
H -4.38542 6.80328 -9.1446
O -6.64463 4.36117 1.8074
H -7.18224 5.02976 1.2937
H -6.30801 3.6549 1.18468
O 11.0258 6.84154 5.90108
H 11.3746 6.58011 6.80105
H 11.6717 7.4659 5.46182
O 12.4019 -13.634 4.33773
H 13.0576 -12.8807 4.38735
H 11.488 -13.2693 4.15977
O 13.0387 1.15373 -6.16062
H 12.1091 0.786105 -6.13611
H 13.0086 2.14492 -6.03198
O -14.8755 -6.21587 -3.94446
H -14.2043 -5.82165 -4.5721
H -14.7714 -5.80017 -3.04098
O 7.80593 4.68751 -14.9003
H 7.11374 4.00199 -14.6748
H 8.7123 4.26569 -14.8785
O 1.48744 -11.3614 -7.69972
H 1.23156 -11.9926 -8.4319
H 0.663384 -10.9461 -7.3146
O 7.70913 -8.36096 -4.43952
H 8.52381 -7.8794 -4.11655
H 7.38417 -8.98177 -3.72613
O -1.57724 -8.14657 -11.6719
H -1.23272 -9.00204 -11.2854
H -0.878266 -7.43666 -11.586
O -0.0776357 9.10322 -3.39327
H -0.385423 9.94306 -3.84032
H 0.300055 8.48021 -4.0782
O 3.75518 4.63605 11.6386
H 3.34268 5.48373 11.9721
H 4.65173 4.51193 12.0637
O -10.1444 4.47627 -11.7352
H -9.87887 5.23512 -12.3298
H -10.0309 4.74646 -10.7792
O 7.40747 -11.9881 13.5699
H 8.33485 -12.2935 13.7858
H 7.16265 -11.221 14.1627
O -4.51241 -7.26045 -3.21787
H -4.2011 -8.10082 -3.66148
H -4.37964 -6.48732 -3.83801
O -0.15787 -2.56201 13.4451
H -0.883384 -1.88049 13.5404
H 0.602947 -2.1689 12.9288
O 14.1519 7.85132 1.67665
H 14.3473 6.99128 2.1479
H 13.5407 8.40815 2.23903
O 2.87035 -6.01631 -10.5538
H 3.29242 -5.73064 -9.69347
H 2.83466 -7.0149 -10.5921
O -3.95812 -12.7747 4.724
H -4.9491 -12.8745 4.63506
H -3.75344 -12.0962 5.42941
O 5.10684 -14.6593 -4.41708
H 5.3801 14.8931 -3.68184
H 5.7092 -13.8611 -4.42096
O 8.32055 -9.76217 0.0539663
H 7.53264 -10.3603 -0.0920652
H 8.57007 -9.77006 1.02226
O 5.87177 -12.7335 -13.4922
H 5.63461 -13.5958 -13.9396
H 6.57549 -12.899 -12.8014
O 8.53065 -0.409851 -1.35056
H 8.58705 -0.699083 -2.30611
H 7.80335 0.269037 -1.2502
O -0.535471 -0.698439 -13.2072
H -0.318723 0.198248 -13.5931
H 0.20029 -1.34054 -13.4224
O 6.44819 7.09044 11.973
H 6.88085 6.80436 11.1181
H 6.07358 6.29012 12.4411
O 8.52145 0.726762 3.68238
H 8.26325 1.67969 3.5237
H 8.59318 0.250529 2.80604
O 14.6301 2.07154 12.185
H 14.9166 1.40032 11.5014
H 14.8372 2.9925 11.855
O 8.4328 -9.53897 -9.33245
H 7.67116 -9.54874 -8.68459
H 9.26144 -9.22662 -8.86801
O -5.25237 -11.2261 -9.76842
H -5.03004 -12.1964 -9.86324
H -6.24183 -11.1021 -9.84255
O 6.33102 1.11497 7.89357
H 6.91283 1.76728 7.40787
H 5.81234 0.573844 7.2317
O -14.9931 3.80461 3.80606
H -14.073 3.42055 3.88188
H 14.5091 3.06288 3.78957
O -10.5539 10.598 0.953691
H -9.79928 10.9299 1.51964
H -11.103 11.3734 0.642065
O 3.86816 -4.43139 -8.22082
H 4.23865 -3.51992 -8.39934
H 4.18939 -4.75318 -7.33021
O 3.15669 -7.1869 2.8585
H 2.4754 -7.88148 3.08941
H 3.76127 -7.53779 2.14346
O -12.9806 -4.09314 11.4584
H -12.8135 -3.22743 10.9866
H -12.5495 -4.0698 12.3603
O 7.31314 -6.99176 2.20369
H 7.17449 -7.85223 1.71351
H 8.27483 -6.90798 2.46453
O 3.51075 -13.9098 4.25717
H 3.16294 -14.2995 3.40447
H 4.14034 -14.557 4.68696
O -4.45139 -14.789 0.483705
H -3.87176 14.7003 0.927478
H -5.14951 14.9232 -0.064519
O -10.6779 0.365027 11.9514
H -10.5863 0.367508 12.9471
H -11.5003 -0.142101 11.6936
O -3.05556 -7.56561 -7.71817
H -2.32413 -7.2665 -8.33092
H -3.16038 -6.9035 -6.97618
O 1.03643 -13.4692 -5.69936
H 0.18026 -13.9521 -5.88293
H 0.836749 -12.5263 -5.43273
O 12.4374 3.64813 12.9509
H 13.0443 2.85385 12.9783
H 12.9619 4.47539 13.1521
O 8.05312 -11.9244 5.82226
H 8.51696 -12.4245 5.09111
H 7.40338 -12.5307 6.28067
O -2.8218 3.05798 -12.7642
H -3.55118 2.42608 -12.5022
H -2.17844 3.15745 -12.0052
O -10.943 0.298463 0.254588
H -11.4607 0.0754721 1.08052
H -11.5765 0.466767 -0.50058
O 10.8798 -4.7175 -1.83289
H 10.3032 -4.54138 -1.03508
H 11.5532 -3.98415 -1.92589
O -6.9413 -0.593763 3.71723
H -6.59625 -0.45996 4.64618
H -6.22649 -1.00585 3.1523
O 14.9827 -13.7945 0.751399
H 14.2357 -13.133 0.685957
H -14.5988 -13.7102 -0.0506674
O -8.37789 2.79267 -2.06052
H -8.29374 2.19913 -2.86086
H -8.33017 3.74911 -2.34838
O 9.82476 3.0732 -1.11191
H 10.4807 2.37479 -1.39816
H 10.108 3.45604 -0.232639
O -9.07573 5.45777 10.5248
H -9.93812 5.30053 10.0437
H -8.35111 5.63809 9.85975
O -8.85798 3.31656 4.34269
H -7.89352 3.54075 4.20317
H -9.31426 3.24106 3.45611
O 11.7538 5.45574 3.52414
H 11.0257 5.72494 4.15437
H 12.6423 5.6061 3.95764
O 10.2334 -10.7921 7.42119
H 9.46761 -11.3207 7.05505
H 10.5735 -10.1673 6.71835
O -1.35128 7.47001 -12.5487
H -0.97628 8.19551 -13.1257
H -0.74094 7.31256 -11.7724
O 12.2247 -9.44491 -2.15503
H 12.4149 -10.3996 -2.38361
H 12.9145 -9.11241 -1.51188
O 9.99047 10.8023 -14.7948
H 9.94409 11.2039 14.4633
H 10.5523 9.97549 -14.822
O 0.704147 -10.2316 -13.9604
H 0.273 -9.40536 -14.3228
H 0.531341 -10.2941 -12.9775
O -11.4476 -14.5508 -11.2172
H -11.2928 -14.0477 -10.367
H -10.659 15.037 -11.4067
O 1.20085 -14.5215 5.76544
H 2.10084 -14.1409 5.55297
H 0.513154 -14.1014 5.17339
O 12.9379 14.6117 1.2903
H 13.1892 14.222 2.17626
H 13.7235 -15.0778 0.903824
O 13.8185 11.96 -11.6871
H 14.2427 11.0559 -11.7379
H 13.2771 12.1211 -12.5122
O 6.56943 4.94183 -5.50101
H 7.27651 4.4472 -6.00627
H 6.89844 5.14367 -4.57855
O -7.83273 5.78506 8.25427
H -8.59647 5.69574 7.61502
H -7.14847 6.40564 7.87141
O 5.11387 4.51701 6.61787
H 4.46839 3.75575 6.67918
H 6.04149 4.15958 6.50988
O 8.65007 14.9769 10.7167
H 9.58014 -14.8895 10.9193
H 8.0779 -15.084 11.5291
O 8.42546 -4.57268 14.0137
H 7.71499 -5.09451 13.5417
H 8.01237 -3.78507 14.4708
O 2.44342 -13.982 1.73772
H 1.47354 -13.8009 1.57508
H 2.78302 -14.6224 1.04889
O -8.32575 11.3227 2.60641
H -7.85108 12.1863 2.77593
H -8.00386 10.6326 3.25457
O -7.61666 13.1197 5.32288
H -8.52681 13.0329 5.72788
H -7.16177 12.2292 5.33148
O -0.215041 6.51892 12.5651
H -1.02804 6.2934 13.1019
H -0.482537 7.05396 11.7638
O 9.49087 -9.43359 -13.3537
H 8.62042 -9.76372 -13.7188
H 9.31998 -8.69726 -12.6991
O 13.1351 -12.4666 -0.494848
H 12.3686 -13.0988 -0.607092
H 13.5608 -12.2977 -1.38377
O -5.81293 12.3616 -6.80154
H -5.67074 12.3904 -5.81216
H -5.67877 11.4269 -7.13045
O -14.1616 12.1407 -0.24905
H -14.8581 12.8386 -0.082341
H -14.5645 11.233 -0.131462
O -15.027 -2.78288 -12.521
H -14.9245 -3.52103 -11.8542
H 14.5689 -3.0938 -13.2764
O -3.28098 -10.885 -13.1126
H -3.56044 -11.3485 -13.9535
H -2.63795 -10.152 -13.334
O -3.23348 -2.94003 10.2772
H -3.4044 -3.20459 11.2263
H -3.98895 -2.37374 9.94786