LAMMPS data file via write_data, version 15 May 2015, timestep = 8008000

2611 atoms
6 atom types
1749 bonds
4 bond types
894 angles
3 angle types
44 dihedrals
3 dihedral types
10 impropers
1 improper types

-1.4894024127609969e+01 1.4894024127609969e+01 xlo xhi
-1.4894024127609969e+01 1.4894024127609969e+01 ylo yhi
-1.4894024127609969e+01 1.4894024127609969e+01 zlo zhi

Masses

1 15.9994
2 1.00794
3 12.0107
4 1.00794
5 12.0107
6 12.0107

Bond Coeffs # harmonic

1 1000 1
2 469 1.4
3 367 1.08
4 469 0.7

Angle Coeffs # harmonic

1 100 109.47
2 35 120
3 63 120

Dihedral Coeffs # opls

1 0 7.25 0 0
2 0 7.25 0 0
3 0 7.25 0 0

Improper Coeffs # cvff

1 2.5 -1 2

Atoms # full

331 111 1 -8.1999999999999995e-01 -1.4356781305221887e+01 -8.0351175691438197e+00 -1.0445193835319156e+01 -1 -1 1
2539 847 1 -8.1999999999999995e-01 -1.1422264436618308e+01 -1.2990128385064898e+01 -1.3025849749837484e+01 4 2 1
2541 847 2 4.0999999999999998e-01 -1.1400931307515034e+01 -1.2557628682786962e+01 -1.2124463146966043e+01 4 2 1
2540 847 2 4.0999999999999998e-01 -1.2309888080861647e+01 -1.3429571908699007e+01 -1.3163771953174292e+01 4 2 1
440 147 2 4.0999999999999998e-01 -1.3776739958399329e+01 -1.0478118752427838e+01 -1.2873128222291641e+01 2 0 2
439 147 1 -8.1999999999999995e-01 -1.4143697025148585e+01 -1.0379430349122821e+01 -1.1948135246079623e+01 2 0 2
584 195 2 4.0999999999999998e-01 -1.0565711922504615e+01 -1.2646203550561928e+01 -1.4512007875062087e+01 3 3 -1
2404 802 1 -8.1999999999999995e-01 -1.1594030480145182e+01 -1.1348257457826556e+01 -1.0974542758730228e+01 -2 3 1
452 151 2 4.0999999999999998e-01 -7.7896559539663706e+00 -9.6874379434215605e+00 -1.0934495145032182e+01 0 -1 -1
2452 818 1 -8.1999999999999995e-01 -6.9891916378720698e+00 -1.0871515360901086e+01 -1.0066772139620209e+01 2 4 0
2453 818 2 4.0999999999999998e-01 -6.4745801611748437e+00 -1.1664575288740222e+01 -1.0392716650294293e+01 2 4 0
332 111 2 4.0999999999999998e-01 -1.4255708624602686e+01 -8.8401581054803593e+00 -1.1029747479724884e+01 -1 -1 1
2406 802 2 4.0999999999999998e-01 -1.2578873103795573e+01 -1.1188316206649789e+01 -1.1041718933217361e+01 -2 3 1
2435 812 2 4.0999999999999998e-01 -8.3707760275696721e+00 -9.9902722847399517e+00 -1.3163144884848062e+01 3 3 1
2533 845 1 -8.1999999999999995e-01 -6.3889668528161856e+00 -1.4003761320991316e+01 -1.4658999361628684e+01 2 2 -1
737 246 2 4.0999999999999998e-01 -1.1918483963913513e+01 -1.3317329042825353e+01 -9.8304786033885101e+00 -2 1 0
2405 802 2 4.0999999999999998e-01 -1.1103194128229255e+01 -1.0590535126544719e+01 -1.1404595616943073e+01 -2 3 1
451 151 1 -8.1999999999999995e-01 -8.0691675022789298e+00 -9.0891696594359246e+00 -1.1685465990274469e+01 0 -1 -1
1643 548 2 4.0999999999999998e-01 -9.8685104272050950e+00 -1.4600264788253009e+01 -1.2795057712146928e+01 5 3 -1
1265 422 2 4.0999999999999998e-01 -1.1026460749175229e+01 -7.7609550054456049e+00 -1.1053643979384637e+01 1 -2 0
1264 422 1 -8.1999999999999995e-01 -1.0762577278837249e+01 -8.5695553308240040e+00 -1.1579514579821540e+01 1 -2 0
1266 422 2 4.0999999999999998e-01 -9.7653834729425011e+00 -8.6207817251500565e+00 -1.1634188820187475e+01 1 -2 0
453 151 2 4.0999999999999998e-01 -7.4405796669098150e+00 -8.3137478316815230e+00 -1.1745526216058780e+01 0 -1 -1
143 48 2 4.0999999999999998e-01 -1.4364956535943607e+01 -1.4890314723357832e+01 -1.2084526879952247e+01 2 -1 -1
736 246 1 -8.1999999999999995e-01 -1.2380863763835684e+01 -1.3823436825798643e+01 -9.1024204378413796e+00 -2 1 0
1516 506 1 -8.1999999999999995e-01 -8.3491359162300540e+00 -1.1616770821538346e+01 -7.5346928208088224e+00 3 1 0
374 125 2 4.0999999999999998e-01 -1.3062971314516956e+01 -8.3308680966610744e+00 -1.3038506835292583e+01 2 3 0
738 246 2 4.0999999999999998e-01 -1.2208759795502328e+01 -1.4802002276847341e+01 -9.2155513696340847e+00 -2 1 0
1518 506 2 4.0999999999999998e-01 -8.1491373937430875e+00 -1.1280265627007541e+01 -8.4548959149002627e+00 3 1 0
1019 340 2 4.0999999999999998e-01 -8.7994823685971930e+00 -8.6919500991401595e+00 -1.4610394528853782e+01 5 3 0
2226 742 2 4.0999999999999998e-01 -1.3704735494005597e+01 -1.3559927818764358e+01 -7.7203333964788925e+00 5 1 2
2101 701 1 -8.1999999999999995e-01 -1.3549200894453893e+01 -1.1178395029407810e+01 -1.4537495631282523e+01 2 3 -3
2434 812 1 -8.1999999999999995e-01 -8.2940780038473569e+00 -1.0370003494366870e+01 -1.4085061664103344e+01 3 3 1
1674 558 2 4.0999999999999998e-01 -5.5350990163421461e+00 -1.2739274565769030e+01 -8.0383822778227199e+00 -1 1 0
1862 621 2 4.0999999999999998e-01 -6.6686874389542155e+00 -1.4858354771560201e+01 -1.1043299453466460e+01 -1 0 -1
1018 340 1 -8.1999999999999995e-01 -8.6252541444740594e+00 -7.7224778188390841e+00 -1.4782954476327820e+01 5 3 0
333 111 2 4.0999999999999998e-01 -1.3798500454733865e+01 -8.1478319242474022e+00 -9.6232285985577555e+00 -1 -1 1
2454 818 2 4.0999999999999998e-01 -6.3710504101687064e+00 -1.0245517232419392e+01 -9.5913390566080281e+00 2 4 0
2436 812 2 4.0999999999999998e-01 -7.3369586740084243e+00 -1.0586168972456935e+01 -1.4277944873326041e+01 3 3 1
2573 858 2 4.0999999999999998e-01 -8.3910970454157052e+00 -7.9125963539868538e+00 -7.8080490371687992e+00 0 3 0
142 48 1 -8.1999999999999995e-01 -1.3790906343519602e+01 -1.4832134249189673e+01 -1.2901282865646433e+01 2 -1 -1
2041 681 1 -8.1999999999999995e-01 -1.0068062177962261e+01 -9.2592135669014883e+00 -7.7127622990458553e+00 -1 2 2
659 220 2 4.0999999999999998e-01 -1.2524564104538481e+01 -9.0197683247523095e+00 -7.4988967798791544e+00 2 1 0
375 125 2 4.0999999999999998e-01 -1.4206391620852754e+01 -7.5991900844698295e+00 -1.3946189325656897e+01 2 3 0
1823 608 2 4.0999999999999998e-01 -5.0410427181117434e+00 -1.2426747722048713e+01 -1.2132845049817607e+01 0 2 -1
1824 608 2 4.0999999999999998e-01 -6.3259511702442079e+00 -1.3296902859946522e+01 -1.2641264707467418e+01 0 2 -1
2042 681 2 4.0999999999999998e-01 -9.4858847188689470e+00 -1.0070181216210624e+01 -7.6543695440813071e+00 -1 2 2
1822 608 1 -8.1999999999999995e-01 -5.7417269263406254e+00 -1.3085078382741489e+01 -1.1857797199188333e+01 0 2 -1
658 220 1 -8.1999999999999995e-01 -1.3426042304947055e+01 -8.8109973377677040e+00 -7.8780545749880284e+00 2 1 0
399 133 2 4.0999999999999998e-01 -5.2722070239695551e+00 -1.0592090822281186e+01 -7.9046503317016716e+00 2 4 0
2574 858 2 4.0999999999999998e-01 -6.8348758052964307e+00 -8.3653869402223187e+00 -7.6085338254687240e+00 0 3 0
2396 799 2 4.0999999999999998e-01 -1.1479669578641136e+01 -1.3124883729687259e+01 -7.7905561231092841e+00 1 2 1
711 237 2 4.0999999999999998e-01 -1.3784015832548846e+01 -1.4269160953765679e+01 -1.4500490993299334e+01 0 -1 2
2572 858 1 -8.1999999999999995e-01 -7.4384875796093572e+00 -7.6202059270725506e+00 -7.8920245579729693e+00 0 3 0
373 125 1 -8.1999999999999995e-01 -1.3242597471940915e+01 -7.5849776085919745e+00 -1.3679904304979731e+01 2 3 0
397 133 1 -8.1999999999999995e-01 -5.6762474726774812e+00 -9.7160442302280039e+00 -7.6413964668454550e+00 2 4 0
2534 845 2 4.0999999999999998e-01 -7.0153443774132782e+00 -1.4783067556133126e+01 -1.4640510688074007e+01 2 2 -1
441 147 2 4.0999999999999998e-01 -1.4888522349894680e+01 -1.1032981832158043e+01 -1.1813544800043918e+01 2 0 2
585 195 2 4.0999999999999998e-01 -9.2877902572848825e+00 -1.1699509073220112e+01 -1.4882596629470610e+01 3 3 -1
1065 355 2 4.0999999999999998e-01 -9.9979442379371282e+00 -1.0694877939861644e+00 -1.4738352491167191e+01 -1 2 2
169 57 1 -8.1999999999999995e-01 -9.6176162941914516e+00 -4.3693468700663995e+00 -1.4795825256883816e+01 2 3 0
435 145 2 4.0999999999999998e-01 -1.4091364456850400e+01 -7.0933913311686441e+00 -7.8015313522623071e+00 1 1 1
431 144 2 4.0999999999999998e-01 -6.6476051516142540e+00 -2.1128640264830523e-01 -1.2185890026686685e+01 1 -1 -1
849 283 2 4.0999999999999998e-01 -5.6488926709128986e+00 -7.1275498103429191e+00 -8.9779725069447842e+00 4 0 4
1001 334 2 4.0999999999999998e-01 -1.3571652554053168e+01 -1.3461709867991623e-01 -9.1143638279327135e+00 2 -2 2
286 96 1 -8.1999999999999995e-01 -1.4153171247515200e+01 -4.3227797605014242e+00 -9.8362181283508683e+00 3 2 -1
303 101 2 4.0999999999999998e-01 -6.1562474611511142e+00 -2.0730672585174172e+00 -8.9756544940555827e+00 0 2 1
1578 526 2 4.0999999999999998e-01 -1.0753096220304929e+01 -2.4833935936163112e+00 -1.3800212950683425e+01 -1 -1 3
2589 863 2 4.0999999999999998e-01 -9.8487451423469974e+00 -2.5940224658726727e+00 -7.6345158234801005e+00 -3 1 -2
848 283 2 4.0999999999999998e-01 -6.0864613272369432e+00 -5.9324008934198780e+00 -1.0001106406032967e+01 4 0 4
2420 807 2 4.0999999999999998e-01 -7.3199443968725761e+00 -5.5328338690548513e+00 -1.3060671884816269e+01 4 -2 -2
847 283 1 -8.1999999999999995e-01 -5.5411785853333342e+00 -6.7649783409806279e+00 -9.9036876219993104e+00 4 0 4
1095 365 2 4.0999999999999998e-01 -1.0028838853526752e+01 -5.8304333011478580e+00 -8.1480168838524989e+00 5 6 1
1020 340 2 4.0999999999999998e-01 -7.8394892274881549e+00 -7.4235001039733914e+00 -1.4241479873070425e+01 5 3 0
600 200 2 4.0999999999999998e-01 -1.2827095671251049e+01 -7.1030348113225674e+00 -1.0417058580299248e+01 -1 -2 -2
768 256 2 4.0999999999999998e-01 -8.5060776250424404e+00 -4.1827173498129877e+00 -1.3654595181321742e+01 2 -2 2
2421 807 2 4.0999999999999998e-01 -5.9473509647337455e+00 -6.3725130452991152e+00 -1.3339197209330134e+01 4 -2 -2
2587 863 1 -8.1999999999999995e-01 -9.5311784249999576e+00 -2.8891211726607473e+00 -8.5356689860732597e+00 -3 1 -2
437 146 2 4.0999999999999998e-01 -1.1805667698051646e+01 -6.8182846293858574e+00 -1.4509124012058267e+01 1 2 -1
2419 807 1 -8.1999999999999995e-01 -6.9164090517649583e+00 -6.4467864844222031e+00 -1.3103785291143165e+01 4 -2 -2
907 303 1 -8.1999999999999995e-01 -1.3682613031693718e+01 -2.0907887930273326e+00 -1.3285255088889166e+01 0 -1 0
598 200 1 -8.1999999999999995e-01 -1.2341240477765890e+01 -6.2820270397778302e+00 -1.0117225502948521e+01 -1 -2 -2
288 96 2 4.0999999999999998e-01 -1.3766417310468341e+01 -3.6786142503821537e+00 -9.1763082335029758e+00 3 2 -1
714 238 2 4.0999999999999998e-01 -8.3990023941056791e+00 -5.0326083798125918e+00 -9.7705105055866248e+00 2 0 2
233 78 2 4.0999999999999998e-01 -1.0588465201558479e+01 -2.1355879112416254e+00 -1.1385246536551293e+01 -1 1 1
430 144 1 -8.1999999999999995e-01 -7.0515460268581860e+00 -1.1218073509446658e+00 -1.2097616406845439e+01 1 -1 -1
1094 365 2 4.0999999999999998e-01 -1.0885180826361992e+01 -5.8008886251816723e+00 -9.5381447998062505e+00 5 6 1
432 144 2 4.0999999999999998e-01 -7.0544536981542727e+00 -1.3932817152768440e+00 -1.1135170501617624e+01 1 -1 -1
1550 517 2 4.0999999999999998e-01 -1.3398562050334952e+01 -5.8255231115330322e+00 -1.2930312874852454e+01 2 -1 -2
909 303 2 4.0999999999999998e-01 -1.2861672029146675e+01 -1.5770707269324582e+00 -1.3534571181477089e+01 0 -1 0
2588 863 2 4.0999999999999998e-01 -9.8975853296577458e+00 -3.7974920713860385e+00 -8.7372060498624506e+00 -3 1 -2
2300 767 2 4.0999999999999998e-01 -7.3846738850244522e+00 -3.1233040179462677e+00 -8.4481160248052518e+00 2 0 0
1804 602 1 -8.1999999999999995e-01 -8.3072103187500819e+00 -1.1434434354455316e+00 -1.4499795384050525e+01 3 1 -2
712 238 1 -8.1999999999999995e-01 -7.5422671945448059e+00 -4.8195899964435291e+00 -1.0240230467308404e+01 2 0 2
599 200 2 4.0999999999999998e-01 -1.3001322949850065e+01 -5.5564257574440195e+00 -9.9227960242987123e+00 -1 -2 -2
46 16 1 -8.1999999999999995e-01 -1.3276723433187360e+01 -9.1382394367258613e-01 -1.0725234104349333e+01 0 2 3
1576 526 1 -8.1999999999999995e-01 -1.0827903356622741e+01 -2.6573103404661769e+00 -1.2818293537180992e+01 -1 -1 3
1806 602 2 4.0999999999999998e-01 -7.8482030157201272e+00 -1.2380843230995886e+00 -1.3616413114812598e+01 3 1 -2
1577 526 2 4.0999999999999998e-01 -1.0881278360931271e+01 -3.6428528558274209e+00 -1.2657464651822387e+01 -1 -1 3
1093 365 1 -8.1999999999999995e-01 -1.0073386556734619e+01 -5.4496704097953685e+00 -9.0716206941716564e+00 5 6 1
47 16 2 4.0999999999999998e-01 -1.3469286225439767e+01 -1.2216618362188338e+00 -1.1656987429403712e+01 0 2 3
767 256 2 4.0999999999999998e-01 -7.3052178189810633e+00 -3.2386468850290182e+00 -1.3077259114723189e+01 2 -2 2
48 16 2 4.0999999999999998e-01 -1.2324544816646606e+01 -1.1171206533411713e+00 -1.0497121756477256e+01 0 2 3
713 238 2 4.0999999999999998e-01 -7.7186916980000673e+00 -4.6996051134426082e+00 -1.1217208913163619e+01 2 0 2
232 78 1 -8.1999999999999995e-01 -1.0470122088882235e+01 -1.5699400923353100e+00 -1.0569129919027052e+01 -1 1 1
2299 767 1 -8.1999999999999995e-01 -6.5323767538484567e+00 -3.2538383618654478e+00 -7.9415992179203450e+00 2 0 0
908 303 2 4.0999999999999998e-01 -1.3441722363902970e+01 -3.0486574857861886e+00 -1.3128832037339913e+01 0 -1 0
301 101 1 -8.1999999999999995e-01 -5.6858154759521966e+00 -1.4705780785534728e+00 -9.6204097978915595e+00 0 2 1
766 256 1 -8.1999999999999995e-01 -7.8416129358235249e+00 -4.0671212122006786e+00 -1.2916263856865754e+01 2 -2 2
234 78 2 4.0999999999999998e-01 -9.7818702116796032e+00 -1.9840811549487700e+00 -9.9734744694206299e+00 -1 1 1
1551 517 2 4.0999999999999998e-01 -1.3687184994188149e+01 -4.7263396991621480e+00 -1.1757648045086684e+01 2 -1 -2
1549 517 1 -8.1999999999999995e-01 -1.3531805590338347e+01 -4.8534113627993403e+00 -1.2737300445105358e+01 2 -1 -2
2301 767 2 4.0999999999999998e-01 -6.4964975167385361e+00 -4.1872023919140524e+00 -7.5844533742266922e+00 2 0 0
2515 839 1 -8.1999999999999995e-01 -1.3048178268421399e+01 -1.0734593945695295e+01 -2.2774406607436486e+00 3 2 0
577 193 1 -8.1999999999999995e-01 -1.0254403968068726e+01 -1.1060288483980409e+01 -4.1331827129106351e+00 0 3 -2
579 193 2 4.0999999999999998e-01 -1.1246361135048138e+01 -1.1135893682561687e+01 -4.2347391183079761e+00 0 3 -2
2517 839 2 4.0999999999999998e-01 -1.4003311561453062e+01 -1.0441219162072365e+01 -2.3181890998017245e+00 3 2 0
2516 839 2 4.0999999999999998e-01 -1.2796340182299087e+01 -1.1170824685662627e+01 -3.1413209751839553e+00 3 2 0
2225 742 2 4.0999999999999998e-01 -1.4121284141176229e+01 -1.4737828295195795e+01 -6.6688164350045938e+00 5 1 2
1652 551 2 4.0999999999999998e-01 -1.1171087457693577e+01 -1.3575849868453645e+01 -5.6938535024412129e+00 -1 2 0
165 55 2 4.0999999999999998e-01 -1.2254623889455660e+01 -1.1743586162358289e+01 -5.7963287728315578e+00 0 0 1
578 193 2 4.0999999999999998e-01 -9.8748262135895164e+00 -1.1953846179306140e+01 -3.8934241742288265e+00 0 3 -2
2274 758 2 4.0999999999999998e-01 -7.4298452396736678e+00 -1.4651003768194682e+01 -6.7559461662760665e+00 1 1 2
1086 362 2 4.0999999999999998e-01 -1.3327969775654159e+01 -1.4820124204847104e+01 -3.1030642491342935e+00 0 2 2
1987 663 1 -8.1999999999999995e-01 -9.5862733006907472e+00 -8.4823219096870197e+00 -5.0302173302300037e+00 0 6 2
459 153 2 4.0999999999999998e-01 -1.1936675742726798e+01 -9.1982494139133966e+00 -1.7410535497991741e+00 2 1 0
457 153 1 -8.1999999999999995e-01 -1.1229489132492867e+01 -8.4926138987232669e+00 -1.7854887007415599e+00 2 1 0
458 153 2 4.0999999999999998e-01 -1.0329713734097627e+01 -8.9151385904043430e+00 -1.6764656975157290e+00 2 1 0
2043 681 2 4.0999999999999998e-01 -1.0051976277741938e+01 -8.7737171603533444e+00 -6.8386665562023801e+00 -1 2 2
1988 663 2 4.0999999999999998e-01 -9.9353740728317668e+00 -9.3606709628811782e+00 -4.7036587568181556e+00 0 6 2
163 55 1 -8.1999999999999995e-01 -1.2826694297424599e+01 -1.1489546177883316e+01 -5.0164518452254683e+00 0 0 1
164 55 2 4.0999999999999998e-01 -1.3785424857104031e+01 -1.1466454485936488e+01 -5.2998444991243883e+00 0 0 1
2326 776 1 -8.1999999999999995e-01 -6.8587529468087371e+00 -1.0323058792538134e+01 -5.1946103036109044e+00 4 -1 0
722 241 2 4.0999999999999998e-01 -5.6863808355324235e+00 -1.1568078680426567e+01 -4.8599607941314655e+00 0 1 -1
2327 776 2 4.0999999999999998e-01 -7.7738636287310818e+00 -1.0341515295337175e+01 -5.5974013664286364e+00 4 -1 0
2395 799 1 -8.1999999999999995e-01 -1.1199900446528098e+01 -1.2556568062604528e+01 -7.0167632249562493e+00 1 2 1
1989 663 2 4.0999999999999998e-01 -9.3390492735491009e+00 -7.9103209523193527e+00 -4.2481021748658634e+00 0 6 2
1517 506 2 4.0999999999999998e-01 -7.7802966485106309e+00 -1.2416129010375840e+01 -7.3411540001074984e+00 3 1 0
2328 776 2 4.0999999999999998e-01 -6.7957334137928491e+00 -9.5654139311490169e+00 -4.5449860727701648e+00 4 -1 0
1701 567 2 4.0999999999999998e-01 -1.2577438641932343e+01 -1.1014683291082825e+01 -7.0736805962751426e-01 2 -1 1
839 280 2 4.0999999999999998e-01 -6.2172718741578379e+00 -1.3458365947008097e+01 -8.3543758986899164e-01 -1 -2 -2
2262 754 2 4.0999999999999998e-01 -1.0556495768262039e+01 -1.0858203204860315e+01 -2.9656658506802103e-02 3 -2 -2
2273 758 2 4.0999999999999998e-01 -5.8676969372095407e+00 -1.4299756611374805e+01 -6.4350596176636259e+00 1 1 2
1651 551 1 -8.1999999999999995e-01 -1.0705178694214467e+01 -1.4261595465401083e+01 -5.1346658056347430e+00 -1 2 0
2272 758 1 -8.1999999999999995e-01 -6.7151145336234599e+00 -1.3956701038265088e+01 -6.8402820346731961e+00 1 1 2
1085 362 2 4.0999999999999998e-01 -1.2051469615468672e+01 -1.4730410248605773e+01 -4.1175340407011713e+00 0 2 2
398 133 2 4.0999999999999998e-01 -5.9615379277219294e+00 -9.7549229396192665e+00 -6.6837395743953785e+00 2 4 0
1882 628 1 -8.1999999999999995e-01 -9.2557814232525004e+00 -1.4777737722208645e+01 -2.8457646711446571e-02 2 2 -1
838 280 1 -8.1999999999999995e-01 -5.5923929545954909e+00 -1.4238839301184708e+01 -8.1552381228234339e-01 -1 -2 -2
276 92 2 4.0999999999999998e-01 -5.2517788704975619e+00 -9.1253486100202963e+00 -3.2658683730996056e+00 2 1 -1
2261 754 2 4.0999999999999998e-01 -8.9425520088772199e+00 -1.1106553642705148e+01 -1.7093025752224378e-02 3 -2 -2
2260 754 1 -8.1999999999999995e-01 -9.6721726256997211e+00 -1.0494848638417022e+01 -3.2283741004676969e-01 3 -2 -2
2224 742 1 -8.1999999999999995e-01 -1.4109887602880768e+01 -1.3750340496241343e+01 -6.8261277783792949e+00 5 1 2
350 117 2 4.0999999999999998e-01 -7.3075033322647407e+00 -7.7188927143133803e+00 -3.4971695460654946e+00 1 2 -2
349 117 1 -8.1999999999999995e-01 -6.4276786310399778e+00 -7.9902976003643715e+00 -3.8873705231088636e+00 1 2 -2
1653 551 2 4.0999999999999998e-01 -1.0025520430713510e+01 -1.4739601828083435e+01 -5.6910680668303524e+00 -1 2 0
660 220 2 4.0999999999999998e-01 -1.4134477057836872e+01 -9.1715540503073303e+00 -7.2713190823638962e+00 2 1 0
2397 799 2 4.0999999999999998e-01 -1.0300174629584422e+01 -1.2161209955494220e+01 -7.2016802921300433e+00 1 2 1
647 216 2 4.0999999999999998e-01 -8.3547521027155618e+00 -1.3400478927500631e+01 -4.5779276358707932e-02 1 4 -3
1588 530 1 -8.1999999999999995e-01 -1.3548202956058651e+01 -9.3950452900794446e-01 -4.0346692465765877e+00 -1 4 -1
1457 486 2 4.0999999999999998e-01 -7.1268116174590581e+00 -6.2149604986670450e+00 -7.1508016798091898e+00 7 -1 1
212 71 2 4.0999999999999998e-01 -1.2227899589976257e+01 -5.4103736154260034e+00 -4.5430958334621838e+00 3 4 0
1685 562 2 4.0999999999999998e-01 -9.9733311557859849e+00 -7.2281283018641709e+00 -6.0167055404021177e+00 2 -1 -3
1935 645 2 4.0999999999999998e-01 -6.1733086650356785e+00 -3.2226884890783261e+00 -3.4983805427722210e+00 2 0 -3
251 84 2 4.0999999999999998e-01 -8.2214240434709822e+00 -5.5866706781339026e-01 -1.8326272472619323e+00 -1 3 -1
1589 530 2 4.0999999999999998e-01 -1.3809388882062255e+01 -1.3640272237796331e+00 -3.1677371858241372e+00 -1 4 -1
433 145 1 -8.1999999999999995e-01 -1.4358474248175323e+01 -6.2285641067581778e+00 -7.3764018025428317e+00 1 1 1
871 291 1 -8.1999999999999995e-01 -1.3301661706232913e+01 -3.1852168020549048e+00 -7.3078863251810624e+00 1 1 -1
1779 593 2 4.0999999999999998e-01 -9.5696915929026289e+00 -6.1415115185882190e+00 -1.0185053569252744e-01 2 0 3
1456 486 1 -8.1999999999999995e-01 -6.8085986075714295e+00 -5.4751851718356992e+00 -6.5579426175801867e+00 7 -1 1
1277 426 2 4.0999999999999998e-01 -9.1368374387107281e+00 -5.8984817208322085e+00 -3.7934999712575355e+00 2 -4 1
1091 364 2 4.0999999999999998e-01 -1.4609654662566641e+01 -1.0941503647198836e+00 -5.4317964475370299e+00 0 -2 1
250 84 1 -8.1999999999999995e-01 -8.0028179373355322e+00 -5.5324291423622540e-01 -2.8084298906714960e+00 -1 3 -1
470 157 2 4.0999999999999998e-01 -5.2471536988639702e+00 -4.9310403746746569e+00 -1.7233379845586594e+00 -2 2 -3
1686 562 2 4.0999999999999998e-01 -9.6392397520612754e+00 -5.6297127218584162e+00 -6.0267459923083635e+00 2 -1 -3
2498 833 2 4.0999999999999998e-01 -1.1564496948552438e+01 -5.1271748816782221e+00 -2.4706995378426910e+00 4 -2 3
434 145 2 4.0999999999999998e-01 -1.3777672667930988e+01 -6.0546999375327761e+00 -6.5811347607330948e+00 1 1 1
2499 833 2 4.0999999999999998e-01 -1.1637882919891759e+01 -6.7560274386630379e+00 -2.5607220277653706e+00 4 -2 3
2064 688 2 4.0999999999999998e-01 -1.0580731067921258e+01 -2.9969387935792042e+00 -3.2193219644615034e-01 1 2 0
1111 371 1 -8.1999999999999995e-01 -1.4699619950849989e+01 -5.9038318780075425e+00 -3.0697912507833642e+00 3 1 -2
872 291 2 4.0999999999999998e-01 -1.3221151269189010e+01 -3.9701852012197651e+00 -6.6935968197281870e+00 1 1 -1
1278 426 2 4.0999999999999998e-01 -8.9967423073603925e+00 -6.4758652227720450e+00 -2.2724306652990105e+00 2 -4 1
252 84 2 4.0999999999999998e-01 -7.0161708841584502e+00 -6.6214133616137261e-01 -2.9295812138960979e+00 -1 3 -1
657 219 2 4.0999999999999998e-01 -9.5215074407040170e+00 -1.4605782551149034e+00 -3.2634109905462427e+00 2 6 -1
213 71 2 4.0999999999999998e-01 -1.1579680366897581e+01 -5.4713663043784866e+00 -6.0406745299826312e+00 3 4 0
1933 645 1 -8.1999999999999995e-01 -5.8341287271839999e+00 -3.7287525384650539e+00 -2.7053704141629407e+00 2 0 -3
211 71 1 -8.1999999999999995e-01 -1.2375552156780827e+01 -5.1864109527884441e+00 -5.5064485004724695e+00 3 4 0
2063 688 2 4.0999999999999998e-01 -1.2071978559379327e+01 -2.3989720843018318e+00 -6.1393725942582300e-01 1 2 0
809 270 2 4.0999999999999998e-01 -1.0717249254101777e+01 -5.3506452700259644e-01 -6.2367924811739801e+00 -4 3 -1
965 322 2 4.0999999999999998e-01 -6.7029027636453993e+00 -1.7351262785383099e+00 -5.0682253219830233e+00 -1 2 0
966 322 2 4.0999999999999998e-01 -6.4600674437565520e+00 -2.9617169073491851e+00 -6.1185379524367374e+00 -1 2 0
1777 593 1 -8.1999999999999995e-01 -8.7059733468421001e+00 -5.9412476183253595e+00 -5.6433735733371293e-01 2 0 3
964 322 1 -8.1999999999999995e-01 -6.6556749605250278e+00 -2.7292372290869551e+00 -5.1658051513735153e+00 -1 2 0
1458 486 2 4.0999999999999998e-01 -6.0379258820647213e+00 -5.7969335951822103e+00 -6.0078968216712756e+00 7 -1 1
2497 833 1 -8.1999999999999995e-01 -1.1982522945953484e+01 -5.9005692007750170e+00 -2.9472752175221046e+00 4 -2 3
656 219 2 4.0999999999999998e-01 -1.0829537032940213e+01 -2.2866732948911643e+00 -2.7406531426868259e+00 2 6 -1
351 117 2 4.0999999999999998e-01 -5.9945431263033431e+00 -7.1975821417198356e+00 -4.3163282752383338e+00 1 2 -2
1774 592 1 -8.1999999999999995e-01 -5.2175404679835182e+00 -9.3048363196095885e-01 -2.4767005409816569e+00 4 0 1
25 9 1 -8.1999999999999995e-01 -1.2998750666278186e+01 -5.3233638290711873e+00 -4.2601602096911861e-01 2 1 0
655 219 1 -8.1999999999999995e-01 -1.0206759752959639e+01 -2.1457790142841215e+00 -3.5102673591980551e+00 2 6 -1
2062 688 1 -8.1999999999999995e-01 -1.1179429052536547e+01 -2.5999724419587515e+00 -1.0176241851160839e+00 1 2 0
1092 364 2 4.0999999999999998e-01 -1.4632972228778183e+01 -2.1251037684715275e+00 -6.6979882006355815e+00 0 -2 1
808 270 1 -8.1999999999999995e-01 -1.0986629067965247e+01 -1.4736416480126842e+00 -6.0211158580029185e+00 -4 3 -1
1934 645 2 4.0999999999999998e-01 -5.6003429154314137e+00 -3.0866357744249875e+00 -1.9752751570017928e+00 2 0 -3
1590 530 2 4.0999999999999998e-01 -1.2595828899646886e+01 -1.1633020401891674e+00 -4.2418096885804015e+00 -1 4 -1
1684 562 1 -8.1999999999999995e-01 -1.0103876221567852e+01 -6.3698054086365357e+00 -6.5129400920461098e+00 2 -1 -3
967 323 1 -8.1999999999999995e-01 -9.2468942939324705e+00 -4.3981615064935458e+00 -4.7960438040549818e+00 1 3 -4
1113 371 2 4.0999999999999998e-01 -1.3704912055504428e+01 -5.9918800202115907e+00 -3.0167575744249326e+00 3 1 -2
1276 426 1 -8.1999999999999995e-01 -8.8336181194508310e+00 -6.6734951340215627e+00 -3.2390442478872679e+00 2 -4 1
810 270 2 4.0999999999999998e-01 -1.0650224042300660e+01 -1.7162256860687624e+00 -5.1111743843774136e+00 -4 3 -1
969 323 2 4.0999999999999998e-01 -9.6453453655377928e+00 -3.6214246633184146e+00 -4.3082677153986246e+00 1 3 -4
968 323 2 4.0999999999999998e-01 -8.3142288463020719e+00 -4.1722292836366126e+00 -5.0772886705504234e+00 1 3 -4
560 187 2 4.0999999999999998e-01 -6.0455380312797207e+00 -6.7506224888087161e+00 -3.2099186451137562e-01 3 -2 -1
9 3 2 4.0999999999999998e-01 -8.7214192624986140e+00 -4.2075353885467557e+00 -8.9251582097993776e-02 -1 0 0
27 9 2 4.0999999999999998e-01 -1.3320329865615015e+01 -6.2677066264014893e+00 -3.5664534419701255e-01 2 1 0
873 291 2 4.0999999999999998e-01 -1.2556027651924801e+01 -2.5435282805657540e+00 -7.1282353612693923e+00 1 1 -1
1778 593 2 4.0999999999999998e-01 -7.9589233702449986e+00 -6.4098280374558190e+00 -9.2789284182197562e-02 2 0 3
412 138 1 -8.1999999999999995e-01 -8.2377257184616894e+00 -6.0445439449062910e-01 -5.3356038817128137e-02 0 0 2
503 168 2 4.0999999999999998e-01 -8.0589870708815177e+00 -1.1505497047039139e+01 3.8424637479857697e+00 -2 -1 -1
502 168 1 -8.1999999999999995e-01 -8.8422870528770208e+00 -1.0924778485488027e+01 4.0643105141701081e+00 -2 -1 -1
2343 781 2 4.0999999999999998e-01 -1.2153473595913393e+01 -8.1942159543519146e+00 3.5028322065682307e+00 4 2 0
2341 781 1 -8.1999999999999995e-01 -1.1690266466792819e+01 -7.7794673247093655e+00 2.7196134372082756e+00 4 2 0
2342 781 2 4.0999999999999998e-01 -1.0907272593589788e+01 -8.3439146214909350e+00 2.4582157493694563e+00 4 2 0
504 168 2 4.0999999999999998e-01 -8.6400122230911460e+00 -1.0391850093124631e+01 4.8859437055709787e+00 -2 -1 -1
1027 343 1 -8.1999999999999995e-01 -1.1155859620688929e+01 -8.6985370267011675e+00 6.3078655303355848e+00 4 0 1
878 293 2 4.0999999999999998e-01 -6.2066131557389959e+00 -1.2133382963462928e+01 2.5579133135468819e+00 0 3 -2
1013 338 2 4.0999999999999998e-01 -9.7124078004706966e+00 -1.4026612979785208e+01 3.6130500265276435e+00 1 2 -3
1012 338 1 -8.1999999999999995e-01 -1.0382942868030188e+01 -1.3327375588390996e+01 3.8609586655947954e+00 1 2 -3
1014 338 2 4.0999999999999998e-01 -9.9773829387616821e+00 -1.2420681559851865e+01 3.7450449812422146e+00 1 2 -3
1136 379 2 4.0999999999999998e-01 -1.2242491155962894e+01 -1.2216287235141952e+01 2.6926271828367607e+00 0 2 -1
1135 379 1 -8.1999999999999995e-01 -1.3117751484718116e+01 -1.1772719636956918e+01 2.8854380722004240e+00 0 2 -1
617 206 2 4.0999999999999998e-01 -1.3445561890662447e+01 -1.0289375523506632e+01 3.9111017095409917e+00 1 1 1
1228 410 1 -8.1999999999999995e-01 -5.0031498557856811e+00 -1.3052446130307029e+01 6.6122038371508030e+00 1 3 -1
1230 410 2 4.0999999999999998e-01 -5.6948603145208008e+00 -1.2649473775472263e+01 7.2115024321016836e+00 1 3 -1
1700 567 2 4.0999999999999998e-01 -1.2912004832350842e+01 -1.1806862476585909e+01 6.8085661058328739e-01 2 -1 1
879 293 2 4.0999999999999998e-01 -6.8967609664129599e+00 -1.3512898811479159e+01 3.0939003949071431e+00 0 3 -2
924 308 2 4.0999999999999998e-01 -5.4437078927920179e+00 -1.0391078506776452e+01 6.0865536020788351e+00 5 -2 -1
422 141 2 4.0999999999999998e-01 -7.8499900559136826e+00 -1.4774654762597343e+01 5.4044934806462894e+00 2 1 -3
179 60 2 4.0999999999999998e-01 -1.1151954347118517e+01 -1.3155810570164576e+01 5.5300372178529873e+00 3 1 1
178 60 1 -8.1999999999999995e-01 -1.1634387500951510e+01 -1.3171700521339414e+01 6.4058309557163842e+00 3 1 1
500 167 2 4.0999999999999998e-01 -5.8351712625763277e+00 -1.4865795839677540e+01 7.6463725631072066e-01 0 -1 0
616 206 1 -8.1999999999999995e-01 -1.3302441951971664e+01 -9.4363560554182548e+00 4.4129815341320455e+00 1 1 1
877 293 1 -8.1999999999999995e-01 -7.0734449321300055e+00 -1.2580494771206139e+01 2.7785999677694821e+00 0 3 -2
1028 343 2 4.0999999999999998e-01 -1.1849168559845413e+01 -9.0934224466469260e+00 5.7050412690157994e+00 4 0 1
1137 379 2 4.0999999999999998e-01 -1.3864660470932218e+01 -1.2402971502944009e+01 2.6734983419292089e+00 0 2 -1
1623 541 2 4.0999999999999998e-01 -9.1669500373228008e+00 -9.7277056821561310e+00 2.7927431366264823e+00 1 2 -2
1621 541 1 -8.1999999999999995e-01 -9.3757179328773326e+00 -8.9194696802115345e+00 2.2421259031356850e+00 1 2 -2
632 211 2 4.0999999999999998e-01 -1.4818388722868955e+01 -1.3595144003116385e+01 6.9014504266204391e-01 0 1 -1
1473 491 2 4.0999999999999998e-01 -1.3258589111001701e+01 -1.1980959087143928e+01 6.8674078159187193e+00 1 0 0
1471 491 1 -8.1999999999999995e-01 -1.3979177421042751e+01 -1.1575823722507677e+01 7.4301036999798082e+00 1 0 0
1622 541 2 4.0999999999999998e-01 -9.5187794524476566e+00 -9.1921759801526051e+00 1.2907198064081644e+00 1 2 -2
1699 567 1 -8.1999999999999995e-01 -1.2287863200080144e+01 -1.1163017790509560e+01 2.3822797030840803e-01 2 -1 1
1029 343 2 4.0999999999999998e-01 -1.1494197051088110e+01 -8.6969824627149173e+00 7.2488938193936097e+00 4 0 1
421 141 1 -8.1999999999999995e-01 -7.9456936333753250e+00 -1.4651488289024730e+01 6.3922584930875228e+00 2 1 -3
423 141 2 4.0999999999999998e-01 -8.1315003102680308e+00 -1.3689357501222746e+01 6.5917306104654241e+00 2 1 -3
2040 680 2 4.0999999999999998e-01 -8.0248952211889719e+00 -1.1082047153470192e+01 7.0911589369851651e+00 1 2 1
1583 528 2 4.0999999999999998e-01 -7.7426550392056521e+00 -8.7639813580493637e+00 6.8392939348786879e+00 2 2 -1
561 187 2 4.0999999999999998e-01 -6.0653127946318293e+00 -8.2246980584975660e+00 3.8140430923909996e-01 3 -2 -1
2038 680 1 -8.1999999999999995e-01 -7.5882608048773044e+00 -1.1939948503063874e+01 7.3620177888724694e+00 1 2 1
1584 528 2 4.0999999999999998e-01 -9.3191058732420409e+00 -9.1222125644315035e+00 6.6088088286807380e+00 2 2 -1