2611
Atoms. Timestep: 8000000
O 5.56913 -3.86278 1.76861
H 4.74505 -4.05066 1.2342
H 6.37656 -3.99426 1.19348
O 9.6956 5.73832 -1.54784
H 9.70624 4.73865 -1.52424
H 10.4103 6.09358 -0.945287
O -8.34172 -2.39344 1.26643
H -8.1582 -3.36095 1.44038
H -7.60629 -2.00987 0.707845
O -14.6525 3.45271 12.6051
H -14.4461 3.93187 13.4582
H -13.799 3.17772 12.1623
O -7.18991 13.0511 14.2373
H -6.68568 13.1752 13.3827
H -8.11044 12.7165 14.0356
O 8.25637 -9.989 4.28695
H 8.5234 -10.8244 3.8065
H 7.35414 -9.69626 3.97027
O 7.05068 -6.96527 12.4284
H 7.49311 -7.86123 12.4673
H 6.34877 -6.90903 13.1384
O 10.5432 -13.0377 -12.1211
H 10.5529 -13.5026 -13.0064
H 11.0592 -13.5772 -11.4557
O -14.3799 -5.50397 -2.75389
H -13.765 -5.98533 -2.12928
H 14.6939 -5.43779 -2.34182
O 6.50395 2.30801 -5.22899
H 7.39584 2.03274 -5.58783
H 6.33415 3.26663 -5.45749
O 10.398 0.449176 7.21646
H 10.311 0.0913572 6.28673
H 10.4185 -0.311164 7.86567
O 12.0922 12.8272 7.5419
H 11.4626 13.0035 8.29853
H 11.7814 13.3186 6.72827
O 12.1209 0.418881 -0.368191
H 11.3854 -0.172632 -0.0378405
H 11.7849 0.976071 -1.12757
O 7.46482 -14.4947 2.93599
H 6.70731 -14.1039 2.41304
H 7.51729 14.5045 2.76246
O 10.7885 3.26541 4.80843
H 10.7844 2.85775 3.8953
H 11.7033 3.61294 5.01421
O 14.5617 -5.03442 -11.1449
H -14.6159 -5.58794 -11.3584
H 13.8987 -5.10905 -11.8898
O -7.49813 3.70862 12.9307
H -8.27023 4.22021 12.5537
H -7.1532 3.0704 12.2425
O -14.688 -13.1584 -5.14936
H -14.0218 -13.8679 -5.37906
H -14.3105 -12.5641 -4.43915
O -7.90113 -1.35113 5.53923
H -7.93738 -1.03888 4.58991
H -7.3597 -0.708298 6.0811
O -7.99872 0.797126 14.0604
H -8.03993 -0.201242 14.1001
H -7.28899 1.12644 14.6832
O 3.67775 -8.33788 -12.4973
H 3.1885 -7.66729 -13.0549
H 3.77738 -9.18978 -13.0114
O -10.4799 2.38697 14.7402
H -9.63824 2.03643 14.3295
H -10.7398 3.24128 14.2901
O -14.9202 3.70889 -0.166626
H -14.8091 4.15028 -1.05705
H -14.7329 2.73046 -0.253947
O -9.46275 11.944 -13.6794
H -8.49217 11.9886 -13.4428
H -9.7156 10.9958 -13.872
O -12.5865 -9.21685 -4.9581
H -12.8394 -9.67719 -5.80905
H -13.1869 -8.43036 -4.8134
O 8.10731 10.5706 13.7163
H 8.91851 10.0081 13.5564
H 8.19045 11.032 14.5995
O 4.74136 10.6068 -6.30067
H 4.57273 10.2294 -5.3901
H 5.26548 9.94945 -6.84212
O 13.8378 -11.4066 -10.5383
H 13.9904 -12.2512 -11.0515
H 13.818 -11.6103 -9.55942
O 12.6073 6.6427 -11.6317
H 13.0877 5.88439 -11.191
H 13.2394 7.13506 -12.23
O -4.48227 14.6483 13.6483
H -5.19195 -14.7131 13.9806
H -4.76228 14.262 12.7694
O 10.0537 -9.20802 13.398
H 9.26665 -9.25354 12.7828
H 9.76123 -8.85867 14.2882
O 1.57303 0.635946 -10.1415
H 1.42897 -0.0765259 -9.45475
H 1.02156 1.43763 -9.91085
O -11.2583 -4.11094 3.74738
H -10.2598 -4.063 3.77271
H -11.6085 -4.25941 4.67225
O -14.9267 -0.334217 -10.9811
H 14.9383 0.455119 -10.3785
H 14.1614 -0.728565 -11.1921
O -5.79091 -9.08173 14.2641
H -6.01256 -9.79238 13.5963
H -5.72663 -9.48883 -14.8074
O -10.6372 6.42395 -4.32299
H -10.5473 5.85888 -5.14313
H -11.031 5.87791 -3.58354
O 1.72378 -1.88777 7.36534
H 1.76396 -2.18307 8.31991
H 1.972 -0.920958 7.3048
O 3.97188 4.73725 8.8032
H 4.1004 3.74811 8.87457
H 3.02634 4.93258 8.54279
O 7.64589 6.85171 -12.3324
H 8.52868 6.49148 -12.6339
H 7.78908 7.50719 -11.5909
O -12.2949 2.59935 11.4304
H -12.6059 1.71498 11.7786
H -12.1477 2.5359 10.4433
O 10.1078 9.76243 8.08125
H 9.2281 9.60139 7.6338
H 10.1807 9.18141 8.89187
O 10.1751 -4.60891 10.3751
H 10.1978 -4.52316 11.3712
H 9.4505 -5.24585 10.1119
O -0.721804 -5.35993 11.6052
H 0.209297 -5.21674 11.9407
H -1.37586 -5.03301 12.2874
O -1.9918 11.2896 6.85496
H -1.51325 11.9468 7.43732
H -2.92408 11.1615 7.19328
O -0.857332 14.8152 0.204867
H -1.63371 14.5785 0.789026
H -0.332265 13.9897 -0.0023002
O -5.36434 12.2926 -2.85846
H -5.22521 11.3688 -3.21512
H -5.85856 12.8398 -3.534
O 4.208 -2.5582 4.21917
H 4.31609 -2.74792 3.2433
H 4.24467 -1.57075 4.37282
O -13.5036 -13.4597 -11.4698
H -12.9526 -14.2769 -11.6389
H -14.227 -13.3973 -12.1573
O 11.8082 -14.3264 -8.46684
H 11.5018 -13.4743 -8.04253
H 12.76 -14.2303 -8.75824
O -2.56845 7.14045 -5.16304
H -2.56404 7.79318 -5.92063
H -1.65714 6.74144 -5.06154
O -12.7646 6.23505 0.216521
H -13.3524 5.66189 0.787421
H -12.4751 7.03829 0.737133
O -9.58432 9.69926 0.818006
H -8.73548 9.82999 0.305771
H -9.38592 9.70169 1.79813
O -4.11966 3.75561 0.689634
H -4.85112 4.39834 0.917392
H -4.3796 2.83639 0.98538
O -3.77484 -12.0428 3.22979
H -3.70343 -11.7483 2.2768
H -4.42874 -12.7963 3.29768
O -10.8379 14.5848 -3.64381
H -11.6361 14.6434 -4.24335
H -10.9588 -14.7802 -2.86661
O 0.448785 1.76381 9.07773
H -0.448221 1.33621 9.18976
H 0.802142 2.0365 9.9726
O -10.4629 -5.36585 14.3229
H -11.2114 -5.91831 13.9561
H -9.79454 -5.18836 13.6005
O 3.59478 -10.1055 -4.73927
H 4.33939 -10.5038 -4.20364
H 2.72665 -10.2551 -4.26603
O -11.2199 -14.5202 10.1072
H -12.0917 14.9769 10.1734
H -10.7822 -14.7386 9.23498
O -11.2754 -12.0884 7.41486
H -11.3052 -12.8197 8.09628
H -10.7319 -11.3265 7.76721
O 7.29354 6.17966 0.823947
H 7.53233 5.65757 1.64273
H 7.61466 5.69189 0.01218
O -6.61868 -13.5026 13.6193
H -7.55499 -13.319 13.9186
H -6.09549 -12.6504 13.6195
O -3.9635 3.51196 -14.3737
H -4.25604 3.16156 -13.484
H -4.16551 4.48975 -14.4297
O 2.78661 3.97272 -3.88332
H 3.70498 4.23606 -3.58793
H 2.83647 3.12443 -4.4105
O -3.13829 -11.1439 13.8548
H -3.88221 -10.977 13.2077
H -2.44604 -10.4287 13.7585
O -7.69064 10.6052 -5.4223
H -6.83781 10.087 -5.35742
H -7.8202 10.9173 -6.36346
O 7.51694 -0.0184166 2.52182
H 7.37545 -0.401104 3.4348
H 7.4503 0.978463 2.56426
O -0.100935 -8.95524 8.83474
H 0.12795 -8.17887 9.42201
H 0.66279 -9.14238 8.21691
O 14.699 4.44008 2.49851
H 14.8499 4.0964 1.57163
H 14.0558 3.84111 2.97548
O -6.02023 2.73734 -5.59049
H -6.27945 3.33604 -6.34836
H -6.83839 2.47231 -5.08021
O -8.84898 -5.78362 -4.24369
H -9.69248 -5.47387 -3.80486
H -8.22081 -5.01161 -4.34075
O 14.6337 -14.4804 3.70509
H 14.0549 14.7289 3.96406
H 14.8911 -14.5644 2.74242
O 12.1825 -10.4781 9.34726
H 13.1481 -10.4391 9.09033
H 12.0324 -9.92207 10.1647
O -8.86131 6.0305 12.4982
H -9.1723 6.50113 11.6725
H -9.63058 5.54727 12.9162
O 5.85086 12.905 -6.624
H 6.8494 12.8616 -6.59175
H 5.46878 12.0455 -6.28426
O 4.77374 14.1961 -1.6697
H 3.83257 14.3516 -1.36965
H 4.80141 14.1466 -2.66809
O 2.79035 9.89627 -0.797516
H 2.66001 9.0457 -1.30699
H 2.37757 10.6541 -1.30283
O -8.4327 -3.15935 -7.82857
H -8.1397 -3.36222 -6.89422
H -9.41715 -3.31488 -7.91035
O 7.81097 -0.585866 -0.108706
H 7.47054 -0.36322 0.804832
H 7.05381 -0.907335 -0.677372
O -2.78872 -2.14122 -9.7493
H -2.70604 -1.16836 -9.96543
H -2.8422 -2.259 -8.7577
O -3.15952 12.844 -8.50069
H -2.44733 13.0307 -9.17739
H -3.87943 13.534 -8.57536
O 8.96851 -11.5338 6.6115
H 8.53034 -10.9607 5.91898
H 9.95916 -11.4023 6.57482
O -4.0011 -0.376667 -1.68346
H -4.26757 0.358813 -2.30642
H -4.05981 -0.0516508 -0.739572
O -10.3615 0.212684 -1.48288
H -10.7871 0.435101 -0.605726
H -9.36685 0.208762 -1.37929
O 1.37689 8.47513 -7.27934
H 1.55087 7.50163 -7.13087
H 0.875618 8.59729 -8.13597
O -8.74221 10.7568 12.9519
H -7.79263 10.6563 12.6549
H -9.20201 11.4323 12.3755
O 0.638437 -12.2912 -2.91495
H 0.519982 -13.2009 -3.31316
H -0.00131358 -12.174 -2.15535
O 10.1215 6.01048 -13.1388
H 10.4235 5.59828 -13.9984
H 10.9191 6.30158 -12.6104
O 6.19311 -1.34772 -9.82604
H 5.38679 -1.25407 -10.4101
H 6.33491 -2.31282 -9.60585
O -14.1794 0.0743277 11.2967
H -14.795 0.502988 11.9581
H -14.5532 0.181483 10.3754
O -3.63702 -4.49032 10.7568
H -3.26463 -4.35194 9.83906
H -3.01265 -5.06411 11.2868
O -1.43027 -7.09009 -1.76138
H -1.91981 -6.29602 -1.40107
H -1.75736 -7.91813 -1.30601
O 7.21841 13.8456 7.37701
H 6.47661 13.5316 7.96958
H 6.97451 14.7293 6.97748
O -5.00488 1.09676 -14.8497
H -5.13517 1.0235 -13.861
H -4.89029 2.058 14.882
O 5.31992 0.302724 -7.24685
H 5.93742 0.300321 -8.03342
H 5.42536 1.16002 -6.74293
O 14.2911 -5.31898 -6.98006
H 13.8905 -6.0782 -7.49295
H 14.9131 -4.80756 -7.5731
O -4.86421 -4.78806 13.6825
H -5.24593 -4.10656 14.3069
H -5.59443 -5.38996 13.3592
O 6.25114 8.6986 -8.12964
H 7.02867 8.50762 -8.7288
H 5.79211 7.84149 -7.89583
O 1.12961 6.55019 13.1714
H 1.49695 7.14443 13.8869
H 1.30237 5.59466 13.4104
O -14.252 -6.03411 3.65231
H -13.5364 -6.72545 3.55261
H -13.8406 -5.12294 3.63079
O -6.10472 -1.83469 -8.65714
H -5.52529 -2.45882 -9.18129
H -6.90022 -2.33105 -8.30957
O 7.21976 -13.4683 5.90181
H 7.29048 -13.8202 4.96841
H 7.99839 -12.8705 6.09259
O 6.99609 -9.03575 -11.0503
H 6.03278 -9.22766 -10.8626
H 7.3815 -9.77434 -11.6034
O 4.69879 12.2842 -12.427
H 4.51444 13.2605 -12.3136
H 4.72789 11.8441 -11.5295
O 2.29097 -5.15842 11.2147
H 2.87937 -5.47026 11.9607
H 2.85701 -4.85921 10.4465
O -1.06345 -5.96161 9.13489
H -1.35242 -5.04228 8.8678
H -0.796265 -5.96023 10.0985
O 12.4471 -11.6504 1.04002
H 11.9251 -10.9574 1.53722
H 13.4249 -11.4636 1.13581
O 5.32635 -13.3295 -13.5365
H 4.73418 -13.8546 -12.9252
H 6.26068 -13.6812 -13.4787
O -0.277381 5.71754 10.7141
H 0.233351 6.06639 11.4999
H -0.836493 4.93892 10.999
O -12.9249 13.8287 9.14642
H -13.7844 13.3335 9.27342
H -12.3447 13.3296 8.50273
O -14.2173 -9.03003 -8.44794
H -13.4892 -8.35481 -8.56643
H -13.8605 -9.82111 -7.95101
O 13.5211 13.8632 -10.9017
H 14.3156 13.5382 -10.3888
H 13.065 13.087 -11.337
O -3.19322 9.60948 12.6637
H -2.92109 9.54131 11.7039
H -3.03658 10.542 12.9892
O 1.87617 -12.8142 -10.8976
H 1.04635 -12.5547 -10.4035
H 2.60474 -13.0153 -10.2428
O -6.63884 -4.77681 7.78103
H -7.50359 -4.54084 7.3377
H -6.62891 -5.75395 7.99341
O 5.2739 2.39051 4.60391
H 4.62092 1.6502 4.44398
H 5.77007 2.58587 3.75795
O -5.79868 -7.10967 -1.30046
H -6.34667 -7.35284 -2.10083
H -5.10088 -6.44365 -1.56412
O 3.24356 12.8952 -4.40197
H 3.95914 13.5834 -4.52143
H 2.85383 12.6615 -5.29275
O 8.11566 -2.07061 -4.88948
H 8.33017 -2.14166 -5.86362
H 7.1377 -1.89567 -4.77543
O 10.5098 -12.0623 -7.50564
H 10.1125 -11.4999 -8.23076
H 11.3069 -11.5965 -7.12145
O -6.93302 7.9614 -14.211
H -6.33844 7.87443 14.9722
H -6.39237 8.25928 -13.4243
O -2.92784 6.09119 6.59668
H -2.93351 6.31911 7.57035
H -2.00717 6.22233 6.22901
O 10.9325 -2.75637 -0.916933
H 11.4303 -3.49384 -0.460517
H 10.4369 -2.21738 -0.235813
O 7.72254 -8.04331 8.42332
H 8.62507 -8.20095 8.02257
H 7.03103 -8.0517 7.701
O -13.0953 -8.67798 -14.7134
H -13.6181 -7.88758 14.9499
H -13.6149 -9.15801 -14.0066
O -3.57254 9.15283 1.9312
H -3.32436 8.70527 2.79034
H -3.16857 10.0672 1.90286
O 9.76995 -14.2943 -2.20946
H 10.3311 -13.6096 -1.74441
H 10.1217 -14.4415 -3.13391
O -3.66582 -5.88148 1.76275
H -3.87768 -5.54985 2.68207
H -4.00588 -6.81614 1.65897
O 4.19619 3.75955 -13.3464
H 4.2315 3.53291 -12.373
H 3.5606 3.14192 -13.8096
O -14.8724 -0.738354 1.629
H -14.1544 -1.37298 1.91489
H 14.2146 -1.14044 1.81966
O -8.82646 2.09286 -4.90095
H -9.41739 2.26249 -4.11226
H -9.38071 2.06485 -5.73283
O 13.5959 -6.90838 5.05427
H 14.3488 -6.57671 4.48577
H 13.3026 -7.80699 4.72791
O -3.40066 -10.2994 -6.66317
H -3.21578 -9.77322 -5.83312
H -3.7037 -9.68162 -7.38882
O 14.5101 -13.615 -9.05712
H 14.8886 -13.1648 -8.24837
H -14.7603 -13.703 -9.7536
O -1.90094 -6.81296 -14.7593
H -1.06103 -6.71408 -14.2256
H -1.95447 -6.07842 14.5468
O -7.18256 3.94354 0.286621
H -6.89794 4.65157 -0.359667
H -8.06067 3.56209 -0.00224049
O -2.51577 -14.2035 8.75509
H -3.05993 14.9404 8.7318
H -2.78304 -13.6116 7.99472
O -8.20181 -0.401679 3.10913
H -8.26853 -1.21949 2.53752
H -7.9261 0.37717 2.54576
O -12.8405 9.88862 -7.00181
H -12.2416 10.6889 -6.97318
H -12.8153 9.48597 -7.91682
O 8.72157 -7.78759 -1.81701
H 7.89332 -7.58974 -2.34129
H 8.47035 -8.07304 -0.892118
O -10.0626 -14.6215 7.67773
H -10.9949 -14.8539 7.40045
H -9.41268 14.9539 7.03599
O -11.9019 0.430047 -13.8248
H -11.3417 -0.377631 -14.009
H -11.519 1.21815 -14.3068
O 8.45269 11.4698 10.754
H 8.43182 11.3982 11.7512
H 7.60858 11.0907 10.3749
O -5.667 1.17459 -12.0902
H -6.15957 2.04409 -12.0533
H -5.75281 0.705411 -11.2112
O -9.59753 -9.72533 -7.33587
H -10.1635 -9.79227 -8.1576
H -9.6254 -8.78844 -6.98736
O -11.3234 -7.76222 13.0564
H -12.1588 -8.09883 13.4909
H -10.5443 -7.92354 13.6623
O -13.3682 -9.94168 -11.6803
H -14.3233 -9.80235 -11.4186
H -12.9626 -10.6466 -11.0985
O -10.1469 7.00934 9.91287
H -10.9897 7.19139 9.40643
H -9.70343 6.19425 9.54004
O 13.6227 -8.67335 -10.0413
H 13.6844 -9.61224 -10.3799
H 14.3383 -8.51683 -9.36054
O -7.85274 -14.752 10.278
H -8.62557 -14.1445 10.4616
H -7.50335 14.8655 11.141
O -6.68738 -7.47563 -12.8457
H -6.79923 -8.32289 -12.3265
H -5.72207 -7.2146 -12.8538
O 13.0144 1.50809 8.54106
H 12.2281 1.2507 7.9793
H 12.9571 1.04614 9.42612
O -10.8793 -8.89194 -2.37822
H -11.7934 -8.8802 -1.97296
H -10.9247 -8.54048 -3.31333
O -10.8538 -12.1647 12.1797
H -11.3821 -11.3295 12.3328
H -11.1871 -12.6235 11.356
O 3.09485 -11.7858 -7.25093
H 2.42187 -12.4782 -6.99073
H 3.36841 -11.2661 -6.44153
O 0.663002 -6.25441 -13.6166
H 1.13122 -5.37117 -13.5908
H 0.627791 -6.64008 -12.6946
O -3.04913 -3.885 -1.26365
H -2.97669 -2.97459 -1.67098
H -3.65805 -3.84814 -0.471262
O -5.88212 13.2585 11.6028
H -5.57289 13.6393 10.7314
H -5.85758 12.2598 11.5576
O -4.20758 10.1878 -4.72716
H -3.74575 9.43607 -5.19798
H -3.86768 11.0601 -5.07858
O -11.7063 -13.4105 -1.77716
H -11.4432 -13.243 -0.827039
H -12.5837 -13.8897 -1.80051
O -0.095348 12.187 0.167473
H -0.245354 12.3017 -0.81454
H 0.392374 11.3296 0.332244
O 12.9789 13.3276 4.39572
H 12.0118 13.2981 4.14308
H 13.3311 12.3951 4.47582
O 0.345044 -13.7184 6.55401
H 0.924631 -12.9122 6.43475
H 0.157368 -13.853 7.52698
O 5.40922 -8.60049 -6.58359
H 4.84849 -8.9772 -5.84624
H 5.97056 -9.327 -6.97993
O 4.26437 2.03498 8.90085
H 5.23684 2.0189 8.66833
H 4.15996 2.11844 9.89188
O 1.60616 -8.02559 10.8367
H 2.5738 -8.27753 10.822
H 1.51411 -7.04578 10.6592
O -6.79328 -14.3858 0.625096
H -6.56713 -14.5068 -0.341454
H -6.3165 14.9055 1.16807
O -9.32116 -9.74108 1.60677
H -8.73173 -10.5204 1.39417
H -9.09449 -9.38978 2.51518
O -6.93873 5.30476 7.52455
H -6.31269 4.63506 7.12508
H -7.58734 4.83768 8.1255
O -2.55613 2.74051 6.24268
H -3.09549 3.21902 5.54976
H -1.71544 3.25144 6.42216
O -10.5896 9.09055 -12.323
H -9.99843 9.13752 -13.1282
H -11.4615 8.66998 -12.5736
O -5.69421 10.9126 3.04091
H -4.82489 10.4346 2.91503
H -5.90468 11.4434 2.21994
O -1.22431 8.50873 14.5815
H -0.48293 8.79143 13.9728
H -2.08653 8.5004 14.075
O -13.7176 7.02969 -8.62211
H -13.8986 6.95093 -7.64179
H -12.8008 7.40352 -8.76276
O -8.73349 -5.10124 12.2763
H -9.07522 -4.81145 11.3823
H -7.83887 -5.53444 12.1667
O -1.02373 8.61105 -12.6426
H -1.13465 8.55459 -13.6348
H -0.0558616 8.73126 -12.4217
O -2.37999 -10.354 4.74049
H -1.45493 -10.6841 4.55248
H -3.03852 -10.8875 4.20969
O 14.7724 13.0809 -8.57987
H 13.9377 13.3474 -8.0979
H -14.5172 12.7998 -7.91592
O 13.2642 -11.1677 -7.48264
H 12.6123 -10.4125 -7.55119
H 13.9386 -10.9626 -6.77326
O 4.11421 -13.7836 14.0648
H 4.3707 -13.4558 14.974
H 3.17278 -13.5115 13.8656
O 11.9248 -8.42453 -7.52913
H 11.7682 -7.44732 -7.38581
H 12.144 -8.58945 -8.49076
O 10.0536 13.0455 -11.1931
H 10.2077 14.011 -10.983
H 10.8197 12.6952 -11.7319
O 5.43286 6.04633 -7.81199
H 5.66701 5.59595 -8.67358
H 4.60369 5.63376 -7.4348
O 2.36434 -11.468 6.85938
H 2.44629 -10.5179 7.16037
H 3.21388 -11.9557 7.06034
O -12.0721 -10.2275 1.41397
H -11.0801 -10.1131 1.35937
H -12.42 -9.74119 2.21551
O -3.79535 5.89798 -11.2341
H -3.57746 6.40459 -12.0683
H -4.51053 6.38041 -10.7284
O -6.73221 -7.5656 1.05799
H -7.66101 -7.87714 0.857227
H -6.34252 -7.13341 0.244745
O 11.7129 0.300185 -10.4813
H 12.4319 0.899714 -10.1296
H 12.0624 -0.216406 -11.2629
O -11.7555 1.45865 0.521063
H -12.6884 1.38093 0.169378
H -11.4358 0.559355 0.819494
O -9.39509 -4.28843 9.88271
H -8.43568 -4.02955 9.99464
H -9.45899 -5.07194 9.26461
O 4.62242 -6.09179 -7.93069
H 4.77016 -7.01344 -7.57187
H 3.96389 -6.12835 -8.68237
O 7.20726 14.3044 -13.8887
H 6.80777 14.3039 -14.8055
H 7.64934 13.424 -13.7172
O -9.02839 -11.1174 -1.87942
H -9.68045 -10.4204 -1.58103
H -9.33404 -11.5102 -2.74675
O 2.09427 10.3392 -14.7763
H 2.7873 11.0569 -14.8437
H 2.47832 9.47375 14.8845
O -13.2578 -12.4199 -14.3189
H -14.0112 -11.7724 -14.204
H -12.5497 -12.2315 -13.6383
O 10.9578 -9.95701 2.46886
H 10.4605 -9.18784 2.06744
H 10.3063 -10.6099 2.85528
O 10.4771 9.03486 13.5901
H 10.5131 8.07874 13.8809
H 11.3395 9.48585 13.82
O -12.7528 -4.55361 6.06669
H -12.6961 -5.54981 6.13284
H -13.5986 -4.23858 6.49712
O 13.0633 5.51368 -2.98017
H 12.2883 5.50981 -2.34823
H 13.0093 6.32016 -3.56897
O -12.3553 -7.00067 -8.38344
H -12.4714 -6.40943 -7.58533
H -11.4064 -7.31249 -8.43206
O -6.2054 7.2155 11.9694
H -7.02693 6.75157 12.3009
H -5.98041 6.88154 11.0541
O -14.8655 -14.4387 0.990682
H -14.6489 -14.4508 0.0144855
H 14.2916 -14.9785 1.15564
O 1.82683 -4.87452 2.714
H 1.711 -5.06256 1.73869
H 0.937387 -4.66743 3.12146
O 10.6494 -3.28672 -14.3518
H 9.93552 -3.44318 -13.6692
H 11.4971 -3.72579 -14.0541
O -6.84482 -7.37951 8.47413
H -6.70313 -7.9672 9.27072
H -7.82422 -7.22548 8.34355
O -14.883 -9.79607 4.1009
H -14.7149 -10.771 4.2471
H 14.1774 -9.56645 4.41225
O -14.3421 10.0946 0.23397
H 14.8683 10.718 0.357644
H -13.5177 10.5033 0.625535
O 14.3988 7.50414 -0.316055
H 14.7221 8.42928 -0.116967
H -14.8064 6.87523 -0.330058
O 7.13178 -7.53859 -4.43518
H 6.5247 -7.56384 -5.22943
H 8.06859 -7.73407 -4.72535
O 8.32101 8.81036 -9.70257
H 8.97165 8.84304 -8.94388
H 8.26485 9.71146 -10.1325
O -14.6883 -11.386 1.1731
H -14.5429 -12.3606 1.34345
H -14.7078 -10.8947 2.04387
O 3.76984 0.127415 5.24932
H 3.11851 0.564119 5.86987
H 4.40254 -0.440419 5.77588
O -12.3061 2.32683 3.37625
H -11.9808 3.21885 3.69013
H -12.1598 2.24679 2.39024
O -9.35694 -6.69553 8.21909
H -9.62286 -6.61276 7.25865
H -10.0628 -7.19816 8.71826
O 10.7264 2.84618 -9.84092
H 10.9274 2.88901 -8.86224
H 10.8612 1.91091 -10.1682
O -10.996 -12.8445 0.909214
H -10.1106 -12.6178 1.31518
H -11.6022 -12.0513 0.967343
O -12.8688 -5.34934 11.5225
H -12.4427 -4.52847 11.1422
H -12.1646 -6.03406 11.7101
O 3.32726 8.85419 13.1488
H 3.80841 9.67081 12.83
H 3.80913 8.03782 12.8304
O -11.2759 -0.746744 -5.33359
H -10.4734 -0.201203 -5.09208
H -11.6905 -1.11606 -4.50187
O -13.4645 -11.1761 -6.99277
H -12.6726 -11.7703 -7.13328
H -14.2296 -11.7174 -6.64379
O -6.72006 5.4716 -5.12986
H -7.22045 6.13104 -4.56882
H -6.0311 5.01206 -4.56935
O 5.20796 5.13685 -3.60585
H 5.97946 4.84398 -4.17068
H 5.41463 6.02413 -3.19351
O 13.6579 0.51522 3.82667
H 13.7059 0.187529 2.8831
H 14.1643 -0.108354 4.42223
O 9.26092 -3.62646 5.93213
H 8.62476 -4.39796 5.94231
H 8.77305 -2.79568 5.66418
O -12.5725 5.55395 -12.2778
H -11.7626 5.59317 -11.6926
H -12.9034 6.48149 -12.4515
O -7.96921 14.9647 3.99996
H -8.26359 14.288 3.32507
H -7.90623 14.5326 4.8996
O -2.60982 -3.40527 8.42962
H -3.28149 -3.17987 7.72388
H -2.23749 -2.56184 8.81692
O -3.05113 9.65045 9.85623
H -3.79434 10.1438 9.40424
H -2.18324 10.1105 9.66868
O -12.7111 11.5586 -11.4709
H -13.6872 11.4589 -11.2778
H -12.3084 10.6566 -11.6266
O -1.84095 12.9369 4.70469
H -0.960475 12.6689 4.31356
H -2.02472 12.3873 5.51968
O -8.28536 3.98138 4.85626
H -8.15243 3.10483 5.31885
H -8.98403 3.8818 4.14777
O -13.7375 10.8762 12.3169
H -13.3155 9.98789 12.1357
H -14.0991 11.2535 11.4643
O 8.23657 -8.03326 1.30629
H 7.45327 -8.25804 1.88587
H 8.51025 -7.08525 1.46873
O -0.496237 -11.4992 -10.3866
H -1.30682 -11.5757 -10.9673
H -0.677741 -10.8545 -9.64411
O 3.79986 6.55411 10.9839
H 3.85074 5.84794 10.2777
H 4.03924 6.15721 11.87
O -13.5261 -2.81939 3.013
H -12.5696 -3.10579 3.06961
H -13.7247 -2.17333 3.74999
O -13.4839 -14.7314 13.7321
H -12.8411 14.5051 13.906
H -13.181 -13.9108 14.2167
O -10.8004 -2.43855 -11.5634
H -9.99135 -2.90844 -11.2103
H -11.321 -3.06307 -12.1456
O -4.18097 13.8935 5.28465
H -3.43114 13.3564 4.89821
H -3.91166 14.245 6.18128
O 1.14916 -12.7038 13.57
H 0.834071 -12.1169 14.3159
H 1.0022 -13.6621 13.8151
O -7.00042 -11.7536 -0.227623
H -7.67718 -11.328 -0.828324
H -7.24967 -12.709 -0.0688809
O 0.55878 -14.7399 -4.50529
H 1.247 14.5224 -4.41816
H 0.703046 -14.2428 -5.36089
O 0.48367 11.7308 -10.5934
H 0.33338 12.1457 -9.69605
H -0.31359 11.895 -11.1743
O 8.19414 -10.5067 0.0781727
H 9.08923 -10.9362 0.19777
H 8.05629 -9.81942 0.791397
O -2.02528 14.057 -4.06322
H -2.71562 14.6622 -3.66672
H -1.19212 14.578 -4.24857
O -11.1786 -12.7166 -7.50585
H -10.4364 -12.0573 -7.38541
H -10.8316 -13.6414 -7.34927
O -3.14408 -12.811 6.41348
H -2.87732 -11.8975 6.72048
H -2.81792 -12.9573 5.47954
O 7.80861 7.2105 -3.30536
H 7.66715 6.67075 -4.13522
H 8.45696 6.73902 -2.70756
O 7.23036 -11.8841 -5.35381
H 7.62957 -11.2924 -4.65346
H 7.08935 -11.359 -6.19306
O 13.0024 10.5156 9.60643
H 12.3006 10.0885 10.1767
H 12.6302 10.6907 8.69495
O 6.7597 3.56259 12.434
H 7.4456 2.92497 12.7847
H 6.74935 4.38615 13.0011
O 2.61391 -0.399222 -7.69498
H 2.62146 -1.39871 -7.72635
H 3.5509 -0.0614584 -7.60561
O -13.8249 6.49465 -5.93868
H -13.8185 5.57115 -5.55512
H -14.0878 7.14844 -5.22911
O -0.410951 10.6918 10.1274
H -0.207247 10.6618 11.106
H 0.4427 10.6539 9.60792
O 10.5283 10.017 -8.22149
H 10.2877 9.59527 -7.34728
H 10.096 10.9162 -8.28799
O -6.91166 -0.879212 -13.5365
H -6.52593 -0.220972 -12.89
H -6.31716 -1.68154 -13.5899
O 13.3904 2.99086 4.54259
H 13.5737 2.08522 4.16015
H 13.8971 3.10026 5.39779
O 5.43984 -4.59205 11.5835
H 6.17864 -5.09878 12.0278
H 5.03367 -5.15653 10.8649
O 2.30939 -8.76838 -9.2996
H 1.60244 -9.0079 -8.63412
H 3.0342 -9.45701 -9.27836
O -2.64486 -1.20706 4.39683
H -2.80293 -0.585355 5.16397
H -2.03848 -1.94732 4.6872
O 1.9795 -7.7297 -2.58666
H 1.928 -8.40053 -1.84683
H 2.93819 -7.54626 -2.80413
O 1.97429 -1.29257 14.5736
H 2.88452 -1.70406 14.527
H 1.72054 -1.152 -14.452
O -5.00994 9.99999 -8.52723
H -4.99946 9.58454 -7.61767
H -4.10723 10.379 -8.73099
O -11.7633 5.10785 -2.10522
H -12.5866 4.8522 -2.61196
H -11.994 5.80113 -1.42245
O 14.01 10.8268 3.59986
H 14.9492 11.1464 3.47388
H 14.0135 9.98862 4.14522
O 8.85532 1.18044 -6.52076
H 9.58647 1.77257 -6.8596
H 9.17168 0.692385 -5.70729
O 9.30748 -9.41657 -9.66691
H 8.60025 -9.49808 -10.3692
H 10.02 -8.78994 -9.98257
O 4.99288 13.2487 3.21051
H 4.96911 12.4194 2.65219
H 5.73979 13.1837 3.87226
O -11.1943 9.01325 -1.24205
H -10.9438 9.08193 -0.276379
H -10.5304 9.5164 -1.79527
O -11.0022 -2.39283 -7.37678
H -11.6495 -2.06841 -8.06658
H -11.241 -2.00436 -6.48679
O -9.87131 12.1846 10.7374
H -10.7924 12.0878 11.1145
H -9.40779 12.9508 11.1825
O 13.3303 2.20127 -13.7445
H 12.9866 2.31849 -14.6762
H 12.6546 2.54784 -13.0939
O -10.2421 9.08213 -5.68325
H -11.0053 9.01775 -6.32622
H -10.4045 8.46835 -4.91064
O 7.43265 -5.70097 5.57815
H 6.55734 -5.97241 5.97834
H 8.02276 -6.50365 5.49155
O 6.79217 4.41062 -12.8427
H 5.83869 4.3153 -13.1287
H 7.00397 5.37831 -12.7059
O 10.8692 9.88683 3.2869
H 10.9614 8.89202 3.32993
H 11.2987 10.2965 4.09168
O -13.6924 5.11802 7.99584
H -14.5058 5.28381 7.4383
H -13.0095 4.62997 7.45224
O -7.70902 2.49281 -8.43103
H -7.44052 3.45547 -8.39604
H -8.20539 2.3159 -9.28093
O -7.08971 14.7366 7.69561
H -7.30227 14.5998 8.66315
H -6.50405 -14.4419 7.5934
O -4.84868 14.3437 -1.06685
H -4.51518 -14.8593 -1.59701
H -4.96375 13.5548 -1.67054
O -1.7811 12.6655 -12.1581
H -2.53377 12.0084 -12.116
H -1.86463 13.2153 -12.9892
O 4.09821 -7.11919 2.97399
H 4.14766 -6.12133 2.93106
H 3.16823 -7.39676 3.21506
O -8.61539 -4.16403 -10.6526
H -8.17725 -3.74517 -9.85724
H -8.76522 -5.13698 -10.4768
O -0.349094 2.68756 -5.53369
H -1.27882 2.32126 -5.57168
H -0.385437 3.67184 -5.36077
O -10.3436 -0.835411 9.28283
H -9.42825 -0.690813 9.65862
H -10.2773 -1.36872 8.4395
O -11.0168 4.48013 -6.80286
H -11.8228 4.42803 -6.21322
H -10.4492 3.66867 -6.6639
O 10.9087 -1.33378 13.8935
H 11.9005 -1.23585 13.8117
H 10.6965 -1.96557 14.6391
O 8.34642 -2.56752 -7.6092
H 8.91833 -2.18129 -8.33292
H 7.58388 -3.06848 -8.01858
O -6.58656 5.82246 -1.79896
H -7.10988 6.67284 -1.74425
H -5.75259 5.97779 -2.32848
O 8.26656 -5.4234 -10.9628
H 9.04778 -5.31962 -11.5784
H 8.50646 -6.05182 -10.2229
O -13.524 -3.83576 -4.9423
H -14.0787 -4.23389 -4.21169
H -14.0967 -3.24645 -5.51219
O 0.583412 2.35889 -13.2671
H 0.944534 2.92323 -12.5247
H 1.33204 2.08116 -13.8691
O -8.71166 -12.7783 2.58639
H -8.38669 -13.3456 3.34311
H -8.37389 -13.1505 1.72186
O -4.40702 -14.2253 -13.1891
H -5.2971 -14.68 -13.2207
H -3.68279 -14.9132 -13.1417
O 8.12718 -7.06864 -8.75385
H 8.52639 -7.96788 -8.93274
H 7.19495 -7.18032 -8.40963
O 6.13711 -8.99797 2.75478
H 5.49364 -8.24656 2.90086
H 5.64031 -9.86582 2.74874
O 11.6753 9.34765 -11.1854
H 11.9962 8.40646 -11.2911
H 11.1518 9.42796 -10.3372
O 9.9248 5.76393 5.0732
H 9.96793 4.76541 5.04009
H 9.90315 6.0652 6.0265
O 4.58194 -9.3875 -0.824191
H 4.12852 -9.2438 0.0554536
H 5.07108 -10.2596 -0.808521
O 10.4356 -8.44573 -4.71461
H 10.5119 -8.35734 -5.70777
H 11.3127 -8.74416 -4.33818
O -14.0774 -1.0035 -14.4076
H -13.5507 -0.316436 -13.9071
H -13.6362 -1.18685 14.6964
O 11.6774 10.6786 5.81579
H 10.8242 10.3388 6.21154
H 11.9406 11.529 6.27119
O -14.3021 -3.59512 -13.9319
H -13.4784 -3.91009 -13.4604
H -14.3103 -2.59546 -13.9567
O 0.600485 10.3052 12.8512
H 1.2061 10.2096 13.6412
H 1.03554 9.90053 12.0468
O -4.4944 5.75812 -3.41015
H -3.80058 5.1243 -3.06826
H -4.04798 6.51653 -3.88506
O -9.06728 9.4734 9.14789
H -9.41908 10.3089 9.56993
H -9.50641 8.67828 9.56618
O -5.49146 9.09949 -12.3514
H -6.01445 9.93741 -12.5076
H -5.56183 8.83714 -11.389
O -6.01253 -9.90265 4.49844
H -5.15303 -10.0428 4.00687
H -6.26916 -10.7471 4.96853
O 14.5321 -2.47664 10.2512
H 14.8807 -2.79894 11.1313
H 13.9876 -1.64963 10.391
O 3.77944 9.3324 8.83332
H 4.6986 8.98374 9.01663
H 3.20116 9.18585 9.63589
O 2.34148 5.1669 4.5254
H 3.24852 5.22303 4.94269
H 2.04214 4.21295 4.50561
O 13.8905 -1.51176 13.7166
H 14.3838 -1.04387 14.4499
H 14.4941 -2.18073 13.2829
O -10.9404 12.3408 8.22886
H -10.5885 12.3889 9.16369
H -10.1761 12.2634 7.58863
O 1.40751 13.9942 -12.6178
H 0.618487 13.4929 -12.2625
H 1.0959 14.6946 -13.2599
O 1.37442 5.7125 8.54493
H 1.43334 6.67133 8.26709
H 0.785728 5.63419 9.34949
O -3.94631 -6.82097 -12.9977
H -3.57708 -6.62123 -12.0901
H -3.2097 -6.78298 -13.673
O -14.937 -2.85643 7.40254
H 14.7994 -2.62102 8.34275
H 14.4939 -3.63294 7.09802
O 6.82706 14.4841 10.9819
H 7.55753 13.82 10.8225
H 6.41522 14.7429 10.1082
O 10.4393 9.52372 10.8125
H 9.86142 10.3381 10.7596
H 10.4348 9.17209 11.7487
O -13.2237 12.9444 0.606672
H -13.5016 13.8969 0.482073
H -13.8856 12.478 1.19346
O -8.62104 13.2339 2.02687
H -7.84731 12.7744 1.59076
H -9.44795 13.0803 1.48591
O -4.76619 -2.5831 -3.88136
H -4.53621 -1.60996 -3.87077
H -3.93681 -3.11995 -4.03609
O -7.71645 -0.666508 -5.3297
H -8.26679 -0.512188 -6.15027
H -7.83784 0.0992099 -4.69808
O 3.02862 7.89996 -10.5863
H 2.93532 8.40746 -11.4429
H 3.68099 7.15241 -10.7111
O 7.11989 8.83315 2.18286
H 6.60827 7.97782 2.10119
H 7.39109 9.14748 1.2731
O 2.45929 -7.62909 14.6202
H 1.87979 -7.05126 -14.7877
H 1.88407 -8.20789 14.0422
O 12.3762 2.63081 13.4245
H 13.0853 2.944 12.7927
H 11.8196 1.92916 12.9796
O 2.31684 6.97948 -1.80033
H 2.117 6.82351 -2.76767
H 2.95206 6.27942 -1.47411
O 9.33225 3.02145 -0.712215
H 8.38345 2.76163 -0.891869
H 9.94504 2.3258 -1.08714
O 14.6006 11.0068 -10.6236
H 13.8118 11.0553 -11.2363
H 14.3321 11.3118 -9.70986
O -4.76188 -0.244513 9.9918
H -4.94319 -0.937162 10.6899
H -4.26605 0.520735 10.4024
O 2.30359 -13.7159 0.857304
H 2.43516 -12.9863 0.186247
H 1.32686 -13.829 1.03955
O 2.85198 -11.9155 -1.48629
H 2.07657 -12.1111 -2.08672
H 3.67651 -11.7879 -2.03755
O -12.4938 -1.60864 -9.84137
H -13.2771 -1.35697 -10.4099
H -11.8691 -2.18318 -10.3701
O -11.9172 8.39318 5.10969
H -12.6988 8.30859 5.72782
H -11.0791 8.49947 5.64468
O -13.8535 -0.726606 -3.931
H -14.8112 -0.987249 -3.80919
H -13.2716 -1.33162 -3.38744
O -5.87496 11.9703 5.45252
H -5.93956 11.3065 4.70739
H -5.47405 12.8194 5.10864
O -11.2915 -13.0432 4.1182
H -10.6213 -13.037 3.37605
H -11.1613 -13.8615 4.67808
O -8.36891 12.2808 7.01856
H -7.83536 11.7696 6.34477
H -7.83726 13.0645 7.33958
O -8.81328 -8.71215 12.2652
H -9.14377 -8.98771 13.1679
H -8.1014 -8.0175 12.3687
O -7.25822 14.2075 -4.33346
H -7.76106 13.4907 -3.8504
H -7.11953 14.987 -3.7225
O 7.75743 10.4438 -0.15998
H 6.89257 10.7337 -0.56985
H 8.12716 11.1865 0.398354
O -12.4968 -7.19534 7.18708
H -11.7826 -7.80639 6.84575
H -13.2238 -7.73604 7.6103
O 6.34584 2.90406 2.37434
H 5.97557 2.59795 1.49729
H 6.87464 3.74191 2.2387
O 0.296827 5.36612 -3.86251
H 1.1537 4.85073 -3.87456
H 0.133298 5.71943 -2.9414
O 0.0879752 2.53099 -8.69626
H 0.412404 2.7446 -7.77477
H -0.911821 2.54654 -8.70958
O 2.24864 -0.941352 11.6885
H 2.93878 -1.48744 11.2136
H 2.24204 -1.18311 12.6588
O 7.31516 -10.4094 -7.86036
H 7.93936 -9.76979 -8.30904
H 7.21953 -11.2312 -8.42204
O 7.30713 12.8121 4.80504
H 7.56963 11.8758 4.57188
H 7.30709 12.9205 5.79915
O 10.7447 -7.91054 7.96665
H 11.6606 -8.30248 8.05325
H 10.6747 -7.09628 8.54292
O 1.20441 -13.862 -7.04503
H 1.90023 -14.5442 -7.26958
H 0.300547 -14.2164 -7.28465
O -2.72021 0.12788 6.66975
H -2.1527 -0.261155 7.39542
H -2.56588 1.11459 6.61871
O 8.04071 -11.8374 -12.2657
H 7.9115 -11.8446 -13.2573
H 8.91988 -12.2576 -12.041
O 1.74545 -9.39298 -0.562506
H 2.36305 -10.0669 -0.96801
H 1.17086 -9.8382 0.124255
O -14.2049 -3.25505 12.791
H -13.8017 -4.06609 12.3672
H -13.4768 -2.63692 13.0873
O 6.39452 -4.05374 -9.03314
H 5.6428 -4.60836 -8.67632
H 7.02221 -4.63596 -9.54988
O -1.91031 -12.7211 -0.721268
H -1.46664 -13.5822 -0.472779
H -2.13878 -12.2122 0.108695
O -3.13934 -9.79218 -12.9817
H -2.27314 -9.9785 -13.4454
H -3.40248 -8.84001 -13.137
O -3.51607 -8.48119 -8.92003
H -3.34106 -7.78154 -9.61276
H -4.38288 -8.93821 -9.11944
O -14.3814 -14.326 -1.63301
H -14.1341 14.9027 -2.24177
H 14.6369 -14.0952 -1.76299
O 9.7814 8.78115 -6.08732
H 9.85434 7.78444 -6.05159
H 9.11103 9.09068 -5.41293
O -11.2344 11.4937 -4.52259
H -10.6329 10.7297 -4.28931
H -11.0752 11.7655 -5.47169
O 12.571 -9.4821 4.50573
H 12.1728 -9.88384 5.33041
H 11.8566 -9.3584 3.81694
O -14.8787 -2.22482 -6.70201
H -14.7277 -2.66661 -7.58633
H -14.3916 -1.35179 -6.67805
O -9.46951 -7.09919 -6.60757