2611
Atoms. Timestep: 23000000
O -6.79089 13.1108 -10.5522
H -6.46018 13.5856 -9.73654
H -7.61534 13.5644 -10.8906
O -6.34932 -0.454775 -4.76341
H -7.17132 -0.437318 -5.33262
H -6.5681 -0.108163 -3.85128
O 13.727 13.6017 -10.6626
H 12.7274 13.6312 -10.6528
H 14.0867 14.529 -10.7662
O -2.23548 3.93135 12.1504
H -3.04585 3.48925 12.5349
H -2.27107 4.91307 12.3373
O 8.05294 12.3916 -11.7399
H 8.00079 11.9245 -10.8572
H 7.129 12.5528 -12.0868
O -1.75218 -4.64283 3.35799
H -1.62155 -5.20907 2.54418
H -1.36588 -5.10898 4.1539
O 2.66866 -8.74612 5.37454
H 2.2177 -8.33349 6.16597
H 3.07173 -9.62201 5.63974
O -8.18696 3.02052 -0.0643405
H -7.291 2.57879 -0.0183328
H -8.87017 2.43473 0.371623
O -8.32508 -5.82521 -2.08572
H -7.99333 -6.73788 -2.32437
H -8.0331 -5.17136 -2.78372
O 14.1793 -0.94768 -2.10507
H 14.6377 -1.47981 -2.81689
H 14.8583 -0.604784 -1.45591
O -3.13683 11.6927 -0.387494
H -2.37199 11.3906 -0.956497
H -3.59918 12.4605 -0.830836
O 14.8244 -1.06754 12.4887
H 14.6424 -1.87386 11.9259
H -14.2935 -1.09963 12.8224
O 14.3322 0.222361 -8.71425
H 14.7113 0.691466 -7.91662
H 14.1668 -0.737768 -8.48886
O 12.6057 -7.67363 -4.34064
H 12.7377 -7.38822 -3.39138
H 11.9721 -8.4467 -4.37123
O 0.449539 4.45994 -11.4802
H 0.393027 4.49578 -10.4825
H 0.422588 5.38899 -11.8492
O -12.8132 -6.94415 -6.14985
H -13.0465 -6.22563 -6.80504
H -12.6149 -6.53253 -5.26034
O 6.03197 -13.7748 4.59328
H 6.67384 -13.2586 4.02629
H 6.3012 -14.7377 4.60916
O 10.9509 12.2871 -1.51878
H 11.3682 13.0722 -1.97642
H 10.6825 11.6074 -2.20135
O -0.560843 10.5507 -11.9381
H -1.18224 10.8728 -12.6523
H -1.0172 9.84908 -11.3908
O 14.3373 2.44438 -10.4418
H 14.1851 1.67964 -9.8157
H -14.9847 2.21403 -11.0761
O -10.1128 -3.83907 1.92052
H -10.61 -4.33611 2.63166
H -9.29916 -4.35785 1.6581
O 3.68702 3.12806 -0.226697
H 2.89065 3.63861 -0.550904
H 4.4496 3.75803 -0.0797497
O 7.08722 9.43715 14.9451
H 7.66245 10.1893 14.6236
H 6.43022 9.19178 14.2322
O -6.38115 4.16486 8.55262
H -5.47787 3.7464 8.64734
H -6.5893 4.29257 7.5829
O -4.41716 3.33361 -9.64266
H -3.76971 3.9193 -9.15505
H -3.94523 2.51468 -9.9692
O 13.7597 -5.4661 -7.4581
H 14.3158 -4.71432 -7.10363
H 13.0997 -5.74937 -6.76231
O -7.94749 5.48017 1.07548
H -7.83209 4.56742 0.68364
H -8.49236 6.0432 0.454111
O -14.2714 5.5148 9.6585
H -13.7088 5.41854 10.4796
H 14.9007 5.90247 9.90641
O 1.86874 -9.09314 -10.4963
H 2.14415 -10.0537 -10.5354
H 1.06127 -8.95436 -11.0696
O -7.93078 14.4379 1.08863
H -8.34389 14.5191 1.99568
H -7.16232 -14.9866 1.01428
O 12.9353 2.53352 8.07784
H 12.2674 1.93968 8.52647
H 13.8441 2.12118 8.14199
O -9.87489 -1.30118 -1.06565
H -10.6691 -1.4695 -0.481797
H -9.77413 -0.317688 -1.21592
O -3.88491 -1.91128 6.08591
H -4.43827 -1.97739 5.25561
H -3.20081 -2.64065 6.08949
O -12.7519 -2.6739 -1.67451
H -11.8914 -2.58004 -1.17386
H -13.1976 -3.53016 -1.41355
O 6.58793 -11.9043 6.72022
H 6.72507 -11.0843 6.16454
H 6.20549 -12.6324 6.1513
O -10.9497 -2.58239 -12.9285
H -10.6217 -2.65332 -11.9865
H -10.4199 -1.8873 -13.4145
O 12.5549 -13.52 -8.39859
H 12.1882 -14.3648 -8.00893
H 12.1181 -13.3426 -9.2805
O 2.49992 3.03371 -5.35069
H 1.81447 3.55193 -4.83923
H 2.11994 2.14664 -5.61281
O -1.91398 12.3639 1.97502
H -2.59016 12.148 1.27064
H -2.13449 11.8646 2.81291
O 9.90066 -13.7627 9.6891
H 10.7618 -13.7082 10.1946
H 9.97435 -14.4638 8.97983
O -13.0042 2.26299 10.5417
H -12.073 1.91155 10.4456
H -13.2813 2.70985 9.6911
O 12.4724 8.39598 12.6414
H 12.816 7.45904 12.578
H 11.9582 8.50556 13.4921
O 13.3915 6.75343 -8.53913
H 13.6902 6.05401 -7.88986
H 13.0722 6.31414 -9.37882
O 6.28859 7.73072 5.00582
H 5.81839 8.47906 5.47367
H 7.09286 8.08768 4.53073
O -11.2173 -7.56677 -10.9804
H -10.2976 -7.94989 -10.8942
H -11.8901 -8.24542 -10.6857
O -13.9948 -8.58266 -10.0531
H -13.9713 -9.49108 -10.4705
H -13.9218 -8.67032 -9.05967
O -0.659784 13.6346 0.00992856
H -0.894275 13.2344 0.89581
H 0.187706 14.1586 0.0947586
O 12.1686 12.2591 4.25631
H 11.8202 11.6485 3.54511
H 11.8919 11.9169 5.15427
O -2.89878 7.90282 10.316
H -3.43604 7.3815 9.65298
H -2.80392 7.37276 11.1586
O 9.18447 -9.60833 -7.39601
H 9.92502 -9.0663 -6.9988
H 8.3389 -9.43901 -6.88972
O 9.76611 -7.39009 9.69295
H 9.20698 -7.73845 8.94062
H 9.75443 -8.04548 10.4481
O -3.71743 13.2966 11.8164
H -3.60102 13.0779 12.7853
H -3.86921 14.2796 11.7126
O -10.5568 -5.83107 13.7756
H -10.5685 -6.23583 14.69
H -11.045 -4.95851 13.7911
O -5.2873 10.0348 11.8866
H -5.35089 9.25147 12.5049
H -4.6395 9.82878 11.1532
O -0.229487 -2.70775 -13.2813
H -0.549998 -1.77977 -13.0913
H 0.0612735 -2.771 -14.236
O 4.09096 -14.1479 0.657543
H 4.07858 -13.1676 0.460063
H 3.41734 -14.3534 1.36746
O -0.91637 -13.0155 -13.1779
H -1.09004 -13.9982 -13.242
H -1.01875 -12.7202 -12.228
O -4.81522 -8.93436 2.05176
H -3.81988 -8.86804 1.98185
H -5.05676 -9.51686 2.82786
O 2.28207 9.96971 11.7493
H 1.40359 9.91967 12.2244
H 2.23441 9.43805 10.9036
O 5.72493 -11.0304 -12.9785
H 5.38651 -10.1331 -13.2618
H 6.64619 -11.1691 -13.3418
O 0.864078 8.42222 -1.33847
H 0.162681 8.15392 -1.9988
H 1.28244 9.28314 -1.62789
O -8.30519 7.72184 6.16368
H -7.4799 7.16053 6.22532
H -8.4842 7.94729 5.20602
O -8.11612 12.0247 -2.55136
H -7.51369 12.7466 -2.89186
H -7.86946 11.1553 -2.97939
O -2.16073 -4.38366 9.08606
H -2.88916 -3.77393 9.39847
H -1.42387 -4.39632 9.76197
O -2.57273 6.82138 -14.0191
H -3.49525 6.74008 -13.6419
H -2.34229 5.98652 -14.519
O -8.62119 4.7389 10.0689
H -7.80358 4.29232 9.70547
H -9.26348 4.91612 9.32319
O -7.33348 0.240112 -2.02198
H -6.92493 0.598034 -1.18236
H -7.41345 -0.754495 -1.95605
O 10.3461 -9.2151 -14.0328
H 10.2613 -8.30072 -14.4286
H 10.4131 -9.1426 -13.0377
O 14.9786 -13.9988 5.60737
H 14.8991 -13.9085 4.61463
H 14.3701 -14.7256 5.92576
O 12.0939 9.42603 6.0747
H 11.521 9.61447 5.27708
H 11.6088 8.8103 6.69559
O -0.207593 -6.24278 -1.40626
H -0.0382743 -5.51138 -2.06685
H 0.31846 -7.05318 -1.66414
O 7.65802 2.1856 8.52024
H 7.27424 3.06103 8.22645
H 7.81199 2.2039 9.50814
O 2.70641 5.50739 3.71038
H 3.40592 5.93135 3.13512
H 3.14665 4.99913 4.45054
O -0.789605 -9.34146 8.71842
H -0.381655 -9.80782 9.50332
H -1.66364 -8.93737 8.98815
O 6.56097 -8.36112 -6.7216
H 7.18453 -8.07873 -5.99261
H 5.91984 -9.04161 -6.36682
O 10.4811 0.949387 8.32878
H 10.8724 0.586596 9.17451
H 9.60174 1.38223 8.5272
O -14.1268 3.19169 8.20708
H -14.0906 3.33006 7.21736
H -14.1303 4.07921 8.66781
O 1.16986 3.49008 -14.232
H 1.07656 3.77316 -13.2775
H 1.04703 4.28328 -14.8284
O -9.94426 -3.95654 8.15638
H -10.7535 -3.57895 8.60635
H -9.99562 -4.9552 8.1613
O -4.94871 11.4596 -7.57606
H -4.14161 11.1473 -8.07712
H -5.75809 10.9809 -7.91623
O 12.6724 -3.80612 -14.3375
H 11.7629 -3.87798 -14.7468
H 12.6956 -4.32567 -13.4834
O -13.8036 12.3515 3.76513
H -14.6504 12.8725 3.65859
H -13.9933 11.3777 3.63984
O 7.0783 0.126071 -11.996
H 7.9797 0.415323 -12.3182
H 6.72137 -0.586574 -12.6
O 2.85594 -9.69788 12.0197
H 3.26232 -10.2853 11.3199
H 3.53557 -9.03532 12.3345
O 4.31859 -3.29906 10.6592
H 3.93618 -3.88175 9.94214
H 4.48906 -2.38526 10.2906
O -4.1797 -14.0575 -11.0172
H -3.26715 -13.8977 -10.6407
H -4.79857 -13.335 -10.709
O 5.39408 -7.85215 12.6737
H 6.12604 -8.26007 13.2194
H 5.46527 -6.85545 12.7124
O -3.18573 -12.4254 0.82236
H -3.95149 -11.8391 0.557991
H -2.88044 -12.9527 0.0294508
O 5.43723 14.0382 2.25292
H 4.86879 14.4824 1.56046
H 4.90129 13.9005 3.08586
O 9.40849 6.08844 13.976
H 10.3308 5.89576 14.311
H 8.83771 5.27451 14.0842
O -7.06639 -3.08812 -3.37229
H -6.43916 -2.4512 -3.82051
H -7.2918 -2.74718 -2.45963
O 5.91036 -3.58298 -0.311205
H 5.95295 -2.59786 -0.144746
H 6.05486 -3.76316 -1.28416
O -8.77627 -4.50278 12.0458
H -8.80001 -4.58295 13.0423
H -8.93774 -5.40021 11.6352
O -12.5669 2.71583 -0.133945
H -13.4916 2.98663 0.133642
H -11.9237 3.44211 0.108342
O -14.2301 2.63473 12.9902
H -13.6991 2.55185 12.1469
H -13.6491 3.00529 13.7148
O -1.06467 5.72567 9.12427
H -1.63484 6.22904 9.7735
H -1.57551 5.57694 8.27756
O -11.8399 13.7903 -2.8243
H -11.6488 12.8988 -3.23514
H -11.0594 14.075 -2.26774
O 3.78431 -3.2714 13.4763
H 3.64033 -3.3743 12.4921
H 3.63061 -4.14957 13.9293
O -8.51364 -12.635 -8.03956
H -8.48585 -11.763 -7.55087
H -8.13557 -12.5149 -8.9575
O -10.7925 6.44469 5.99542
H -11.0772 6.40436 5.03766
H -9.97261 7.01153 6.07585
O -10.8071 -10.5565 -4.83415
H -11.5338 -11.0442 -5.31801
H -11.1291 -9.64429 -4.581
O -14.1127 -9.40731 3.7739
H -13.7743 -9.55561 4.70314
H -14.5935 -10.2259 3.45966
O -7.70498 -10.3073 -1.25811
H -8.34184 -10.9026 -1.74802
H -8.20552 -9.77153 -0.578093
O 10.3903 4.12828 10.4216
H 11.1899 4.22644 9.82916
H 9.90173 4.99949 10.4692
O -12.4787 -5.72172 -3.48618
H -13.2035 -6.408 -3.42502
H -12.1483 -5.50321 -2.56801
O 7.72137 -10.2164 -3.64388
H 8.65401 -10.5202 -3.83841
H 7.32775 -10.7883 -2.92421
O 7.46521 13.9761 10.8853
H 7.98756 13.4149 10.2432
H 7.84965 14.8988 10.9107
O 2.40644 -6.61588 -13.4669
H 2.69366 -7.52146 -13.1548
H 1.8819 -6.16522 -12.7446
O 6.57964 1.81026 -6.73466
H 6.95145 2.643 -6.32443
H 7.12194 1.56352 -7.53779
O 1.89279 14.2446 -0.651834
H 2.6839 14.7155 -0.26152
H 1.94829 14.2709 -1.64994
O 9.90556 -9.84264 4.2517
H 9.20323 -9.18272 3.98483
H 9.99419 -9.8506 5.24772
O 12.4144 -1.39643 13.6778
H 13.2616 -1.08258 13.2492
H 12.4027 -2.3961 13.7004
O -4.61838 6.53814 8.64524
H -4.20315 6.32034 7.76199
H -5.41655 5.95373 8.79148
O -2.5228 6.59566 12.8439
H -1.75844 7.20154 13.0644
H -3.38224 7.03403 13.1069
O 5.71808 13.5561 -9.94117
H 5.52085 13.5423 -10.9214
H 6.60401 13.993 -9.78554
O 2.24305 12.3779 10.2733
H 2.8119 13.0957 10.6748
H 2.22767 11.585 10.8825
O 11.5401 -5.31454 9.72524
H 12.3767 -5.271 9.17904
H 11.0821 -6.18877 9.56429
O -10.2726 6.44342 3.09802
H -10.4165 5.55506 2.662
H -10.8486 7.12979 2.65409
O -7.54891 9.05809 0.254692
H -7.68442 10.0231 0.479102
H -6.70306 8.73311 0.677686
O 2.9236 -13.5875 -4.46031
H 3.57924 -12.8393 -4.56139
H 2.82032 -14.0607 -5.33521
O -5.3527 -10.8683 0.0809228
H -5.17915 -9.94965 0.43592
H -6.07767 -10.8284 -0.606695
O -4.62829 -6.98945 -5.56646
H -5.22362 -6.517 -6.21635
H -4.32116 -6.34486 -4.86635
O -5.63372 -14.6267 9.99579
H -6.34494 -14.9299 10.63
H -4.79127 -14.4437 10.5025
O 2.42469 8.13363 14.9083
H 1.49332 7.89543 -14.8764
H 2.73554 7.49937 14.2005
O 4.42634 -2.77458 -12.2351
H 5.11102 -3.48422 -12.4013
H 3.83426 -3.05323 -11.479
O -14.3026 -5.38603 14.84
H -14.1025 -6.01207 14.0863
H 14.8154 -5.52352 -14.9137
O -4.05677 12.8643 -4.86722
H -3.06981 12.9935 -4.96308
H -4.43079 12.5067 -5.72293
O -0.508439 11.8324 -2.34422
H -0.183632 12.5324 -1.70831
H -0.913853 12.2722 -3.14555
O 9.7671 1.93121 -0.511238
H 9.18134 2.44028 0.119407
H 10.1377 1.12709 -0.0464348
O -8.47016 -8.8807 -10.61
H -7.94192 -9.0207 -11.4474
H -8.90319 -9.74109 -10.3413
O -6.50552 -3.83125 -10.8639
H -6.92538 -3.77156 -9.95832
H -5.65971 -4.36145 -10.8049
O 11.1424 10.4454 -10.7393
H 11.2522 9.92972 -11.589
H 11.4513 9.88795 -9.96876
O -10.6965 -8.27262 -1.0839
H -10.261 -7.82141 -0.304943
H -11.6743 -8.06347 -1.08629
O 9.40779 7.68127 5.22914
H 8.74567 7.12657 5.73301
H 10.2124 7.12734 5.01509
O 11.0826 13.2245 10.1838
H 11.4979 13.8448 9.51849
H 10.7875 13.7444 10.9854
O -0.683749 -12.3315 -6.53951
H -1.53296 -11.8585 -6.77428
H -0.625097 -12.4382 -5.54696
O -3.52079 -1.76887 -7.48589
H -3.99331 -1.1388 -6.86967
H -4.16586 -2.11583 -8.16668
O 3.67841 -7.55159 -0.86791
H 4.6072 -7.18987 -0.78728
H 3.22427 -7.13177 -1.65371
O -13.4755 4.16716 2.62711
H -14.2369 4.0816 1.98452
H -13.5441 5.0396 3.11097
O -2.04028 -9.15779 1.91573
H -1.66067 -10.0375 2.20209
H -2.12049 -9.13793 0.919153
O -13.1927 -11.8624 -6.07074
H -13.4122 -12.3994 -6.88524
H -13.8621 -12.056 -5.3535
O -9.83351 4.30051 -1.65438
H -10.309 3.83468 -2.40066
H -9.08439 3.72525 -1.32595
O -13.2962 8.92753 10.6313
H -14.2775 9.07535 10.5084
H -13.1015 8.7706 11.5995
O -0.412872 -11.5494 -0.813955
H -1.21275 -11.971 -1.24108
H 0.369417 -11.6155 -1.43334
O 8.4021 -11.3776 -13.4512
H 8.57759 -11.0265 -12.5314
H 9.06092 -10.9812 -14.0906
O -7.84987 11.6456 1.28654
H -6.91513 11.7843 1.61365
H -8.12224 12.4212 0.717067
O 8.5299 12.1319 9.24541
H 9.46649 12.4774 9.18728
H 8.47578 11.2388 8.79868
O -0.242399 1.36501 6.77945
H 0.124633 1.44357 7.70633
H -0.457705 0.40778 6.58624
O -11.4962 -3.54327 -5.40592
H -11.582 -4.41617 -4.92565
H -11.7933 -2.80145 -4.80471
O -14.2091 -4.91221 -0.336681
H -13.5347 -5.64493 -0.245893
H -14.5594 -4.66771 0.567478
O -5.51565 -2.51221 3.95364
H -5.0749 -2.89398 3.14125
H -6.46477 -2.2807 3.74019
O 12.5491 -12.8087 -5.89848
H 12.6242 -13.0313 -6.87049
H 13.3382 -13.1803 -5.40944
O 5.73441 11.1765 8.61986
H 6.66256 11.1153 8.25273
H 5.69337 10.7075 9.50212
O -7.32692 -9.66199 10.1155
H -7.63323 -10.3851 10.7346
H -6.38416 -9.84115 9.83428
O 2.89913 10.7392 -7.11507
H 3.22629 10.7718 -8.05947
H 3.35162 11.4532 -6.58075
O 8.57029 10.6468 11.4675
H 8.20699 11.3409 10.846
H 9.33424 11.0309 11.9861
O -8.85649 5.96985 -8.59864
H -9.74155 5.89399 -8.13939
H -8.12596 5.746 -7.95351
O -5.94365 5.53004 -10.6371
H -5.52195 4.69219 -10.2904
H -6.05486 6.18213 -9.88712
O 4.00422 -2.84106 2.72802
H 3.08195 -3.07378 2.41939
H 4.51601 -3.68035 2.91147
O -10.7176 -11.8214 9.38773
H -10.049 -11.8384 10.1312
H -10.4022 -11.2006 8.66999
O -8.1505 -3.56373 14.8295
H -7.95748 -4.19812 -14.4819
H -8.92225 -2.97879 -14.981
O 12.3314 3.40796 -3.24266
H 13.2848 3.29196 -3.52117
H 11.8676 2.5223 -3.26471
O 5.56101 -0.927397 -14.0806
H 5.03237 -1.4278 -13.395
H 5.64908 -1.48518 -14.9059
O -12.8733 -11.9591 7.51997
H -12.2592 -11.8843 8.30564
H -12.6647 -12.795 7.01224
O -11.2431 8.21383 -6.90082
H -11.1933 7.29879 -7.30107
H -10.4583 8.75382 -7.20489
O 0.0773276 3.67433 -8.88484
H -0.0461518 2.72084 -9.15976
H 0.540717 3.70857 -7.99936
O -0.0974616 -2.61144 4.20782
H -0.272185 -1.77753 3.68433
H -0.72457 -3.33051 3.90837
O 1.51036 -3.56138 -8.18348
H 0.590591 -3.30516 -8.48074
H 2.16564 -3.35197 -8.90925
O -10.7233 -7.75873 -3.92942
H -10.5907 -8.18075 -3.03259
H -11.4558 -7.08025 -3.8735
O -0.864613 7.66516 -3.44068
H -1.73816 8.04202 -3.74869
H -1.00946 6.7476 -3.07042
O 5.46863 10.5666 -12.919
H 5.77352 10.0082 -13.6905
H 5.47622 10.0152 -12.0848
O -10.0428 3.59158 12.2804
H -9.61682 3.93752 11.4444
H -9.73735 4.13744 13.0606
O 1.0122 12.9797 -6.11341
H 1.22494 13.8401 -6.5765
H 1.43117 12.2206 -6.6116
O -7.11427 1.33626 11.3661
H -6.31942 1.54993 11.934
H -7.64253 2.16989 11.2049
O 3.33544 -8.8121 -8.08086
H 2.7438 -8.67549 -7.28633
H 2.77589 -8.86481 -8.90797
O -1.66935 -0.965715 -9.85263
H -2.04759 -1.3824 -9.02602
H -0.674156 -1.06353 -9.84978
O 0.100001 -10.1147 6.25083
H -0.416426 -9.97315 7.09538
H 0.641114 -9.29802 6.05021
O -8.30005 -4.06773 -8.78098
H -8.3726 -3.11594 -8.48295
H -8.17626 -4.6582 -7.98348
O 9.2093 6.68538 -11.3479
H 8.69129 6.57149 -10.5002
H 9.05517 7.60396 -11.7118
O -5.3243 -7.36133 -13.7708
H -6.0498 -7.76725 -13.215
H -5.72284 -6.70501 -14.4114
O 6.71077 13.7045 5.23782
H 7.64366 13.851 4.90881
H 6.60694 14.12 6.14146
O 2.23684 14.2177 -3.36473
H 2.42966 13.5216 -4.05628
H 2.36692 -14.9335 -3.76123
O -6.02146 7.73334 -8.78842
H -6.39672 7.91163 -7.87882
H -5.1956 8.28126 -8.92154
O -1.85996 7.285 4.4694
H -2.09908 7.23983 3.49946
H -0.867493 7.36176 4.56479
O -4.59174 -13.8703 -6.57865
H -5.01651 -13.6955 -5.69039
H -4.6314 -13.041 -7.13604
O 7.7336 -0.254439 1.64726
H 7.6896 -0.167429 0.65203
H 8.65823 -0.52244 1.91785
O -7.37064 11.9856 9.59231
H -6.64799 12.0772 8.9072
H -8.25758 12.167 9.16753
O -6.46936 9.62845 7.12316
H -7.24864 9.27777 6.60379
H -6.36833 9.10312 7.96803
O 5.72641 -12.6897 13.3117
H 5.24814 -12.9628 12.477
H 5.16029 -12.9077 14.1066
O 13.4975 1.18205 0.873015
H 12.718 0.66166 0.524377
H 13.9106 0.690271 1.6395
O -4.80861 -8.46457 12.6619
H -3.8578 -8.45526 12.9715
H -4.90839 -7.85744 11.8736
O -8.37988 9.03286 -10.1589
H -8.52539 9.93069 -9.74328
H -8.02382 8.40077 -9.47063
O -2.67499 10.8026 4.44751
H -3.38109 11.0253 5.11967
H -1.90024 10.3702 4.90878
O 7.40988 -1.36812 -8.61048
H 7.36735 -1.70185 -7.66877
H 6.48224 -1.25884 -8.96759
O -5.34919 11.7688 2.16374
H -5.2459 10.775 2.1232
H -4.86649 12.1858 1.3936
O 0.933113 7.86959 6.15986
H 1.23132 7.06755 6.67736
H 1.57179 8.03821 5.4091
O -2.8211 -8.08764 -0.573582
H -3.71217 -7.73553 -0.859922
H -2.18682 -8.0573 -1.34608
O -2.41553 -14.144 -8.91659
H -1.7924 -14.9208 -9.00711
H -2.7728 -14.1103 -7.98321
O 8.79033 -13.5716 1.36764
H 9.44653 -14.3075 1.20091
H 7.94857 -13.7542 0.859621
O 10.6194 -7.29752 -6.45329
H 10.1669 -6.41179 -6.5566
H 11.464 -7.18135 -5.93058
O 10.8046 13.7066 -10.7632
H 10.7637 12.854 -11.2842
H 10.3706 13.5738 -9.87215
O 7.21287 -14.2454 -13.089
H 7.49003 -13.3702 -13.4856
H 6.24578 -14.4084 -13.2842
O 6.1477 -13.9657 -8.12454
H 5.67984 -13.0823 -8.15067
H 6.37181 -14.2518 -9.05614
O -9.3436 2.0754 -10.0542
H -10.3294 2.23736 -10.0109
H -8.95096 2.60784 -10.8041
O 14.7836 9.68728 6.67685
H -15.0152 10.6397 6.8335
H 13.7951 9.63164 6.536
O -9.14726 -6.16946 5.30502
H -8.7431 -6.95321 4.83345
H -9.17388 -6.34955 6.2883
O -1.1184 -6.55941 -9.7657
H -1.70476 -5.78031 -9.98744
H -1.16497 -6.7428 -8.78377
O -14.956 -2.10625 -4.99046
H 14.3163 -1.62199 -5.37121
H -14.6671 -2.82333 -5.62475
O 11.2735 -1.5125 -13.9795
H 11.3426 -1.27668 -14.9488
H 11.8683 -2.29195 -13.7828
O 4.44248 1.06068 -12.086
H 5.33775 0.616095 -12.0571
H 4.09182 1.04333 -13.0223
O 13.3469 -0.282158 -11.9377
H 12.6902 0.0499061 -11.2606
H 13.0133 -0.0719652 -12.8567
O 12.0411 2.49664 12.5169
H 12.3442 1.73841 11.9396
H 11.4835 3.12564 11.9752
O -9.22435 -9.49029 8.08194
H -8.49974 -9.29555 8.743
H -9.04564 -10.3698 7.64093
O -6.17748 -10.522 -8.15575
H -6.88496 -10.9694 -8.70277
H -6.25641 -9.5301 -8.2557
O 5.14013 1.12371 5.10567
H 4.99374 0.134956 5.07535
H 5.15617 1.487 4.17415
O -7.74759 9.48216 14.1089
H -8.02944 9.75616 13.1894
H -7.94638 10.2212 14.7526
O -10.4206 -6.6837 -13.4259
H -10.7948 -6.55828 -12.5071
H -10.4839 -7.64806 -13.6828
O 2.49636 -10.4369 2.8288
H 2.64647 -11.2699 3.36127
H 2.787 -9.64302 3.3629
O 2.06444 -1.76675 6.68124
H 1.35204 -2.35903 6.30484
H 1.95918 -1.70828 7.67396
O 13.0139 13.6455 12.5852
H 13.5639 13.3752 13.3754
H 12.4958 14.4717 12.8067
O -2.57873 -8.09255 5.31974
H -2.02035 -8.29922 4.51632
H -2.05304 -7.52586 5.95417
O 13.3405 -1.43655 6.07336
H 13.9435 -0.71126 6.40559
H 13.8162 -2.31469 6.12382
O -10.8396 -13.2297 -1.35889
H -10.2479 -14.0219 -1.50811
H -11.7859 -13.5355 -1.25414
O 11.4572 8.92721 -4.76939
H 12.4492 9.05262 -4.78064
H 11.0279 9.70637 -4.31266
O -9.12359 -11.9042 -3.23631
H -9.6911 -12.4619 -2.6306
H -9.70967 -11.3205 -3.79834
O -9.63358 12.7281 -12.3483
H -10.5969 12.6635 -12.6086
H -9.55781 12.7406 -11.3513
O 13.4735 -10.8862 -7.51893
H 12.8121 -11.5601 -7.18983
H 14.2266 -10.8116 -6.8653
O -0.082601 -7.99975 3.27863
H 0.767759 -8.1926 2.78905
H -0.828961 -7.89428 2.62151
O 12.259 -13.6016 1.37079
H 11.6355 -14.2919 1.73793
H 11.9466 -12.6916 1.64335
O 13.2454 -6.46941 1.29579
H 12.2933 -6.6058 1.56932
H 13.4089 -5.49667 1.13139
O -10.6403 -14.91 10.7498
H -9.77364 -14.9603 11.2461
H -10.6978 -14.0361 10.2672
O -3.38137 12.5074 9.05102
H -3.79419 13.0065 9.81291
H -4.08103 12.3083 8.36485
O 4.10499 6.95314 1.93285
H 4.0202 6.99937 0.937535
H 3.76723 7.80366 2.336
O 0.217958 4.83201 13.6489
H -0.713532 4.46872 13.6307
H 0.274168 5.63495 13.0555
O 7.07417 -7.87699 -9.18853
H 6.9649 -8.05224 -8.2101
H 7.33951 -8.72295 -9.65107
O 1.82434 7.95526 -8.66949
H 1.55141 8.70551 -9.27167
H 2.74311 7.64714 -8.91628
O -9.74485 8.72921 -4.37831
H -10.2355 7.94769 -3.99301
H -10.072 8.9032 -5.30711
O 1.12407 -8.7079 -1.89933
H 1.97628 -8.57094 -2.40426
H 1.33216 -8.90201 -0.940679
O -8.53728 4.66237 -11.2319
H -7.61304 5.04328 -11.2579
H -8.99287 4.95035 -10.3896
O 11.0278 -3.73556 -8.74874
H 10.617 -4.26648 -8.00758
H 11.8237 -4.22368 -9.10695
O 12.2367 9.0868 -13.2639
H 12.7384 8.23928 -13.0908
H 11.6359 8.96305 -14.0537
O -2.47688 11.1499 -13.7882
H -2.84546 10.3119 -13.3858
H -3.20536 11.6365 -14.2704
O -0.810192 7.3684 0.918861
H -1.76244 7.64596 1.04605
H -0.488841 7.67983 0.0245831
O -14.3309 -2.9224 7.13996
H -13.5169 -2.75929 6.58242
H -14.3294 -2.2994 7.92216
O -4.45085 -14.1974 14.311
H -3.84306 -13.4087 14.4036
H -5.29124 -13.9178 13.8466
O 11.9461 -13.4997 -1.48625
H 12.5221 -12.7368 -1.7798
H 11.9821 -13.5806 -0.490186
O 4.27946 14.8498 -6.50323
H 3.80396 14.359 -7.23333
H 5.08381 -14.7505 -6.87958
O -6.71589 -0.553784 9.33094
H -7.35074 -1.28596 9.5777
H -6.96499 0.282208 9.81987
O -7.12184 -8.14587 14.0736
H -7.04556 -7.27287 14.5553
H -6.36127 -8.23963 13.4311
O -3.82572 -2.20239 -10.7792
H -4.56227 -1.7558 -10.2712
H -2.94255 -1.89915 -10.4213
O -4.73905 -4.67494 -0.86796
H -5.0657 -5.59926 -0.670693
H -4.61837 -4.17408 -0.0108968
O 9.20293 -9.39323 11.3621
H 8.75247 -9.62558 10.5
H 8.75192 -9.87404 12.114
O -13.715 -9.81398 11.2715
H -12.7365 -9.98885 11.1621
H -13.9358 -9.75285 12.2449
O 3.97828 5.38337 -2.99455
H 4.23471 6.02159 -3.72043
H 3.79614 4.48352 -3.39089
O 12.7823 -8.37986 -8.77401
H 12.2571 -8.922 -8.11812
H 13.7458 -8.64366 -8.72868
O -9.17165 -0.596757 -9.99567
H -9.40756 0.362116 -10.1534
H -8.50503 -0.892914 -10.6797
O -7.75134 -12.9407 -13.3135
H -7.17624 -13.6432 -13.7327
H -7.32379 -12.0447 -13.4333
O -14.0203 5.19943 -9.93657
H -14.3817 4.27666 -10.0703
H -14.6122 5.70103 -9.30568
O -14.4131 -1.12667 9.7647
H -14.1974 -0.608771 10.5925
H 14.7547 -1.56606 9.86949
O 8.64814 13.6272 -14.2685
H 8.67976 13.1258 -13.4039
H 8.15021 14.4846 -14.1386
O 7.58647 -14.5092 -10.4838
H 8.28095 -13.8265 -10.2567
H 7.51072 -14.5898 -11.4777
O 5.17811 -0.907308 1.13001
H 6.0932 -0.679952 1.46305
H 4.76927 -1.5993 1.72498
O -5.63537 4.67714 -4.45813
H -4.8089 4.18394 -4.72959
H -6.24752 4.05707 -3.96745
O -11.4143 2.48633 14.5318
H -12.0187 1.69013 14.5589
H -11.1011 2.63526 13.5938
O 8.34977 6.52617 -8.69709
H 7.98349 5.78789 -8.13072
H 8.56987 7.31191 -8.11903
O -12.505 -14.8577 1.89239
H -12.759 -14.4044 1.03799
H -11.9507 14.3951 1.68949
O 1.61737 -8.12276 7.84982
H 0.847181 -8.63978 8.22328
H 1.67244 -7.23294 8.30278
O 2.57648 11.2257 -0.881484
H 2.38338 11.0684 -1.84997
H 2.41317 12.1873 -0.660878
O -11.3903 -5.43237 3.79853
H -10.4967 -5.59673 4.21618
H -12.1059 -5.54211 4.48836
O -12.5142 12.0223 -12.1675
H -12.544 11.033 -12.0249
H -12.8246 12.488 -11.3388
O 6.15355 3.24244 10.9052
H 6.1016 3.84348 10.1077
H 6.25295 3.79475 11.7329
O -2.00908 -4.9253 -12.515
H -2.6207 -5.16279 -13.2697
H -1.53674 -4.0694 -12.7255
O -7.80064 7.43582 -14.2586
H -7.62771 8.14933 -14.9375
H -6.93306 7.02481 -13.9786
O 10.0109 4.1711 -10.3331
H 9.60888 5.05024 -10.5891
H 9.57927 3.44056 -10.8623
O -9.24548 -10.1734 -7.35929
H -10.1442 -10.5038 -7.64757
H -9.23961 -10.046 -6.36747
O -13.0214 4.61523 -14.7749
H -12.7405 4.44238 -13.8308
H -12.3475 4.22205 14.6596
O -1.46587 -1.15331 7.474
H -1.17932 -2.05806 7.15889
H -2.46284 -1.12601 7.54675
O -3.48404 -9.34954 -12.6442
H -3.30464 -10.1401 -13.2297
H -3.78581 -8.57983 -13.2068
O 14.1838 4.63596 13.5654
H 14.5706 5.41391 13.0703
H 14.7404 3.82273 13.3957
O 3.89196 8.62248 -5.37484
H 3.63961 9.30083 -6.06487
H 3.07442 8.12911 -5.07784
O -5.85507 1.54286 0.613251
H -4.92768 1.17137 0.657166
H -6.20452 1.67733 1.5405
O 1.0775 0.786264 -6.49794
H 1.7159 0.406448 -7.16739
H 0.195809 0.321122 -6.57695
O -12.5013 11.9229 -5.72038
H -13.474 11.8218 -5.51148
H -11.9623 11.7257 -4.90152
O 10.9964 11.3337 12.6106
H 11.0089 12.3332 12.5838
H 11.8174 10.978 12.1639
O -9.37792 3.0099 -13.3428
H -9.89834 3.10224 -14.1917
H -9.4333 3.86266 -12.8235
O -4.92697 5.81367 2.29054
H -4.89969 4.90282 2.70237
H -5.78267 5.92554 1.78532
O 15.0042 -14.0762 2.73886
H 14.4511 -14.9065 2.67082
H -14.1329 -14.2619 2.40135
O -9.5153 -7.51784 11.9183
H -8.54825 -7.49043 11.6653
H -9.66618 -6.94122 12.7213
O 1.03003 1.67157 9.2079
H 0.452528 1.824 10.0099
H 1.40612 2.54451 8.89721
O 2.59193 -7.2419 1.67777
H 3.35401 -7.58806 2.22493
H 2.71963 -7.50807 0.722352
O 0.25937 8.60262 9.93914
H -0.649436 8.93928 9.69272
H 0.922331 8.89906 9.25169
O 6.97668 1.31867 14.0732
H 6.50754 1.06785 13.2265
H 6.96839 0.54098 14.7018
O -7.73103 -4.86564 0.474774
H -7.90201 -5.29091 -0.413988
H -7.32791 -5.53904 1.09446
O 9.40602 -0.552087 -7.0246
H 10.1558 -0.3573 -7.657
H 8.53772 -0.529936 -7.52012
O 10.6182 8.98382 10.6455
H 11.1492 8.78309 11.4688
H 9.79956 9.50123 10.8948
O -2.90711 1.22733 -10.548
H -2.49374 0.316957 -10.5663
H -2.3662 1.85041 -11.1129
O -5.9322 -1.00552 -9.09451
H -5.73156 -0.120799 -8.6738
H -6.74518 -0.923735 -9.67101
O 9.80254 -6.9886 14.7607
H 10.5231 -7.20143 14.1008
H 9.61513 -6.00647 14.7444
O -14.5087 -7.63118 -3.38698
H -14.9274 -7.9874 -4.22235
H 14.9618 -6.92573 -2.99341
O -9.27381 11.8066 5.61261
H -9.8243 12.5506 5.99117
H -9.03052 11.1674 6.34219
O -13.4976 8.27564 13.5882
H -13.7884 7.71574 14.3641
H -13.0044 9.07859 13.9229
O -5.36263 -11.2246 -11.6162
H -5.09053 -10.2966 -11.3618
H -4.58619 -11.6971 -12.0331
O -1.99669 10.1554 8.8773
H -2.50303 9.29863 8.97481
H -2.62796 10.9267 8.95835
O 1.80012 12.2988 5.7969
H 1.94534 11.3104 5.8406
H 1.37806 12.6116 6.64778
O -0.647414 1.89501 11.2488
H -1.19325 2.69362 11.5024
H -1.18439 1.0642 11.3951
O 4.36563 9.63808 5.9232
H 3.9135 9.98364 6.74548
H 3.74937 9.72875 5.1409
O 0.189584 6.82109 -6.9001
H 0.518743 6.74648 -5.95879
H 0.90362 7.22511 -7.47185
O 7.75465 4.8085 -6.58846
H 6.76744 4.7717 -6.74351
H 7.95663 4.5131 -5.65469
O 14.4546 -5.71852 11.8603
H 14.3182 -6.12722 10.9579
H -14.7623 -6.07448 12.2634
O -1.92895 -9.75755 -8.59715
H -2.16798 -8.88502 -8.17108
H -1.21477 -9.60981 -9.28133
O 7.12017 7.4109 8.3625
H 7.75486 7.30596 9.12809
H 6.97676 8.38346 8.17934
O 8.58681 -5.82861 -2.057
H 8.25963 -6.32226 -2.86276
H 8.33504 -4.86376 -2.13224
O 6.69355 4.5797 8.46741
H 7.01113 5.50014 8.69524
H 6.10054 4.62122 7.66329
O 2.34983 2.22292 -10.6652
H 3.16677 2.13428 -11.235
H 1.85537 3.05439 -10.9184
O -9.54977 -3.42167 5.507
H -9.25333 -4.27526 5.07862
H -9.63145 -3.55522 6.49466
O 3.82793 -11.2977 -5.37334
H 2.95474 -10.9148 -5.67494
H 4.3781 -11.5424 -6.17171
O 10.9523 11.6599 1.06366
H 11.3757 10.7851 1.29915
H 11.0947 11.8483 0.0919545
O 11.2843 -8.31897 12.6042
H 10.4908 -8.74557 12.1701
H 11.9729 -8.11162 11.9094
O -14.8881 -6.7467 -11.891
H -14.1468 -6.07788 -11.9468
H -14.6797 -7.41656 -11.1784
O -10.7923 11.3097 -3.60807
H -9.92945 11.6874 -3.27211
H -10.6785 10.3341 -3.79551
O -4.38477 1.78573 12.1722
H -4.09727 1.69264 11.219
H -3.81112 1.20661 12.7515
O -3.14169 14.7729 -0.862859
H -3.81063 14.6944 -0.123718
H -2.26828 14.3883 -0.564219
O 2.70485 2.44088 5.74793
H 1.95452 1.82425 5.50968
H 3.57707 2.00813 5.52003
O -2.73252 0.225565 13.7823
H -2.69302 -0.764608 13.9164
H -1.96487 0.656978 14.2563
O -11.6709 12.3431 1.77045
H -11.2374 11.5006 2.09039
H -12.299 12.6815 2.47106
O -3.21185 -2.37565 14.2756
H -3.34458 -3.26741 13.843
H -3.40963 -2.44672 -14.8067
O 5.95753 4.58985 1.61666
H 5.99072 4.61438 0.617517
H 5.68605 5.48771 1.96327
O -10.6822 -13.9788 -8.83346
H -10.6179 -14.9058 -8.46382
H -9.82434 -13.493 -8.66586
O -6.18846 -11.9013 2.54368
H -5.91053 -11.6701 1.61131
H -7.16612 -11.7225 2.65406
O -12.3142 9.13999 8.08882
H -13.1014 8.94961 7.50218
H -12.6101 9.17206 9.04351
O -5.62747 8.66113 2.30005
H -5.07657 7.9123 2.66849
H -6.51146 8.68561 2.7669
O 5.02921 3.98188 -9.23265
H 5.71589 3.25692 -9.28645
H 5.00441 4.48237 -10.098
O 14.0383 -11.0617 -10.4485
H 13.065 -11.2313 -10.6028
H 14.2102 -10.9757 -9.46712
O -14.5769 -11.1797 0.0344071
H -14.0273 -10.3456 -0.01354
H -14.8973 -11.3143 0.972084
O 7.76495 -10.3767 13.5896
H 7.08922 -11.1136 13.6068
H 7.57132 -9.72967 14.3271
O 11.7657 -1.26654 -9.86169
H 12.5872 -1.46505 -10.3962
H 11.5373 -2.05827 -9.29515
O -7.18539 -7.84991 -8.49922
H -7.52379 -8.16155 -9.38711
H -7.87778 -8.0237 -7.79894
O 2.29392 -0.71489 9.64556
H 1.82122 -1.24009 10.3532
H 1.7498 0.0898774 9.40836
O 6.93157 8.95304 1.89766
H 6.03936 8.50969 1.81179
H 6.80383 9.93524 2.03535
O -4.69398 7.19493 5.5874
H -4.94651 8.08466 5.96767
H -3.75465 7.23265 5.24647
O -14.0394 -9.5483 13.8744
H -13.6691 -10.2967 14.4246
H -14.8137 -9.13419 14.3529
O 9.51122 -3.20482 9.66123
H 9.32869 -2.77216 8.77836
H 10.4123 -3.63798 9.64019
O -13.0219 -11.0485 -10.6218
H -12.5812 -11.811 -11.0954
H -13.6626 -11.4042 -9.94148
O -3.44425 6.52918 -0.557607
H -3.69579 7.49687 -0.575024
H -3.71905 6.12905 0.316667
O -3.69764 13.4712 -10.6535
H -3.92395 14.4373 -10.5291
H -4.52403 12.9187 -10.545
O 8.19114 10.3121 -9.8587
H 9.1444 10.1005 -10.0743
H 8.07001 10.3306 -8.86625
O 12.7462 4.83151 -10.6746
H 13.3841 4.06424 -10.7411
H 11.8076 4.4868 -10.6883
O -13.7234 14.9501 -4.03038
H -12.912 14.4292 -3.76532
H -14.4683 14.3192 -4.2473
O 11.5197 -7.39125 4.56364
H 11.2413 -7.59933 3.62598
H 10.9038 -7.85045 5.20382
O 8.30323 12.0558 -0.65484
H 8.06414 11.2582 -1.20866
H 9.29831 12.1295 -0.588782
O -0.940319 -11.7044 2.29332
H -0.31857 -12.476 2.42808
H -1.62166 -11.9424 1.60113
O 2.11813 -11.5407 -11.6736
H 2.19159 -11.5319 -12.6709
H 2.3793 -12.4421 -11.3281
O -11.217 -8.80128 10.1443
H -10.6574 -9.13864 9.38735
H -10.6309 -8.34824 10.816
O -13.3261 -7.95945 -0.945879
H -13.8681 -8.08148 -1.77734
H -13.9369 -7.88753 -0.157391
O -14.163 8.1959 -6.5763
H -13.1694 8.09769 -6.63101
H -14.4817 8.78083 -7.32215
O 9.4068 8.92428 0.606742
H 8.66852 8.73472 1.25404
H 9.02209 9.29618 -0.238048
O 5.21527 -12.5067 -10.3759
H 4.6828 -13.331 -10.568
H 5.55701 -12.1232 -11.2339
O 2.89345 5.2297 13.8237
H 1.9716 4.84247 13.8084
H 3.49569 4.63569 14.357
O -13.9873 14.4183 -12.9116
H -13.8329 13.4536 -12.6979
H -14.9525 14.5608 -13.1309
O 13.3181 10.7305 -2.94232
H 13.734 11.6272 -2.79055
H 12.5645 10.5993 -2.29825
O 10.7924 2.95685 -14.0606
H 11.2908 3.82342 -14.0346
H 11.2382 2.33523 -14.7048
O 13.4656 11.5809 -13.7537
H 13.0196 12.4736 -13.6902
H 12.804 10.8618 -13.5413
O -1.71736 8.8304 -7.06432
H -0.973908 8.16333 -7.01654
H -2.16977 8.88957 -6.17448
O 8.05109 -8.21835 3.28661
H 7.21769 -8.64356 2.93358
H 7.90811 -7.23321 3.38171
O 14.4838 -2.66289 2.50268
H -14.7607 -2.11797 2.69759