LAMMPS (15 May 2015)
Reading data file ...
  triclinic box = (-0.107635 -0.0404339 -0.357111) to (41.3876 35.9384 29.5551) with tilt (-0.0672341 -17.0362 -0.0417078)
  5 by 2 by 2 MPI processor grid
  reading atoms ...
  4560 atoms
  reading velocities ...
  4560 velocities
  scanning bonds ...
  3 = max bonds/atom
  scanning angles ...
  3 = max angles/atom
  scanning dihedrals ...
  8 = max dihedrals/atom
  scanning impropers ...
  1 = max impropers/atom
  reading bonds ...
  5040 bonds
  reading angles ...
  7200 angles
  reading dihedrals ...
  10560 dihedrals
  reading impropers ...
  2400 impropers
Finding 1-2 1-3 1-4 neighbors ...
 Special bond factors lj:   0          0          0         
 Special bond factors coul: 0          0          0         
  4 = max # of 1-2 neighbors
  8 = max # of 1-3 neighbors
  20 = max # of 1-4 neighbors
  16 = max # of special neighbors
4560 atoms in group all
720 atoms in group C
480 atoms in group S
1920 atoms in group H
720 atoms in group Si
240 atoms in group Na
240 atoms in group Ba
240 atoms in group O
4560 atoms in group naphthalene
2400 atoms in group carbon
960 atoms in group CO
Setting atom values ...
  720 settings made for charge
Setting atom values ...
  720 settings made for charge
Setting atom values ...
  1920 settings made for charge
Setting atom values ...
  480 settings made for charge
Setting atom values ...
  240 settings made for charge
Setting atom values ...
  240 settings made for charge
Setting atom values ...
  240 settings made for charge
Finding 1-2 1-3 1-4 neighbors ...
 Special bond factors lj:   0          0          0.5       
 Special bond factors coul: 0          0          0.5       
  4 = max # of 1-2 neighbors
  8 = max # of 1-3 neighbors
  20 = max # of 1-4 neighbors
  16 = max # of special neighbors
Neighbor list info ...
  4 neighbor list requests
  update every 1 steps, delay 0 steps, check yes
  master list distance cutoff = 12
Setting up run ...
Memory usage per processor = 13.4064 Mbytes
Step Temp Density PotEng E_vdwl E_tail E_coul E_long Press Volume Xy Xz Yz E_mol E_bond E_angle E_dihed 14[1] 14[2] 14[3] msd[4] msd2[4] msd3[4] msd4[4] naphthal Cella Cellb Cellc CellAlpha CellBeta CellGamma 2 3 27[1] 27[2] 27[3] 28[1] 28[2] 28[3] 
       0          298    1.2509986     3498.833            0            0            0            0   -15873.524    44657.537 -0.067234084   -17.036218 -0.041707817     3498.833    1521.0094     935.4334    889.67826    28.379601    18.846571    14.337846 7.7711016e-30 8.8746852e-30 6.8181724e-30 5.7534156e-30          298     41.49527    35.978931    34.423473    90.016431    119.66323    90.107069 2.9837509e-27 4.9466509e-24    28.379557    18.849013    14.339638    28.379812    18.845474    14.337264 
   10000    303.31077    1.2509986     3594.039            0            0            0            0    1885.9537    44657.537 -0.067234084   -17.036218 -0.041707817     3594.039    1494.0595    988.42056    948.81007    28.378914    18.846763    14.338178 0.00036436469 0.0003638819   0.56567111   0.56565865    303.31077     41.49527    35.978931    34.423473    90.016431    119.66323    90.107069    218.10015    218.61881    28.379317    18.848537    14.339192    28.379977    18.847519    14.340136 
   20000    294.97196    1.2509986    3564.4764            0            0            0            0    767.04001    44657.537 -0.067234084   -17.036218 -0.041707817    3564.4764    1481.7228    1010.5541    914.40608    28.377823    18.847664    14.337684 0.00035712551 0.00035509477   0.61018298   0.61016922    294.97196     41.49527    35.978931    34.423473    90.016431    119.66323    90.107069    235.26215    214.27531    28.379589    18.849914    14.338534    28.377454    18.847944    14.338711 
   30000      301.683    1.2509986    3617.9814            0            0            0            0   -648.03769    44657.537 -0.067234084   -17.036218 -0.041707817    3617.9814    1502.4448    1011.0065    942.94377     28.37889    18.850302    14.333722 0.00037615387 0.00037109551   0.61855908   0.61851258      301.683     41.49527    35.978931    34.423473    90.016431    119.66323    90.107069    238.49164    225.69232    28.379031    18.851199    14.339705    28.380805    18.851454     14.33414 
   40000    292.82552    1.2509986    3509.8028            0            0            0            0    11.441233    44657.537 -0.067234084   -17.036218 -0.041707817    3509.8028    1474.8494    993.01228    890.55347    28.376523    18.846813    14.343466 0.00038766989 0.00038683858    0.5908666   0.59081705    292.82552     41.49527    35.978931    34.423473    90.016431    119.66323    90.107069    227.81453    232.60193    28.378953    18.848841    14.338977     28.37567    18.845817    14.342946 
   50000    296.83061    1.2509986    3502.1364            0            0            0            0     123.2088    44657.537 -0.067234084   -17.036218 -0.041707817    3502.1364    1420.4907    1013.6046     912.1513    28.373862    18.851215    14.343774 0.00037731739 0.00037727694   0.66833872   0.66825253    296.83061     41.49527    35.978931    34.423473    90.016431    119.66323    90.107069    257.68468    226.39043    28.379417    18.849003    14.339783    28.375534    18.851184    14.343204 
   60000    296.77895    1.2509986    3519.5584            0            0            0            0    441.78379    44657.537 -0.067234084   -17.036218 -0.041707817    3519.5584    1449.5213    1011.6269    906.67236    28.376686    18.842254    14.343646 0.00034877734 0.00034748868   0.59007737   0.59001246    296.77895     41.49527    35.978931    34.423473    90.016431    119.66323    90.107069    227.51023     209.2664    28.379928    18.848248    14.338887    28.376353    18.841878    14.343589 
   70000    297.79905    1.2509986    3582.3013            0            0            0            0    551.90155    44657.537 -0.067234084   -17.036218 -0.041707817    3582.3013    1460.0404    1036.8098    928.71122    28.380315    18.850032    14.337806 0.0003665117 0.00036495171    0.5827602    0.5827284    297.79905     41.49527    35.978931    34.423473    90.016431    119.66323    90.107069    224.68902    219.90702    28.378357    18.848715     14.33946     28.37843    18.850921    14.336799 
   80000    306.56024    1.2509986    3623.3054            0            0            0            0    2700.2777    44657.537 -0.067234084   -17.036218 -0.041707817    3623.3054    1507.3465     1054.629    907.87719    28.379946    18.845889    14.335272 0.00038960359 0.00038794062   0.60615238   0.60612478    306.56024     41.49527    35.978931    34.423473    90.016431    119.66323    90.107069    233.70811    233.76215    28.379763    18.848148    14.338704    28.376153    18.845603    14.333498 
   90000     293.5193    1.2509986    3595.5697            0            0            0            0     661.5929    44657.537 -0.067234084   -17.036218 -0.041707817    3595.5697    1473.2863    1047.1348    917.58204     28.37915      18.8477    14.341695 0.00035938033 0.00035683406   0.58610124   0.58608114     293.5193     41.49527    35.978931    34.423473    90.016431    119.66323    90.107069     225.9772     215.6282    28.379374    18.848107    14.338338    28.378928    18.846018    14.341626 
  100000    297.56587    1.2509986    3617.0743            0            0            0            0   -823.79962    44657.537 -0.067234084   -17.036218 -0.041707817    3617.0743    1475.6615    1030.5029    952.53288    28.378727    18.845269    14.338135 0.0003451209 0.00034451041   0.67592142   0.67591077    297.56587     41.49527    35.978931    34.423473    90.016431    119.66323    90.107069    260.60826    207.07254    28.379741    18.849301    14.338936    28.376651    18.846064    14.336711 
  110000    301.21178    1.2509986    3529.6488            0            0            0            0    2205.8569    44657.537 -0.067234084   -17.036218 -0.041707817    3529.6488    1490.2556    1002.6105    887.48123    28.379405    18.849911    14.337048 0.00038237699 0.00038125937   0.60017634   0.60016706    301.21178     41.49527    35.978931    34.423473    90.016431    119.66323    90.107069    231.40399    229.42619    28.379892    18.849735    14.338943    28.380617    18.848401    14.337541 
  120000    294.06018    1.2509986     3663.224            0            0            0            0    1673.0866    44657.537 -0.067234084   -17.036218 -0.041707817     3663.224    1488.1221    1053.7552    953.86382    28.382794    18.844757    14.345437 0.00036507524 0.00036355047   0.58696313   0.58689179    294.06018     41.49527    35.978931    34.423473    90.016431    119.66323    90.107069     226.3095    219.04514    28.378918    18.849109    14.338585    28.382112    18.846166    14.345361 
  130000    298.53134    1.2509986    3606.8547            0            0            0            0    490.37417    44657.537 -0.067234084   -17.036218 -0.041707817    3606.8547     1471.629    1041.3484    933.05173    28.378789    18.856761    14.340234 0.00036897215 0.00036442789   0.61312306   0.61298953    298.53134     41.49527    35.978931    34.423473    90.016431    119.66323    90.107069    236.39573    221.38329    28.378468    18.847468    14.338651    28.379064    18.856795    14.339456 
  140000    299.68458    1.2509986    3623.6991            0            0            0            0     55.47698    44657.537 -0.067234084   -17.036218 -0.041707817    3623.6991    1483.6697     1041.472    938.95841    28.375658    18.850642    14.342806 0.00038676209 0.00038577494   0.64124325   0.64115951    299.68458     41.49527    35.978931    34.423473    90.016431    119.66323    90.107069    247.23775    232.05725    28.378987    18.848509    14.338999    28.372894    18.849735    14.341475 
  150000    307.48212    1.2509986    3642.4615            0            0            0            0   -444.80679    44657.537 -0.067234084   -17.036218 -0.041707817    3642.4615    1522.2712    1033.0587    925.93227    28.376568    18.851053    14.335928 0.00036459082 0.00036288796   0.60626924   0.60622304    307.48212     41.49527    35.978931    34.423473    90.016431    119.66323    90.107069    233.75317    218.75449    28.379024    18.850012    14.338989    28.376947    18.851611    14.337846 
  160000    297.18403    1.2509986    3591.2102            0            0            0            0    1446.2848    44657.537 -0.067234084   -17.036218 -0.041707817    3591.2102    1429.4863    1049.4523     955.7174    28.371906    18.845641    14.342727 0.00038169841 0.00038081703   0.61746398   0.61737753    297.18403     41.49527    35.978931    34.423473    90.016431    119.66323    90.107069    238.06941    229.01905    28.379234    18.849583    14.340311    28.371225     18.84545    14.340831 
  170000    297.00568    1.2509986     3607.892            0            0            0            0     767.9808    44657.537 -0.067234084   -17.036218 -0.041707817     3607.892    1495.2025    1004.5278    940.77382     28.37919    18.854649    14.337093 0.00035863593 0.00035719433   0.63040327   0.63029397    297.00568     41.49527    35.978931    34.423473    90.016431    119.66323    90.107069    243.05829    215.18156    28.378832    18.848375    14.340352     28.38202    18.855685    14.336849 
  180000    298.23711    1.2509986    3463.8236            0            0            0            0    2000.3152    44657.537 -0.067234084   -17.036218 -0.041707817    3463.8236    1448.7978    964.08214    895.69084    28.377247    18.848634    14.337669 0.00037391388 0.00037288657   0.62066834   0.62064092    298.23711     41.49527    35.978931    34.423473    90.016431    119.66323    90.107069    239.30488    224.34833    28.378979    18.849631    14.340197    28.375161    18.847689    14.336327 
  190000     308.6388    1.2509986    3569.8809            0            0            0            0    61.977325    44657.537 -0.067234084   -17.036218 -0.041707817    3569.8809    1436.6203    990.21762    974.95962    28.381129    18.853736    14.335391 0.00036371976 0.00036340603   0.58633795   0.58623944     308.6388     41.49527    35.978931    34.423473    90.016431    119.66323    90.107069    226.06846    218.23186    28.379034    18.849214    14.339639    28.383073    18.854413     14.33444 
  200000    293.27287    1.2509986    3657.6269            0            0            0            0    530.14776    44657.537 -0.067234084   -17.036218 -0.041707817    3657.6269    1557.1111    1039.4142    905.38674    28.381382    18.844245    14.336121 0.00036428517 0.00036240801   0.66173886   0.66172814    293.27287     41.49527    35.978931    34.423473    90.016431    119.66323    90.107069    255.14003     218.5711    28.380911    18.848848    14.339765     28.37967    18.843046    14.335074 
  210000    297.70466    1.2509986    3597.7432            0            0            0            0    240.54554    44657.537 -0.067234084   -17.036218 -0.041707817    3597.7432    1466.0103    1033.3779    937.74825    28.378494    18.849444    14.338642 0.00037284082 0.00037076672   0.61415362   0.61412578    297.70466     41.49527    35.978931    34.423473    90.016431    119.66323    90.107069    236.79307    223.70449    28.378567    18.849896    14.339078    28.377885    18.850273    14.338316 
  220000    295.94571    1.2509986    3535.4729            0            0            0            0    359.94206    44657.537 -0.067234084   -17.036218 -0.041707817    3535.4729    1496.2801    964.39357    918.89688    28.381012    18.851648    14.338946 0.00036372983 0.00036161991   0.58800919   0.58797804    295.94571     41.49527    35.978931    34.423473    90.016431    119.66323    90.107069    226.71282     218.2379    28.378885    18.847725    14.339608    28.381418    18.850351    14.339453 
  230000    294.33194    1.2509986    3649.0835            0            0            0            0    238.88341    44657.537 -0.067234084   -17.036218 -0.041707817    3649.0835    1506.2454    1050.8195     932.1375    28.379423    18.852149    14.334839 0.00034728151 0.00034646691   0.61358908   0.61353053    294.33194     41.49527    35.978931    34.423473    90.016431    119.66323    90.107069    236.57541    208.36891    28.380341     18.84857    14.339691    28.380511    18.852835    14.335295 
  240000    295.64716    1.2509986    3652.6773            0            0            0            0    -535.2471    44657.537 -0.067234084   -17.036218 -0.041707817    3652.6773    1501.7085    1011.5546    971.06984    28.376883    18.848401    14.334655 0.00033355234 0.00033285879   0.56605021   0.56603326    295.64716     41.49527    35.978931    34.423473    90.016431    119.66323    90.107069    218.24632     200.1314    28.379518    18.848371    14.340168     28.37848    18.848696    14.335075 
  250000    295.47807    1.2509986    3578.0211            0            0            0            0    18.320065    44657.537 -0.067234084   -17.036218 -0.041707817    3578.0211    1499.5076    970.89038    948.83761    28.377468    18.852681    14.343686 0.00033337884 0.00033261836    0.6246304   0.62451198    295.47807     41.49527    35.978931    34.423473    90.016431    119.66323    90.107069     240.8325     200.0273    28.380389    18.848833     14.33945    28.377598    18.853768    14.343952 
  260000    305.06216    1.2509986    3532.3479            0            0            0            0    558.49051    44657.537 -0.067234084   -17.036218 -0.041707817    3532.3479    1453.9584    1028.6091     891.4695    28.379463    18.849481    14.339827 0.00038259394 0.00037969242   0.71625374   0.71623161    305.06216     41.49527    35.978931    34.423473    90.016431    119.66323    90.107069    276.15879    229.55636     28.38125    18.848898    14.339781    28.380153    18.849785    14.339118 
  270000    295.56657    1.2509986    3598.2103            0            0            0            0     529.6893    44657.537 -0.067234084   -17.036218 -0.041707817    3598.2103    1530.5297     1018.066    894.81592    28.385675    18.848586    14.343398 0.00033785087 0.0003368627   0.63507449   0.63493439    295.56657     41.49527    35.978931    34.423473    90.016431    119.66323    90.107069    244.85932    202.71052    28.379364    18.849604    14.340414    28.389169    18.848754    14.343728 
  280000      293.848    1.2509986    3617.9799            0            0            0            0    908.52494    44657.537 -0.067234084   -17.036218 -0.041707817    3617.9799     1475.959      1003.72    976.92553    28.375739    18.850365    14.337656 0.00039042943 0.00038790057   0.59664307   0.59659346      293.848     41.49527    35.978931    34.423473    90.016431    119.66323    90.107069     230.0417    234.25766    28.378658    18.847706    14.339753    28.375028    18.850633    14.337601 
  290000     303.7206    1.2509986     3614.694            0            0            0            0    1218.8555    44657.537 -0.067234084   -17.036218 -0.041707817     3614.694    1454.0049    1065.9952    933.22731       28.385    18.851891    14.340935 0.00035498774 0.00035491057   0.61418918   0.61412946     303.7206     41.49527    35.978931    34.423473    90.016431    119.66323    90.107069    236.80678    212.99264    28.379747    18.848849    14.339518    28.384088    18.849561    14.342238 
  300000    298.69211    1.2509986    3595.3345            0            0            0            0    246.74794    44657.537 -0.067234084   -17.036218 -0.041707817    3595.3345    1476.5906    1037.2539    924.16245    28.370874    18.849457    14.335462 0.00034050417 0.00034038086   0.62793327   0.62785622    298.69211     41.49527    35.978931    34.423473    90.016431    119.66323    90.107069    242.10595     204.3025    28.379359     18.84904    14.339927    28.371993    18.848535    14.334706 
  310000    298.99007    1.2509986    3570.9482            0            0            0            0    883.86673    44657.537 -0.067234084   -17.036218 -0.041707817    3570.9482    1442.8931    993.94962    969.99895    28.385157    18.847507    14.340264 0.00036673738 0.0003653535   0.67061595    0.6705493    298.99007     41.49527    35.978931    34.423473    90.016431    119.66323    90.107069    258.56269    220.04243     28.37919     18.84965     14.33872    28.386863    18.848144    14.340396 
  320000    293.90241    1.2509986    3578.0229            0            0            0            0    503.84406    44657.537 -0.067234084   -17.036218 -0.041707817    3578.0229    1542.1667      1006.43    878.70383    28.379424     18.85064    14.332635 0.00032824267 0.00032728451    0.6291554   0.62910352    293.90241     41.49527    35.978931    34.423473    90.016431    119.66323    90.107069    242.57715     196.9456    28.379854    18.848183    14.339212     28.37951    18.850255    14.331886 
  330000    298.50458    1.2509986     3598.001            0            0            0            0    -1544.947    44657.537 -0.067234084   -17.036218 -0.041707817     3598.001    1468.5435    1049.2682    924.64563    28.379868    18.844302    14.344606 0.00035631914 0.00035519717   0.61048553   0.61041838    298.50458     41.49527    35.978931    34.423473    90.016431    119.66323    90.107069     235.3788    213.79148     28.38029     18.84832    14.339961    28.381511    18.843412    14.345011 
  340000     292.0805    1.2509986    3490.2274            0            0            0            0   -39.539546    44657.537 -0.067234084   -17.036218 -0.041707817    3490.2274     1432.681    1021.2148    889.39312    28.387243    18.844842    14.342733 0.00036106576 0.00035947214   0.65541024   0.65530203     292.0805     41.49527    35.978931    34.423473    90.016431    119.66323    90.107069    252.69997    216.63945    28.378472    18.848396    14.339829    28.387996    18.845581    14.343685 
  350000    292.55181    1.2509986    3551.9041            0            0            0            0    -1364.691    44657.537 -0.067234084   -17.036218 -0.041707817    3551.9041    1462.1746    1002.1266     928.3953    28.381928    18.848421    14.339351 0.00036308046 0.00035958535   0.61504866   0.61503181    292.55181     41.49527    35.978931    34.423473    90.016431    119.66323    90.107069    237.13816    217.84828    28.379296    18.850244    14.338255    28.383014    18.847848    14.338243 
  360000     299.9794    1.2509986    3544.6035            0            0            0            0    1425.4528    44657.537 -0.067234084   -17.036218 -0.041707817    3544.6035     1477.246    1001.4784    911.99022    28.379115    18.851453    14.339938 0.00037700084 0.00037633242   0.63860495   0.63854999     299.9794     41.49527    35.978931    34.423473    90.016431    119.66323    90.107069    246.22052     226.2005     28.37981    18.849479    14.339016    28.377761    18.852367    14.339066 
  370000    293.78054    1.2509986    3564.9244            0            0            0            0    349.88804    44657.537 -0.067234084   -17.036218 -0.041707817    3564.9244    1490.2943    1022.6176    899.78651    28.378644     18.84872    14.339851 0.00031361143 0.00031291858   0.59330964   0.59329938    293.78054     41.49527    35.978931    34.423473    90.016431    119.66323    90.107069    228.75647    188.16686    28.379634    18.848187    14.339711    28.379592    18.848315    14.338729 
  380000    293.34698    1.2509986    3513.3702            0            0            0            0   -394.16679    44657.537 -0.067234084   -17.036218 -0.041707817    3513.3702    1431.5355    986.91058    933.94171    28.379588    18.844655    14.341455 0.00034062806 0.00033905974   0.62714196   0.62712125    293.34698     41.49527    35.978931    34.423473    90.016431    119.66323    90.107069    241.80085    204.37684    28.378606    18.849723    14.339238    28.378613    18.844178    14.341458 
  390000     300.0115    1.2509986    3589.5365            0            0            0            0   -209.63847    44657.537 -0.067234084   -17.036218 -0.041707817    3589.5365    1483.3694     986.3272    960.55252    28.382039    18.849386     14.34036 0.00032726354 0.00032493557   0.59850666    0.5984726     300.0115     41.49527    35.978931    34.423473    90.016431    119.66323    90.107069    230.76023    196.35813    28.380573    18.850139    14.339798     28.38346    18.849399    14.339576 
  400000    291.01846    1.2509986    3592.9771            0            0            0            0    847.12301    44657.537 -0.067234084   -17.036218 -0.041707817    3592.9771    1506.6323    1027.7109     904.7036    28.380671    18.853687      14.3386 0.00037330388 0.00037192816   0.60589499   0.60583977    291.01846     41.49527    35.978931    34.423473    90.016431    119.66323    90.107069    233.60887    223.98233    28.379532     18.84944     14.34073    28.380293     18.85256    14.339453 
  410000    300.51052    1.2509986    3584.9411            0            0            0            0    1835.5488    44657.537 -0.067234084   -17.036218 -0.041707817    3584.9411    1492.0014    1000.9459    933.46919    28.378435    18.848575    14.336467 0.00033815227 0.00033768153   0.52129308   0.52128135    300.51052     41.49527    35.978931    34.423473    90.016431    119.66323    90.107069    200.98976    202.89136    28.379771    18.848362    14.339672    28.378128    18.848283    14.336263 
  420000    302.33903    1.2509986    3596.1182            0            0            0            0    314.11925    44657.537 -0.067234084   -17.036218 -0.041707817    3596.1182    1503.9455    1013.2698     922.6188    28.379851    18.855518    14.341461 0.00033298322 0.00033195171   0.61474225   0.61462208    302.33903     41.49527    35.978931    34.423473    90.016431    119.66323    90.107069    237.02002    199.78993    28.379708    18.849401    14.338712    28.379769    18.855893    14.340674 
  430000    302.53756    1.2509986    3505.4311            0            0            0            0    -970.3952    44657.537 -0.067234084   -17.036218 -0.041707817    3505.4311    1451.4312    1001.7357    895.24356    28.378344    18.844152    14.347134 0.00035164369 0.00035046882   0.64470126   0.64460638    302.53756     41.49527    35.978931    34.423473    90.016431    119.66323    90.107069    248.57102    210.98622    28.379345    18.847993    14.339939    28.376481     18.84537    14.346417 
  440000    293.96141    1.2509986    3593.5611            0            0            0            0   -31.550219    44657.537 -0.067234084   -17.036218 -0.041707817    3593.5611    1503.2774    1004.5228    931.77255    28.381127    18.845445    14.334856 0.00034468976 0.00033408857   0.58540664   0.58538365    293.96141     41.49527    35.978931    34.423473    90.016431    119.66323    90.107069    225.70938    206.81385     28.37726    18.847556    14.337848    28.383189    18.845036    14.333889 
  450000    296.70851    1.2509986    3563.0291            0            0            0            0    310.82139    44657.537 -0.067234084   -17.036218 -0.041707817    3563.0291    1454.3393    1027.7932    922.64446    28.378633    18.844106    14.338462 0.00036649846 0.00036534162   0.63696993   0.63694986    296.70851     41.49527    35.978931    34.423473    90.016431    119.66323    90.107069    245.59013    219.89907    28.380413     18.84842    14.339372    28.381307    18.841549    14.338822 
  460000      299.718    1.2509986    3560.3085            0            0            0            0    1588.5231    44657.537 -0.067234084   -17.036218 -0.041707817    3560.3085     1472.397    1013.7627    918.84697    28.383962    18.851951    14.342962 0.00037770204 0.00037411459   0.67267281   0.67258316      299.718     41.49527    35.978931    34.423473    90.016431    119.66323    90.107069    259.35573    226.62122    28.377676    18.848985    14.339418    28.381268    18.852802    14.343082 
  470000     303.6687    1.2509986    3565.1326            0            0            0            0    1646.8828    44657.537 -0.067234084   -17.036218 -0.041707817    3565.1326     1467.145    1008.7161    931.81743    28.381372    18.848396    14.338072 0.0003959153 0.00039457802   0.64233155   0.64231248     303.6687     41.49527    35.978931    34.423473    90.016431    119.66323    90.107069    247.65735    237.54918    28.379767    18.847985    14.340123    28.382881    18.848374    14.338379 
  480000    301.26386    1.2509986    3592.0465            0            0            0            0    2739.9119    44657.537 -0.067234084   -17.036218 -0.041707817    3592.0465    1452.3413    1042.8284    937.62143     28.37754    18.845437    14.344372 0.00030865629 0.00030809277   0.71082176   0.71075658    301.26386     41.49527    35.978931    34.423473    90.016431    119.66323    90.107069    274.06444    185.19377    28.379861    18.849158    14.340309    28.377071    18.845201    14.344853 
  490000    305.17707    1.2509986     3604.966            0            0            0            0   -775.16586    44657.537 -0.067234084   -17.036218 -0.041707817     3604.966    1461.7623     1004.751    971.67743    28.377167    18.844542    14.335887 0.00034851488 0.00034490684   0.66964982   0.66964523    305.17707     41.49527    35.978931    34.423473    90.016431    119.66323    90.107069    258.19019    209.10893    28.380775    18.847847    14.338764    28.378592    18.844553    14.335762 
  500000    295.55611    1.2509986    3607.2706            0            0            0            0    1244.2172    44657.537 -0.067234084   -17.036218 -0.041707817    3607.2706    1529.7471    983.76318    937.40317    28.379902    18.842476    14.339873 0.00036993166 0.00036880797   0.60097532   0.60096137    295.55611     41.49527    35.978931    34.423473    90.016431    119.66323    90.107069    231.71205    221.95899    28.380099    18.848132    14.339869    28.380932    18.843925    14.340474 
  510000     297.1936    1.2509986    3621.2297            0            0            0            0   -251.53416    44657.537 -0.067234084   -17.036218 -0.041707817    3621.2297    1443.2466    1106.2615    918.47368    28.378744    18.849345    14.337849 0.00038424965 0.00038082904    0.6231554   0.62312434     297.1936     41.49527    35.978931    34.423473    90.016431    119.66323    90.107069     240.2638    230.54979    28.380205    18.847298    14.339395    28.376839     18.85012    14.336461 
  520000     297.1519    1.2509986    3487.3853            0            0            0            0   -1223.8264    44657.537 -0.067234084   -17.036218 -0.041707817    3487.3853    1442.5321    964.13115    922.10921    28.378271    18.849173    14.342061 0.00037626232 0.00037298793   0.62633683   0.62629159     297.1519     41.49527    35.978931    34.423473    90.016431    119.66323    90.107069    241.49043    225.75739    28.379592    18.849536    14.337906    28.376167     18.84788     14.34238 
  530000    299.66195    1.2509986    3659.1262            0            0            0            0    755.83372    44657.537 -0.067234084   -17.036218 -0.041707817    3659.1262    1490.2819    1060.2123    946.64613    28.377711    18.846712    14.333611 0.00035312315 0.00035307661   0.65756692    0.6575259    299.66195     41.49527    35.978931    34.423473    90.016431    119.66323    90.107069     253.5315    211.87389    28.379596    18.848872    14.339796    28.375624    18.846484    14.332525 
  540000    294.59602    1.2509986    3562.7544            0            0            0            0    1359.3917    44657.537 -0.067234084   -17.036218 -0.041707817    3562.7544    1476.6312    975.92779    943.94804    28.374804    18.848418    14.344479 0.00034670683 0.0003437518   0.59846922   0.59837454    294.59602     41.49527    35.978931    34.423473    90.016431    119.66323    90.107069    230.74579     208.0241    28.378072    18.848502    14.338939    28.374274    18.847129    14.345092 
  550000    298.34132    1.2509986    3604.1306            0            0            0            0    668.58176    44657.537 -0.067234084   -17.036218 -0.041707817    3604.1306    1471.3602    1035.8603     936.3224    28.388253    18.854998    14.335596 0.00039512171 0.00039176428     0.640113    0.6399109    298.34132     41.49527    35.978931    34.423473    90.016431    119.66323    90.107069    246.80197    237.07303    28.380821     18.84769    14.339537    28.389689    18.855569    14.335637 
  560000    303.91317    1.2509986    3589.8371            0            0            0            0   -1180.5003    44657.537 -0.067234084   -17.036218 -0.041707817    3589.8371    1480.6159    1008.5499    937.94175    28.380359    18.851875    14.339797 0.00033082171 0.0003279999   0.58375266   0.58371172    303.91317     41.49527    35.978931    34.423473    90.016431    119.66323    90.107069    225.07168    198.49303    28.379214    18.850342    14.340607    28.380087    18.851293    14.339913 
  570000    301.21835    1.2509986    3542.8036            0            0            0            0    1242.1221    44657.537 -0.067234084   -17.036218 -0.041707817    3542.8036    1442.8318     1017.255    924.26803    28.372943    18.848366    14.338424 0.00035019632 0.00034874494   0.61332703   0.61328236    301.21835     41.49527    35.978931    34.423473    90.016431    119.66323    90.107069    236.47437    210.11779    28.379478    18.849816    14.340533    28.374147    18.849013    14.337513 
  580000    300.46898    1.2509986    3584.2952            0            0            0            0    2454.2808    44657.537 -0.067234084   -17.036218 -0.041707817    3584.2952    1454.0082    1033.0284    940.11763    28.378959    18.847583    14.347092 0.00036634391 0.00036611387   0.60130474   0.60117564    300.46898     41.49527    35.978931    34.423473    90.016431    119.66323    90.107069    231.83906    219.80635    28.379625    18.848637    14.339349    28.378742    18.845743    14.348573 
  590000    302.19801    1.2509986    3524.8368            0            0            0            0   -151.21682    44657.537 -0.067234084   -17.036218 -0.041707817    3524.8368    1464.5201    960.25485    939.18141    28.380514    18.850537    14.342432 0.00037159398 0.00037052405   0.61289648   0.61283836    302.19801     41.49527    35.978931    34.423473    90.016431    119.66323    90.107069    236.30837    222.95639    28.380318    18.849249    14.338979    28.383182    18.850179    14.342226 
  600000    298.46714    1.2509986    3589.8584            0            0            0            0    1739.2759    44657.537 -0.067234084   -17.036218 -0.041707817    3589.8584     1489.517    1033.3351    909.48542    28.378153    18.853661    14.337662 0.00038910288 0.00038766365   0.60849436   0.60841472    298.46714     41.49527    35.978931    34.423473    90.016431    119.66323    90.107069    234.61109    233.46173    28.378664    18.848282    14.339967    28.378649    18.854317     14.33759 
  610000    304.73196    1.2509986    3543.0778            0            0            0            0    -354.4172    44657.537 -0.067234084   -17.036218 -0.041707817    3543.0778    1478.2488    1009.1892    898.36458    28.377169    18.851727    14.343297 0.00034744336 0.00034539751   0.66902756   0.66893998    304.73196     41.49527    35.978931    34.423473    90.016431    119.66323    90.107069    257.95027    208.46601    28.380627    18.848355    14.338954    28.378933    18.851778    14.344126 
  620000    304.28876    1.2509986    3586.8853            0            0            0            0    1608.8846    44657.537 -0.067234084   -17.036218 -0.041707817    3586.8853    1483.5901    1032.2454    915.64386    28.377694    18.848008    14.339851 0.00036805621 0.00036676595   0.63920541   0.63919602    304.28876     41.49527    35.978931    34.423473    90.016431    119.66323    90.107069    246.45204    220.83373    28.380024      18.8483    14.340389    28.378675    18.846562    14.339894 
  630000    300.98572    1.2509986    3548.0751            0            0            0            0   -696.32156    44657.537 -0.067234084   -17.036218 -0.041707817    3548.0751     1518.128    968.71852    903.86204    28.376983    18.851995    14.339424 0.0003748059 0.00037241542   0.59709405   0.59705542    300.98572     41.49527    35.978931    34.423473    90.016431    119.66323    90.107069    230.21558    224.88354    28.379249    18.849743     14.33831    28.381637    18.850967     14.33953 
  640000    294.36789    1.2509986    3577.7256            0            0            0            0   -158.56067    44657.537 -0.067234084   -17.036218 -0.041707817    3577.7256    1485.1847    993.24803    937.79789    28.377312    18.850736    14.340634 0.00035151118 0.00035112825   0.61910844   0.61905012    294.36789     41.49527    35.978931    34.423473    90.016431    119.66323    90.107069    238.70345    210.90671    28.379473    18.848886    14.340238    28.378914    18.852377    14.340405 
  650000    299.47051    1.2509986    3598.9194            0            0            0            0    1465.2849    44657.537 -0.067234084   -17.036218 -0.041707817    3598.9194    1512.2714    1019.8257    912.39417    28.373028    18.847983    14.338529 0.00036583335 0.00036285919   0.59948069   0.59943376    299.47051     41.49527    35.978931    34.423473    90.016431    119.66323    90.107069    231.13577    219.50001    28.380613    18.849378    14.338325    28.373913     18.84824    14.339381 
  660000     299.8535    1.2509986    3581.9592            0            0            0            0    74.816173    44657.537 -0.067234084   -17.036218 -0.041707817    3581.9592     1469.477     1015.346    936.40496    28.376907    18.849614    14.339358 0.00035070327 0.00034987956   0.58404746   0.58400981     299.8535     41.49527    35.978931    34.423473    90.016431    119.66323    90.107069    225.18534    210.42196    28.380186    18.848367    14.339539    28.377645    18.850542     14.33996 
  670000    298.63397    1.2509986    3588.6253            0            0            0            0    954.87806    44657.537 -0.067234084   -17.036218 -0.041707817    3588.6253     1510.478    1019.0349    909.44504    28.384588    18.851244    14.341905 0.00034267098 0.00034078491   0.61267346     0.612551    298.63397     41.49527    35.978931    34.423473    90.016431    119.66323    90.107069    236.22238    205.60259    28.380196    18.850165    14.340025    28.387257    18.851423     14.34289 
  680000    300.61414    1.2509986    3525.0051            0            0            0            0    1316.4064    44657.537 -0.067234084   -17.036218 -0.041707817    3525.0051    1425.2065    1015.1056     926.2914     28.38835      18.8502    14.339656 0.00035081095 0.00035019545   0.61454346   0.61444752    300.61414     41.49527    35.978931    34.423473    90.016431    119.66323    90.107069    236.94338    210.48657    28.380249    18.848807    14.339944    28.387654    18.851197    14.338565 
  690000    302.02531    1.2509986    3553.4592            0            0            0            0   -411.90243    44657.537 -0.067234084   -17.036218 -0.041707817    3553.4592    1495.8053    974.01619    924.69944    28.379555    18.848669    14.337498 0.00038088061 0.00038050722   0.62360405   0.62359537    302.02531     41.49527    35.978931    34.423473    90.016431    119.66323    90.107069    240.43678    228.52837    28.379612    18.849606    14.339502    28.380392    18.848351    14.337023 
  700000    301.46173    1.2509986    3580.9907            0            0            0            0   -129.24131    44657.537 -0.067234084   -17.036218 -0.041707817    3580.9907    1465.5309    994.26532    954.37125    28.376971    18.851385    14.337628 0.00034467006 0.00034346771   0.65437274   0.65432492    301.46173     41.49527    35.978931    34.423473    90.016431    119.66323    90.107069    252.29996    206.80204    28.379336    18.849772    14.340398    28.375789    18.851098    14.337344 
  710000    295.91507    1.2509986    3570.0726            0            0            0            0   -1094.4831    44657.537 -0.067234084   -17.036218 -0.041707817    3570.0726    1474.0285    1027.3031    912.52867    28.380249    18.848448    14.341699 0.00035649121 0.00035462468   0.60063602   0.60060094    295.91507     41.49527    35.978931    34.423473    90.016431    119.66323    90.107069    231.58122    213.89473    28.378551    18.848272    14.339084    28.379959    18.848938    14.342066 
  720000    297.99739    1.2509986    3585.1581            0            0            0            0   -1437.1962    44657.537 -0.067234084   -17.036218 -0.041707817    3585.1581    1462.8052     1050.942    915.06126     28.38124    18.850908    14.340207 0.00038257694 0.00038200847   0.61111779   0.61106432    297.99739     41.49527    35.978931    34.423473    90.016431    119.66323    90.107069    235.62258    229.54616    28.378988    18.848576    14.339405    28.384095     18.85076    14.339945 
  730000    297.57053    1.2509986    3571.5296            0            0            0            0   -440.98882    44657.537 -0.067234084   -17.036218 -0.041707817    3571.5296    1488.6099     988.8823    935.17955    28.376868    18.852716    14.337048 0.00035472567 0.00035447406   0.63195802   0.63188552    297.57053     41.49527    35.978931    34.423473    90.016431    119.66323    90.107069    243.65774     212.8354    28.379593    18.849278    14.340063    28.374641    18.852221    14.336779 
  740000    303.61019    1.2509986    3605.6277            0            0            0            0    667.72706    44657.537 -0.067234084   -17.036218 -0.041707817    3605.6277     1503.729    1038.5522    913.67107    28.376177    18.853395    14.337235 0.00037591498 0.00037438512   0.61907197   0.61897791    303.61019     41.49527    35.978931    34.423473    90.016431    119.66323    90.107069    238.68939    225.54899    28.378611    18.849698    14.340046    28.375584    18.853989    14.335342 
  750000    296.88028    1.2509986    3535.7661            0            0            0            0    1051.5794    44657.537 -0.067234084   -17.036218 -0.041707817    3535.7661    1477.6602    1008.9162    898.34658    28.377961    18.849698    14.340183 0.00037436729 0.00037095327   0.56198118   0.56194386    296.88028     41.49527    35.978931    34.423473    90.016431    119.66323    90.107069    216.67747    224.62038    28.381103    18.848467     14.34049    28.376586    18.850106      14.3396 
  760000    294.24348    1.2509986    3605.1421            0            0            0            0   -1356.3268    44657.537 -0.067234084   -17.036218 -0.041707817    3605.1421    1491.1975    1042.3626    914.66953    28.382025    18.852166    14.339087 0.00036487981 0.00036448911   0.61498788   0.61493797    294.24348     41.49527    35.978931    34.423473    90.016431    119.66323    90.107069    237.11473    218.92788    28.380051    18.848657    14.339498    28.383103    18.851466    14.339049 
  770000    293.88039    1.2509986    3587.0471            0            0            0            0    750.44862    44657.537 -0.067234084   -17.036218 -0.041707817    3587.0471    1443.6046    1063.2044    923.77766    28.372328    18.850228    14.338919 0.00037743788 0.00037634508   0.59310603   0.59303239    293.88039     41.49527    35.978931    34.423473    90.016431    119.66323    90.107069    228.67796    226.46273    28.380431    18.848521    14.339344    28.372995    18.850433    14.338871 
  780000    292.46332    1.2509986    3578.7408            0            0            0            0    134.36369    44657.537 -0.067234084   -17.036218 -0.041707817    3578.7408    1478.4874    1038.2253    911.47952    28.382511    18.851719    14.340771 0.00039732607 0.00039706333   0.60659644   0.60653227    292.46332     41.49527    35.978931    34.423473    90.016431    119.66323    90.107069    233.87932    238.39564    28.379557    18.849524    14.339671     28.38418    18.851073    14.340972 
  790000     298.2003    1.2509986    3615.0462            0            0            0            0      1927.04    44657.537 -0.067234084   -17.036218 -0.041707817    3615.0462    1463.9362    1023.9266     959.3692    28.382156    18.849568    14.337226 0.0003238884 0.00032379512    0.6440836   0.64406456     298.2003     41.49527    35.978931    34.423473    90.016431    119.66323    90.107069    248.33287    194.33304    28.379421    18.849104     14.33938    28.381099    18.849642    14.337173 
  800000    300.23273    1.2509986    3603.0406            0            0            0            0   -378.66285    44657.537 -0.067234084   -17.036218 -0.041707817    3603.0406     1523.414    1031.9266    896.47521    28.372346    18.846616    14.338517 0.0003710551 0.00036948771   0.64281777   0.64279427    300.23273     41.49527    35.978931    34.423473    90.016431    119.66323    90.107069    247.84482    222.63306    28.379001    18.850124    14.339481    28.375008    18.845728    14.337871 
  810000    292.77644    1.2509986     3621.291            0            0            0            0   -893.25431    44657.537 -0.067234084   -17.036218 -0.041707817     3621.291    1481.8231    1059.4649    915.19865    28.377257    18.844378    14.340256 0.00037399211 0.00037323933   0.66001223   0.65999301    292.77644     41.49527    35.978931    34.423473    90.016431    119.66323    90.107069    254.47432    224.39527    28.379284    18.849836    14.339616    28.379015    18.844271    14.341404 
  820000    297.66598    1.2509986    3521.2997            0            0            0            0     647.3663    44657.537 -0.067234084   -17.036218 -0.041707817    3521.2997    1442.5937    1001.4908    919.75788    28.379055    18.848384    14.338996 0.00041883274 0.00041867618   0.61825472   0.61824728    297.66598     41.49527    35.978931    34.423473    90.016431    119.66323    90.107069    238.37429    251.29964    28.379391     18.84867    14.339746    28.378558    18.847643    14.338345 
  830000    300.09958    1.2509986    3659.5163            0            0            0            0   -405.92506    44657.537 -0.067234084   -17.036218 -0.041707817    3659.5163     1507.703    996.89299     987.5932    28.377488    18.846578    14.336068 0.00035912913 0.00035670219   0.64792359   0.64791819    300.09958     41.49527    35.978931    34.423473    90.016431    119.66323    90.107069    249.81342    215.47748    28.379881    18.849593    14.338229    28.379168    18.845666    14.335041 
  840000    299.62459    1.2509986    3509.9722            0            0            0            0   -733.32077    44657.537 -0.067234084   -17.036218 -0.041707817    3509.9722    1435.9862    1017.4456    897.79605    28.382225    18.850421    14.338096 0.0003419277 0.00034167575   0.64805354   0.64802249    299.62459     41.49527    35.978931    34.423473    90.016431    119.66323    90.107069    249.86352    205.15662    28.379751    18.848556    14.339709    28.382492    18.850124    14.338767 
  850000    291.67433    1.2509986    3653.7708            0            0            0            0    1593.1337    44657.537 -0.067234084   -17.036218 -0.041707817    3653.7708    1464.8188    1072.7551    956.92962    28.378905    18.853804      14.3389 0.00037471656 0.00037255792   0.66298335   0.66293079    291.67433     41.49527    35.978931    34.423473    90.016431    119.66323    90.107069    255.61986    224.82993    28.380285    18.847953    14.340348    28.378432    18.852501    14.338397 
  860000    298.13458    1.2509986    3630.6099            0            0            0            0    833.84827    44657.537 -0.067234084   -17.036218 -0.041707817    3630.6099    1506.2437    1056.5123    912.41042    28.378683    18.849628    14.337552 0.00032371616 0.00031926471   0.64123887   0.64121273    298.13458     41.49527    35.978931    34.423473    90.016431    119.66323    90.107069    247.23606     194.2297    28.377517    18.848699    14.340076    28.380515    18.850341    14.338664 
  870000    297.78639    1.2509986     3558.671            0            0            0            0     1624.888    44657.537 -0.067234084   -17.036218 -0.041707817     3558.671    1458.5161    1024.7635    914.08526    28.376573    18.849529    14.337656 0.00034876442 0.00034646543    0.6377633   0.63774024    297.78639     41.49527    35.978931    34.423473    90.016431    119.66323    90.107069    245.89602    209.25865    28.378784    18.848789    14.340923    28.376665    18.849014    14.338059 
  880000     290.8704    1.2509986    3598.2184            0            0            0            0   -972.50328    44657.537 -0.067234084   -17.036218 -0.041707817    3598.2184    1498.2284    1016.2073     925.6431     28.37945    18.847117    14.343972 0.00038093282 0.00037780416   0.61064627   0.61060494     290.8704     41.49527    35.978931    34.423473    90.016431    119.66323    90.107069    235.44078    228.55969    28.378272    18.847797    14.339662    28.377466    18.846255    14.343198 
  890000    291.73945    1.2509986    3561.9062            0            0            0            0   -13.813683    44657.537 -0.067234084   -17.036218 -0.041707817    3561.9062    1462.0867    1025.0993    922.91336    28.377429    18.853006    14.339761 0.00033637471 0.00033320678     0.614611   0.61454611    291.73945     41.49527    35.978931    34.423473    90.016431    119.66323    90.107069    236.96942    201.82483    28.380646    18.850415     14.33951    28.377166     18.85304    14.338066 
  900000    301.54047    1.2509986    3648.8828            0            0            0            0    842.88657    44657.537 -0.067234084   -17.036218 -0.041707817    3648.8828    1494.3438    1036.0588    956.74722    28.378148    18.848666    14.343265 0.00036892354 0.00036516235   0.58095202   0.58088722    301.54047     41.49527    35.978931    34.423473    90.016431    119.66323    90.107069    223.99186    221.35412    28.381196     18.84908    14.340672    28.377456     18.84961    14.343756 
  910000    299.83029    1.2509986     3628.584            0            0            0            0    1261.0003    44657.537 -0.067234084   -17.036218 -0.041707817     3628.584    1535.3976    999.17332    933.92482    28.376707    18.850318    14.337135 0.00034131499 0.00034065066   0.62297998   0.62293668    299.83029     41.49527    35.978931    34.423473    90.016431    119.66323    90.107069    240.19616    204.78899    28.379409    18.849813    14.339586    28.376732    18.851083    14.335728 
  920000     296.5013    1.2509986      3476.71            0            0            0            0    1889.6721    44657.537 -0.067234084   -17.036218 -0.041707817      3476.71    1392.0799    1028.0954    902.53704    28.375842    18.849371    14.333623 0.00038965234 0.00038726565   0.67823309    0.6781779     296.5013     41.49527    35.978931    34.423473    90.016431    119.66323    90.107069    261.49955     233.7914    28.378437    18.847956    14.339504    28.375255    18.849846    14.333352 
  930000     295.8041    1.2509986    3530.2289            0            0            0            0    1328.1179    44657.537 -0.067234084   -17.036218 -0.041707817    3530.2289    1437.9087    1019.2667    915.93777    28.377982     18.84712    14.339447 0.00035872711 0.00035802508   0.52584224   0.52581766     295.8041     41.49527    35.978931    34.423473    90.016431    119.66323    90.107069    202.74373    215.23627    28.379244    18.849593    14.340155    28.377938    18.847798    14.341223 
  940000    302.32251    1.2509986    3509.8314            0            0            0            0     2204.804    44657.537 -0.067234084   -17.036218 -0.041707817    3509.8314    1465.4297     991.7479    899.34768     28.37806    18.845142    14.339538 0.00035975147 0.00035708766   0.60633206    0.6063218    302.32251     41.49527    35.978931    34.423473    90.016431    119.66323    90.107069    233.77739    215.85088    28.379503    18.847387    14.339767    28.379189    18.845105    14.340384 
  950000    297.15378    1.2509986    3526.8592            0            0            0            0   -554.60379    44657.537 -0.067234084   -17.036218 -0.041707817    3526.8592    1484.1578    992.83182    894.75028    28.380584    18.851534    14.342533 0.00036250623 0.00036165719   0.59848853   0.59839753    297.15378     41.49527    35.978931    34.423473    90.016431    119.66323    90.107069    230.75324    217.50374    28.379172     18.84893    14.338805    28.380191    18.852819     14.34334 
  960000    300.63751    1.2509986    3648.1844            0            0            0            0   -794.71933    44657.537 -0.067234084   -17.036218 -0.041707817    3648.1844    1509.3335    1024.6036    953.65166    28.380998     18.84819    14.335283 0.00035680715 0.00035576597   0.60202687   0.60202172    300.63751     41.49527    35.978931    34.423473    90.016431    119.66323    90.107069    232.11748    214.08429     28.38048    18.849093    14.340064    28.381546    18.846614    14.336343 
  970000    300.28421    1.2509986    3617.5353            0            0            0            0     -69.2668    44657.537 -0.067234084   -17.036218 -0.041707817    3617.5353    1498.7813    1041.4007    923.12735    28.377102    18.841608    14.337931 0.00038753859 0.00038736598   0.66073064   0.66070461    300.28421     41.49527    35.978931    34.423473    90.016431    119.66323    90.107069    254.75131    232.52316    28.379498    18.848759    14.339315    28.377396    18.841055     14.33808 
  980000    293.24558    1.2509986    3737.4855            0            0            0            0    560.57759    44657.537 -0.067234084   -17.036218 -0.041707817    3737.4855    1538.5468    1108.6194    933.95192    28.379329    18.847242    14.337134 0.00040906915 0.00040857377    0.5752674   0.57525901    293.24558     41.49527    35.978931    34.423473    90.016431    119.66323    90.107069     221.8001    245.44149    28.379201    18.849577    14.339864    28.379077    18.848182    14.336545 
  990000    301.78153    1.2509986    3543.1884            0            0            0            0    1386.1414    44657.537 -0.067234084   -17.036218 -0.041707817    3543.1884    1459.8405     953.3193    966.95463    28.379469    18.846926    14.336977 0.00036960497 0.00036943294   0.60326477   0.60326163    301.78153     41.49527    35.978931    34.423473    90.016431    119.66323    90.107069    232.59477    221.76298    28.379623    18.848777    14.339303    28.379347    18.847157    14.336963 
 1000000    301.04066    1.2509986    3574.7635            0            0            0            0    169.31569    44657.537 -0.067234084   -17.036218 -0.041707817    3574.7635    1472.4476    1042.1896     910.2603     28.37587    18.853889    14.335568 0.00033209089 0.00033112663   0.60058815   0.60048381    301.04066     41.49527    35.978931    34.423473    90.016431    119.66323    90.107069    231.56277    199.25453    28.379483    18.849962     14.33988    28.375228    18.854259    14.334783 
 1010000    293.55542    1.2509986    3630.8629            0            0            0            0    62.230151    44657.537 -0.067234084   -17.036218 -0.041707817    3630.8629     1466.965    1076.3348    932.68792    28.380001    18.851144    14.339866 0.0003369853 0.00033629469     0.602065    0.6020245    293.55542     41.49527    35.978931    34.423473    90.016431    119.66323    90.107069    232.13218    202.19118    28.379111    18.848362    14.339377    28.380471      18.8511    14.340165 
 1020000    300.18076    1.2509986    3626.8987            0            0            0            0   -437.91845    44657.537 -0.067234084   -17.036218 -0.041707817    3626.8987    1530.3768    1002.5739    936.61944    28.382572    18.845522    14.340437 0.0003474143 0.00034697351   0.61587925   0.61586964    300.18076     41.49527    35.978931    34.423473    90.016431    119.66323    90.107069     237.4584    208.44858     28.37965    18.849614    14.339373    28.380828    18.845987    14.340148 
 1030000    303.46734    1.2509986     3541.537            0            0            0            0    219.57446    44657.537 -0.067234084   -17.036218 -0.041707817     3541.537    1454.5192    1021.7043     913.4267    28.380308    18.843872    14.340133 0.00035852789 0.00035784029   0.58837355   0.58836595    303.46734     41.49527    35.978931    34.423473    90.016431    119.66323    90.107069    226.85331    215.11673    28.380112    18.848547    14.339236    28.381831    18.845227    14.339127 
 1040000    300.83327    1.2509986    3616.8425            0            0            0            0    802.01324    44657.537 -0.067234084   -17.036218 -0.041707817    3616.8425    1448.8913    1044.1801    960.62593    28.382752    18.848231    14.339569 0.00032883195 0.00032657797   0.61047341   0.61043986    300.83327     41.49527    35.978931    34.423473    90.016431    119.66323    90.107069    235.37413    197.29917    28.380401    18.849429    14.338468    28.384903    18.847304    14.339335 
 1050000    304.13738    1.2509986    3586.6149            0            0            0            0   -1442.6779    44657.537 -0.067234084   -17.036218 -0.041707817    3586.6149    1499.6802     1046.295    889.47174    28.377449    18.846116    14.340325 0.00037980418 0.00037897905   0.61513407   0.61512235    304.13738     41.49527    35.978931    34.423473    90.016431    119.66323    90.107069    237.17109    227.88251    28.378812    18.849425    14.339956    28.377105    18.845757    14.339342 
 1060000     300.0008    1.2509986    3567.8354            0            0            0            0    -595.1774    44657.537 -0.067234084   -17.036218 -0.041707817    3567.8354    1439.4162    1018.0685    947.51666    28.375067      18.8467    14.340046 0.00037329502 0.0003718231   0.57123941   0.57117832     300.0008     41.49527    35.978931    34.423473    90.016431    119.66323    90.107069    220.24707    223.97701    28.379977    18.848028    14.340208    28.372028    18.845214    14.337929 
 1070000    303.06591    1.2509986    3582.9562            0            0            0            0   -2004.7154    44657.537 -0.067234084   -17.036218 -0.041707817    3582.9562    1478.8619    1013.5552    931.44203    28.386957    18.850654    14.343842 0.00033646993 0.00032979114   0.61474997   0.61466695    303.06591     41.49527    35.978931    34.423473    90.016431    119.66323    90.107069      237.023    201.88196    28.381413    18.849412    14.341391     28.38462    18.850376    14.343254 
 1080000    298.31311    1.2509986    3579.6104            0            0            0            0   -1306.9944    44657.537 -0.067234084   -17.036218 -0.041707817    3579.6104    1484.1437    1039.3918    903.46635    28.382007    18.846752    14.340751 0.00036515139 0.00036439465   0.57523649   0.57522078    298.31311     41.49527    35.978931    34.423473    90.016431    119.66323    90.107069    221.78818    219.09084    28.379244    18.848522    14.338991    28.382606    18.845229    14.340066 
 1090000    296.54638    1.2509986    3643.9436            0            0            0            0   -143.84812    44657.537 -0.067234084   -17.036218 -0.041707817    3643.9436    1470.0515     1076.608    932.44929    28.377598    18.851303    14.339411 0.00033860811 0.00033694997   0.64435988   0.64427675    296.54638     41.49527    35.978931    34.423473    90.016431    119.66323    90.107069    248.43939    203.16487    28.380496    18.849002    14.340519    28.375697    18.852599    14.341193 
 1100000    301.96914    1.2509986    3651.5558            0            0            0            0    2375.8007    44657.537 -0.067234084   -17.036218 -0.041707817    3651.5558    1514.5229     1042.665    934.33307    28.376636    18.848338    14.339967 0.00034416249 0.00034397249   0.56541542   0.56538269    301.96914     41.49527    35.978931    34.423473    90.016431    119.66323    90.107069    218.00157     206.4975    28.379888     18.84879    14.339463    28.375962     18.84851    14.340213 
 1110000    296.38954    1.2509986    3678.7771            0            0            0            0    1689.4598    44657.537 -0.067234084   -17.036218 -0.041707817    3678.7771    1476.9204    1064.5067    966.22503    28.376571    18.846514    14.335205 0.00036094342 0.00035954813   0.58307444   0.58306624    296.38954     41.49527    35.978931    34.423473    90.016431    119.66323    90.107069    224.81018    216.56605    28.380551    18.848377    14.339695    28.377277    18.845328    14.335942 
 1120000    296.23353    1.2509986    3604.4767            0            0            0            0   -1013.0568    44657.537 -0.067234084   -17.036218 -0.041707817    3604.4767    1451.2104    1046.8597    942.94884    28.377112    18.846579    14.334968 0.00037023858 0.00036625131   0.57968708   0.57967417    296.23353     41.49527    35.978931    34.423473    90.016431    119.66323    90.107069    223.50415    222.14315    28.379898    18.850939    14.339239    28.377822    18.845964    14.334312 
 1130000    303.09679    1.2509986    3594.7579            0            0            0            0       509.92    44657.537 -0.067234084   -17.036218 -0.041707817    3594.7579    1476.2957    1002.4747    955.90403    28.381329    18.852236    14.342528 0.00035586099 0.00035514572   0.63647115   0.63640595    303.09679     41.49527    35.978931    34.423473    90.016431    119.66323    90.107069    245.39782     213.5166    28.379973    18.848372    14.340001    28.379794    18.851886    14.342172 
 1140000    302.87688    1.2509986    3569.1414            0            0            0            0    221.79689    44657.537 -0.067234084   -17.036218 -0.041707817    3569.1414    1510.4633    1018.8045      886.769    28.375632    18.844926    14.335609 0.00036470335 0.00036453914   0.58260352   0.58259315    302.87688     41.49527    35.978931    34.423473    90.016431    119.66323    90.107069    224.62861    218.82201    28.379202    18.849026    14.339442    28.376967    18.844325     14.33629 
 1150000    297.30801    1.2509986    3580.1577            0            0            0            0    1260.8991    44657.537 -0.067234084   -17.036218 -0.041707817    3580.1577    1479.0597    1021.6934    924.76954    28.375483    18.851698    14.332632 0.00037576106 0.00037539922   0.63434917   0.63422673    297.30801     41.49527    35.978931    34.423473    90.016431    119.66323    90.107069    244.57966    225.45664     28.37941    18.848456    14.339812    28.372284    18.851426    14.331756 
 1160000    303.55062    1.2509986      3621.13            0            0            0            0    200.25033    44657.537 -0.067234084   -17.036218 -0.041707817      3621.13    1507.1454      1042.85    917.56875    28.373466    18.850453    14.339791 0.00035518516 0.00035226683   0.65005468   0.64997705    303.55062     41.49527    35.978931    34.423473    90.016431    119.66323    90.107069    250.63508     213.1111     28.38036    18.849731    14.340964    28.372743    18.850287    14.339386 
 1170000    298.73629    1.2509986    3611.4078            0            0            0            0    206.62567    44657.537 -0.067234084   -17.036218 -0.041707817    3611.4078     1443.795    1063.2708    940.99137    28.381003    18.852714    14.341939 0.00034845554 0.00034815338   0.61961802   0.61954474    298.73629     41.49527    35.978931    34.423473    90.016431    119.66323    90.107069    238.89992    209.07332    28.379611    18.848467    14.339668     28.37845    18.852734    14.341591 
 1180000    304.58986    1.2509986     3694.278            0            0            0            0    691.53661    44657.537 -0.067234084   -17.036218 -0.041707817     3694.278    1552.0622    1044.1983    943.24553    28.379055    18.852859    14.343301 0.00036737509 0.00036596714   0.62982478   0.62971021    304.58986     41.49527    35.978931    34.423473    90.016431    119.66323    90.107069    242.83524    220.42505    28.379511      18.8484    14.340653    28.379724    18.854231    14.343419 
 1190000    297.47101    1.2509986    3599.1893            0            0            0            0   -1053.8771    44657.537 -0.067234084   -17.036218 -0.041707817    3599.1893    1496.9909    1015.3959    931.56397    28.380871    18.846179    14.340867 0.00033844917 0.0003378932   0.61569161   0.61565781    297.47101     41.49527    35.978931    34.423473    90.016431    119.66323    90.107069    237.38606     203.0695    28.379836    18.848347    14.339451    28.383098    18.844774    14.342008 
 1200000    302.66296    1.2509986    3490.6843            0            0            0            0   -1540.2112    44657.537 -0.067234084   -17.036218 -0.041707817    3490.6843    1435.0132    985.42577    917.81972    28.377825    18.848019    14.334981 0.00035432686 0.00035223966   0.59432802   0.59430859    302.66296     41.49527    35.978931    34.423473    90.016431    119.66323    90.107069    229.14911    212.59612    28.378193    18.849026     14.33916    28.377148    18.847613    14.334479 
 1210000    294.32454    1.2509986    3674.9262            0            0            0            0    145.32528    44657.537 -0.067234084   -17.036218 -0.041707817    3674.9262    1494.1044    1069.4386    949.48519    28.380618    18.847844    14.338859 0.0003453532 0.00034390463   0.57694414   0.57693944    294.32454     41.49527    35.978931    34.423473    90.016431    119.66323    90.107069    222.44658    207.21192     28.37892    18.848721    14.340617    28.379888    18.847454    14.338148 
 1220000    298.15832    1.2509986    3606.5031            0            0            0            0    311.05305    44657.537 -0.067234084   -17.036218 -0.041707817    3606.5031    1547.1533    985.02147    916.24904    28.380002    18.846713    14.339398 0.00036116161   0.00036088   0.60170279    0.6016962    298.15832     41.49527    35.978931    34.423473    90.016431    119.66323    90.107069    231.99253    216.69696    28.379513    18.848624     14.33928    28.379049    18.847499    14.338643 
 1230000    296.12964    1.2509986    3696.2302            0            0            0            0    13.779273    44657.537 -0.067234084   -17.036218 -0.041707817    3696.2302    1521.9368    1058.1467    953.79457    28.383559    18.847097    14.346066 0.00035583636 0.00035537153   0.62552149   0.62542871    296.12964     41.49527    35.978931    34.423473    90.016431    119.66323    90.107069    241.17607    213.50181    28.379758    18.848593     14.33914    28.383309    18.845781    14.346234 
 1240000    296.81866    1.2509986    3528.6972            0            0            0            0   -925.05548    44657.537 -0.067234084   -17.036218 -0.041707817    3528.6972    1488.0992    982.38682    903.39899    28.387385    18.848787    14.346235 0.00036225947 0.00036020895   0.66956176   0.66940997    296.81866     41.49527    35.978931    34.423473    90.016431    119.66323    90.107069    258.15623    217.35568    28.378824    18.847933    14.340228    28.387687    18.849382    14.345896 
 1250000    301.97884    1.2509986    3503.8132            0            0            0            0    1980.0715    44657.537 -0.067234084   -17.036218 -0.041707817    3503.8132    1487.9777    974.77594    889.07788    28.387076    18.853161    14.330578 0.00034921791 0.00034695701   0.62703378   0.62686821    301.97884     41.49527    35.978931    34.423473    90.016431    119.66323    90.107069    241.75914    209.53075    28.380805     18.84907    14.338802    28.386435    18.852268    14.328572 
 1260000    304.41123    1.2509986    3640.6695            0            0            0            0   -851.63005    44657.537 -0.067234084   -17.036218 -0.041707817    3640.6695    1510.9807    1021.3691    952.36117    28.380884    18.846356    14.337526 0.00036964962 0.0003691622   0.58030661    0.5803025    304.41123     41.49527    35.978931    34.423473    90.016431    119.66323    90.107069    223.74302    221.78977      28.3791    18.849035    14.340166    28.379446    18.847294    14.336451 
 1270000    297.92107    1.2509986    3595.6714            0            0            0            0    1786.3817    44657.537 -0.067234084   -17.036218 -0.041707817    3595.6714    1500.1447    1045.1635    899.78954    28.379059    18.846475    14.339393 0.00035042638 0.00034918437   0.56795081   0.56793335    297.92107     41.49527    35.978931    34.423473    90.016431    119.66323    90.107069    218.97911    210.25583     28.38059    18.848595    14.339641    28.380163    18.848081    14.340511 
 1280000    296.27529    1.2509986    3577.3883            0            0            0            0   -613.28607    44657.537 -0.067234084   -17.036218 -0.041707817    3577.3883    1476.6388    1038.7845    904.62599    28.377705    18.844188    14.338824 0.00034812828 0.00034674813   0.59608774   0.59607898    296.27529     41.49527    35.978931    34.423473    90.016431    119.66323    90.107069    229.82759    208.87697    28.380064    18.849696    14.340448    28.378822    18.842943    14.338431 
 1290000    294.88855    1.2509986      3595.86            0            0            0            0    1237.1266    44657.537 -0.067234084   -17.036218 -0.041707817      3595.86    1470.1177    1031.3312    932.66661    28.379396    18.849726    14.343563 0.0003126723 0.00031094855   0.60464865   0.60460186    294.88855     41.49527    35.978931    34.423473    90.016431    119.66323    90.107069    233.12833    187.60338    28.379937    18.849621    14.338539    28.379273    18.848243    14.343496 
 1300000    301.17026    1.2509986    3596.0805            0            0            0            0    526.41827    44657.537 -0.067234084   -17.036218 -0.041707817    3596.0805    1493.0267    983.29096    959.92726    28.375162    18.849598    14.340172 0.00036729806 0.00036632508   0.60607213   0.60603844    301.17026     41.49527    35.978931    34.423473    90.016431    119.66323    90.107069    233.67717    220.37883    28.380344    18.848456    14.339846    28.377095    18.849881    14.339888 
 1310000    298.66605    1.2509986    3654.0922            0            0            0            0   -149.94671    44657.537 -0.067234084   -17.036218 -0.041707817    3654.0922    1540.6442    1025.2558    931.85581    28.380549    18.849825    14.340215 0.00036381605 0.00036326461   0.61241525   0.61237564    298.66605     41.49527    35.978931    34.423473    90.016431    119.66323    90.107069    236.12282    218.28963    28.379155    18.848415     14.33982    28.381521    18.850643    14.340421 
 1320000    294.95366    1.2509986    3560.1361            0            0            0            0     2.946223    44657.537 -0.067234084   -17.036218 -0.041707817    3560.1361    1439.0722    1036.0062    930.31853    28.372359    18.846984    14.338564 0.00033259149 0.00033242533   0.62274315   0.62269954    294.95366     41.49527    35.978931    34.423473    90.016431    119.66323    90.107069    240.10485    199.55489    28.379645    18.849158    14.339268    28.373401    18.846541    14.338436 
 1330000    295.49185    1.2509986    3561.4261            0            0            0            0     55.60907    44657.537 -0.067234084   -17.036218 -0.041707817    3561.4261    1437.6616    1057.1477     913.1642    28.386747    18.850337    14.339069 0.00034990098 0.00034958995   0.64994783   0.64982123    295.49185     41.49527    35.978931    34.423473    90.016431    119.66323    90.107069    250.59388    209.94059    28.379595    18.848559     14.33996    28.389165    18.850889    14.340396 
 1340000    297.91169    1.2509986    3597.9088            0            0            0            0   -119.89931    44657.537 -0.067234084   -17.036218 -0.041707817    3597.9088    1466.0456    1048.6475    927.66218    28.383319    18.850087    14.335555 0.00036736158 0.0003636768   0.62373961   0.62372351    297.91169     41.49527    35.978931    34.423473    90.016431    119.66323    90.107069    240.48904    220.41695    28.378314     18.84831    14.338355    28.380353    18.849073    14.335574 
 1350000    299.69736    1.2509986      3568.56            0            0            0            0   -499.94577    44657.537 -0.067234084   -17.036218 -0.041707817      3568.56    1470.4979    1006.8585    931.33704     28.37898    18.849829    14.341839 0.00038722743 0.00038696294   0.60823824    0.6081952    299.69736     41.49527    35.978931    34.423473    90.016431    119.66323    90.107069    234.51234    232.33646    28.379324    18.849103    14.339189    28.377469    18.850049    14.341341 
 1360000    306.03006    1.2509986    3617.6947            0            0            0            0   -417.32594    44657.537 -0.067234084   -17.036218 -0.041707817    3617.6947    1496.1973    1071.2753    898.60608    28.378578     18.85329    14.342877 0.00036022274 0.00035961773   0.61135795   0.61124177    306.03006     41.49527    35.978931    34.423473    90.016431    119.66323    90.107069    235.71517    216.13365    28.379552    18.849791    14.339651    28.376161    18.853499    14.343466 
 1370000    298.35884    1.2509986    3499.7675            0            0            0            0     322.0035    44657.537 -0.067234084   -17.036218 -0.041707817    3499.7675    1430.3903    1002.3503    911.71178    28.378534    18.848843     14.33808 0.00036823902 0.00036823103   0.58575679   0.58574157    298.35884     41.49527    35.978931    34.423473    90.016431    119.66323    90.107069    225.84439    220.94341    28.379621    18.848954    14.339617    28.378328    18.848869    14.338488 
 1380000    300.47466    1.2509986     3512.317            0            0            0            0     1669.266    44657.537 -0.067234084   -17.036218 -0.041707817     3512.317    1444.5626    980.59635    928.44587    28.382632    18.850775    14.340749 0.00036658372 0.00036321916   0.63388379   0.63382419    300.47466     41.49527    35.978931    34.423473    90.016431    119.66323    90.107069    244.40023    219.95023    28.378645    18.850472    14.339003    28.384676    18.850954    14.339698 
 1390000    302.48613    1.2509986    3577.9993            0            0            0            0   -666.33228    44657.537 -0.067234084   -17.036218 -0.041707817    3577.9993     1450.132    1005.3448    961.47255    28.378172    18.844719    14.339178 0.00032963273 0.00032887705   0.59430012   0.59429034    302.48613     41.49527    35.978931    34.423473    90.016431    119.66323    90.107069    229.13836    197.77964    28.380186    18.848901    14.340228    28.378756    18.844138    14.339887 
 1400000     299.5653    1.2509986    3588.6094            0            0            0            0   -549.99912    44657.537 -0.067234084   -17.036218 -0.041707817    3588.6094    1486.4334     1041.819    904.31067    28.380737    18.846075    14.340457 0.00037077926 0.00036858061   0.60919314   0.60917937     299.5653     41.49527    35.978931    34.423473    90.016431    119.66323    90.107069    234.88051    222.46756    28.380768    18.848165    14.339742    28.382185    18.845738    14.340105 
 1410000    298.89549    1.2509986    3593.6371            0            0            0            0    533.25297    44657.537 -0.067234084   -17.036218 -0.041707817    3593.6371      1504.54    1045.3046    889.88155    28.377675    18.855417    14.339017 0.00035026883 0.00034745255   0.58977787   0.58963451    298.89549     41.49527    35.978931    34.423473    90.016431    119.66323    90.107069    227.39476     210.1613    28.378576    18.850001      14.3387     28.37792    18.857086    14.339487 
 1420000    297.55233    1.2509986    3582.8261            0            0            0            0    597.79394    44657.537 -0.067234084   -17.036218 -0.041707817    3582.8261    1464.5427    1013.3544    943.27741    28.377919    18.847905    14.337811 0.00033629092 0.00033579602   0.63405512   0.63403891    297.55233     41.49527    35.978931    34.423473    90.016431    119.66323    90.107069    244.46629    201.77455     28.38015    18.848969    14.339263    28.376563    18.847617    14.336235 
 1430000    299.37228    1.2509986    3562.9223            0            0            0            0    1604.3136    44657.537 -0.067234084   -17.036218 -0.041707817    3562.9223     1445.084    1005.1124    948.73885    28.381179    18.843102    14.340346 0.00031760938 0.00031693668   0.61844208   0.61843293    299.37228     41.49527    35.978931    34.423473    90.016431    119.66323    90.107069    238.44653    190.56563    28.380224    18.848848    14.339191     28.38056    18.843743    14.339629 
 1440000    296.11925    1.2509986    3599.2368            0            0            0            0   -396.00444    44657.537 -0.067234084   -17.036218 -0.041707817    3599.2368    1480.5335    1021.1807    937.22786    28.375041    18.847367    14.338544 0.00037854183 0.00037563053   0.62160952   0.62158095    296.11925     41.49527    35.978931    34.423473    90.016431    119.66323    90.107069    239.66777     227.1251    28.380441    18.848046    14.338545    28.375334    18.847953    14.338807 
 1450000    297.46105    1.2509986    3616.7526            0            0            0            0   -716.44589    44657.537 -0.067234084   -17.036218 -0.041707817    3616.7526     1507.423     1011.152    944.48163    28.381517    18.843876    14.337628 0.00036477751 0.00036430195   0.60824765   0.60821716    297.46105     41.49527    35.978931    34.423473    90.016431    119.66323    90.107069    234.51596    218.86651    28.379925    18.849592    14.339571    28.384104    18.842004    14.337156 
 1460000    297.60196    1.2509986    3494.3789            0            0            0            0     844.9062    44657.537 -0.067234084   -17.036218 -0.041707817    3494.3789    1467.1659    982.91112    891.33978    28.372364    18.841664    14.342039 0.00033188962 0.0003282443   0.67907156   0.67895581    297.60196     41.49527    35.978931    34.423473    90.016431    119.66323    90.107069    261.82283    199.13377    28.378147    18.847728    14.339719    28.370987    18.841585    14.342033 
 1470000    298.70614    1.2509986    3638.9295            0            0            0            0   -894.34991    44657.537 -0.067234084   -17.036218 -0.041707817    3638.9295    1479.5987    1065.9071    937.29084    28.378942    18.852966    14.344695 0.0003800082 0.00037913499   0.63015208   0.62998441    298.70614     41.49527    35.978931    34.423473    90.016431    119.66323    90.107069    242.96144    228.00492    28.380314    18.848489    14.339794    28.377756    18.855246    14.345508 
 1480000    300.82549    1.2509986    3616.6427            0            0            0            0    819.01621    44657.537 -0.067234084   -17.036218 -0.041707817    3616.6427    1489.4158    1038.3302    931.65418    28.380122    18.851631    14.336665 0.00035318605 0.00035202771   0.64308934   0.64304927    300.82549     41.49527    35.978931    34.423473    90.016431    119.66323    90.107069    247.94953    211.91163    28.380004    18.848189    14.340167    28.380454    18.851678     14.33618 
 1490000    292.81642    1.2509986    3662.8214            0            0            0            0    1084.3722    44657.537 -0.067234084   -17.036218 -0.041707817    3662.8214    1516.1641    1051.7246    933.43625    28.384934    18.854982    14.338971 0.00035744785 0.00035624173   0.60341739   0.60328278    292.81642     41.49527    35.978931    34.423473    90.016431    119.66323    90.107069    232.65361    214.46871    28.379935    18.849492    14.340551    28.386465     18.85469    14.339592 
 1500000    298.07366    1.2509986    3621.8265            0            0            0            0   -1697.6696    44657.537 -0.067234084   -17.036218 -0.041707817    3621.8265     1490.238    988.76964     977.6825     28.37933    18.849691    14.333974 0.00035055071 0.00034661165   0.58801244   0.58798012    298.07366     41.49527    35.978931    34.423473    90.016431    119.66323    90.107069    226.71408    210.33042    28.379287    18.850913    14.339132    28.378131    18.848378    14.332675 
 1510000    295.02074    1.2509986    3587.8479            0            0            0            0    269.34948    44657.537 -0.067234084   -17.036218 -0.041707817    3587.8479    1447.4181    1056.2584    924.73945    28.377355    18.850787    14.338923 0.0003655094 0.00036334393   0.63717537   0.63713958    295.02074     41.49527    35.978931    34.423473    90.016431    119.66323    90.107069    245.66933    219.30564     28.37923    18.847961    14.338662    28.377459    18.850193    14.340092 
 1520000    298.39329    1.2509986     3601.833            0            0            0            0   -2124.4322    44657.537 -0.067234084   -17.036218 -0.041707817     3601.833    1477.2439    1009.3694    948.20691    28.375745    18.843269    14.336578 0.00037561628 0.00037508876   0.63873273   0.63869987    298.39329     41.49527    35.978931    34.423473    90.016431    119.66323    90.107069    246.26979    225.36977    28.379451    18.849546    14.339156    28.375722    18.841625    14.336114 
[...]
 1630000    296.42819    1.2509986    3495.0715            0            0            0            0    -1299.497    44657.537 -0.067234084   -17.036218 -0.041707817    3495.0715    1388.8312    1012.0424    934.14204    28.379401    18.852408     14.34142 0.0003308377 0.00032982304   0.63050217   0.63045367    296.42819     41.49527    35.978931    34.423473    90.016431    119.66323    90.107069    243.09641    198.50262    28.378993    18.849848    14.339644    28.379446    18.851806    14.340141 
 1640000    298.43773    1.2509986    3580.2765            0            0            0            0    1217.4013    44657.537 -0.067234084   -17.036218 -0.041707817    3580.2765    1473.1432    991.40709     951.3519    28.374753    18.848387    14.336518 0.00036913186 0.00036766317    0.6616494   0.66159907    298.43773     41.49527    35.978931    34.423473    90.016431    119.66323    90.107069    255.10554    221.47912    28.378889    18.848819    14.338645    28.373929    18.849162    14.335807 
 1650000    296.63928    1.2509986    3584.9471            0            0            0            0   -684.06679    44657.537 -0.067234084   -17.036218 -0.041707817    3584.9471    1515.7074    975.20342    936.76768    28.377446    18.851266    14.341791 0.00036179227 0.00036079851   0.61243112   0.61236857    296.63928     41.49527    35.978931    34.423473    90.016431    119.66323    90.107069    236.12894    217.07536    28.379259    18.849674    14.340322    28.378115    18.852486    14.340506 
 1660000    301.46093    1.2509986    3593.3655            0            0            0            0    956.31082    44657.537 -0.067234084   -17.036218 -0.041707817    3593.3655    1454.1344    1028.2481    948.65706    28.374948    18.846893    14.336753 0.00039269795 0.0003912275   0.63161297   0.63156943    301.46093     41.49527    35.978931    34.423473    90.016431    119.66323    90.107069    243.52469    235.61877    28.378762    18.849564    14.338906    28.373721     18.84761    14.335896 
 1670000    297.45756    1.2509986    3536.6733            0            0            0            0    343.98756    44657.537 -0.067234084   -17.036218 -0.041707817    3536.6733    1486.9782    972.64299     920.3622    28.372777     18.84701    14.331995 0.00037134304 0.00037131286   0.64731408   0.64723688    297.45756     41.49527    35.978931    34.423473    90.016431    119.66323    90.107069    249.57842    222.80583    28.379695       18.849    14.339742    28.373076    18.847742    14.332098 
 1680000    303.46713    1.2509986    3561.3405            0            0            0            0    868.00806    44657.537 -0.067234084   -17.036218 -0.041707817    3561.3405    1457.1817    1008.6237    935.42238    28.379379    18.848072    14.338377 0.00036932062 0.00036634728   0.59576759   0.59575003    303.46713     41.49527    35.978931    34.423473    90.016431    119.66323    90.107069    229.70415    221.59237    28.379333    18.850453    14.338716    28.377444    18.848346    14.339188 
 1690000    302.64442    1.2509986    3598.1297            0            0            0            0   -1599.1326    44657.537 -0.067234084   -17.036218 -0.041707817    3598.1297    1499.2256    1051.6456    896.56022    28.378118    18.849267    14.339507 0.00036146372 0.00036090815   0.61937036    0.6193506    302.64442     41.49527    35.978931    34.423473    90.016431    119.66323    90.107069    238.80444    216.87823    28.379445    18.848496    14.339113      28.3803    18.849051    14.339859 
 1700000    295.59623    1.2509986    3556.3376            0            0            0            0    821.39024    44657.537 -0.067234084   -17.036218 -0.041707817    3556.3376    1450.1483    1013.1528    939.66676    28.386054    18.846792    14.343343 0.0003439609 0.00033894313    0.6077862   0.60766042    295.59623     41.49527    35.978931    34.423473    90.016431    119.66323    90.107069    234.33805    206.37654    28.378582    18.847853    14.341288    28.387331    18.848381    14.345062 
 1710000    292.08032    1.2509986    3592.3967            0            0            0            0    -530.7027    44657.537 -0.067234084   -17.036218 -0.041707817    3592.3967    1475.8737    1046.5006    909.89085    28.389935    18.850011    14.343559 0.00038515218 0.0003825777   0.63965316   0.63954041    292.08032     41.49527    35.978931    34.423473    90.016431    119.66323    90.107069    246.62467    231.09131    28.378825    18.848609    14.341008    28.387909    18.849139    14.343075 
 1720000    296.24027    1.2509986     3581.733            0            0            0            0   -369.49909    44657.537 -0.067234084   -17.036218 -0.041707817     3581.733    1500.8932    990.16228    928.13128    28.375373     18.84881    14.334862 0.00038269769 0.00037845987   0.61852033    0.6184975    296.24027     41.49527    35.978931    34.423473    90.016431    119.66323    90.107069     238.4767    229.61861    28.378811    18.850019    14.338004    28.377475    18.848573    14.334477 
 1730000    302.37038    1.2509986    3614.4618            0            0            0            0    -498.6508    44657.537 -0.067234084   -17.036218 -0.041707817    3614.4618    1486.0392    1032.7036    938.97502    28.379796    18.852841    14.339443 0.00033327726 0.0003311638   0.65759991   0.65751887    302.37038     41.49527    35.978931    34.423473    90.016431    119.66323    90.107069    253.54422    199.96635    28.379934    18.848966    14.341041     28.38141    18.854225    14.338645 
 1740000    292.45935    1.2509986    3552.4026            0            0            0            0    433.32639    44657.537 -0.067234084   -17.036218 -0.041707817    3552.4026    1478.3285    1015.7706     904.0954    28.383332    18.847456    14.344305 0.00034908476 0.00034546372   0.62044123   0.62037885    292.45935     41.49527    35.978931    34.423473    90.016431    119.66323    90.107069    239.21732    209.45086    28.379633    18.848074    14.341291    28.383192    18.848362    14.343792 
 1750000    299.91336    1.2509986    3591.1538            0            0            0            0   -2238.8542    44657.537 -0.067234084   -17.036218 -0.041707817    3591.1538    1510.8961    1012.7265    906.61369     28.37931    18.853922     14.33693 0.00032236715 0.00032120597   0.60064004   0.60056059    299.91336     41.49527    35.978931    34.423473    90.016431    119.66323    90.107069    231.58277    193.42029    28.379088    18.849198    14.338686    28.377051    18.853902    14.338157 
 1760000    297.96236    1.2509986    3568.6559            0            0            0            0    991.19558    44657.537 -0.067234084   -17.036218 -0.041707817    3568.6559    1499.5752    1010.1106    901.94341    28.381463    18.847446    14.339324 0.00037402045 0.00037304745   0.64522192   0.64522033    297.96236     41.49527    35.978931    34.423473    90.016431    119.66323    90.107069    248.77176    224.41227    28.380216    18.849521    14.339109    28.379924    18.846654    14.336826 
 1770000    301.71623    1.2509986    3528.6729            0            0            0            0    449.30728    44657.537 -0.067234084   -17.036218 -0.041707817    3528.6729    1444.9264    974.32254    945.52341     28.37686    18.841732    14.336931 0.00037580045 0.00037563393   0.58301683   0.58298262    301.71623     41.49527    35.978931    34.423473    90.016431    119.66323    90.107069    224.78797    225.48027    28.379245    18.849277    14.339636    28.377046    18.840321    14.337221 
 1780000    293.75925    1.2509986    3537.8086            0            0            0            0    755.48988    44657.537 -0.067234084   -17.036218 -0.041707817    3537.8086    1406.2368    1046.8775    922.34938    28.379308    18.845627    14.338887 0.00035187189 0.00035034622   0.62047328     0.620456    293.75925     41.49527    35.978931    34.423473    90.016431    119.66323    90.107069    239.22968    211.12313    28.379263    18.848463    14.340704     28.38336     18.84505    14.339386 
 1790000    293.42535    1.2509986     3548.957            0            0            0            0     2025.633    44657.537 -0.067234084   -17.036218 -0.041707817     3548.957     1467.371    1010.5965    916.72493    28.381755    18.855348    14.342582 0.00035736715 0.00035534394   0.68327339   0.68311459    293.42535     41.49527    35.978931    34.423473    90.016431    119.66323    90.107069    263.44289    214.42029    28.379686    18.850402    14.339914    28.381412    18.857048    14.341986 
 1800000    290.72088    1.2509986    3554.0515            0            0            0            0    -289.3294    44657.537 -0.067234084   -17.036218 -0.041707817    3554.0515    1484.7172    1001.8304    910.36817    28.385056    18.854717    14.342531 0.00035286283 0.00035057129   0.55849338   0.55836996    290.72088     41.49527    35.978931    34.423473    90.016431    119.66323    90.107069    215.33271     211.7177    28.378778    18.848415    14.340791     28.38532    18.853837    14.342075 
 1810000    294.89374    1.2509986    3556.1644            0            0            0            0   -328.89882    44657.537 -0.067234084   -17.036218 -0.041707817    3556.1644    1456.2785    1024.6766    925.06449    28.384332    18.852363    14.339508 0.00034801123 0.0003470216   0.60135374   0.60125845    294.89374     41.49527    35.978931    34.423473    90.016431    119.66323    90.107069    231.85795    208.80674    28.380512    18.849195    14.339429    28.386536    18.852463    14.338381 
 1820000    299.17665    1.2509986    3540.7981            0            0            0            0    354.75845    44657.537 -0.067234084   -17.036218 -0.041707817    3540.7981    1456.2449    1051.4109    884.97351    28.378487    18.847639    14.337392 0.00038596853 0.00038471272   0.63065651   0.63065309    299.17665     41.49527    35.978931    34.423473    90.016431    119.66323    90.107069    243.15592    231.58112    28.379071    18.850003    14.339442    28.378839    18.846849    14.336506 
 1830000    295.86563    1.2509986     3598.863            0            0            0            0   -789.52132    44657.537 -0.067234084   -17.036218 -0.041707817     3598.863    1482.1788    1007.0672    942.93283    28.378086    18.841521    14.343167 0.00032103832 0.00031963098   0.65457321   0.65449777    295.86563     41.49527    35.978931    34.423473    90.016431    119.66323    90.107069    252.37725    192.62299    28.379608    18.847886    14.340006    28.378067    18.840982    14.344489 
 1840000    298.07566    1.2509986    3601.4082            0            0            0            0    1032.4545    44657.537 -0.067234084   -17.036218 -0.041707817    3601.4082    1490.0849    1015.4847    934.35889    28.380471    18.849381     14.33968 0.00039628997 0.0003948784   0.60158218   0.60156327    298.07566     41.49527    35.978931    34.423473    90.016431    119.66323    90.107069    231.94602    237.77398    28.380687    18.848675    14.339503     28.37965    18.849301    14.339324 
 1850000    302.19529    1.2509986     3565.828            0            0            0            0    2106.9698    44657.537 -0.067234084   -17.036218 -0.041707817     3565.828    1442.4458    1010.6961    952.32431    28.372891    18.850726    14.337902 0.00035036702 0.0003482011   0.63159358   0.63151699    302.19529     41.49527    35.978931    34.423473    90.016431    119.66323    90.107069    243.51722    210.22021     28.38065    18.849997    14.339587    28.372745    18.850593    14.337929 
 1860000    295.47205    1.2509986    3552.2856            0            0            0            0    738.83057    44657.537 -0.067234084   -17.036218 -0.041707817    3552.2856    1487.0377    996.64013    914.09597    28.380771    18.849092    14.338773 0.00040892481 0.00040597246   0.62546425   0.62543563    295.47205     41.49527    35.978931    34.423473    90.016431    119.66323    90.107069    241.15399    245.35489    28.379549    18.848698    14.341327      28.3774    18.850248    14.337384 
 1870000    296.54421    1.2509986    3531.0451            0            0            0            0    -826.0384    44657.537 -0.067234084   -17.036218 -0.041707817    3531.0451    1472.0551    994.05324    909.13505    28.376561     18.84303    14.335633 0.00035118852 0.0003488941   0.64024636   0.64021644    296.54421     41.49527    35.978931    34.423473    90.016431    119.66323    90.107069    246.85339    210.71311    28.379051    18.848843    14.341056    28.377074    18.841852    14.334215 
 1880000    299.45217    1.2509986    3660.0144            0            0            0            0   -761.75983    44657.537 -0.067234084   -17.036218 -0.041707817    3660.0144    1535.3099    1006.7326    956.79554    28.385181    18.840965    14.340819 0.0003641166 0.00036352058   0.61753755   0.61746025    299.45217     41.49527    35.978931    34.423473    90.016431    119.66323    90.107069    238.09778    218.46996    28.379024    18.848648    14.339215    28.387501    18.843456    14.341019 
 1890000    298.08707    1.2509986    3585.2405            0            0            0            0   -1094.1659    44657.537 -0.067234084   -17.036218 -0.041707817    3585.2405    1472.2414    1043.1376    911.12664    28.384092    18.848468     14.33882 0.00037041144 0.00036948244   0.61539272   0.61536818    298.08707     41.49527    35.978931    34.423473    90.016431    119.66323    90.107069    237.27082    222.24686    28.379447    18.849869    14.340068    28.383318    18.848861    14.338145 
 1900000    298.54979    1.2509986    3604.4651            0            0            0            0    2082.5153    44657.537 -0.067234084   -17.036218 -0.041707817    3604.4651    1456.7796    1058.6374    924.33195     28.37844    18.852188    14.339359 0.00038850361 0.00038814684   0.56907874   0.56904148    298.54979     41.49527    35.978931    34.423473    90.016431    119.66323    90.107069      219.414    233.10216    28.380044    18.849029    14.339983    28.380049    18.850719    14.340379 
 1910000    300.78443    1.2509986    3645.3847            0            0            0            0    1001.9795    44657.537 -0.067234084   -17.036218 -0.041707817    3645.3847    1546.9924    989.82978    944.75883    28.374847    18.849986     14.34303 0.00036795204 0.00036603602   0.60936315   0.60925823    300.78443     41.49527    35.978931    34.423473    90.016431    119.66323    90.107069    234.94605    220.77123    28.380674    18.848242     14.33937    28.373444    18.850866    14.343205 
 1920000    295.80014    1.2509986    3623.7779            0            0            0            0    62.989745    44657.537 -0.067234084   -17.036218 -0.041707817    3623.7779    1519.5946    1042.1337    907.03645    28.377353     18.84981    14.337056 0.00038256081 0.00038126193   0.65704922    0.6570257    295.80014     41.49527    35.978931    34.423473    90.016431    119.66323    90.107069     253.3319    229.53649    28.378865    18.849288    14.338775    28.377693    18.849836    14.337303 
 1930000    300.54429    1.2509986    3611.3544            0            0            0            0    1024.8117    44657.537 -0.067234084   -17.036218 -0.041707817    3611.3544    1508.8311    1028.7265    914.02797    28.380292    18.852879    14.336203 0.00036515054 0.00036510371   0.60915945   0.60911327    300.54429     41.49527    35.978931    34.423473    90.016431    119.66323    90.107069    234.86752    219.09033    28.379543    18.849171    14.339785    28.381102    18.851782    14.335089 
 1940000    300.67297    1.2509986    3534.5532            0            0            0            0    1292.7724    44657.537 -0.067234084   -17.036218 -0.041707817    3534.5532    1423.4097    1026.1992    924.84643    28.377231      18.8492    14.342223 0.00034818939 0.00034739983   0.58542968   0.58539509    300.67297     41.49527    35.978931    34.423473    90.016431    119.66323    90.107069    225.71827    208.91363    28.379219    18.849834    14.339595    28.376243    18.848724    14.340626 
 1950000    298.72422    1.2509986    3638.3065            0            0            0            0   -1427.5096    44657.537 -0.067234084   -17.036218 -0.041707817    3638.3065    1476.8103    1075.6754     928.5029    28.379036    18.849047    14.340275 0.00040877763 0.00040653805   0.59564832    0.5956281    298.72422     41.49527    35.978931    34.423473    90.016431    119.66323    90.107069    229.65817    245.26658    28.380913    18.848856    14.339025    28.379848    18.848217    14.340829 
 1960000    300.76259    1.2509986     3585.953            0            0            0            0   -844.48891    44657.537 -0.067234084   -17.036218 -0.041707817     3585.953    1482.4592    1045.7046    902.36472    28.380854     18.84484    14.340856 0.00036083139 0.00036056694   0.56488641   0.56486532    300.76259     41.49527    35.978931    34.423473    90.016431    119.66323    90.107069     217.7976    216.49883    28.379324    18.849376    14.339357    28.381245    18.843813    14.341298 
 1970000    291.87026    1.2509986     3530.101            0            0            0            0    1398.5976    44657.537 -0.067234084   -17.036218 -0.041707817     3530.101    1449.1172    1027.2214    900.25441    28.379637    18.846401    14.339426 0.00035477847 0.00035413818   0.64684046   0.64683457    291.87026     41.49527    35.978931    34.423473    90.016431    119.66323    90.107069    249.39581    212.86708    28.379247    18.848691    14.338974    28.379383    18.846687    14.339321 
 1980000    299.38117    1.2509986    3599.0222            0            0            0            0    2531.6583    44657.537 -0.067234084   -17.036218 -0.041707817    3599.0222     1476.238    1048.8703    917.81164    28.383112    18.851206     14.34211 0.0003793182 0.00037876079   0.58560206      0.58553    299.38117     41.49527    35.978931    34.423473    90.016431    119.66323    90.107069    225.78473    227.59092    28.380127    18.848885    14.340102    28.384013    18.851324    14.341759 
 1990000    303.02873    1.2509986    3564.6118            0            0            0            0    -563.7841    44657.537 -0.067234084   -17.036218 -0.041707817    3564.6118    1441.1857    1006.8088    953.07886    28.381872     18.85167    14.342406 0.00034579269 0.00034550628    0.5772635   0.57717944    303.02873     41.49527    35.978931    34.423473    90.016431    119.66323    90.107069    222.56972    207.47562     28.37978    18.849425    14.339896    28.381787    18.852925     14.34223 
 2000000    297.29211    1.2509986    3594.2147            0            0            0            0    1313.8029    44657.537 -0.067234084   -17.036218 -0.041707817    3594.2147     1465.825    1016.1469    950.81833    28.379388    18.843702    14.338107 0.00034656161 0.00034597719   0.58712291   0.58711393    297.29211     41.49527    35.978931    34.423473    90.016431    119.66323    90.107069    226.37111    207.93697    28.379204    18.849562     14.33924    28.380606    18.843638    14.339496 
Loop time of 3857.53 on 20 procs for 2000000 steps with 4560 atoms

Pair  time (%) = 2827.98 (73.3106)
Bond  time (%) = 344.506 (8.93074)
Neigh time (%) = 76.2212 (1.97591)
Comm  time (%) = 456.318 (11.8293)
Outpt time (%) = 0.519431 (0.0134654)
Other time (%) = 151.986 (3.93998)

Nlocal:    228 ave 243 max 219 min
Histogram: 4 0 3 5 4 0 2 0 0 2
Nghost:    5830.15 ave 5873 max 5749 min
Histogram: 1 0 2 0 0 6 1 4 2 4
Neighs:    83695.8 ave 89187 max 80052 min
Histogram: 4 2 2 3 2 3 2 0 0 2

Total # of neighbors = 1673915
Ave neighs/atom = 367.087
Ave special neighs/atom = 10.6316
Neighbor list builds = 15439
Dangerous builds = 0
System init for write_data ...
