LAMMPS data file via write_data, version 15 May 2015, timestep = 8008000

2611 atoms
6 atom types
1749 bonds
4 bond types
894 angles
3 angle types
44 dihedrals
3 dihedral types
10 impropers
1 improper types

-1.5088798944896871e+01 1.5088798944896871e+01 xlo xhi
-1.5088798944896871e+01 1.5088798944896871e+01 ylo yhi
-1.5088798944896871e+01 1.5088798944896871e+01 zlo zhi

Masses

1 15.9994
2 1.00794
3 12.0107
4 1.00794
5 12.0107
6 12.0107

Bond Coeffs # harmonic

1 1000 1
2 469 1.4
3 367 1.08
4 469 0.7

Angle Coeffs # harmonic

1 100 109.47
2 35 120
3 63 120

Dihedral Coeffs # opls

1 0 7.25 0 0
2 0 7.25 0 0
3 0 7.25 0 0

Improper Coeffs # cvff

1 2.5 -1 2

Atoms # full

832 278 1 -8.1999999999999995e-01 -9.3138919770215587e+00 -1.3760118029992764e+01 -1.0772736660253724e+01 1 -2 1
990 330 2 4.0999999999999998e-01 -1.2315952463759354e+01 -8.5478206617699151e+00 -9.5258411581556501e+00 2 -1 1
1158 386 2 4.0999999999999998e-01 -9.9043377881146988e+00 -1.0888651085137727e+01 -7.8172380994348005e+00 1 -4 -2
1375 459 1 -8.1999999999999995e-01 -1.0673816609592436e+01 -1.4242530760013786e+01 -1.4241254713845992e+01 3 0 -1
504 168 2 4.0999999999999998e-01 -8.0108393761411811e+00 -1.0976877732301414e+01 -1.2790413355264388e+01 2 0 0
1046 349 2 4.0999999999999998e-01 -9.1397041803147658e+00 -1.2097698999415190e+01 -9.9071340776338239e+00 2 0 2
1174 392 1 -8.1999999999999995e-01 -1.1358031937040487e+01 -1.1771969252807104e+01 -1.3070707586327002e+01 3 1 -1
1045 349 1 -8.1999999999999995e-01 -9.6175476052126534e+00 -1.1303443515251217e+01 -9.5319057677411418e+00 2 0 2
989 330 2 4.0999999999999998e-01 -1.1740994232830285e+01 -7.7147456329616260e+00 -8.2444505435484530e+00 2 -1 1
354 118 2 4.0999999999999998e-01 -1.3300148044118897e+01 -5.5056234727626254e+00 -1.4074199948313341e+01 -1 -1 1
1377 459 2 4.0999999999999998e-01 -1.1577537312657364e+01 -1.4668585043080734e+01 -1.4199549695002627e+01 3 0 -1
1047 349 2 4.0999999999999998e-01 -1.0601366189220256e+01 -1.1406490985966034e+01 -9.6783797893774679e+00 2 0 2
2558 853 2 4.0999999999999998e-01 -1.2433262381505203e+01 -8.4392557591290611e+00 -1.2099123049902470e+01 2 2 1
2559 853 2 4.0999999999999998e-01 -1.3585566529363607e+01 -7.6910873634530361e+00 -1.2981728301505736e+01 2 2 1
2557 853 1 -8.1999999999999995e-01 -1.3406291098701214e+01 -8.4275417954335197e+00 -1.2329449547679065e+01 2 2 1
2377 793 1 -8.1999999999999995e-01 -1.0805766648500022e+01 -8.7085768556132930e+00 -1.1948486086112350e+01 1 2 7
1815 605 2 4.0999999999999998e-01 -1.1501194477217954e+01 -6.1267827979117637e+00 -1.2319659252412556e+01 -2 -1 1
1813 605 1 -8.1999999999999995e-01 -1.2369596592593203e+01 -5.7779396515007679e+00 -1.1967297425356218e+01 -2 -1 1
2379 793 2 4.0999999999999998e-01 -9.9510025366455483e+00 -9.0435667498919052e+00 -1.2344885732521924e+01 1 2 7
834 278 2 4.0999999999999998e-01 -8.8798484010888075e+00 -1.3478843405887961e+01 -1.1628577299500337e+01 1 -2 1
503 168 2 4.0999999999999998e-01 -8.1685745439658994e+00 -9.4003085487609042e+00 -1.3185510983432396e+01 2 0 0
2378 793 2 4.0999999999999998e-01 -1.0691848568131011e+01 -8.5901516233673121e+00 -1.0962093333168252e+01 1 2 7
988 330 1 -8.1999999999999995e-01 -1.1552244965426615e+01 -8.0001785256547659e+00 -9.1840644094903592e+00 2 -1 1
833 278 2 4.0999999999999998e-01 -8.7683910031786478e+00 -1.4479735289290279e+01 -1.0343141322441934e+01 1 -2 1
2047 683 1 -8.1999999999999995e-01 -1.3730170190626822e+01 -9.2037720785529853e+00 -9.6789203301998228e+00 0 -1 0
2048 683 2 4.0999999999999998e-01 -1.3802348267678829e+01 -8.7876301221784132e+00 -1.0585335620913657e+01 0 -1 0
2079 693 2 4.0999999999999998e-01 -9.4143854858939928e+00 -7.0696463336439077e+00 -1.4412940545460653e+01 3 1 0
499 167 1 -8.1999999999999995e-01 -1.4301613954833403e+01 -1.1644357258815491e+01 -1.4651161518327582e+01 0 -3 4
502 168 1 -8.1999999999999995e-01 -8.3073613077559880e+00 -1.0079191559127036e+01 -1.2464519620577168e+01 2 0 0
2078 693 2 4.0999999999999998e-01 -1.0700479381430508e+01 -7.3339487413205893e+00 -1.3442034001164284e+01 3 1 0
307 103 1 -8.1999999999999995e-01 -9.0455345347262739e+00 -5.8731327294627658e+00 -8.0325862695146633e+00 1 -1 -2
1176 392 2 4.0999999999999998e-01 -1.1042822323111469e+01 -1.2716304218037259e+01 -1.2976650482736824e+01 3 1 -1
2049 683 2 4.0999999999999998e-01 -1.3237275771709623e+01 -1.0071048654176394e+01 -9.7486260037006041e+00 0 -1 0
1090 364 1 -8.1999999999999995e-01 -1.3359126120614638e+01 -1.3728512131173172e+01 -9.0364464851861559e+00 3 -2 0
134 45 2 4.0999999999999998e-01 -9.4366141253361633e+00 -8.3455631743393486e+00 -8.6581595817762764e+00 0 0 0
1092 364 2 4.0999999999999998e-01 -1.3303178997296566e+01 -1.3099738105555058e+01 -8.2608914226485126e+00 3 -2 0
1043 348 2 4.0999999999999998e-01 -1.4828780916059184e+01 -7.8299423228112905e+00 -8.7015576127163516e+00 -4 1 0
376 126 1 -8.1999999999999995e-01 -1.2110060417808482e+01 -1.1331496664059379e+01 -1.0317074513032455e+01 4 -2 -3
1814 605 2 4.0999999999999998e-01 -1.2221461941128416e+01 -5.3582246140125438e+00 -1.1071826654541113e+01 -2 -1 1
378 126 2 4.0999999999999998e-01 -1.2405083180929330e+01 -1.2244124602604437e+01 -1.0034153266428039e+01 4 -2 -3
2077 693 1 -8.1999999999999995e-01 -1.0195627910426214e+01 -6.6420704182561110e+00 -1.3958175221815086e+01 3 1 0
532 178 1 -8.1999999999999995e-01 -7.9627540030650428e+00 -1.2827302425441021e+01 -1.3052833955457910e+01 2 -2 2
899 300 2 4.0999999999999998e-01 -1.0948551017981492e+01 -1.4539616604721918e+01 -1.0907416313917508e+01 1 0 0
377 126 2 4.0999999999999998e-01 -1.2169311438716102e+01 -1.1255693901216585e+01 -1.1312421571584483e+01 4 -2 -3
533 178 2 4.0999999999999998e-01 -8.0140925692704563e+00 -1.3491765981290746e+01 -1.3798370609908364e+01 2 -2 2
1175 392 2 4.0999999999999998e-01 -1.0583335183417805e+01 -1.1149412520540162e+01 -1.2960070728589125e+01 3 1 -1
1376 459 2 4.0999999999999998e-01 -1.0676017873103602e+01 -1.3523593696287932e+01 -1.4936306744377816e+01 3 0 -1
352 118 1 -8.1999999999999995e-01 -1.4169968843245663e+01 -5.6810313743061105e+00 -1.4535303262284778e+01 -1 -1 1
2478 826 2 4.0999999999999998e-01 -9.6361542629265866e+00 -5.2269206048470984e+00 -1.4782568571738931e+01 2 -3 -2
1091 364 2 4.0999999999999998e-01 -1.4055370646147104e+01 -1.4422540485992869e+01 -8.8533056150729195e+00 3 -2 0
746 249 2 4.0999999999999998e-01 -8.6375681954435741e+00 -7.6659330328705986e+00 -1.0034828502100240e+01 0 1 0
501 167 2 4.0999999999999998e-01 -1.4911849363244103e+01 -1.1114359976809936e+01 -1.4062359312564876e+01 0 -3 4
135 45 2 4.0999999999999998e-01 -9.0830648505775429e+00 -9.8442431513566895e+00 -9.2017716557936708e+00 0 0 0
747 249 2 4.0999999999999998e-01 -7.9177007078404467e+00 -7.1983521330583580e+00 -1.1423969201113023e+01 0 1 0
133 45 1 -8.1999999999999995e-01 -8.7217660343735481e+00 -8.9240888648497503e+00 -9.0509350939823214e+00 0 0 0
745 249 1 -8.1999999999999995e-01 -8.5004451834642456e+00 -6.9032060371363695e+00 -1.0666823188981166e+01 0 1 0
500 167 2 4.0999999999999998e-01 -1.3537004660447348e+01 -1.1069404365123551e+01 -1.4942321775252580e+01 0 -3 4
900 300 2 4.0999999999999998e-01 -1.2531033620134084e+01 -1.4636458709068215e+01 -1.0516361899098452e+01 1 0 0
1492 498 1 -8.1999999999999995e-01 -8.1676683726527770e+00 -8.5333199749462452e+00 -1.4627089248040511e+01 1 3 1
309 103 2 4.0999999999999998e-01 -8.6764450950361915e+00 -6.2279943574044498e+00 -8.8915499696935676e+00 1 -1 -2
2076 692 2 4.0999999999999998e-01 -9.6174768873809668e+00 -5.5646707869745420e+00 -1.1129751057930822e+01 2 0 1
204 68 2 4.0999999999999998e-01 -1.4947201975114570e+01 -9.9591157478793360e+00 -1.2348818435221313e+01 1 0 2
1883 628 2 4.0999999999999998e-01 -1.1039355779151446e+01 -5.3208361121242813e+00 -8.5450301888729214e+00 3 3 -2
1125 375 2 4.0999999999999998e-01 -1.4477348852227003e+01 -5.6067850308729970e+00 -7.7116730665036224e+00 0 -1 0
898 300 1 -8.1999999999999995e-01 -1.1786880176095677e+01 -1.5072489034069497e+01 -1.1022410916612259e+01 1 0 0
381 127 2 4.0999999999999998e-01 -5.8311099683847267e-01 -1.0186412329776639e+01 -1.3753037147887012e+01 -1 2 2
2109 703 2 4.0999999999999998e-01 -5.1760342824700896e+00 -9.6677593434170497e+00 -7.6260802272705668e+00 3 -1 -1
1745 582 2 4.0999999999999998e-01 -9.7560305029050731e-01 -1.0472983328889310e+01 -1.1182247953359944e+01 1 -2 -2
1829 610 2 4.0999999999999998e-01 -7.3813296931419359e-02 -1.3335010218750329e+01 -1.2943901588473532e+01 -1 -2 3
705 235 2 4.0999999999999998e-01 -1.1278696016375225e+00 -9.6419924825426744e+00 -8.7760013300253910e+00 -1 2 2
733 245 1 -8.1999999999999995e-01 -2.3693647124311941e+00 -7.0271985873525633e+00 -1.4786780011814610e+01 0 0 0
1536 512 2 4.0999999999999998e-01 -9.4151434785167609e-01 -1.4540491934554717e+01 -8.6383104617969906e+00 4 -2 0
1742 581 2 4.0999999999999998e-01 -5.0390487183277521e+00 -1.3562884878020453e+01 -8.7941936431254017e+00 -2 -3 2
379 127 1 -8.1999999999999995e-01 -1.4590085861889364e+00 -1.0517665227711360e+01 -1.3402256089329853e+01 -1 2 2
1830 610 2 4.0999999999999998e-01 -1.0977505826236698e+00 -1.3738829254231655e+01 -1.4150150085894674e+01 -1 -2 3
1355 452 2 4.0999999999999998e-01 -3.6824779355807244e+00 -5.3220807789888394e+00 -8.9624841546709852e+00 -2 -3 2
12 4 2 4.0999999999999998e-01 -2.9188712780556525e+00 -9.6482527293883571e+00 -1.2850851457342937e+01 1 -3 1
649 217 1 -8.1999999999999995e-01 -5.3036634922437091e+00 -1.1426378361743692e+01 -1.3227006905568988e+01 2 -3 0
1062 354 2 4.0999999999999998e-01 -5.9345576833469238e+00 -6.9435450840601938e+00 -1.2687990931462057e+01 2 -2 0
1874 625 2 4.0999999999999998e-01 -5.2249631626467341e+00 -6.1571457955102868e+00 -8.3282633024785966e+00 2 -2 1
1540 514 1 -8.1999999999999995e-01 -2.9530097950173211e+00 -1.3524977860484332e+01 -1.1389428256701537e+01 0 0 3
650 217 2 4.0999999999999998e-01 -4.7625245472662279e+00 -1.0697505742156650e+01 -1.2807619531990987e+01 2 -3 0
704 235 2 4.0999999999999998e-01 -1.6205090769707056e+00 -8.2558221269442491e+00 -9.4847969942831050e+00 -1 2 2
1356 452 2 4.0999999999999998e-01 -2.1642130633756658e+00 -5.2868405763467923e+00 -9.5626366322881928e+00 -2 -3 2
1542 514 2 4.0999999999999998e-01 -3.0274433391433178e+00 -1.2609598375718470e+01 -1.0993811658306941e+01 0 0 3
497 166 2 4.0999999999999998e-01 -4.6420586530298280e+00 -1.4453275323643552e+01 -1.1816424776394346e+01 1 1 -1
967 323 1 -8.1999999999999995e-01 -6.2651368132783052e+00 -1.0684797764032648e+01 -1.0111125295654242e+01 -1 -2 1
1541 514 2 4.0999999999999998e-01 -2.1702040848710631e+00 -1.3556866768213284e+01 -1.2010854644759394e+01 0 0 3
789 263 2 4.0999999999999998e-01 -1.1331273477941721e+00 -6.7698408912772212e+00 -1.1815858889895898e+01 -2 -4 2
1743 581 2 4.0999999999999998e-01 -3.8444444087598750e+00 -1.3670282148155916e+01 -9.9023178486923911e+00 -2 -3 2
968 323 2 4.0999999999999998e-01 -6.3718187372243911e+00 -1.1671353607713019e+01 -9.9874363064584060e+00 -1 -2 1
2108 703 2 4.0999999999999998e-01 -6.3728579138809014e+00 -9.0910190299768878e+00 -8.5755730520714906e+00 3 -1 -1
10 4 1 -8.1999999999999995e-01 -3.6467778383876883e+00 -8.9802436402488546e+00 -1.2696293120372792e+01 1 -3 1
1828 610 1 -8.1999999999999995e-01 -9.8987566074719346e-01 -1.3193317123927208e+01 -1.3319035220316861e+01 -1 -2 3
2028 676 2 4.0999999999999998e-01 -5.2912177414796204e+00 -9.1758481062616202e+00 -1.0409252534866720e+01 1 -2 4
787 263 1 -8.1999999999999995e-01 -1.8658831677159249e+00 -6.4499560513746133e+00 -1.1215263348861289e+01 -2 -4 2
788 263 2 4.0999999999999998e-01 -2.7282202214791109e+00 -6.4332560636593108e+00 -1.1721295322769432e+01 -2 -4 2
1085 362 2 4.0999999999999998e-01 -3.3496318734181827e+00 -1.1172412613935844e+01 -7.9598114473199999e+00 3 -1 2
2490 830 2 4.0999999999999998e-01 -6.9984474019430465e+00 -1.4144703148942245e+01 -9.1160263495321523e+00 0 -1 3
2026 676 1 -8.1999999999999995e-01 -5.1297312085325562e+00 -8.2489250058774868e+00 -1.0747938551499061e+01 1 -2 4
534 178 2 4.0999999999999998e-01 -7.0567180917684613e+00 -1.2404202079280196e+01 -1.3045249218666834e+01 2 -2 2
1060 354 1 -8.1999999999999995e-01 -6.8376030153574359e+00 -6.8559146606117611e+00 -1.3108469794029077e+01 2 -2 0
1873 625 1 -8.1999999999999995e-01 -5.3260523529732957e+00 -5.9105406993486369e+00 -9.2920782836218265e+00 2 -2 1
735 245 2 4.0999999999999998e-01 -1.4229243795809339e+00 -7.2959891150043035e+00 -1.4607964709168909e+01 0 0 0
1741 581 1 -8.1999999999999995e-01 -4.1425839957673460e+00 -1.3959089079656742e+01 -8.9925509773647416e+00 -2 -3 2
1760 587 2 4.0999999999999998e-01 -4.2780143796724523e+00 -1.1161161309947998e+01 -9.8039393887835260e+00 3 -3 1
11 4 2 4.0999999999999998e-01 -3.4405425411014203e+00 -8.1403954145664379e+00 -1.3198383097914167e+01 1 -3 1
1759 587 1 -8.1999999999999995e-01 -3.3876807509342015e+00 -1.1217206784134323e+01 -1.0255754951015852e+01 3 -3 1
2027 676 2 4.0999999999999998e-01 -4.3652277521468363e+00 -8.2580388744254556e+00 -1.1392472553327144e+01 1 -2 4
2488 830 1 -8.1999999999999995e-01 -6.7433700160288925e+00 -1.3215076888336320e+01 -8.8501260592133431e+00 0 -1 3
1888 630 1 -8.1999999999999995e-01 -4.3400292766629391e+00 -5.5509231621648318e+00 -1.2273384251755886e+01 1 1 0
969 323 2 4.0999999999999998e-01 -6.6027384575776189e+00 -1.0423830446499675e+01 -1.1015499999035786e+01 -1 -2 1
1875 625 2 4.0999999999999998e-01 -5.4279327302994851e+00 -6.7410241871894883e+00 -9.8397004299222601e+00 2 -2 1
380 127 2 4.0999999999999998e-01 -1.4771412087648184e+00 -1.1516743252584822e+01 -1.3440814985962147e+01 -1 2 2
651 217 2 4.0999999999999998e-01 -4.6954236699813148e+00 -1.2060725804512350e+01 -1.3704102362672172e+01 2 -3 0
1761 587 2 4.0999999999999998e-01 -2.7839772549629309e+00 -1.0507948259922962e+01 -9.8917950119336453e+00 3 -3 1
1535 512 2 4.0999999999999998e-01 -2.5441115797137854e+00 -1.4620008733109966e+01 -8.3351401490376844e+00 4 -2 0
2107 703 1 -8.1999999999999995e-01 -6.0047907279018258e+00 -9.1085275521438263e+00 -7.6459535746551230e+00 3 -1 -1
1493 498 2 4.0999999999999998e-01 -7.3648730433204879e+00 -7.9968631173741489e+00 -1.4366884914271134e+01 1 3 1
1061 354 2 4.0999999999999998e-01 -6.8840399160437542e+00 -5.9997027619514043e+00 -1.3622976671023887e+01 2 -2 0
2489 830 2 4.0999999999999998e-01 -6.9524762917063399e+00 -1.3076025005076415e+01 -7.8821841625500486e+00 0 -1 3
130 44 1 -8.1999999999999995e-01 -3.9899644884928023e+00 -1.3417977623192543e+01 -1.5078823218616375e+01 0 -3 -1
703 235 1 -8.1999999999999995e-01 -1.8361459547684280e+00 -9.2219860566801177e+00 -9.3433739192136862e+00 -1 2 2
1890 630 2 4.0999999999999998e-01 -4.7553815932092967e+00 -5.2178618511015245e+00 -1.1426906157658841e+01 1 1 0
1534 512 1 -8.1999999999999995e-01 -1.6383063644888782e+00 -1.4901554768401542e+01 -8.0185629130985596e+00 4 -2 0
2438 813 2 4.0999999999999998e-01 -2.8193479073625110e+00 -1.0074896652569304e+01 -1.4947352755749783e+01 2 1 2
1744 582 1 -8.1999999999999995e-01 -5.2012600850705581e-02 -1.0795535316767605e+01 -1.0975092480491213e+01 1 -2 -2
1080 360 2 4.0999999999999998e-01 -1.1930657620054141e-01 -1.4768313421926752e+01 -1.1696230296903295e+01 1 -1 -3
132 44 2 4.0999999999999998e-01 -3.3035318949414361e+00 -1.4054273769036902e+01 -1.4726814727334563e+01 0 -3 -1
2059 687 1 -8.1999999999999995e-01 -9.3350465284531943e+00 -1.1395219388311999e+01 -2.2806075955839979e+00 0 0 0
231 77 2 4.0999999999999998e-01 -1.0671663766692262e+01 -1.2217722444013864e+01 -4.4480911503444052e+00 -2 -2 3
230 77 2 4.0999999999999998e-01 -1.2095482745853770e+01 -1.2945460482537264e+01 -4.1168968154149965e+00 -2 -2 3
841 281 1 -8.1999999999999995e-01 -1.1371051696311675e+01 -9.1949397477970365e+00 -3.5447501886111930e+00 0 -4 5
842 281 2 4.0999999999999998e-01 -1.1587163521149911e+01 -1.0168426393277203e+01 -3.4699710580095466e+00 0 -4 5
843 281 2 4.0999999999999998e-01 -1.0434488474112246e+01 -9.0860615579117781e+00 -3.8778677656597154e+00 0 -4 5
2537 846 2 4.0999999999999998e-01 -1.3263396115767028e+01 -1.0788542496416426e+01 -1.5985973198408825e+00 1 -2 4
2098 700 1 -8.1999999999999995e-01 -1.2794435207765972e+01 -1.2039762550815858e+01 -6.8114426129982846e+00 -2 -1 -2
933 311 2 4.0999999999999998e-01 -1.0582000598250877e+01 -1.4464406000389555e+01 -7.8648419390495583e-01 3 0 -2
594 198 2 4.0999999999999998e-01 -1.1405469709315943e+01 -9.3832264298271113e+00 -6.7331853958275225e+00 0 -3 1
1816 606 1 -8.1999999999999995e-01 -8.6298741555543277e+00 -9.3732924440015708e+00 -3.8559029466082304e+00 3 -2 3
593 198 2 4.0999999999999998e-01 -1.2125652100888896e+01 -8.9531208203147479e+00 -5.3321500422519623e+00 0 -3 1
592 198 1 -8.1999999999999995e-01 -1.2038408396055310e+01 -8.7383068222369609e+00 -6.3048863619856572e+00 0 -3 1
2185 729 1 -8.1999999999999995e-01 -1.4979691734556488e+01 -8.6540365959998482e+00 -5.0692516750200660e+00 2 -3 3
229 77 1 -8.1999999999999995e-01 -1.1530586336513078e+01 -1.2139043661764248e+01 -3.9420930855885032e+00 -2 -2 3
2536 846 1 -8.1999999999999995e-01 -1.2551078686476757e+01 -1.1468859195056851e+01 -1.4261286679438090e+00 1 -2 4
105 35 2 4.0999999999999998e-01 -1.4622388488356497e+01 -1.1604715345486110e+01 -6.3639096075972947e+00 0 -2 4
1818 606 2 4.0999999999999998e-01 -8.6953431156824870e+00 -9.9463078888751468e+00 -3.0389944363542440e+00 3 -2 3
2186 729 2 4.0999999999999998e-01 -1.4559947826470511e+01 -8.3503210794898273e+00 -5.9245553391238488e+00 2 -3 3
212 71 2 4.0999999999999998e-01 -1.2848539605901319e+01 -7.5562618537113169e+00 -7.9163325441107801e-01 -1 -3 -1
211 71 1 -8.1999999999999995e-01 -1.3378577173226102e+01 -6.8522463623662482e+00 -1.2642798941646980e+00 -1 -3 -1
213 71 2 4.0999999999999998e-01 -1.2856328598439614e+01 -5.9997280276502387e+00 -1.2852877091091859e+00 -1 -3 -1
1699 567 1 -8.1999999999999995e-01 -1.1021211640009938e+01 -6.1884945876511104e+00 -5.2498997794127522e+00 2 0 1
1701 567 2 4.0999999999999998e-01 -1.0560152894281043e+01 -5.5882433852499585e+00 -5.9034253719943539e+00 2 0 1
2100 700 2 4.0999999999999998e-01 -1.2064047383964381e+01 -1.1360625196411458e+01 -6.7387878712163793e+00 -2 -1 -2
2538 846 2 4.0999999999999998e-01 -1.2426188448882620e+01 -1.2034638489352460e+01 -2.2411554435842262e+00 1 -2 4
2010 670 2 4.0999999999999998e-01 -1.1255166710515795e+01 -8.6266939021148090e+00 -1.8983762929627872e+00 1 -1 -1
2008 670 1 -8.1999999999999995e-01 -1.1068774711156511e+01 -8.6296751843259365e+00 -9.1591939754955121e-01 1 -1 -1
932 311 2 4.0999999999999998e-01 -8.9966542296138527e+00 -1.4121383690073595e+01 -9.7507219740247741e-01 3 0 -2
2009 670 2 4.0999999999999998e-01 -1.0168819884711446e+01 -9.0322498204516002e+00 -7.4862507302620429e-01 1 -1 -1
1700 567 2 4.0999999999999998e-01 -1.1298986149479166e+01 -7.0316307581086619e+00 -5.7102641097772793e+00 2 0 1
2061 687 2 4.0999999999999998e-01 -9.0220353332452383e+00 -1.1813563692608765e+01 -1.4279737915681885e+00 0 0 0
2060 687 2 4.0999999999999998e-01 -1.0201403455733795e+01 -1.1810882645641087e+01 -2.5574145638329107e+00 0 0 0
1156 386 1 -8.1999999999999995e-01 -1.0183944431112653e+01 -1.0650922895702930e+01 -6.8870349151131585e+00 1 -4 -2
543 181 2 4.0999999999999998e-01 -1.4535648026187577e+01 -9.0878573404910092e+00 -3.2759092529041123e+00 -2 -2 3
2486 829 2 4.0999999999999998e-01 -1.4052187622721473e+01 -5.6183176438989033e+00 -3.8205927966491693e+00 0 -1 2
1439 480 2 4.0999999999999998e-01 -1.1956783775628981e+01 -1.2976906133495769e+01 -4.5972369584155004e-01 -1 -3 1
2231 744 2 4.0999999999999998e-01 -1.0249627624987294e+01 -6.2283504274741475e+00 -3.3498661959201996e+00 3 3 -1
2099 700 2 4.0999999999999998e-01 -1.2715131465680823e+01 -1.2696091737317959e+01 -6.0611657798097500e+00 -2 -1 -2
2230 744 1 -8.1999999999999995e-01 -9.7359774830868240e+00 -5.7775012161282095e+00 -2.6198861176830448e+00 3 3 -1
2502 834 2 4.0999999999999998e-01 -1.3833508634431304e+01 -1.5012047140471280e+01 -5.1584495587102630e+00 -2 0 -1
1817 606 2 4.0999999999999998e-01 -8.2258440468546290e+00 -9.9019810401492645e+00 -4.6023749304405612e+00 3 -2 3
806 269 2 4.0999999999999998e-01 -8.1068571041204400e+00 -7.4418538168617534e+00 -3.3265850182032430e+00 2 1 4
2388 796 2 4.0999999999999998e-01 -8.0390805289166476e+00 -1.3387847628383929e+01 -4.9194536866604803e+00 3 -1 1
308 103 2 4.0999999999999998e-01 -8.5905590060467674e+00 -6.3221139074290118e+00 -7.2635702261450934e+00 1 -1 -2
542 181 2 4.0999999999999998e-01 -1.4011572826144105e+01 -8.2568432870106108e+00 -1.9715650086099163e+00 -2 -2 3
751 251 1 -8.1999999999999995e-01 -8.6765242278100860e+00 -1.4818303568181411e+01 -3.8086801580304410e+00 -2 -1 -1
2487 829 2 4.0999999999999998e-01 -1.2555757397627938e+01 -5.6059790628556545e+00 -4.4741194865970755e+00 0 -1 2
541 181 1 -8.1999999999999995e-01 -1.4398218891950895e+01 -9.1237738454360198e+00 -2.2860629610058663e+00 -2 -2 3
2500 834 1 -8.1999999999999995e-01 -1.3191346468379548e+01 -1.4246447111331756e+01 -5.1202781944776206e+00 -2 0 -1
2232 744 2 4.0999999999999998e-01 -9.0044131993622081e+00 -6.3820188337768222e+00 -2.3046963231864872e+00 3 3 -1
931 311 1 -8.1999999999999995e-01 -9.7682119586858676e+00 -1.4642729047410954e+01 -1.3395857764431511e+00 3 0 -2
1157 386 2 4.0999999999999998e-01 -9.3729092100495084e+00 -1.0548676716879182e+01 -6.3110661341201482e+00 1 -4 -2
753 251 2 4.0999999999999998e-01 -9.3331549216113281e+00 -1.4711525614668570e+01 -3.0620831428374053e+00 -2 -1 -1
430 144 1 -8.1999999999999995e-01 -1.0685545411964776e+01 -1.4727970963393991e+01 -5.7919760421150883e+00 0 1 -3
2501 834 2 4.0999999999999998e-01 -1.2291341586433656e+01 -1.4550420474669828e+01 -5.4326305284689358e+00 -2 0 -1
2485 829 1 -8.1999999999999995e-01 -1.3426656562725634e+01 -5.1176531832058210e+00 -4.4189391568109091e+00 0 -1 2
432 144 2 4.0999999999999998e-01 -9.9099010238074534e+00 -1.4860957798471972e+01 -5.1749973399266800e+00 0 1 -3
1575 525 2 4.0999999999999998e-01 -1.5007980169319977e+01 -1.2210711688622363e+01 -4.0200092133965359e+00 2 0 -1
752 251 2 4.0999999999999998e-01 -7.7694419112190420e+00 -1.5003748361452262e+01 -3.4308117968198850e+00 -2 -1 -1
606 202 2 4.0999999999999998e-01 -7.2020119982356965e+00 -1.1842588214699015e+01 -5.9537432839217281e+00 0 -2 2
32 11 2 4.0999999999999998e-01 -1.4491891575764235e+00 -1.3311787581175313e+01 -7.0438989114144608e+00 2 -4 -1
604 202 1 -8.1999999999999995e-01 -7.5310236837816289e+00 -1.0898750012587513e+01 -5.9836303802424204e+00 0 -2 2
193 65 1 -8.1999999999999995e-01 -7.4268325056804878e+00 -7.4557029977843863e+00 -5.7561209707902030e+00 1 -2 -2
1488 496 2 4.0999999999999998e-01 -6.8767441123385868e+00 -6.0166930487028427e+00 -1.3127089403807695e+00 1 0 0
195 65 2 4.0999999999999998e-01 -7.2058940810581120e+00 -8.3440534497905361e+00 -6.1586034067135991e+00 1 -2 -2
158 53 2 4.0999999999999998e-01 -2.8131309133216824e+00 -9.1338659053396292e+00 -1.5657828438953931e+00 2 -3 0
605 202 2 4.0999999999999998e-01 -6.8736507725931286e+00 -1.0332192855168532e+01 -6.4804667266669007e+00 0 -2 2
2424 808 2 4.0999999999999998e-01 -5.1563344049269908e+00 -9.2620952408833972e+00 -1.5101678353394945e+00 2 0 1
157 53 1 -8.1999999999999995e-01 -2.2155465725369528e+00 -8.9541519208066696e+00 -2.3471715226304006e+00 2 -3 0
1806 602 2 4.0999999999999998e-01 -3.7222301830799811e+00 -7.5440192340508707e+00 -6.6747378220671383e+00 0 2 1
1805 602 2 4.0999999999999998e-01 -3.0811468888766953e+00 -9.0364144593585607e+00 -6.8430279436882557e+00 0 2 1
2422 808 1 -8.1999999999999995e-01 -5.6015177880343963e+00 -8.8986346785798141e+00 -2.3285080323159786e+00 2 0 1
2214 738 2 4.0999999999999998e-01 -1.0128817627456090e+00 -6.7394979952927763e+00 -4.7172658903627767e+00 3 -1 2
159 53 2 4.0999999999999998e-01 -2.6453679124418041e+00 -9.2987946745237977e+00 -3.1817057624833911e+00 2 -3 0
854 285 2 4.0999999999999998e-01 -4.2386817155877630e+00 -1.0926437390139276e+01 -3.6468405215333402e+00 1 -2 3
2317 773 1 -8.1999999999999995e-01 -3.9921042095311829e+00 -1.2979504599598810e+01 -5.6032570984536161e+00 0 1 -3
2465 822 2 4.0999999999999998e-01 -4.4034634561403507e-01 -9.5240311782114926e+00 -2.3221610498081393e+00 3 0 -1
2213 738 2 4.0999999999999998e-01 -1.5860258717406897e+00 -7.0764605236327505e+00 -6.2087466728069156e+00 3 -1 2
2319 773 2 4.0999999999999998e-01 -3.0239695154279662e+00 -1.2915266305428094e+01 -5.8452510140069904e+00 0 1 -3
805 269 1 -8.1999999999999995e-01 -7.4538735930350510e+00 -7.1550442516677650e+00 -2.6256390413306985e+00 2 1 4
194 65 2 4.0999999999999998e-01 -6.9943426035328127e+00 -7.3799991704963803e+00 -4.8576812799353970e+00 1 -2 -2
389 130 2 4.0999999999999998e-01 -1.8128671714960483e+00 -7.2362176066537183e+00 -2.9345983253151591e+00 -2 -2 2
2492 831 2 4.0999999999999998e-01 -5.0715314292190055e+00 -5.3735742299277884e+00 -5.7638926370988575e+00 1 -2 3
390 130 2 4.0999999999999998e-01 -2.0638504219134273e+00 -5.6233346769499075e+00 -2.9811702048362356e+00 -2 -2 2
1835 612 2 4.0999999999999998e-01 -3.7673555708968891e+00 -1.4114632203465685e+01 -6.1386691805858185e-01 3 1 -3
2212 738 1 -8.1999999999999995e-01 -8.4832700156963625e-01 -6.6349056300807696e+00 -5.6980587855993647e+00 3 -1 2
807 269 2 4.0999999999999998e-01 -6.7501219534770449e+00 -7.8573265823622229e+00 -2.5183739696882252e+00 2 1 4
2493 831 2 4.0999999999999998e-01 -6.1768641312615866e+00 -6.4372856359146127e+00 -6.3236343382513134e+00 1 -2 3
2386 796 1 -8.1999999999999995e-01 -7.4027006472093939e+00 -1.3450409789039831e+01 -5.6882703093507754e+00 3 -1 1
290 97 2 4.0999999999999998e-01 -3.7709191895739842e+00 -1.0874115709669500e+01 -2.0217065946225077e-01 1 -2 1
1804 602 1 -8.1999999999999995e-01 -2.8710612064539198e+00 -8.0675544626971405e+00 -6.7120825559618513e+00 0 2 1
1486 496 1 -8.1999999999999995e-01 -6.9298997524661434e+00 -5.3168994106668510e+00 -6.0036369584432059e-01 1 0 0
855 285 2 4.0999999999999998e-01 -3.9819671547914339e+00 -1.0375605849537276e+01 -5.1625038157959793e+00 1 -2 3
2318 773 2 4.0999999999999998e-01 -4.2626328524498547e+00 -1.3941383426685585e+01 -5.5635600574048958e+00 0 1 -3
31 11 1 -8.1999999999999995e-01 -1.3080847260170962e+00 -1.2406321996142140e+01 -6.6436564837351515e+00 2 -4 -1
388 130 1 -8.1999999999999995e-01 -1.3678820695899496e+00 -6.3411947001873941e+00 -2.9645106967831119e+00 -2 -2 2
1834 612 1 -8.1999999999999995e-01 -3.9397838521605539e+00 -1.4604525585521504e+01 -1.4684109279551940e+00 3 1 -3
2402 801 2 4.0999999999999998e-01 -4.6157162324067915e+00 -1.2635025559593108e+01 -3.7795360004681093e+00 2 1 -2
2401 801 1 -8.1999999999999995e-01 -4.6591654220093837e+00 -1.2353053526151813e+01 -2.8211120454508976e+00 2 1 -2
2491 831 1 -8.1999999999999995e-01 -5.2359848310944024e+00 -6.1119627304031514e+00 -6.4178880165247918e+00 1 -2 3
33 11 2 4.0999999999999998e-01 -5.2929315540013810e-01 -1.1963297852219087e+01 -7.0877124150539270e+00 2 -4 -1
2403 801 2 4.0999999999999998e-01 -4.4744974432411588e+00 -1.3140648141608782e+01 -2.2332642765949711e+00 2 1 -2
1084 362 1 -8.1999999999999995e-01 -4.1041842622620663e+00 -1.0959035914481177e+01 -7.3392523871849873e+00 3 -1 2
2387 796 2 4.0999999999999998e-01 -6.8822544269317483e+00 -1.4301691647405589e+01 -5.6217323231145802e+00 3 -1 1
853 285 1 -8.1999999999999995e-01 -3.8555796927097159e+00 -1.0179416354212389e+01 -4.1901312942937707e+00 1 -2 3
2423 808 2 4.0999999999999998e-01 -5.0674203055640792e+00 -9.1469270748908844e+00 -3.1366313118327387e+00 2 0 1
289 97 1 -8.1999999999999995e-01 -4.0473628687294845e+00 -9.9181049833555832e+00 -3.0012359048920878e-01 1 -2 1
1950 650 2 4.0999999999999998e-01 -3.5054625969181785e-01 -7.9385488491639027e+00 -3.7970906608323496e-01 -1 -4 -1
1086 362 2 4.0999999999999998e-01 -4.3925608926744868e+00 -1.1791686522821173e+01 -6.8664898635792895e+00 3 -1 2
2055 685 2 4.0999999999999998e-01 -1.1340400160048247e-01 -5.4056976783909274e+00 -3.3771968237568686e+00 2 -3 0
2206 736 1 -8.1999999999999995e-01 -1.0177898081583081e+01 -7.7485220249293949e+00 2.5760221752236969e+00 -1 -4 0
207 69 2 4.0999999999999998e-01 -1.3246809836349735e+01 -8.4871496925496199e+00 3.4778097774256498e+00 -1 2 1
1036 346 1 -8.1999999999999995e-01 -1.1995839276120444e+01 -1.0305282296098706e+01 1.7885165392181701e+00 0 -3 -3
2207 736 2 4.0999999999999998e-01 -9.8178331694148824e+00 -7.9968908028154013e+00 1.6767788297230073e+00 -1 -4 0
206 69 2 4.0999999999999998e-01 -1.1694206944576317e+01 -7.9820060620883151e+00 3.4493970901072206e+00 -1 2 1
205 69 1 -8.1999999999999995e-01 -1.2493145879072033e+01 -8.1330569688485106e+00 4.0315077122975165e+00 -1 2 1
2208 736 2 4.0999999999999998e-01 -9.4760989144941679e+00 -7.2574230920047480e+00 3.0920378743942312e+00 -1 -4 0
2263 755 1 -8.1999999999999995e-01 -1.4175667285842023e+01 -1.4020883259365860e+01 5.8949268395454890e+00 1 -4 4
1972 658 1 -8.1999999999999995e-01 -9.8517958330550925e+00 -6.9908375434427761e+00 6.5738417120558399e+00 0 -3 0
27 9 2 4.0999999999999998e-01 -8.8746553410768954e+00 -1.0194970955367353e+01 6.0627084798254050e+00 -2 -3 1
2002 668 1 -8.1999999999999995e-01 -8.3853015649969578e+00 -6.3797747945309524e+00 4.2503479053001580e+00 1 -3 2
1418 473 2 4.0999999999999998e-01 -1.2825031748831144e+01 -6.1296111383794472e+00 4.8987109208603083e+00 3 -3 0
2353 785 1 -8.1999999999999995e-01 -8.1693521371780236e+00 -1.2713583785038187e+01 2.2642188870933566e-01 -2 1 1
2004 668 2 4.0999999999999998e-01 -8.4662519441405060e+00 -5.3902979284694350e+00 4.1305356058566485e+00 1 -3 2
2003 668 2 4.0999999999999998e-01 -8.8993918323662164e+00 -6.6605457231798884e+00 5.0608115103298967e+00 1 -3 2
870 290 2 4.0999999999999998e-01 -8.5449875943437128e+00 -1.4917935351066069e+01 4.2608294651118168e+00 1 1 0
1423 475 1 -8.1999999999999995e-01 -1.1546774194154031e+01 -1.0790440257697519e+01 5.0123651730679146e+00 0 -4 0
1425 475 2 4.0999999999999998e-01 -1.1122205069808205e+01 -1.1268453991202964e+01 4.2434592304774679e+00 0 -4 0
93 31 2 4.0999999999999998e-01 -1.1946167591996630e+01 -1.1656271190527033e+01 6.3654387525081884e+00 0 -2 -1