2611
Atoms. Timestep: 8000000
O 11.8372 -7.82568 -7.10097
H 12.1353 -8.31384 -7.92125
H 10.9415 -8.16748 -6.81672
O 2.976 -7.04181 1.04613
H 3.66368 -6.32016 1.12569
H 2.28851 -6.92763 1.76331
O 8.61149 1.89064 13.7631
H 8.7288 1.0471 14.2872
H 8.44347 2.6517 14.3896
O -5.25386 -9.78788 14.2888
H -4.27526 -9.93259 14.1425
H -5.39814 -8.89811 14.7218
O 4.49134 -5.21306 8.28267
H 3.78441 -5.69778 7.76758
H 5.37406 -5.32885 7.82726
O 13.1271 9.24062 14.0267
H 12.4411 8.74788 13.4913
H 12.6991 10.0249 14.4758
O -6.82961 1.83196 4.37061
H -7.14695 2.75378 4.14798
H -6.49305 1.81362 5.31209
O -13.6891 2.86736 8.19478
H -14.2457 3.63864 7.88609
H -13.7069 2.14545 7.50302
O -7.65788 -12.7576 6.0022
H -7.22915 -12.9405 5.11746
H -8.18627 -13.557 6.28811
O -0.341661 -7.15424 12.078
H -0.352695 -7.25406 13.073
H 0.535361 -7.47524 11.7205
O -5.43602 -11.2894 -2.95334
H -4.78707 -11.7282 -2.3318
H -5.59004 -10.3452 -2.6622
O 8.39174 14.5671 -11.6654
H 9.27826 14.7934 -12.0689
H 8.52406 14.2516 -10.7257
O 7.18573 -8.91106 4.50887
H 7.99757 -8.62087 5.01555
H 6.535 -8.15334 4.45968
O -10.6567 -8.10723 11.7658
H -11.6046 -8.39331 11.6257
H -10.5978 -7.5392 12.5867
O 13.2192 5.11405 1.61955
H 13.7159 5.59164 0.894856
H 12.4119 4.66848 1.23253
O 8.07593 -6.19973 9.97873
H 8.57339 -6.54873 9.18454
H 8.47417 -5.32822 10.2649
O 0.777134 -11.9162 10.244
H 0.138823 -12.5794 9.85318
H 0.442213 -11.618 11.1378
O 1.36657 -11.117 2.81727
H 0.888322 -11.9043 3.20657
H 2.34335 -11.3204 2.74975
O -11.2337 -1.01472 -9.54878
H -11.421 -1.05027 -8.56711
H -10.2507 -0.906066 -9.69687
O -11.0171 1.57588 -7.35903
H -11.3846 2.21524 -6.68359
H -10.9501 2.03107 -8.2469
O -0.241623 2.13179 11.9656
H 0.212834 2.09274 11.0756
H 0.357647 2.5838 12.6263
O -2.05687 14.4589 10.2966
H -2.84588 14.2389 10.8702
H -1.98602 13.7901 9.55645
O 12.3077 -7.40177 1.13172
H 11.6126 -7.85417 1.69052
H 12.7702 -8.08037 0.561111
O -2.89649 6.09108 13.0531
H -3.82226 5.7292 13.1627
H -2.64657 6.61854 13.8651
O 7.96599 -7.11393 -10.7413
H 7.1006 -6.61283 -10.739
H 8.72366 -6.47111 -10.6285
O -6.63814 1.80771 -14.6137
H -6.78476 1.85525 14.5868
H -7.52029 1.8405 -14.1439
O 2.4417 -8.81041 6.49027
H 1.5096 -9.06168 6.22935
H 2.9812 -9.63923 6.63862
O 7.2679 -10.6547 0.203593
H 7.33138 -11.0203 1.13219
H 6.7804 -9.78174 0.221681
O 2.56972 -7.16038 11.4301
H 2.23034 -7.19429 10.4901
H 3.35303 -7.77487 11.5241
O -1.87448 1.11333 -9.59676
H -2.44138 1.85686 -9.95145
H -1.93406 0.326547 -10.2111
O -14.2082 14.5755 5.86184
H 15.026 14.5945 5.5637
H -13.6151 14.8285 5.09749
O 0.593559 1.90265 9.56941
H 0.618516 1.05695 9.03631
H 0.479495 2.68188 8.95314
O -6.26446 5.45981 0.451314
H -7.20336 5.46009 0.107088
H -6.22979 4.97391 1.32465
O 13.3775 -12.7963 -2.21408
H 12.4728 -12.5086 -1.90008
H 13.6301 -13.6526 -1.7634
O 14.0422 -9.89632 -7.3131
H 14.5272 -10.0482 -8.17433
H 14.0659 -8.92312 -7.08432
O -5.85869 -5.2233 9.75332
H -5.51458 -4.29791 9.91219
H -6.82476 -5.26793 10.0077
O 10.4077 -1.54798 4.70979
H 9.80542 -0.794535 4.44592
H 11.3275 -1.19509 4.88112
O 11.6531 -8.20809 10.0533
H 10.9104 -8.22232 9.3837
H 12.1955 -9.04378 9.9672
O -11.1323 5.98828 2.98353
H -11.1856 5.48763 3.84755
H -10.3968 6.6639 3.03459
O 11.0239 -10.961 1.83393
H 11.8755 -10.4426 1.91166
H 10.4444 -10.5467 1.13222
O 7.42333 -2.82422 3.30956
H 6.57995 -3.15071 2.88278
H 8.13057 -2.7168 2.61078
O -10.1079 -0.893317 8.38387
H -9.44452 -1.55588 8.73174
H -9.64155 -0.231708 7.79664
O 5.41948 9.33531 -14.9552
H 4.47991 9.65643 -15.074
H 5.84537 9.21205 14.337
O -4.92335 14.8513 14.5201
H -5.16194 -14.8575 -14.8241
H -4.55354 13.9492 14.7424
O -4.5604 -8.75672 -10.069
H -5.37213 -8.19654 -10.2342
H -4.58817 -9.11697 -9.13657
O 5.23995 2.65409 -9.4641
H 5.17308 3.11295 -8.5781
H 4.32867 2.36937 -9.76162
O -7.5255 7.4193 -11.7942
H -8.23085 8.06381 -11.4991
H -6.7839 7.91881 -12.242
O 9.64687 -7.70809 8.09972
H 9.71628 -6.95522 7.44521
H 9.30827 -8.52521 7.63316
O 1.01111 10.4494 -8.31515
H 0.666338 11.1535 -8.93599
H 0.805575 9.54522 -8.68954
O -5.39975 -12.4443 0.557319
H -6.27118 -12.0676 0.243091
H -4.70777 -12.3218 -0.154141
O 12.8604 -9.13958 -3.46513
H 12.0843 -8.52156 -3.59073
H 12.6284 -10.0433 -3.82501
O -0.922643 -0.694246 7.53842
H -1.19424 -1.64719 7.40375
H 0.0558028 -0.597549 7.35592
O -1.91304 -8.35051 -1.99305
H -1.52538 -9.21361 -1.66935
H -2.58822 -8.02021 -1.33347
O 8.16308 12.6332 -14.8227
H 7.89174 11.9228 -14.1732
H 8.86642 13.2116 -14.4094
O -14.0212 -8.42322 -13.2286
H -13.4052 -8.83889 -13.8978
H -14.7735 -9.05214 -13.0323
O -5.20197 14.5303 -0.896935
H -6.02799 15.0241 -1.16882
H -4.41917 14.8823 -1.41013
O 11.182 4.30526 0.307546
H 11.522 3.52469 -0.216974
H 10.2096 4.17743 0.502933
O -1.22918 -4.29195 11.6122
H -0.799901 -5.17326 11.4147
H -0.658981 -3.55476 11.2497
O -11.3882 -1.03254 -6.63152
H -11.8002 -0.135304 -6.79036
H -11.0749 -1.09236 -5.68377
O -10.9161 8.65033 6.20125
H -11.8524 8.71324 5.85572
H -10.7215 9.44051 6.78242
O -4.37956 6.2386 -7.14331
H -4.72605 5.42865 -7.61652
H -5.09062 6.60296 -6.54193
O -5.01613 -4.6486 1.9936
H -4.06803 -4.64293 1.67568
H -5.0375 -4.49234 2.9811
O -3.99786 10.8577 5.2771
H -3.26721 10.2135 5.50351
H -3.62758 11.7862 5.25173
O -2.91341 -12.0493 8.95424
H -2.10446 -12.5864 8.7153
H -2.98394 -11.9776 9.94917
O -10.9468 -5.33621 -5.32311
H -10.1005 -5.64649 -4.89009
H -11.6967 -5.94465 -5.06328
O -10.1416 -4.94695 8.30218
H -9.61616 -4.1803 7.93313
H -9.53155 -5.55553 8.80963
O -8.1111 -7.93303 6.71459
H -8.65119 -7.67511 7.5157
H -8.4349 -8.81141 6.36301
O 13.8713 -12.4791 -14.824
H 12.9489 -12.1003 -14.7488
H 14.4725 -11.8087 14.9298
O -11.0467 -9.84289 3.47519
H -11.4674 -10.5329 2.88623
H -10.0601 -9.82333 3.31352
O 14.9822 3.05074 -1.49562
H -15.0627 2.28358 -2.12079
H -14.9906 2.76481 -0.561984
O -12.6719 -10.6362 1.14781
H -12.026 -9.99998 0.725858
H -13.5942 -10.4476 0.810383
O -12.2763 9.18967 -9.47684
H -12.6559 10.1043 -9.33754
H -13.0155 8.51638 -9.46383
O -7.31939 -5.05459 -8.96755
H -6.76117 -4.25412 -9.18585
H -7.4981 -5.57422 -9.80305
O -1.08116 10.0464 -6.22669
H -0.333099 9.84437 -6.85882
H -1.55471 10.8752 -6.52469
O 3.11877 -7.96087 -3.68309
H 4.0125 -8.33025 -3.42851
H 3.1474 -7.6422 -4.63053
O -8.40335 0.829443 -6.29552
H -8.39523 1.25853 -5.39229
H -9.3423 0.789877 -6.63731
O -11.1605 -14.4597 -7.25477
H -10.9393 -13.4859 -7.20015
H -11.2855 -14.8253 -6.33245
O -4.64049 2.81056 -13.0949
H -5.31421 2.66337 -13.8191
H -3.94288 2.09539 -13.1382
O 5.40547 -0.735077 10.2658
H 4.59429 -0.16229 10.1479
H 6.22721 -0.176648 10.1522
O -7.53768 14.9997 12.0571
H -7.48493 -14.2205 11.813
H -6.72651 14.5252 11.7153
O 2.87811 2.45983 -10.7125
H 2.53369 2.45844 -11.6513
H 2.41812 3.17758 -10.1897
O 3.03694 13.4567 -1.18066
H 3.09314 14.4551 -1.19161
H 3.58551 13.0838 -1.929
O -8.2647 -6.78861 4.08529
H -7.99642 -7.64786 4.52085
H -8.80925 -6.24635 4.72516
O -0.085532 -9.30918 1.54749
H 0.637756 -9.83481 1.99535
H -0.18383 -9.61671 0.601043
O -0.194295 7.22186 3.79298
H -0.227751 7.18505 2.79421
H 0.747752 7.08688 4.10013
O -2.9798 11.7966 12.4381
H -2.42074 10.9754 12.3237
H -3.92684 11.5923 12.1904
O -8.65036 0.621933 6.61781
H -8.48925 0.517029 5.63646
H -8.67629 1.59444 6.84924
O -9.56575 1.32866 -0.00632252
H -8.79309 1.55245 0.58776
H -10.4122 1.34906 0.525788
O -13.3942 -3.91028 -10.7536
H -13.5915 -3.65549 -11.7002
H -12.406 -3.88912 -10.6018
O 9.49477 -3.98296 10.7526
H 9.77606 -4.27398 11.6671
H 9.19093 -3.03077 10.7846
O 10.9814 -14.5556 -12.2567
H 11.1652 -13.9117 -11.5139
H 11.5991 -14.3685 -13.0205
O -3.35712 -11.8609 -1.20342
H -2.84 -11.6608 -0.371218
H -2.83277 -11.5635 -2.00129
O 6.99027 -10.6933 -11.9636
H 7.39316 -10.2884 -11.1428
H 6.45331 -10.0019 -12.4471
O -5.50627 8.8208 -13.0164
H -5.30029 9.57312 -13.6422
H -5.05249 7.98856 -13.3349
O -2.55197 5.35546 4.19136
H -1.9563 5.57083 3.41754
H -1.99465 5.0775 4.97375
O -7.21212 -12.7452 10.9682
H -6.64538 -12.5951 10.1581
H -7.9782 -12.1025 10.9628
O -3.92243 -7.62731 -0.0932218
H -3.8723 -7.90741 0.865443
H -4.71487 -8.05787 -0.525271
O -3.83324 1.78526 14.2354
H -4.57788 1.98285 14.873
H -3.68469 2.5757 13.6412
O -9.82212 11.3534 -2.96922
H -10.0996 10.9858 -2.08156
H -8.82644 11.4421 -2.99675
O 1.32532 6.66046 -5.31452
H 2.08651 6.55634 -5.95464
H 0.479031 6.35407 -5.75032
O -14.2905 12.5551 -0.00763653
H -13.8722 11.8166 0.521211
H 14.9982 12.2642 -0.332407
O 3.61829 0.945088 5.87268
H 3.77492 1.91209 6.07362
H 4.43652 0.555765 5.44967
O -10.6641 -3.9835 -9.82217
H -10.4625 -3.00751 -9.7398
H -10.4591 -4.44042 -8.9566
O 3.31487 10.3588 -6.49541
H 2.5163 10.2473 -7.08689
H 4.10298 10.6314 -7.04734
O -7.93061 4.35603 10.3697
H -7.40662 3.50507 10.4058
H -7.33071 5.10522 10.0889
O 9.84924 -8.17838 13.1488
H 10.119 -8.12802 14.1104
H 10.4577 -8.80697 12.6644
O -13.6413 10.434 1.52052
H -14.1498 9.61249 1.26247
H -12.6662 10.2889 1.35253
O 5.85233 -13.4806 2.06238
H 6.54162 -12.7766 2.23314
H 6.27394 -14.3845 2.13524
O 3.70384 -10.9414 12.1989
H 4.43115 -11.4047 11.6925
H 3.41136 -10.1293 11.6939
O 13.019 12.2028 -0.634486
H 12.4259 12.5705 0.0816804
H 12.919 11.2085 -0.672169
O 12.4776 3.10421 9.83533
H 12.9777 2.23866 9.86101
H 11.5275 2.93255 9.57481
O -9.29941 3.12215 7.86049
H -8.3262 2.89693 7.90688
H -9.42259 4.10212 8.01702
O 11.9164 -6.53664 12.2122
H 11.1956 -6.69973 12.8859
H 11.9177 -7.2767 11.5396
O -11.4338 8.75537 2.31297
H -12.1263 8.48441 2.9816
H -10.8449 9.45949 2.70973
O 7.56636 -5.61209 0.770435
H 7.65927 -5.63437 1.76587
H 8.33656 -5.11174 0.374899
O 6.18122 -2.56744 -12.4112
H 7.01369 -2.19617 -11.9999
H 6.28875 -3.55182 -12.5507
O -13.0889 -11.7818 11.9893
H -12.3816 -12.1836 12.5709
H -13.2608 -12.3837 11.2095
O -10.1367 -6.57008 13.9641
H -10.291 -5.58308 13.919
H -9.32254 -6.75537 14.5143
O 10.7446 6.03254 13.9245
H 10.0176 6.6421 14.2407
H 11.2858 5.72519 14.7073
O 1.37639 1.26117 -6.30143
H 1.08848 0.444801 -5.80076
H 2.36607 1.37439 -6.21344
O -1.75575 -13.4463 5.92813
H -1.9611 -14.2259 6.51977
H -0.98692 -12.9324 6.30872
O 3.1894 -13.0939 9.17522
H 3.17036 -14.0792 9.0058
H 2.28777 -12.7913 9.4843
O 4.25202 -3.41593 3.52146
H 4.31535 -2.47177 3.8448
H 3.44302 -3.85032 3.91748
O -7.95035 8.16234 6.89917
H -7.44762 8.76436 6.2788
H -8.28674 8.69199 7.67783
O -3.83254 -14.2894 -12.7852
H -3.89773 14.9046 -12.7049
H -2.9121 -14.0388 -13.0852
O 14.5463 -8.45556 -9.66999
H 14.538 -7.53681 -9.27522
H 13.6117 -8.72951 -9.8965
O -2.60814 -10.0007 13.8907
H -2.53281 -9.00818 13.7947
H -1.95058 -10.3205 14.5728
O 0.669443 1.9146 -8.7557
H 0.717818 1.72384 -7.77525
H -0.205708 1.59102 -9.11544
O 8.92969 5.42164 -8.42535
H 8.92281 5.57708 -9.41318
H 9.81752 5.69042 -8.05182
O -0.128347 -5.86443 -0.257204
H 0.243975 -6.77209 -0.450935
H 0.617184 -5.24255 -0.0174839
O 8.73057 6.87322 -0.944228
H 8.50609 5.90803 -1.07852
H 9.58878 6.94831 -0.436431
O -7.58417 13.4034 -9.70814
H -8.30842 13.6279 -9.05616
H -7.91807 12.7167 -10.3538
O 2.5874 -0.088603 -9.24412
H 3.09434 0.187229 -10.0608
H 1.92492 0.622024 -9.0072
O -4.73065 -5.7254 -13.333
H -4.0192 -5.95504 -12.6688
H -4.38907 -5.89127 -14.2581
O 9.38537 8.47848 -3.18892
H 9.13577 7.98009 -2.35867
H 9.45451 7.8382 -3.95396
O -13.7357 7.87076 8.04098
H -13.2854 7.28729 7.36509
H -14.1846 8.63399 7.57621
O 5.20731 12.0459 0.3122
H 6.06323 11.917 -0.18861
H 4.66542 12.7594 -0.131978
O -14.9344 1.51733 -5.94269
H -14.5359 2.42485 -6.07544
H -14.94 1.02518 -6.81319
O 8.71864 11.2451 -7.26711
H 9.18977 10.3688 -7.36767
H 8.90515 11.6216 -6.35966
O -4.69285 12.0587 0.291539
H -5.06518 12.9804 0.182661
H -4.18721 11.804 -0.532743
O -11.5836 3.24021 -11.5532
H -11.2396 3.60236 -10.6869
H -11.967 2.32862 -11.4046
O -8.88386 9.98392 -6.00528
H -8.62432 10.8566 -5.59157
H -8.33106 9.82539 -6.82338
O -0.00192868 -9.62434 5.71266
H 0.15358 -9.65748 4.72537
H -0.803848 -9.0587 5.90497
O -9.27476 13.4208 -7.61764
H -9.91776 14.133 -7.33593
H -8.54113 13.3479 -6.94202
O -2.15731 1.12226 -5.40649
H -1.49486 1.85649 -5.2579
H -2.67809 1.30684 -6.23999
O 5.9576 14.9009 -14.4387
H 5.7567 -14.3124 -14.5307
H 6.9476 14.7674 -14.3931
O 13.2737 12.6715 -5.99376
H 12.3615 12.8652 -6.35506
H 13.9621 12.9255 -6.67313
O 11.686 0.794095 1.30024
H 11.1924 0.92762 0.440872
H 11.6596 -0.173081 1.553
O 4.12429 -11.142 15.0483
H 3.70553 -11.3271 14.1593
H 4.96308 -10.6133 14.9181
O 11.349 10.9845 -14.9019
H 11.073 11.7325 -14.2984
H 10.9739 10.1234 -14.5586
O 11.8783 1.79812 -12.5598
H 11.8008 2.55965 -13.2033
H 12.1868 0.980737 -13.0463
O -13.3244 9.03965 5.32047
H -13.8103 8.69272 4.51823
H -13.9597 9.55006 5.90001
O -10.4258 4.20165 -9.30692
H -9.43141 4.24347 -9.20992
H -10.8484 4.8759 -8.70128
O -13.5877 -9.52287 10.7391
H -13.2448 -10.4216 11.0126
H -13.8181 -8.99183 11.5546
O -0.252408 -7.49314 14.7766
H 0.236109 -8.24702 -14.9726
H 0.177513 -6.62595 15.0279
O 9.63828 -13.8305 15.0643
H 9.48411 -12.9784 -14.6241
H 10.2444 -14.4233 -14.5939
O 4.98526 -12.3858 -12.9276
H 5.60581 -11.796 -12.4108
H 4.54574 -11.8542 -13.6516
O 3.07389 -14.4072 2.96786
H 3.8 -15.0268 3.26583
H 3.34316 -13.4628 3.15693
O 12.4865 -5.40767 -11.6078
H 12.2871 -4.53696 -12.0574
H 13.2422 -5.28524 -10.9645
O 14.6898 -4.4728 -1.60649
H 14.679 -5.07827 -2.4023
H -14.5605 -4.37554 -1.2744
O -7.34856 -6.60967 -0.408984
H -8.31006 -6.74409 -0.169246
H -7.07806 -5.67243 -0.188926
O -7.19327 5.34769 -14.6876
H -7.01244 5.13091 -13.7283
H -7.61457 6.25239 -14.7512
O -7.65418 1.80653 1.77573
H -7.74386 1.07091 2.44716
H -6.71282 2.14394 1.7747
O -13.2719 0.743131 -13.4242
H -12.3904 0.344489 -13.6772
H -13.5941 1.33545 -14.1627
O 12.5027 0.298209 -3.8742
H 12.5669 -0.602244 -4.3044
H 13.4188 0.618605 -3.63325
O -4.09836 11.0749 -11.1069
H -4.53485 10.6092 -10.3371
H -4.68797 11.8174 -11.425
O 14.4013 -10.7316 13.2178
H 14.6636 -9.77085 13.3086
H 15.0733 -11.2085 12.6513
O -8.17939 -9.25285 -13.9934
H -7.35299 -9.65341 -13.5976
H -8.786 -9.98299 -14.3079
O -13.214 6.5935 10.456
H -13.4285 6.9531 9.54785
H -12.3283 6.12992 10.4301
O 9.67216 4.4636 10.3549
H 8.77943 4.58565 9.92116
H 9.95368 5.32125 10.7853
O -11.3276 8.74691 -6.65815
H -11.6386 9.14886 -7.5194
H -10.4647 9.17176 -6.3844
O 9.18961 14.4532 -5.65124
H 9.56746 14.6769 -4.75278
H 9.05855 -14.8945 -6.1764
O -6.21601 13.1711 2.6271
H -6.08902 13.1503 3.61879
H -5.97299 12.2812 2.24115
O -11.8221 -2.42176 -14.7007
H -11.5038 -1.51849 -14.9883
H -11.0499 -2.95102 -14.3491
O -12.6017 11.9995 8.82982
H -12.0226 11.2388 9.12298
H -12.5901 12.0619 7.83183
O 12.5994 -2.81642 -9.24336
H 11.8026 -2.46897 -8.749
H 13.3748 -2.89012 -8.61611
O 9.76874 -4.40853 13.7574
H 8.83752 -4.76794 13.6968
H 9.79843 -3.67187 14.433
O -7.15602 -14.6558 -13.1254
H -7.65873 -14.3805 -13.9448
H -6.67155 -13.8654 -12.7503
O 12.0572 -9.25531 -9.71162
H 11.5105 -9.35672 -10.5427
H 11.9172 -10.0503 -9.12141
O -9.68506 13.1411 -14.0176
H -9.17695 13.4691 -14.814
H -9.04316 12.8882 -13.2937
O -13.425 -5.95784 2.04666
H -13.0111 -6.12354 2.94179
H -14.4202 -6.01828 2.12328
O -4.54182 -1.62248 -3.12813
H -5.33654 -1.63071 -3.73505
H -4.78445 -1.17515 -2.26729
O 15.0084 13.7986 12.1167
H 14.985 14.7023 12.5444
H -14.2298 13.517 11.9843
O -2.6343 10.1882 2.38402
H -2.46487 11.0328 2.89194
H -3.44185 9.73131 2.75695
O 12.3301 9.9126 -5.78879
H 12.9708 9.16492 -5.96354
H 12.8305 10.7063 -5.44288
O 10.4939 -14.1217 6.2529
H 11.1277 -14.6741 5.71153
H 9.85897 -14.7227 6.73844
O 2.53487 7.30949 -10.936
H 2.81806 8.26273 -10.8304
H 3.22599 6.70982 -10.5326
O 4.89841 3.54994 -6.85702
H 4.82775 2.5707 -6.66702
H 5.03379 4.04687 -5.99984
O -14.1002 -6.58721 9.0791
H -13.729 -5.79443 9.56249
H -14.1102 -7.37698 9.69244
O -11.7017 9.55973 10.0276
H -12.3073 9.7678 10.7957
H -11.9865 8.70092 9.60171
O -10.8567 -14.4086 -1.27379
H -11.4243 -14.0376 -0.538841
H -10.4557 -13.6567 -1.79716
O 10.639 8.2886 -13.945
H 9.78517 8.25642 -14.4646
H 10.4328 8.32678 -12.9672
O 3.27243 -6.12932 5.94451
H 2.78934 -6.99358 6.08483
H 2.73757 -5.54356 5.33556
O -14.9352 10.2349 7.01841
H 14.3461 10.3666 6.61889
H -14.8925 10.6925 7.90657
O 5.51296 6.69525 6.16876
H 5.53708 6.54343 5.18064
H 5.16494 7.61376 6.35647
O 13.1569 -13.8292 2.14062
H 14.0227 -14.3264 2.19809
H 12.8607 -13.7849 1.18653
O -11.822 7.52373 12.9096
H -12.338 7.9339 13.6616
H -12.3593 7.5781 12.068
O -12.856 -6.94416 -2.42656
H -12.6547 -6.99048 -3.40499
H -13.845 -6.88074 -2.2924
O 14.5853 -0.244403 -12.4463
H -15.03 0.283495 -13.0728
H 14.1701 0.370693 -11.7759
O 12.1873 -4.52269 10.392
H 12.3282 -5.35102 10.9343
H 11.2366 -4.4835 10.0843
O 13.8897 -4.21363 -6.74746
H 12.9622 -4.43092 -6.44315
H 14.1422 -3.30223 -6.42249
O -9.931 -8.5971 -8.22887
H -10.0638 -7.60761 -8.17148
H -9.04362 -8.83766 -7.83553
O -4.39074 5.21467 -1.75977
H -5.0834 5.2213 -1.03853
H -4.27153 4.28149 -2.09884
O 14.8721 1.47445 3.54188
H 14.7616 0.588398 3.99211
H -14.5706 1.97876 3.97714
O 4.38514 12.2285 -3.28302
H 5.11652 12.6821 -3.7923
H 3.63976 11.9946 -3.90728
O 12.6335 -0.235823 -14.7057
H 12.9904 -1.15253 -14.5261
H 12.3491 -0.170343 14.5265
O 13.9226 4.15678 7.44574
H 13.1971 3.87574 8.07395
H 13.5156 4.53475 6.61418
O 8.47364 7.89625 14.9605
H 8.05479 8.11801 14.08
H 7.79088 7.47546 -14.6307
O -13.6153 -13.0549 -12.177
H -12.862 -12.398 -12.1475
H -13.409 -13.8259 -11.5744
O 2.78377 -5.51295 -11.6583
H 1.92855 -5.02548 -11.8343
H 3.16056 -5.21852 -10.78
O 0.457034 11.7789 -10.7275
H -0.0638611 12.2529 -10.0175
H 0.478062 12.3392 -11.5555
O -6.15642 0.368489 8.61567
H -7.06249 0.0722171 8.31357
H -5.65961 0.762587 7.84244
O 12.3518 -2.54969 -11.925
H 12.5502 -2.74505 -10.9646
H 13.0522 -1.93768 -12.2923
O 8.20655 8.61681 -11.293
H 7.87338 9.22122 -12.0167
H 9.09759 8.93916 -10.9734
O -0.524612 10.4173 0.39329
H -0.718292 9.82728 -0.390514
H -1.24985 10.3157 1.07426
O 10.6224 2.23796 -9.88072
H 11.2213 1.91735 -10.6146
H 10.0039 2.93826 -10.2372
O -5.81433 -12.6497 -11.8204
H -4.95683 -13.1632 -11.8526
H -5.66101 -11.7231 -12.1636
O 8.33815 -13.5326 -7.18677
H 7.44558 -13.0916 -7.09278
H 8.56208 -13.6285 -8.15665
O 13.839 5.36488 -5.25052
H 13.3159 4.56259 -5.53817
H 13.545 5.64425 -4.33643
O 13.9561 9.17847 10.2711
H 14.5371 9.95468 10.0264
H 14.5244 8.36767 10.411
O -4.67888 7.40642 1.34941
H -4.73864 7.42192 2.3475
H -5.28544 6.69717 0.990155
O -8.0915 12.2338 8.49017
H -8.57725 12.6069 9.28067
H -8.36283 11.2814 8.35126
O -13.1061 -2.82948 -1.00394
H -13.5502 -2.88199 -1.89835
H -13.1735 -1.89567 -0.652581
O 9.06372 2.07338 -2.3001
H 8.73515 2.61693 -1.52769
H 8.96297 1.10087 -2.09012
O -14.0825 -13.1134 9.91447
H -13.6412 -13.9443 9.57566
H -15.075 -13.2355 9.90506
O 14.9052 11.5714 9.46723
H 14.2041 12.2693 9.32103
H -14.3886 11.9397 9.21467
O -12.6703 4.22986 13.1747
H -11.7553 3.9907 13.4996
H -12.6211 5.06264 12.6233
O 11.2989 13.3804 12.541
H 11.8832 13.2991 13.3484
H 10.341 13.2849 12.8117
O 12.8157 -0.761519 5.80363
H 13.7811 -0.811624 5.54758
H 12.7399 -0.584933 6.785
O 7.76947 -0.712224 -8.02324
H 8.1296 -0.503377 -7.11401
H 6.77244 -0.776191 -7.98024
O -7.30161 -1.40232 -0.251027
H -8.25004 -1.31185 -0.55485
H -7.14384 -2.33405 0.0760734
O 8.4165 -0.694908 -2.02099
H 8.70795 -1.07682 -2.89804
H 7.68753 -1.26132 -1.63655
O 8.36194 13.8337 0.500084
H 8.05524 13.1261 -0.136518
H 8.5778 14.6678 -0.00748441
O 0.472832 14.048 -8.84534
H -0.424924 14.3713 -8.54616
H 0.82546 14.6551 -9.55743
O 0.204617 -12.5158 -9.64019
H -0.759114 -12.2761 -9.75756
H 0.351326 -12.863 -8.71392
O 15.0168 1.08062 -3.2431
H -14.4475 0.604721 -2.74418
H -14.9019 1.18863 -4.19993
O 10.523 -11.7129 7.57356
H 10.359 -12.5675 7.08094
H 10.7822 -11.9168 8.51764
O 10.7838 11.4891 3.27655
H 10.6079 12.0519 4.08421
H 10.9824 12.0805 2.49502
O 8.87476 -5.46993 3.15712
H 8.91361 -4.4713 3.19237
H 9.33489 -5.84992 3.95955
O 1.43084 -14.8067 -4.20211
H 0.567165 -14.8613 -3.70102
H 1.5868 14.5241 -4.69189
O 2.07504 -14.3667 6.05708
H 2.04679 -14.4151 5.05865
H 1.61158 -13.5353 6.3637
O -10.2453 -5.30523 5.38272
H -10.8687 -5.93787 5.8423
H -10.7126 -4.88183 4.60656
O 6.75451 -10.609 -7.65628
H 6.11069 -10.0191 -7.16889
H 7.30919 -10.0554 -8.27746
O -10.9243 7.09736 -13.4156
H -11.7169 7.02915 -14.0215
H -10.1351 7.42538 -13.9347
O 1.77209 -9.67614 -13.9353
H 2.51637 -10.2561 -14.2666
H 0.899405 -10.0279 -14.2739
O 11.7209 -2.1649 1.42124
H 12.3289 -2.58428 2.09543
H 12.1399 -2.21973 0.514905
O -10.3357 15.0882 11.8479
H -10.9548 -14.3485 12.0749
H -9.41698 -14.8877 12.1805
O -10.8714 4.38838 0.167636
H -10.7548 4.10508 1.11955
H -11.4205 3.70798 -0.317707
O -2.24421 -5.25204 -12.0197
H -2.20095 -5.60951 -11.0867
H -1.39197 -4.77457 -12.2335
O -13.1467 -4.68646 10.6606
H -13.0115 -4.78498 11.6466
H -13.0638 -3.72259 10.4075
O -7.22997 12.9494 -5.86969
H -6.24805 12.8842 -6.04739
H -7.37918 13.2296 -4.9214
O 13.2569 8.92235 3.11023
H 13.3643 9.05886 2.12541
H 12.2926 8.76278 3.32147
O -13.4709 0.096138 -0.988279
H -12.8971 0.819694 -0.604631
H -14.3151 0.0233856 -0.457186
O 5.73101 -6.53381 5.23263
H 4.85085 -6.31853 5.65569
H 6.46666 -6.10511 5.75709
O 11.5638 4.23557 -13.9934
H 11.7994 4.91367 -13.2972
H 12.2896 4.19696 -14.6802
O -5.78736 4.47068 6.88482
H -6.13675 5.14182 6.23097
H -5.27248 4.9406 7.60181
O 12.1255 -8.27357 6.64978
H 12.6794 -9.09464 6.51183
H 12.7071 -7.53109 6.98215
O -15.0512 -2.23087 13.1564
H -14.3723 -2.93322 13.3705
H -14.6876 -1.61907 12.4539
O -0.121341 11.1285 9.8449
H 0.725794 11.6258 9.65769
H -0.12439 10.8218 10.7967
O 13.6443 -1.69894 -5.88078
H 12.7351 -1.61487 -6.28861
H 14.3021 -1.17506 -6.42195
O -3.92133 10.0805 9.69901
H -4.57895 10.6157 10.2292
H -4.06204 9.10691 9.87861
O -7.42933 2.33884 12.9185
H -6.72712 2.31642 12.2069
H -8.25308 1.87777 12.5886
O -1.20263 -10.4688 -14.0406
H -1.76753 -10.2548 -13.2436
H -1.10559 -11.4607 -14.1236
O 7.26558 -7.75873 12.7379
H 7.17023 -7.646 11.7488
H 8.23155 -7.87613 12.9684
O -11.699 -4.56122 0.470613
H -12.278 -5.27358 0.867223
H -12.2718 -3.88834 0.00251014
O 2.48944 4.61922 10.7582
H 2.44577 4.47958 11.7475
H 2.82707 3.78686 10.3187
O 12.9872 5.64974 10.5696
H 13.7526 5.5718 11.2085
H 12.6995 4.73649 10.2812
O -5.41579 -3.97802 7.02562
H -6.37065 -3.68108 7.03486
H -5.36587 -4.94749 7.26571
O -9.90788 -9.57949 -3.17579
H -10.2832 -9.31954 -4.06551
H -9.01095 -10.0029 -3.3032
O -1.73188 -8.24924 9.69266
H -2.15028 -9.09109 10.0336
H -0.969135 -7.99207 10.286
O -14.4284 7.76678 3.13767
H -14.4858 7.60616 2.15232
H 14.8425 7.92023 3.50437
O 0.07225 -11.6622 12.8273
H 0.887404 -12.2235 12.9704
H -0.733455 -12.1545 13.1567
O 14.9322 -2.69814 1.16709
H 14.5732 -1.81287 0.871435
H -15.072 -3.26746 0.365898
O -9.53914 0.518751 10.95
H -9.97965 0.71098 10.073
H -9.10745 -0.382624 10.9156
O 8.11715 -1.26306 -10.8899
H 8.06195 -0.983532 -9.93135
H 8.51718 -0.522913 -11.4304
O -0.31718 14.9657 -2.08363
H 0.0908019 -14.4474 -1.60176
H -0.399635 14.1903 -1.4576
O -12.5361 11.8072 -3.91092
H -11.5643 11.6043 -3.79058
H -12.879 12.2865 -3.10302
O -9.50866 -13.7509 -11.1683
H -8.81111 -14.1172 -11.7841
H -9.15379 -13.7368 -10.2334
O -8.78965 3.87174 -1.45727
H -9.30009 4.26757 -0.693874
H -8.88876 2.87674 -1.44424
O -12.6821 -2.02446 9.62719
H -12.9576 -1.28472 10.2411
H -11.741 -1.87359 9.32473
O -12.5579 -11.3309 -2.80514
H -12.256 -10.7709 -2.03359
H -13.543 -11.2172 -2.93419
O 7.43839 10.7327 10.224
H 8.40549 10.9085 10.4079
H 6.8866 11.4754 10.6034
O -7.49454 -11.8254 13.8502
H -7.08295 -11.8196 12.9389
H -7.07906 -11.1071 14.4082
O 5.38737 5.9022 -1.06546
H 5.96511 6.71787 -1.09579
H 4.65287 5.98878 -1.73853
O -2.07123 -11.2857 -3.44379
H -2.23575 -10.3746 -3.82185
H -1.08749 -11.4635 -3.4188
O 3.06077 9.9544 4.60989
H 3.34097 10.2776 3.70598
H 2.96393 8.95924 4.59284
O 12.7917 7.53036 5.84676
H 12.7299 8.44574 5.44893
H 12.8433 7.60261 6.84282
O 5.51521 8.84049 2.19445
H 5.97465 8.81173 1.3067
H 4.68508 9.39341 2.12238
O -2.6943 3.47777 11.9312
H -2.41859 4.28861 12.4475
H -1.98599 2.77619 12.0092
O -10.7664 11.755 4.51782
H -11.5567 11.637 5.11904
H -10.3769 12.6659 4.65412
O 14.9092 1.35362 9.9283
H 14.3934 0.868979 9.22183
H -14.8214 2.1448 9.52298
O -5.66728 11.2916 14.0229
H -5.01403 11.777 14.6041
H -5.41491 10.3253 13.9728
O -9.24351 7.74613 4.2367
H -8.95575 8.62513 3.8565
H -9.75167 7.89984 5.08415
O 0.178988 4.79482 -14.965
H 0.702621 5.60846 -14.7123
H -0.442443 4.55366 -14.2195
O 8.19084 -6.85506 -13.3701
H 8.05355 -6.80694 -12.3807
H 7.63132 -6.15804 -13.8185
O 7.27731 -9.72547 7.26026
H 6.55384 -9.05659 7.08935
H 7.15475 -10.5113 6.65402
O -11.6962 5.16691 -4.74691
H -12.059 6.06188 -4.48723
H -10.7459 5.09202 -4.44475
O -8.08626 11.4693 -12.406
H -8.57083 11.1024 -11.6119
H -8.28568 10.9058 -13.2077
O 13.7386 1.82837 -9.85011
H 12.8971 2.10187 -9.38413
H 14.4716 2.46748 -9.61698
O -11.5666 14.6026 -11.1386
H -10.9002 -14.8573 -11.297
H -11.1548 13.7196 -11.3639
O 14.5396 7.24949 -13.4527
H 13.7576 7.58093 -13.9805
H -14.8656 7.12318 -14.0613
O -4.50896 7.23282 4.13634
H -4.37897 7.79259 4.95473
H -3.97244 6.39291 4.21832
O 8.84373 -2.17996 -4.45142
H 8.65672 -1.4189 -5.07258
H 8.13026 -2.87368 -4.54998
O -4.22348 2.57099 -3.35847
H -3.3544 2.29609 -3.76974
H -4.4773 1.91611 -2.64663
O 9.5152 9.50076 6.64542
H 9.42708 8.63959 7.14605
H 8.63519 9.73899 6.23452
O -6.03222 -4.43698 -5.28064
H -5.56885 -4.41036 -6.16641
H -6.48572 -3.56119 -5.11526
O -0.609053 -13.7627 9.17367
H -1.22759 -14.2883 9.75777
H 0.0947177 -14.3687 8.80295
O 1.1229 10.6747 12.3526
H 1.5566 9.78004 12.4599
H 0.747146 10.9704 13.2309
O -13.7882 5.01246 2.16537
H -14.6321 5.44452 2.48343
H -13.0042 5.56706 2.44422
O 13.7599 -5.67527 3.13808
H 13.3086 -6.28638 2.48774
H 13.1159 -4.97008 3.43478
O -12.6724 13.6872 -2.04202
H -13.1393 13.3516 -1.2239
H -12.0945 14.4666 -1.79982
O 12.8012 -11.3843 -5.34191
H 13.3909 -12.1909 -5.38159
H 13.0646 -10.7431 -6.06266
O -14.8828 8.01344 0.412017
H -14.8395 7.11652 -0.0280459
H 14.4661 8.48043 0.134973
O 3.21933 1.16073 10.5288
H 3.76272 1.74396 9.92503
H 2.26407 1.1733 10.2333
O 0.31264 4.55186 8.98339
H -0.553833 4.75254 9.44052
H 1.05577 4.57627 9.65211
O 15.0898 -8.07268 3.7041
H 14.7105 -7.16776 3.89728
H 14.6283 -8.46453 2.9082
O -4.73291 -3.58903 14.7374
H -5.17631 -4.47342 14.5916
H -5.38916 -2.85459 14.5644
O 5.17841 -2.83556 13.2958
H 5.21466 -3.71162 13.7766
H 6.10813 -2.50042 13.1431
O -6.91633 -1.35693 -4.51705
H -7.30256 -0.651645 -5.11154
H -7.64628 -1.96313 -4.20131
O -10.1646 10.6638 -0.331439
H -9.91056 11.6251 -0.224834
H -9.5106 10.0896 0.161187
O 14.521 -5.46158 -9.26407
H 14.4489 -5.20445 -8.30039
H -15.0009 -4.87023 -9.71781
O 7.19066 -2.88145 7.75078
H 8.06125 -2.43205 7.95113
H 6.69084 -3.03491 8.60322
O -7.34409 -13.0726 -9.36022
H -6.83286 -13.4229 -8.5754
H -6.76661 -13.1059 -10.176
O 0.907138 14.7652 -13.0929
H 1.63232 -15.0365 -13.6625
H 1.23387 14.6765 -12.152
O 0.29735 -4.52717 -8.46756
H -0.298516 -4.0529 -7.81947
H -0.0462907 -5.45388 -8.61965
O 11.4419 -10.5531 12.8469
H 11.3379 -10.7158 13.8281
H 12.3947 -10.7036 12.5832
O 3.44653 -0.905323 -11.673
H 4.13766 -0.183857 -11.7158
H 2.90062 -0.894103 -12.5108
O -9.1215 10.5939 -9.97491
H -9.74882 9.97613 -10.4491
H -9.39339 10.6735 -9.01587
O -6.59788 9.99309 5.47235
H -5.65221 10.2652 5.29443
H -7.18155 10.3069 4.72345
O -7.14018 -7.99792 -10.9814
H -7.74164 -7.40547 -11.5174
H -7.66942 -8.75959 -10.6075
O 10.333 -9.70449 -11.951
H 10.1436 -10.5866 -12.3824
H 10.4498 -9.0063 -12.6574
O -8.22126 -3.11793 6.69427
H -8.891 -3.66739 6.19471
H -7.69184 -2.56872 6.04767
O -13.5421 -14.1098 -14.6313
H -13.691 -13.6065 -13.7801
H -13.9712 -15.0106 -14.5653
O -13.3462 -4.21266 13.8202
H -12.715 -3.93669 14.545
H -13.9446 -4.93911 14.1581
O -0.59866 -3.28516 4.4296
H -0.802067 -3.35494 5.40621
H -1.17595 -2.57967 4.01847
O 9.12271 0.122005 -5.89408
H 9.82892 0.782104 -6.1501
H 8.39017 0.591824 -5.40147
O -7.54605 8.47036 -4.19059
H -7.98063 8.78924 -5.03289
H -8.24759 8.29021 -3.50111
O -13.6011 -0.335754 11.5763
H -14.032 0.308376 10.9443
H -12.8744 0.129121 12.0821
O 11.4185 9.24988 11.6049
H 10.7516 8.52103 11.4498
H 12.2721 9.02636 11.1342
O 10.2392 10.8638 -4.35225
H 10.8229 10.4119 -5.02685
H 9.77435 10.1733 -3.79794
O 5.00112 11.1218 -10.702
H 5.22487 11.357 -9.7561
H 4.93689 11.9577 -11.247
O 3.04382 15.0414 -14.9262
H 2.88876 -14.4065 14.6086
H 4.00847 15.0256 -14.6632
O -10.6348 -14.5101 8.69103
H -10.673 -13.6211 9.14735
H -11.5641 -14.8457 8.5368
O 5.58942 4.08211 14.4232
H 5.93839 3.84454 13.5166
H 5.31615 3.24896 14.904
O 7.37972 1.16265 9.32242
H 8.17814 1.36913 9.88801
H 7.53403 1.49771 8.39294
O -9.20363 -13.029 1.90006
H -9.19627 -12.073 2.19359
H -8.29578 -13.426 2.03482
O -15.0842 -6.33101 14.4419
H 14.8981 -6.82878 -14.9042
H 14.275 -5.8829 14.108
O -11.4881 -9.96984 -5.33934
H -11.358 -10.5194 -6.1646
H -11.7075 -10.5702 -4.57027
O -13.2375 -10.4642 -9.14708
H -12.966 -10.3841 -10.1062
H -13.4505 -9.55704 -8.78409
O -2.48563 -5.79588 1.2834
H -1.63721 -5.98327 0.788339
H -3.25282 -6.22051 0.802651
O -2.8692 13.3715 -3.53235
H -2.96871 12.4971 -3.05751
H -2.99406 14.1204 -2.88145
O 8.73949 -13.9748 -1.22742
H 7.82435 -13.7251 -1.54392
H 9.29054 -14.2764 -2.00551
O 10.8062 4.49743 -3.4703
H 10.2854 3.74507 -3.06689
H 11.3979 4.1427 -4.19423
O -2.45521 -9.7955 -11.5917
H -1.69656 -9.144 -11.5888
H -3.16085 -9.48831 -10.9532
O -0.20349 13.6641 5.37615
H 0.209571 12.9464 5.93676
H -1.15467 13.7983 5.65415
O -11.7973 -6.93266 7.67756
H -12.694 -6.6115 7.98225
H -11.0965 -6.27408 7.95175
O -0.325451 7.63067 1.26399
H -0.644169 8.45984 1.72323
H -0.893594 7.45566 0.459875
O 6.95736 -5.50803 7.43393
H 7.09613 -5.7814 8.38578
H 7.03934 -4.51436 7.35717
O -13.3271 3.98971 -6.66157
H -12.6713 4.3676 -6.008
H -14.1594 4.54401 -6.65692
O -0.842365 12.5092 -13.2566
H -0.25953 13.2336 -13.625
H -1.07052 12.7164 -12.3053
O 9.82646 0.754279 3.47755
H 10.7543 0.779895 3.10556
H 9.61146 1.63577 3.89799
O -3.44602 -10.0424 -7.79949
H -2.71986 -9.35964 -7.71894
H -4.01386 -10.0238 -6.97656
O -5.96696 2.29485 10.5077
H -6.10282 1.55459 9.8492
H -5.0507 2.67875 10.3932
O -11.3604 -11.6469 -12.0075
H -10.731 -12.3157 -11.612
H -11.3883 -10.8322 -11.4282
O 12.4027 10.4627 6.03452