2611
Atoms. Timestep: 23000000
O -14.2765 -4.38194 -12.0077
H -13.3429 -4.13463 -11.7483
H -14.2548 -4.94521 -12.8337
O 10.5207 5.23764 -0.506938
H 11.3929 4.76554 -0.378972
H 9.94138 4.70588 -1.12466
O 1.71859 8.55215 -12.867
H 1.90076 9.52328 -13.021
H 2.57102 8.08681 -12.6287
O -6.24851 -12.0741 -6.46517
H -5.49841 -12.6741 -6.18706
H -6.92706 -12.6031 -6.9748
O 9.75723 13.952 -6.51944
H 10.1484 13.7495 -5.62168
H 10.4774 14.2809 -7.13031
O 5.75872 14.327 -0.44751
H 4.83274 13.9647 -0.553858
H 6.37406 13.8608 -1.08313
O 5.52207 1.27101 -3.62282
H 5.56467 1.99856 -2.9381
H 5.83123 0.411577 -3.21565
O -10.8975 8.64749 2.60544
H -11.3262 7.77678 2.84654
H -10.0539 8.47427 2.09719
O -9.64699 -8.50998 -13.6621
H -9.66075 -8.06718 -12.7656
H -9.9962 -7.8762 -14.3523
O 8.67014 13.2952 8.29094
H 8.83872 12.3101 8.32326
H 7.80496 13.5005 8.74845
O 8.91579 0.963993 -14.2441
H 8.38583 1.5347 -14.8714
H 8.81581 1.31171 -13.3119
O -8.25644 0.430514 5.21742
H -7.82218 -0.45399 5.04696
H -8.90872 0.34202 5.97021
O -0.454163 -10.3224 -2.99263
H -0.619192 -9.36012 -3.20874
H 0.453082 -10.4214 -2.58385
O 8.62307 1.34988 12.5979
H 8.06559 2.12413 12.8974
H 8.20676 0.497359 12.9139
O -0.600499 -14.9711 5.9868
H -0.792932 15.1195 5.02684
H -0.755313 14.5037 6.5388
O 8.46013 -0.857589 2.40654
H 8.7272 -0.655494 1.46429
H 7.70617 -1.5145 2.40568
O 1.9212 14.2842 9.26928
H 1.41831 13.6194 9.82157
H 1.85029 14.0366 8.30304
O 3.51844 -11.8399 2.77351
H 3.55026 -12.8257 2.93822
H 3.92058 -11.3586 3.55242
O 7.02045 -9.54145 -2.09009
H 7.41767 -10.4411 -1.90872
H 7.29247 -9.23472 -3.00218
O -14.1825 14.9541 -6.2651
H -13.8341 -14.4792 -6.63592
H -13.6695 14.1904 -6.65704
O 12.1499 11.2158 -8.78368
H 11.3789 11.1476 -8.15054
H 12.7683 11.9402 -8.47907
O -9.18265 -8.48162 0.020783
H -9.3819 -7.51769 -0.15568
H -8.24996 -8.68867 -0.274525
O -6.99229 -9.82299 -13.4622
H -7.82313 -9.27211 -13.5411
H -6.31903 -9.33332 -12.9082
O 11.5616 7.49241 -12.3593
H 12.09 6.85031 -11.804
H 11.1193 8.16284 -11.7635
O -14.016 9.4632 4.22298
H -13.3919 10.2128 4.44352
H -13.8601 8.70313 4.85384
O 14.8514 7.462 2.44915
H -14.8594 8.26697 2.55728
H 14.2734 7.35805 3.25857
O 10.6417 1.51542 -11.9509
H 11.0566 1.3963 -11.0489
H 9.96103 2.24693 -11.9107
O 11.8898 -4.053 -0.881322
H 11.1714 -3.46903 -1.25932
H 12.7832 -3.71965 -1.18248
O 7.09053 -13.457 11.2741
H 7.93144 -12.9161 11.2916
H 7.24987 -14.3355 11.7245
O -7.28382 11.0814 7.85719
H -7.93704 11.5727 8.43329
H -6.75668 10.4444 8.41961
O 5.55082 10.4314 -2.73971
H 6.31559 11.0698 -2.82665
H 4.70788 10.8783 -3.03923
O 0.570148 -12.4587 2.95497
H 0.363578 -13.433 2.86416
H 1.53272 -12.3436 3.20028
O 11.7522 1.36573 -4.07441
H 10.87 1.83625 -4.08977
H 12.0958 1.33214 -3.13588
O -0.733872 7.91614 -13.9051
H -1.39375 8.33914 -13.2841
H 0.193653 8.16253 -13.624
O 3.38153 8.59448 2.79016
H 3.27304 9.55708 2.54193
H 3.02615 8.01836 2.0541
O -14.5478 4.60614 4.89465
H -14.1044 5.06698 4.12587
H -14.8511 3.69725 4.60844
O -8.28482 4.0348 -8.23588
H -8.99453 4.65709 -7.90566
H -7.93216 3.49557 -7.47113
O -14.1879 1.16291 -4.66242
H -14.3469 1.55943 -5.56657
H -13.4846 1.69061 -4.18601
O -8.03543 9.66239 -9.90324
H -8.28246 9.81325 -10.8604
H -8.11437 8.68901 -9.68806
O 13.0563 14.6328 11.0496
H 12.919 15.0599 10.1558
H 12.3427 13.95 11.206
O 11.2715 0.943614 13.0372
H 10.2772 1.033 12.9787
H 11.7029 1.75573 12.6442
O 7.35922 13.8076 3.78682
H 6.95913 14.3125 3.02198
H 8.34881 13.7395 3.66003
O 0.0883717 12.3818 -7.19625
H -0.216043 12.3534 -8.14836
H -0.703223 12.3004 -6.59066
O 10.9504 -1.86534 -4.57223
H 11.6742 -1.17766 -4.62939
H 10.7125 -2.17606 -5.49246
O 8.09426 -13.9722 -14.8364
H 7.67754 -13.8964 -13.9306
H 8.86185 -13.3349 -14.9046
O -2.34084 0.757595 -12.2899
H -3.31718 0.968965 -12.2445
H -2.11343 0.428276 -13.2064
O -9.84849 -3.53963 -2.41589
H -10.7839 -3.85265 -2.58006
H -9.84978 -2.85158 -1.69023
O 13.9807 6.56806 -1.16115
H 13.5693 6.39235 -2.05548
H 13.2741 6.87532 -0.523745
O 11.5554 -11.4678 5.78647
H 10.5843 -11.7059 5.80603
H 11.9473 -11.7384 4.90715
O -2.3016 0.708837 -14.9666
H -2.03988 -0.18972 14.9753
H -2.82201 1.20159 14.6301
O 15.0365 4.64857 1.32466
H -14.4528 4.16342 0.98289
H -14.9744 5.51338 1.73924
O -1.79614 -12.1409 11.1762
H -1.61113 -11.1837 11.3986
H -0.954024 -12.5787 10.8613
O -3.30123 1.52333 -8.97979
H -4.23653 1.64902 -9.31055
H -2.71853 2.25 -9.34366
O 7.5037 5.7687 7.32082
H 6.5364 5.51529 7.31029
H 7.99376 5.24226 6.62607
O 12.9387 13.0523 -12.4777
H 13.7848 12.6238 -12.7945
H 13.1422 13.9593 -12.1089
O -14.509 -11.7198 3.18563
H -14.3427 -11.3513 2.27099
H -14.1405 -12.6476 3.2433
O 11.6664 14.7495 -8.57413
H 12.422 14.6798 -7.92286
H 11.8176 -14.7617 -9.17761
O -8.17703 7.01388 -8.9581
H -7.99287 7.10758 -9.93652
H -7.34923 6.70249 -8.49144
O -7.25871 -4.39843 14.7393
H -7.85503 -4.22559 -14.7709
H -6.69244 -3.59239 14.5672
O -8.77623 2.60697 -3.37053
H -8.58999 1.64029 -3.19492
H -8.71012 3.11997 -2.5147
O 10.4959 -9.25826 14.9186
H 9.63909 -9.3999 14.4229
H 10.3675 -9.49717 -14.413
O 15.0827 -11.1832 -12.2315
H -14.5745 -11.8813 -11.9044
H -14.928 -10.2871 -11.89
O 6.41762 -3.05148 11.3284
H 5.91389 -3.91397 11.3769
H 6.693 -2.87906 10.3827
O 4.01727 7.0917 -2.97655
H 3.90747 7.27213 -1.99912
H 4.48255 6.2157 -3.10358
O -1.14512 3.62222 -5.25212
H -0.982778 3.14899 -6.11796
H -1.29825 4.59475 -5.4274
O -14.0029 -10.8488 14.6916
H -13.6168 -11.012 13.7837
H -14.8548 -10.3325 14.6036
O 6.47442 -12.1707 13.7714
H 6.07903 -12.3545 12.8715
H 7.01758 -12.9577 14.064
O -1.57722 6.97911 9.81295
H -2.30602 7.40654 10.3479
H -0.925395 6.53838 10.4301
O -12.5939 -0.541051 11.2498
H -12.6173 0.457019 11.3073
H -11.9814 -0.901167 11.9535
O 1.52118 -5.79827 6.02319
H 1.65174 -5.66944 7.00622
H 0.820065 -6.49432 5.86846
O -8.30352 7.1644 -11.6727
H -7.38036 7.20654 -12.0548
H -8.55466 6.20982 -11.5124
O -13.1287 -6.76692 0.652633
H -12.3345 -6.44507 0.137227
H -12.8576 -6.96208 1.59519
O -5.80937 -11.7203 0.368684
H -6.59559 -11.2718 0.793816
H -5.23091 -11.0329 -0.0705771
O 14.4266 -5.06656 12.4854
H 14.1289 -4.4111 11.7913
H 13.671 -5.25358 13.1131
O -14.756 -2.70541 -14.9183
H -13.8281 -2.38351 -14.7299
H -14.9501 -2.61008 14.3995
O 5.99171 -9.5915 -8.07859
H 6.66557 -10.0174 -8.68232
H 5.07124 -9.85087 -8.37091
O -15.0559 13.7687 14.676
H 14.2737 13.9673 14.5019
H -14.8574 12.8244 14.4137
O -3.1798 -4.66213 -10.7663
H -3.79962 -5.09376 -11.4216
H -3.70336 -4.32814 -9.98247
O -4.10676 -13.5776 1.11704
H -4.73469 -12.8369 0.878136
H -4.40064 -14.4215 0.668201
O -6.67687 -9.99998 5.32074
H -6.86497 -9.1772 5.85707
H -6.98052 -10.8058 5.82905
O 0.122038 9.45132 -1.97035
H -0.304555 10.3295 -1.75402
H 0.977372 9.60885 -2.46389
O 10.4305 7.76663 -2.48479
H 10.6962 7.34369 -1.61847
H 10.6844 7.16422 -3.2415
O -14.6072 0.698111 -0.300245
H -14.2854 1.4296 -0.901389
H -14.7436 -0.136337 -0.834178
O -9.1281 10.4216 -12.3052
H -9.4 11.3584 -12.0855
H -9.90344 9.80683 -12.1605
O -1.06238 -11.935 5.54388
H -0.804276 -12.1438 4.6006
H -1.19352 -12.7874 6.05004
O -7.2453 2.04573 8.96449
H -7.04587 2.98741 8.69348
H -8.23382 1.8958 8.94597
O -11.4114 1.98392 -12.611
H -11.2631 2.90177 -12.2428
H -12.0067 1.4694 -11.9938
O -1.90344 -3.27156 -12.6112
H -2.557 -3.33012 -13.3658
H -2.30219 -3.68399 -11.7921
O -14.3319 1.7457 7.83437
H -14.8182 1.92734 6.97962
H -13.6198 2.43534 7.96579
O 11.634 14.9011 6.04063
H 11.4524 14.5924 6.97426
H 12.6113 15.0847 5.93447
O -13.2041 12.1084 4.37653
H -14.0192 12.0056 3.80634
H -13.4762 12.3676 5.30324
O 8.62039 -10.9618 11.0048
H 8.23176 -10.4709 11.7845
H 9.53358 -10.6051 10.8079
O -8.80689 -12.2927 -1.4554
H -9.50995 -12.4092 -0.753889
H -9.23443 -12.2948 -2.35939
O -6.5795 10.3349 -13.3355
H -6.23016 11.2088 -12.9976
H -7.49315 10.1743 -12.962
O -14.6745 -2.24001 12.4853
H -14.2582 -1.76911 11.7075
H 14.7759 -2.68864 12.1907
O 9.82997 15.1185 0.275617
H 9.05944 -14.6046 0.558705
H 10.5734 -15.0847 0.938194
O 7.61769 -1.69532 -14.6945
H 7.61403 -1.85429 14.6124
H 8.12662 -0.858294 -14.4935
O 5.47738 5.73221 12.3416
H 5.64366 5.58618 13.3168
H 6.30638 5.51559 11.826
O 7.00885 14.1171 -6.88943
H 7.83996 14.0914 -6.33393
H 7.16565 13.6268 -7.74673
O -8.55989 0.202259 14.8773
H -8.07152 -0.219837 14.1136
H -9.41957 0.592882 14.5481
O -5.10907 -7.27336 10.1496
H -5.75656 -8.02617 10.268
H -4.38831 -7.34205 10.8394
O -14.093 0.783484 13.6681
H -14.7049 0.407248 14.3638
H -13.1747 0.883938 14.0511
O -10.4664 15.1066 -2.56773
H -11.0375 15.0102 -3.38288
H -9.54585 -14.9047 -2.83728
O 9.08599 3.43162 2.39311
H 9.08542 4.32902 1.9519
H 9.97523 3.27143 2.82158
O -10.9661 -9.78687 -6.70049
H -10.929 -10.3393 -7.53323
H -10.2178 -10.0508 -6.09185
O 5.03554 10.1827 -8.76617
H 4.31451 10.6553 -9.27291
H 4.86638 10.2718 -7.78462
O -8.22853 -10.3978 -5.60817
H -8.3228 -10.2629 -4.6218
H -7.48729 -11.0448 -5.78678
O 10.764 -1.96137 3.80519
H 10.5537 -1.38815 4.59713
H 9.93138 -2.11217 3.27229
O -6.04621 12.9669 -9.06561
H -6.97196 12.6025 -9.16665
H -5.45821 12.2727 -8.65053
O 14.0439 -7.55475 -8.32384
H 14.4875 -8.32722 -8.77824
H 14.612 -6.73794 -8.42426
O 1.1663 -1.84421 -10.7871
H 0.235439 -1.64846 -10.4786
H 1.31414 -2.83319 -10.7939
O -11.7167 6.27692 9.09449
H -11.6746 6.94901 9.83376
H -11.187 5.46781 9.34901
O 6.78393 -3.31216 2.57029
H 7.03445 -4.26797 2.72406
H 6.4541 -2.91231 3.42546
O -3.44351 2.11715 7.67778
H -3.34882 1.46315 8.42832
H -4.24996 1.88565 7.1337
O 7.4431 13.3201 -13.2095
H 7.56715 13.8207 -12.3527
H 8.33719 13.0825 -13.5891
O -4.98166 8.88646 -11.7711
H -5.49091 9.52171 -12.3518
H -4.91836 7.99766 -12.225
O 10.783 9.06645 -10.3495
H 10.0723 8.64147 -9.78894
H 11.2448 9.77759 -9.81946
O -8.17644 -8.51981 -7.72066
H -8.67416 -7.7765 -7.27374
H -8.26462 -9.3543 -7.17674
O -7.02242 7.32397 8.47016
H -6.75709 8.22926 8.80188
H -6.93826 7.29611 7.4741
O -11.6367 -10.8082 -11.6097
H -11.9613 -11.5422 -12.2063
H -12.0318 -9.93862 -11.9058
O -11.0103 -0.34975 -8.80659
H -11.5388 0.492659 -8.70143
H -10.3629 -0.433846 -8.04909
O 5.06508 -4.01668 -3.46378
H 5.18203 -4.68984 -4.19395
H 4.76781 -4.47921 -2.6285
O -6.7777 10.7383 -0.432672
H -6.77443 11.372 0.340906
H -5.94403 10.8643 -0.970338
O -5.82287 14.9105 5.35238
H -5.83966 -15.0653 6.30023
H -6.62393 -15.0315 4.86831
O 5.49356 -12.3521 -4.22084
H 6.06472 -12.8809 -4.84862
H 5.43719 -12.8259 -3.34204
O -7.20078 12.7577 1.24168
H -8.00049 13.1296 0.770372
H -7.21529 13.0443 2.19963
O 4.53682 11.7807 7.89569
H 3.91688 11.7938 7.11116
H 4.00433 11.7272 8.74042
O -10.884 13.0411 3.09239
H -10.7097 12.2736 2.47545
H -11.6984 12.8499 3.6403
O 8.57016 -6.94765 5.18181
H 8.77629 -7.9256 5.14841
H 9.22355 -6.44963 4.61168
O 10.819 -13.5445 9.76955
H 10.7648 -13.7801 10.7399
H 11.0593 -14.359 9.24162
O 3.45119 -7.13576 -14.813
H 2.77458 -7.15413 -14.0769
H 3.06917 -7.57179 14.6663
O -12.1945 12.3024 -14.0609
H -11.8271 13.125 -14.4949
H -12.6682 12.554 -13.2169
O -5.18364 12.7208 8.57106
H -4.57116 12.7952 7.78409
H -5.9599 12.1362 8.33521
O -4.06787 -9.48977 4.71807
H -3.79924 -9.84494 3.8227
H -5.05473 -9.59864 4.83743
O 7.1566 -1.46574 -6.55804
H 6.87238 -0.521487 -6.72415
H 6.47609 -2.09082 -6.94039
O -3.98551 2.2711 13.3874
H -3.19228 2.02873 12.8288
H -4.65532 2.75404 12.8234
O 10.3083 -11.8178 -13.717
H 11.0205 -11.3297 -13.2125
H 9.44047 -11.3295 -13.6249
O 0.191168 12.1852 9.60212
H -0.480041 12.4488 8.90931
H -0.228291 11.5455 10.2462
O 11.5505 6.30689 7.98292
H 11.8216 5.41766 7.61448
H 12.224 6.60719 8.65838
O 4.47423 -10.7719 4.98202
H 4.34656 -11.2502 5.85088
H 4.76497 -9.83158 5.15876
O -2.04353 -12.2618 14.0481
H -2.98446 -12.5612 14.2061
H -1.72969 -12.6027 13.1619
O -8.44586 -5.85744 8.6906
H -7.92562 -6.3834 8.01776
H -8.37743 -4.8829 8.47708
O -4.03362 -11.7051 7.35381
H -3.20164 -11.1571 7.26691
H -4.00145 -12.4652 6.70476
O -13.8011 12.7651 11.6492
H -14.3805 12.4433 12.3979
H -13.388 13.6406 11.9
O -6.21556 -0.0819133 -6.23656
H -5.25639 -0.00140441 -6.50769
H -6.35193 -0.942042 -5.74506
O -13.1102 -1.81321 -9.51147
H -12.2231 -1.43215 -9.25107
H -13.6784 -1.92244 -8.69587
O -11.0045 -9.41756 10.6172
H -10.5539 -8.59985 10.2591
H -10.8336 -10.1882 10.0033
O 9.62966 5.62248 -13.3216
H 10.4043 5.98943 -12.8066
H 9.13823 6.37262 -13.7641
O -8.64423 -0.28383 8.10644
H -7.68143 -0.0399411 8.2227
H -8.75467 -1.27069 8.22433
O -5.85311 0.229732 10.9068
H -6.3142 0.902959 10.3288
H -6.53297 -0.270759 11.4428
O -8.82713 2.03811 -0.111625
H -8.1419 2.75265 0.0293515
H -9.00247 1.56902 0.753939
O 9.46456 -13.5468 -10.8371
H 9.68305 -12.5725 -10.8912
H 8.90786 -13.719 -10.0245
O 13.9154 10.2399 -5.10416
H 13.5046 10.1999 -4.1933
H 14.6418 9.55615 -5.17259
O 7.96233 5.16457 10.9022
H 8.71857 4.74973 10.3962
H 7.67731 6.00673 10.4444
O -12.2613 -7.2826 3.46015
H -11.4926 -7.77245 3.04895
H -12.7741 -7.90407 4.05248
O -8.73987 -14.3674 8.19913
H -7.76045 -14.2395 8.04304
H -8.95035 14.9492 8.21258
O 12.3241 10.7302 -3.00915
H 12.0127 10.289 -2.16752
H 12.7774 11.593 -2.78518
O -12.3264 6.51115 -7.15072
H -12.2102 7.43841 -6.79477
H -11.5053 5.97435 -6.95665
O -14.6932 -9.06295 10.6965
H 15.127 -9.46399 11.4805
H -14.6577 -8.06909 10.8013
O 5.92742 2.35082 -9.21197
H 5.4415 3.20145 -9.41276
H 5.65616 2.01713 -8.30916
O 9.00377 4.26157 5.41413
H 8.93087 4.32141 4.41859
H 9.95875 4.38001 5.68612
O -10.2154 5.18727 -6.35926
H -10.5652 4.25067 -6.33847
H -9.79828 5.40695 -5.47738
O -15.0176 11.4542 -12.6072
H 15.0389 11.3096 -11.6467
H 14.7565 10.8193 -13.1786
O -0.959406 -1.92591 14.5431
H -0.362681 -1.95542 13.7412
H -1.8124 -2.4074 14.3417
O -7.19074 -6.7342 6.07488
H -6.2078 -6.579 6.17352
H -7.48512 -6.43961 5.16574
O -11.315 -10.3081 0.0827024
H -11.0095 -10.8564 0.861121
H -10.6371 -9.59915 -0.112115
O -5.61597 6.87432 5.51323
H -4.6859 6.52282 5.62001
H -5.59266 7.72444 4.98716
O 12.2852 -7.19853 -6.2409
H 11.4438 -6.65907 -6.2726
H 12.8989 -6.90216 -6.97269
O -11.0703 14.931 -14.4236
H -11.1028 -15.0972 -13.4602
H -10.261 -14.9622 -14.8529
O 9.36534 13.4829 -9.83807
H 10.0962 13.8657 -9.2729
H 9.76485 12.9401 -10.5768
O 10.1525 -10.8617 -10.3907
H 10.8125 -11.0509 -9.66368
H 10.639 -10.5758 -11.2164
O 6.33618 5.47906 -2.22355
H 7.24068 5.68109 -1.84797
H 6.14012 4.50454 -2.11465
O -8.17885 -5.55343 -1.9592
H -8.19321 -6.24285 -2.68341
H -8.74631 -4.7753 -2.22844
O 11.7914 8.20567 11.9218
H 10.9509 8.71022 11.7246
H 11.5609 7.29481 12.2641
O 14.8632 -11.5842 8.59326
H -14.6692 -10.9368 8.61562
H 14.0012 -11.0885 8.69952
O 5.48395 8.55106 11.791
H 5.22904 7.6017 11.9746
H 5.31849 8.76016 10.8272
O -11.7588 6.87981 6.46714
H -11.5682 6.72669 7.43678
H -11.0298 7.43577 6.06786
O 8.19777 -7.58352 -0.142163
H 7.55378 -8.31568 -0.363987
H 8.70103 -7.32146 -0.965595
O -1.54828 8.39178 13.8894
H -0.989558 8.30595 14.7142
H -1.46508 9.31949 13.5255
O 5.46377 -5.12007 -14.9808
H 4.80705 -5.85438 15.1415
H 5.29701 -4.36789 14.6758
O -9.33555 -13.1999 4.80918
H -8.94769 -12.8399 5.65772
H -10.2871 -13.4656 4.96404
O -7.53748 -1.11935 12.8249
H -6.80049 -1.7911 12.8998
H -8.38317 -1.58086 12.5569
O -3.29358 6.83125 -7.96953
H -2.9825 7.71688 -7.62474
H -4.26518 6.71577 -7.76303
O 8.02759 -2.08736 9.16347
H 8.27231 -1.1661 9.46573
H 8.11839 -2.14713 8.1694
O -1.28399 -12.7214 0.763707
H -2.19392 -12.4139 1.0421
H -0.646124 -12.6073 1.52535
O 11.7672 -14.6682 -1.84036
H 12.0403 -13.7254 -2.03127
H 10.9622 -14.6684 -1.24701
O 9.71524 -0.290105 -0.0979211
H 10.4126 -0.586663 0.554513
H 9.84656 -0.76807 -0.966422
O 7.13561 -0.876131 12.6265
H 6.30473 -0.322337 12.6808
H 6.99468 -1.62613 11.9803
O -0.3741 5.43621 3.13191
H -0.371505 6.41604 3.33167
H -1.04414 5.24399 2.41491
O 2.27756 13.5386 6.58959
H 3.10279 13.7988 6.08832
H 1.80434 12.8086 6.09652
O -11.2044 -13.9624 9.41102
H -10.3571 -14.1852 8.92897
H -11.0958 -14.1608 10.3851
O -5.96612 6.81197 -13.3707
H -5.16467 6.78422 -13.9681
H -6.74116 6.38064 -13.8325
O -13.5419 -8.47986 -2.70937
H -13.2405 -9.42811 -2.60941
H -14.353 -8.32667 -2.14495
O -6.77951 7.13833 2.39309
H -7.29587 6.66322 3.10557
H -6.01202 6.56769 2.10098
O 6.84974 12.587 14.4439
H 7.14315 12.6354 -14.8955
H 6.1753 11.8561 14.3391
O -10.9435 -11.4983 8.41729
H -11.6087 -11.2616 7.70923
H -11.1099 -12.4328 8.73196
O 6.27612 -8.87449 -12.328
H 6.69579 -7.98168 -12.4916
H 6.48277 -9.48505 -13.0925
O -10.1304 -14.3747 -11.4219
H -9.5886 -14.3833 -10.5814
H -10.2434 -13.4321 -11.736
O -14.4081 7.51516 12.4696
H -14.341 7.80184 13.4253
H -14.9798 8.16328 11.9666
O -13.2964 -0.988877 -6.28639
H -12.4432 -0.755248 -6.75278
H -13.6575 -0.177902 -5.82605
O 9.6558 -5.99108 -6.78403
H 9.27512 -6.79266 -7.24505
H 9.29502 -5.16023 -7.20774
O -4.78569 -6.22214 7.50853
H -4.94238 -6.68809 8.37935
H -4.56581 -5.26167 7.67926
O 6.25991 -7.00034 -2.59666
H 6.59344 -6.84129 -3.52588
H 6.40752 -7.95785 -2.34888
O -14.7855 -7.19081 -13.9813
H 14.8214 -7.80511 -14.369
H -14.4692 -6.55667 -14.6869
O 13.3556 -3.74962 -11.7266
H 13.0916 -4.71378 -11.7535
H 14.3343 -3.66665 -11.9145
O 10.9477 -6.53378 -14.4281
H 10.9031 -6.9976 14.9812
H 10.224 -6.88215 -13.8324
O 12.4152 14.6599 13.7562
H 12.3283 -14.8612 14.3847
H 12.896 14.9543 12.9303
O -12.4305 -0.933983 -2.11002
H -13.4005 -0.861197 -1.87818
H -12.3287 -0.993079 -3.10306
O -9.35572 -3.0809 -5.06603
H -10.2906 -3.16611 -5.41067
H -9.36007 -3.15493 -4.06879
O 4.48933 -9.0543 10.0978
H 4.53692 -9.21883 11.083
H 4.00267 -9.80855 9.657
O -12.4847 3.69545 7.65558
H -12.3678 4.68522 7.57386
H -12.2183 3.25637 6.79757
O -1.0875 -6.69127 -10.686
H -1.65662 -5.88524 -10.8486
H -1.57681 -7.51055 -10.9849
O 4.52704 -3.65549 -12.7056
H 4.12265 -3.19076 -13.4934
H 5.16324 -4.35835 -13.0238
O -4.17328 -3.77902 8.26855
H -4.6681 -3.08012 7.75212
H -3.8674 -3.39548 9.13994
O 8.30067 7.82807 -14.1897
H 8.28328 8.2659 -13.2908
H 8.43763 8.5225 -14.8961
O 13.263 9.47344 -13.4992
H 12.6727 8.82335 -13.0207
H 13.0321 9.47964 -14.4721
O -7.14316 11.6979 -4.19754
H -7.78684 11.9509 -3.47527
H -7.64762 11.488 -5.03505
O -8.64068 -0.454067 -10.6109
H -8.90354 -0.166074 -11.5318
H -9.44676 -0.454879 -10.0191
O 1.25658 14.4472 12.8306
H 1.50163 13.4861 12.7029
H 0.3211 14.5979 12.511
O -5.41075 12.3845 -12.0162
H -4.43322 12.2258 -12.155
H -5.55315 12.8388 -11.1368
O -4.61264 -0.720618 0.848705
H -4.56967 -0.00717868 0.149313
H -3.70588 -0.848588 1.25044
O 14.5456 -14.7333 6.31794
H 14.9952 -13.8433 6.39432
H -15.0568 14.8392 6.29183
O -5.22356 -2.05676 6.49202
H -5.92712 -2.10796 5.78324
H -5.11872 -1.10786 6.78966
O 3.07768 -2.78864 -14.9043
H 2.8692 -3.4479 14.6674
H 2.24571 -2.29286 -14.6552
O 1.65028 4.33763 -11.5932
H 2.16787 3.76609 -12.2299
H 0.674866 4.13567 -11.6813
O 7.18986 -1.35273 -10.1451
H 6.33857 -1.20837 -9.64068
H 7.01298 -1.27601 -11.1263
O 4.95587 4.04487 2.81464
H 5.07804 4.72748 2.09415
H 5.57014 3.2731 2.65022
O -1.57073 14.1548 12.6764
H -2.18578 13.7291 13.3401
H -1.94312 14.0399 11.7555
O -11.7039 -7.68155 12.6615
H -12.56 -7.38667 12.237
H -11.397 -8.53304 12.2363
O 7.91721 -13.229 -5.91506
H 8.8516 -13.1266 -5.57387
H 7.88066 -12.9516 -6.87512
O -10.6352 -11.5902 -8.82543
H -9.87265 -12.1974 -9.04851
H -10.8717 -11.0433 -9.6285
O 11.156 14.074 8.9146
H 10.2367 14.0265 8.52389
H 11.2918 13.3067 9.54128
O 8.05682 -8.7743 -4.52546
H 7.68293 -9.17381 -5.36247
H 9.04238 -8.64177 -4.63074
O -12.9597 9.77262 0.760015
H -13.6681 10.2909 1.23919
H -12.3286 9.37588 1.42654
O 12.4633 1.67668 -1.57258
H 12.1329 2.28367 -0.84984
H 13.2128 1.11622 -1.22035
O -6.43049 9.22338 -7.29918
H -7.15795 8.99009 -6.65392
H -6.82268 9.35829 -8.20911
O 4.73368 5.19081 -12.2341
H 4.51062 5.5605 -13.1361
H 4.95988 4.22038 -12.3183
O -9.36144 10.9314 14.9711
H -9.40077 10.7334 -14.3437
H -8.8034 10.2393 14.5132
O 12.4768 0.977714 -6.94261
H 12.3906 1.08928 -5.95261
H 13.2209 1.55461 -7.27947
O 3.05242 -14.9528 -2.83743
H 3.72895 -14.498 -2.25826
H 2.19364 -15.049 -2.33421
O -11.7052 -7.15897 -7.01965
H -11.5156 -8.14033 -7.05068
H -12.2631 -6.95256 -6.21584
O -3.4891 2.57943 -4.67949
H -3.40309 1.72884 -5.19824
H -2.65123 3.11627 -4.7783
O -13.4812 -0.298392 -11.8981
H -13.1831 -0.735605 -12.7466
H -13.5285 -0.981898 -11.1697
O 12.8652 -7.67303 0.994356
H 12.8765 -8.155 1.87047
H 12.1669 -6.95754 1.01655
O -9.52056 13.1359 8.95761
H -9.99581 12.3661 9.38352
H -9.14298 13.7291 9.66863
O 8.88834 0.954735 -4.35237
H 8.25785 0.223062 -4.61147
H 8.72102 1.75725 -4.92505
O -2.67538 9.88653 -0.382414
H -3.53552 9.68193 -0.849648
H -2.09977 10.4497 -0.975291
O 4.21457 13.2135 11.7096
H 3.71767 12.7988 10.9473
H 5.11298 13.5196 11.3948
O -4.07146 4.17929 -14.943
H -4.44341 3.38991 14.8627
H -3.1033 4.02393 -14.7468
O 7.44138 -6.61364 -13.3785
H 6.6179 -6.26846 -13.8288
H 8.02815 -5.84544 -13.1225
O 9.10676 -6.83973 -10.56
H 10.0058 -6.41388 -10.4584
H 8.40108 -6.13123 -10.5656
O -6.28004 -13.9408 10.5919
H -5.55326 -13.255 10.6296
H -6.34204 -14.4094 11.4731
O 3.8769 -12.2662 14.9399
H 4.79689 -12.0168 14.6376
H 3.50699 -12.9713 14.3349
O 5.03018 -9.34968 12.9514
H 5.07236 -10.2103 12.4439
H 4.85558 -9.54055 13.9174
O 12.6143 12.9144 -5.13509
H 12.1292 13.1503 -4.29303
H 12.7406 11.9235 -5.18058
O -7.13295 -14.4953 0.635287
H -7.00801 -13.5233 0.436232
H -7.61567 -14.9316 -0.124025
O -2.95205 -7.46296 11.8526
H -3.19083 -7.18109 12.7818
H -2.29338 -8.21439 11.8911
O 2.74619 -4.81184 13.3812
H 3.33352 -5.61548 13.2853
H 1.80187 -5.10505 13.5304
O -3.46965 2.35652 4.05554
H -3.60691 1.75031 4.83891
H -2.99579 3.18493 4.35415
O -2.12717 8.13592 -3.6419
H -1.57251 7.46443 -4.13326
H -1.53298 8.84416 -3.26068
O -1.45632 3.19665 9.36843
H -0.509513 3.12502 9.0547
H -2.07065 2.86456 8.65267
O 1.99262 -10.0255 -1.19943
H 2.65627 -9.55818 -1.78355
H 2.09146 -9.70253 -0.258187
O -1.79757 5.67146 -12.1399
H -1.79467 4.87522 -12.7449
H -0.969708 6.21062 -12.2946
O 14.7076 -8.55234 -5.67864
H 14.1144 -8.58761 -4.87435
H 14.3214 -7.91992 -6.35014
O 2.61632 3.95589 13.6604
H 2.37824 3.04072 13.3352
H 2.62 4.59302 12.8897
O 7.48451 7.52259 9.28047
H 6.85483 8.2191 8.93642
H 7.82418 6.97382 8.51662
O 11.2845 -5.13842 -10.1271
H 11.9171 -4.36411 -10.1155
H 11.1083 -5.43903 -9.18979
O -0.153041 -9.42664 8.90719
H 0.48985 -10.1647 8.7025
H -0.852631 -9.38656 8.19377
O -9.94764 -8.93653 2.71919
H -9.56044 -8.50442 1.90472
H -9.93781 -9.93005 2.606
O 13.0753 -6.34576 -12.8142
H 13.9412 -6.69142 -13.1758
H 12.434 -6.19991 -13.5675
O -14.402 5.40579 10.0989
H -14.3814 6.05884 10.8559
H -13.585 5.52398 9.53447
O -6.02061 -5.646 -11.5998
H -5.99359 -6.10984 -12.4853
H -5.9702 -4.65714 -11.7398
O 10.4459 6.62041 -5.19791
H 9.50662 6.31525 -5.04074
H 10.6759 6.50692 -6.16446
O 5.28466 -6.6537 12.3796
H 6.2385 -6.36423 12.2997
H 5.24834 -7.58657 12.7379
O -12.688 14.7753 13.7421
H -13.5799 14.4517 14.058
H -12.0753 14.8811 14.5253
O -2.66221 9.51921 -7.45399
H -3.19388 9.49217 -6.60748
H -1.7137 9.26885 -7.26
O -4.97711 12.5536 4.27128
H -5.4481 11.7787 4.69275
H -5.28798 13.4038 4.69621
O 14.8672 1.97333 1.88339
H 15.0329 2.91316 1.58463
H -15.0666 1.33802 1.20035
O 0.52995 -12.5048 -14.6957
H 1.24919 -11.9734 -14.2481
H 0.0580468 -11.9301 14.9299
O 5.73042 -2.34747 5.05263
H 5.05551 -3.05943 5.24652
H 5.52568 -1.53611 5.60015
O 12.872 -12.8446 -6.46125
H 12.9439 -13.8418 -6.44196
H 13.5941 -12.4473 -5.8949
O -8.03765 5.90582 4.30595
H -7.49371 5.96516 5.14298
H -8.356 4.96609 4.18125
O -15.0583 -4.07907 -1.12582
H -15.0489 -4.55958 -0.248886
H -14.5288 -4.59879 -1.79634
O -6.56347 -2.61857 -5.10688
H -7.5308 -2.81859 -5.26262
H -6.06261 -3.4745 -4.97836
O -11.0665 -14.9137 1.67495
H -10.9792 14.6397 2.34098
H -10.5046 -15.1181 0.873419
O 1.97165 11.7902 -13.1841
H 1.03763 11.9923 -12.8895
H 2.13193 12.1945 -14.0846
O 10.4737 -9.21015 -6.17366
H 11.2048 -8.52826 -6.19695
H 9.83801 -9.04312 -6.9273
O -5.47896 -5.08464 -5.01798
H -5.48861 -6.02037 -5.37055
H -5.36246 -5.10379 -4.02498
O 6.71376 13.6908 -9.95088
H 6.5623 13.0652 -10.7162
H 7.65758 13.6048 -9.63183
O -14.8242 -9.68437 -9.52257
H -14.1881 -9.07744 -9.99903
H -14.5768 -10.636 -9.70484
O -12.3127 1.68503 4.04894
H -12.0655 0.904042 3.47539
H -13.0366 1.41613 4.68423
O -8.21804 14.3763 10.9086
H -8.26874 14.5061 11.8988
H -8.16192 -15.0268 10.4581
O -3.7663 -13.8583 4.01362
H -4.00444 -13.8531 3.0424
H -4.42613 -14.4175 4.5156
O 13.4884 9.47586 6.98777
H 13.9787 8.60697 7.05534
H 13.535 9.81261 6.04733
O 4.26011 9.05529 -14.9714
H 4.58085 9.65973 14.5935
H 4.71528 9.2964 -14.1143
O -11.3743 -4.1976 -14.4163
H -11.4892 -5.12992 -14.7592
H -10.4441 -4.08301 -14.0675
O 14.2553 -14.7776 3.38996
H 14.1402 -14.7601 4.38316
H -15.071 -14.8967 3.16859
O -3.47349 7.47602 -14.6253
H -3.39834 6.53692 -14.9606
H -2.73507 8.02823 -15.0123
O -14.9429 2.61304 -6.9524
H -14.698 3.56605 -7.13077
H -14.5182 2.02531 -7.64106
O -3.70581 4.80545 10.5434
H -3.63316 5.61424 11.127
H -2.78982 4.48923 10.2965
O -13.3343 -14.4774 3.13774
H -12.8053 -14.3095 3.96955
H -12.7113 -14.5929 2.36409
O 9.07469 -5.87894 9.59921
H 9.00092 -6.85281 9.38447
H 8.94977 -5.3431 8.76419
O -12.7439 -11.2923 6.36087
H -13.2082 -11.491 5.49777
H -13.1482 -10.4778 6.77699
O -1.0122 -0.765387 10.7438
H -0.338446 -1.13592 11.3831
H -0.725313 -0.96193 9.80619
O -13.2986 -0.811207 6.7792
H -13.4362 0.0923146 7.18506
H -13.9527 -0.945285 6.03477
O 5.28529 -14.0354 -7.2821
H 4.42177 -14.2175 -6.81181
H 5.98864 -14.6589 -6.94077
O -10.9775 2.55032 -6.03328
H -10.1101 2.07088 -6.16673
H -11.1661 2.6318 -5.05463
O 10.0363 -2.26936 -2.09279
H 10.0536 -1.86889 -3.00893
H 9.30902 -2.95386 -2.04196
O -13.0087 10.0451 -8.53985
H -13.9676 9.77548 -8.62769
H -12.4754 9.62343 -9.27315
O 5.21572 7.19435 4.82114
H 5.00221 6.94192 5.7649
H 4.46074 7.72785 4.43986
O 3.41913 4.12557 -7.00574
H 4.01095 4.4186 -7.75665
H 2.68874 4.79612 -6.87584
O 10.4736 -11.9311 -5.28251
H 10.1623 -11.1089 -5.75909
H 11.2127 -12.3584 -5.80307
O 13.7396 -10.3135 12.5779
H 13.8082 -11.2093 12.1387
H 13.4333 -10.4281 13.5229
O -7.6709 -14.3712 -4.37301
H -6.96695 -14.9027 -4.84419
H -8.4605 -14.2556 -4.97565
O 13.8947 -0.106299 11.6608
H 12.9841 0.13361 11.9972
H 14.3767 -0.640112 12.3556
O -14.8279 13.7478 9.02144
H -14.7234 13.5182 9.9891
H -14.925 14.7381 8.92242
O 11.6275 9.6532 2.84609
H 11.3472 8.76283 3.2048
H 11.3956 9.70929 1.87496
O -5.3148 14.6541 -5.78065
H -4.82465 13.7838 -5.73153
H -4.75384 -14.9182 -5.37533
O 1.81626 8.52233 9.21997
H 2.09332 7.67603 8.76501
H 1.74697 9.25656 8.54462
O 14.3465 4.62629 7.35161
H 14.888 4.72577 6.51678
H 14.8645 4.9827 8.12925
O -5.93821 -9.82264 11.378
H -6.91512 -9.92823 11.5637
H -5.61173 -10.609 10.8536
O 1.02234 -4.8212 -10.7362
H 1.76202 -5.49081 -10.8031
H 0.211157 -5.17284 -11.2035
O -2.93761 -6.25043 14.4002
H -2.85848 -6.93187 15.1277
H -3.24133 -5.38086 14.7895
O -8.32324 2.25957 11.8416
H -8.92114 2.62471 12.5552
H -8.87405 1.7807 11.1581
O -10.9636 -5.45353 -0.26371
H -10.4522 -5.53962 -1.11875
H -10.4456 -4.88917 0.379075
O 0.225623 3.94284 5.19773
H -0.689659 3.70137 5.52013
H 0.171864 4.26505 4.25259
O 12.1301 -13.5545 -10.3379
H 11.2112 -13.5544 -10.7324
H 12.2829 -12.6958 -9.84875
O 2.11158 -7.60124 10.0316
H 1.22214 -8.0562 10.0753
H 2.72083 -8.11746 9.4297
O 5.36058 3.04061 9.70409
H 6.27603 3.34801 9.44439
H 5.28686 3.0182 10.7011
O 10.6479 -6.67055 -2.15822
H 10.237 -6.4277 -3.03696
H 10.5569 -5.90263 -1.52417
O 8.11185 7.81287 5.32307
H 7.25599 7.82471 4.80601
H 7.94408 7.44314 6.23693
O -3.07431 -8.80632 -14.6381
H -2.9828 -8.57779 -13.6689
H -3.0518 -9.79979 -14.7499
O 3.6443 -13.9231 10.138
H 4.56379 -14.0709 9.77374
H 3.0497 -14.6767 9.85796
O -5.94418 -14.8317 8.06382
H -5.58499 14.5473 8.24692
H -5.95879 -14.3033 8.91272
O -14.7932 -5.17895 -8.90893
H 14.8643 -4.55567 -8.4549
H -14.5161 -4.79048 -9.78774
O 11.5738 10.2803 -0.30818
H 10.5943 10.0929 -0.234754
H 12.0878 9.44028 -0.134263
O 4.87492 10.815 -5.95796
H 4.91206 11.7533 -5.61403
H 5.48719 10.2376 -5.41788
O 1.53014 -11.3589 -5.25528
H 0.80443 -11.0018 -4.66723
H 1.24176 -11.3042 -6.21123
O 8.13504 1.21348 -1.86745
H 8.55064 0.864746 -2.70748
H 8.5516 0.763242 -1.07766
O -1.55451 -5.81445 -5.94558
H -1.83657 -5.10738 -5.29712
H -0.957413 -5.41153 -6.6392
O 12.6861 -9.23641 3.33363
H 12.9274 -8.73142 4.16232
H 12.7385 -10.2185 3.51462
O 8.31385 -2.20855 6.51642
H 8.6819 -1.35277 6.15289
H 7.53118 -2.49595 5.96433
O -4.40631 14.9775 -8.42889
H -4.6369 15.0208 -7.45681
H -4.86008 14.1891 -8.84427
O 3.21512 -13.9435 -12.5341
H 3.7257 -14.2436 -13.3398
H 2.95612 -12.9837 -12.642
O -13.8363 -9.25209 4.63647
H -14.6842 -8.80493 4.92111
H -14.0532 -10.0915 4.13806
O 10.9874 -5.26161 1.46186
H 9.99019 -5.29752 1.39644
H 11.3628 -4.87279 0.62052
O -8.93916 7.598 0.987373
H -8.06629 7.41088 1.43801
H -9.48699 6.76182 0.961637
O 1.9787 -6.10331 -6.1705
H 2.7868 -5.56462 -5.93223
H 1.46595 -5.63469 -6.88986
O -5.82944 -4.48976 10.8794
H -6.81724 -4.54522 11.0249
H -5.50274 -5.34635 10.48
O -14.2524 7.65367 7.28503
H -13.8911 8.54333 7.56416
H -13.5777 7.18345 6.71613
O -11.4482 8.9157 -11.6726
H -11.4373 7.94802 -11.4207
H -11.5625 9.00119 -12.6624
O 4.16167 11.6006 -11.3927
H 4.7181 10.9959 -11.9626
H 3.37469 11.9232 -11.9187
O 13.6504 -7.56888 5.49168
H 13.6274 -7.65966 6.48728
H 13.7793 -6.60776 5.24751
O 9.95712 13.408 4.56405
H 10.0413 12.4328 4.76857
H 10.7218 13.9025 4.97723
O 12.7356 12.615 0.47039
H 13.0271 12.732 -0.478992
H 12.132 11.8206 0.538259
O -10.1226 -14.4676 -5.6551
H -10.1214 14.9565 -6.148
H -10.9183 -13.9288 -5.93189
O -13.6042 -10.5796 -5.6887
H -14.3426 -9.90543 -5.70307
H -12.7394 -10.1317 -5.91557
O -11.446 1.51579 -1.3167
H -11.6606 0.56112 -1.52307
H -10.4623 1.61095 -1.16432
O -1.11152 11.2099 13.6553
H -1.81764 11.7969 14.0512
H -0.218795 11.6497 13.7536
O 12.5118 0.239498 2.37025
H 12.5919 -0.630358 2.857
H 13.4188 0.542672 2.07803
O -10.3505 1.41329 9.93604
H -10.3269 0.677587 9.25915
H -11.177 1.32797 10.4924
O 10.9916 1.03337 6.39368
H 10.1853 0.479445 6.18619
H 10.9276 1.37743 7.33044
O 1.2916 7.48509 5.40615
H 0.85597 8.02943 4.68928
H 1.83134 6.75433 4.98822
O 13.578 4.63942 14.6135
H 12.7906 4.07021 14.8501
H 14.102 4.19755 13.8854
O 8.6626 3.26067 -12.0781
H 7.68195 3.34341 -11.9007