LAMMPS (15 May 2015)
Reading data file ...
  triclinic box = (-0.107635 -0.0404339 -0.357111) to (41.3876 35.9384 29.5551) with tilt (-0.0672341 -17.0362 -0.0417078)
  5 by 4 by 3 MPI processor grid
  reading atoms ...
  4560 atoms
  reading velocities ...
  4560 velocities
  scanning bonds ...
  3 = max bonds/atom
  scanning angles ...
  3 = max angles/atom
  scanning dihedrals ...
  8 = max dihedrals/atom
  scanning impropers ...
  1 = max impropers/atom
  reading bonds ...
  5040 bonds
  reading angles ...
  7200 angles
  reading dihedrals ...
  10560 dihedrals
  reading impropers ...
  2400 impropers
Finding 1-2 1-3 1-4 neighbors ...
 Special bond factors lj:   0          0          0         
 Special bond factors coul: 0          0          0         
  4 = max # of 1-2 neighbors
  8 = max # of 1-3 neighbors
  20 = max # of 1-4 neighbors
  16 = max # of special neighbors
4560 atoms in group all
720 atoms in group C
480 atoms in group S
1920 atoms in group H
720 atoms in group Si
240 atoms in group Na
240 atoms in group Ba
240 atoms in group O
4560 atoms in group naphthalene
1200 atoms in group fixed
960 atoms in group CO
Setting atom values ...
  720 settings made for charge
Setting atom values ...
  720 settings made for charge
Setting atom values ...
  1920 settings made for charge
Setting atom values ...
  480 settings made for charge
Setting atom values ...
  240 settings made for charge
Setting atom values ...
  240 settings made for charge
Setting atom values ...
  240 settings made for charge
Finding 1-2 1-3 1-4 neighbors ...
 Special bond factors lj:   0          0          0.5       
 Special bond factors coul: 0          0          0.5       
  4 = max # of 1-2 neighbors
  8 = max # of 1-3 neighbors
  20 = max # of 1-4 neighbors
  16 = max # of special neighbors
PPPM initialization ...
  G vector (1/distance) = 0.246499
  grid = 16 16 20
  stencil order = 5
  estimated absolute RMS force accuracy = 0.00242397
  estimated relative force accuracy = 7.2997e-06
  using double precision FFTs
  3d grid and FFT values/proc = 1053 112
Neighbor list info ...
  4 neighbor list requests
  update every 1 steps, delay 0 steps, check yes
  master list distance cutoff = 12
Setting up run ...
Memory usage per processor = 13.288 Mbytes
Step Temp Density PotEng E_vdwl E_tail E_coul E_long Press Volume Xy Xz Yz E_mol E_bond E_angle E_dihed 14[1] 14[2] 14[3] msd[4] msd2[4] msd3[4] msd4[4] naphthal Cella Cellb Cellc CellAlpha CellBeta CellGamma 27[2] 27[3] 28[1] 28[2] 28[3] 
       0          298    1.2509986    2087.5869   -1173.1339   -211.49952    2070.8667    -2308.979    790.88859    44657.537 -0.067234084   -17.036218 -0.041707817     3498.833    1521.0094     935.4334    889.67826    28.379601    18.846571    14.337846 2.3535127e-29 2.3910021e-29 2.7538641e-29 3.294809e-29          298     41.49527    35.978931    34.423473    90.016431    119.66323    90.107069    18.846182    14.337739    28.379557    18.849013    14.339638 
    1000    295.14795    1.2509986    1987.6619   -1219.2875   -211.49952    2071.0696   -2309.8559    777.33296    44657.537 -0.067234084   -17.036218 -0.041707817    3445.7357     1537.424    886.50682    873.61677    28.379437    18.845643    14.337292  0.037491041  0.037480302  0.038328383  0.037836797    295.14795     41.49527    35.978931    34.423473    90.016431    119.66323    90.107069    18.844763    14.334834    28.382871    18.846711    14.317837 
    2000    297.66059    1.2509986    1994.4758   -1206.4697   -211.49952    2076.6012   -2309.4655    1747.0651    44657.537 -0.067234084   -17.036218 -0.041707817    3433.8098    1517.2157     899.3551    865.94699    28.379111    18.846174    14.337175  0.037990474  0.037985909    0.0369791  0.036957295    297.66059     41.49527    35.978931    34.423473    90.016431    119.66323    90.107069    18.847815    14.337162    28.375747    18.851128    14.337959 
    3000    299.64535    1.2509986    1964.2433   -1262.5069   -211.49952    2076.9618   -2309.3619   -622.55017    44657.537 -0.067234084   -17.036218 -0.041707817    3459.1504    1552.6951    892.10419    860.71526    28.379102    18.845936    14.337785  0.040383572  0.040376259  0.043536874  0.043481688    299.64535     41.49527    35.978931    34.423473    90.016431    119.66323    90.107069    18.846168    14.336839    28.377889    18.841776    14.339451 
    4000    297.43311    1.2509986    1999.9012    -1237.907   -211.49952    2071.3312   -2309.8846   -2947.3917    44657.537 -0.067234084   -17.036218 -0.041707817    3476.3616    1553.9638    929.43712    848.17331    28.378799    18.846154     14.33753  0.037572885  0.037572559  0.041373875  0.041271622    297.43311     41.49527    35.978931    34.423473    90.016431    119.66323    90.107069    18.846059    14.338098    28.388923    18.846148    14.337126 
    5000    292.36419    1.2509986    2004.9524   -1259.3731   -211.49952    2072.9735   -2309.7793   -1842.2768    44657.537 -0.067234084   -17.036218 -0.041707817    3501.1313    1581.1394    916.55913    855.73457    28.380599    18.845995    14.338181  0.039400634  0.039400392  0.041582466  0.041579272    292.36419     41.49527    35.978931    34.423473    90.016431    119.66323    90.107069    18.846376      14.3378    28.379597    18.850524    14.338685 
    6000    301.21106    1.2509986    2087.0729   -1245.6562   -211.49952    2068.7653   -2309.7108    -1899.815    44657.537 -0.067234084   -17.036218 -0.041707817    3573.6746     1570.065    985.16354    863.81483     28.38068    18.846076    14.338076   0.03843988   0.03843686  0.043406287  0.043344148    301.21106     41.49527    35.978931    34.423473    90.016431    119.66323    90.107069    18.844975    14.338428    28.382197    18.842854     14.34379 
    7000     297.3973    1.2509986    2001.2734   -1254.0702   -211.49952    2072.5958   -2309.5811   -571.83601    44657.537 -0.067234084   -17.036218 -0.041707817    3492.3289    1524.6854    933.56614    878.89493    28.379099    18.846264    14.336883  0.040748128  0.040739742  0.041216303  0.041104032     297.3973     41.49527    35.978931    34.423473    90.016431    119.66323    90.107069    18.846965    14.335199    28.384348     18.84891    14.330188 
    8000    298.05627    1.2509986    2007.4783   -1251.1146   -211.49952    2073.1633   -2309.9031   -2478.5319    44657.537 -0.067234084   -17.036218 -0.041707817    3495.3327     1580.301    926.74153     837.6448    28.380932    18.846192    14.337758  0.039167526  0.039166319   0.03983524   0.03980443    298.05627     41.49527    35.978931    34.423473    90.016431    119.66323    90.107069    18.845728    14.337525    28.376314    18.844575    14.338861 
    9000    297.99582    1.2509986     2075.908   -1227.3213   -211.49952    2069.6269   -2309.8835   -1222.4485    44657.537 -0.067234084   -17.036218 -0.041707817     3543.486    1566.3548    959.63935    866.39372    28.380012    18.846348    14.337456  0.038131663  0.038127029  0.036812147  0.036796264    297.99582     41.49527    35.978931    34.423473    90.016431    119.66323    90.107069    18.845632    14.338953    28.379164     18.84623    14.342464 
   10000    301.71863    1.2509986    2074.3759   -1211.1983   -211.49952    2071.6943   -2309.7356    81.886047    44657.537 -0.067234084   -17.036218 -0.041707817    3523.6155    1565.3937    939.54851    867.24075    28.380944     18.84601    14.338127  0.040243425  0.040242513  0.045803369  0.045739953    301.71863     41.49527    35.978931    34.423473    90.016431    119.66323    90.107069    18.845965     14.33857    28.372934    18.845718    14.342588 
   11000    300.42667    1.2509986    1954.4366   -1255.3606   -211.49952    2067.9241   -2310.0504    -812.4049    44657.537 -0.067234084   -17.036218 -0.041707817    3451.9234    1542.4955    917.80221    845.93737    28.379407    18.846183    14.337303  0.041621999  0.041618898  0.040531962  0.040514751    300.42667     41.49527    35.978931    34.423473    90.016431    119.66323    90.107069     18.84734    14.337322    28.375667     18.84757    14.339703 
   12000    304.05871    1.2509986     2046.399   -1247.6745   -211.49952    2067.3442   -2310.0394   -2152.3224    44657.537 -0.067234084   -17.036218 -0.041707817    3536.7687     1584.832    949.87561    853.73364    28.380078    18.845921    14.337805   0.03863655    0.0386365  0.036858568  0.036849138    304.05871     41.49527    35.978931    34.423473    90.016431    119.66323    90.107069    18.846049    14.337807    28.380592     18.84995    14.336903 
   13000    297.04809    1.2509986     2019.584   -1228.8792   -211.49952    2073.3164   -2309.8191    354.84945    44657.537 -0.067234084   -17.036218 -0.041707817    3484.9659    1507.7813    963.29177     867.9519    28.381358    18.846407    14.338119  0.039262811  0.039256947  0.037751364  0.037696437    297.04809     41.49527    35.978931    34.423473    90.016431    119.66323    90.107069    18.846102    14.338324    28.384494    18.844255    14.342451 
   14000    301.38857    1.2509986     2041.153   -1242.4925   -211.49952    2071.1285   -2310.4117    -1085.716    44657.537 -0.067234084   -17.036218 -0.041707817    3522.9287    1582.5381    946.84864    847.13038    28.378939    18.846279    14.337386  0.039989156  0.039977185  0.040246829  0.040092148    301.38857     41.49527    35.978931    34.423473    90.016431    119.66323    90.107069    18.845377    14.337031    28.367894    18.844932    14.338218 
   15000    298.44398    1.2509986    2036.2127   -1235.1395   -211.49952    2075.1517    -2309.487   -676.61621    44657.537 -0.067234084   -17.036218 -0.041707817    3505.6875    1537.7642    975.54718    842.58643    28.380141    18.846212    14.337764  0.037702631  0.037702538  0.038281615  0.038246302    298.44398     41.49527    35.978931    34.423473    90.016431    119.66323    90.107069    18.845897    14.337847    28.376744    18.845289    14.343317 
   16000    299.34212    1.2509986    1979.2244   -1238.9604   -211.49952    2072.1813   -2309.8143   -449.54292    44657.537 -0.067234084   -17.036218 -0.041707817    3455.8178    1531.8346    943.24808      831.391    28.379791    18.845741    14.337831  0.038111058     0.038105  0.038196224  0.038078321    299.34212     41.49527    35.978931    34.423473    90.016431    119.66323    90.107069    18.844349     14.33911    28.386256     18.84412    14.346644 
   17000    301.69487    1.2509986    1955.4313   -1266.8705   -211.49952    2072.6217   -2309.5522   -2892.4752    44657.537 -0.067234084   -17.036218 -0.041707817    3459.2322     1539.907    919.66994    847.68082    28.379795     18.84624    14.338068  0.040164353  0.040160216  0.039964077  0.039830641    301.69487     41.49527    35.978931    34.423473    90.016431    119.66323    90.107069    18.844153    14.337731      28.3768    18.839357    14.333929 
   18000    300.99207    1.2509986    1981.1482    -1247.509   -211.49952    2071.8914   -2309.9395   -589.49355    44657.537 -0.067234084   -17.036218 -0.041707817    3466.7053    1569.9336    907.05634     845.4686    28.381112    18.845843    14.338172  0.038288793  0.038285505   0.03696165  0.036914834    300.99207     41.49527    35.978931    34.423473    90.016431    119.66323    90.107069    18.846708    14.339451    28.378224     18.84619    14.345727 
   19000    291.81773    1.2509986         2063   -1229.3316   -211.49952    2068.7787   -2310.7223   -897.55741    44657.537 -0.067234084   -17.036218 -0.041707817    3534.2751    1579.7287    942.06366    863.55676     28.37976    18.846134    14.337708   0.04100143  0.040995581  0.040580254  0.040475136    291.81773     41.49527    35.978931    34.423473    90.016431    119.66323    90.107069     18.84533    14.337889    28.371296    18.844275    14.343437 
   20000    296.13757    1.2509986    1975.4994   -1217.6013   -211.49952    2070.2113   -2309.6386   -1108.5227    44657.537 -0.067234084   -17.036218 -0.041707817    3432.5279    1499.8174    932.24773    850.46438    28.380029    18.845416    14.337662  0.041270277  0.041266564   0.04482137  0.044789444    296.13757     41.49527    35.978931    34.423473    90.016431    119.66323    90.107069    18.844374    14.337404    28.381888    18.844896    14.336549 
   21000    295.75004    1.2509986    2006.7067   -1240.8262   -211.49952    2078.6357   -2309.6483   -480.63311    44657.537 -0.067234084   -17.036218 -0.041707817    3478.5455    1553.0757    904.78559    872.32782    28.380153    18.846112    14.337836  0.037540386   0.03754003  0.035748741   0.03574569    295.75004     41.49527    35.978931    34.423473    90.016431    119.66323    90.107069    18.846397    14.337599    28.380194    18.847548    14.338932 
   22000    297.85035    1.2509986    1998.8598   -1221.1533   -211.49952    2069.2514   -2309.6939   -736.27935    44657.537 -0.067234084   -17.036218 -0.041707817    3460.4555    1549.5625    903.67808    859.98623     28.37964    18.846338    14.337601  0.041204156  0.041203363  0.040427481  0.040365301    297.85035     41.49527    35.978931    34.423473    90.016431    119.66323    90.107069    18.845423    14.337335    28.384884    18.844063     14.33659 
   23000    300.23216    1.2509986    1992.0143    -1233.181   -211.49952     2070.156   -2310.1126    179.38432    44657.537 -0.067234084   -17.036218 -0.041707817    3465.1519    1521.2378    959.67306    838.44376    28.379684    18.846011     14.33784  0.038815301  0.038806908  0.038848885  0.038773673    300.23216     41.49527    35.978931    34.423473    90.016431    119.66323    90.107069    18.846948    14.337037    28.384623     18.84489    14.333934 
   24000    300.02573    1.2509986    2088.9304   -1237.6554   -211.49952     2074.091   -2309.6678   -537.36484    44657.537 -0.067234084   -17.036218 -0.041707817    3562.1626    1614.4905    941.13664    858.89298    28.379506    18.845987     14.33817  0.040248631  0.040240305  0.042015269  0.041906715    300.02573     41.49527    35.978931    34.423473    90.016431    119.66323    90.107069    18.844158     14.33931    28.380075    18.840207    14.345182 
   25000    298.36149    1.2509986    2086.0201   -1235.8083   -211.49952    2075.5913   -2309.7079   -408.66726    44657.537 -0.067234084   -17.036218 -0.041707817     3555.945    1594.5747    965.05007    846.23736    28.378877    18.846103    14.337434  0.038680794  0.038676374  0.038080227  0.038013855    298.36149     41.49527    35.978931    34.423473    90.016431    119.66323    90.107069    18.846069    14.336642    28.374122    18.845459    14.334718 
   26000    292.85099    1.2509986     2094.388   -1248.2854   -211.49952    2073.2636   -2309.6975   -2053.8418    44657.537 -0.067234084   -17.036218 -0.041707817    3579.1073      1583.97    958.03507    887.18926    28.377771    18.845564    14.337243  0.039090039  0.039084171  0.035992365  0.035908953    292.85099     41.49527    35.978931    34.423473    90.016431    119.66323    90.107069    18.845169    14.336774    28.374707    18.844597    14.333283 
   27000    295.42649    1.2509986    2066.1753   -1235.3128   -211.49952    2074.8894   -2309.7888   -292.35695    44657.537 -0.067234084   -17.036218 -0.041707817    3536.3875    1578.1657    887.63614    908.49361    28.380371    18.846311    14.338208  0.040852272  0.040849887   0.04084106  0.040762815    295.42649     41.49527    35.978931    34.423473    90.016431    119.66323    90.107069    18.847469    14.337143     28.38393    18.847392    14.332122 
   28000    299.35479    1.2509986    1928.6026   -1245.7284   -211.49952    2072.9853   -2309.5954   -870.76155    44657.537 -0.067234084   -17.036218 -0.041707817     3410.941    1510.2347    914.25784    839.15611    28.379645    18.846315    14.338197  0.039490801   0.03948968  0.039930119  0.039875738    299.35479     41.49527    35.978931    34.423473    90.016431    119.66323    90.107069    18.846451    14.337076    28.380055    18.847341    14.332473 
   29000    300.48123    1.2509986    1957.7708   -1236.2503   -211.49952    2071.5203   -2309.8084    1058.7736    44657.537 -0.067234084   -17.036218 -0.041707817    3432.3093     1530.367    922.59856    834.85946    28.380873    18.846246    14.337827  0.038645623  0.038643289  0.040431304  0.040419514    300.48123     41.49527    35.978931    34.423473    90.016431    119.66323    90.107069    18.845192    14.338391    28.376164    18.848641    14.340018 
   30000    302.44327    1.2509986    2072.7295   -1252.3394   -211.49952    2073.4629   -2309.8439   -1558.8086    44657.537 -0.067234084   -17.036218 -0.041707817    3561.4498    1602.6196     949.1949    861.04923    28.380718    18.846085    14.337873  0.040143345  0.040142734  0.041575451  0.041534274    302.44327     41.49527    35.978931    34.423473    90.016431    119.66323    90.107069    18.845763    14.337888    28.380316    18.844381    14.335263 
   31000    293.99429    1.2509986    2096.1238   -1219.2448   -211.49952    2073.2025   -2310.1651    86.500157    44657.537 -0.067234084   -17.036218 -0.041707817    3552.3311    1547.3676    969.49978    882.71402     28.37968    18.846592    14.337304  0.039775568  0.039774293  0.038150264  0.038071613    293.99429     41.49527    35.978931    34.423473    90.016431    119.66323    90.107069    18.846207    14.336839    28.374035    18.845281    14.333787 
   32000    296.88761    1.2509986    2091.0704   -1227.7103   -211.49952    2068.7378   -2310.0455   -1426.3758    44657.537 -0.067234084   -17.036218 -0.041707817    3560.0884    1599.1817    938.11934     868.7143    28.380177    18.845829    14.337853  0.040785971  0.040784765  0.042154321  0.042086272    296.88761     41.49527    35.978931    34.423473    90.016431    119.66323    90.107069    18.845839    14.336831    28.376387    18.847338    14.332208 
   33000    296.56551    1.2509986    1986.2335   -1262.2661   -211.49952    2078.6845   -2309.1167     -1358.94    44657.537 -0.067234084   -17.036218 -0.041707817    3478.9318    1524.0318    939.70313    862.91698    28.379889    18.846002    14.338043   0.03972071  0.039716086  0.039813595  0.039765573    296.56551     41.49527    35.978931    34.423473    90.016431    119.66323    90.107069    18.845515    14.339162    28.383109    18.844454    14.343462 
   34000     300.8913    1.2509986    1998.1566   -1247.6461   -211.49952    2071.1116   -2309.7708   -1920.2325    44657.537 -0.067234084   -17.036218 -0.041707817    3484.4619    1570.8481    917.48772     845.0409    28.380434    18.845538    14.337565  0.040758199  0.040750587  0.041296769  0.041230968     300.8913     41.49527    35.978931    34.423473    90.016431    119.66323    90.107069    18.845241    14.335903    28.374761    18.843603    14.335959 
   35000    302.99151    1.2509986    2051.0325   -1261.8476   -211.49952    2078.6624   -2309.9518   -2235.1519    44657.537 -0.067234084   -17.036218 -0.041707817    3544.1695    1554.2139    944.11353    895.65101    28.380161    18.846845    14.337751  0.039735399  0.039733804    0.0379536  0.037933491    302.99151     41.49527    35.978931    34.423473    90.016431    119.66323    90.107069    18.847422    14.337656    28.381622    18.851591    14.342671 
   36000    297.01234    1.2509986    1984.3635   -1247.6426   -211.49952    2070.9502   -2310.1513    -2575.594    44657.537 -0.067234084   -17.036218 -0.041707817    3471.2073     1589.278    902.46924    833.40623    28.378904    18.846653    14.337135  0.038897011  0.038889176  0.037960434   0.03790891    297.01234     41.49527    35.978931    34.423473    90.016431    119.66323    90.107069    18.845231     14.33677    28.374092    18.844437    14.340489 
   37000    300.49217    1.2509986     2107.589   -1228.0158   -211.49952    2067.0541   -2309.9981   -909.46887    44657.537 -0.067234084   -17.036218 -0.041707817    3578.5488    1577.4728    972.99574    873.74325    28.379867    18.846017    14.337195  0.039798739  0.039795736  0.042049502  0.041980745    300.49217     41.49527    35.978931    34.423473    90.016431    119.66323    90.107069    18.846273    14.336011     28.38053    18.851596    14.331819 
   38000    296.76419    1.2509986    1975.9506    -1253.083   -211.49952    2076.9126   -2309.5861   -1237.2679    44657.537 -0.067234084   -17.036218 -0.041707817    3461.7071    1558.4449    949.57528    811.60687    28.380462    18.845999    14.337566  0.038941065   0.03892887  0.038788533  0.038575476    296.76419     41.49527    35.978931    34.423473    90.016431    119.66323    90.107069    18.846397    14.337349    28.393317    18.852903    14.336708 
   39000    300.26732    1.2509986    2035.0044   -1232.2968   -211.49952    2070.6275   -2310.0186   -1149.9241    44657.537 -0.067234084   -17.036218 -0.041707817    3506.6923    1553.5117    939.45358    859.61234    28.378827    18.846116    14.337898   0.03840348  0.038398606  0.037397375  0.037314711    300.26732     41.49527    35.978931    34.423473    90.016431    119.66323    90.107069    18.844405    14.337189    28.373716    18.844173    14.334625 
   40000    306.55013    1.2509986    2007.0815   -1237.2509   -211.49952    2072.1876   -2309.7439   -479.35115    44657.537 -0.067234084   -17.036218 -0.041707817    3481.8887    1570.4359    901.96326    860.30387    28.379387    18.845822    14.337277  0.039494003  0.039485148  0.039937119  0.039742424    306.55013     41.49527    35.978931    34.423473    90.016431    119.66323    90.107069    18.844481    14.338337     28.39318    18.848542    14.342617 
   41000    298.96506    1.2509986    1935.3115   -1251.2153   -211.49952    2068.7609   -2310.1168   -632.00686    44657.537 -0.067234084   -17.036218 -0.041707817    3427.8827    1526.1678    893.50862    858.07597    28.379452    18.845724    14.337808  0.038573204  0.038570656   0.04029259  0.040235957    298.96506     41.49527    35.978931    34.423473    90.016431    119.66323    90.107069    18.845992    14.338843    28.382433    18.846619    14.346167 
   42000    299.96079    1.2509986    2065.4136   -1264.1525   -211.49952    2071.5744   -2310.2763   -1243.8378    44657.537 -0.067234084   -17.036218 -0.041707817     3568.268    1609.7243    922.88633    884.29304    28.380001    18.846532    14.337972  0.039437337  0.039436713  0.040406802  0.040319827    299.96079     41.49527    35.978931    34.423473    90.016431    119.66323    90.107069    18.846818    14.337308    28.384054    18.850101    14.331541 
   43000    297.66638    1.2509986    2049.1934   -1238.2064   -211.49952     2076.449   -2309.6528   -1785.8654    44657.537 -0.067234084   -17.036218 -0.041707817    3520.6037    1551.5616    933.61179    876.00937    28.379793    18.846116     14.33743  0.038912642  0.038910213  0.040220548  0.040142892    297.66638     41.49527    35.978931    34.423473    90.016431    119.66323    90.107069    18.845231    14.337648    28.386095    18.845795    14.334684 
   44000    304.66372    1.2509986    2114.8655   -1256.5019   -211.49952    2078.4772   -2309.3446    -1666.738    44657.537 -0.067234084   -17.036218 -0.041707817    3602.2348    1599.9208    986.40044    867.62412    28.380028    18.846309    14.338183  0.039135792  0.039132217  0.040342261  0.040245336    304.66372     41.49527    35.978931    34.423473    90.016431    119.66323    90.107069    18.844482    14.337166    28.380154    18.842336    14.332428 
   45000    292.83561    1.2509986    2093.9119   -1241.5578   -211.49952    2072.9753   -2310.1727   -1031.2498    44657.537 -0.067234084   -17.036218 -0.041707817    3572.6669    1614.1287    945.71709    864.77896    28.380438    18.846226    14.337676  0.039089516  0.039087807  0.037780613  0.037734709    292.83561     41.49527    35.978931    34.423473    90.016431    119.66323    90.107069    18.847319    14.337688    28.378447     18.85521    14.337134 
   46000     290.2895    1.2509986    2010.1229   -1227.5798   -211.49952     2075.935    -2309.746    12.391286    44657.537 -0.067234084   -17.036218 -0.041707817    3471.5137    1514.7683      945.737    863.27426    28.379083    18.845739    14.337869  0.038997993  0.038990626  0.039818626  0.039717176     290.2895     41.49527    35.978931    34.423473    90.016431    119.66323    90.107069    18.846828    14.336439    28.372044    18.849621    14.332956 
   47000    302.56211    1.2509986    2019.6988   -1248.2381   -211.49952    2075.2509    -2309.887   -689.09954    44657.537 -0.067234084   -17.036218 -0.041707817    3502.5731    1548.6796    875.48255    914.23367     28.38061    18.845699    14.338289   0.04065662   0.04065252  0.040896597   0.04076507    302.56211     41.49527    35.978931    34.423473    90.016431    119.66323    90.107069    18.846615    14.338384    28.368727    18.845431    14.340825 
   48000    303.38084    1.2509986    1963.4425    -1235.777   -211.49952    2068.0448   -2309.6418    898.56538    44657.537 -0.067234084   -17.036218 -0.041707817    3440.8165    1480.3104    950.60207     856.7873     28.37922    18.845833    14.337604  0.040345066  0.040343443   0.03933977  0.039308391    303.38084     41.49527    35.978931    34.423473    90.016431    119.66323    90.107069    18.847406    14.337774    28.384755    18.846965    14.339243 
   49000    298.93234    1.2509986    1986.5843   -1241.3319   -211.49952    2077.9948   -2309.5087   -686.10007    44657.537 -0.067234084   -17.036218 -0.041707817    3459.4301    1535.1456    897.72007    873.60553    28.380211    18.845872    14.337907  0.037744823  0.037743373  0.035957791  0.035914952    298.93234     41.49527    35.978931    34.423473    90.016431    119.66323    90.107069    18.846739    14.337192    28.377885    18.853312    14.334995 
   50000    307.44107    1.2509986     2004.596    -1272.493   -211.49952    2077.4633   -2309.5048   -4351.3419    44657.537 -0.067234084   -17.036218 -0.041707817    3509.1304    1632.7389    900.76897     831.7479    28.380171    18.846309    14.338022  0.037617561  0.037610222  0.040075878  0.040011261    307.44107     41.49527    35.978931    34.423473    90.016431    119.66323    90.107069    18.846028    14.337081    28.373341    18.849282    14.334548 
   51000    293.53687    1.2509986    2053.6162   -1242.0934   -211.49952    2073.7967   -2309.8263   -1130.5119    44657.537 -0.067234084   -17.036218 -0.041707817    3531.7392    1535.6431    947.21692     892.8157    28.380439    18.845944    14.337754  0.039898029  0.039894511  0.036635109  0.036623715    293.53687     41.49527    35.978931    34.423473    90.016431    119.66323    90.107069    18.847674     14.33785    28.381812    18.851523    14.339587 
   52000     294.6325    1.2509986    2053.0746   -1232.0073   -211.49952    2076.3638   -2309.7989   -1007.4391    44657.537 -0.067234084   -17.036218 -0.041707817     3518.517    1564.5702    926.13539    873.53829    28.377923    18.846104    14.337222   0.03676493  0.036756002   0.03688618  0.036732642     294.6325     41.49527    35.978931    34.423473    90.016431    119.66323    90.107069    18.845921    14.338893    28.391267    18.844986     14.33921 
   53000    295.32911    1.2509986    2015.9494   -1250.7544   -211.49952    2074.7457   -2310.0916     1086.193    44657.537 -0.067234084   -17.036218 -0.041707817    3502.0496    1548.8064    910.09843    888.16653    28.379077    18.846557    14.337462  0.039923277  0.039921989  0.037686954  0.037589854    295.32911     41.49527    35.978931    34.423473    90.016431    119.66323    90.107069    18.846389    14.338656    28.386981    18.846883    14.345757 
   54000    298.15169    1.2509986    2017.8367   -1230.3384   -211.49952    2074.3868   -2309.9852   -1240.1705    44657.537 -0.067234084   -17.036218 -0.041707817    3483.7734    1583.0541    894.55152    858.32564    28.380336    18.846014    14.337312  0.039396566  0.039395884  0.039628963  0.039543545    298.15169     41.49527    35.978931    34.423473    90.016431    119.66323    90.107069    18.845406    14.337978    28.384899    18.841487    14.340122 
   55000    295.83707    1.2509986    1929.6973   -1237.2213   -211.49952    2072.3742   -2310.0555   -662.82866    44657.537 -0.067234084   -17.036218 -0.041707817    3404.5999    1509.1695    917.64632    833.99897    28.379205    18.845493     14.33766  0.039973216  0.039972196  0.037653845  0.037507089    295.83707     41.49527    35.978931    34.423473    90.016431    119.66323    90.107069    18.845408    14.337092    28.380068    18.841597    14.330073 
   56000     299.2108    1.2509986    2044.7003   -1222.4399   -211.49952    2067.1018   -2309.8858    -888.9827    44657.537 -0.067234084   -17.036218 -0.041707817    3509.9242    1577.9463    916.58734    865.89758    28.378955    18.846027    14.337286  0.039365553  0.039351588  0.040490988  0.040377036     299.2108     41.49527    35.978931    34.423473    90.016431    119.66323    90.107069    18.845467    14.336245    28.372185    18.842068    14.336265 
   57000    300.92152    1.2509986    2111.9402   -1228.4291   -211.49952    2077.8168   -2309.6963   -1075.1145    44657.537 -0.067234084   -17.036218 -0.041707817    3572.2488     1587.038    933.38195    895.84591    28.380285     18.84579     14.33764  0.039032276  0.039032197  0.041519842  0.041462415    300.92152     41.49527    35.978931    34.423473    90.016431    119.66323    90.107069    18.846004    14.337567    28.376144    18.844815    14.334331 
   58000    298.51924    1.2509986    2035.9918   -1253.0368   -211.49952    2073.1401   -2309.8226   -213.51513    44657.537 -0.067234084   -17.036218 -0.041707817     3525.711    1558.1004    937.46183     877.8928    28.380942    18.846052    14.337578  0.040499445  0.040494472  0.041782191   0.04152071    298.51924     41.49527    35.978931    34.423473    90.016431    119.66323    90.107069    18.845495    14.335846    28.387423    18.843418    14.326665 
   59000    296.77682    1.2509986     2044.254   -1219.3835   -211.49952    2072.0658   -2309.6271    787.68322    44657.537 -0.067234084   -17.036218 -0.041707817    3501.1988    1544.8866    956.58796    856.14213    28.379059    18.846206    14.337602  0.039163769  0.039161426  0.039736516  0.039681381    296.77682     41.49527    35.978931    34.423473    90.016431    119.66323    90.107069    18.847538    14.337222    28.385084    18.850731    14.334987 
   60000    295.82286    1.2509986    2098.7401   -1245.9034   -211.49952    2075.5446   -2309.5421   -1439.7899    44657.537 -0.067234084   -17.036218 -0.041707817     3578.641    1592.6154    962.24566    871.51393     28.38046    18.846682    14.338174  0.040571193   0.04056942  0.043067502   0.04305156    295.82286     41.49527    35.978931    34.423473    90.016431    119.66323    90.107069    18.847514    14.337738    28.376686    18.851297    14.338062 
   61000    297.25688    1.2509986    1936.7358     -1258.29   -211.49952    2071.7873   -2310.1763   -2609.7153    44657.537 -0.067234084   -17.036218 -0.041707817    3433.4148    1530.5611    927.66908    832.62152    28.379489    18.845853    14.337615  0.038894507  0.038892386  0.039166257  0.039064486    297.25688     41.49527    35.978931    34.423473    90.016431    119.66323    90.107069    18.844788    14.337553    28.374537    18.842331    14.333988 
   62000    303.61777    1.2509986    1988.8559   -1210.4762   -211.49952    2071.3204   -2309.8984    1185.3815    44657.537 -0.067234084   -17.036218 -0.041707817    3437.9102    1501.6262    942.52374    851.18334    28.380759    18.846099     14.33802  0.037925368  0.037920392  0.041039557  0.040984283    303.61777     41.49527    35.978931    34.423473    90.016431    119.66323    90.107069    18.845485    14.338247    28.386637    18.846794    14.339169 
   63000    299.20068    1.2509986    2128.8738   -1238.9399   -211.49952    2073.9889   -2309.0096    -1797.596    44657.537 -0.067234084   -17.036218 -0.041707817    3602.8344    1584.3263    984.72053    881.26326     28.38075     18.84559    14.337775  0.038314681  0.038308014  0.037091975   0.03700934    299.20068     41.49527    35.978931    34.423473    90.016431    119.66323    90.107069    18.843815    14.336925    28.376325    18.843141    14.333497 
   64000    296.95139    1.2509986    2004.0917   -1266.7195   -211.49952    2068.8607    -2309.734   -3404.6081    44657.537 -0.067234084   -17.036218 -0.041707817    3511.6845    1585.9828    917.12039    856.21662    28.380999    18.845598     14.33774  0.039479344  0.039478554  0.040742376  0.040647285    296.95139     41.49527    35.978931    34.423473    90.016431    119.66323    90.107069    18.845331    14.337991     28.38907    18.846948    14.340203 
   65000    302.45188    1.2509986    2030.9949    -1252.334   -211.49952    2071.4751   -2309.9056   -1459.9507    44657.537 -0.067234084   -17.036218 -0.041707817    3521.7595    1561.6712    918.61689    883.20189    28.379432    18.845751    14.337947  0.040104795  0.040102408  0.036498662  0.036454249    302.45188     41.49527    35.978931    34.423473    90.016431    119.66323    90.107069    18.845045    14.336906    28.383552    18.843698    14.339192 
   66000    300.71219    1.2509986    2131.5747   -1222.1191   -211.49952    2073.1881   -2309.7673   -448.78802    44657.537 -0.067234084   -17.036218 -0.041707817     3590.273    1598.4256    957.26325    884.60356    28.380351    18.846068    14.337835  0.040513301  0.040512126  0.040298425  0.040204184    300.71219     41.49527    35.978931    34.423473    90.016431    119.66323    90.107069    18.845659    14.338211    28.377138    18.842359     14.34628 
   67000    301.95133    1.2509986    2091.7493   -1242.9534   -211.49952    2073.1341   -2309.9752   -2145.6362    44657.537 -0.067234084   -17.036218 -0.041707817    3571.5438    1621.3605    929.22922    866.37163    28.379683    18.846481    14.337387  0.038722024  0.038714344  0.041204213  0.041061555    301.95133     41.49527    35.978931    34.423473    90.016431    119.66323    90.107069    18.845838    14.336444    28.369218    18.846508    14.334207 
   68000    301.24765    1.2509986    1977.8607    -1231.006   -211.49952    2075.5991   -2310.2385   -105.17953    44657.537 -0.067234084   -17.036218 -0.041707817    3443.5062    1514.3231    949.34505    832.07279    28.380915    18.846367    14.337857  0.041526055  0.041523286   0.04259375  0.042505798    301.24765     41.49527    35.978931    34.423473    90.016431    119.66323    90.107069    18.847285    14.337713    28.374746    18.852515    14.332389 
   69000    302.35328    1.2509986    2020.3988   -1250.9059   -211.49952    2068.3992   -2310.0439   -2185.4502    44657.537 -0.067234084   -17.036218 -0.041707817    3512.9494    1563.9307    932.43969    862.71331    28.380353    18.845867    14.338288  0.039286649    0.0392849  0.038198665  0.037973463    302.35328     41.49527    35.978931    34.423473    90.016431    119.66323    90.107069    18.845581    14.336736    28.379336    18.840487    14.327291 
   70000    293.43407    1.2509986    2054.2331   -1221.5916   -211.49952    2066.6224   -2310.2189   -880.09048    44657.537 -0.067234084   -17.036218 -0.041707817    3519.4211    1485.8396    949.75816    928.21096     28.38047    18.846783    14.337895  0.039895565  0.039892941  0.041539657  0.041473872    293.43407     41.49527    35.978931    34.423473    90.016431    119.66323    90.107069    18.846776    14.337095    28.376847    18.845821    14.332692 
   71000    290.88317    1.2509986    1985.2555    -1245.252   -211.49952    2075.2452   -2309.6358    86.850555    44657.537 -0.067234084   -17.036218 -0.041707817    3464.8981    1541.4757    923.16195    852.52581    28.379764      18.8465    14.337785   0.03989735  0.039895012  0.036138561  0.036077422    290.88317     41.49527    35.978931    34.423473    90.016431    119.66323    90.107069    18.847321    14.337139     28.38628    18.848955    14.335647 
   72000    293.01541    1.2509986    2130.2152   -1236.5872   -211.49952    2074.8288   -2309.4369   -2285.9258    44657.537 -0.067234084   -17.036218 -0.041707817    3601.4105    1652.2667    950.42861     851.3858    28.379298     18.84624    14.337438  0.040541974   0.04053794  0.038764213  0.038646201    293.01541     41.49527    35.978931    34.423473    90.016431    119.66323    90.107069    18.845385    14.336455    28.375261    18.844675    14.330652 
   73000    297.74067    1.2509986    2087.5523   -1234.6679   -211.49952    2071.4131   -2310.0989   -1158.6617    44657.537 -0.067234084   -17.036218 -0.041707817     3560.906    1588.9518    958.80304    864.29619     28.37992    18.845985    14.337548  0.038756506  0.038750773  0.038224907  0.038057074    297.74067     41.49527    35.978931    34.423473    90.016431    119.66323    90.107069    18.845347     14.33622    28.384736    18.843529    14.329105 
   74000    303.14109    1.2509986    2058.6833   -1251.0447   -211.49952    2067.1424   -2310.0864   -2476.4819    44657.537 -0.067234084   -17.036218 -0.041707817    3552.6721    1611.2046    937.89771    851.40775     28.37932    18.846287    14.337596  0.039033385  0.039032541  0.036167115  0.036090548    303.14109     41.49527    35.978931    34.423473    90.016431    119.66323    90.107069    18.846876    14.337232    28.375693    18.847101    14.332023 
   75000    297.69273    1.2509986    2043.0635   -1255.6904   -211.49952    2074.2153   -2310.2631   -1773.8958    44657.537 -0.067234084   -17.036218 -0.041707817    3534.8016    1545.4418    953.97308    883.23849    28.379965    18.846316    14.337637  0.039971848  0.039968755  0.042440156  0.042383021    297.69273     41.49527    35.978931    34.423473    90.016431    119.66323    90.107069    18.845827    14.337207    28.385252    18.844784    14.337028 
   76000     296.0592    1.2509986    2091.3106   -1226.3118   -211.49952     2077.732   -2308.9943    1070.2122    44657.537 -0.067234084   -17.036218 -0.041707817    3548.8847     1593.758    936.04143    868.76199    28.378749    18.846075    14.337096   0.04082785  0.040825576  0.037974504  0.037832798     296.0592     41.49527    35.978931    34.423473    90.016431    119.66323    90.107069    18.846321    14.336501     28.38093    18.839098    14.333195 
   77000    300.27376    1.2509986     2083.132    -1228.813   -211.49952     2071.939    -2309.955   -622.67507    44657.537 -0.067234084   -17.036218 -0.041707817    3549.9609    1615.4412     944.5944    845.01367    28.378907    18.846476    14.337098  0.040280464  0.040275921  0.044246998  0.044137402    300.27376     41.49527    35.978931    34.423473    90.016431    119.66323    90.107069     18.84649    14.338337    28.389065     18.84489     14.34112 
   78000    297.03752    1.2509986    2025.1836   -1243.9982   -211.49952     2073.768   -2309.5412   -410.95823    44657.537 -0.067234084   -17.036218 -0.041707817     3504.955    1528.4425    961.27085    860.68412    28.380291    18.846047    14.337595  0.038246014  0.038244497  0.039014662  0.038888051    297.03752     41.49527    35.978931    34.423473    90.016431    119.66323    90.107069    18.846556     14.33674    28.378664    18.847517    14.328522 
   79000    293.39221    1.2509986    2029.9647   -1211.1825   -211.49952    2069.8897   -2309.8612   -233.37696    44657.537 -0.067234084   -17.036218 -0.041707817    3481.1187    1511.5104    957.60652     858.9887    28.379639    18.846103    14.337364  0.039322443  0.039319995  0.039863554  0.039759361    293.39221     41.49527    35.978931    34.423473    90.016431    119.66323    90.107069    18.846595    14.336893    28.386723     18.84849    14.332388 
   80000    300.86331    1.2509986     2027.517   -1230.0207   -211.49952    2074.0921   -2309.5638     -440.253    44657.537 -0.067234084   -17.036218 -0.041707817    3493.0094    1579.0273     906.8356    857.64664     28.37939    18.846314    14.337383  0.039546341  0.039543448  0.040847642  0.040835657    300.86331     41.49527    35.978931    34.423473    90.016431    119.66323    90.107069    18.844806    14.336877     28.37973    18.845936    14.338062 
   81000    299.43229    1.2509986    1992.1789     -1240.97   -211.49952    2068.5537    -2309.843    -193.2575    44657.537 -0.067234084   -17.036218 -0.041707817    3474.4381    1561.6952    928.60196    840.61652    28.379053    18.845743    14.337785  0.037668018   0.03766715  0.036482048   0.03647013    299.43229     41.49527    35.978931    34.423473    90.016431    119.66323    90.107069    18.845791    14.337624    28.377362    18.846403    14.339103 
   82000    291.59716    1.2509986    1972.7692   -1245.3761   -211.49952    2075.0294   -2309.6362   -720.38127    44657.537 -0.067234084   -17.036218 -0.041707817    3452.7522    1531.2907    917.90999    857.67795    28.379223    18.845042    14.337557  0.038803656  0.038798071  0.041306699  0.041240792    291.59716     41.49527    35.978931    34.423473    90.016431    119.66323    90.107069    18.844775    14.337525    28.385668    18.847529    14.334504 
   83000    303.72375    1.2509986     2111.984   -1218.7097   -211.49952    2069.9348     -2309.65    -1998.445    44657.537 -0.067234084   -17.036218 -0.041707817     3570.409    1609.7946    968.18391    841.15918    28.378797    18.845961    14.337249  0.037511763  0.037504567  0.037772025  0.037628121    303.72375     41.49527    35.978931    34.423473    90.016431    119.66323    90.107069    18.844366    14.338551    28.374608    18.841494    14.347568 
   84000    294.06666    1.2509986     2061.497   -1240.9304   -211.49952    2075.0336    -2310.027   -1621.4267    44657.537 -0.067234084   -17.036218 -0.041707817    3537.4207    1607.0408    924.28907    860.70524    28.379518     18.84587    14.337276  0.040573419  0.040572053  0.039850277  0.039832146    294.06666     41.49527    35.978931    34.423473    90.016431    119.66323    90.107069    18.847224    14.337729    28.383685    18.848474    14.338745 
   85000    303.47758    1.2509986    2037.0366   -1246.6137   -211.49952    2070.2421   -2309.9153   -2443.2261    44657.537 -0.067234084   -17.036218 -0.041707817    3523.3236    1577.5075    935.39364    863.66467    28.379609    18.846041    14.337567  0.039555508  0.039552999  0.040415768  0.040229239    303.47758     41.49527    35.978931    34.423473    90.016431    119.66323    90.107069    18.846565    14.338966    28.384605    18.845403    14.351804 
   86000    292.11035    1.2509986    2037.2871   -1241.7646   -211.49952     2071.568   -2310.3058   -1547.4482    44657.537 -0.067234084   -17.036218 -0.041707817    3517.7895    1547.2491    973.62639    849.20313    28.379474    18.845982    14.337664   0.03977224  0.039758408  0.040625756   0.04047711    292.11035     41.49527    35.978931    34.423473    90.016431    119.66323    90.107069    18.844658     14.33639     28.36958    18.847465    14.332803 
   87000    297.11874    1.2509986    2087.8955   -1235.3286   -211.49952    2074.5772   -2309.5051   -488.04505    44657.537 -0.067234084   -17.036218 -0.041707817     3558.152    1571.7015    985.41424    850.99465     28.37919    18.846873    14.337673  0.040218319  0.040211749  0.038103733  0.038023985    297.11874     41.49527    35.978931    34.423473    90.016431    119.66323    90.107069    18.845849    14.338638    28.375275    18.843157    14.344846 
   88000     293.6918    1.2509986      2029.22   -1213.3018   -211.49952    2071.6267   -2309.9525   -342.27859    44657.537 -0.067234084   -17.036218 -0.041707817    3480.8476    1537.7709    908.09194    886.79602    28.380031    18.846298    14.337688  0.039508752  0.039506033  0.041241886  0.041222012     293.6918     41.49527    35.978931    34.423473    90.016431    119.66323    90.107069    18.846151    14.337297    28.377835    18.847813    14.335705 
   89000    296.22635    1.2509986    2064.0478   -1227.4564   -211.49952    2074.2053   -2309.3104   -1497.1219    44657.537 -0.067234084   -17.036218 -0.041707817    3526.6093    1562.2551    956.85984      858.468    28.379622    18.845848    14.337903  0.041415055  0.041409298  0.041468223  0.041234509    296.22635     41.49527    35.978931    34.423473    90.016431    119.66323    90.107069    18.844155     14.33742    28.377556    18.834335     14.33586 
   90000    298.69454    1.2509986     2050.459   -1252.1724   -211.49952    2077.7075   -2309.7582   -1139.5106    44657.537 -0.067234084   -17.036218 -0.041707817    3534.6821    1532.6562    925.61373    917.45433    28.379042    18.846633    14.337725  0.039889366  0.039883752  0.039984636  0.039846553    298.69454     41.49527    35.978931    34.423473    90.016431    119.66323    90.107069    18.847223    14.337789    28.368574    18.846802    14.343184 
   91000    295.69888    1.2509986    2028.6931   -1238.9647   -211.49952    2074.3023   -2309.8789   -1788.1254    44657.537 -0.067234084   -17.036218 -0.041707817    3503.2343    1527.8912    960.97666    866.59293    28.380463    18.846697      14.3377  0.039402742  0.039394947   0.03925062  0.039072128    295.69888     41.49527    35.978931    34.423473    90.016431    119.66323    90.107069    18.846782     14.33927    28.389523    18.844682     14.34741 
   92000    302.80941    1.2509986    2067.8447   -1250.3732   -211.49952    2074.7701    -2309.098   -462.96387    44657.537 -0.067234084   -17.036218 -0.041707817    3552.5458    1551.3166     969.7176    876.38986      28.3798    18.845681    14.337595  0.038799354  0.038796497  0.039731551  0.039596171    302.80941     41.49527    35.978931    34.423473    90.016431    119.66323    90.107069     18.84486    14.338431    28.375944    18.839745    14.345675 
   93000    299.26283    1.2509986    2014.5755   -1226.2151   -211.49952    2075.5972   -2309.3698    9.9436628    44657.537 -0.067234084   -17.036218 -0.041707817    3474.5632    1513.6975    949.98645    862.58302    28.379174    18.845959    14.338141  0.036933965  0.036925499  0.033989296   0.03398534    299.26283     41.49527    35.978931    34.423473    90.016431    119.66323    90.107069    18.847479      14.3377    28.379094    18.847928    14.341239 
   94000    305.57592    1.2509986    2023.2165   -1272.8829   -211.49952    2072.8497   -2309.9678   -2086.0866    44657.537 -0.067234084   -17.036218 -0.041707817    3533.2175    1588.4266    925.21857    865.88038    28.380446    18.846166    14.337411  0.040314364  0.040311411  0.043888171  0.043731584    305.57592     41.49527    35.978931    34.423473    90.016431    119.66323    90.107069    18.847564    14.338274    28.390609    18.847478    14.345302 
   95000     297.5707    1.2509986    2004.9943   -1251.9007   -211.49952    2073.3669   -2310.1349   -328.61961    44657.537 -0.067234084   -17.036218 -0.041707817    3493.6629     1546.694    930.37288    867.79737    28.379669    18.846691    14.337851  0.039861866  0.039857146  0.038644666  0.038598845     297.5707     41.49527    35.978931    34.423473    90.016431    119.66323    90.107069    18.847414    14.339121     28.37994    18.848068     14.34633 
   96000    297.79875    1.2509986    1999.0293   -1245.3411   -211.49952    2074.8392   -2309.5827   -806.84722    44657.537 -0.067234084   -17.036218 -0.041707817    3479.1139    1570.4908    915.20571    847.91908    28.378957    18.845278    14.337608  0.039295647  0.039291594  0.038772555  0.038711069    297.79875     41.49527    35.978931    34.423473    90.016431    119.66323    90.107069     18.84562    14.339154    28.385831    18.845292    14.342514 
   97000    297.01562    1.2509986     2031.791   -1242.5394   -211.49952    2069.9714   -2310.2915   -843.04212    44657.537 -0.067234084   -17.036218 -0.041707817    3514.6505    1527.0284    969.80765    865.03551    28.379527    18.845595    14.337612  0.040153298  0.040152106  0.038259822  0.038226407    297.01562     41.49527    35.978931    34.423473    90.016431    119.66323    90.107069    18.845355    14.337897     28.37569      18.8464     14.34305 
   98000    297.99983    1.2509986    1965.2493   -1249.9755   -211.49952    2072.1734   -2309.9245   -275.27557    44657.537 -0.067234084   -17.036218 -0.041707817    3452.9758    1483.1525    946.20438    870.34947    28.378545    18.845471    14.337212  0.039645273  0.039637399   0.03895561  0.038858855    297.99983     41.49527    35.978931    34.423473    90.016431    119.66323    90.107069    18.843604     14.33669    28.373349    18.844103    14.333797 
   99000    298.70601    1.2509986    2019.2906   -1249.3101   -211.49952    2070.5822   -2310.4048   -953.95349    44657.537 -0.067234084   -17.036218 -0.041707817    3508.4234      1601.59    936.19002    828.63301    28.379221    18.845917    14.337622   0.03923593   0.03923552  0.037162187  0.037140461    298.70601     41.49527    35.978931    34.423473    90.016431    119.66323    90.107069    18.845612    14.337566    28.375826    18.846938    14.341509 
  100000    296.51863    1.2509986    2025.1156   -1270.3669   -211.49952     2068.464   -2310.1846   -2492.5106    44657.537 -0.067234084   -17.036218 -0.041707817    3537.2031    1587.8969    928.31872    869.08058    28.379712    18.846078    14.337873  0.039636151  0.039632093  0.039686071  0.039629351    296.51863     41.49527    35.978931    34.423473    90.016431    119.66323    90.107069    18.845871    14.339467    28.373411    18.849533    14.343961 
  101000    303.63998    1.2509986    2063.0551   -1254.9322   -211.49952    2071.6432   -2309.4406   -1434.1674    44657.537 -0.067234084   -17.036218 -0.041707817    3555.7847    1607.8397    934.87647    863.45852    28.378926    18.846733    14.336943  0.038568477  0.038561448  0.039100227  0.039035721    303.63998     41.49527    35.978931    34.423473    90.016431    119.66323    90.107069    18.845989    14.336922    28.386271    18.846361    14.336117 
  102000    290.68929    1.2509986     2079.883   -1228.0464   -211.49952    2073.2736     -2309.64    -438.4946    44657.537 -0.067234084   -17.036218 -0.041707817    3544.2958    1567.0285    957.90749    868.35854     28.37836    18.845867    14.336858  0.039004695  0.038998272   0.03877517  0.038539186    290.68929     41.49527    35.978931    34.423473    90.016431    119.66323    90.107069    18.846668    14.338485    28.369316     18.85368    14.350094 
  103000    297.49525    1.2509986    1980.2424   -1250.6748   -211.49952    2072.2881   -2309.9322   -2181.1638    44657.537 -0.067234084   -17.036218 -0.041707817    3468.5613    1537.8205    937.35914    844.41272    28.379216    18.846582    14.337274  0.040694003  0.040691157  0.042208818  0.042141682    297.49525     41.49527    35.978931    34.423473    90.016431    119.66323    90.107069    18.846129    14.337913    28.385233     18.84756    14.345365 
  104000    302.96317    1.2509986    1914.9534   -1205.2911   -211.49952    2068.1423   -2309.8819    1159.4393    44657.537 -0.067234084   -17.036218 -0.041707817    3361.9841    1481.9339    901.18825     833.4133      28.3804    18.845943    14.337347  0.041974649  0.041973243    0.0402494  0.040246859    302.96317     41.49527    35.978931    34.423473    90.016431    119.66323    90.107069     18.84687    14.336807    28.378469     18.84927    14.340775 
  105000     297.2072    1.2509986    1988.6083   -1234.7641   -211.49952    2070.6423   -2310.2363    969.73205    44657.537 -0.067234084   -17.036218 -0.041707817    3462.9664    1522.2909    926.36832    860.24893    28.378835    18.846541    14.337614  0.040565848  0.040564401  0.039038276  0.039016113     297.2072     41.49527    35.978931    34.423473    90.016431    119.66323    90.107069    18.847225    14.337552    28.378434    18.846489    14.335826 
  106000    302.45787    1.2509986    2019.0462   -1233.4873   -211.49952    2071.1087   -2309.6827   -430.57253    44657.537 -0.067234084   -17.036218 -0.041707817    3491.1074    1559.7247    919.64527    864.63995    28.380798    18.846281    14.338354  0.037783782  0.037782496  0.038665931  0.038625802    302.45787     41.49527    35.978931    34.423473    90.016431    119.66323    90.107069    18.846267    14.336756    28.378974    18.847669    14.333475 
  107000    305.15959    1.2509986    2049.2899   -1219.9942   -211.49952    2075.0362   -2310.1159    679.31556    44657.537 -0.067234084   -17.036218 -0.041707817    3504.3639    1526.6954    938.67042     886.9564    28.378459    18.846414    14.337142  0.039878679    0.0398773  0.043809637   0.04380312    305.15959     41.49527    35.978931    34.423473    90.016431    119.66323    90.107069    18.847135    14.337306    28.379557    18.846575    14.338881 
  108000    298.52196    1.2509986    1959.6112   -1263.5362   -211.49952    2072.9794   -2309.8385   -1153.2286    44657.537 -0.067234084   -17.036218 -0.041707817    3460.0065      1579.92    911.65535    825.14006    28.380573     18.84623    14.337925  0.038968101  0.038966243   0.04167481  0.041635287    298.52196     41.49527    35.978931    34.423473    90.016431    119.66323    90.107069    18.847308    14.338439     28.37349    18.850381    14.338716 
  109000    299.39547    1.2509986     2003.546   -1263.4141   -211.49952    2076.7895   -2309.7155   -1337.9997    44657.537 -0.067234084   -17.036218 -0.041707817     3499.886    1539.2158    934.33356    873.91509    28.380116    18.846107     14.33798  0.039186447  0.039184867  0.038290062  0.038253404    299.39547     41.49527    35.978931    34.423473    90.016431    119.66323    90.107069    18.845477    14.336855    28.382204    18.847404    14.334436 
  110000    298.90457    1.2509986     1993.031   -1238.5645   -211.49952    2074.5903   -2309.8049    -512.7229    44657.537 -0.067234084   -17.036218 -0.041707817    3466.8102    1528.3218    925.87259    862.88609    28.379715     18.84633    14.337731   0.03899114  0.038990933  0.036283801  0.036280481    298.90457     41.49527    35.978931    34.423473    90.016431    119.66323    90.107069    18.846603    14.337882    28.378765    18.849375    14.341239 
  111000    297.74919    1.2509986    2074.7037   -1259.9795   -211.49952    2075.7426   -2309.5025   -1637.0958    44657.537 -0.067234084   -17.036218 -0.041707817    3568.4431    1594.3478    950.27686    870.43248    28.380732    18.845408    14.337718  0.037827271  0.037818255  0.038146358  0.038025247    297.74919     41.49527    35.978931    34.423473    90.016431    119.66323    90.107069    18.844501    14.337415    28.381129    18.838766    14.335946 
  112000    294.06867    1.2509986    2047.5143     -1235.91   -211.49952    2076.9484    -2309.487   -552.56517    44657.537 -0.067234084   -17.036218 -0.041707817    3515.9628    1585.4299     919.6464     862.3941    28.378725    18.845645    14.338043   0.03922189  0.039218339  0.040722685  0.040674903    294.06867     41.49527    35.978931    34.423473    90.016431    119.66323    90.107069    18.845356    14.337543    28.384114    18.844853    14.336522 
  113000    293.61363    1.2509986    1990.8622   -1218.7898   -211.49952    2074.7495   -2309.9676   -29.418732    44657.537 -0.067234084   -17.036218 -0.041707817    3444.8701    1566.6972    903.23274    835.22156     28.37972    18.845818    14.337446  0.039328573  0.039325076  0.038752707  0.038737706    293.61363     41.49527    35.978931    34.423473    90.016431    119.66323    90.107069    18.845182    14.338111    28.381774    18.845853    14.339328 
  114000    293.07647    1.2509986    1946.3516   -1253.8986   -211.49952    2073.7921   -2309.8861   -703.38965    44657.537 -0.067234084   -17.036218 -0.041707817    3436.3441    1543.1282    892.22203      854.625     28.37979    18.846321    14.337721  0.040375417  0.040370201  0.038584609  0.038356075    293.07647     41.49527    35.978931    34.423473    90.016431    119.66323    90.107069    18.847656     14.33762    28.394058    18.852328    14.336944 
  115000    293.11987    1.2509986    2018.0657   -1226.1219   -211.49952    2074.2336   -2309.3245   -1106.3218    44657.537 -0.067234084   -17.036218 -0.041707817    3479.2784    1559.5424     921.3155    852.85615    28.380444    18.846613    14.337745  0.039884623   0.03988225  0.039961867  0.039885367    293.11987     41.49527    35.978931    34.423473    90.016431    119.66323    90.107069    18.845653    14.338101    28.373477    18.843181    14.341988 
  116000    299.52254    1.2509986    2040.0784   -1206.0052   -211.49952    2070.2967   -2310.0661   -296.26381    44657.537 -0.067234084   -17.036218 -0.041707817     3485.853    1548.4918    921.98574    867.93435     28.37884    18.846174    14.337177  0.039002328  0.039000223  0.038233767  0.038196875    299.52254     41.49527    35.978931    34.423473    90.016431    119.66323    90.107069    18.846142    14.337066    28.379524    18.843803    14.336516 
  117000     296.0296    1.2509986    1976.7405   -1270.2257   -211.49952    2072.1241   -2310.1733    -1992.115    44657.537 -0.067234084   -17.036218 -0.041707817    3485.0154    1544.5468     946.9018    848.71897    28.379668     18.84596    14.338441  0.040946223  0.040942524  0.041010725  0.040961543     296.0296     41.49527    35.978931    34.423473    90.016431    119.66323    90.107069    18.847006    14.338048    28.372974    18.846788    14.340591 
  118000    295.93521    1.2509986     2076.293   -1244.9362   -211.49952    2072.2262   -2309.8219   -1636.5352    44657.537 -0.067234084   -17.036218 -0.041707817    3558.8249     1573.129    951.67576    880.03187     28.38034    18.846594    14.337665  0.038671254  0.038660438  0.039673008   0.03950063    295.93521     41.49527    35.978931    34.423473    90.016431    119.66323    90.107069    18.845931    14.339349    28.390694     18.84526    14.345491 
  119000     297.7258    1.2509986    1983.0503    -1264.941   -211.49952    2074.0344   -2309.9567    -2150.479    44657.537 -0.067234084   -17.036218 -0.041707817    3483.9136    1527.5962    960.49824    851.80266    28.376924    18.846279    14.336862  0.041295143  0.041272923  0.041052401   0.04099706     297.7258     41.49527    35.978931    34.423473    90.016431    119.66323    90.107069    18.846275    14.337188    28.383438    18.849319    14.345977 
  120000    293.26583    1.2509986    2049.0898   -1213.4299   -211.49952    2073.3821   -2309.4073    618.30386    44657.537 -0.067234084   -17.036218 -0.041707817    3498.5448    1558.7766    914.75148    868.68041     28.37889    18.846493    14.337585   0.03786708   0.03786438  0.039083278  0.039035808    293.26583     41.49527    35.978931    34.423473    90.016431    119.66323    90.107069    18.845644     14.33682     28.37905     18.85127    14.333148 
  121000    292.55096    1.2509986     2115.921   -1244.4577   -211.49952    2074.5868   -2309.5773   -1583.4894    44657.537 -0.067234084   -17.036218 -0.041707817    3595.3692     1588.645    957.86028    896.76113     28.37908    18.846149    14.336972  0.041036752  0.041033477  0.038563081  0.038550022    292.55096     41.49527    35.978931    34.423473    90.016431    119.66323    90.107069    18.846901    14.336976    28.376626     18.84802     14.33777 
  122000    299.46641    1.2509986     2064.773   -1239.8041   -211.49952    2070.2171   -2309.7167   -82.431554    44657.537 -0.067234084   -17.036218 -0.041707817    3544.0767    1581.3245    942.11145    874.27881    28.379217    18.845712    14.337575   0.04269236   0.04269089  0.041210523   0.04118631    299.46641     41.49527    35.978931    34.423473    90.016431    119.66323    90.107069    18.845557    14.337982    28.374915    18.850412    14.340482 
  123000    294.87601    1.2509986    2050.1414   -1239.2284   -211.49952    2072.8729   -2309.7696   -519.89168    44657.537 -0.067234084   -17.036218 -0.041707817    3526.2664     1533.551    915.23935    916.44862     28.38094    18.846508    14.337747   0.04041332  0.040409216  0.038857314  0.038815229    294.87601     41.49527    35.978931    34.423473    90.016431    119.66323    90.107069    18.848108    14.337173    28.384714    18.851121    14.336315 
  124000    296.03277    1.2509986    2064.8005   -1227.6115   -211.49952    2074.6588   -2309.8912   -364.63557    44657.537 -0.067234084   -17.036218 -0.041707817    3527.6444    1543.7306    953.96406    877.29754    28.380537     18.84651    14.337734  0.038885884  0.038885306  0.036430464  0.036286409    296.03277     41.49527    35.978931    34.423473    90.016431    119.66323    90.107069    18.846042    14.337234    28.376127    18.841059    14.331329 
  125000    297.44398    1.2509986    2019.1862   -1233.8731   -211.49952    2069.8183   -2310.0948   -84.216291    44657.537 -0.067234084   -17.036218 -0.041707817    3493.3358    1551.3165    917.13786    872.59636    28.379324    18.845324    14.338319  0.040297906  0.040294691  0.040000436  0.039948031    297.44398     41.49527    35.978931    34.423473    90.016431    119.66323    90.107069    18.845604    14.339358    28.378397    18.842488    14.342551 
  126000    300.36128    1.2509986    2070.8693   -1238.5814   -211.49952    2073.4307   -2310.0531    33.728701    44657.537 -0.067234084   -17.036218 -0.041707817    3546.0731    1565.0492    948.76006     878.0864    28.379356    18.846578    14.337676  0.038241613  0.038241202  0.040480987  0.040441226    300.36128     41.49527    35.978931    34.423473    90.016431    119.66323    90.107069    18.845916    14.337177    28.378583    18.845012    14.334862 
  127000    295.36296    1.2509986    2010.8217    -1256.745   -211.49952    2072.3107    -2309.403   -2149.0685    44657.537 -0.067234084   -17.036218 -0.041707817    3504.6591    1605.8335    920.14022    836.36434    28.380741    18.845752    14.338342  0.038208685  0.038207005  0.039071125  0.038981409    295.36296     41.49527    35.978931    34.423473    90.016431    119.66323    90.107069    18.846484     14.33899    28.372855    18.852337    14.345448 
  128000    301.64439    1.2509986    2016.7088   -1236.0962   -211.49952    2069.3325   -2309.6486   -1070.2955    44657.537 -0.067234084   -17.036218 -0.041707817    3493.1211    1580.2531    902.24581    859.10568    28.379551    18.846126    14.337883  0.038249888  0.038247116  0.038060307  0.038047595    301.64439     41.49527    35.978931    34.423473    90.016431    119.66323    90.107069    18.845121    14.338072    28.378984    18.848108    14.336237 
  129000    291.72847    1.2509986     1981.359   -1270.1987   -211.49952    2070.7647   -2309.8142   -1241.3787    44657.537 -0.067234084   -17.036218 -0.041707817    3490.6072    1551.4224    910.02922    879.54673    28.379049    18.846945    14.337722  0.039141433  0.039137929  0.038175668  0.038044822    291.72847     41.49527    35.978931    34.423473    90.016431    119.66323    90.107069     18.84785    14.337637    28.388168     18.84966    14.332137 
  130000    302.22551    1.2509986    2066.0117   -1243.0921   -211.49952    2070.0741   -2310.1647   -1088.1768    44657.537 -0.067234084   -17.036218 -0.041707817    3549.1943    1587.4547    943.44104    867.95445    28.379541    18.845807    14.338177  0.041180315  0.041173458  0.039356384  0.039268334    302.22551     41.49527    35.978931    34.423473    90.016431    119.66323    90.107069    18.847072    14.338098    28.388668    18.851058    14.338719 
  131000    298.79729    1.2509986    2084.4302   -1247.1911   -211.49952    2072.2051   -2310.1612   -1276.4917    44657.537 -0.067234084   -17.036218 -0.041707817    3569.5773    1572.4535    951.55667    891.84907    28.379514    18.846625    14.337468  0.040497269  0.040494201  0.039877542  0.039785732    298.79729     41.49527    35.978931    34.423473    90.016431    119.66323    90.107069     18.84665    14.336889      28.3753    18.847877    14.331129 
  132000    297.65028    1.2509986    2065.4062   -1246.4887   -211.49952    2069.9953   -2310.1558    -1650.554    44657.537 -0.067234084   -17.036218 -0.041707817    3552.0553    1554.4069    951.29364    893.37928    28.380779    18.846314    14.337565  0.041227537   0.04122572   0.04306186  0.042971673    297.65028     41.49527    35.978931    34.423473    90.016431    119.66323    90.107069    18.844944    14.337393    28.373018    18.842645    14.337013 
  133000    291.98457    1.2509986    2074.4646   -1233.2532   -211.49952    2075.4344   -2309.3513   -175.86918    44657.537 -0.067234084   -17.036218 -0.041707817    3541.6348    1569.5655    889.63247    918.96728     28.37882     18.84641    14.337032  0.040062164  0.040060755  0.040998193  0.040807787    291.98457     41.49527    35.978931    34.423473    90.016431    119.66323    90.107069    18.846452    14.337154    28.386357    18.842596     14.32949 
  134000    302.41069    1.2509986    2081.3059   -1216.5186   -211.49952    2070.6903   -2309.9516   -1490.2872    44657.537 -0.067234084   -17.036218 -0.041707817    3537.0859    1615.8796    930.77224    842.91117    28.380169    18.845242    14.337737  0.039360096  0.039355709  0.041682879  0.041548635    302.41069     41.49527    35.978931    34.423473    90.016431    119.66323    90.107069    18.846422    14.336114    28.384245     18.84855    14.329053 
  135000    298.66512    1.2509986    2081.1737    -1212.089   -211.49952    2070.7442   -2309.5829   -294.33844    44657.537 -0.067234084   -17.036218 -0.041707817    3532.1014    1549.5577    948.88247     877.7003    28.381183    18.846306    14.337887   0.04092961  0.040921893  0.038325855  0.037932705    298.66512     41.49527    35.978931    34.423473    90.016431    119.66323    90.107069    18.846683    14.335087    28.380226    18.844994    14.320233 
  136000    301.11106    1.2509986    2026.3509   -1259.8785   -211.49952     2073.016   -2309.8036   -2464.4545    44657.537 -0.067234084   -17.036218 -0.041707817     3523.017    1573.0601    935.99196    864.64558    28.381188    18.846669     14.33781  0.038240806  0.038239459  0.039463622  0.039392223    301.11106     41.49527    35.978931    34.423473    90.016431    119.66323    90.107069    18.847172    14.337207    28.374206    18.851672    14.333663 
  137000    294.36064    1.2509986    2034.6903   -1215.5697   -211.49952    2070.4503    -2309.942   -587.58074    44657.537 -0.067234084   -17.036218 -0.041707817    3489.7516    1549.5317    921.11066    871.72503    28.380412    18.846281    14.337759  0.039464626    0.0394561  0.042568177  0.042471954    294.36064     41.49527    35.978931    34.423473    90.016431    119.66323    90.107069    18.845962    14.338316    28.388887    18.845992    14.339814 
  138000    295.86707    1.2509986    2015.9987   -1235.4097   -211.49952    2069.4368   -2309.9139   -1715.7146    44657.537 -0.067234084   -17.036218 -0.041707817    3491.8856    1518.4817    954.80842     870.4356    28.380743     18.84587    14.337878  0.040355629  0.040354703  0.042208931   0.04213109    295.86707     41.49527    35.978931    34.423473    90.016431    119.66323    90.107069    18.845626    14.337437    28.371858    18.846627    14.336049 
  139000    297.25459    1.2509986    2003.7952   -1237.6868   -211.49952    2068.8057   -2310.1825   -1357.6147    44657.537 -0.067234084   -17.036218 -0.041707817    3482.8588    1587.5583    914.59354    839.88833    28.381107    18.845719    14.338139  0.040016184  0.040014499  0.038709881  0.038683384    297.25459     41.49527    35.978931    34.423473    90.016431    119.66323    90.107069    18.845255    14.337587    28.378874    18.844232    14.337856 
  140000    295.55603    1.2509986    2049.2041   -1246.5692   -211.49952    2067.8403   -2310.3545    -2137.065    44657.537 -0.067234084   -17.036218 -0.041707817    3538.2875    1580.5291    943.40408    868.80989    28.379962     18.84621     14.33814  0.041391103  0.041385044  0.045255239    0.0451478    295.55603     41.49527    35.978931    34.423473    90.016431    119.66323    90.107069    18.847029     14.33855    28.377306    18.849544    14.349742 
  141000    301.98886    1.2509986    2088.3768   -1233.4538   -211.49952    2076.5069   -2309.6601   -626.78409    44657.537 -0.067234084   -17.036218 -0.041707817    3554.9838    1590.7956    934.65009    877.66486    28.380386    18.845336    14.338193  0.039605132   0.03959822    0.0372687   0.03707038    301.98886     41.49527    35.978931    34.423473    90.016431    119.66323    90.107069    18.844587    14.338171     28.36836    18.841067    14.342773 
  142000     296.5246    1.2509986     1996.006   -1247.7205   -211.49952    2071.9368   -2310.0508   -141.33643    44657.537 -0.067234084   -17.036218 -0.041707817    3481.8405      1522.62    931.72905    870.75119    28.379819    18.846445    14.337748   0.04002669  0.040024132  0.042302983  0.042288247     296.5246     41.49527    35.978931    34.423473    90.016431    119.66323    90.107069    18.847247    14.338926    28.376562    18.851079    14.340864 
  143000    296.32237    1.2509986      1997.63   -1253.9804   -211.49952    2066.7458   -2309.9482   -1571.7556    44657.537 -0.067234084   -17.036218 -0.041707817    3494.8127    1521.6677    923.26882    893.66936    28.380734    18.846106     14.33777  0.039001637  0.039000215  0.038217986  0.038020508    296.32237     41.49527    35.978931    34.423473    90.016431    119.66323    90.107069    18.845547     14.33851    28.367653    18.843371    14.344531 
  144000    299.76779    1.2509986    2003.7791   -1237.8498   -211.49952    2074.2172    -2309.644   -1500.4511    44657.537 -0.067234084   -17.036218 -0.041707817    3477.0557    1522.3501    944.24752        858.5    28.380963    18.846117    14.337855   0.03911046  0.039102616  0.036670219  0.036623387    299.76779     41.49527    35.978931    34.423473    90.016431    119.66323    90.107069    18.847143      14.3375    28.382805    18.850097    14.333713 
  145000    296.80286    1.2509986    1998.6666   -1236.9565   -211.49952     2072.342   -2309.9662    -575.3786    44657.537 -0.067234084   -17.036218 -0.041707817    3473.2473    1534.9821    921.94174    868.45963    28.381674     18.84653    14.337905  0.039782516  0.039781607  0.039804052  0.039754731    296.80286     41.49527    35.978931    34.423473    90.016431    119.66323    90.107069    18.846925    14.337183    28.378843    18.843955    14.334818 
  146000    295.36762    1.2509986    2058.8904   -1217.9445   -211.49952    2071.6813    -2309.662   -537.85404    44657.537 -0.067234084   -17.036218 -0.041707817    3514.8156    1516.9884    968.98408     874.8162    28.380458    18.846553    14.337872   0.03857509  0.038568054  0.039621907  0.039562212    295.36762     41.49527    35.978931    34.423473    90.016431    119.66323    90.107069    18.847674    14.339712    28.376544    18.850453    14.346606 
  147000    295.18874    1.2509986    1988.5257   -1229.7974   -211.49952    2071.0812    -2310.186   -191.99953    44657.537 -0.067234084   -17.036218 -0.041707817     3457.428    1533.7491    914.75442    859.78423    28.380515    18.846249    14.337571  0.039505247  0.039503697  0.037591541  0.037554845    295.18874     41.49527    35.978931    34.423473    90.016431    119.66323    90.107069    18.845185    14.337748    28.376409    18.846783    14.334967 
  148000    296.60731    1.2509986     1925.036   -1257.1451   -211.49952    2072.3392   -2310.0585   -1557.4515    44657.537 -0.067234084   -17.036218 -0.041707817    3419.9005    1526.3301    897.58458    848.25614    28.380254    18.846072    14.337815  0.039274799  0.039273891  0.039113224  0.039023282    296.60731     41.49527    35.978931    34.423473    90.016431    119.66323    90.107069    18.845391    14.337736    28.384544    18.841591    14.336478 
  149000    303.71676    1.2509986    1985.9713   -1232.3855   -211.49952    2071.0659   -2309.9003   -617.37887    44657.537 -0.067234084   -17.036218 -0.041707817    3457.1913    1554.6972    938.29155    824.16295    28.380048    18.845612    14.337857  0.037842493  0.037839765  0.036366727  0.036334382    303.71676     41.49527    35.978931    34.423473    90.016431    119.66323    90.107069       18.846    14.338223    28.380699    18.843442    14.339691 
  150000    300.31272    1.2509986    2057.3848   -1224.2978   -211.49952    2069.4737   -2309.8905   -949.26815    44657.537 -0.067234084   -17.036218 -0.041707817    3522.0995    1612.7891    937.78721    829.63739     28.37933    18.845598    14.337572  0.040000836   0.03999376  0.042433476  0.042393343    300.31272     41.49527    35.978931    34.423473    90.016431    119.66323    90.107069    18.845914    14.337137    28.384188    18.844836    14.338526 
  151000    296.02464    1.2509986    2045.8583    -1233.135   -211.49952    2070.9356   -2309.7842    1092.7721    44657.537 -0.067234084   -17.036218 -0.041707817    3517.8419    1573.4641    909.81229    877.47971    28.379391    18.845824    14.337621   0.03912648  0.039119319  0.039403432  0.039214045    296.02464     41.49527    35.978931    34.423473    90.016431    119.66323    90.107069    18.846766    14.339357    28.368745    18.848824     14.34815 
  152000    300.43307    1.2509986    2079.4406   -1248.8274   -211.49952    2071.2159   -2310.0498   -1491.6163    44657.537 -0.067234084   -17.036218 -0.041707817    3567.1019    1563.0451    916.98118    927.53459    28.379747    18.846221    14.338479  0.040107191  0.040098701  0.041077576  0.040977815    300.43307     41.49527    35.978931    34.423473    90.016431    119.66323    90.107069    18.846602     14.33729    28.375659    18.841984    14.333708 
  153000    293.48012    1.2509986    2052.0052   -1231.6518   -211.49952    2072.2399   -2309.8275    -454.7936    44657.537 -0.067234084   -17.036218 -0.041707817    3521.2447    1582.7336    940.87789    848.92743    28.380584    18.845673    14.337601  0.039932599   0.03992736  0.039863217  0.039815715    293.48012     41.49527    35.978931    34.423473    90.016431    119.66323    90.107069    18.845364    14.336909    28.373074    18.846678    14.339459 
  154000    298.13993    1.2509986    2100.7011   -1218.4917   -211.49952    2075.2174   -2309.5145    1834.8741    44657.537 -0.067234084   -17.036218 -0.041707817    3553.4899    1575.3169      945.324    880.50286    28.379606    18.845521     14.33742  0.039891886  0.039889013  0.041950725  0.041627283    298.13993     41.49527    35.978931    34.423473    90.016431    119.66323    90.107069    18.845307    14.336408    28.379455     18.84371    14.322454 
  155000    299.77251    1.2509986     2047.021   -1248.5703   -211.49952    2076.2033   -2309.6846   -1284.1598    44657.537 -0.067234084   -17.036218 -0.041707817    3529.0726    1594.8495    943.56068    847.32247    28.379815    18.845955    14.337634  0.037917311  0.037915761  0.037318475  0.037271434    299.77251     41.49527    35.978931    34.423473    90.016431    119.66323    90.107069    18.845548     14.33875    28.378415    18.842678    14.342007 
  156000    300.70602    1.2509986    2042.7463   -1252.2501   -211.49952    2067.2099   -2309.8377   -864.20038    44657.537 -0.067234084   -17.036218 -0.041707817    3537.6243    1599.7891    925.57825    858.91258    28.380277    18.845449    14.337509  0.040254816  0.040253457  0.037873041  0.037830882    300.70602     41.49527    35.978931    34.423473    90.016431    119.66323    90.107069    18.845095    14.337596    28.378173     18.84462    14.344215 
  157000    294.22939    1.2509986    2061.2755   -1252.2931   -211.49952    2072.6061   -2309.6693    -1624.538    44657.537 -0.067234084   -17.036218 -0.041707817    3550.6318    1587.0761    952.11824    858.41127    28.380877      18.8464    14.338071  0.037351601  0.037351188  0.038012432  0.037906183    294.22939     41.49527    35.978931    34.423473    90.016431    119.66323    90.107069    18.846701     14.33746    28.370371    18.846492    14.335699 
  158000    294.29661    1.2509986    2002.5003   -1260.4957   -211.49952    2070.2898   -2309.7374   -2907.4898    44657.537 -0.067234084   -17.036218 -0.041707817    3502.4437    1573.0314    912.20543    867.01588    28.377942    18.845762    14.337042  0.042364567  0.042358172  0.041769215  0.041727627    294.29661     41.49527    35.978931    34.423473    90.016431    119.66323    90.107069    18.846511    14.337148    28.377085    18.851552     14.33425 
  159000    300.89694    1.2509986    2121.5489   -1231.3119   -211.49952    2067.8163   -2309.5273   -1739.7427    44657.537 -0.067234084   -17.036218 -0.041707817    3594.5717    1616.3416    960.97809    864.31066    28.380165    18.846529    14.337819  0.038210002   0.03820819  0.036123006  0.036085888    300.89694     41.49527    35.978931    34.423473    90.016431    119.66323    90.107069    18.847271    14.337133    28.377759    18.847491    14.334019 
  160000    297.53739    1.2509986    2140.7991   -1263.7417   -211.49952    2075.0963   -2309.4823   -2788.5184    44657.537 -0.067234084   -17.036218 -0.041707817    3638.9267    1601.7187    974.45589    903.94817    28.380546    18.845856    14.338226  0.040810672   0.04080177  0.040507448  0.040471827    297.53739     41.49527    35.978931    34.423473    90.016431    119.66323    90.107069    18.845221    14.338339     28.38213    18.843637    14.339314 
  161000    299.02665    1.2509986    2008.7031   -1246.1528   -211.49952    2075.9621   -2309.1207   -1493.2754    44657.537 -0.067234084   -17.036218 -0.041707817    3488.0144    1596.6296    930.63312    818.65493    28.381664    18.846242    14.337647  0.040102081  0.040098093  0.039963823  0.039942124    299.02665     41.49527    35.978931    34.423473    90.016431    119.66323    90.107069    18.846245    14.338201    28.380606    18.845745    14.336488 
  162000    297.64812    1.2509986    2042.8989   -1245.6925   -211.49952    2073.0491     -2309.77   -1934.6122    44657.537 -0.067234084   -17.036218 -0.041707817    3525.3123    1591.9604    927.03901    855.30883     28.37969    18.846204    14.338008  0.039823956  0.039822353    0.0391705  0.039008941    297.64812     41.49527    35.978931    34.423473    90.016431    119.66323    90.107069    18.846491    14.337208    28.388273    18.845945    14.330911 
  163000    296.80102    1.2509986    2040.8176   -1241.0346   -211.49952    2069.8673   -2309.7191   -47.933476    44657.537 -0.067234084   -17.036218 -0.041707817     3521.704    1572.9478    946.92266    852.40487    28.379034     18.84656    14.337171  0.038785043  0.038779259  0.036682418   0.03666715    296.80102     41.49527    35.978931    34.423473    90.016431    119.66323    90.107069    18.848481    14.338362    28.377275    18.851753    14.341236 
  164000    298.45883    1.2509986    1964.2098    -1247.562   -211.49952    2070.3226   -2310.3827    302.99632    44657.537 -0.067234084   -17.036218 -0.041707817    3451.8319    1520.9199    947.45348    838.32975     28.38018    18.846216    14.338213  0.038722855  0.038722052  0.038278012  0.038206894    298.45883     41.49527    35.978931    34.423473    90.016431    119.66323    90.107069    18.846263    14.337245    28.380769    18.851915    14.331814 
  165000     296.8302    1.2509986    1987.4897    -1219.374   -211.49952    2069.5481   -2309.8686    29.996981    44657.537 -0.067234084   -17.036218 -0.041707817    3447.1842    1510.9972    933.39484    847.07897    28.379755    18.845709    14.337634    0.0396714  0.039666553   0.03774203  0.037671346     296.8302     41.49527    35.978931    34.423473    90.016431    119.66323    90.107069    18.845855    14.338955     28.38209    18.844019    14.345909 
[...]
  961000    299.25596    1.2509986    2045.7704   -1244.3014   -211.49952     2070.528   -2309.8016   -2301.6292    44657.537 -0.067234084   -17.036218 -0.041707817    3529.3454    1582.0813    946.08601    851.30742    28.379613    18.846219    14.337592  0.039114415  0.039113176  0.037386912  0.037309718    299.25596     41.49527    35.978931    34.423473    90.016431    119.66323    90.107069    18.846382    14.338709    28.386221    18.846365    14.344714 
  962000    291.07797    1.2509986    2093.2624   -1249.8007   -211.49952    2067.2739    -2310.043   -2687.0621    44657.537 -0.067234084   -17.036218 -0.041707817    3585.8321    1630.9156    936.16392    867.44282     28.38008     18.84566    14.337587  0.037896424  0.037894986  0.036730665  0.036693413    291.07797     41.49527    35.978931    34.423473    90.016431    119.66323    90.107069    18.845813    14.338382    28.374054    18.849508    14.342232 
  963000    294.15293    1.2509986    2054.4368   -1224.4486   -211.49952    2071.7681   -2309.1357    -103.2053    44657.537 -0.067234084   -17.036218 -0.041707817     3516.253    1570.9213     941.7368    856.09786    28.380697    18.845845    14.338264  0.035747415  0.035744165  0.035287362  0.035271381    294.15293     41.49527    35.978931    34.423473    90.016431    119.66323    90.107069    18.847751    14.337714    28.381595    18.852399    14.339037 
  964000    302.17337    1.2509986    2052.5725   -1260.1153   -211.49952    2070.8775    -2310.208   -653.60142    44657.537 -0.067234084   -17.036218 -0.041707817    3552.0183    1555.0333    983.70317    865.06059    28.379815    18.845867    14.337457  0.039296375  0.039288823  0.041235335  0.041182534    302.17337     41.49527    35.978931    34.423473    90.016431    119.66323    90.107069    18.843465    14.337835    28.376593    18.843256    14.342937 
  965000    295.17889    1.2509986    2058.3855   -1257.9852   -211.49952    2069.4086    -2309.949   -2419.2993    44657.537 -0.067234084   -17.036218 -0.041707817    3556.9111    1603.8239    935.18323    871.62248    28.380227    18.845768    14.337973  0.036913757   0.03690994  0.035095775   0.03507016    295.17889     41.49527    35.978931    34.423473    90.016431    119.66323    90.107069    18.845091    14.336628     28.38032    18.844803    14.336935 
  966000    297.27458    1.2509986    2073.5811   -1226.9929   -211.49952     2075.184   -2309.3228   -942.42276    44657.537 -0.067234084   -17.036218 -0.041707817    3534.7128    1567.9826    955.29805    863.06562    28.380274    18.845018    14.338331  0.038780833  0.038775597  0.041638596  0.041595584    297.27458     41.49527    35.978931    34.423473    90.016431    119.66323    90.107069    18.847224    14.339553    28.379812    18.851591    14.345663 
  967000    294.62549    1.2509986     2031.378   -1254.4642   -211.49952    2076.1419   -2309.8717   -839.74562    44657.537 -0.067234084   -17.036218 -0.041707817    3519.5719    1577.5793    943.41035    853.94664    28.380369    18.845447     14.33791  0.042058049  0.042057914  0.041014468  0.040999566    294.62549     41.49527    35.978931    34.423473    90.016431    119.66323    90.107069     18.84582    14.337788    28.378079    18.845471    14.339225 
  968000    296.06628    1.2509986    2070.2063   -1242.3573   -211.49952    2079.3902   -2309.5052   -1384.9879    44657.537 -0.067234084   -17.036218 -0.041707817    3542.6786    1581.2256    961.10244    851.30899    28.380159    18.845985    14.338139  0.041313893  0.041313056  0.042045071  0.042004989    296.06628     41.49527    35.978931    34.423473    90.016431    119.66323    90.107069    18.845531    14.338376    28.380276    18.850186    14.345818 
  969000    301.58344    1.2509986    2122.0756   -1229.7946   -211.49952    2074.3456   -2310.1803   -830.15286    44657.537 -0.067234084   -17.036218 -0.041707817    3587.7048    1619.4609    949.60957    866.48336    28.378544    18.846152    14.337142  0.038134555  0.038134146  0.039227438  0.039188418    301.58344     41.49527    35.978931    34.423473    90.016431    119.66323    90.107069    18.846338    14.337225     28.38014    18.844966    14.334916 
  970000    296.36664    1.2509986    2041.7521   -1252.8715   -211.49952    2067.1073   -2310.0254   -1565.6739    44657.537 -0.067234084   -17.036218 -0.041707817    3537.5416    1593.4895    931.86057    860.99083    28.378556    18.846208    14.337248  0.039206474  0.039201466  0.037604564  0.037581753    296.36664     41.49527    35.978931    34.423473    90.016431    119.66323    90.107069    18.847363    14.336716    28.376312    18.851659     14.33734 
  971000    302.86911    1.2509986    1956.2204    -1245.183   -211.49952    2066.7542   -2310.1327   -874.73441    44657.537 -0.067234084   -17.036218 -0.041707817    3444.7819    1505.5854    936.24863    855.26749    28.380404    18.846499    14.338222  0.038377082  0.038370515  0.039598831  0.039314417    302.86911     41.49527    35.978931    34.423473    90.016431    119.66323    90.107069    18.846557    14.337654    28.362834    18.848923    14.337459 
  972000    299.76997    1.2509986    2089.3181   -1259.0961   -211.49952    2076.2208   -2310.0131   -2771.6488    44657.537 -0.067234084   -17.036218 -0.041707817    3582.2063    1619.5712    938.35426    872.49543     28.37995    18.845999    14.337812  0.039187839    0.0391875  0.042061506  0.042047992    299.76997     41.49527    35.978931    34.423473    90.016431    119.66323    90.107069    18.846375     14.33803    28.376682    18.846791    14.340199 
  973000    302.95397    1.2509986    1968.0973   -1258.3413   -211.49952     2073.172   -2309.8359   -2693.9638    44657.537 -0.067234084   -17.036218 -0.041707817    3463.1024    1546.8649    906.59473    859.68085    28.379313     18.84571    14.337752  0.039420239  0.039418034  0.042040715  0.041977435    302.95397     41.49527    35.978931    34.423473    90.016431    119.66323    90.107069    18.846262    14.337036    28.382058    18.844383    14.333673 
  974000      296.042    1.2509986    1990.7071    -1234.202   -211.49952     2070.651   -2309.9816     999.5394    44657.537 -0.067234084   -17.036218 -0.041707817    3464.2396    1554.3944    903.75605    856.10303    28.379764    18.845865    14.337751  0.041275479  0.041272626  0.041946487  0.041841769      296.042     41.49527    35.978931    34.423473    90.016431    119.66323    90.107069    18.846038    14.338362    28.385394    18.848569    14.348032 
  975000     301.3733    1.2509986    1986.1386   -1243.2753   -211.49952    2071.8583   -2310.2104    19.468978    44657.537 -0.067234084   -17.036218 -0.041707817    3467.7661    1532.3158    944.26278     849.0875    28.380584    18.845311    14.338305  0.039180064  0.039173334   0.03817433  0.038157154     301.3733     41.49527    35.978931    34.423473    90.016431    119.66323    90.107069      18.8464    14.338763    28.377836     18.85208    14.337446 
  976000    298.10489    1.2509986    1985.8468   -1262.9452   -211.49952    2073.1206    -2310.038   -1749.0707    44657.537 -0.067234084   -17.036218 -0.041707817    3485.7093    1545.6006    916.32853    873.12296    28.381006    18.846506    14.338108   0.03951774  0.039514968  0.040501339  0.040433355    298.10489     41.49527    35.978931    34.423473    90.016431    119.66323    90.107069    18.847477    14.336703    28.384522    18.854156    14.335531 
  977000    294.74539    1.2509986    1998.6399   -1222.5933   -211.49952    2071.0152   -2309.8159   -658.63362    44657.537 -0.067234084   -17.036218 -0.041707817    3460.0338    1527.4325    930.76377    851.21913     28.38127    18.846433    14.338348  0.038992568  0.038984157  0.034603033  0.034544212    294.74539     41.49527    35.978931    34.423473    90.016431    119.66323    90.107069    18.845117    14.339198    28.384428    18.844409    14.343366 
  978000    293.76985    1.2509986    2031.1491   -1241.1821   -211.49952    2074.0653   -2309.8397   -697.12319    44657.537 -0.067234084   -17.036218 -0.041707817    3508.1057    1550.4861    937.22158    869.35653    28.379689    18.846286    14.338404  0.039754282  0.039751579  0.040349824  0.040325997    293.76985     41.49527    35.978931    34.423473    90.016431    119.66323    90.107069     18.84664    14.339084      28.3822      18.8483    14.343679 
  979000    306.43381    1.2509986    2013.9595    -1233.864   -211.49952      2071.94   -2310.0203   -1080.4781    44657.537 -0.067234084   -17.036218 -0.041707817    3485.9038    1568.1794    912.19945     855.0225    28.380351    18.846116    14.337762  0.039793005  0.039791011  0.040536925  0.040510788    306.43381     41.49527    35.978931    34.423473    90.016431    119.66323    90.107069    18.846498    14.337765    28.374832    18.847561    14.338331 
  980000    299.02888    1.2509986     2033.111   -1223.8529   -211.49952    2074.2174    -2309.739   -1282.7212    44657.537 -0.067234084   -17.036218 -0.041707817    3492.4856     1563.054    900.13662    876.37555    28.380883    18.846157     14.33808  0.039778044  0.039767995  0.040095288  0.040037931    299.02888     41.49527    35.978931    34.423473    90.016431    119.66323    90.107069    18.845486    14.338859    28.380491    18.841502    14.339892 
  981000    296.07538    1.2509986     2065.082    -1235.383   -211.49952    2071.9651   -2309.6845   -332.87049    44657.537 -0.067234084   -17.036218 -0.041707817    3538.1844    1571.3565    940.69804    872.66572      28.3798    18.845899    14.337506  0.038598229  0.038597873  0.039729091  0.039715694    296.07538     41.49527    35.978931    34.423473    90.016431    119.66323    90.107069    18.846759    14.337744    28.380818    18.849511    14.343038 
  982000    298.16268    1.2509986    1951.2684   -1252.2052   -211.49952     2073.068    -2309.405   -2119.7931    44657.537 -0.067234084   -17.036218 -0.041707817    3439.8107    1519.1474    909.21447    860.01691    28.378242    18.845872     14.33691  0.041122933  0.041116308   0.04215924  0.042060379    298.16268     41.49527    35.978931    34.423473    90.016431    119.66323    90.107069    18.846044    14.336897    28.369899    18.848096    14.337458 
  983000    300.46323    1.2509986    1965.5254   -1256.5225   -211.49952    2070.8692   -2310.1585    513.60936    44657.537 -0.067234084   -17.036218 -0.041707817    3461.3373    1547.1787    916.72338    848.30342    28.380011    18.845606    14.337078  0.041302776  0.041301818  0.038312486  0.038298463    300.46323     41.49527    35.978931    34.423473    90.016431    119.66323    90.107069    18.846157    14.336774    28.378683    18.849121    14.335998 
  984000    299.41832    1.2509986    2012.6441   -1250.9334   -211.49952    2072.3351   -2310.0124   -990.09382    44657.537 -0.067234084   -17.036218 -0.041707817    3501.2549    1568.7359    930.02943    856.38495    28.379871    18.845887    14.337676  0.040736483  0.040735362  0.037138756  0.037120368    299.41832     41.49527    35.978931    34.423473    90.016431    119.66323    90.107069    18.845935    14.338171    28.382091    18.846124    14.337736 
  985000    299.78843    1.2509986    2019.6116   -1236.6593   -211.49952    2073.8322   -2309.4677   -108.82189    44657.537 -0.067234084   -17.036218 -0.041707817    3491.9064    1542.1809    930.95711    868.34137    28.380365    18.846692    14.337819  0.040576152  0.040572261  0.039770092  0.039756252    299.78843     41.49527    35.978931    34.423473    90.016431    119.66323    90.107069     18.84781    14.337888    28.377338    18.850306    14.336946 
  986000    295.90094    1.2509986    2087.9654   -1226.2991   -211.49952     2068.108    -2309.682    -347.9001    44657.537 -0.067234084   -17.036218 -0.041707817    3555.8386    1554.7132    970.61915    876.56672    28.379413     18.84677    14.337668    0.0373751   0.03737349  0.039078014  0.039023841    295.90094     41.49527    35.978931    34.423473    90.016431    119.66323    90.107069    18.846845    14.336662    28.382328    18.847116    14.333089 
  987000    298.04556    1.2509986    1920.6324   -1235.7589   -211.49952    2071.6646    -2309.571   -1090.4083    44657.537 -0.067234084   -17.036218 -0.041707817    3394.2977     1530.004     874.6896    843.86442    28.380373    18.846449    14.337864  0.042606878  0.042603454  0.040494355  0.040487455    298.04556     41.49527    35.978931    34.423473    90.016431    119.66323    90.107069    18.847206    14.338016     28.37825    18.850192    14.337688 
  988000    294.38875    1.2509986    1968.5584   -1253.8457   -211.49952    2075.2872   -2309.7359   -1177.9075    44657.537 -0.067234084   -17.036218 -0.041707817    3456.8528    1538.6986    917.06962    850.74435     28.38016     18.84678    14.337652  0.039968549  0.039954411  0.037277927  0.036686048    294.38875     41.49527    35.978931    34.423473    90.016431    119.66323    90.107069    18.846165     14.33485    28.390931    18.847536    14.318183 
  989000    294.72764    1.2509986    2117.0415   -1235.8209   -211.49952    2076.4748   -2309.3585   -1413.7604    44657.537 -0.067234084   -17.036218 -0.041707817     3585.746     1630.509    937.46007    867.16779     28.37938    18.846357    14.337402  0.038735317  0.038733159  0.042107236   0.04207643    294.72764     41.49527    35.978931    34.423473    90.016431    119.66323    90.107069    18.845459    14.337234    28.384012    18.845764    14.339011 
  990000    297.05313    1.2509986    1997.2488   -1241.4263   -211.49952    2071.3126   -2310.1365   -969.19859    44657.537 -0.067234084   -17.036218 -0.041707817    3477.4989    1536.0671    927.66916    862.13858    28.380544     18.84603    14.337552  0.040990405  0.040978727  0.039222588  0.039092357    297.05313     41.49527    35.978931    34.423473    90.016431    119.66323    90.107069    18.845663    14.337966    28.390874    18.850395    14.340133 
  991000    294.43397    1.2509986    2005.5837   -1246.1073   -211.49952    2069.4699   -2310.1802   -1234.1333    44657.537 -0.067234084   -17.036218 -0.041707817    3492.4014    1537.2528    950.93782    855.81302    28.379147    18.845842    14.337069   0.03853044  0.038528259  0.040657067  0.040627091    294.43397     41.49527    35.978931    34.423473    90.016431    119.66323    90.107069    18.845131    14.337292    28.374342    18.848055    14.338274 
  992000    294.32938    1.2509986    2026.4877   -1281.3577   -211.49952     2075.294    -2309.817   -2544.4473    44657.537 -0.067234084   -17.036218 -0.041707817    3542.3683    1556.1854    950.42026    880.51428     28.38021    18.846166    14.337954  0.040022846  0.040018129  0.046699318  0.046680669    294.32938     41.49527    35.978931    34.423473    90.016431    119.66323    90.107069    18.845412    14.337175    28.377814    18.846686    14.336445 
  993000    301.22078    1.2509986     1977.704    -1219.613   -211.49952    2069.5592   -2310.4781   -1054.6944    44657.537 -0.067234084   -17.036218 -0.041707817    3438.2359    1523.5182    935.86358     833.5702    28.380173     18.84585    14.338066  0.038613197  0.038603704  0.042008059    0.0419265    301.22078     41.49527    35.978931    34.423473    90.016431    119.66323    90.107069    18.846124     14.33646    28.373254    18.845637    14.334121 
  994000    296.35481    1.2509986    1999.0639   -1254.7379   -211.49952    2068.9654   -2310.1903   -1855.3609    44657.537 -0.067234084   -17.036218 -0.041707817    3495.0267    1586.9889    936.04251    823.85044    28.380368    18.845906    14.337707  0.039855234  0.039852004  0.041363788  0.041295525    296.35481     41.49527    35.978931    34.423473    90.016431    119.66323    90.107069    18.845319    14.337958    28.379766    18.842315    14.334806 
  995000    295.45062    1.2509986    2029.0927   -1263.0167   -211.49952    2069.1613   -2309.7285   -3259.4647    44657.537 -0.067234084   -17.036218 -0.041707817    3532.6765    1559.3321    961.24929    861.71525    28.380631    18.846146    14.337828  0.039849683  0.039847023  0.040210843  0.040159483    295.45062     41.49527    35.978931    34.423473    90.016431    119.66323    90.107069     18.84611    14.338644    28.385387    18.849599    14.343764 
  996000    299.21842    1.2509986    1994.2596    -1241.055   -211.49952    2072.8504   -2309.7886   -1084.4682    44657.537 -0.067234084   -17.036218 -0.041707817    3472.2528     1576.139    934.96498    819.23928    28.379618     18.84632    14.337706  0.038644342   0.03864266  0.037997788  0.037966671    299.21842     41.49527    35.978931    34.423473    90.016431    119.66323    90.107069    18.846343    14.338774    28.382312    18.847888    14.344356 
  997000     294.5166    1.2509986    1970.4348   -1227.3208   -211.49952    2070.8947   -2310.0625    641.66641    44657.537 -0.067234084   -17.036218 -0.041707817    3436.9234    1487.3901     914.3487    881.64948    28.378728    18.845632    14.337863  0.039334273  0.039329202  0.038573034  0.038508942     294.5166     41.49527    35.978931    34.423473    90.016431    119.66323    90.107069    18.846379    14.336469    28.378599    18.845191    14.332669 
  998000    303.69904    1.2509986    2017.3176   -1233.8661   -211.49952    2070.6618   -2310.0076   -551.88993    44657.537 -0.067234084   -17.036218 -0.041707817    3490.5295    1568.0637    905.23573    869.88884    28.378995    18.846059    14.337143  0.038565923  0.038562614  0.039649402  0.039497702    303.69904     41.49527    35.978931    34.423473    90.016431    119.66323    90.107069    18.845487    14.337372     28.38983    18.842446    14.337897 
  999000    291.66076    1.2509986    1988.4739   -1212.4742   -211.49952    2073.2093   -2309.3997    628.15985    44657.537 -0.067234084   -17.036218 -0.041707817    3437.1385    1499.6785    954.23058    839.98229    28.380259    18.845671    14.337884  0.040060679   0.04005568  0.041412431  0.041382545    291.66076     41.49527    35.978931    34.423473    90.016431    119.66323    90.107069    18.846233    14.338941    28.384107    18.846898     14.33747 
 1000000    301.52097    1.2509986    2018.0598   -1251.6565   -211.49952     2071.149   -2310.0809   -1829.8345    44657.537 -0.067234084   -17.036218 -0.041707817    3508.6482    1533.4491    916.94269    900.52278      28.3795     18.84671    14.337579  0.040116183  0.040109339  0.038346298  0.038149524    301.52097     41.49527    35.978931    34.423473    90.016431    119.66323    90.107069    18.847085    14.336492    28.388067    18.850067    14.328537 
Loop time of 3059.05 on 60 procs for 1000000 steps with 4560 atoms

Pair  time (%) = 546.191 (17.855)
Bond  time (%) = 59.1974 (1.93516)
Kspce time (%) = 1602.8 (52.3956)
Neigh time (%) = 14.2659 (0.466351)
Comm  time (%) = 575.909 (18.8264)
Outpt time (%) = 2.96752 (0.0970081)
Other time (%) = 257.711 (8.42455)

Nlocal:    76 ave 84 max 69 min
Histogram: 2 1 11 10 15 3 5 6 4 3
Nghost:    3995 ave 4068 max 3901 min
Histogram: 5 6 8 1 1 3 7 13 11 5
Neighs:    28100.8 ave 30905 max 24655 min
Histogram: 1 0 3 8 15 13 7 3 7 3

Total # of neighbors = 1686048
Ave neighs/atom = 369.747
Ave special neighs/atom = 10.6316
Neighbor list builds = 6315
Dangerous builds = 0
System init for write_data ...
PPPM initialization ...
  G vector (1/distance) = 0.246499
  grid = 16 16 20
  stencil order = 5
  estimated absolute RMS force accuracy = 0.00242397
  estimated relative force accuracy = 7.2997e-06
  using double precision FFTs
  3d grid and FFT values/proc = 1053 112
