LAMMPS data file Created by LigParGen - (Written by Leela S. Dodda)

       18 atoms
       16 bonds
      26 angles
      24 dihedrals
 
       9 atom types
       8 bond types
      13 angle types
      12 dihedral types
 
    -50.0    50.0 xlo xhi
    -50.0    50.0 ylo yhi
    -50.0    50.0 zlo zhi

Masses

       1     12.011  
       2     12.011  
       3     15.999  
       4     15.999  
       5      1.008  
       6      1.008  
       7      1.008  
       8      1.008  
       9      1.008  

Pair Coeffs 

       1      0.066  3.5000000 
       2      0.066  3.5000000 
       3      0.140  2.9000000 
       4      0.140  2.9000000 
       5      0.030  2.5000000 
       6      0.030  2.5000000 
       7      0.030  2.5000000 
       8      0.030  2.5000000 
       9      0.030  2.5000000 

Bond Coeffs 

       1   268.0000     1.5290 
       2   320.0000     1.4100 
       3   469.2840     1.3226 
       4   340.0000     1.0900 
       5   340.0000     1.0900 
       6   340.0000     1.0900 
       7   340.0000     1.0900 
       8   340.0000     1.0900 

Angle Coeffs 

       1     50.000    109.500
       2     85.022    110.040
       3     37.500    110.700
       4     37.500    110.700
       5     37.500    110.700
       6     37.500    110.700
       7     37.500    110.700
       8     33.000    107.800
       9     33.000    107.800
      10     33.000    107.800
      11     35.000    109.500
      12     33.000    107.800
      13     35.000    109.500

Dihedral Coeffs  

       1      0.650     -0.250      0.670      0.000 
       2      0.000      0.000      0.468      0.000 
       3      0.000      0.000      0.760      0.000 
       4      0.000      0.000      0.300      0.000 
       5      0.000      0.000      0.760      0.000 
       6      0.000      0.000      0.300      0.000 
       7      0.000      0.000      0.300      0.000 
       8      0.000      0.000      0.300      0.000 
       9      0.000      0.000      0.300      0.000 
      10      0.000      0.000      0.468      0.000 
      11      0.000      0.000      0.468      0.000 
      12      0.000      0.000      0.300      0.000 

Atoms 

   1  1  1    -0.2516     0.4878     1.5979     0.8608
   2  1  2     0.0587    -0.2919     0.3349     0.5572
   3  1  3    -0.1510     0.3121    -0.3155    -0.5589
   4  1  4    -0.1450    -0.4886    -1.5091    -0.7877
   5  1  5     0.0981     0.0556     2.1273     1.7147
   6  1  6     0.0981     0.4893     2.2672    -0.0060
   7  1  7     0.0981     1.5333     1.3605     1.0845
   8  1  8     0.0973    -1.3306     0.5824     0.3139
   9  1  9     0.0973    -0.2729    -0.3369     1.4219
  10  2  1    -0.2516    33.1806     0.3937     0.2584
  11  2  2     0.0587    34.6733     0.6195     0.1315
  12  2  3    -0.1510    35.3021    -0.6329    -0.1319
  13  2  4    -0.1450    36.7228    -0.3349    -0.2379
  14  2  5     0.0981    32.6597     1.3340     0.4601
  15  2  6     0.0981    32.9653    -0.3105     1.0690
  16  2  7     0.0981    32.7777    -0.0432    -0.6615
  17  2  8     0.0973    35.0720     1.0365     1.0624
  18  2  9     0.0973    34.8814     1.3099    -0.6927

Bonds 

     1      1      2      1
     2      2      3      2
     3      3      4      3
     4      4      5      1
     5      5      6      1
     6      6      7      1
     7      7      8      2
     8      8      9      2
9 1 11 10
10 2 12 11
11 3 13 12
12 4 14 10
13 5 15 10
14 6 16 10
15 7 17 11
16 8 18 11

Angles 

     1      1      1      2      3
     2      2      2      3      4
     3      3      2      1      5
     4      4      2      1      6
     5      5      2      1      7
     6      6      1      2      8
     7      7      1      2      9
     8      8      8      2      9
     9      9      6      1      7
    10     10      5      1      6
    11     11      3      2      8
    12     12      5      1      7
    13     13      3      2      9
14 1 10 11 12
15 2 11 12 13
16 3 11 10 14
17 4 11 10 15
18 5 11 10 16
19 6 10 11 17
20 7 10 11 18
21 8 17 11 18
22 9 15 10 16
23 10 14 10 15
24 11 12 11 17
25 12 14 10 16
26 13 12 11 18

Dihedrals

     1      1      4      3      2      1 
     2      2      5      1      2      3 
     3      3      9      2      3      4 
     4      4      8      2      1      7 
     5      5      8      2      3      4 
     6      6      9      2      1      5 
     7      7      8      2      1      6 
     8      8      9      2      1      6 
     9      9      9      2      1      7 
    10     10      6      1      2      3 
    11     11      7      1      2      3 
    12     12      8      2      1      5 
13 1 13 12 11 10
14 2 14 10 11 12
15 3 18 11 12 13
16 4 17 11 10 16
17 5 17 11 12 13
18 6 18 11 10 14
19 7 17 11 10 15
20 8 18 11 10 15
21 9 18 11 10 16
22 10 15 10 11 12
23 11 16 10 11 12
24 12 17 11 10 14
