LAMMPS data file via write_data, version 15 May 2015, timestep = 1009000

2593 atoms
6 atom types
1728 bonds
4 bond types
864 angles
3 angle types
0 dihedrals
3 dihedral types
0 impropers
1 improper types

-1.4886573015386860e+01 1.4886573015386860e+01 xlo xhi
-1.4886573015386860e+01 1.4886573015386860e+01 ylo yhi
-1.4886573015386860e+01 1.4886573015386860e+01 zlo zhi

Masses

1 15.9994
2 1.00794
3 12.0107
4 1.00794
5 12.0107
6 12.0107

Bond Coeffs # harmonic

1 1000 1
2 469 1.4
3 367 1.08
4 469 0.7

Angle Coeffs # harmonic

1 100 109.47
2 35 120
3 63 120

Dihedral Coeffs # opls

1 0 7.25 0 0
2 0 7.25 0 0
3 0 7.25 0 0

Improper Coeffs # cvff

1 2.5 -1 2

Atoms # full

1041 347 2 4.0999999999999998e-01 -1.0792093536270913e+01 -8.3493017333366311e+00 -1.0235647925043800e+01 -1 2 0
1039 347 1 -8.1999999999999995e-01 -1.0448214352263232e+01 -8.3030350138268609e+00 -1.1173522843050897e+01 -1 2 0
1040 347 2 4.0999999999999998e-01 -1.0983081551881998e+01 -7.6359705320662998e+00 -1.1692121838787648e+01 -1 2 0
570 190 2 4.0999999999999998e-01 -1.2799288640680135e+01 -1.0355631973926434e+01 -1.1331234951493757e+01 0 0 -1
2409 803 2 4.0999999999999998e-01 -1.1447808023980214e+01 -1.1296281165228146e+01 -1.4642977672885580e+01 2 2 0
2181 727 2 4.0999999999999998e-01 -1.4217701570035057e+01 -9.5140900780367836e+00 -9.5673691566140668e+00 -2 0 0
18 6 2 4.0999999999999998e-01 -9.7591606803281614e+00 -9.7655745533898877e+00 -1.1799059176790749e+01 -2 2 2
17 6 2 4.0999999999999998e-01 -9.2876477526369428e+00 -1.0820248760702235e+01 -1.2953170077176102e+01 -2 2 2
16 6 1 -8.1999999999999995e-01 -9.1191004345051923e+00 -1.0501297041765635e+01 -1.2020504831811639e+01 -2 2 2
568 190 1 -8.1999999999999995e-01 -1.2887842473728512e+01 -1.1234159502830540e+01 -1.1800649963886059e+01 0 0 -1
760 254 1 -8.1999999999999995e-01 -1.2817524593120378e+01 -1.3964989147142555e+01 -1.2708541059587208e+01 -1 3 1
761 254 2 4.0999999999999998e-01 -1.2153104920229408e+01 -1.3239789691514597e+01 -1.2527889163588222e+01 -1 3 1
762 254 2 4.0999999999999998e-01 -1.3689059564619972e+01 -1.3557993401181056e+01 -1.2982007887572742e+01 -1 3 1
569 190 2 4.0999999999999998e-01 -1.3855526051084986e+01 -1.1433481380963592e+01 -1.1955123796245916e+01 0 0 -1
2180 727 2 4.0999999999999998e-01 -1.2715904969707445e+01 -8.8790196198996796e+00 -9.6564006750830806e+00 -2 0 0
852 284 2 4.0999999999999998e-01 -1.1449483184903192e+01 -5.1009390484515542e+00 -7.8313385261024937e+00 -1 1 0
2337 779 2 4.0999999999999998e-01 -8.0300030499146828e+00 -1.1458239134978825e+01 -1.1165218054411479e+01 1 2 -1
2408 803 2 4.0999999999999998e-01 -1.1733527133827046e+01 -1.1411607165691857e+01 -1.3039326024389705e+01 2 2 0
2407 803 1 -8.1999999999999995e-01 -1.1118797544576935e+01 -1.1681078921999749e+01 -1.3780605567002979e+01 2 2 0
2179 727 1 -8.1999999999999995e-01 -1.3490771455899745e+01 -9.2206760150485145e+00 -1.0188242489091675e+01 -2 0 0
2138 713 2 4.0999999999999998e-01 -9.9731946566222476e+00 -5.3759592787527417e+00 -1.1723806966201511e+01 0 4 1
1524 508 2 4.0999999999999998e-01 -9.5460870169648526e+00 -1.1261572780881021e+01 -9.0887500674093680e+00 -1 4 0
1522 508 1 -8.1999999999999995e-01 -1.0467593627948290e+01 -1.1469101109078101e+01 -9.4170188590791426e+00 -1 4 0
295 99 1 -8.1999999999999995e-01 -8.0528279708559580e+00 -7.2349862777504423e+00 -1.3417295439521631e+01 -1 3 -2
296 99 2 4.0999999999999998e-01 -7.3966250543974965e+00 -7.0336314762250485e+00 -1.2690070002191700e+01 -1 3 -2
549 183 2 4.0999999999999998e-01 -1.1824375928996615e+01 -1.2756168981889383e+01 -9.7369895502112325e+00 0 1 1
1523 508 2 4.0999999999999998e-01 -1.0488220584004306e+01 -1.1405371724300798e+01 -1.0414774316834963e+01 -1 4 0
2137 713 1 -8.1999999999999995e-01 -1.0387460091985311e+01 -5.8704579101482643e+00 -1.2487913050857269e+01 0 4 1
547 183 1 -8.1999999999999995e-01 -1.2165205174282979e+01 -1.3696050460704679e+01 -9.7155165252905356e+00 0 1 1
261 87 2 4.0999999999999998e-01 -8.4797718457977176e+00 -1.3732376251603865e+01 -1.0994917326204645e+01 -1 4 1
349 117 1 -8.1999999999999995e-01 -1.1171235353526933e+01 -8.3815818762459600e+00 -8.6241051041175183e+00 -1 -1 -1
1340 447 2 4.0999999999999998e-01 -3.5057017996064808e+00 -5.4204239894415434e+00 -7.6230332167752861e+00 -3 0 -1
2555 852 2 4.0999999999999998e-01 -1.3217888113071874e+01 -8.0879221127728105e+00 -1.1660058089137705e+01 0 3 1
351 117 2 4.0999999999999998e-01 -1.1138481341820485e+01 -7.6415621086425514e+00 -7.9523158790058508e+00 -1 -1 -1
22 8 1 -8.1999999999999995e-01 -3.4259051712581368e-01 -8.9266830921705953e+00 -8.0489478287373100e+00 -4 1 -2
2382 794 2 4.0999999999999998e-01 -3.5869274318045505e+00 -7.8163055402406547e+00 -8.3267490778248554e+00 0 1 -1
2554 852 1 -8.1999999999999995e-01 -1.3211168263793768e+01 -7.5898953865496059e+00 -1.2527195384481971e+01 0 3 1
2556 852 2 4.0999999999999998e-01 -1.3586653208972860e+01 -8.1717174558100183e+00 -1.3248650159557865e+01 0 3 1
548 183 2 4.0999999999999998e-01 -1.2602989539085950e+01 -1.3911871302962052e+01 -1.0588310356192288e+01 0 1 1
297 99 2 4.0999999999999998e-01 -8.9304456715205536e+00 -6.8065078646124206e+00 -1.3202362199245218e+01 -1 3 -2
158 53 2 4.0999999999999998e-01 -7.9766979026897102e+00 -9.7850566084245045e+00 -8.5252984170298056e+00 -4 2 -2
2389 797 1 -8.1999999999999995e-01 -3.4243806735400302e+00 -1.3898555042169642e+01 -1.3851959943993565e+01 -1 2 1
854 285 2 4.0999999999999998e-01 -3.7937718243380445e+00 -1.1079791518595620e+01 -8.8508232355252332e+00 -3 1 -2
2406 802 2 4.0999999999999998e-01 -6.7275888231272649e+00 -4.9808317044905976e+00 -9.9499827929218760e+00 1 0 0
2322 774 2 4.0999999999999998e-01 -1.7643781230176536e+00 -1.1542764799600054e+01 -1.1987860804683315e+01 -1 2 0
1024 342 1 -8.1999999999999995e-01 -5.4816368552293504e-01 -1.2806116404540290e+01 -9.1533849384057238e+00 -1 3 0
1178 393 2 4.0999999999999998e-01 -1.6712362066089721e+00 -9.9555568983040690e+00 -8.6882386276831092e+00 1 2 -2
259 87 1 -8.1999999999999995e-01 -8.9502446363548991e+00 -1.4580546719974642e+01 -1.1238361471894869e+01 -1 4 1
467 156 2 4.0999999999999998e-01 -4.9063469608979684e+00 -1.3681511688884983e+01 -1.1234916373915532e+01 2 1 0
819 273 2 4.0999999999999998e-01 -9.7072158853102941e+00 -1.3631616744192383e+01 -1.4556272623378911e+01 -1 3 1
1872 624 2 4.0999999999999998e-01 -1.1041644617959189e+01 -8.0047735157654376e+00 -1.3648703895153947e+01 -2 2 0
2335 779 1 -8.1999999999999995e-01 -7.6436886826415176e+00 -1.2121212313482273e+01 -1.0523945376392515e+01 1 2 -1
853 285 1 -8.1999999999999995e-01 -4.6055028789310928e+00 -1.1575012537431217e+01 -8.5412240126714316e+00 -3 1 -2
2391 797 2 4.0999999999999998e-01 -2.9872524797394764e+00 -1.3149151752923984e+01 -1.3354650670756307e+01 -1 2 1
912 304 2 4.0999999999999998e-01 -1.3363257595049005e+01 -5.2103832589120849e+00 -1.2970974773843631e+01 -2 1 -1
2336 779 2 4.0999999999999998e-01 -7.4120413472780635e+00 -1.1660331669794934e+01 -9.6672474142940157e+00 1 2 -1
23 8 2 4.0999999999999998e-01 -2.7546681165754983e-01 -8.2054196616093904e+00 -8.7383507348142793e+00 -4 1 -2
1074 358 2 4.0999999999999998e-01 -1.1368214105049264e+01 -1.1347720016485956e+01 -7.7047172559327137e+00 -1 3 -1
198 66 2 4.0999999999999998e-01 -2.9404146636859725e+00 -5.0855987253492696e+00 -9.4728818068446596e+00 -2 2 -1
1871 624 2 4.0999999999999998e-01 -9.5019619123692429e+00 -8.2894049370098521e+00 -1.4112380765385128e+01 -2 2 0
1700 567 2 4.0999999999999998e-01 -6.3283297266624405e+00 -1.4070819276315005e+01 -1.3870641038675961e+01 1 3 1
196 66 1 -8.1999999999999995e-01 -2.6550554031160907e+00 -5.4705018691750062e+00 -1.0350618980236824e+01 -2 2 -1
342 114 2 4.0999999999999998e-01 -8.4491936339297400e+00 -8.7068955811901922e+00 -1.0243665477259665e+01 -1 3 0
340 114 1 -8.1999999999999995e-01 -7.6131561508415011e+00 -8.7134750115412452e+00 -9.6950299926067363e+00 -1 3 0
2139 713 2 4.0999999999999998e-01 -1.0933170173807047e+01 -5.2379598206430398e+00 -1.3037594333063531e+01 0 4 1
341 114 2 4.0999999999999998e-01 -6.9445496580571691e+00 -8.0890662091778918e+00 -1.0098863953634952e+01 -1 3 0
1914 638 2 4.0999999999999998e-01 -6.0631709964552893e+00 -1.2962613047056148e+01 -7.9838781802523799e+00 -1 2 0
492 164 2 4.0999999999999998e-01 -3.4523522527088684e+00 -6.0587327051102857e+00 -1.3519741778918238e+01 -1 1 -1
1026 342 2 4.0999999999999998e-01 -1.5410490338600642e+00 -1.2754233640882667e+01 -9.2605748862418089e+00 -1 3 0
490 164 1 -8.1999999999999995e-01 -4.2085529485266679e+00 -6.5654214134203439e+00 -1.3933782742425452e+01 -1 1 -1
1974 658 2 4.0999999999999998e-01 -3.3902937326863416e+00 -1.4436593079444425e+01 -9.4034584878373977e+00 1 2 0
165 55 2 4.0999999999999998e-01 -4.3114107080557869e+00 -8.1701021067937809e+00 -1.1085394126117235e+01 -2 -1 0
1972 658 1 -8.1999999999999995e-01 -3.1662088193931339e+00 -1.3537062873040343e+01 -9.7784707937144102e+00 1 2 0
2390 797 2 4.0999999999999998e-01 -4.2801681139252032e+00 -1.4145729549467553e+01 -1.3397498206667816e+01 -1 2 1
2573 858 2 4.0999999999999998e-01 -1.1705175810558323e+01 -1.4256481609490033e+01 -8.0449431778021818e+00 -2 4 -2
1896 632 2 4.0999999999999998e-01 -5.1892891482590446e+00 -7.6658782735553910e+00 -1.2798997051633117e+01 -1 3 2
2404 802 1 -8.1999999999999995e-01 -7.5197556028477148e+00 -5.0382717393154959e+00 -9.3423848187405696e+00 1 0 0
1198 400 1 -8.1999999999999995e-01 -6.5774344009327059e+00 -9.4142097310775519e+00 -1.4517959475174468e+01 -1 3 -2
1129 377 1 -8.1999999999999995e-01 -2.4748258751383094e+00 -8.9606674507778905e+00 -1.3706871161950053e+01 1 4 1
905 302 2 4.0999999999999998e-01 -1.1361025287892677e+00 -8.6811375613646540e+00 -1.2732833634644763e+01 -1 2 2
2320 774 1 -8.1999999999999995e-01 -2.7597432940132993e+00 -1.1616398116963481e+01 -1.2049741135845242e+01 -1 2 0
1894 632 1 -8.1999999999999995e-01 -5.6760523155283060e+00 -8.1468275330327184e+00 -1.2069783574882324e+01 -1 3 2
1177 393 1 -8.1999999999999995e-01 -2.4440504136407935e+00 -1.0162274458089684e+01 -9.2882626920523208e+00 1 2 -2
906 302 2 4.0999999999999998e-01 -5.5236930314696941e-01 -8.1462969034799517e+00 -1.1304605689777883e+01 -1 2 2
904 302 1 -8.1999999999999995e-01 -5.8403028564789494e-01 -8.9222142616501419e+00 -1.1934647491968603e+01 -1 2 2
164 55 2 4.0999999999999998e-01 -3.3051661969289672e+00 -6.9939467892957579e+00 -1.0565043480961013e+01 -2 -1 0
2524 842 1 -8.1999999999999995e-01 -1.4452906171699233e+01 -9.2210726982297615e+00 -1.4383648174421374e+01 -1 -1 0
491 164 2 4.0999999999999998e-01 -4.9941128001570956e+00 -5.9573133424003402e+00 -1.4048251595597845e+01 -1 1 -1
1200 400 2 4.0999999999999998e-01 -7.3601296721866083e+00 -8.8359432903353543e+00 -1.4287744639278548e+01 -1 3 -2
163 55 1 -8.1999999999999995e-01 -3.4064481783694625e+00 -7.9788704623276487e+00 -1.0705293945248762e+01 -2 -1 0
1131 377 2 4.0999999999999998e-01 -2.9161672438207518e+00 -9.6744193474078788e+00 -1.3163015602286617e+01 1 4 1
1130 377 2 4.0999999999999998e-01 -3.1208655976756745e+00 -8.2136243901350987e+00 -1.3863594483010608e+01 1 4 1
1545 515 2 4.0999999999999998e-01 -2.3125603400574057e-01 -1.0422546459166378e+01 -1.1371642143488515e+01 0 2 -1
1912 638 1 -8.1999999999999995e-01 -6.9866296045471543e+00 -1.3100448596283789e+01 -7.6257882614504569e+00 -1 2 0
1025 342 2 4.0999999999999998e-01 -3.2883601521122152e-01 -1.3136812916732318e+01 -8.2354862204166466e+00 -1 3 0
468 156 2 4.0999999999999998e-01 -6.3508938453271941e+00 -1.3026385265354424e+01 -1.1623153081113649e+01 2 1 0
1179 393 2 4.0999999999999998e-01 -2.5218289150064646e+00 -9.4523006143458517e+00 -9.9881844905336905e+00 1 2 -2
1973 658 2 4.0999999999999998e-01 -3.8323228913306533e+00 -1.2865392874014038e+01 -9.4541957141983186e+00 1 2 0
350 117 2 4.0999999999999998e-01 -1.0864667022782090e+01 -9.2326060228953750e+00 -8.1977524080876307e+00 -1 -1 -1
2321 774 2 4.0999999999999998e-01 -3.1182482741329096e+00 -1.2008730076393526e+01 -1.1202656332124553e+01 -1 2 0
1895 632 2 4.0999999999999998e-01 -6.2235090124354180e+00 -8.8846024260077954e+00 -1.2464729447425210e+01 -1 3 2
466 156 1 -8.1999999999999995e-01 -5.5562673888055407e+00 -1.3519396634843106e+01 -1.1977428998058556e+01 2 1 0
1870 624 1 -8.1999999999999995e-01 -1.0435287799897694e+01 -8.6484242903382658e+00 -1.4115659939380246e+01 -2 2 0
1699 567 1 -8.1999999999999995e-01 -6.5167102942348176e+00 -1.4392552725509145e+01 -1.4798543627026080e+01 1 3 1
157 53 1 -8.1999999999999995e-01 -8.3364609341873752e+00 -1.0430013374555895e+01 -7.8510549773741243e+00 -4 2 -2
2380 794 1 -8.1999999999999995e-01 -3.7642159861504343e+00 -7.2027842055690092e+00 -7.5572276652134374e+00 0 1 -1
855 285 2 4.0999999999999998e-01 -5.0115659392276264e+00 -1.1095961728224957e+01 -7.7630042773811709e+00 -3 1 -2
2190 730 2 4.0999999999999998e-01 -2.1568528548456811e-02 -1.3896108136054030e+01 -1.1093330875094511e+01 0 2 -3
197 66 2 4.0999999999999998e-01 -1.8401920362241651e+00 -4.9906847005945814e+00 -1.0675851304006612e+01 -2 2 -1
2526 842 2 4.0999999999999998e-01 -1.4830143162488644e+01 -9.6181674052198538e+00 -1.3546981634994017e+01 -1 -1 0
897 299 2 4.0999999999999998e-01 -1.4836027263614453e+01 -1.1599804181910779e+01 -9.3635436930831997e+00 -1 3 0
159 53 2 4.0999999999999998e-01 -7.5937104404206099e+00 -1.1008303048918048e+01 -7.5135559244136791e+00 -4 2 -2
2541 847 2 4.0999999999999998e-01 -1.2858273621371140e+01 -9.6023957283790757e+00 -2.7661765464314314e+00 2 4 -1
1696 566 1 -8.1999999999999995e-01 -9.9240088122618157e+00 -9.4471663090248796e+00 -5.9074861168634580e+00 -2 1 1
241 81 1 -8.1999999999999995e-01 -9.4550655311734495e+00 -7.3655378543036401e+00 -4.0164500360309638e+00 -2 2 -1
242 81 2 4.0999999999999998e-01 -9.9042438111010469e+00 -6.4723106958712382e+00 -4.0361218076080743e+00 -2 2 -1
243 81 2 4.0999999999999998e-01 -8.4629985434615662e+00 -7.2399319321495801e+00 -4.0218447827045303e+00 -2 2 -1
947 316 2 4.0999999999999998e-01 -1.1656453513837576e+01 -7.0518303691265336e+00 -1.7645054020718476e+00 -1 1 -2
1698 566 2 4.0999999999999998e-01 -9.1061275266047090e+00 -9.6530448717898309e+00 -6.4447821918764010e+00 -2 1 1
1697 566 2 4.0999999999999998e-01 -9.7343230939964407e+00 -8.6827528074904006e+00 -5.2912928079444530e+00 -2 1 1
948 316 2 4.0999999999999998e-01 -1.2325394052681697e+01 -7.3909095062419929e+00 -3.2150838943642945e+00 -1 1 -2
2540 847 2 4.0999999999999998e-01 -1.1814362136181259e+01 -9.6646312054703358e+00 -4.0203733709568663e+00 2 4 -1
946 316 1 -8.1999999999999995e-01 -1.1897811394187677e+01 -6.6775379493704676e+00 -2.6598569578825053e+00 -1 1 -2
147 49 2 4.0999999999999998e-01 -9.9334135606981881e+00 -8.6327729148082977e+00 -2.7522989927650396e+00 -1 3 -3
2539 847 1 -8.1999999999999995e-01 -1.2627626196542874e+01 -9.2103464168793163e+00 -3.6567392713019053e+00 2 4 -1
330 110 2 4.0999999999999998e-01 -1.2408224126714238e+01 -9.7324389686410857e+00 -3.8191394069327878e-01 0 2 0
1120 374 1 -8.1999999999999995e-01 -1.2333665799989031e+01 -1.4370220284306408e+01 -2.4236377572387280e+00 -2 3 0
828 276 2 4.0999999999999998e-01 -9.1510578618632312e+00 -1.2108309434784180e+01 -6.4095366205680460e+00 -1 2 -2
1073 358 2 4.0999999999999998e-01 -1.1154025633801155e+01 -1.0629506150488041e+01 -6.2538808535510526e+00 -1 3 -1
1121 374 2 4.0999999999999998e-01 -1.3295166266791702e+01 -1.4209127388444816e+01 -2.6462782513729977e+00 -2 3 0
218 73 2 4.0999999999999998e-01 -6.7119654399591777e+00 -5.3306709349860597e+00 -5.1036658083572632e+00 -2 1 -2
826 276 1 -8.1999999999999995e-01 -9.5307179249714338e+00 -1.2842623082629059e+01 -5.8468248458316321e+00 -1 2 -2
2488 830 1 -8.1999999999999995e-01 -1.0107524022541620e+01 -1.2741628005065234e+01 -2.9145274508106933e+00 0 2 2
2490 830 2 4.0999999999999998e-01 -1.0912640273033560e+01 -1.3331203406330925e+01 -2.8497854473794586e+00 0 2 2
827 276 2 4.0999999999999998e-01 -1.0181092650382698e+01 -1.3375280320262622e+01 -6.3883891149430632e+00 -1 2 -2
2489 830 2 4.0999999999999998e-01 -9.9312969273064340e+00 -1.2522310868846008e+01 -3.8741351090246923e+00 0 2 2
2572 858 1 -8.1999999999999995e-01 -1.1049753281743499e+01 -1.4674862782949974e+01 -7.4161495918919291e+00 -2 4 -2
1998 666 2 4.0999999999999998e-01 -1.4754831381830867e+01 -6.6422956341335464e+00 -6.3620971875362624e+00 -1 2 -1
146 49 2 4.0999999999999998e-01 -1.0723242117173072e+01 -9.8147689754743332e+00 -1.9487504447298338e+00 -1 3 -3
145 49 1 -8.1999999999999995e-01 -9.8236652313197101e+00 -9.4711281318949929e+00 -2.2183339405739364e+00 -1 3 -3
329 110 2 4.0999999999999998e-01 -1.1786650611124905e+01 -1.1169223246904641e+01 -8.4659815841843944e-01 0 2 0
328 110 1 -8.1999999999999995e-01 -1.2321864926043666e+01 -1.0377518559846507e+01 -1.1411354308653543e+00 0 2 0
391 131 1 -8.1999999999999995e-01 -1.4155380736475285e+01 -1.0725308464181957e+01 -5.6977221183422806e+00 -1 2 0
392 131 2 4.0999999999999998e-01 -1.3801359159109413e+01 -1.0083300091982249e+01 -5.0176509113809775e+00 -1 2 0
1352 451 2 4.0999999999999998e-01 -1.2312522618898400e+01 -1.4645708368239038e+01 -6.0195353038710664e-01 2 1 -1
393 131 2 4.0999999999999998e-01 -1.3391622626655113e+01 -1.1168178649499639e+01 -6.1673415685393138e+00 -1 2 0
1770 590 2 4.0999999999999998e-01 -1.0234126617491507e+01 -1.2495746274267914e+01 -1.0895641515464902e+00 -1 1 1
850 284 1 -8.1999999999999995e-01 -1.1394224337384575e+01 -5.8004463765199041e+00 -7.1188507663926028e+00 -1 1 0
1072 358 1 -8.1999999999999995e-01 -1.1755038340172479e+01 -1.1221088009935702e+01 -6.7912982903365613e+00 -1 3 -1
1938 646 2 4.0999999999999998e-01 -7.0014802483116414e+00 -6.8554682588747422e+00 -7.3470178542237425e+00 0 1 -2
699 233 2 4.0999999999999998e-01 -8.7701641000726980e+00 -1.4205393802502137e+01 -4.5692484113827376e+00 -1 4 0
873 291 2 4.0999999999999998e-01 -8.4094241647836316e+00 -9.7569345678770922e+00 -3.7087419282919267e+00 -2 1 0
134 45 2 4.0999999999999998e-01 -5.0456895810708513e+00 -1.0977601469158239e+01 -1.5640510953397264e+00 -1 3 2
1997 666 2 4.0999999999999998e-01 -1.3278713440921610e+01 -5.9461341538991519e+00 -6.4174966517496213e+00 -1 2 -1
1996 666 1 -8.1999999999999995e-01 -1.4232977360312770e+01 -5.8165448835597182e+00 -6.1480716462940457e+00 -1 2 -1
797 266 2 4.0999999999999998e-01 -3.1436884997667747e-01 -1.1480172377697130e+01 -4.2483884674822310e+00 -2 3 -2
153 51 2 4.0999999999999998e-01 -8.4842431104784488e-01 -1.0764260467801837e+01 -1.2312754312959093e+00 -4 2 0
2512 838 1 -8.1999999999999995e-01 -1.4878151465256511e+01 -1.4037670259219682e+01 -2.8829889696692739e+00 0 3 -2
1497 499 2 4.0999999999999998e-01 -1.4464244849969639e+01 -8.3861830173543215e+00 -5.5947381696544873e-01 1 1 0
872 291 2 4.0999999999999998e-01 -6.8891987325200184e+00 -1.0352139734169924e+01 -3.6729716975293165e+00 -2 1 0
24 8 2 4.0999999999999998e-01 -6.8396936494085026e-01 -8.5387286474618094e+00 -7.1928201206863003e+00 -4 1 -2
1291 431 1 -8.1999999999999995e-01 -3.5714414104150727e-01 -1.3247522702729185e+01 -2.1990937460515596e+00 -1 3 -2
697 233 1 -8.1999999999999995e-01 -8.3323593685055783e+00 -1.4745805483994255e+01 -3.8507185941989501e+00 -1 4 0
794 265 2 4.0999999999999998e-01 -6.9448096095712968e+00 -5.4037273430958059e+00 -1.0907684976361889e+00 -1 4 -1
400 134 1 -8.1999999999999995e-01 -1.1882122790201503e+01 -7.5914856141352640e+00 -2.4448660937128608e-02 -1 1 -2
1936 646 1 -8.1999999999999995e-01 -6.3015649878842712e+00 -6.8261896639158408e+00 -6.6333903254258075e+00 0 1 -2
1659 553 2 4.0999999999999998e-01 -2.6421757181719112e+00 -5.4741497290289391e+00 -1.0631851491457205e+00 0 1 1
1415 472 2 4.0999999999999998e-01 -1.5807457697615330e+00 -7.7595062889646096e+00 -4.9734931951626606e+00 -2 3 0
2381 794 2 4.0999999999999998e-01 -3.1407313764775431e+00 -7.4210007839096779e+00 -6.8064605019719888e+00 0 1 -1
1414 472 1 -8.1999999999999995e-01 -1.5474532792159632e+00 -7.5720110729513257e+00 -5.9551958047598692e+00 -2 3 0
698 233 2 4.0999999999999998e-01 -8.9261536084532942e+00 -1.4774497076799324e+01 -3.0466116014229634e+00 -1 4 0
851 284 2 4.0999999999999998e-01 -1.0989766579605863e+01 -5.4050313883463001e+00 -6.2941909753242022e+00 -1 1 0
152 51 2 4.0999999999999998e-01 -1.5694821431279475e+00 -9.6358186550511231e+00 -2.9675482601134107e-01 -4 2 0
1293 431 2 4.0999999999999998e-01 -5.6595087024991386e-01 -1.3003839793374315e+01 -3.1462057977072444e+00 -1 3 -2
795 265 2 4.0999999999999998e-01 -5.8751662951041350e+00 -6.2448989244934783e+00 -1.9935018927839447e+00 -1 4 -1
2284 762 1 -8.1999999999999995e-01 -3.3706251579106770e+00 -7.7866712335608783e+00 -3.1092235158291128e+00 0 2 1
918 306 2 4.0999999999999998e-01 -3.7340618415886233e+00 -1.1566673835153619e+01 -3.5024390142311059e+00 0 3 1
917 306 2 4.0999999999999998e-01 -3.8988229023417844e+00 -1.0336776249296728e+01 -4.5639661388233872e+00 0 3 1
1937 646 2 4.0999999999999998e-01 -5.4055790841585640e+00 -7.0102455064683031e+00 -7.0375382941177183e+00 0 1 -2
1035 345 2 4.0999999999999998e-01 -6.6201271364651291e+00 -8.3274402922789239e+00 -3.6656404762148487e+00 -2 3 -1
237 79 2 4.0999999999999998e-01 -5.6771893855000286e+00 -1.0757796628955994e+01 -5.3531031819913171e+00 1 3 -2
1292 431 2 4.0999999999999998e-01 -1.2081906221584493e+00 -1.3327599996251312e+01 -1.6801425274065398e+00 -1 3 -2
871 291 1 -8.1999999999999995e-01 -7.4980146666361795e+00 -9.6936176313099764e+00 -4.1153455894504933e+00 -2 1 0
1657 553 1 -8.1999999999999995e-01 -1.9573127667593297e+00 -5.9746430911250794e+00 -1.5927812175542169e+00 0 1 1
432 144 2 4.0999999999999998e-01 -5.5021538314824205e+00 -1.3239443061554301e+01 -4.6885425197547708e+00 0 2 0
1033 345 1 -8.1999999999999995e-01 -6.2523178454468606e+00 -7.4541066345460578e+00 -3.3462543793977346e+00 -2 3 -1
1658 553 2 4.0999999999999998e-01 -2.4154717957780605e+00 -6.6125669882323095e+00 -2.2117693216183554e+00 0 1 1
798 266 2 4.0999999999999998e-01 -1.7454250082194811e+00 -1.2056944428086661e+01 -4.7832214645792668e+00 -2 3 -2
2286 762 2 4.0999999999999998e-01 -3.2292438206482057e+00 -8.7608270349165611e+00 -3.2853900691920295e+00 0 2 1
1416 472 2 4.0999999999999998e-01 -1.2333232708611188e+00 -6.6345260739244001e+00 -6.1050192605791374e+00 -2 3 0
151 51 1 -8.1999999999999995e-01 -8.7534129049144660e-01 -1.0355312534555669e+01 -3.1911325111187416e-01 -4 2 0
217 73 1 -8.1999999999999995e-01 -7.1998663847623456e+00 -5.0137803894208606e+00 -4.2903172448556575e+00 -2 1 -2
135 45 2 4.0999999999999998e-01 -4.6344681119838942e+00 -9.4386514477510879e+00 -1.2046574274517798e+00 -1 3 2
236 79 2 4.0999999999999998e-01 -5.9499886681689222e+00 -9.2573069830227936e+00 -5.9368372571267400e+00 1 3 -2
431 144 2 4.0999999999999998e-01 -6.4400035133498399e+00 -1.2861982023822781e+01 -3.4061247823056728e+00 0 2 0
430 144 1 -8.1999999999999995e-01 -5.8294180665836688e+00 -1.2494247028314659e+01 -4.1075228484582169e+00 0 2 0
133 45 1 -8.1999999999999995e-01 -5.3699998409797534e+00 -1.0032217381108760e+01 -1.5312694628550787e+00 -1 3 2
796 266 1 -8.1999999999999995e-01 -7.5188266242856017e-01 -1.2149484425353583e+01 -4.8488932052602873e+00 -2 3 -2
793 265 1 -8.1999999999999995e-01 -6.0420528641717990e+00 -5.8338324935976260e+00 -1.0973009682897761e+00 -1 4 -1
2105 702 2 4.0999999999999998e-01 -3.1809579192693924e+00 -7.9503605809610827e+00 -1.2663591278226107e+00 0 1 0
1691 564 2 4.0999999999999998e-01 -4.3325075696654718e+00 -1.3655339750815793e+01 -1.2781228024206612e+00 0 4 0
916 306 1 -8.1999999999999995e-01 -3.2466523507512601e+00 -1.0860213734124319e+01 -4.0156143983914756e+00 0 3 1
2285 762 2 4.0999999999999998e-01 -4.3292700928957846e+00 -7.5540021895194993e+00 -3.2731377390492948e+00 0 2 1
2104 702 1 -8.1999999999999995e-01 -3.0825576426732848e+00 -8.7184844270902957e+00 -6.3366172232959173e-01 0 1 0
1034 345 2 4.0999999999999998e-01 -6.8045497126400480e+00 -6.7056073920177663e+00 -3.7133942841429537e+00 -2 3 -1
1690 564 1 -8.1999999999999995e-01 -3.9274877245483069e+00 -1.2745152142632779e+01 -1.3648424708998483e+00 0 4 0
235 79 1 -8.1999999999999995e-01 -5.3263016580523566e+00 -1.0038814660267910e+01 -5.9530578221875707e+00 1 3 -2
1692 564 2 4.0999999999999998e-01 -3.1642566508290386e+00 -1.2657581783692894e+01 -7.2467637574359500e-01 0 4 0
1947 649 2 4.0999999999999998e-01 -8.4889898084702544e+00 -9.2579601059199668e+00 -1.1644581991780765e+00 0 1 -2
1946 649 2 4.0999999999999998e-01 -6.8878176844662811e+00 -9.3533875035885039e+00 -8.5823027255450945e-01 0 1 -2
1945 649 1 -8.1999999999999995e-01 -7.7753791909777004e+00 -9.0811212445216096e+00 -4.8660071933941396e-01 0 1 -2
1913 638 2 4.0999999999999998e-01 -7.0551187832104274e+00 -1.4013138101339722e+01 -7.2229111615167403e+00 -1 2 0
1496 499 2 4.0999999999999998e-01 -1.4381184787405731e+01 -1.0016984644389868e+01 -5.7434653277789671e-01 1 1 0
921 307 2 4.0999999999999998e-01 -1.2031232108606183e+01 -5.0815847524362425e+00 -3.1595426295635427e+00 1 0 1
1768 590 1 -8.1999999999999995e-01 -1.0749535681762838e+01 -1.2437260980432125e+01 -2.3461628920042266e-01 -1 1 1
926 309 2 4.0999999999999998e-01 -6.0773720853636295e+00 -1.4011089732426870e+01 -5.3755135924065556e-02 -1 2 -1
1495 499 1 -8.1999999999999995e-01 -1.4784268196530297e+01 -9.2240985434328699e+00 -1.1733640530938416e-01 1 1 0
463 155 1 -8.1999999999999995e-01 -1.0313956993732663e+01 -1.0872200690159561e+01 2.1492141474361777e+00 -1 2 -1
464 155 2 4.0999999999999998e-01 -1.0035153078319123e+01 -1.1282701852120438e+01 1.2810205999470323e+00 -1 2 -1
465 155 2 4.0999999999999998e-01 -1.1275259539268131e+01 -1.0601778172788558e+01 2.0965651933563922e+00 -1 2 -1
1381 461 1 -8.1999999999999995e-01 -7.8412452911732036e+00 -9.4457540528596518e+00 3.0234987649776865e+00 -3 1 -2
1383 461 2 4.0999999999999998e-01 -7.7129049474064670e+00 -8.7955975780418925e+00 2.2746141447445982e+00 -3 1 -2
1382 461 2 4.0999999999999998e-01 -8.6457504949268404e+00 -1.0010718371137759e+01 2.8402242232270947e+00 -3 1 -2
402 134 2 4.0999999999999998e-01 -1.2479431353484422e+01 -7.6267119036965205e+00 7.7679065915409673e-01 -1 1 -2
1797 599 2 4.0999999999999998e-01 -1.1770335838945979e+01 -7.6290099762809227e+00 4.8070138665104043e+00 0 0 0
1796 599 2 4.0999999999999998e-01 -1.1382401246192813e+01 -6.4975177546704312e+00 3.6953186657152575e+00 0 0 0
1795 599 1 -8.1999999999999995e-01 -1.2114115580819188e+01 -6.8545565397509005e+00 4.2759392865967332e+00 0 0 0
1519 507 1 -8.1999999999999995e-01 -1.3858872398025060e+01 -6.7497332937845869e+00 2.1944390864608234e+00 -1 2 -1
1785 595 2 4.0999999999999998e-01 -9.0037491536001859e+00 -1.1723929633960749e+01 6.1011672677615305e+00 0 3 0
1520 507 2 4.0999999999999998e-01 -1.3260195486862409e+01 -6.8532151874992948e+00 2.9887188317055067e+00 -1 2 -1
516 172 2 4.0999999999999998e-01 -9.9507059296453626e+00 -5.5333304279763809e+00 1.8559771814009611e+00 0 1 -2
202 68 1 -8.1999999999999995e-01 -1.3571043976839276e+01 -1.0766802786669750e+01 2.4917877759121456e+00 0 1 -1
523 175 1 -8.1999999999999995e-01 -2.5530885791720248e+00 -1.1768470201849770e+01 6.8558378138730252e+00 -1 2 -1
2356 786 1 -8.1999999999999995e-01 -1.4086869764472400e+01 -5.3206562759649731e+00 5.5523398578315035e+00 1 3 1
641 214 2 4.0999999999999998e-01 -1.4599019921424597e+01 -1.1424013570990896e+01 6.0995508815439710e+00 0 2 -2
1521 507 2 4.0999999999999998e-01 -1.4744027192044529e+01 -7.1734233492038735e+00 2.3867684425743949e+00 -1 2 -1
2229 743 2 4.0999999999999998e-01 -2.1023239761926149e+00 -1.3784035474620911e+01 4.8895225598553065e+00 -2 0 -1
1063 355 1 -8.1999999999999995e-01 -1.3283982304477707e+01 -1.0842254364894933e+01 5.2554769113788087e+00 -2 1 -1
514 172 1 -8.1999999999999995e-01 -1.0174800165022752e+01 -5.3909607895982337e+00 2.8200910368574288e+00 0 1 -2
1064 355 2 4.0999999999999998e-01 -1.3298176655819539e+01 -1.0808294291376889e+01 4.2561530845625146e+00 -2 1 -1
1401 467 2 4.0999999999999998e-01 -1.2541356689946758e+01 -1.4184777512834113e+01 5.4614006017686325e+00 1 1 -2
1399 467 1 -8.1999999999999995e-01 -1.2237760575912368e+01 -1.3393292363454069e+01 5.9918565256645184e+00 1 1 -2
1065 355 2 4.0999999999999998e-01 -1.2784666054753455e+01 -1.1655518519287879e+01 5.5542871594816479e+00 -2 1 -1
1400 467 2 4.0999999999999998e-01 -1.2121866037110827e+01 -1.3658198009531075e+01 6.9491424339888130e+00 1 1 -2
554 185 2 4.0999999999999998e-01 -1.0779728775440464e+01 -1.2382488424858526e+01 5.1004946312762858e+00 0 2 -2
204 68 2 4.0999999999999998e-01 -1.3755080711977415e+01 -1.1479165687140698e+01 1.8145341713224408e+00 0 1 -1
203 68 2 4.0999999999999998e-01 -1.4077219844403912e+01 -9.9387946527361475e+00 2.2505588945458985e+00 0 1 -1
1891 631 1 -8.1999999999999995e-01 -1.4165425406727485e+01 -1.3147545501499131e+01 1.2587661381871360e+00 0 3 -2
1893 631 2 4.0999999999999998e-01 -1.4118194513088474e+01 -1.3257445132040266e+01 2.2515874608227886e+00 0 3 -2
1256 419 2 4.0999999999999998e-01 -1.0649178439996284e+01 -9.8498205144636017e+00 6.1452768324545186e+00 0 0 -1
777 259 2 4.0999999999999998e-01 -8.9948449303828149e+00 -1.4409300732273229e+01 3.0588017056514882e+00 0 4 0
1257 419 2 4.0999999999999998e-01 -1.2252329527565252e+01 -9.6791374710964959e+00 5.8856462959157714e+00 0 0 -1
1255 419 1 -8.1999999999999995e-01 -1.1440718575317764e+01 -9.2556081725219830e+00 6.2880310363984133e+00 0 0 -1
555 185 2 4.0999999999999998e-01 -1.0270276145307999e+01 -1.1306189100738083e+01 3.9830547601660999e+00 0 2 -2
1892 631 2 4.0999999999999998e-01 -1.3639291066794630e+01 -1.3874528725461058e+01 8.1753953739037222e-01 0 3 -2
1623 541 2 4.0999999999999998e-01 -5.0614991678114496e+00 -5.4111181772783166e+00 5.5459730131379690e+00 1 3 -1
2274 758 2 4.0999999999999998e-01 -7.4436850175657305e+00 -5.8628638764651395e+00 4.8589583697486116e+00 0 2 -2
2272 758 1 -8.1999999999999995e-01 -8.2373437473445072e+00 -6.3136678602087795e+00 4.4504434158497208e+00 0 2 -2
1713 571 2 4.0999999999999998e-01 -1.5932853498363997e-01 -1.0948177186355604e+01 3.7557225357178421e+00 0 2 0
553 185 1 -8.1999999999999995e-01 -1.0195640418912994e+01 -1.1586829427623226e+01 4.9399629918184598e+00 0 2 -2