LAMMPS data file via write_data, version 15 May 2015, timestep = 18500000

2593 atoms
6 atom types
1728 bonds
4 bond types
864 angles
3 angle types
0 dihedrals
3 dihedral types
0 impropers
1 improper types

-1.4936744547637938e+01 1.4936744547637938e+01 xlo xhi
-1.4936744547637938e+01 1.4936744547637938e+01 ylo yhi
-1.4936744547637938e+01 1.4936744547637938e+01 zlo zhi

Masses

1 15.9994
2 1.00794
3 12.0107
4 1.00794
5 12.0107
6 12.0107

Bond Coeffs # harmonic

1 1000 1
2 469 1.4
3 367 1.08
4 469 0.7

Angle Coeffs # harmonic

1 100 109.47
2 35 120
3 63 120

Dihedral Coeffs # opls

1 0 7.25 0 0
2 0 7.25 0 0
3 0 7.25 0 0

Improper Coeffs # cvff

1 2.5 -1 2

Atoms # full

170 57 2 4.0999999999999998e-01 -1.4123778530591453e+01 -1.4517675101518240e+01 -9.6654587876623950e+00 2 6 5
179 60 2 4.0999999999999998e-01 -9.4937294664800991e+00 -1.2283443943193978e+01 -1.2822003962844395e+01 3 0 -3
178 60 1 -8.1999999999999995e-01 -1.0156346796617395e+01 -1.2408108329158468e+01 -1.2083545424801574e+01 3 0 -3
618 206 2 4.0999999999999998e-01 -1.1721356044245891e+01 -1.2914641636720059e+01 -9.2160514179250619e+00 -4 6 -1
180 60 2 4.0999999999999998e-01 -1.0172902136403248e+01 -1.1589890200224449e+01 -1.1508942123808220e+01 3 0 -3
1494 498 2 4.0999999999999998e-01 -9.0197634219108735e+00 -8.1817739504607463e+00 -1.0985785874104364e+01 1 -4 2
1943 648 2 4.0999999999999998e-01 -1.2175282146978638e+01 -1.1869181643768634e+01 -1.2430884656412896e+01 1 5 0
1890 630 2 4.0999999999999998e-01 -1.2061787035664750e+01 -9.5625747509374452e+00 -1.4059144243679224e+01 -4 8 -1
1585 529 1 -8.1999999999999995e-01 -1.1016955565975529e+01 -9.9221386479599154e+00 -8.9089242078639383e+00 2 3 3
2444 815 2 4.0999999999999998e-01 -9.9980863750058901e+00 -5.9657649580854564e+00 -8.3680385559093224e+00 -2 8 3
2584 862 1 -8.1999999999999995e-01 -9.1888606090529965e+00 -1.4810727848340274e+01 -1.4578270396112249e+01 3 8 4
1034 345 2 4.0999999999999998e-01 -1.0010932834066889e+01 -6.4620228473953318e+00 -1.2986019395855376e+01 -4 8 2
1705 569 1 -8.1999999999999995e-01 -1.4511078306144389e+01 -9.6266729556380461e+00 -7.8966323376313099e+00 -2 9 -2
1033 345 1 -8.1999999999999995e-01 -9.9791249414445922e+00 -7.4094148026749442e+00 -1.2667647356742867e+01 -4 8 2
1035 345 2 4.0999999999999998e-01 -1.0620839820166980e+01 -7.9615965003390770e+00 -1.3199832869840014e+01 -4 8 2
617 206 2 4.0999999999999998e-01 -1.2064133514049235e+01 -1.1325348217404891e+01 -9.0641503769800895e+00 -4 6 -1
1942 648 1 -8.1999999999999995e-01 -1.2814726404425331e+01 -1.1367043738000001e+01 -1.3013029465596967e+01 1 5 0
1586 529 2 4.0999999999999998e-01 -1.0259679238396867e+01 -9.5488593525204308e+00 -9.4447592195598062e+00 2 3 3
1944 648 2 4.0999999999999998e-01 -1.3711123465250981e+01 -1.1332594490968280e+01 -1.2571204164624241e+01 1 5 0
2495 832 2 4.0999999999999998e-01 -8.8015865498497021e+00 -4.9864234121571105e+00 -1.0359564765960201e+01 7 3 3
1626 542 2 4.0999999999999998e-01 -1.2952122156866389e+01 -7.8674499085637999e+00 -1.0503863913051777e+01 3 5 -3
1624 542 1 -8.1999999999999995e-01 -1.3265541682743253e+01 -8.7948687052333661e+00 -1.0299936052926418e+01 3 5 -3
1625 542 2 4.0999999999999998e-01 -1.2582449454828799e+01 -9.4541542137237400e+00 -1.0614024629117017e+01 3 5 -3
2410 804 1 -8.1999999999999995e-01 -8.4220093173414945e+00 -1.3226903218284468e+01 -8.6068623189458826e+00 6 0 -2
7 3 1 -8.1999999999999995e-01 -1.3005197474873796e+01 -1.4833961406059345e+01 -1.3201489887985982e+01 -1 4 3
657 219 2 4.0999999999999998e-01 -1.1707311425540862e+01 -6.2402072030462374e+00 -9.6222040604477357e+00 -1 4 2
655 219 1 -8.1999999999999995e-01 -1.2376755771425175e+01 -5.9386000109120740e+00 -1.0301027606967534e+01 -1 4 2
656 219 2 4.0999999999999998e-01 -1.1983276677233480e+01 -5.2039397359936395e+00 -1.0853632822592353e+01 -1 4 2
2325 775 2 4.0999999999999998e-01 -1.3713840196815307e+01 -5.7330853503934200e+00 -8.7186610762083916e+00 1 8 -1
1350 450 2 4.0999999999999998e-01 -8.1943368809155395e+00 -8.0556029132201239e+00 -1.3058944964481332e+01 3 2 4
1901 634 2 4.0999999999999998e-01 -1.3420550710969065e+01 -5.9709714551450155e+00 -1.2691850056373392e+01 4 4 0
2323 775 1 -8.1999999999999995e-01 -1.4011236532133744e+01 -5.7609464853323136e+00 -7.7643533816494870e+00 1 8 -1
1888 630 1 -8.1999999999999995e-01 -1.1440791113422369e+01 -8.8353924205227408e+00 -1.4351537717070126e+01 -4 8 -1
839 280 2 4.0999999999999998e-01 -9.5726146970665624e+00 -1.4115373531914319e+01 -9.6345221021526246e+00 -8 8 4
616 206 1 -8.1999999999999995e-01 -1.2439955022743042e+01 -1.2250429331073256e+01 -9.0102322064342975e+00 -4 6 -1
1493 498 2 4.0999999999999998e-01 -7.8319787060388268e+00 -9.2299549184360963e+00 -1.0589669912269665e+01 1 -4 2
838 280 1 -8.1999999999999995e-01 -1.0334570855083857e+01 -1.4551152637300012e+01 -1.0113524581245482e+01 -8 8 4
1956 652 2 4.0999999999999998e-01 -1.2256164778605875e+01 -1.4768084323230857e+01 -1.4754575787321823e+01 -5 4 0
1492 498 1 -8.1999999999999995e-01 -8.6842473412362242e+00 -8.8073475825440433e+00 -1.0281505727430412e+01 1 -4 2
8 3 2 4.0999999999999998e-01 -1.3677459767261896e+01 -1.4097812365299864e+01 -1.3279413082090390e+01 -1 4 3
840 280 2 4.0999999999999998e-01 -1.0371156710293373e+01 -1.4216865443616632e+01 -1.1055245116147489e+01 -8 8 4
2585 862 2 4.0999999999999998e-01 -8.7425009482944915e+00 -1.3945702873134413e+01 -1.4349318730918805e+01 3 8 4
2411 804 2 4.0999999999999998e-01 -7.4719275146178719e+00 -1.3532905102214750e+01 -8.5466008025928843e+00 6 0 -2
2412 804 2 4.0999999999999998e-01 -8.7627324920751413e+00 -1.3015232584404687e+01 -7.6908779920983843e+00 6 0 -2
2266 756 1 -8.1999999999999995e-01 -8.2764019442118109e+00 -1.2249535897156198e+01 -1.4108439230562439e+01 -1 4 5
2443 815 1 -8.1999999999999995e-01 -1.0701074468633539e+01 -6.6757980898978477e+00 -8.3282302175812593e+00 -2 8 3
1706 569 2 4.0999999999999998e-01 -1.4439403873438076e+01 -9.5317205866316108e+00 -8.8894922794197697e+00 -2 9 -2
1900 634 1 -8.1999999999999995e-01 -1.4173861641069120e+01 -5.7378567802130398e+00 -1.3306751839989166e+01 4 4 0
1928 643 2 4.0999999999999998e-01 -1.2773418372108798e+01 -1.1795478931583435e+01 -1.4744939673882259e+01 8 4 7
2268 756 2 4.0999999999999998e-01 -8.6193805687483440e+00 -1.1624090123361000e+01 -1.4809229696456155e+01 -1 4 5
1587 529 2 4.0999999999999998e-01 -1.0950058619849502e+01 -9.5967935731093021e+00 -7.9657384337768553e+00 2 3 3
1707 569 2 4.0999999999999998e-01 -1.3600769630938267e+01 -9.5574958963702699e+00 -7.4886167993346238e+00 -2 9 -2
2192 731 2 4.0999999999999998e-01 -4.8096151695132079e+00 -1.2685563541331526e+01 -1.1783604281341487e+01 -1 5 2
489 163 2 4.0999999999999998e-01 -5.0368807186883462e+00 -1.0860816685433381e+01 -8.5453808180999751e+00 -5 2 0
1094 365 2 4.0999999999999998e-01 -5.3657178842505591e+00 -7.2576579868818323e+00 -7.9532558293421598e+00 -4 5 4
2255 752 2 4.0999999999999998e-01 -3.2687501007149002e+00 -1.4301912867852412e+01 -1.2188038991245717e+01 1 5 7
1454 485 2 4.0999999999999998e-01 -2.6346223312899095e+00 -5.9037595504473828e+00 -1.2134653300718412e+01 -1 1 0
2238 746 2 4.0999999999999998e-01 -3.2209574996820027e+00 -5.2929605949999470e+00 -9.6702578237231585e+00 -3 6 4
1738 580 1 -8.1999999999999995e-01 -6.5463299449259225e+00 -6.8102958574766266e+00 -9.7445766860950371e+00 -1 -3 5
1739 580 2 4.0999999999999998e-01 -7.2275425473897057e+00 -7.5107555932328367e+00 -9.5319042487125376e+00 -1 -3 5
1740 580 2 4.0999999999999998e-01 -6.4263795160723376e+00 -6.2108706221777847e+00 -8.9532327090381738e+00 -1 -3 5
571 191 1 -8.1999999999999995e-01 -5.2847834867884522e+00 -1.4737925337617890e+01 -1.4449515555208503e+01 2 8 3
176 59 2 4.0999999999999998e-01 -1.4038023303173297e+00 -5.2512740299825538e+00 -1.3551071023451005e+01 9 4 8
1796 599 2 4.0999999999999998e-01 -7.5838274701267494e-01 -1.4030444906960426e+01 -9.7436492205402629e+00 1 3 4
563 188 2 4.0999999999999998e-01 -5.2768991670317806e+00 -1.4632214504008695e+01 -1.2746026582405932e+01 0 3 2
393 131 2 4.0999999999999998e-01 -6.3979831388398782e+00 -9.2121880911498728e+00 -1.1945509947533386e+01 3 0 4
1349 450 2 4.0999999999999998e-01 -6.7435623725351270e+00 -7.7193152998253431e+00 -1.3728711839634089e+01 3 2 4
1348 450 1 -8.1999999999999995e-01 -7.2611237871795655e+00 -8.3880551340449880e+00 -1.3195006691113825e+01 3 2 4
391 131 1 -8.1999999999999995e-01 -6.2909607568327708e+00 -9.8984077785291351e+00 -1.1226084630450039e+01 3 0 4
1797 599 2 4.0999999999999998e-01 -1.8264916484657920e+00 -1.4229627319504736e+01 -1.0962621560910884e+01 1 3 4
1095 365 2 4.0999999999999998e-01 -5.2650307709151498e+00 -8.8820230871221906e+00 -8.0863871986091809e+00 -4 5 4
904 302 1 -8.1999999999999995e-01 -5.5927330304830551e+00 -1.1512167464780349e+01 -1.4543588871615325e+01 -1 10 0
392 131 2 4.0999999999999998e-01 -5.5592714875602809e+00 -1.0532374289581959e+01 -1.1476367070090983e+01 3 0 4
1413 471 2 4.0999999999999998e-01 -2.7714177645532452e+00 -1.1405548968720515e+01 -8.8015739173103498e+00 3 8 -2
1653 551 2 4.0999999999999998e-01 -5.5890668179795355e-01 -1.0715656369711962e+01 -9.4762731323239429e+00 5 7 -1
488 163 2 4.0999999999999998e-01 -6.1022389865840871e+00 -1.0270123267058612e+01 -9.6328167694728268e+00 -5 2 0
2254 752 1 -8.1999999999999995e-01 -2.3560312500639835e+00 -1.4519227446029253e+01 -1.2533932977186907e+01 1 5 7
562 188 1 -8.1999999999999995e-01 -4.9593285130326112e+00 -1.4384752174369892e+01 -1.1830693160191625e+01 0 3 2
200 67 2 4.0999999999999998e-01 -4.8430454849025235e+00 -5.3037600413312287e+00 -1.2001648112435614e+01 -5 3 -1
1795 599 1 -8.1999999999999995e-01 -1.7247733123188240e+00 -1.4150068891523173e+01 -9.9710330369776639e+00 1 3 4
2237 746 2 4.0999999999999998e-01 -2.7146412658195551e+00 -5.1824312517132611e+00 -8.1217582386766942e+00 -3 6 4
2256 752 2 4.0999999999999998e-01 -2.2108174479395810e+00 -1.4053577022252886e+01 -1.3406862886920937e+01 1 5 7
1455 485 2 4.0999999999999998e-01 -1.9982467477235488e+00 -6.4668112879714528e+00 -1.0740227703770357e+01 -1 1 0
1453 485 1 -8.1999999999999995e-01 -2.8036524240567573e+00 -6.0481518777447700e+00 -1.1159715495960167e+01 -1 1 0
199 67 1 -8.1999999999999995e-01 -5.7674184968891531e+00 -5.6545563826405907e+00 -1.2151315897582204e+01 -5 3 -1
2564 855 2 4.0999999999999998e-01 -5.2256587427130210e+00 -1.3026902953344168e+01 -7.7821465406592480e+00 2 5 1
2267 756 2 4.0999999999999998e-01 -7.3479680261681928e+00 -1.1983228938930758e+01 -1.3849566590681805e+01 -1 4 5
13 5 1 -8.1999999999999995e-01 -3.3052466507555422e-01 -6.8417978680340727e+00 -9.6801132592769896e+00 2 5 -1
201 67 2 4.0999999999999998e-01 -6.0276854056452862e+00 -6.2448108390091139e+00 -1.1387257747695120e+01 -5 3 -1
1411 471 1 -8.1999999999999995e-01 -3.3105155110319817e+00 -1.2196313872375745e+01 -8.5117661731830072e+00 3 8 -2
630 210 2 4.0999999999999998e-01 -1.8190763714393423e+00 -9.2607523030200820e+00 -7.9021485387584915e+00 -1 8 2
175 59 1 -8.1999999999999995e-01 -2.2904485473277170e+00 -5.6289146865459401e+00 -1.3817848030805040e+01 9 4 8
2193 731 2 4.0999999999999998e-01 -3.6168562108938911e+00 -1.1611057050583511e+01 -1.1484964438871454e+01 -1 5 2
2191 731 1 -8.1999999999999995e-01 -4.4928034907431407e+00 -1.1751205404041478e+01 -1.1946482391974621e+01 -1 5 2
1412 471 2 4.0999999999999998e-01 -2.9985769975182919e+00 -1.3010120052999900e+01 -9.0020088667818960e+00 3 8 -2
1652 551 2 4.0999999999999998e-01 -1.5524567486641150e+00 -1.0267944733262681e+01 -1.0692347300053104e+01 5 7 -1
487 163 1 -8.1999999999999995e-01 -5.8957551564922479e+00 -1.0361393157414401e+01 -8.6586718706993082e+00 -5 2 0
553 185 1 -8.1999999999999995e-01 -2.7379290570993629e+00 -1.3009512484292241e+01 -1.4780601216582332e+01 1 4 0
84 28 2 4.0999999999999998e-01 -1.0479627025915992e+00 -1.1733745373254461e+01 -1.2659178612147180e+01 -3 8 3
906 302 2 4.0999999999999998e-01 -5.1277363845103423e+00 -1.1645862465771419e+01 -1.3668473029066769e+01 -1 10 0
2563 855 1 -8.1999999999999995e-01 -5.9259326515724382e+00 -1.3704873478489422e+01 -7.5587714591463460e+00 2 5 1
720 240 2 4.0999999999999998e-01 -5.2797143568023372e+00 -6.6428956070146707e+00 -1.4076689555386723e+01 5 4 1
82 28 1 -8.1999999999999995e-01 -1.5801131904766041e+00 -1.0919869414227954e+01 -1.2426056725428792e+01 -3 8 3
83 28 2 4.0999999999999998e-01 -2.0202518105814420e+00 -1.0562240882100149e+01 -1.3249648770262381e+01 -3 8 3
1651 551 1 -8.1999999999999995e-01 -1.5059171425575002e+00 -1.0510670213900029e+01 -9.7234085015968645e+00 5 7 -1
629 210 2 4.0999999999999998e-01 -1.3782132484459186e+00 -7.8543845107465895e+00 -8.6051373104555431e+00 -1 8 2
628 210 1 -8.1999999999999995e-01 -1.7737832770485777e+00 -8.2686524727356350e+00 -7.7854846782015033e+00 -1 8 2
235 79 1 -8.1999999999999995e-01 -6.4524522928896104e+00 -5.3673511252697086e+00 -7.5195864558573815e+00 0 4 4
1093 365 1 -8.1999999999999995e-01 -5.1324566872604009e+00 -8.1032987047551543e+00 -7.4732506220826211e+00 -4 5 4
1588 530 1 -8.1999999999999995e-01 -8.9643404444228469e+00 -1.3483279715967734e+01 -5.9640192089151203e+00 -4 7 -2
882 294 2 4.0999999999999998e-01 -9.6201569976543713e+00 -1.0276487242582263e+01 -6.2887640316396851e+00 -5 5 3
1881 627 2 4.0999999999999998e-01 -9.6905517271492059e+00 -5.6716554608010359e+00 -1.1362142161219726e+00 3 0 -1
1391 464 2 4.0999999999999998e-01 -1.1124194947323572e+01 -8.1696033867865090e+00 -5.3600470077604445e+00 4 4 3
1829 610 2 4.0999999999999998e-01 -1.4528968939571300e+01 -5.9620260416705637e+00 -7.0615720960904582e-01 3 9 4
1269 423 2 4.0999999999999998e-01 -1.4320320716173764e+01 -1.3517450848014418e+01 -3.1626654389379087e+00 3 11 1
1259 420 2 4.0999999999999998e-01 -1.2655084004227829e+01 -9.2245820484951686e+00 -1.6006151425514794e+00 6 0 1
627 209 2 4.0999999999999998e-01 -8.8870149605108182e+00 -1.2709678908612879e+01 -1.8579088068538354e+00 -3 6 5
2008 670 1 -8.1999999999999995e-01 -1.1081577707958157e+01 -1.2742553330335543e+01 -4.1708948436261792e+00 5 5 5
1590 530 2 4.0999999999999998e-01 -9.4043141311657621e+00 -1.3421614755499544e+01 -5.0681706669426347e+00 -4 7 -2
2009 670 2 4.0999999999999998e-01 -1.1130806110629358e+01 -1.3049424546068481e+01 -3.2204577712746794e+00 5 5 5
1600 534 1 -8.1999999999999995e-01 -1.4231860684399431e+01 -9.9326282155332493e+00 -2.0593126281968175e+00 -2 2 5
881 294 2 4.0999999999999998e-01 -1.0952652955482957e+01 -1.1060286714966235e+01 -5.7628963815385408e+00 -5 5 3
2556 852 2 4.0999999999999998e-01 -7.8454625933791871e+00 -1.2390091903048123e+01 -4.9407492562629152e+00 -2 5 7
880 294 1 -8.1999999999999995e-01 -1.0611239159467006e+01 -1.0213864455977685e+01 -6.1714670477877807e+00 -5 5 3
2010 670 2 4.0999999999999998e-01 -1.1959180164565726e+01 -1.2908445625384847e+01 -4.6205810670585059e+00 5 5 5
1572 524 2 4.0999999999999998e-01 -1.0502433013779999e+01 -9.2256310247120012e+00 -2.5756202948976679e+00 4 2 9
1258 420 1 -8.1999999999999995e-01 -1.1746808272888192e+01 -9.0317701936969783e+00 -1.2294240879850094e+00 6 0 1
1260 420 2 4.0999999999999998e-01 -1.1755299366320926e+01 -9.1697850559045637e+00 -2.3906870029611582e-01 6 0 1
230 77 2 4.0999999999999998e-01 -7.7052278817941318e+00 -9.1786263799799812e+00 -6.4141732562163014e+00 0 5 -3
1571 524 2 4.0999999999999998e-01 -1.0508499039978208e+01 -1.0078208224673180e+01 -3.9682793331766479e+00 4 2 9
1880 627 2 4.0999999999999998e-01 -1.0237778791239549e+01 -6.7786161149589415e+00 -2.2046731300831031e+00 3 0 -1
1570 524 1 -8.1999999999999995e-01 -1.0051951329942010e+01 -9.3480967936861319e+00 -3.4599236415446271e+00 4 2 9
1338 446 2 4.0999999999999998e-01 -1.3020540718799626e+01 -7.3081422535350606e+00 -1.8707484424821761e+00 3 1 -1
1336 446 1 -8.1999999999999995e-01 -1.3374081150959089e+01 -6.4013565124243179e+00 -2.1002540079068144e+00 3 1 -1
1337 446 2 4.0999999999999998e-01 -1.3411007895725826e+01 -6.2998113724544531e+00 -3.0943611655554744e+00 3 1 -1
243 81 2 4.0999999999999998e-01 -1.0986558040853895e+01 -1.4418683612930264e+01 -8.4467309438027449e-01 -2 6 2
1601 534 2 4.0999999999999998e-01 -1.3836288285718483e+01 -1.0815015696432846e+01 -2.3139473126891499e+00 -2 2 5
1589 530 2 4.0999999999999998e-01 -9.0464701417986291e+00 -1.4417094226816724e+01 -6.3121128555477704e+00 -4 7 -2
2421 807 2 4.0999999999999998e-01 -1.4094141057789068e+01 -1.3595912241848065e+01 -5.2524095583680879e+00 2 5 3
2340 780 2 4.0999999999999998e-01 -8.3035929634260395e+00 -9.0007108193227445e+00 -3.7203368537204824e+00 1 4 -6
625 209 1 -8.1999999999999995e-01 -8.0781829803253800e+00 -1.2216284552422707e+01 -1.5381012690598457e+00 -3 6 5
2419 807 1 -8.1999999999999995e-01 -1.3648183072768136e+01 -1.2953375269197963e+01 -5.8754599104749499e+00 2 5 3
2420 807 2 4.0999999999999998e-01 -1.3454900094802769e+01 -1.3410562290916005e+01 -6.7435300321515843e+00 2 5 3
1268 423 2 4.0999999999999998e-01 -1.3939210595212453e+01 -1.3138150553550698e+01 -1.6208125867663572e+00 3 11 1
1879 627 1 -8.1999999999999995e-01 -9.8317541302238425e+00 -5.8701324358263225e+00 -2.1060558538798393e+00 3 0 -1
1267 423 1 -8.1999999999999995e-01 -1.4075575202386140e+01 -1.2772903305149969e+01 -2.5416400144936482e+00 3 11 1
1365 455 2 4.0999999999999998e-01 -7.5724701101296361e+00 -7.3745060142964052e+00 -4.9311921113512440e+00 1 1 0
168 56 2 4.0999999999999998e-01 -1.0228674103254782e+01 -4.9995891490111593e+00 -3.6268750711862907e+00 -1 1 0
370 124 1 -8.1999999999999995e-01 -1.4062955418235374e+01 -6.3877086815583741e+00 -4.5957847538830769e+00 0 4 -3
241 81 1 -8.1999999999999995e-01 -1.0417215464230836e+01 -1.4230977497569510e+01 -1.6450101864215991e+00 -2 6 2
167 56 2 4.0999999999999998e-01 -1.0741283677742716e+01 -5.1338326134012018e+00 -5.1714248467658948e+00 -1 1 0
2445 815 2 4.0999999999999998e-01 -1.0876827172695180e+01 -6.9176884976272728e+00 -7.3740163857917995e+00 -2 8 3
372 124 2 4.0999999999999998e-01 -1.4118137733626439e+01 -5.6636247953247416e+00 -5.2832303256370921e+00 0 4 -3
1392 464 2 4.0999999999999998e-01 -1.2569082486061188e+01 -7.4098103256832699e+00 -5.3221224720924276e+00 4 4 3
354 118 2 4.0999999999999998e-01 -1.4680204205704513e+01 -1.1543258978484641e+01 -5.6018257636299058e+00 -5 6 -5
1390 464 1 -8.1999999999999995e-01 -1.1632944579010818e+01 -7.3668596821237013e+00 -5.6710136819403392e+00 4 4 3
1176 392 2 4.0999999999999998e-01 -8.6215777981795068e+00 -1.0874437357367011e+01 -4.8305645586951407e-01 3 4 2
2555 852 2 4.0999999999999998e-01 -7.6378329063460813e+00 -1.0784650378317414e+01 -4.7265734584729202e+00 -2 5 7
386 129 2 4.0999999999999998e-01 -8.0821376041259327e+00 -5.3679896994783842e+00 -2.6096610258564166e+00 -2 5 -4
1363 455 1 -8.1999999999999995e-01 -7.6335732460132535e+00 -6.4986505699133392e+00 -5.4098022421047673e+00 1 1 0
1364 455 2 4.0999999999999998e-01 -7.5074736340449091e+00 -5.7522713420686173e+00 -4.7563950493365148e+00 1 1 0
229 77 1 -8.1999999999999995e-01 -7.9469225950364253e+00 -1.0122576156132441e+01 -6.6388207792418825e+00 0 5 -3
1602 534 2 4.0999999999999998e-01 -1.4824415064116868e+01 -1.0050497437506586e+01 -1.2625001278462928e+00 -2 2 5
2324 775 2 4.0999999999999998e-01 -1.3905707123804104e+01 -6.6897909785502723e+00 -7.4093386307727629e+00 1 8 -1
1826 609 2 4.0999999999999998e-01 -1.6980640124992696e-01 -8.3918859015422704e+00 -4.2304527681090125e+00 0 5 3
626 209 2 4.0999999999999998e-01 -7.3746126608606515e+00 -1.2233723676162610e+01 -2.2484593930176580e+00 -3 6 5
2134 712 1 -8.1999999999999995e-01 -4.8101164823147720e+00 -1.4607631140848694e+01 -1.7655232622467842e+00 -5 6 3
2338 780 1 -8.1999999999999995e-01 -7.3397108727621072e+00 -8.7544054477788045e+00 -3.8212773682250649e+00 1 4 -6
375 125 2 4.0999999999999998e-01 -2.0550729601351847e-01 -1.2852854482734703e+01 -6.5952891105273430e+00 -1 8 2
756 252 2 4.0999999999999998e-01 -6.3464882276930545e+00 -8.0526758311536817e+00 -6.6671204031896103e-01 -1 4 4
910 304 1 -8.1999999999999995e-01 -2.5646150448603944e+00 -1.4161371303245664e+01 -5.0242995752839477e+00 -3 5 -3
385 129 1 -8.1999999999999995e-01 -7.2114490243669902e+00 -5.0946205512890330e+00 -3.0184332167756729e+00 -2 5 -4
867 289 2 4.0999999999999998e-01 -2.7624483377884594e+00 -6.9474098798509836e+00 -2.6453882405387610e+00 -2 9 2
373 125 1 -8.1999999999999995e-01 -2.2007953405412017e-01 -1.3631188164280283e+01 -5.9676679509254118e+00 -1 8 2
755 252 2 4.0999999999999998e-01 -7.3118267012897897e+00 -9.3654945217174479e+00 -5.6158079229075497e-01 -1 4 4
2554 852 1 -8.1999999999999995e-01 -7.4651032269599185e+00 -1.1689362570029324e+01 -4.3372352319297924e+00 -2 5 7
1140 380 2 4.0999999999999998e-01 -1.1260815645532993e+00 -1.1797425602767193e+01 -3.0720772188495449e+00 -1 4 3
912 304 2 4.0999999999999998e-01 -2.5802424132518507e+00 -1.3932327905509082e+01 -4.0510478563686885e+00 -3 5 -3
2577 859 2 4.0999999999999998e-01 -2.4755330674073832e+00 -6.9607858591482819e+00 -6.7126321118416215e+00 -3 5 -1
374 125 2 4.0999999999999998e-01 -1.1310323999232264e+00 -1.3717070721344385e+01 -5.5642908713666941e+00 -1 8 2
1139 380 2 4.0999999999999998e-01 -1.2052723234808322e+00 -1.0410598211177799e+01 -3.9304841496811047e+00 -1 4 3
1736 579 2 4.0999999999999998e-01 -8.5500824739379055e-01 -6.6044797492999123e+00 -9.8076196118530845e-01 -1 8 3
911 304 2 4.0999999999999998e-01 -3.4019167974243292e+00 -1.3829085220954671e+01 -5.4583914328675398e+00 -3 5 -3
236 79 2 4.0999999999999998e-01 -6.8886627822350182e+00 -5.7745647526029327e+00 -6.7172015724713816e+00 0 4 4
398 133 2 4.0999999999999998e-01 -4.1596184341050240e+00 -1.1414310875447031e+01 -6.4821770841511341e+00 2 7 -4
2565 855 2 4.0999999999999998e-01 -6.0472715813289906e+00 -1.3744369269025189e+01 -6.5669847156396344e+00 2 5 1
397 133 1 -8.1999999999999995e-01 -4.5983354278266475e+00 -1.1735329512992571e+01 -5.6428925977330131e+00 2 7 -4
2506 836 1 -8.1999999999999995e-01 -2.4515059996768862e-01 -1.2667743032894403e+01 -7.4196437967125917e-01 1 5 -1
1138 380 1 -8.1999999999999995e-01 -6.4686435959562338e-01 -1.0949949677532777e+01 -3.3002424830688017e+00 -1 4 3
649 217 1 -8.1999999999999995e-01 -2.2666993433082805e+00 -1.3396131728720642e+01 -2.3134539666201146e+00 -3 8 4
1717 573 1 -8.1999999999999995e-01 -6.1094529915653801e+00 -1.4651739048220309e+01 -4.5739582796055380e+00 5 6 4
651 217 2 4.0999999999999998e-01 -1.6366669095811321e+00 -1.3394524026133761e+01 -1.5369357573655691e+00 -3 8 4
1131 377 2 4.0999999999999998e-01 -2.0850644796567899e+00 -8.2795357303839996e+00 -5.4876395724669305e+00 -1 11 3
2339 780 2 4.0999999999999998e-01 -6.9102930156226812e+00 -8.7120389108858998e+00 -2.9192078661389651e+00 1 4 -6
231 77 2 4.0999999999999998e-01 -7.3406672771673591e+00 -1.0459451531024850e+01 -7.3591634065255018e+00 0 5 -3
754 252 1 -8.1999999999999995e-01 -6.6413364124166723e+00 -8.8884838876742140e+00 -1.1297600566156873e+00 -1 4 4
2576 859 2 4.0999999999999998e-01 -3.7823687464881708e+00 -6.7321526968154135e+00 -5.7606178016481628e+00 -3 5 -1
650 217 2 4.0999999999999998e-01 -3.1052067302768993e+00 -1.3879106955129952e+01 -2.0613344173953454e+00 -3 8 4
249 83 2 4.0999999999999998e-01 -5.1677478838281221e+00 -5.7525004278433709e+00 -2.9679283930233566e+00 2 -2 -3
1719 573 2 4.0999999999999998e-01 -5.6872271580082323e+00 -1.4022777815485249e+01 -3.9212277915926528e+00 5 6 4
2383 795 1 -8.1999999999999995e-01 -4.9899915758216355e+00 -8.5256646246425500e+00 -4.9277992892126719e+00 1 5 0
2384 795 2 4.0999999999999998e-01 -5.2023032810266177e+00 -8.4007169235258150e+00 -5.8969411093884094e+00 1 5 0
2385 795 2 4.0999999999999998e-01 -5.8392215670444259e+00 -8.6423135593112512e+00 -4.4128959324390920e+00 1 5 0
2575 859 1 -8.1999999999999995e-01 -2.9055674439709858e+00 -6.3479957082355973e+00 -6.0496972097680732e+00 -3 5 -1
248 83 2 4.0999999999999998e-01 -4.8095092913544697e+00 -6.9829250638806313e+00 -3.9799283894180846e+00 2 -2 -3
247 83 1 -8.1999999999999995e-01 -4.4299718534328996e+00 -6.2238402891384350e+00 -3.4510942895084895e+00 2 -2 -3
1130 377 2 4.0999999999999998e-01 -3.3708058470141804e+00 -8.9735957311824563e+00 -4.7585485814094568e+00 -1 11 3
399 133 2 4.0999999999999998e-01 -5.2960379492469514e+00 -1.1077675549184132e+01 -5.3589445961002191e+00 2 7 -4
1129 377 1 -8.1999999999999995e-01 -2.3724989501233491e+00 -8.9610119331086793e+00 -4.8146643615156837e+00 -1 11 3
865 289 1 -8.1999999999999995e-01 -1.8889377879671763e+00 -6.5254109185097882e+00 -2.4028594541446484e+00 -2 9 2
866 289 2 4.0999999999999998e-01 -1.5242755193126722e+00 -6.0354269876992408e+00 -3.1946050969303990e+00 -2 9 2
1735 579 1 -8.1999999999999995e-01 -1.4304005523490027e-01 -6.6150825169942937e+00 -2.7868439910285048e-01 -1 8 3
1155 385 2 4.0999999999999998e-01 -4.6201447748492050e+00 -9.2213085969970408e+00 -8.4822302237457770e-01 1 4 0
219 73 2 4.0999999999999998e-01 -4.9950282534422019e+00 -6.0548854480404355e+00 -5.2333175128363685e-01 -4 1 3
2136 712 2 4.0999999999999998e-01 -4.5004211530554379e+00 -1.4788461757914067e+01 -8.3208174856510553e-01 -5 6 3
2507 836 2 4.0999999999999998e-01 -5.2002508938578274e-01 -1.2030283549403876e+01 -2.2232869073450345e-02 1 5 -1
189 63 2 4.0999999999999998e-01 -3.2490260775891162e+00 -5.0154067966675946e+00 -4.0517809432529432e+00 3 3 3
1154 385 2 4.0999999999999998e-01 -3.2508171569316620e+00 -8.5419294539822204e+00 -2.7393240261250362e-01 1 4 0
1153 385 1 -8.1999999999999995e-01 -3.8155383972849961e+00 -9.3671641772982355e+00 -2.7267220809041604e-01 1 4 0
751 251 1 -8.1999999999999995e-01 -8.4370786573317318e+00 -1.3589434838048403e+01 5.9212343350571626e+00 0 0 5
509 170 2 4.0999999999999998e-01 -1.2744842167684654e+01 -1.1744529821199105e+01 4.2528313220416560e+00 0 5 0
753 251 2 4.0999999999999998e-01 -8.2447680055280124e+00 -1.2612849849576373e+01 6.0172674175577132e+00 0 0 5
875 292 2 4.0999999999999998e-01 -1.3380158867600242e+01 -1.0317664424754440e+01 6.4325064071943476e+00 -2 3 -2
461 154 2 4.0999999999999998e-01 -1.1825271697465112e+01 -1.0392204747829551e+01 1.1092703823553567e+00 -4 4 5
508 170 1 -8.1999999999999995e-01 -1.2786864843916542e+01 -1.2266690156737457e+01 3.4010645190027393e+00 0 5 0
460 154 1 -8.1999999999999995e-01 -1.1206443033928073e+01 -9.6228720670653978e+00 1.2677074197603009e+00 -4 4 5
1872 624 2 4.0999999999999998e-01 -1.0446722738840553e+01 -8.9581796045170456e+00 4.1657870765386296e+00 -4 3 1
510 170 2 4.0999999999999998e-01 -1.2005369781527545e+01 -1.2888647401214378e+01 3.3524983811375488e+00 0 5 0
1871 624 2 4.0999999999999998e-01 -1.1949601429010656e+01 -8.3341187733662991e+00 4.3011665275325814e+00 -4 3 1
462 154 2 4.0999999999999998e-01 -1.1228204635107028e+01 -9.3714160490180340e+00 2.2352921964987811e+00 -4 4 5
1870 624 1 -8.1999999999999995e-01 -1.1133860681619101e+01 -8.3809290555748337e+00 3.7247120116790899e+00 -4 3 1
902 301 2 4.0999999999999998e-01 -1.0487345627247052e+01 -6.2287625286052801e+00 6.8971459898508964e+00 0 2 2
874 292 1 -8.1999999999999995e-01 -1.3013619226509702e+01 -9.4131888861491717e+00 6.2145690638360680e+00 -2 3 -2
1202 401 2 4.0999999999999998e-01 -9.5213217531726535e+00 -1.3013846722532826e+01 2.5445449154004418e+00 0 4 5
1832 611 2 4.0999999999999998e-01 -9.8517671325870033e+00 -7.0128025562725487e+00 3.5214973119954838e+00 2 2 3
1831 611 1 -8.1999999999999995e-01 -9.0059007345654809e+00 -6.4915138694971741e+00 3.6341567625760032e+00 2 2 3
191 64 2 4.0999999999999998e-01 -1.1320402541002730e+01 -9.8334505800912346e+00 6.9847650739067060e+00 2 4 -2
2568 856 2 4.0999999999999998e-01 -9.6630532398278461e+00 -1.0031086275937939e+01 5.9768146429868256e+00 -2 7 3
1111 371 1 -8.1999999999999995e-01 -1.3279059152613442e+01 -1.1674224634046558e+01 8.1712148219060765e-01 0 2 -3
1113 371 2 4.0999999999999998e-01 -1.4175530611173354e+01 -1.1288483340930650e+01 5.9925318564567043e-01 0 2 -3
752 251 2 4.0999999999999998e-01 -8.9475768759971146e+00 -1.3908693562775992e+01 6.7196010718239751e+00 0 0 5
903 301 2 4.0999999999999998e-01 -9.2656476898320861e+00 -7.2992710512514023e+00 7.0641475687575497e+00 0 2 2
901 301 1 -8.1999999999999995e-01 -9.5608773200994932e+00 -6.4628100527564563e+00 6.6025238358018559e+00 0 2 2
2567 856 2 4.0999999999999998e-01 -8.4007061531815843e+00 -1.0278967223116350e+01 4.9711015871578947e+00 -2 7 3
2566 856 1 -8.1999999999999995e-01 -9.3458239283099473e+00 -9.9579548126502146e+00 5.0313299021214473e+00 -2 7 3
1112 371 2 4.0999999999999998e-01 -1.3169769187255818e+01 -1.1723543704093164e+01 1.8098688712884989e+00 0 2 -3
1342 448 1 -8.1999999999999995e-01 -1.3752039993225537e+01 -1.4461293677605328e+01 6.2195445519835939e+00 -5 0 -2
1833 611 2 4.0999999999999998e-01 -8.9117611258602132e+00 -6.2113700644227841e+00 4.5894479109809740e+00 2 2 3
2293 765 1 -8.1999999999999995e-01 -1.3436486756735608e+01 -5.4397423893039036e+00 4.1846412622535301e+00 2 6 0
1520 507 2 4.0999999999999998e-01 -1.4097606470700416e+01 -6.9165739190703590e+00 4.5310578502078211e+00 -2 6 -3
1201 401 1 -8.1999999999999995e-01 -1.0142111685380467e+01 -1.3399490577018424e+01 3.2270569570399505e+00 0 4 5
2088 696 2 4.0999999999999998e-01 -1.2834051351087776e+01 -1.3515473904529401e+01 5.8958756236052778e-01 0 4 2
1261 421 1 -8.1999999999999995e-01 -9.3444308972162009e+00 -5.4080593942177462e+00 7.3204388601355674e-01 0 4 1
1203 401 2 4.0999999999999998e-01 -9.6490839872416281e+00 -1.3537087077167506e+01 4.0860766947948068e+00 0 4 5
876 292 2 4.0999999999999998e-01 -1.3598868125372100e+01 -8.9713378711160203e+00 5.5347342293295139e+00 -2 3 -2
1344 448 2 4.0999999999999998e-01 -1.3690110181684293e+01 -1.4487474201827341e+01 5.2218455541955091e+00 -5 0 -2
1175 392 2 4.0999999999999998e-01 -9.3857885606080487e+00 -9.9946736765557382e+00 6.6080615240267093e-01 3 4 2
1174 392 1 -8.1999999999999995e-01 -8.4939808594032264e+00 -1.0249617537397793e+01 2.8716639029175361e-01 3 4 2
2522 841 2 4.0999999999999998e-01 -1.3899019144005479e+01 -1.2851050457363518e+01 7.0483965629225818e+00 0 3 2
1262 421 2 4.0999999999999998e-01 -9.5200676578628194e+00 -5.9179277086098416e+00 1.5741305986736958e+00 0 4 1