2593
Atoms. Timestep: 1000000
O 12.529 8.52249 -7.96403
H 12.4596 7.97265 -8.79647
H 13.4752 8.82169 -7.84008
O -4.32978 3.54379 3.594
H -3.44996 3.80075 3.99397
H -4.30512 3.6993 2.60643
O 12.0607 3.9758 5.97233
H 12.8508 4.24781 5.42289
H 11.2831 3.79345 5.37056
O 0.155316 -9.04677 9.66709
H 0.482662 -8.44505 10.3957
H 0.372884 -9.99575 9.89554
O 10.9266 10.5268 5.38392
H 11.5434 10.3657 6.15437
H 10.036 10.1156 5.57835
O -9.72588 -12.0494 -10.3671
H -9.45515 -11.0946 -10.49
H -10.2073 -12.3672 -11.184
O 11.8058 9.05439 0.893502
H 12.2467 9.66946 0.239717
H 12.2259 8.14877 0.834626
O 2.12607 -8.43186 -6.56814
H 2.08254 -7.47913 -6.86899
H 1.20023 -8.80512 -6.50821
O -0.335473 2.9059 7.79437
H -1.18088 2.45076 7.51469
H -0.111026 2.6445 8.73318
O 10.7754 -8.04933 -9.40096
H 11.6008 -8.19602 -8.85569
H 10.1394 -7.46816 -8.8932
O 5.649 -13.0464 -9.27482
H 5.32664 -13.9767 -9.45025
H 6.41377 -13.0745 -8.63106
O 14.2703 13.288 8.25472
H 14.4969 12.9297 9.16048
H 13.2786 13.3881 8.17438
O -14.0384 -7.90566 -10.6513
H 14.9126 -7.44291 -10.6441
H -14.1768 -8.8924 -10.5659
O 3.64655 13.2326 -13.3827
H 3.70975 12.4358 -12.7817
H 2.7153 13.5962 -13.3573
O 5.22819 10.208 -6.4983
H 5.7085 10.3591 -7.36233
H 5.8108 9.67912 -5.88111
O -11.1627 11.0068 0.257106
H -11.9782 11.0162 0.835767
H -11.3638 10.5226 -0.594505
O 9.42871 -5.83168 13.4197
H 10.2485 -5.55037 13.9185
H 9.58678 -5.73477 12.437
O -2.43995 11.1965 4.01462
H -3.00758 11.4101 3.21948
H -2.9975 11.2403 4.84365
O 13.7303 -2.37253 5.76385
H 13.2017 -3.00544 6.32959
H 13.7491 -1.4724 6.19917
O 13.6471 1.85253 7.13736
H 12.8614 2.46801 7.2005
H 14.1106 1.99241 6.26234
O 8.91156 14.2147 -2.36203
H 8.05276 14.569 -1.99182
H 8.87496 13.2158 -2.39151
O -2.24985 -8.10856 10.6735
H -1.44705 -8.45323 10.1869
H -1.97285 -7.76106 11.5694
O 3.87976 -14.0159 9.72225
H 3.86677 14.8383 9.90358
H 4.58226 -13.5821 10.2866
O 8.39401 -12.0417 14.5505
H 7.55718 -11.688 -14.8691
H 9.18773 -11.7049 -14.7804
O 13.9173 1.41544 13.1528
H 14.0103 2.04093 12.3781
H 13.8814 1.94084 14.0029
O -3.08638 1.44207 8.593
H -3.2987 0.469047 8.68373
H -3.00627 1.67684 7.62422
O -4.14898 12.0373 -11.6596
H -3.25493 11.9303 -12.0947
H -4.24181 12.971 -11.3138
O -1.71498 -12.787 -5.38013
H -1.41756 -11.8526 -5.57651
H -1.57319 -12.985 -4.41019
O 4.35089 -5.19793 8.12505
H 4.0217 -6.12822 7.96294
H 3.62783 -4.65908 8.55738
O -11.6713 5.41856 -10.2319
H -11.8819 4.94 -9.37946
H -12.47 5.39527 -10.8333
O 11.9692 7.88486 6.5742
H 11.366 7.28398 7.09877
H 12.2727 8.64107 7.15395
O 5.55932 14.4512 -5.97245
H 6.2598 13.7642 -5.77885
H 5.45105 14.5472 -6.96197
O -9.01837 -7.21828 10.3741
H -8.68453 -7.19825 9.43168
H -9.29365 -8.15017 10.6105
O -13.729 13.1467 5.83484
H -12.8745 13.6238 6.04006
H -14.4286 13.4163 6.49672
O 14.2029 -5.57975 10.7072
H 13.7981 -5.79501 9.81839
H 13.5404 -5.07625 11.2619
O 11.3773 6.15759 10.8391
H 11.8478 5.59217 10.1616
H 11.8017 6.02657 11.7351
O 14.8818 -6.57084 2.20675
H 14.0058 -6.50875 2.68506
H 14.7522 -7.0405 1.33342
O 13.3104 8.67636 -2.74267
H 14.2651 8.66185 -2.44516
H 13.1927 8.05317 -3.51589
O -10.7623 0.0969867 -6.23448
H -11.422 0.721796 -5.81667
H -10.6929 0.291121 -7.21304
O 0.798204 -4.13414 -12.5418
H 0.303219 -4.24013 -13.4043
H 1.77672 -4.26581 -12.7007
O -12.425 2.16124 -5.09877
H -12.7138 1.91781 -4.17281
H -13.119 2.74366 -5.52211
O 11.9172 -14.4883 5.63851
H 11.2007 -14.1668 5.01933
H 12.5436 14.7494 5.14062
O -13.5954 10.1318 -3.71745
H -14.3131 10.8112 -3.87054
H -13.853 9.5414 -2.95249
O -11.4383 14.2748 6.59266
H -10.6012 14.3108 6.04664
H -11.5029 -14.7406 7.15827
O -3.00763 -7.37797 0.686446
H -3.19044 -8.14462 0.0708872
H -2.10796 -7.49541 1.10704
O -13.5144 -2.57179 5.16228
H -14.4637 -2.55373 5.47628
H -13.4606 -3.06065 4.29153
O -6.25877 11.3834 -5.03118
H -7.13012 11.0645 -5.40412
H -5.59693 11.4884 -5.7735
O 11.6598 13.3304 7.72388
H 11.4928 14.0018 7.00172
H 11.6128 12.4085 7.3393
O -9.00657 -9.90733 0.26074
H -9.34375 -10.8034 0.549667
H -8.98004 -9.86739 -0.738152
O 3.22808 0.175268 -0.130498
H 2.79537 0.714955 -0.852701
H 2.8863 -0.763885 -0.16596
O -0.809485 -7.80383 -2.90415
H -1.50173 -7.12883 -3.1596
H 0.101687 -7.42057 -3.05568
O -14.5934 -3.14996 -12.1798
H 14.8504 -2.89213 -13.0621
H -14.6452 -2.37326 -11.5519
O -7.90754 -10.6369 -2.84459
H -8.2761 -11.5489 -3.02535
H -7.00884 -10.72 -2.41386
O 1.52817 12.5809 -8.24087
H 0.835604 12.5552 -8.96182
H 1.20856 12.0549 -7.45271
O -2.50041 -3.58347 -8.97093
H -1.63367 -4.00331 -9.24033
H -3.1755 -3.71765 -9.69642
O 14.2512 9.17565 -13.6688
H 14.5771 8.24446 -13.5052
H 14.2482 9.3599 -14.6517
O 10.4539 7.89905 -1.9738
H 10.2752 7.34891 -1.15802
H 11.3974 8.2297 -1.95274
O -11.9636 2.68674 9.08684
H -11.3716 1.94739 9.4077
H -11.6783 2.96846 8.1707
O -1.91294 14.7532 10.8916
H -2.81944 14.4658 11.201
H -1.56436 14.095 10.2243
O 1.97435 -3.58917 12.4923
H 1.27744 -2.87674 12.575
H 2.85643 -3.22956 12.7967
O 9.33157 5.42059 -4.19902
H 9.47533 4.61734 -3.62091
H 9.41864 6.24922 -3.64594
O 10.1273 -11.6932 -3.42079
H 10.808 -11.1681 -2.90992
H 9.23422 -11.2508 -3.33814
O 10.3515 -3.06397 9.44127
H 10.4041 -2.17939 9.90476
H 9.52078 -3.10031 8.88568
O 6.1558 2.13994 -13.4688
H 6.38396 2.58841 -12.6046
H 5.1966 2.31415 -13.6917
O 14.8957 8.0649 -10.1205
H -14.7316 8.1356 -9.14538
H -14.7158 8.92723 -10.5736
O -1.11631 -3.32227 -14.6373
H -2.02319 -2.9711 -14.4042
H -0.74713 -2.80538 14.4279
O -8.2879 10.9285 -9.54722
H -9.05648 11.1638 -8.95224
H -8.5258 11.1348 -10.4964
O -13.2899 -13.2504 2.45
H -13.9912 -13.7707 1.96245
H -13.555 -13.1513 3.40915
O 1.35874 -5.91727 -8.03433
H 1.06302 -6.24097 -8.93313
H 1.96848 -5.13262 -8.14665
O 2.54727 4.13086 10.87
H 3.21517 3.64473 11.4336
H 1.79195 3.51592 10.6432
O -10.0143 -4.2373 13.8297
H -9.56135 -4.38137 12.9498
H -10.849 -3.70404 13.6915
O 7.78896 -0.791265 -8.52268
H 7.80536 -0.421278 -7.59374
H 8.67528 -1.20405 -8.73275
O -6.65296 -6.70128 -8.31444
H -6.58224 -5.79998 -8.74193
H -7.01165 -6.60269 -7.38616
O -2.55772 -5.90872 -13.7316
H -3.5536 -5.94989 -13.6503
H -2.27701 -4.96681 -13.9162
O 8.07662 -3.02889 13.0636
H 8.13586 -3.94442 12.6656
H 7.26781 -2.56178 12.7062
O 2.83582 -3.06182 1.59653
H 2.69492 -3.06161 0.60646
H 3.80537 -2.91838 1.79525
O 1.49022 8.63396 2.28429
H 1.0751 9.01278 3.11148
H 1.66845 7.65895 2.41727
O 4.69976 6.83597 -3.10621
H 4.16155 7.46837 -3.66342
H 5.3597 6.35898 -3.68678
O -4.83146 -12.9164 -3.66582
H -5.37465 -12.1165 -3.92092
H -4.10168 -12.6384 -3.04116
O 13.3978 10.6098 -0.800427
H 13.5047 9.78853 -1.36091
H 14.2106 11.185 -0.893511
O -10.6147 -7.76687 -4.88934
H -9.72586 -7.58239 -5.30887
H -11.313 -7.83061 -5.60233
O 4.15399 4.96801 5.82774
H 4.52407 5.89552 5.77436
H 3.83253 4.79041 6.75791
O -1.99586 -14.6729 7.33975
H -1.19025 14.6314 7.59794
H -2.81788 14.7206 7.69639
O 10.6573 1.30593 -1.11649
H 11.3474 1.09285 -0.424846
H 9.76588 0.969488 -0.812634
O 7.57984 12.7916 -5.75941
H 7.92719 12.4254 -4.89608
H 7.79132 12.1546 -6.50078
O 11.3817 -9.2534 4.80426
H 10.9055 -9.61721 5.60487
H 11.6747 -10.0093 4.21866
O -10.617 14.9159 -9.59336
H -10.9356 -14.3436 -10.3447
H -9.97118 -14.408 -9.02838
O -3.224 -5.62845 13.3857
H -3.59868 -5.27311 14.2421
H -3.103 -6.61835 13.4601
O -5.30819 -2.47364 12.8114
H -5.46236 -3.30641 12.2796
H -6.00382 -1.79464 12.5766
O 5.06775 10.3892 3.36616
H 5.56101 10.0674 2.5579
H 5.39381 11.3014 3.61448
O -9.70612 -6.83382 13.4357
H -10.1139 -5.93519 13.5977
H -9.47614 -6.92573 12.4668
O -5.53366 8.48749 -4.55154
H -5.43033 9.46389 -4.74141
H -5.63637 7.9895 -5.41267
O 12.6935 -12.335 1.50103
H 13.3369 -13.0757 1.30766
H 12.8407 -12.0001 2.43176
O 2.35653 -9.8934 -1.95025
H 2.53648 -10.7338 -1.43892
H 2.13131 -10.1214 -2.89756
O 3.69 -10.1953 12.2189
H 3.34261 -11.0025 12.6963
H 4.67513 -10.2909 12.0759
O -3.59661 7.88509 -2.90555
H -2.9056 8.54039 -3.21077
H -4.42784 7.99949 -3.44966
O -3.94875 -0.308747 3.35771
H -4.88034 -0.307622 3.72135
H -3.52852 -1.20151 3.52037
O -5.74929 -14.1666 10.7958
H -5.28797 -13.5581 11.4415
H -5.71735 -13.7665 9.87979
O -9.80832 -9.26506 -14.775
H -9.64158 -8.45545 14.4997
H -10.0233 -8.98254 -13.8401
O 7.72381 14.4156 1.25097
H 7.22214 14.3689 0.387125
H 8.67452 14.6683 1.07109
O -12.7296 -13.0312 13.1904
H -11.8911 -12.4995 13.3094
H -13.4961 -12.5427 13.6075
O -3.36192 -14.4541 0.17999
H -4.10627 14.7669 0.436682
H -2.64648 14.8652 -0.288705
O -14.464 10.4116 7.79018
H -14.7636 11.3464 7.59903
H -13.4657 10.3856 7.84231
O 14.9074 -10.3325 -9.00637
H -14.4245 -10.9101 -8.36539
H 14.2634 -9.75826 -8.50092
O -7.06795 1.50827 12.5643
H -7.20031 1.08768 13.4619
H -7.73878 2.23881 12.4363
O 4.15053 -2.74662 -12.8781
H 4.25112 -3.55206 -12.294
H 4.89277 -2.7259 -13.548
O -0.30423 13.6445 8.80283
H 0.56204 14.1365 8.71547
H -0.132429 12.7291 9.16691
O -14.3093 0.28642 -6.99232
H -14.1326 0.315902 -6.00847
H 14.7771 -0.347397 -7.17717
O 10.6469 -7.27531 9.86658
H 10.1283 -8.11347 10.036
H 10.0575 -6.48205 10.0196
O -12.3374 -9.97414 -1.17124
H -12.5264 -9.48155 -0.321694
H -11.5243 -9.58785 -1.60671
O 10.5485 3.60446 -2.67204
H 11.4652 3.54864 -2.2761
H 10.055 2.75362 -2.49142
O -1.62357 14.4864 -8.51128
H -0.779303 14.5837 -7.98418
H -2.39848 14.7947 -7.95942
O 7.44265 -4.15508 -9.04634
H 6.72571 -4.85098 -9.08874
H 7.55161 -3.73347 -9.9466
O -9.31398 -9.65333 -7.97962
H -8.91842 -9.49608 -8.88454
H -8.67009 -9.35006 -7.27711
O -7.1165 -5.68544 5.65335
H -7.85454 -5.85035 6.30771
H -6.39288 -5.15414 6.094
O -12.461 -0.295817 10.5078
H -11.68 0.324519 10.4351
H -13.2423 0.0932038 10.0196
O -12.8775 -8.13425 -6.73116
H -13.1881 -8.66971 -5.94573
H -13.6628 -7.69257 -7.16503
O -2.60641 6.48684 -0.426038
H -1.61373 6.6069 -0.409986
H -2.96898 6.82432 -1.29479
O -13.5774 -10.6934 1.38831
H -13.7398 -11.6734 1.2729
H -13.9992 -10.1942 0.631368
O -8.49362 7.79265 -3.46723
H -7.8683 8.233 -2.82291
H -7.98488 7.4956 -4.27533
O 8.46553 6.41392 2.27696
H 7.69688 5.80066 2.45909
H 8.90997 6.65655 3.13933
O 1.99668 13.5485 2.11169
H 1.13042 13.2454 2.50895
H 2.64852 13.7453 2.84412
O -10.4012 -1.38671 12.0119
H -11.2499 -1.1748 11.5274
H -10.1525 -2.34116 11.8468
O -14.4493 6.54672 -13.5085
H -14.4939 6.09548 -12.6171
H -13.9952 5.94416 -14.1648
O 9.69771 -11.6792 -8.4526
H 10.2631 -12.4094 -8.8363
H 10.0882 -11.3774 -7.58278
O -8.63346 8.99963 0.821182
H -8.46212 9.10655 1.80062
H -9.06983 9.82676 0.466885
O 13.7956 10.9146 2.37334
H 13.5688 11.8008 1.96915
H 13.4807 10.1824 1.76938
O 6.49609 0.226367 -3.11199
H 6.87837 1.13347 -2.93561
H 6.95649 -0.447509 -2.53405
O -8.20011 -7.02106 -12.1596
H -9.07393 -6.59961 -12.4023
H -7.53116 -6.30666 -11.9541
O 3.03221 13.6763 6.88411
H 2.58514 12.7827 6.92341
H 2.45181 14.3592 7.32787
O -11.5561 -11.8378 -4.36298
H -10.8191 -11.9703 -3.70003
H -11.2135 -12.0242 -5.28384
O -0.656327 -1.34313 6.45122
H -0.640038 -1.25312 7.44706
H -0.190081 -2.18687 6.18512
O 10.7401 -2.33148 -6.93396
H 10.9553 -3.07695 -6.30303
H 10.0421 -1.74179 -6.52753
O -10.4241 -7.37492 -0.145964
H -9.97092 -8.26389 -0.212882
H -11.0631 -7.38362 0.623184
O -8.35099 -3.46125 -10.0249
H -8.09797 -3.79785 -10.9319
H -8.88906 -4.15718 -9.54921
O -7.37711 0.873419 -14.5993
H -8.23586 0.38219 -14.7453
H -7.3043 1.13896 -13.6379
O 11.8591 -3.49509 7.26288
H 11.13 -3.87202 6.69155
H 11.4638 -3.11075 8.09721
O 10.6861 -10.7375 -5.96941
H 11.6483 -10.5461 -6.16331
H 10.609 -11.193 -5.08247
O -10.4837 5.19224 4.52944
H -10.2895 5.98319 5.10975
H -10.6514 5.49933 3.59261
O 10.2366 6.54165 8.19097
H 10.2611 5.57957 7.91915
H 10.3478 6.61084 9.1824
O -12.5483 -3.98529 -7.96603
H -12.1622 -4.84601 -8.29797
H -12.2929 -3.85281 -7.00827
O 1.98773 0.549263 14.8434
H 1.12243 0.362591 14.3782
H 1.96263 0.158126 -14.0741
O 1.35727 12.822 -0.930259
H 2.14824 13.4152 -0.780067
H 1.15002 12.3233 -0.0885724
O -5.74248 -11.1629 -0.97339
H -6.29575 -11.9956 -0.949818
H -5.73137 -10.7443 -0.0652522
O 11.9358 -5.2335 14.8315
H 12.789 -5.19893 14.311
H 11.7994 -4.36395 -14.5313
O -9.41408 -3.73312 -2.26968
H -10.2307 -4.16458 -1.88609
H -8.88664 -3.30585 -1.53529
O -13.1042 -11.191 8.08553
H -13.4637 -10.7275 7.27558
H -12.6415 -12.0335 7.80958
O -10.8106 7.83484 -0.0788936
H -9.93536 8.08984 0.332177
H -10.7553 7.93864 -1.07199
O -0.944578 -12.5611 14.8685
H -0.735063 -13.4951 14.5789
H -0.972366 -11.9622 14.0681
O 1.2546 -9.01092 12.317
H 2.10723 -9.53284 12.3433
H 0.562327 -9.47536 12.8694
O 7.05644 -8.76424 3.51733
H 6.45333 -9.08269 2.78594
H 6.66244 -9.00725 4.40379
O -5.37375 -9.42201 10.3716
H -6.06961 -9.19455 11.0528
H -5.53867 -8.89492 9.53786
O 11.6076 1.12691 -7.64858
H 11.1216 1.9369 -7.32032
H 12.1533 0.741266 -6.90452
O -9.46939 12.8935 11.7402
H -10.4447 12.7293 11.5925
H -9.35251 13.6247 12.4123
O -11.502 -10.7333 3.46418
H -12.2589 -10.911 2.83519
H -10.6371 -10.966 3.01921
O -3.9967 -12.6594 -9.5054
H -3.72406 -13.2131 -8.71854
H -3.24513 -12.0515 -9.76166
O -8.41082 2.34434 -9.78033
H -9.21931 1.98746 -9.31229
H -7.86532 1.58296 -10.1308
O -13.2751 1.83196 -9.01957
H -13.6415 1.36253 -8.21613
H -14.0273 2.22974 -9.54501
O -5.11856 -3.69728 5.98743
H -4.87481 -3.67897 5.01772
H -5.50225 -2.81232 6.25145
O -14.2942 2.45182 4.56465
H -13.8212 3.3314 4.61595
H -13.7746 1.76383 5.07135
O 2.85522 10.8498 -12.6549
H 3.07618 10.0698 -12.0692
H 2.49368 10.5199 -13.527
O 2.47885 -6.54484 -13.6846
H 1.88405 -6.62127 -12.8843
H 1.9285 -6.61365 -14.5167
O -2.34169 -8.15268 14.6114
H -2.31594 -7.33638 -14.649
H -1.54341 -8.72308 14.805
O -3.69565 -2.65818 -14.5986
H -4.22309 -2.44019 -13.7774
H -4.20665 -2.37118 14.4287
O 6.63594 4.7449 -4.37168
H 7.41645 5.28864 -4.06308
H 6.51256 4.86785 -5.35644
O 2.79638 6.20347 -1.04983
H 2.8903 7.19411 -0.950337
H 3.56656 5.8471 -1.57889
O 5.36979 4.69476 -7.20933
H 5.9647 5.14503 -7.87523
H 4.76377 5.37209 -6.79215
O 8.00797 -3.18768 7.24775
H 8.39378 -3.51864 6.38653
H 7.63719 -2.26839 7.11543
O -0.251216 14.141 -5.895
H -0.0931164 14.7773 -5.13991
H 0.462468 14.2592 -6.58548
O -1.21804 7.92484 10.4269
H -1.66233 7.02938 10.3981
H -1.87169 8.61118 10.7459
O -4.71762 -12.7888 12.9807
H -4.23144 -11.9154 12.9516
H -4.09008 -13.51 13.2743
O -10.8536 -4.78145 2.99982
H -10.4927 -4.03219 3.55525
H -10.9529 -5.59902 3.56709
O 6.67641 -10.2944 -1.00042
H 6.58633 -11.0162 -0.314149
H 5.87673 -9.69523 -0.960902
O 14.5252 14.3123 -9.79423
H 14.3957 14.7202 -10.6981
H 13.6553 13.943 -9.46737
O -0.379658 -12.4477 7.75014
H -1.25314 -12.8349 7.45492
H 0.0417159 -11.9563 6.9879
O 1.84442 -14.3397 11.6042
H 1.99068 -14.4853 10.6257
H 2.64291 -14.6626 12.1123
O -5.48031 1.64538 0.98975
H -5.04199 1.52441 0.0990597
H -6.08381 2.4422 0.958794
O 9.05584 -4.93682 10.6965
H 8.16622 -4.75092 10.2793
H 9.75348 -4.36732 10.2617
O -2.81186 1.19454 -5.1629
H -2.45131 1.21711 -4.23038
H -3.80872 1.26984 -5.13676
O 12.0928 -12.218 7.25904
H 11.3124 -12.6825 7.67771
H 12.531 -12.8301 6.60068
O 13.1177 -9.14405 9.67841
H 12.3221 -8.55689 9.82813
H 13.2157 -9.32965 8.70064
O -3.13912 -5.64257 3.88757
H -2.54104 -6.41515 4.10088
H -3.9673 -5.97652 3.43739
O -13.0128 14.1815 -8.35236
H -13.8384 13.8819 -8.83053
H -12.3568 14.5436 -9.01471
O -6.75998 -6.69282 13.8496
H -7.56091 -6.12795 14.0485
H -7.03072 -7.46398 13.2734
O -8.69265 -12.0409 7.16915
H -8.94809 -11.0785 7.26191
H -7.69653 -12.1189 7.12749
O -13.1744 0.286346 -12.991
H -14.0383 -0.130559 -12.7082
H -12.4123 -0.216284 -12.5828
O 8.65812 5.56373 12.8584
H 9.32152 6.07748 12.3143
H 9.06182 5.3306 13.7432
O -3.34987 -10.5684 3.60748
H -2.97139 -11.3297 3.08098
H -3.00015 -10.6041 4.5437
O -3.32616 14.9031 14.4636
H -2.96116 -14.6953 -14.4741
H -3.81814 14.0345 14.5236
O -13.075 -9.60516 -13.3269
H -12.8488 -9.31872 -14.2579
H -12.5677 -9.04387 -12.6729
O -4.31086 9.58664 -13.9371
H -3.68202 8.8098 -13.903
H -4.03226 10.2709 -13.2631
O 9.28623 10.0412 11.2757
H 9.4061 10.1892 12.2574
H 8.54456 9.3875 11.1252
O 10.7413 13.6942 -0.249859
H 10.2299 13.8783 -1.08925
H 10.254 13.0112 0.294373
O 0.31546 12.7584 4.55155
H -0.333883 12.0674 4.23393
H 1.04008 12.3167 5.08063
O -10.5393 12.1321 -8.08274
H -10.6663 12.8919 -8.72041
H -9.71975 12.2923 -7.53246
O 10.2789 -5.61077 -12.6121
H 10.4185 -6.59619 -12.5145
H 11.0951 -5.12575 -12.298
O 6.73481 -4.46035 -6.29122
H 6.98308 -4.37175 -7.25589
H 7.36603 -5.09214 -5.84125
O -5.43278 5.66053 -2.29206
H -6.09729 5.88643 -1.57969
H -4.78912 6.41827 -2.39987
O -9.64465 12.024 5.01255
H -9.22165 12.6183 4.32844
H -9.11534 12.0621 5.86018
O 5.18835 6.99448 8.13072
H 5.83139 6.22887 8.15109
H 5.61281 7.79752 8.54911
O -11.3284 -14.9058 -14.9157
H -12.0453 -14.4247 14.4172
H -10.4933 14.9066 14.3722
O 0.0782602 9.81834 4.29493
H -0.824061 10.0673 3.94294
H 0.0679868 9.85504 5.29424
O -4.56921 11.4724 6.04005
H -4.55332 10.5367 6.39261
H -5.20676 11.5282 5.27162
O -6.81251 0.932717 3.57716
H -6.39155 1.05487 2.67829
H -6.27737 1.4229 4.26523
O -8.45216 -5.32458 1.32153
H -8.49611 -6.22551 0.889699
H -9.34541 -5.09685 1.70925
O 8.63553 10.2599 -13.0645
H 9.07347 10.2626 -12.1654
H 7.75678 10.734 -13.0086
O -2.02425 4.79219 5.10397
H -1.11966 5.06649 4.77752
H -2.55886 5.60701 5.32833
O 10.4451 12.7469 3.63052
H 11.0411 12.1614 4.18012
H 10.2503 12.2988 2.75794
O -13.8187 12.8871 -14.2909
H -12.9174 12.5757 -14.5923
H -13.996 13.8001 -14.6584
O -6.0746 -11.4524 5.05486
H -5.56782 -11.9163 5.78157
H -5.87532 -10.4728 5.08244
O 1.31229 10.8635 6.68249
H 2.26735 10.9106 6.97529
H 0.940101 9.96191 6.903
O 0.253447 6.65886 -0.127202
H 0.0548297 5.94458 0.543942
H 1.22236 6.6256 -0.372543
O 9.01137 -8.73479 1.31803
H 8.5108 -8.32653 0.554593
H 8.49656 -8.59936 2.16463
O -14.1219 -10.5023 5.55254
H -14.1972 -9.7849 4.85994
H -13.4453 -11.1782 5.26018
O 13.5983 -10.874 -0.580479
H 14.1967 -11.3964 -1.18802
H 13.1805 -11.4906 0.086856
O -7.80002 1.70351 7.85444
H -7.35628 2.4495 7.35778
H -8.23512 1.08182 7.20308
O -8.31514 0.612217 -0.575702
H -7.84064 -0.081228 -0.0334193
H -8.23359 0.389066 -1.54711
O 10.2402 -10.3795 6.88605
H 10.9087 -11.07 7.1626
H 9.32807 -10.66 7.18507
O 14.2354 -14.1322 -7.02234
H -14.8626 -13.6619 -6.54069
H 14.6174 -14.677 -7.76896
O 6.20312 3.41621 -11.0227
H 5.72717 2.59711 -10.7024
H 6.90492 3.67499 -10.3589
O -3.56425 6.93962 6.11245
H -3.21545 7.68234 6.6841
H -4.56357 6.97338 6.09521
O -5.07732 -2.06137 -12.0047
H -4.96246 -2.85804 -11.4112
H -5.24187 -1.24942 -11.4446
O -0.344516 4.60634 1.67399
H -0.28644 3.76171 2.20626
H -1.23697 5.03271 1.82168
O 1.02394 -2.42165 -9.13307
H 0.856395 -2.20292 -10.0944
H 2.00876 -2.49131 -8.97381
O 5.85193 -13.8152 -3.41253
H 6.49657 -13.0511 -3.43837
H 5.88732 -14.3107 -4.28049
O -6.75148 11.6169 -12.5646
H -7.16734 10.8544 -12.0689
H -5.87144 11.8449 -12.1479
O -9.91613 8.92196 14.1389
H -9.38756 8.60464 -14.9113
H -9.3425 9.5082 13.5667
O 6.21667 14.3073 -1.12617
H 5.97573 14.8018 -1.96139
H 5.55679 13.5719 -0.972072
O -0.733337 -10.5196 -12.8334
H -0.776291 -11.2609 -13.5032
H -0.373063 -9.69557 -13.2708
O -0.670636 -5.10509 7.34714
H -0.814633 -4.50708 8.13564
H 0.0272941 -4.70827 6.75089
O -13.0693 0.319173 5.4267
H -12.0904 0.27819 5.62726
H -13.4078 -0.600791 5.22881
O -13.4497 11.0524 1.68737
H -12.8563 11.2258 2.47341
H -14.3723 10.8368 2.00738
O -8.50816 13.4774 2.82691
H -8.92865 14.3652 2.6396
H -8.56803 12.9015 2.01151
O 8.81617 -0.876959 -5.74706
H 8.8829 -1.08386 -4.77094
H 8.65582 0.10246 -5.86999
O -5.36523 1.31942 -4.81096
H -6.0005 1.33766 -4.03884
H -5.84443 1.59744 -5.64352
O -13.7398 -1.46916 -4.25188
H -14.4109 -0.899923 -3.7768
H -12.9125 -1.54398 -3.69516
O -8.30591 12.2476 0.189623
H -8.06361 11.7523 -0.644685
H -9.20763 12.6656 0.0791052
O 4.32555 7.61941 4.04883
H 3.88987 7.22306 3.24064
H 4.27495 8.61695 3.99935
O 5.68499 -5.54534 11.3556
H 6.33128 -5.83251 10.6485
H 5.02319 -6.27699 11.5193
O 7.34668 -11.3575 -3.42407
H 7.16837 -10.8979 -2.55394
H 6.76569 -10.9616 -4.13529
O -1.06769 -14.1864 -10.9163
H -1.10398 -13.2607 -10.5397
H -1.2356 -14.8497 -10.187
O 0.00802755 -7.70239 7.23871
H 0.0745002 -8.21028 8.09761
H -0.211387 -6.74625 7.43297
O 12.3685 -11.0184 -10.716
H 13.0735 -10.6708 -11.3342
H 12.134 -10.3127 -10.0474
O 9.94075 6.13912 -0.135868
H 9.34789 6.34213 0.643483
H 10.5566 5.38759 0.100692
O -2.2139 -10.7711 6.01064
H -2.54242 -10.4354 6.89352
H -1.23361 -10.5908 5.9293
O 13.688 -5.50521 7.5578
H 12.982 -6.08369 7.14913
H 13.2951 -4.61637 7.79391
O 3.23741 -2.89962 -4.08035
H 3.8998 -2.18902 -4.31776
H 2.34159 -2.65842 -4.45373
O 3.55033 2.98256 -14.1956
H 2.89218 2.27734 -14.4594
H 4.01913 3.32268 14.8267
O -7.65086 5.90751 1.32831
H -7.58467 4.99509 0.92433
H -8.60826 6.11384 1.53055
O 13.1714 6.55333 1.42155
H 12.6757 5.76053 1.06678
H 12.9988 6.64269 2.40253
O -13.9716 8.48247 -1.65656
H -13.165 7.976 -1.96141
H -14.1154 8.32364 -0.679741
O -7.15489 5.44411 8.58198
H -8.12393 5.51367 8.34488
H -7.06366 5.25674 9.56007
O 9.26384 -6.05071 -7.89388
H 8.67742 -5.52118 -8.50689
H 8.78086 -6.22064 -7.03485
O -12.5259 -13.8736 -11.6872
H -12.0413 -13.377 -12.4073
H -13.2801 -13.313 -11.3452
O -10.4235 0.829649 -9.01047
H -10.3949 0.091605 -9.68468
H -11.2667 1.3547 -9.12658
O -10.0218 -5.43286 -8.75908
H -9.35959 -5.76687 -8.08823
H -10.346 -6.19722 -9.31649
O -0.884515 2.22107 -12.5628
H -1.26829 1.66604 -11.8247
H -0.130198 2.77299 -12.2072
O -6.94278 10.6928 14.7167
H -6.50518 9.82306 -14.8927
H -7.03759 11.2456 -14.293
O -6.29492 -13.7178 3.43332
H -5.91512 -12.7933 3.46686
H -5.62262 -14.3675 3.78837
O 1.08001 4.39731 -7.43895
H 0.337414 4.72329 -6.85382
H 0.720073 3.73574 -8.09686
O 3.5934 2.38212 1.5215
H 3.14211 1.9046 0.767582
H 4.58397 2.35734 1.3864
O -5.0433 -13.7383 6.70385
H -5.59059 -14.5338 6.96423
H -4.33681 -14.0181 6.05373
O -11.8807 10.6759 -10.2481
H -12.2373 11.5583 -10.5552
H -12.0007 10.594 -9.25868
O -2.45616 6.11301 2.22597
H -3.09736 6.61284 2.8083
H -2.71576 6.22996 1.26732
O -4.87492 -5.08865 1.00299
H -5.82701 -5.37885 0.90603
H -4.26916 -5.83706 0.732773
O -1.37105 -10.0325 -4.86067
H -0.897192 -9.24471 -4.46701
H -2.35305 -9.94994 -4.69055
O 9.71099 2.4327 13.9934
H 10.4032 1.72509 14.1354
H 9.82099 3.14955 14.682
O 13.2527 -1.2124 -7.63864
H 12.8598 -0.572911 -8.29952
H 12.5337 -1.81177 -7.28675
O -13.2795 6.10315 -7.0714
H -12.9793 5.19772 -7.37158
H -12.4864 6.63744 -6.77907
O 7.08039 7.97025 -11.2092
H 7.28855 7.43754 -10.3888
H 6.55211 7.40871 -11.8461
O -13.907 13.8632 -5.4575
H -14.692 13.2727 -5.27
H -13.6484 13.7784 -6.4198
O -8.26405 13.8187 -13.89
H -9.15093 13.6152 -13.4751
H -7.56191 13.2386 -13.477
O -8.87785 14.8734 13.5185
H -8.43383 -14.1154 13.2312
H -8.44995 14.5415 14.3592
O 10.4009 -12.1825 10.8588
H 9.80717 -12.8112 11.3611
H 10.8427 -12.6708 10.1062
O -8.80623 14.863 5.80176
H -8.09969 14.85 6.50937
H -8.4899 -14.4302 5.02481
O -7.24376 -13.2817 -1.19722
H -7.87206 -13.1947 -0.424088
H -7.2469 -14.2267 -1.5245
O -9.33696 3.17763 -3.54032
H -8.43021 3.25117 -3.12501
H -9.82788 4.04108 -3.424
O 7.79942 4.00758 0.0502748
H 7.04594 4.20859 0.67633
H 8.52282 4.68759 0.170123
O -9.19171 -1.80591 -13.7713
H -10.0293 -2.3206 -13.5881
H -9.38899 -1.06614 -14.4146
O -0.785991 12.9866 14.9074
H -0.682066 12.2002 14.2983
H -0.771261 13.8293 14.3692
O 8.60568 -8.7468 13.5505
H 8.20366 -8.97965 14.4361
H 8.82177 -7.77063 13.5288
O 3.92213 -7.31173 -3.80494
H 4.30691 -7.86484 -3.06595
H 4.05505 -6.34209 -3.59949
O 10.1376 11.31 1.42862
H 9.20431 11.0657 1.16529
H 10.6889 10.4797 1.51079
O 14.5503 -6.3909 -7.14853
H 14.3811 -5.85922 -7.97846
H -14.8185 -5.81846 -6.47574
O -5.26575 -8.98655 -8.26161
H -5.80794 -8.14627 -8.2561
H -5.60447 -9.59712 -8.97754
O -9.1267 3.3661 11.4178
H -10.1113 3.51604 11.5082
H -8.66854 4.24219 11.2673
O -6.58104 0.934052 -7.59032
H -7.34678 0.648313 -8.16659
H -5.98663 1.55016 -8.10721
O 11.0238 9.23924 -14.2434
H 11.7637 9.04289 -13.5999
H 10.1544 8.93373 -13.8549
O 14.6896 9.59855 13.5844
H 14.1659 10.07 12.8748
H -14.1836 9.85315 13.5115
O -2.07226 7.61171 -13.3135
H -2.35976 6.71962 -12.9648
H -1.68903 7.5033 -14.2308
O -6.05186 -7.8466 -1.40149
H -6.37836 -7.94113 -0.460991
H -5.11129 -8.1807 -1.46298
O 14.3083 -12.4607 -2.64546
H 14.6487 -12.2915 -3.57044
H 13.4181 -12.9136 -2.69551
O 4.73066 12.0382 -0.827171
H 4.77582 11.554 -1.70099
H 3.84419 11.8675 -0.396922
O 4.86869 7.91074 -13.2793
H 4.18271 7.82239 -14.0016
H 4.41269 8.07895 -12.4053
O 9.13239 4.00287 -10.3191
H 9.96635 4.39918 -10.7032
H 9.09157 3.02937 -10.5443
O -5.03616 7.59409 13.7427
H -5.71818 7.4803 14.4652
H -4.59053 6.71688 13.5638
O 2.29111 -12.376 13.4121
H 1.7827 -12.9808 12.7991
H 2.36862 -12.8032 14.313
O -12.5311 9.76083 14.0438
H -11.5431 9.63413 14.1331
H -12.9342 9.88709 -14.8873
O -14.5104 -12.1363 -11.0734
H -14.6622 -11.5702 -11.8837
H -14.5374 -11.5615 -10.2554
O 9.34733 -9.46927 10.8554
H 9.71246 -10.4002 10.8697
H 9.34995 -9.09591 11.7831
O 12.1671 4.6888 -4.58527
H 11.9163 4.26673 -5.45649
H 11.4587 4.49718 -3.90588
O -2.12962 -7.2521 -11.1957
H -2.47389 -6.71102 -11.963
H -1.77436 -6.64007 -10.4891
O -13.6184 11.4391 -7.36639
H -14.2551 11.3769 -8.13508
H -12.866 12.0529 -7.6056
O -12.5381 -3.05207 13.5123
H -12.8232 -2.09396 13.4837
H -13.271 -3.62884 13.1512
O 2.86963 -5.79843 -1.09071
H 2.31778 -5.61808 -0.276445
H 2.27691 -5.82591 -1.8957
O -2.50498 -5.80249 -3.78131
H -1.8493 -5.5497 -4.49284
H -3.34841 -6.13078 -4.20667
O -12.9564 -4.6891 -4.9126
H -12.268 -5.37134 -4.66612
H -13.7317 -4.75587 -4.28448
O 2.69533 7.48162 -14.5118
H 2.40934 6.82907 14.624
H 2.16076 7.33216 -13.68
O -3.7544 14.4962 3.8094
H -3.41498 -14.4831 3.42428
H -3.05223 13.7898 3.71963
O -1.05286 -0.740065 9.19235
H -1.99726 -1.04477 9.06849
H -1.04674 0.216791 9.48299
O -8.48216 -9.81313 5.48339
H -7.79744 -9.08531 5.52248
H -8.04357 -10.669 5.20926
O 0.71963 -10.2318 6.13197
H 1.67562 -10.4885 5.98951
H 0.677714 -9.35104 6.60372
O -0.989506 -10.8713 12.8384
H -0.704362 -11.4962 12.1116
H -1.90607 -10.5244 12.6392
O -8.18122 -6.24135 -6.11629
H -8.77794 -5.4614 -5.92735
H -7.64285 -6.45436 -5.3009
O -10.7154 2.94444 6.75791
H -10.3857 3.15782 5.83821
H -10.2641 2.11608 7.08995
O -11.0309 -6.25139 -2.45763
H -10.7281 -6.70218 -1.61785
H -10.5607 -6.65677 -3.24166
O 4.1319 12.9931 10.1665
H 4.64631 12.9095 9.31302
H 3.89376 12.082 10.5029
O -7.21039 -10.333 -14.7354
H -6.54978 -9.69336 -14.3422
H -8.13797 -9.99803 -14.5696
O -0.357868 3.33141 12.9154
H -1.27325 2.97689 13.1064
H 0.109473 3.52919 13.7772
O 6.84174 9.00971 -4.68436
H 7.81424 9.17665 -4.84704
H 6.73693 8.33979 -3.9493
O -6.6775 5.49711 -4.7752
H -6.71896 5.41179 -3.77967
H -5.81338 5.11818 -5.10653
O 14.1143 11.5703 -4.53072
H 13.4915 12.3467 -4.43387
H 13.6261 10.8008 -4.94258
O 12.6605 -6.86921 -4.46558
H 12.459 -6.06294 -5.02182
H 12.8278 -7.65325 -5.06338
O -6.35373 12.4 4.05376
H -5.58418 13.0355 3.99044
H -7.14988 12.7938 3.59424
O -8.1071 -2.50061 0.420049
H -8.03624 -3.42915 0.784572
H -7.33174 -1.95653 0.740777
O 9.77661 3.75358 8.36673
H 10.1026 2.95865 7.85497
H 9.40413 3.45454 9.24531
O 10.733 -14.4682 -7.00149
H 10.4283 -14.1818 -6.09308
H 11.3685 -13.7893 -7.36932
O 6.93979 8.98505 -14.8141
H 7.47556 9.72361 -14.4048
H 6.35142 8.57442 -14.1175
O 10.0772 1.21907 7.26613
H 9.78942 0.826105 6.39274
H 10.684 0.578054 7.73625
O -8.16517 5.16408 -6.96408
H -8.41167 4.2083 -7.12473
H -7.56507 5.22399 -6.16635
O 7.05719 8.25402 0.678375
H 6.0832 8.04095 0.600659
H 7.49156 7.60502 1.30304
O 10.5573 -11.6638 -13.6017
H 11.1301 -11.0324 -14.1245
H 11.0111 -12.5528 -13.5406
O -6.57904 13.7199 7.52602
H -6.16981 12.8399 7.28472
H -6.95697 13.6695 8.45052
O -1.44424 10.1201 -3.28666
H -1.47617 10.288 -2.30133
H -2.26814 10.4913 -3.71494
O -2.18482 8.94549 -10.6728
H -2.13862 8.78897 -11.6594
H -1.36461 8.57408 -10.2376
O -1.51936 11.7967 -12.5626
H -1.15855 12.3392 -13.3213
H -1.0344 12.0361 -11.7214
O 9.08854 -3.27615 -13.7152
H 9.23875 -4.16293 -13.278
H 9.97015 -2.86703 -13.9507
O 1.47359 8.06565 10.9277
H 1.72334 7.55928 10.1023
H 0.510198 8.32931 10.8783
O -13.1155 4.06685 13.8374
H -12.6893 4.96659 13.7432
H -12.4736 3.43815 14.2763
O 12.0786 -10.0239 14.6613
H 12.0885 -10.1423 13.6683
H 12.1744 -9.05329 14.8822
O -3.49146 -5.65719 7.2687
H -4.10842 -5.03972 6.78066
H -2.56565 -5.27921 7.25958
O -0.412667 -9.58 -7.40185
H -1.22363 -9.28932 -7.9097
H -0.629022 -9.62648 -6.4266
O 13.0707 -8.66169 -7.80323
H 13.0557 -9.17841 -6.94716
H 13.6106 -7.82893 -7.68052
O 12.2164 -4.22309 -5.28175
H 13.0602 -4.00582 -5.7726
H 12.0203 -3.49981 -4.61956
O -6.70834 -7.15322 -3.83096
H -7.22129 -7.98533 -4.04202
H -6.28789 -7.24088 -2.92784
O -6.07521 7.37525 5.39923
H -6.48768 6.73943 4.74679
H -5.97862 8.27458 4.97266
O -10.997 -7.90936 -12.4865
H -10.829 -7.03089 -12.9338
H -11.2726 -7.75304 -11.5379
O -7.34482 13.4217 10.2492
H -8.19526 13.2476 10.7457
H -6.89093 14.2242 10.6365
O -0.267214 3.18313 -2.56253
H 0.0607572 3.46228 -1.65998
H 0.0922177 2.27607 -2.78193
O 12.2671 7.02 -10.3735
H 12.2371 6.03951 -10.568
H 13.2026 7.35414 -10.4882
O 14.8696 -3.82802 0.654603
H -14.5845 -3.84256 1.57807
H -14.24 -3.64373 -0.00580352
O 9.80106 -1.84019 -10.397
H 10.423 -1.07243 -10.5515
H 10.3248 -2.69138 -10.3612
O -0.258366 -0.638148 -7.01794
H 0.302499 -1.13908 -7.67717
H 0.207421 0.208071 -6.75902
O -11.7457 -3.23462 -13.3544
H -11.7398 -3.37428 -14.3447
H -12.6769 -3.34677 -13.0075
O -14.3847 -9.08639 3.49214
H -14.8641 -8.30822 3.08626
H -13.8347 -9.54128 2.7917
O -7.01794 0.124787 10.1821
H -7.10774 0.556483 11.0797
H -7.3824 0.736603 9.48004
O 3.35846 -14.7573 -2.04617
H 4.2076 -14.2433 -1.92408
H 3.30701 14.7397 -2.98503
O -9.04723 -13.128 -3.48828
H -8.34862 -13.6575 -3.00691
H -9.40929 -13.6674 -4.24857
O -5.24828 -5.57952 -14.1153
H -5.66651 -6.06429 -14.8836
H -5.87398 -4.87164 -13.7875
O -10.3411 -0.227724 3.67357
H -9.95484 0.552899 4.16502
H -9.73041 -1.01437 3.76483
O -5.39757 -12.1729 8.7633
H -4.63189 -11.5367 8.85906
H -5.18754 -12.8424 8.05082
O 2.66934 11.9412 -3.52568
H 2.73176 12.7881 -4.05372
H 2.11588 12.0983 -2.70771
O 6.60826 -1.93192 10.8483
H 6.35078 -0.995758 11.0879
H 5.78631 -2.4584 10.6308
O 7.53308 -6.95258 -0.417573
H 7.05854 -6.31083 0.184964