2593
Atoms. Timestep: 18495000
O -13.8714 -1.44121 -14.2459
H -14.5174 -1.19908 -13.5221
H -14.2929 -2.10917 14.8465
O -5.04265 -13.7768 1.53845
H -4.39751 -13.6364 0.787416
H -5.64054 -12.9792 1.6178
O -12.8476 13.3 -12.6306
H -13.7857 13.096 -12.9102
H -12.5109 12.57 -12.0358
O 1.85383 3.88375 6.21292
H 1.12042 3.45051 6.73673
H 1.81761 4.8743 6.34516
O -1.24895 -6.99295 -11.5113
H -0.511154 -7.05179 -10.8389
H -1.19315 -6.11764 -11.9916
O -2.74983 -0.147048 3.53621
H -2.86556 -1.075 3.89047
H -3.27824 0.491589 4.0956
O -8.08988 6.04242 -12.2525
H -9.05213 6.31452 -12.2533
H -7.52968 6.79746 -12.5932
O -8.39642 13.0693 -6.38032
H -8.18809 13.3598 -7.31423
H -7.74936 12.3604 -6.09956
O -0.826507 3.39197 10.2267
H 0.169206 3.35724 10.3123
H -1.20747 2.48293 10.3955
O 9.20598 4.19722 4.31871
H 9.86035 3.99713 5.04792
H 9.64772 4.75926 3.61945
O 3.65109 -3.03835 2.57026
H 3.5274 -2.21816 2.01172
H 4.21201 -2.81691 3.36795
O -12.7912 12.6169 1.52361
H -12.7248 13.5717 1.81316
H -13.6243 12.4889 0.985486
O 11.8657 4.07405 5.4924
H 12.1218 5.01854 5.69818
H 12.3613 3.76352 4.68128
O 10.1481 9.48428 13.4368
H 9.69123 10.2726 13.849
H 10.8772 9.8012 12.8302
O 3.72769 -13.379 -6.36587
H 3.27759 -12.4935 -6.25062
H 3.64727 -13.6723 -7.31848
O 12.0058 10.8586 0.848046
H 12.714 10.4349 0.283296
H 11.7278 10.2219 1.56731
O -7.09879 4.7049 0.603413
H -7.53702 4.15171 -0.105046
H -6.13725 4.8468 0.368292
O -0.982247 8.00461 0.478885
H -0.0266252 7.72963 0.373278
H -1.57728 7.29033 0.110492
O -8.48717 -10.905 8.94552
H -8.24406 -11.7148 8.41156
H -8.7362 -11.1804 9.87402
O -6.32333 3.65544 -1.92555
H -6.36067 2.65698 -1.96631
H -5.78248 4.00035 -2.69269
O -0.436084 -2.899 -8.96754
H 0.283837 -3.4096 -9.43763
H -1.12581 -3.53586 -8.62306
O -8.59876 -12.7458 11.3497
H -8.53726 -12.9621 12.324
H -7.68016 -12.7198 10.9554
O 9.75229 9.49221 -9.26904
H 9.50802 8.98209 -8.44437
H 8.92089 9.73841 -9.76718
O 8.70011 -7.44589 -12.9691
H 8.18959 -6.7494 -12.4649
H 9.6302 -7.12002 -13.1385
O -5.24087 9.29753 5.33743
H -5.81729 9.67152 4.61089
H -5.40424 8.31441 5.41973
O 11.1052 -12.734 -14.339
H 11.7003 -12.5239 14.591
H 10.9657 -11.9082 -13.7926
O -2.28713 1.12976 10.8301
H -3.06529 1.72958 10.6439
H -2.5777 0.175465 10.7603
O -1.75051 -11.2857 -10.9307
H -1.68892 -10.6901 -10.1297
H -0.848759 -11.6683 -11.1317
O 5.41133 4.10952 -12.9471
H 5.58084 4.72578 -13.7162
H 4.72435 4.51237 -12.3423
O -3.88437 3.41504 10.5695
H -3.01379 3.82169 10.8464
H -4.26667 3.93436 9.80518
O 1.59231 -8.76743 7.69823
H 2.40509 -9.10749 7.22523
H 0.776883 -8.9974 7.16703
O 7.05732 10.3988 -11.5111
H 6.30952 9.86404 -11.9045
H 7.06076 11.3139 -11.9143
O 9.23556 8.58564 -6.05893
H 9.87082 7.81661 -6.12975
H 8.48016 8.33915 -5.45181
O -1.5766 4.21558 1.74423
H -1.89163 4.66299 0.907234
H -1.99833 4.65618 2.53669
O -10.0143 -5.60038 14.6073
H -10.7432 -5.28294 -14.4917
H -9.15779 -5.66267 -14.586
O -4.39057 7.70141 7.95175
H -4.93595 7.59476 7.12039
H -3.45886 7.96976 7.70704
O -9.3017 13.2188 -2.90322
H -9.76604 12.803 -3.6852
H -9.90918 13.2051 -2.10901
O 4.27348 8.47137 1.09583
H 4.61769 9.01584 0.330953
H 4.97047 7.81094 1.37514
O -0.458753 -9.86023 6.06358
H -0.651856 -10.8342 6.18181
H -0.399258 -9.64823 5.08813
O 5.61396 -3.60928 -1.18285
H 5.66327 -4.49042 -0.712606
H 4.86434 -3.62606 -1.84449
O -8.7306 14.2906 -12.5635
H -8.77515 13.3407 -12.254
H -8.00233 14.7676 -12.0715
O -3.14658 13.1655 -13.8283
H -2.79684 12.3971 -13.2922
H -4.09139 12.9805 -14.0987
O -5.16785 -8.22057 9.98252
H -5.32319 -8.88387 9.25048
H -4.64438 -8.65172 10.7174
O -12.7686 -0.926519 11.0002
H -13.1664 -0.0720342 11.3342
H -12.5378 -1.51269 11.7768
O -13.7358 -1.73709 -1.41802
H -13.1244 -2.17868 -0.761385
H -14.6497 -2.13594 -1.3429
O 3.2916 11.8264 -12.5059
H 4.26026 11.9656 -12.7116
H 3.19862 11.1292 -11.7951
O 4.205 13.2687 -9.37892
H 4.00756 12.2973 -9.51077
H 3.67466 13.8084 -10.0327
O -7.08137 -6.79081 7.12749
H -7.24756 -5.97332 6.57606
H -6.11639 -6.82714 7.38724
O -0.0527066 6.52422 12.0569
H 0.187507 5.55596 12.1259
H -0.696165 6.65511 11.3027
O -0.788113 -13.6497 8.59484
H -1.2817 -12.9492 9.1103
H 0.118221 -13.7822 8.99608
O 3.67108 6.76897 14.4977
H 3.1089 7.45402 -14.7448
H 3.72434 6.98537 13.5228
O 7.40313 -1.19074 14.2599
H 6.92874 -0.32688 14.0905
H 6.88523 -1.94139 13.8496
O 7.23653 7.94071 -3.90534
H 6.26919 8.19364 -3.88923
H 7.32533 6.97906 -4.16479
O 11.8349 3.12078 8.32563
H 11.783 3.23418 7.33345
H 12.4063 2.3289 8.54116
O -4.66375 6.63358 -6.62508
H -4.50461 6.58124 -7.61094
H -5.62165 6.42262 -6.43042
O -11.2546 -2.39721 -3.54615
H -10.3864 -1.90667 -3.62065
H -11.1648 -3.13382 -2.87583
O 13.8351 -14.8417 -9.32561
H 14.6486 -14.688 -9.88637
H 13.6849 -14.0509 -8.73234
O 12.4851 2.54989 2.97882
H 13.2512 1.94003 3.18156
H 12.4603 2.73894 1.99717
O -4.05242 -4.06042 -13.0279
H -3.34338 -3.6091 -12.4861
H -4.43552 -3.40986 -13.6836
O -11.6833 -10.2868 -10.4298
H -11.0473 -10.9417 -10.0216
H -11.1685 -9.58262 -10.9187
O -12.7713 1.85059 -1.63242
H -12.0189 1.39653 -2.10952
H -12.4952 2.77826 -1.38115
O 2.70239 2.64081 9.57243
H 2.08285 2.22927 8.90402
H 2.80724 3.61528 9.37393
O -4.30034 -2.36616 -6.2682
H -3.74156 -1.57954 -6.53081
H -5.18487 -2.04775 -5.92731
O -13.4517 -9.42961 7.21626
H -14.3117 -9.84508 6.92014
H -12.9051 -10.1084 7.70671
O -8.82245 -3.22742 6.7502
H -9.76499 -3.51974 6.58852
H -8.19339 -3.91608 6.38965
O 13.2284 0.420212 8.30553
H 13.7669 0.523758 7.46928
H 12.269 0.269224 8.0676
O -5.17092 -8.77322 -4.97315
H -5.23823 -7.8052 -4.73154
H -4.2661 -8.959 -5.35625
O 14.3408 8.49157 -4.81602
H 14.4948 9.25362 -5.44493
H 13.5989 8.72343 -4.18684
O -11.7535 -3.0267 -14.1407
H -10.8923 -2.6489 -13.8008
H -12.4467 -2.30641 -14.1655
O 5.94092 -11.4291 -10.2305
H 6.26424 -12.2955 -10.611
H 6.49935 -10.6798 -10.5863
O -11.1997 13.4328 -8.57537
H -10.391 13.6361 -9.12723
H -11.9335 14.0697 -8.81204
O 8.59728 4.80974 11.7629
H 8.84048 4.4977 10.8445
H 7.73918 4.38037 12.0445
O -4.79531 -4.36496 -1.00461
H -5.77637 -4.54841 -1.06658
H -4.41438 -4.85096 -0.218043
O -0.11689 -1.00639 -13.2727
H 0.093108 -1.43324 -14.1523
H 0.183497 -0.0526624 -13.2849
O -7.58381 -12.5792 -0.225423
H -7.78555 -12.519 -1.203
H -6.7895 -12.0099 -0.0133429
O -0.693392 -4.08237 0.894766
H -0.493094 -4.07748 -0.0849453
H -0.790558 -5.02626 1.21039
O -9.27848 -11.6708 -6.62045
H -9.2951 -11.7888 -7.6133
H -8.88007 -12.4832 -6.19481
O 5.01605 6.91023 9.77534
H 5.92832 7.31548 9.71616
H 4.47249 7.40987 10.4498
O -7.15334 -3.1294 -6.99856
H -7.37537 -3.93472 -6.44889
H -6.28779 -3.28012 -7.47614
O -12.3681 -8.87192 11.4512
H -11.6678 -8.19807 11.6868
H -11.9299 -9.69848 11.098
O -9.05546 -10.8269 1.7605
H -8.19877 -11.2611 1.48203
H -9.80278 -11.4874 1.68821
O -10.063 9.83919 3.14718
H -9.72909 9.05645 3.67234
H -9.32358 10.1984 2.5778
O -3.07795 -6.73648 -2.22814
H -2.8666 -6.10336 -2.97277
H -3.65556 -6.27677 -1.55361
O -1.65661 11.4248 -2.77484
H -1.08547 10.9561 -3.44873
H -2.61802 11.3412 -3.03695
O -5.73592 9.47318 14.7009
H -6.20125 9.05872 13.9189
H -4.87667 8.99089 -14.8342
O 6.92157 -5.32152 -12.4774
H 6.00305 -4.92843 -12.5196
H 7.50136 -4.75209 -11.8947
O -11.99 8.054 -13.5876
H -12.6512 8.67047 -14.0152
H -11.5468 7.49992 -14.2923
O -11.6737 11.6044 13.5811
H -11.8336 12.5321 13.9185
H -12.507 11.0622 13.6891
O 13.5209 -7.1038 13.1064
H 13.6016 -6.30216 12.5141
H 13.6405 -7.93396 12.5619
O 11.0458 -3.85894 9.81748
H 11.1629 -4.7884 9.46766
H 10.0792 -3.60632 9.77551
O -14.0643 -3.20063 10.013
H -14.0914 -3.41768 9.03727
H -13.6786 -2.28689 10.1407
O 5.10972 11.1322 10.6244
H 5.7564 10.5352 11.099
H 4.68322 10.6303 9.87191
O -7.0986 -13.153 7.37081
H -7.90986 -13.7039 7.17483
H -6.51201 -13.6417 8.01668
O -8.1066 9.03253 -9.98324
H -7.72608 9.33957 -10.8555
H -9.04576 9.3642 -9.89408
O 5.66741 -12.7939 12.9368
H 5.10604 -13.6212 12.9169
H 5.16528 -12.0614 13.3964
O 13.505 5.48186 -5.66317
H 14.4013 5.91761 -5.74504
H 13.3494 5.21561 -4.71191
O -9.92458 11.5452 -11.8278
H -9.84156 11.1202 -12.7292
H -10.8172 11.3232 -11.4355
O 5.76874 -11.6614 10.3856
H 5.86736 -11.855 11.3618
H 6.64348 -11.3451 10.0185
O 1.00187 -0.263362 12.2224
H 0.14618 -0.560877 12.6458
H 1.24998 -0.898096 11.4906
O 1.85465 13.4907 -6.09048
H 1.02553 13.3413 -6.6292
H 2.19556 14.4166 -6.25325
O -7.38376 10.8894 -0.757292
H -7.21744 11.5454 -1.49343
H -7.87211 11.3422 -0.0113227
O 0.0796762 -6.22704 14.3592
H 0.864752 -5.76443 14.7711
H -0.734466 -6.06134 -14.79
O -2.11422 0.91881 -7.79381
H -1.42758 0.584218 -8.43922
H -2.58431 1.70893 -8.18713
O 4.51899 3.42921 6.4382
H 3.52359 3.33588 6.45922
H 4.82021 3.9655 7.22664
O -10.9742 5.80737 14.5857
H -11.8942 5.61736 14.2431
H -10.8205 5.29444 -14.2754
O 7.31478 10.874 -4.01987
H 6.32944 10.914 -4.18561
H 7.59384 9.92145 -3.89804
O 11.0982 6.63628 -6.39013
H 12.0067 6.31443 -6.12344
H 10.6824 5.97807 -7.01766
O 11.6197 -5.43143 4.73376
H 11.9401 -4.69258 5.32661
H 11.1065 -5.04511 3.96741
O -11.977 0.308155 8.53257
H -12.2673 -0.02328 9.43028
H -11.0493 -0.0131788 8.34262
O 14.0906 12.3284 -12.5187
H 14.4376 11.3912 -12.4841
H 13.8335 12.6229 -11.5983
O 3.18877 -6.61554 -7.6747
H 3.54535 -5.76549 -8.0623
H 3.94766 -7.23643 -7.47831
O -9.83644 -1.29862 -12.9664
H -8.90985 -1.44755 -12.6211
H -9.85779 -0.461778 -13.5134
O 5.3921 -8.20673 -7.18856
H 5.62049 -9.16911 -7.3357
H 6.19624 -7.64145 -7.37242
O 0.675623 -6.79824 -7.00334
H 0.573063 -6.64519 -6.02047
H 1.64757 -6.8459 -7.23361
O 12.2236 7.03154 10.7565
H 11.5674 6.93814 11.5053
H 11.8588 7.6607 10.0702
O 2.01633 -9.8171 1.35971
H 2.82936 -10.1974 1.80057
H 2.27924 -9.36913 0.50521
O 12.5772 11.287 -3.07917
H 12.4758 10.7512 -2.24097
H 12.0104 10.8885 -3.8002
O -14.3632 -8.35085 -3.98677
H -13.7566 -7.74024 -3.47769
H -13.8621 -8.75773 -4.75053
O 1.5026 7.54964 -11.1813
H 0.863828 6.90242 -11.5973
H 1.53982 7.39348 -10.1942
O -13.0285 -12.814 13.1866
H -13.5885 -13.2668 13.8804
H -13.6186 -12.2924 12.5703
O 0.0679479 -4.31796 -1.77939
H 0.850153 -4.12997 -2.37336
H -0.153036 -5.29247 -1.8177
O 6.16554 3.77288 12.7883
H 5.30138 3.4748 12.3829
H 5.99468 4.14625 13.7001
O 6.55293 13.1491 -7.95848
H 5.69741 13.113 -8.47496
H 6.9696 12.2403 -7.93974
O -12.634 -5.57251 -5.37896
H -12.2702 -4.69499 -5.6913
H -12.2314 -6.31151 -5.91914
O -0.340974 13.1724 -7.51526
H -0.201285 12.778 -8.42352
H -1.30164 13.0768 -7.25455
O -3.81039 11.1294 1.64238
H -3.59487 11.8916 2.25274
H -2.98242 10.845 1.15911
O 8.27143 6.38957 -9.80707
H 8.05727 5.78724 -10.576
H 9.26164 6.51614 -9.74854
O 0.745515 -12.671 -7.27829
H 0.793038 -11.6759 -7.36507
H 0.921397 -12.9316 -6.32901
O -7.24771 -3.02258 -3.1312
H -7.06395 -2.51175 -2.2914
H -7.7017 -2.4251 -3.79218
O 8.44501 -3.53665 -4.75204
H 9.07143 -4.29901 -4.91447
H 8.92726 -2.67253 -4.89594
O -9.85734 -12.1629 -9.17712
H -9.48906 -12.9142 -9.72481
H -9.27551 -11.3566 -9.28334
O 0.919449 -8.64311 -14.3825
H 0.734953 -7.85106 14.7413
H 0.111707 -8.84522 -13.8287
O -4.68707 14.1664 -4.34911
H -5.21432 13.5276 -3.78883
H -5.29335 -14.8267 -4.70204
O -3.62451 -8.51253 1.80468
H -4.13835 -8.86966 2.58469
H -3.16608 -9.26648 1.33417
O -2.96888 14.0896 8.21541
H -2.90762 13.0916 8.23244
H -2.17367 14.4803 8.67905
O 10.1839 -3.52265 -2.04407
H 10.6357 -3.84276 -2.87677
H 9.25329 -3.88686 -2.00873
O -7.71151 12.6043 6.55798
H -8.47272 12.8895 5.97557
H -6.85371 12.6904 6.05128
O -14.7708 6.67762 11.2803
H 14.0995 6.85764 10.761
H -14.56 5.70077 11.2444
O -11.9969 -2.83805 12.7889
H -12.1882 -3.70734 12.3331
H -12.1633 -2.9326 13.7704
O -5.42062 -3.83404 -9.12382
H -4.50584 -3.55543 -8.83137
H -5.5645 -3.55985 -10.0747
O 6.76471 0.948417 12.7307
H 6.62818 1.93896 12.7177
H 6.28592 0.53578 11.9558
O -5.97357 -11.5043 5.77553
H -6.70336 -11.2766 5.1309
H -6.31058 -12.1735 6.43771
O 11.2798 -0.200944 -11.4734
H 10.6033 -0.551146 -12.1213
H 11.4282 0.773718 -11.6408
O -0.262053 8.55686 -13.7143
H -0.811214 8.14965 -14.4441
H -0.334336 7.99545 -12.89
O 14.6779 -8.71777 -0.517811
H 14.1492 -9.19143 0.186501
H 14.4749 -7.73914 -0.485311
O -2.09346 -4.75808 5.09775
H -1.67344 -5.34803 4.40817
H -2.59801 -5.31925 5.75387
O -1.66597 9.92385 4.53045
H -0.696263 9.83552 4.75814
H -2.04712 10.7208 4.99907
O -3.06406 0.236617 6.57882
H -2.19408 -0.0693747 6.19218
H -3.11346 1.23463 6.53988
O -14.4626 -9.80614 13.8635
H -13.9702 -9.33616 14.5961
H -13.9226 -9.77026 13.0226
O -10.7931 4.25975 5.352
H -10.7379 3.6787 4.54002
H -11.2907 5.09796 5.12887
O 5.07692 1.37081 8.52705
H 4.1829 1.37833 8.975
H 5.16371 2.17761 7.94265
O 9.82085 -1.22417 -4.79203
H 10.6982 -0.808126 -5.03125
H 9.65601 -1.11412 -3.81188
O -4.49845 -6.6286 7.84836
H -4.67625 -7.06703 8.72935
H -3.81576 -7.15777 7.34447
O -10.2889 -8.65319 0.852273
H -9.51752 -9.24348 1.09006
H -10.7016 -8.29116 1.68808
O -12.3871 2.11619 6.74568
H -11.6443 2.78468 6.78265
H -12.2457 1.42148 7.45092
O -2.53049 5.322 3.90222
H -3.49243 5.16104 4.123
H -2.43681 6.20679 3.44577
O -0.32028 5.67869 -11.8985
H -0.311304 5.13715 -12.7391
H -0.285702 5.06743 -11.1078
O 5.26115 1.64498 -9.00277
H 5.41563 0.942129 -8.30842
H 5.2488 2.54561 -8.56839
O 7.75631 2.77365 -2.90557
H 8.73418 2.62228 -3.04993
H 7.23459 2.2399 -3.57107
O 10.8248 11.8782 -8.01195
H 9.94394 12.2809 -7.76318
H 10.6722 11.0329 -8.52388
O 2.42347 13.5989 1.16657
H 2.17079 12.8992 0.498341
H 3.41939 13.6818 1.20196
O 6.52067 7.51522 2.02359
H 7.18101 7.35617 1.28967
H 6.41239 6.67921 2.56149
O -5.89654 -11.4168 -7.87593
H -5.70864 -10.8635 -8.68743
H -6.6963 -11.0503 -7.40049
O 4.82371 -13.6054 1.21455
H 4.95978 -14.512 0.815084
H 4.27887 -13.0448 0.591002
O 4.71888 1.08247 -14.6322
H 4.88767 1.30873 -13.6728
H 5.13072 1.78136 14.4888
O 6.88229 8.69217 -9.06076
H 7.20444 7.76635 -9.25839
H 6.85204 9.2225 -9.908
O 0.828697 -12.1763 -12.0155
H 1.39506 -11.4295 -12.3639
H 1.41415 -12.8737 -11.6021
O 11.9009 0.129873 -6.72631
H 12.8988 0.112205 -6.78823
H 11.5151 -0.529144 -7.37198
O 8.87109 6.87721 -14.3059
H 8.29052 7.66022 -14.0827
H 9.71801 6.92866 -13.7767
O -11.584 -10.6648 3.48709
H -11.2777 -11.196 4.27706
H -12.5144 -10.9378 3.24234
O 12.8715 8.32654 -8.26994
H 12.4802 8.63443 -7.40277
H 13.4859 7.55536 -8.1032
O -3.52566 13.4786 11.3217
H -4.35852 13.4546 11.8747
H -3.68543 13.0016 10.4575
O 3.39348 -10.3951 13.7171
H 3.22924 -9.68484 13.0327
H 2.51928 -10.7121 14.085
O -7.50854 -6.13752 -14.2069
H -7.27602 -6.64305 -13.376
H -7.04556 -6.55249 14.7156
O 1.63146 -13.589 1.79634
H 1.87452 -14.5553 1.71171
H 1.2327 -13.2691 0.936905
O -4.90528 12.1526 9.16111
H -4.89635 11.584 8.33854
H -5.60417 11.8154 9.79183
O 7.64131 -13.3825 1.44614
H 7.79322 -12.582 0.866465
H 6.65888 -13.5401 1.54613
O -7.14922 -4.6472 5.05898
H -7.37553 -4.91902 4.12363
H -6.36211 -4.03055 5.04567
O 1.73962 0.877187 -10.6713
H 2.58593 1.35645 -10.4388
H 1.34619 1.27787 -11.4987
O -10.487 -6.68751 12.0009
H -9.94803 -6.24471 11.2844
H -10.3916 -6.17532 12.8545
O 14.3082 -5.52084 10.8245
H -14.8405 -6.02714 10.1662
H 14.3839 -4.54074 10.641
O -8.86674 9.96213 8.17476
H -8.3589 10.396 7.43056
H -9.76988 10.3844 8.2525
O 1.00956 -6.02186 5.40595
H 1.36864 -5.09839 5.27093
H 0.449368 -6.04389 6.23401
O 5.00447 -10.4302 -4.60697
H 4.70907 -10.7176 -5.51807
H 4.70738 -9.4898 -4.44148
O -2.99012 -11.9694 12.3574
H -2.54696 -12.8519 12.2003
H -2.30288 -11.2944 12.626
O -4.25353 10.891 -3.6539
H -4.31749 10.1452 -2.99082
H -5.13567 11.3577 -3.7167
O 5.60641 -7.34031 9.09346
H 6.48352 -7.72802 9.37691
H 4.89783 -7.60563 9.74728
O -5.34457 -10.4371 -10.5817
H -5.40161 -10.8367 -11.4966
H -4.63956 -9.72799 -10.5711
O -8.8013 7.3913 -14.8248
H -9.53207 6.75528 14.633
H -9.19641 8.1982 -14.3858
O -4.72961 1.89806 4.15545
H -5.67273 1.62196 4.34058
H -4.65093 2.1993 3.20516
O -6.35792 -13.266 -12.8421
H -6.98578 -13.2444 -13.6201
H -5.42724 -13.4296 -13.1693
O -8.65132 9.81695 -6.99925
H -9.13098 9.00228 -6.67335
H -9.20599 10.2747 -7.69406
O 12.0532 -7.66283 -3.34408
H 12.3792 -8.12678 -4.16776
H 11.16 -8.03085 -3.08561
O -10.4834 5.89081 -3.59489
H -10.7319 6.59593 -4.25901
H -11.2482 5.73808 -2.96903
O -10.1378 7.33897 8.32065
H -9.54925 8.10606 8.06549
H -11.0959 7.6007 8.20385
O -9.74829 2.69619 -9.9023
H -9.92387 2.46626 -10.8595
H -9.04368 3.40407 -9.85337
O 9.80916 -4.36907 3.0352
H 10.3177 -4.80251 2.29124
H 8.84638 -4.28756 2.77756
O 13.2847 5.16153 -12.6473
H 12.9221 4.24929 -12.838
H 14.081 5.08502 -12.0473
O -12.943 -4.24264 0.0446703
H -13.4461 -5.09453 -0.100795
H -12.1054 -4.25277 -0.501541
O -8.24249 -7.20235 -9.9126
H -8.69141 -6.40629 -10.3185
H -7.78937 -6.93238 -9.06303
O 7.82706 7.29501 10.1047
H 8.05135 6.45583 10.6001
H 8.6304 7.60774 9.59791
O -14.483 8.2484 2.13476
H -13.8489 9.02033 2.09064
H -14.6925 7.93573 1.20828
O -9.49652 10.6592 11.8678
H -9.20719 9.7475 12.1595
H -10.4163 10.8437 12.2142
O 1.46027 6.77721 -2.81046
H 0.786279 7.51398 -2.8643
H 1.56494 6.49016 -1.85829
O -6.27736 -0.191367 8.67343
H -7.14302 -0.365156 9.14291
H -6.33049 0.681663 8.18869
O -12.3146 -12.1618 -7.14737
H -12.4778 -12.8946 -6.4868
H -11.3306 -12.0109 -7.24141
O -6.49713 -9.83247 -13.6196
H -6.48744 -8.90498 -13.2459
H -5.55775 -10.1438 -13.7633
O -10.5631 10.4253 -8.87264
H -11.2805 11.1207 -8.83223
H -10.8502 9.68514 -9.48065
O -11.4368 -14.1901 0.185088
H -11.4932 14.5719 -0.141047
H -12.0627 -13.6168 -0.34362
O -3.52461 -11.4976 -6.2578
H -3.07244 -12.1755 -6.83745
H -4.34107 -11.1538 -6.7217
O 13.4529 -10.6476 -3.59675
H 14.1636 -9.94502 -3.63243
H 12.8042 -10.4288 -2.86785
O -4.3047 6.42723 12.5681
H -5.20856 6.85339 12.5307
H -3.90517 6.41204 11.6515
O 0.414362 -10.916 3.281
H 0.921346 -10.4903 2.53151
H 0.220647 -11.8701 3.05277
O -13.7224 13.8008 9.70031
H -14.0985 13.6441 8.78712
H -12.724 13.8258 9.64974
O -2.6726 10.7583 -8.89223
H -3.09526 11.6641 -8.8608
H -2.96811 10.225 -8.09967
O -6.48794 -6.83618 1.88628
H -6.69469 -6.86029 0.908194
H -6.24457 -7.75456 2.19825
O -2.18155 14.2126 -2.8109
H -3.00088 14.1708 -3.38268
H -1.69875 13.338 -2.8558
O 10.1981 14.4769 -13.1994
H 9.74612 14.0076 -13.958
H 10.4808 -14.3157 -13.4934
O -11.728 -6.53354 -10.8493
H -11.1836 -5.70827 -10.9993
H -11.2305 -7.32866 -11.1961
O 2.87589 -8.95459 -10.4788
H 2.83699 -9.79664 -9.94083
H 3.75401 -8.5014 -10.3255
O 13.0339 6.70975 14.4022
H 12.3118 6.32906 13.8247
H 12.9655 6.32107 -14.3846
O 6.60788 8.55646 -14.382
H 5.91264 8.44878 -13.6713
H 6.22999 9.08779 14.5655
O 9.64817 6.01488 -3.95598
H 8.95826 5.42579 -4.37666
H 10.3301 6.2712 -4.64099
O -7.91772 -3.67838 -13.2102
H -7.83705 -4.59664 -13.5978
H -7.75147 -2.99906 -13.9249
O 2.94627 -4.25849 7.86822
H 3.51772 -5.01459 7.54924
H 2.64632 -3.71393 7.08498
O -9.34705 -5.68454 9.50877
H -9.43 -4.83551 8.98701
H -9.56579 -6.46136 8.91828
O -2.65342 3.12384 -14.2294
H -2.69962 2.3994 14.7885
H -3.48123 3.68274 -14.2778
O -7.46951 3.64376 5.49251
H -8.22637 3.76503 6.13473
H -7.71804 2.95593 4.81052
O 10.2987 -8.95016 2.66721
H 10.0762 -9.91034 2.49832
H 11.0474 -8.89269 3.32755
O -13.1248 10.6825 -3.59175
H -13.7042 10.5421 -4.39465
H -12.2095 10.9581 -3.88529
O 5.18243 1.43663 -11.7984
H 5.31111 2.37711 -12.1129
H 4.93376 1.44017 -10.8298
O 11.7857 -6.71171 9.71698
H 12.7465 -6.63509 9.9835
H 11.648 -7.56073 9.20691
O 3.65756 -13.5442 -11.5267
H 3.87924 -12.9657 -12.3117
H 4.46898 -13.6518 -10.9523
O 9.24631 1.3324 5.77619
H 9.94861 1.52069 5.08967
H 8.34188 1.4893 5.37951
O -14.7065 12.6205 -2.86074
H 14.1061 12.276 -3.15
H -13.9962 11.9676 -3.12398
O 1.61799 -2.67989 -6.76788
H 1.35673 -2.80611 -5.81091
H 0.825004 -2.84468 -7.3544
O 5.18283 13.2232 6.76965
H 4.42689 13.2097 6.11516
H 4.87168 13.627 7.62996
O 6.17291 4.72469 8.37059
H 5.86875 5.4717 8.96173
H 7.1705 4.66182 8.39948
O 8.50682 -13.3041 -11.8999
H 7.8474 -12.7613 -12.42
H 8.98796 -13.9258 -12.5178
O -6.461 -7.35059 -11.9294
H -6.95294 -7.38359 -11.0594
H -5.5401 -6.99136 -11.7781
O 8.47131 -10.7678 10.4889
H 8.94158 -11.6157 10.2442
H 8.90786 -9.99811 10.0231
O 4.91076 8.53277 -12.3553
H 4.91959 7.61511 -11.958
H 3.97132 8.78789 -12.5841
O 3.37189 5.2512 -11.695
H 3.02725 4.90024 -10.8244
H 2.60516 5.56623 -12.2544
O 6.64062 -12.6544 -5.79775
H 5.79088 -13.173 -5.703
H 7.37093 -13.1164 -5.29458
O 6.58997 -10.6974 -7.72693
H 6.25881 -10.9874 -8.62482
H 6.80059 -11.503 -7.1732
O 3.239 9.34102 3.39709
H 3.68029 8.87403 2.63082
H 2.75612 10.1497 3.06114
O -0.0063497 12.4281 -10.2515
H 0.302113 11.4775 -10.2856
H 0.607094 12.9974 -10.7988
O 13.0545 11.2057 7.12517
H 13.0957 11.3952 8.10618
H 12.5184 11.917 6.67057
O 2.58675 -0.547738 14.6914
H 3.47508 -0.0913976 14.7423
H 2.21233 -0.446342 13.7697
O -0.355412 12.3398 6.31092
H -0.526262 12.8039 5.44176
H 0.183652 11.5136 6.14732
O -8.39621 -10.8781 4.50854
H -9.20322 -10.8589 5.09874
H -8.64266 -10.5513 3.59617
O -6.79409 -7.02646 -1.04349
H -7.14408 -6.09339 -1.12637
H -7.4657 -7.66844 -1.41333
O 8.84684 13.1463 -6.37025
H 8.57704 13.3244 -5.42396
H 8.10942 13.4255 -6.98527
O -1.51937 5.71232 -7.98249
H -1.16072 4.96545 -8.54242
H -2.41194 5.99395 -8.33461
O 1.84399 13.0873 8.35577
H 2.58826 13.7407 8.49407
H 1.45953 13.2088 7.44067
O 4.72352 -1.06646 -4.71764
H 4.7543 -0.459953 -3.92317
H 4.52613 -1.99959 -4.41716
O 9.47202 8.95952 8.77156
H 8.89742 9.0488 7.95802
H 9.47571 9.82437 9.27356
O 11.6102 13.3188 6.32291
H 10.9065 13.5293 7.0015
H 11.2031 13.3188 5.40954
O -9.11195 2.96651 -0.331286
H -10.0929 2.98705 -0.137962
H -8.96724 2.76197 -1.29938
O 13.0456 14.4763 -0.303234
H 12.4493 14.0781 0.393792
H 12.4889 -14.7681 -0.99412
O 6.63755 2.16628 5.22385
H 6.11388 2.70253 5.88581
H 6.66045 2.64828 4.34799
O 1.91422 -6.44139 9.57067
H 1.71703 -7.12133 8.86444
H 2.1684 -5.57612 9.13859
O -2.71339 -0.500553 -3.90908
H -2.75195 0.22794 -3.22513
H -2.6762 -1.38779 -3.44929
O -2.56543 -2.81488 -2.33186
H -3.26813 -3.33799 -1.84963
H -1.66115 -3.15677 -2.0762
O 6.07817 -3.69347 -5.86433
H 6.95488 -3.48563 -5.43056
H 5.86553 -2.98837 -6.54079
O 0.647531 14.2283 12.5552
H 0.535782 13.4349 11.9567
H 0.115718 14.0928 13.3911
O -7.72462 4.58111 -9.90748
H -7.001 5.18441 -9.57227
H -7.98074 4.85149 -10.8355
O 9.43355 -8.44058 -1.80552
H 9.95164 -7.87306 -1.16561
H 8.5203 -8.05295 -1.93079
O 1.55077 11.5948 2.96678
H 0.563588 11.7542 2.97152
H 2.02084 12.4238 2.66387
O 14.7739 2.79958 6.7527
H -14.0105 2.53469 7.03752
H 14.2986 2.00303 6.37913
O 0.51266 -7.68569 -9.65947
H 0.413374 -7.15537 -8.81752
H 1.4089 -8.1291 -9.67036
O 12.0585 12.3331 14.8518
H 11.565 13.0854 -14.4174
H 12.5024 11.7746 -14.1531
O 5.93706 13.7304 -5.07092
H 6.57239 14.4777 -5.26545
H 5.87745 13.1279 -5.86681
O -3.48965 -12.9043 5.74883
H -4.19413 -12.3571 5.29683
H -3.55281 -12.7771 6.73868
O -13.5345 4.79623 -11.1689
H -13.5125 3.80869 -11.0132
H -12.8691 5.03714 -11.8754
O -9.68012 5.38665 11.2052
H -9.63077 4.41755 10.9635
H -10.3027 5.50604 11.9785
O 4.09939 -2.086 -7.80631
H 3.15515 -2.2774 -7.53843
H 4.24374 -1.0969 -7.835
O 4.88749 -7.1655 -11.0307
H 4.85332 -7.09946 -12.0279
H 4.84236 -6.24859 -10.6341
O 4.47485 -10.857 2.15429
H 4.66784 -11.0337 3.11944
H 4.63508 -11.6898 1.62443
O -8.00272 13.7153 -9.25627
H -7.56913 14.5461 -9.60539
H -7.74459 12.9382 -9.83017
O 7.27683 12.3857 3.48799
H 6.80906 11.9178 4.23784
H 7.74375 11.7124 2.91469
O -2.69099 1.59951 -1.92057
H -2.30187 2.51814 -1.98903
H -2.7474 1.33227 -0.9586
O 14.0248 12.0579 3.25055
H 14.7103 11.6992 3.88409
H 13.5465 11.2973 2.81146
O -0.209158 4.1432 -14.0524
H -1.13123 3.76098 -14.113
H 0.133882 4.33342 14.7334
O 2.33284 4.30754 -9.25529
H 2.14682 5.27704 -9.09575
H 3.10492 4.01873 -8.6892
O -11.9498 4.19892 -0.91466
H -12.4781 4.62408 -1.64957
H -11.4556 4.90521 -0.407755
O 6.66137 -5.05386 5.31279
H 5.9451 -5.55044 5.80303
H 7.55041 -5.26288 5.7201
O 4.12117 3.69198 -7.32103
H 4.89739 3.67391 -6.69083
H 3.34882 3.20557 -6.91255
O -2.28749 -9.08235 -3.27422
H -2.8833 -9.78433 -2.88408
H -2.41195 -8.22466 -2.77538
O -8.45409 13.2724 11.7388
H -8.71248 12.3065 11.7228
H -9.27253 13.838 11.6381
O 4.13508 9.57052 5.7703
H 3.87081 9.53135 4.80666
H 4.85524 10.2537 5.89091
O -14.167 -11.4967 3.44983
H 14.7707 -12.1353 3.40011
H -14.5145 -10.5655 3.55957
O -8.29736 8.07161 10.4769
H -8.79494 7.20996 10.5767
H -8.52209 8.48609 9.59505
O -9.37852 -9.79598 -4.5758
H -10.0908 -10.1105 -3.94841
H -9.33043 -10.4126 -5.36159
O 9.8858 -6.44332 11.7989
H 10.4624 -6.3555 10.9866
H 8.97351 -6.08515 11.6004
O 11.6946 -10.4461 -1.43157
H 11.8044 -11.0546 -0.645705
H 10.781 -10.0398 -1.41349
O -8.03996 -9.66718 13.5598
H -7.81771 -8.9794 12.8687
H -7.5819 -9.43712 14.4184
O -9.01467 7.48246 4.20315
H -8.22236 7.44483 4.81209
H -9.05215 6.64824 3.65301
O 2.60974 4.04993 3.44561
H 3.60338 3.9689 3.36758
H 2.33387 3.87093 4.38998
O -4.88078 9.76054 -0.701733
H -4.42593 9.97522 0.162563
H -5.69362 10.3343 -0.80211
O -11.0727 -4.95975 6.51933
H -11.895 -4.54955 6.9136
H -11.156 -5.95611 6.53688
O -4.18647 -11.0386 -13.6576
H -4.04489 -11.9011 -14.1436
H -3.3014 -10.6131 -13.4692
O 4.51368 -6.31927 6.64193
H 4.41424 -6.90663 5.83875
H 4.72996 -6.88069 7.44069
O -2.90104 12.1722 -6.34795
H -3.2702 12.4469 -5.46013
H -3.626 12.2077 -7.03581
O 3.12223 5.17767 9.00659
H 2.63952 5.66208 8.27699
H 3.79245 5.78971 9.42635
O -3.83893 -0.951072 -9.6781
H -4.64754 -0.493441 -10.0478
H -3.34926 -0.324407 -9.07189
O 2.04253 -13.5083 6.19985
H 2.30465 -13.9611 5.34766
H 1.10764 -13.1625 6.11969
O 9.06284 4.2747 9.1995
H 8.55391 3.49837 8.82763
H 10.044 4.09745 9.12302
O 3.93985 4.79316 -1.20494
H 4.41721 4.37459 -0.432347
H 4.04448 5.78676 -1.16269
O -4.79754 4.93469 -14.6281
H -5.05237 5.34132 14.2002
H -5.59558 4.48837 -14.2233
O 6.96408 -0.572819 -10.8935
H 7.32852 -0.00712662 -10.1538
H 6.36333 -0.0199562 -11.4709
O -0.790797 -12.4096 6.16974
H -1.7192 -12.5908 5.84541
H -0.660557 -12.8378 7.06396
O 9.99882 -4.17023 -11.7338
H 10.4823 -5.01213 -11.9735
H 10.0444 -3.52986 -12.5005
O 13.1768 -4.00583 -8.49479
H 13.0522 -4.28371 -9.44729
H 13.8198 -4.62754 -8.04756
O -2.81266 -0.817266 -13.9109
H -1.84521 -0.98044 -13.7175
H -2.9004 -0.312747 -14.7698
O -6.27466 -7.26543 13.108
H -5.80897 -8.06107 12.7207
H -6.56529 -6.65705 12.3695
O 9.62282 0.232113 -9.30753
H 9.67312 1.19555 -9.57066
H 10.393 -0.263647 -9.70878
O -13.4447 2.24604 -10.3864
H -12.8077 1.80148 -11.0161
H -14.1811 1.6108 -10.1535
O 5.89282 0.387097 1.3325
H 5.62656 0.122646 0.405599
H 6.66717 -0.171815 1.62912
O 1.41453 1.70827 1.44612
H 0.542236 1.46817 1.87206
H 1.75676 2.55937 1.84424
O 13.621 -9.73978 6.24091
H 13.074 -9.27466 5.54487
H 13.2188 -9.58021 7.14244
O -1.81397 -14.1374 11.3913
H -0.908962 -14.4833 11.6389
H -2.42972 14.7989 11.2211
O -5.25669 4.94345 4.47138
H -5.52513 5.18921 3.53998
H -5.9462 4.33748 4.86807
O 2.44706 9.1499 -13.8029
H 1.48738 8.88852 -13.6996
H 2.55498 10.118 -13.577
O -1.89275 -5.39436 -4.24763
H -1.64265 -4.44642 -4.44474
H -1.78481 -5.94637 -5.07444
O 13.5801 12.1458 -8.35049
H 12.6174 11.9419 -8.17297
H 13.6625 13.0725 -8.71712
O 14.597 5.41855 7.72055
H 14.7025 4.49125 7.36143
H 14.0271 5.9544 7.09764
O -1.76409 11.6973 8.56385
H -1.1112 11.8502 7.822
H -2.57784 11.2416 8.20306
O 6.61129 11.036 6.09751
H 7.49809 10.8367 6.51446
H 6.17542 11.7916 6.58638
O 11.202 -6.56011 -7.05804
H 11.8151 -7.32439 -7.25806
H 11.413 -6.19168 -6.15266
O -9.30301 5.41929 2.11248
H -8.54129 5.12772 1.5339
H -9.86594 4.62673 2.34684
O 2.13448 -7.22111 3.33152
H 1.76378 -6.76586 4.14102
H 2.36627 -8.16714 3.55795
O -11.4912 0.407837 4.62022
H -11.6321 1.16797 5.25453
H -10.6922 -0.121128 4.90607
O -11.2309 11.2629 8.05444
H -11.4481 12.1785 7.71621
H -12.0305 10.6713 7.95182
O -3.284 -12.1789 8.40148
H -3.80833 -11.3586 8.17295
H -3.8497 -12.7937 8.95096
O -4.79523 4.21554 -4.00512
H -3.86554 4.43017 -4.30443
H -5.1794 3.50484 -4.59444
O -5.84854 12.5259 4.58331
H -5.99939 11.8341 3.87717
H -5.60869 13.3957 4.15202
O 1.33061 11.4766 14.5874
H 1.67376 11.7341 -14.215
H 0.483196 11.973 14.3989
O -6.27293 2.2165 -5.1522
H -5.73927 1.70273 -5.82393
H -7.15769 2.46318 -5.54758
O -14.0496 12.9076 7.12996
H -14.1181 11.9778 6.76823
H -14.7879 13.467 6.75335
O 10.8225 3.51922 13.3294
H 11.7397 3.56467 12.9336
H 10.2637 4.26264 12.9619
O 4.65962 8.93585 -4.37082
H 4.71758 8.18312 -5.02657
H 4.21856 9.72193 -4.80386
O 7.19854 -6.12162 -6.96219
H 7.74957 -6.66728 -6.33085
H 6.53334 -5.58357 -6.44452
O 0.91176 -14.4463 -9.33127
H 0.647302 -13.7955 -8.61964
H 0.10217 14.7659 -9.64924
O -9.99812 -8.26006 -11.985
H -9.10378 -8.20666 -11.5409
H -9.8745 -8.39426 -12.9683
O -2.53952 -8.75791 14.022
H -3.17993 -8.01893 14.2313
H -2.1611 -9.12195 -14.8326
O -12.2409 6.35184 -7.04933
H -13.1242 6.25487 -7.5079
H -11.9979 5.48808 -6.60791
O 13.6032 9.45392 -12.8882
H 13.4764 8.56772 -13.3338
H 12.8802 9.59324 -12.2115
O -2.19738 10.4111 -13.2408
H -2.81417 9.987 -12.5777
H -1.45068 9.78047 -13.4522
O 13.9779 -8.80382 -9.75939
H 13.5716 -9.29626 -8.9897
H 13.2577 -8.52766 -10.3959
O 3.57807 -14.8375 13.2295
H 2.6401 -14.5188 13.093
H 3.56507 13.9841 13.6967
O -13.3727 5.31765 -2.85768
H -14.2385 4.83377 -2.98536
H -13.4644 6.25738 -3.18705
O -13.5815 9.95618 14.703
H -13.943 10.8549 -14.7543
H -14.2117 9.5069 14.0698
O 11.8292 13.3113 -10.8453
H 11.9369 14.1095 -10.2525
H 11.5871 13.6116 -11.7679
O 1.36762 -2.93398 -11.7623
H 2.34032 -2.7141 -11.6883
H 0.849767 -2.09794 -11.9435
O 14.8429 -3.33801 13.8214
H -14.3735 -4.19218 13.6452
H 14.199 -3.16298 13.0767
O 6.18951 -14.1965 -10.2555
H 7.10259 -13.9147 -10.5502
H 6.25816 14.6729 -9.71155
O 2.30804 -4.75459 -14.3052
H 3.10752 -5.35498 -14.3235
H 2.35282 -4.16449 -13.4991
O 9.25315 -8.8881 8.49842
H 9.19276 -7.90202 8.65321
H 8.39759 -9.21557 8.09747
O 4.32033 -4.92716 11.7404
H 3.86357 -5.72605 11.3491
H 5.25716 -5.16923 11.9929
O -12.6745 1.17055 1.31091
H -12.7083 0.205551 1.57095
H -12.7077 1.24861 0.314528
O -5.78743 12.4315 -12.3002
H -5.96536 11.8551 -11.5026
H -6.58946 12.4309 -12.8974
O 5.18857 13.2571 0.814221
H 5.83159 12.7042 1.3442
H 5.52389 13.3514 -0.123144
O -7.15361 -1.954 14.6582
H -6.64479 -1.41613 -14.3753
H -6.62866 -2.00892 13.8089
O -7.9381 -5.51943 -5.92405
H -8.67198 -6.18599 -5.79331
H -7.33127 -5.53163 -5.12932