LAMMPS data file via write_data, version 15 May 2015, timestep = 23005000

2611 atoms
6 atom types
1749 bonds
4 bond types
894 angles
3 angle types
44 dihedrals
3 dihedral types
10 impropers
1 improper types

-1.4955721336578765e+01 1.4955721336578765e+01 xlo xhi
-1.4955721336578765e+01 1.4955721336578765e+01 ylo yhi
-1.4955721336578765e+01 1.4955721336578765e+01 zlo zhi

Masses

1 15.9994
2 1.00794
3 12.0107
4 1.00794
5 12.0107
6 12.0107

Bond Coeffs # harmonic

1 1000 1
2 469 1.4
3 367 1.08
4 469 0.7

Angle Coeffs # harmonic

1 100 109.47
2 35 120
3 63 120

Dihedral Coeffs # opls

1 0 7.25 0 0
2 0 7.25 0 0
3 0 7.25 0 0

Improper Coeffs # cvff

1 2.5 -1 2

Atoms # full

48 16 2 4.0999999999999998e-01 -1.2420898623864526e+01 -1.1352361941009436e+01 -9.6398880269474603e+00 -8 -1 -1
2466 822 2 4.0999999999999998e-01 -1.0024313143133620e+01 -1.2981431624178963e+01 -9.3496157569871805e+00 -4 2 -1
2464 822 1 -8.1999999999999995e-01 -9.9026514228420233e+00 -1.3937836112648922e+01 -9.6151623183677692e+00 -4 2 -1
2196 732 2 4.0999999999999998e-01 -1.0673678709399484e+01 -8.5981503907522381e+00 -1.1758149691803270e+01 -4 -2 -5
917 306 2 4.0999999999999998e-01 -1.3202748333029215e+01 -1.0746428702671050e+01 -1.3968868503600921e+01 -3 -4 -5
47 16 2 4.0999999999999998e-01 -1.1392413889872941e+01 -1.0531041703132203e+01 -1.0606504960825728e+01 -8 -1 -1
2194 732 1 -8.1999999999999995e-01 -1.0471214869378299e+01 -9.4725024115007130e+00 -1.2199220031036518e+01 -4 -2 -5
918 306 2 4.0999999999999998e-01 -1.1687572839174340e+01 -1.0984149952607201e+01 -1.3408129787415620e+01 -3 -4 -5
46 16 1 -8.1999999999999995e-01 -1.1470900183908476e+01 -1.1066468708397638e+01 -9.7655626769842634e+00 -8 -1 -1
562 188 1 -8.1999999999999995e-01 -1.3756229578719932e+01 -1.3517763611099602e+01 -1.0557444626160555e+01 -8 3 -4
2465 822 2 4.0999999999999998e-01 -1.0795585784965441e+01 -1.4384688613200213e+01 -9.6700910405699645e+00 -4 2 -1
1309 437 1 -8.1999999999999995e-01 -7.4171920490537504e+00 -1.3309919795786930e+01 -1.0583369425467389e+01 -2 -4 0
1343 448 2 4.0999999999999998e-01 -9.4112943170025325e+00 -8.6135781353682752e+00 -9.7542698007516790e+00 -7 -4 3
564 188 2 4.0999999999999998e-01 -1.4436695755846358e+01 -1.4215359015540033e+01 -1.0781838321075117e+01 -8 3 -4
2195 732 2 4.0999999999999998e-01 -1.0223095804966658e+01 -9.3141561648202895e+00 -1.3154934159854948e+01 -4 -2 -5
2310 770 2 4.0999999999999998e-01 -1.4314763998813675e+01 -9.1857344275677981e+00 -1.3337762167889018e+01 -8 -2 -3
916 306 1 -8.1999999999999995e-01 -1.2341544418470402e+01 -1.1230660903991597e+01 -1.4123377739145054e+01 -3 -4 -5
581 194 2 4.0999999999999998e-01 -5.7039244386649592e+00 -1.0757802926182180e+01 -1.3246993583867509e+01 -5 0 -2
2121 707 2 4.0999999999999998e-01 -7.2244949838615966e+00 -9.1531302617372035e+00 -1.2347509045342418e+01 -6 0 0
2119 707 1 -8.1999999999999995e-01 -7.4735060109009082e+00 -8.3185470836834927e+00 -1.1856092172851005e+01 -6 0 0
2120 707 2 4.0999999999999998e-01 -7.7233527410739304e+00 -8.5476655258342689e+00 -1.0915290665789140e+01 -6 0 0
1344 448 2 4.0999999999999998e-01 -8.4968379223199513e+00 -8.6427293602263724e+00 -8.4016368930725420e+00 -7 -4 3
1342 448 1 -8.1999999999999995e-01 -8.5023391666128401e+00 -8.8114606743801431e+00 -9.3872968649268458e+00 -7 -4 3
1654 552 1 -8.1999999999999995e-01 -1.4933469898958752e+01 -7.7711861755966964e+00 -1.4699717401179290e+01 -1 -1 -2
2579 860 2 4.0999999999999998e-01 -7.2848428404479701e+00 -1.0487184940267518e+01 -9.6093449859349995e+00 -2 6 -1
1387 463 1 -8.1999999999999995e-01 -1.4490265582217949e+01 -1.1983752688791412e+01 -8.2070091061076624e+00 -7 0 3
580 194 1 -8.1999999999999995e-01 -6.6840554092314584e+00 -1.0697142457752564e+01 -1.3058076382637976e+01 -5 0 -2
582 194 2 4.0999999999999998e-01 -7.0239873790301717e+00 -1.1592355532830103e+01 -1.2769864819579217e+01 -5 0 -2
563 188 2 4.0999999999999998e-01 -1.2924588147874807e+01 -1.3680363774227878e+01 -1.1088443519287289e+01 -8 3 -4
2309 770 2 4.0999999999999998e-01 -1.3810865618679356e+01 -8.7733049487333332e+00 -1.1840202679817516e+01 -8 -2 -3
1389 463 2 4.0999999999999998e-01 -1.4181035738568102e+01 -1.2671061543049301e+01 -8.8642834336083602e+00 -7 0 3
1311 437 2 4.0999999999999998e-01 -7.5044378185011480e+00 -1.4006830841621865e+01 -1.1295218626999596e+01 -2 -4 0
2580 860 2 4.0999999999999998e-01 -6.8146765499757702e+00 -1.2045273957480266e+01 -9.7435029631198375e+00 -2 6 -1
2578 860 1 -8.1999999999999995e-01 -6.5640966519214565e+00 -1.1144430375340765e+01 -9.3889374620846695e+00 -2 6 -1
2308 770 1 -8.1999999999999995e-01 -1.3813708921384009e+01 -9.4970630495850141e+00 -1.2530269508142373e+01 -8 -2 -3
1310 437 2 4.0999999999999998e-01 -8.1381007097691160e+00 -1.3437240929094509e+01 -9.9021160664503967e+00 -2 -4 0
164 55 2 4.0999999999999998e-01 -1.0753114076812764e+01 -1.0983796141217059e+01 -8.0820657554754884e+00 -3 0 -4
1932 644 2 4.0999999999999998e-01 -9.0600439696220594e+00 -1.4063493112969894e+01 -1.3299290075056602e+01 -4 -2 -4
856 286 1 -8.1999999999999995e-01 -5.7038813384539822e+00 -1.4575394313262718e+01 -1.4437802060397823e+01 -8 -4 -1
113 38 2 4.0999999999999998e-01 -7.7855990112494631e+00 -1.0717561083916973e+01 -1.4840464512423351e+01 -4 3 -6
1180 394 1 -8.1999999999999995e-01 -1.4485871212902849e+01 -7.8561490054860856e+00 -1.0355656300234372e+01 -6 4 -6
1546 516 1 -8.1999999999999995e-01 -1.1825314557680144e+01 -1.4914219596994384e+01 -1.1876553210455857e+01 -3 -3 5
402 134 2 4.0999999999999998e-01 -6.3762432401741744e+00 -1.1112633647358120e+01 -7.5778102154630380e+00 -3 -3 4
1548 516 2 4.0999999999999998e-01 -1.1112310197150805e+01 -1.4438674372792518e+01 -1.2391827525484366e+01 -3 -3 5
2178 726 2 4.0999999999999998e-01 -1.0672736763095543e+01 -1.4027656416228009e+01 -1.4217281836565528e+01 -5 0 -1
2177 726 2 4.0999999999999998e-01 -1.1280383650406648e+01 -1.2548918798125454e+01 -1.3884420894433839e+01 -5 0 -1
2176 726 1 -8.1999999999999995e-01 -1.0471688011512121e+01 -1.3133349929980675e+01 -1.3817505124508559e+01 -5 0 -1
1931 644 2 4.0999999999999998e-01 -7.4621197781705719e+00 -1.4086047927858516e+01 -1.3635185358001536e+01 -4 -2 -4
1930 644 1 -8.1999999999999995e-01 -8.1647726894124411e+00 -1.4382653547950955e+01 -1.2988400932961536e+01 -4 -2 -4
2534 845 2 4.0999999999999998e-01 -1.4825999800304327e+01 -1.0361423572700891e+01 -7.9315153121821833e+00 0 -2 1
94 32 1 -8.1999999999999995e-01 -1.1653457122852904e+01 -5.2238228512777596e+00 -7.9373345488940572e+00 -2 0 2
1475 492 2 4.0999999999999998e-01 -1.1844591090632198e+01 -5.1107727830797245e-01 -1.2757923210331239e+01 -5 -3 1
1655 552 2 4.0999999999999998e-01 -1.4335092429013333e+01 -6.9766652236697420e+00 -1.4803191873886165e+01 -1 -1 -2
2387 796 2 4.0999999999999998e-01 -1.1879143838883646e+01 -1.8437105085970629e+00 -1.1117250670866479e+01 -2 -4 -1
96 32 2 4.0999999999999998e-01 -1.1902807749514205e+01 -4.6852959960364640e+00 -8.7422191316100104e+00 -2 0 2
239 80 2 4.0999999999999998e-01 -1.4647329566744506e+01 -6.5558485592387701e+00 -7.8554042537929627e+00 -1 -3 -2
551 184 2 4.0999999999999998e-01 -1.4286188213733586e+01 -3.8993371656479656e+00 -7.9744037367224267e+00 0 1 -7
2440 814 1 -8.1999999999999995e-01 -1.0718640077022153e+01 -7.1781921837477762e+00 -1.0581703425531916e+01 1 0 -3
2442 814 2 4.0999999999999998e-01 -9.9521908570355180e+00 -6.6298563377183264e+00 -1.0247174664152624e+01 1 0 -3
614 205 2 4.0999999999999998e-01 -1.1770174532692629e+01 -3.1521434160083803e+00 -1.2783727138744482e+01 -4 3 -4
613 205 1 -8.1999999999999995e-01 -1.1676963603868479e+01 -4.0655072959178256e+00 -1.2387363366164616e+01 -4 3 -4
550 184 1 -8.1999999999999995e-01 -1.4686155891141233e+01 -4.2784680436587816e+00 -8.8088567025939604e+00 0 1 -7
1637 546 2 4.0999999999999998e-01 -8.4786614313810560e+00 -4.6032226770259577e+00 -8.4596803408105394e+00 -4 0 1
1969 657 1 -8.1999999999999995e-01 -1.0986963752501710e+01 -7.3706951736393052e+00 -1.3847772545485389e+01 -2 2 -1
276 92 2 4.0999999999999998e-01 -7.7897208273470273e+00 -6.6913595910407242e+00 -1.1950333672926757e+01 1 -2 2
615 205 2 4.0999999999999998e-01 -1.0977904487708745e+01 -4.0488721416193485e+00 -1.1672474760125230e+01 -4 3 -4
1182 394 2 4.0999999999999998e-01 -1.3858724882387119e+01 -7.0772313783627983e+00 -1.0354700228049765e+01 -6 4 -6
2205 735 2 4.0999999999999998e-01 -8.7458686080994426e+00 -2.9643496672846243e+00 -1.0709075333240094e+01 0 0 -1
95 32 2 4.0999999999999998e-01 -1.2360890068009070e+01 -5.9085811954825633e+00 -7.7622038303355270e+00 -2 0 2
1970 657 2 4.0999999999999998e-01 -1.0505518380106627e+01 -6.7491375797291333e+00 -1.3229789853433660e+01 -2 2 -1
611 204 2 4.0999999999999998e-01 -6.7862723492290300e+00 -5.1966934742700488e-01 -1.2345003843640724e+01 -3 -2 0
1638 546 2 4.0999999999999998e-01 -9.8041287209976922e+00 -5.3273700333617260e+00 -7.8388396611065883e+00 -4 0 1
2203 735 1 -8.1999999999999995e-01 -9.4814689386917586e+00 -3.6205628212221992e+00 -1.0877308933480240e+01 0 0 -1
1476 492 2 4.0999999999999998e-01 -1.2153037353493426e+01 -1.5712841327273370e+00 -1.3961051801104443e+01 -5 -3 1
1474 492 1 -8.1999999999999995e-01 -1.2098370980733986e+01 -1.4549671954339978e+00 -1.2969332049138988e+01 -5 -3 1
610 204 1 -8.1999999999999995e-01 -6.3771213148149926e+00 -1.3717865717275544e+00 -1.2671374438923225e+01 -3 -2 0
2204 735 2 4.0999999999999998e-01 -9.1044648747611596e+00 -4.4408455714703283e+00 -1.1307460355009434e+01 0 0 -1
2512 838 1 -8.1999999999999995e-01 -8.0581839683121821e+00 -2.6301853775516655e+00 -8.0715769224036471e+00 -1 4 1
2386 796 1 -8.1999999999999995e-01 -1.2049733242446656e+01 -1.8494730428808790e+00 -1.0131912074466314e+01 -2 -4 -1
1636 546 1 -8.1999999999999995e-01 -8.9944377345524273e+00 -5.4585693886656355e+00 -8.4108653048095512e+00 -4 0 1
1595 532 2 4.0999999999999998e-01 -9.4534431038566922e+00 -1.6283450872341074e+00 -8.3418537174859040e+00 -7 -2 -1
2514 838 2 4.0999999999999998e-01 -7.2934724248760423e+00 -2.7114846755631348e+00 -8.7108208330199766e+00 -1 4 1
1971 657 2 4.0999999999999998e-01 -1.1899875728688301e+01 -7.0099468070313167e+00 -1.4038765877121765e+01 -2 2 -1
2441 814 2 4.0999999999999998e-01 -1.1579678842273825e+01 -6.7397761581794313e+00 -1.0323963758557193e+01 1 0 -3
274 92 1 -8.1999999999999995e-01 -7.7998093980709351e+00 -5.6926270681626328e+00 -1.1999908920635811e+01 1 -2 2
1384 462 1 -8.1999999999999995e-01 -8.8515125762522313e+00 -4.7613547317601324e+00 -1.4462716069060372e+01 -3 2 2
275 92 2 4.0999999999999998e-01 -7.7263614782958214e+00 -5.4055496649429013e+00 -1.2955009998160108e+01 1 -2 2
1027 343 1 -8.1999999999999995e-01 -1.2998438948605688e+01 -5.5162197112320950e+00 -1.0583065103844831e+01 -1 2 -5
566 189 2 4.0999999999999998e-01 -5.1825591617693743e+00 -6.3377200185722824e+00 -1.4312339035766120e+01 -3 5 -2
1029 343 2 4.0999999999999998e-01 -1.2716917455792103e+01 -4.8616738819545819e+00 -1.1284735625235999e+01 -1 2 -5
2287 763 1 -8.1999999999999995e-01 -1.3027712606322257e+01 -5.7800118946010617e+00 -1.4209756564490359e+01 -2 -1 -2
1594 532 1 -8.1999999999999995e-01 -1.0166714766420867e+01 -9.3409538314225671e-01 -8.4382227851601641e+00 -7 -2 -1
612 204 2 4.0999999999999998e-01 -6.8045828197095108e+00 -1.6372029961485541e+00 -1.3535583258255528e+01 -3 -2 0
962 321 2 4.0999999999999998e-01 -7.2222670183731230e+00 -4.5159682595372796e+00 -1.0398663659558363e+01 -1 -2 0
2288 763 2 4.0999999999999998e-01 -1.2687605606505882e+01 -5.1936509498108165e+00 -1.3474546268812798e+01 -2 -1 -2
963 321 2 4.0999999999999998e-01 -6.0975100858437816e+00 -3.4335969078608617e+00 -1.0878340812672359e+01 -1 -2 0
961 321 1 -8.1999999999999995e-01 -6.6283566945429975e+00 -3.7689049853000132e+00 -1.0100011530310368e+01 -1 -2 0
2388 796 2 4.0999999999999998e-01 -1.2847675519066899e+01 -2.4191944430172416e+00 -9.9351082502308117e+00 -2 -4 -1
1596 532 2 4.0999999999999998e-01 -1.0880110231534839e+01 -1.2721295271628410e+00 -9.0520842908889918e+00 -7 -2 -1
1028 343 2 4.0999999999999998e-01 -1.3723068590499908e+01 -5.1139450431761571e+00 -1.0023500021363841e+01 -1 2 -5
386 129 2 4.0999999999999998e-01 -5.8301687518004996e+00 -6.9000552193018088e+00 -1.1467056466400834e+01 -3 -3 0
773 258 2 4.0999999999999998e-01 -5.1016435751768707e+00 -4.6926946849894779e+00 -1.2308540416071617e+01 -1 6 1
1089 363 2 4.0999999999999998e-01 -5.6556338286656089e+00 -4.4492612475199227e+00 -7.9888236839013489e+00 2 -7 0
246 82 2 4.0999999999999998e-01 -1.1115571838937388e+01 -1.1442087026399630e+01 -1.3325519045930019e+00 -6 3 3
244 82 1 -8.1999999999999995e-01 -1.1895545015921643e+01 -1.1133688670190237e+01 -1.8771236901635291e+00 -6 3 3
245 82 2 4.0999999999999998e-01 -1.2393597319453987e+01 -1.1927768954883131e+01 -2.2255580898845917e+00 -6 3 3
1579 527 1 -8.1999999999999995e-01 -1.3214350135871889e+01 -1.3283138190596832e+01 -2.7337889587634923e+00 -1 1 -10
1581 527 2 4.0999999999999998e-01 -1.3003833068149993e+01 -1.4259422340209809e+01 -2.7845621857261200e+00 -1 1 -10
1580 527 2 4.0999999999999998e-01 -1.4167058561311372e+01 -1.3161641032713206e+01 -2.4552011002815455e+00 -1 1 -10
649 217 1 -8.1999999999999995e-01 -8.2693078643353743e+00 -1.0236322281557769e+01 -4.7923200538716877e+00 -7 1 -1
1004 335 2 4.0999999999999998e-01 -8.3841732154355704e+00 -8.5261990366358376e+00 -5.8549993416975887e+00 -3 0 2
651 217 2 4.0999999999999998e-01 -7.6011630282671998e+00 -1.0068323962673313e+01 -4.0674854929451172e+00 -7 1 -1
1723 575 1 -8.1999999999999995e-01 -1.3876033218676671e+01 -8.9933615162493101e+00 -1.2700629759083082e+00 -1 4 -7
1533 511 2 4.0999999999999998e-01 -1.0926920625238481e+01 -1.0197028977986712e+01 -3.2633792645033548e+00 5 4 1
1531 511 1 -8.1999999999999995e-01 -1.0702915729454414e+01 -9.4690916098876414e+00 -3.9114186932375734e+00 5 4 1
1532 511 2 4.0999999999999998e-01 -1.0086963578550900e+01 -9.8259761700728951e+00 -4.6137451592325753e+00 5 4 1
1724 575 2 4.0999999999999998e-01 -1.4441289340918278e+01 -8.4888814409900295e+00 -1.9227585174176625e+00 -1 4 -7
650 217 2 4.0999999999999998e-01 -7.8703450926756533e+00 -1.0843914320855514e+01 -5.4791145819680427e+00 -7 1 -1
2084 695 2 4.0999999999999998e-01 -9.1443827815326539e+00 -1.2417535425358796e+01 -9.7376175880614291e-01 6 -3 0
342 114 2 4.0999999999999998e-01 -9.8306097418874501e+00 -8.3333206934897071e+00 -2.9420250184457668e+00 1 0 -1
2083 695 1 -8.1999999999999995e-01 -9.9954743966510726e+00 -1.2359254600898382e+01 -4.5196435432654347e-01 6 -3 0
658 220 1 -8.1999999999999995e-01 -1.0510920980695909e+01 -1.4024451644884540e+01 -4.0424968522905100e+00 -4 4 2
659 220 2 4.0999999999999998e-01 -1.1212828917025345e+01 -1.3951346866139479e+01 -3.3339723052274675e+00 -4 4 2
340 114 1 -8.1999999999999995e-01 -9.2296278627772352e+00 -7.8024208953277334e+00 -2.3445367081240818e+00 1 0 -1
536 179 2 4.0999999999999998e-01 -1.1775281873154830e+01 -1.3034719663009353e+01 -4.9995916603111095e+00 -5 -1 -1
1003 335 1 -8.1999999999999995e-01 -9.1736112824746332e+00 -8.3808721369176986e+00 -6.4513999892261040e+00 -3 0 2
2060 687 2 4.0999999999999998e-01 -6.6546917204331510e+00 -1.3383243968729262e+01 -5.8426082597039528e+00 -2 -3 -2
660 220 2 4.0999999999999998e-01 -9.6558700121864636e+00 -1.4342667524526959e+01 -3.6330428346758783e+00 -4 4 2
341 114 2 4.0999999999999998e-01 -8.6231979785934314e+00 -8.4219827501477731e+00 -1.8461272388897321e+00 1 0 -1
2085 695 2 4.0999999999999998e-01 -1.0186361803412350e+01 -1.3243524480893882e+01 -2.5754439135273088e-02 6 -3 0
2221 741 1 -8.1999999999999995e-01 -1.4951754125561312e+01 -1.2541657303157212e+01 -5.3620552979972054e+00 -5 0 1
1452 484 2 4.0999999999999998e-01 -7.4162988718717973e+00 -1.3549777577554611e+01 -2.2273133499974218e+00 -1 -3 -1
1450 484 1 -8.1999999999999995e-01 -7.5448737699124253e+00 -1.2792364711332295e+01 -1.5871412301929482e+00 -1 -3 -1
1451 484 2 4.0999999999999998e-01 -6.8845455237416964e+00 -1.2871412116150420e+01 -8.4031848621748395e-01 -1 -3 -1
2223 741 2 4.0999999999999998e-01 -1.3956069571809440e+01 -1.2604679500321099e+01 -5.2937427183730374e+00 -5 0 1
2061 687 2 4.0999999999999998e-01 -6.1858181991717220e+00 -1.4709372742083987e+01 -6.6722082743156754e+00 -2 -3 -2
2059 687 1 -8.1999999999999995e-01 -6.8312705591196963e+00 -1.4355638057534115e+01 -5.9952377265820207e+00 -2 -3 -2
1507 503 1 -8.1999999999999995e-01 -7.7705826606878210e+00 -9.8329233550734703e+00 -1.3623307313850468e+00 0 -1 4
2510 837 2 4.0999999999999998e-01 -1.2029432547721774e+01 -8.4149724177128320e+00 -3.9101548095972873e+00 1 0 -4
1005 335 2 4.0999999999999998e-01 -9.8107299611662278e+00 -9.1453793517798854e+00 -6.3532439213780219e+00 -3 0 2
2097 699 2 4.0999999999999998e-01 -5.6177248482046878e+00 -7.6021194152049221e+00 -6.0636974852807075e+00 -2 0 -5
2509 837 1 -8.1999999999999995e-01 -1.2646813324605716e+01 -7.6317661703290494e+00 -3.9840132933136481e+00 1 0 -4
401 134 2 4.0999999999999998e-01 -5.4411257141919513e+00 -1.1430001104803770e+01 -6.2772221992753376e+00 -3 -3 4
400 134 1 -8.1999999999999995e-01 -6.3819970092345617e+00 -1.1344837005369182e+01 -6.6051465512216545e+00 -3 -3 4
1508 503 2 4.0999999999999998e-01 -7.7987440881457299e+00 -1.0826706457010879e+01 -1.4701647927888839e+00 0 -1 4
537 179 2 4.0999999999999998e-01 -1.1858134480032467e+01 -1.1855673833655940e+01 -6.1263935302196035e+00 -5 -1 -1
1725 575 2 4.0999999999999998e-01 -1.3118840489534081e+01 -9.4319558420489233e+00 -1.7541293853755580e+00 -1 4 -7
535 179 1 -8.1999999999999995e-01 -1.2373905961969271e+01 -1.2568328630098375e+01 -5.6508632756851789e+00 -5 -1 -1
163 55 1 -8.1999999999999995e-01 -1.0920602384317132e+01 -1.0507969750177436e+01 -7.2186058418425105e+00 -3 0 -4
1509 503 2 4.0999999999999998e-01 -6.9950052561391116e+00 -9.5823662493477428e+00 -7.8291125769210446e-01 0 -1 4
1019 340 2 4.0999999999999998e-01 -5.5869593273184268e+00 -1.3538784639162674e+01 -3.5474551076164236e+00 0 1 -1
240 80 2 4.0999999999999998e-01 -1.3821239311711617e+01 -7.7249505066956434e+00 -7.0696106410590440e+00 -1 -3 -2
1065 355 2 4.0999999999999998e-01 -1.3491705195234434e+01 -7.5490054604946302e+00 -5.0744553816456772e-01 -6 -4 -6
165 55 2 4.0999999999999998e-01 -1.1775264726211303e+01 -9.9926839267185326e+00 -7.2823153541001613e+00 -3 0 -4
2043 681 2 4.0999999999999998e-01 -1.3662631093264656e+01 -1.4140332856604179e+01 -6.7186661416585078e+00 3 -2 1
893 298 2 4.0999999999999998e-01 -5.3057037094701514e+00 -9.5365956537235501e+00 -2.7089127898214453e+00 0 3 -1
892 298 1 -8.1999999999999995e-01 -5.5616064143654054e+00 -9.6568218301783730e+00 -3.6681236983080705e+00 0 3 -1
894 298 2 4.0999999999999998e-01 -5.3779710821597426e+00 -1.0599606145308995e+01 -3.9464434739004446e+00 0 3 -1
2096 699 2 4.0999999999999998e-01 -5.0554843720464469e+00 -8.5106590665627486e+00 -4.8287329369001402e+00 -2 0 -5
1702 568 1 -8.1999999999999995e-01 -5.0991222244164174e+00 -9.7612387241769341e+00 -3.2389492311702917e-01 -1 -7 -1
1388 463 2 4.0999999999999998e-01 -1.4538624414718765e+01 -1.2392217867847759e+01 -7.2955028168253131e+00 -7 0 3
1018 340 1 -8.1999999999999995e-01 -5.0688313043021864e+00 -1.2801530896120104e+01 -3.9810751748698383e+00 0 1 -1
1686 562 2 4.0999999999999998e-01 -7.0101544499452677e+00 -5.2502549809417847e+00 -2.6218558705409727e+00 0 0 -3
27 9 2 4.0999999999999998e-01 -1.0064124988323869e+01 -5.7554822407485329e+00 -4.1755055702141028e+00 0 -8 0
170 57 2 4.0999999999999998e-01 -1.4889655314330248e+01 -3.8956449732553207e+00 -5.2486816640848346e+00 -8 -1 6
1657 553 1 -8.1999999999999995e-01 -9.1911322900534511e+00 -1.1880776689052883e+00 -3.3227419703052963e+00 -5 0 0
25 9 1 -8.1999999999999995e-01 -9.4528594642402446e+00 -5.4607430884172938e+00 -3.4409925243436721e+00 0 -8 0
457 153 1 -8.1999999999999995e-01 -7.0376449895480571e+00 -6.1778051300827599e+00 -6.5096572636056234e+00 -5 4 -1
557 186 2 4.0999999999999998e-01 -8.4097642674911821e+00 -5.2656663173129026e-01 -5.2965431038744004e+00 -2 -2 -1
459 153 2 4.0999999999999998e-01 -7.2788959850373951e+00 -5.7680500798193322e+00 -5.6299272751725269e+00 -5 4 -1
357 119 2 4.0999999999999998e-01 -1.4302912737751772e+01 -7.3696694479145162e+00 -3.9186009434401541e+00 -7 -4 -5
458 153 2 4.0999999999999998e-01 -7.8227048299392088e+00 -6.1278955637562742e+00 -7.1270843298421207e+00 -5 4 -1
26 9 2 4.0999999999999998e-01 -9.2778864795005695e+00 -6.2285871074291670e+00 -2.8246921554276039e+00 0 -8 0
1163 388 2 4.0999999999999998e-01 -1.3965781967750607e+01 -6.4892741827545386e-01 -4.3521701387931166e+00 -6 4 -2
1416 472 2 4.0999999999999998e-01 -5.7509480275677660e+00 -1.2703397161716303e+00 -6.4310253741234273e+00 0 -2 -1
1152 384 2 4.0999999999999998e-01 -1.2161789556075343e+01 -1.1445868956893666e+00 -1.8404738278599719e+00 -4 1 -3
1792 598 1 -8.1999999999999995e-01 -1.0969228450369709e+01 -6.2292139223884142e+00 -5.5487664435249968e+00 -5 -1 -3
2069 690 2 4.0999999999999998e-01 -1.0513001845457280e+01 -2.0755607162042704e+00 -6.1451317869910049e-01 -4 3 -2
1151 384 2 4.0999999999999998e-01 -1.2097249290376469e+01 -2.7708628955143517e+00 -1.9737292352897384e+00 -4 1 -3
347 116 2 4.0999999999999998e-01 -8.1901411331275895e+00 -2.6312449754187117e+00 -4.3125103216448402e+00 -3 1 3
1659 553 2 4.0999999999999998e-01 -1.0008532061716362e+01 -1.6273510650054863e+00 -2.9500187526746071e+00 -5 0 0
1793 598 2 4.0999999999999998e-01 -1.0508677023257015e+01 -7.0179560673376056e+00 -5.9559572100527216e+00 -5 -1 -3
2122 708 1 -8.1999999999999995e-01 -1.3477471300322962e+01 -3.2519017688974348e+00 -6.4326755289729647e+00 -2 0 -3
473 158 2 4.0999999999999998e-01 -1.4013314516977534e+01 -4.1298727919145630e+00 -1.9562308948608145e+00 0 -4 1
556 186 1 -8.1999999999999995e-01 -7.8411906837552330e+00 -5.2842257678811144e-01 -6.1191892773872052e+00 -2 -2 -1
238 80 1 -8.1999999999999995e-01 -1.3791101734899719e+01 -6.7777460547363795e+00 -7.3888621858274854e+00 -1 -3 -2
2123 708 2 4.0999999999999998e-01 -1.2478877772503569e+01 -3.3024348060452198e+00 -6.4158389054702010e+00 -2 0 -3
1162 388 1 -8.1999999999999995e-01 -1.4485943225689185e+01 -1.0146799753218172e+00 -5.1239754502661672e+00 -6 4 -2
348 116 2 4.0999999999999998e-01 -8.5473089431083515e+00 -4.0700219969658171e+00 -3.6276395927068439e+00 -3 1 3
1794 598 2 4.0999999999999998e-01 -1.1431434321129700e+01 -5.7066305096354295e+00 -6.2652149187674251e+00 -5 -1 -3
1685 562 2 4.0999999999999998e-01 -5.5646830769329672e+00 -5.2799262919473566e+00 -3.3810845541406245e+00 0 0 -3
657 219 2 4.0999999999999998e-01 -1.2837428738461163e+01 -5.4877436755842730e+00 -1.8546417684098611e+00 -6 -3 5
2363 788 2 4.0999999999999998e-01 -5.9910910062731890e+00 -9.5204830231236492e-01 -1.9703774344911764e+00 -1 0 -9
1658 553 2 4.0999999999999998e-01 -9.3753760846596670e+00 -2.1737387380973239e-01 -3.4770613627612086e+00 -5 0 0
656 219 2 4.0999999999999998e-01 -1.1426068026018656e+01 -4.7997775068340065e+00 -2.3034842367178818e+00 -6 -3 5
2364 788 2 4.0999999999999998e-01 -7.4436805367042744e+00 -1.6861538703460646e+00 -1.8370779561465138e+00 -1 0 -9
655 219 1 -8.1999999999999995e-01 -1.2381948389123419e+01 -4.6235310959530267e+00 -2.0684182191357596e+00 -6 -3 5
2124 708 2 4.0999999999999998e-01 -1.3770291146786590e+01 -2.3431565279215327e+00 -6.1352453077457128e+00 -2 0 -3
346 116 1 -8.1999999999999995e-01 -7.8090730170289175e+00 -3.4924273709916811e+00 -3.9760908410196460e+00 -3 1 3
2362 788 1 -8.1999999999999995e-01 -6.7777438277591830e+00 -1.1030660349022767e+00 -1.3717146671706715e+00 -1 0 -9
2511 837 2 4.0999999999999998e-01 -1.2219176114986681e+01 -6.9218592197644000e+00 -4.5436423279596436e+00 1 0 -4
1150 384 1 -8.1999999999999995e-01 -1.1555320323192362e+01 -1.9305191564907958e+00 -1.9610210988176409e+00 -4 1 -3
1684 562 1 -8.1999999999999995e-01 -6.0334223783929826e+00 -5.4340910911660245e+00 -2.5112898797473271e+00 0 0 -3
2513 838 2 4.0999999999999998e-01 -7.8656037200595836e+00 -1.9034442570830343e+00 -7.4121936524311414e+00 -1 4 1
2493 831 2 4.0999999999999998e-01 -1.0058729217950656e+01 -7.1322505095967434e+00 -7.3794321107414973e-01 0 -2 2
1063 355 1 -8.1999999999999995e-01 -1.3142713863914864e+01 -6.7103825491010713e+00 -8.9183926311486417e-02 -6 -4 -6
2143 715 1 -8.1999999999999995e-01 -1.1911274601329046e+01 -8.3397316403067201e+00 4.4984771242748351e+00 -3 -4 -3
2144 715 2 4.0999999999999998e-01 -1.1144015359552588e+01 -8.7694643231508618e+00 4.0223792535003611e+00 -3 -4 -3
762 254 2 4.0999999999999998e-01 -1.1894364199363121e+01 -1.2485034756090510e+01 4.7798706618704294e+00 -6 -5 2
760 254 1 -8.1999999999999995e-01 -1.1988761013270015e+01 -1.2448075299510254e+01 3.7850091969731920e+00 -6 -5 2
1016 339 2 4.0999999999999998e-01 -9.7407164275717459e+00 -9.5374749579783007e+00 1.9590075719464082e+00 -4 -1 -6
1288 430 1 -8.1999999999999995e-01 -6.1898751762212640e+00 -1.2205519243865206e+01 4.8219342940893810e+00 -2 2 -4
101 34 2 4.0999999999999998e-01 -1.2471934317628032e+01 -1.2654198568424198e+01 1.8592285848765293e+00 -9 3 -2
100 34 1 -8.1999999999999995e-01 -1.2927947309781795e+01 -1.2903919715530407e+01 1.0049934904841820e+00 -9 3 -2
761 254 2 4.0999999999999998e-01 -1.1086885723125416e+01 -1.2332680387914561e+01 3.3686787069069375e+00 -6 -5 2
741 247 2 4.0999999999999998e-01 -1.0518994535210473e+01 -1.3059657197108749e+01 6.4503062911198121e+00 -5 -7 -3
102 34 2 4.0999999999999998e-01 -1.2620504665252179e+01 -1.2295961590146367e+01 2.7294702268457094e-01 -9 3 -2
328 110 1 -8.1999999999999995e-01 -9.6349928501233713e+00 -1.1661727125587209e+01 2.4722373023197690e+00 -1 -1 0
2184 728 2 4.0999999999999998e-01 -1.3620818686823448e+01 -1.4011155863060811e+01 3.6050573406595205e+00 -3 3 -3
1408 470 1 -8.1999999999999995e-01 -6.6454074624910433e+00 -8.0540049301076913e+00 2.4181263905842485e+00 -1 3 -9
739 247 1 -8.1999999999999995e-01 -1.1281389776507321e+01 -1.3655852127164184e+01 6.7019632201626074e+00 -5 -7 -3
740 247 2 4.0999999999999998e-01 -1.1931405564963038e+01 -1.3145890963627920e+01 7.2653859807392678e+00 -5 -7 -3
747 249 2 4.0999999999999998e-01 -1.3833667033297004e+01 -8.6814152145852574e+00 5.6583754129992236e+00 -8 -4 -2
330 110 2 4.0999999999999998e-01 -8.9958999634719063e+00 -1.2263527067440755e+01 2.9512187357438719e+00 -1 -1 0
1615 539 1 -8.1999999999999995e-01 -7.5221917266125278e+00 -1.3416602043410544e+01 2.9558529349219960e+00 1 -2 -4
1617 539 2 4.0999999999999998e-01 -7.9900078489397393e+00 -1.4229940852164845e+01 3.3017635431555945e+00 1 -2 -4
1409 470 2 4.0999999999999998e-01 -6.3922694473558632e+00 -8.2611506341070342e+00 1.4731195678296380e+00 -1 3 -9
1017 339 2 4.0999999999999998e-01 -1.0114003391772069e+01 -7.9507127578563388e+00 1.8613416208274742e+00 -4 -1 -6
408 136 2 4.0999999999999998e-01 -7.0783287656654004e+00 -1.4596298233471801e+01 1.3081680400685336e+00 -3 -2 1
703 235 1 -8.1999999999999995e-01 -5.8479021400788689e+00 -1.2092564782161396e+01 1.1893207250093951e+00 2 3 0
1804 602 1 -8.1999999999999995e-01 -8.8923987135959681e+00 -1.2157266351257469e+01 6.5022386094634115e+00 -2 4 -2
1616 539 2 4.0999999999999998e-01 -7.0772159257986686e+00 -1.2940206734548545e+01 3.7141867261488244e+00 1 -2 -4
704 235 2 4.0999999999999998e-01 -6.4391260757168087e+00 -1.2486536928460211e+01 1.8930723247596930e+00 2 3 0
1015 339 1 -8.1999999999999995e-01 -9.8491707386583407e+00 -8.6906440326847481e+00 2.4797197182725590e+00 -4 -1 -6
1805 602 2 4.0999999999999998e-01 -9.2955987268167597e+00 -1.1249947287359458e+01 6.6215197338850871e+00 -2 4 -2
1296 432 2 4.0999999999999998e-01 -8.9559812367931002e+00 -9.2856007997147927e+00 7.4536171326418170e+00 -4 3 -1
1294 432 1 -8.1999999999999995e-01 -9.8362995977788437e+00 -9.7170734435257380e+00 7.2563938085742201e+00 -4 3 -1
1410 470 2 4.0999999999999998e-01 -7.6417175586226982e+00 -8.0546327372577373e+00 2.5041025208296261e+00 -1 3 -9
1806 602 2 4.0999999999999998e-01 -7.9960990566409746e+00 -1.2069192588958332e+01 6.0675938788425121e+00 -2 4 -2
1290 430 2 4.0999999999999998e-01 -5.9693425071347228e+00 -1.1232340736438189e+01 4.7562453345464775e+00 -2 2 -4
1703 568 2 4.0999999999999998e-01 -5.0729231611317385e+00 -1.0558260640198339e+01 2.7950856449171901e-01 -1 -7 -1
1299 433 2 4.0999999999999998e-01 -5.7519617574680506e+00 -9.0819776387475706e+00 3.8402201300309819e+00 -5 -3 -1
745 249 1 -8.1999999999999995e-01 -1.4561420119822158e+01 -9.0878642836163657e+00 6.2108251406972954e+00 -8 -4 -2
1578 526 2 4.0999999999999998e-01 -1.3451472766892573e+01 -1.4493546010785705e+01 7.5133566805911478e-01 -4 -1 0
1297 433 1 -8.1999999999999995e-01 -5.4494508664531942e+00 -9.4847519070129209e+00 4.7040986837103738e+00 -5 -3 -1
329 110 2 4.0999999999999998e-01 -9.5248791597198696e+00 -1.1776690465222366e+01 1.4849761892299114e+00 -1 -1 0
746 249 2 4.0999999999999998e-01 -1.4805361587874954e+01 -9.9819106789074734e+00 5.8350596385421412e+00 -8 -4 -2
1298 433 2 4.0999999999999998e-01 -5.8622962267427035e+00 -8.9867389448389012e+00 5.4667046735918028e+00 -5 -3 -1
2145 715 2 4.0999999999999998e-01 -1.1588780731164857e+01 -7.5282674173832884e+00 4.9858677495024999e+00 -3 -4 -3
1289 430 2 4.0999999999999998e-01 -5.6472526941286816e+00 -1.2621742960710725e+01 5.5515538912176581e+00 -2 2 -4
861 287 2 4.0999999999999998e-01 -1.3125514704828548e+01 -7.7852346379759636e+00 3.4683547839018303e+00 3 -2 -4
403 135 1 -8.1999999999999995e-01 -6.2223719513128000e+00 -1.3351912704416927e+01 7.4646474853316356e+00 -3 1 -1
489 163 2 4.0999999999999998e-01 -1.3619822533949465e+01 -1.1861304321436929e+01 7.0844412307052984e+00 -2 5 1
78 26 2 4.0999999999999998e-01 -5.0647074140355883e+00 -3.3389511057406587e+00 2.7151531519241701e+00 -2 -5 -2
756 252 2 4.0999999999999998e-01 -5.2520599040268046e+00 -4.4292723265305849e+00 2.8334218677184353e-01 -4 -1 -4
1629 543 2 4.0999999999999998e-01 -5.6973149866957318e+00 -5.7464630389768665e+00 4.7636385204238252e+00 -2 -4 -2
1264 422 1 -8.1999999999999995e-01 -9.6217351530238240e+00 -3.4875687415853562e-02 1.3557304108106933e+00 -1 -2 4
2508 836 2 4.0999999999999998e-01 -1.4407459351074356e+01 -5.1934871721579672e+00 5.9426923591045835e+00 0 -5 -1