LAMMPS data file via write_data, version 15 May 2015, timestep = 8008000

2611 atoms
6 atom types
1749 bonds
4 bond types
894 angles
3 angle types
44 dihedrals
3 dihedral types
10 impropers
1 improper types

-1.4899670291864821e+01 1.4899670291864821e+01 xlo xhi
-1.4899670291864821e+01 1.4899670291864821e+01 ylo yhi
-1.4899670291864821e+01 1.4899670291864821e+01 zlo zhi

Masses

1 15.9994
2 1.00794
3 12.0107
4 1.00794
5 12.0107
6 12.0107

Bond Coeffs # harmonic

1 1000 1
2 469 1.4
3 367 1.08
4 469 0.7

Angle Coeffs # harmonic

1 100 109.47
2 35 120
3 63 120

Dihedral Coeffs # opls

1 0 7.25 0 0
2 0 7.25 0 0
3 0 7.25 0 0

Improper Coeffs # cvff

1 2.5 -1 2

Atoms # full

50 17 2 4.0999999999999998e-01 -1.3414146839375098e+01 -8.5671126965626563e+00 -1.2512772162414226e+01 -3 -2 5
341 114 2 4.0999999999999998e-01 -1.1180158838419048e+01 -9.0370220431224908e+00 -1.0028008002250040e+01 -3 -1 3
340 114 1 -8.1999999999999995e-01 -1.2129166903600396e+01 -8.7825058404478966e+00 -9.8417338957609459e+00 -3 -1 3
787 263 1 -8.1999999999999995e-01 -6.6181198598521291e+00 -1.3559754434903388e+01 -8.7656761340809553e+00 -3 -1 1
291 97 2 4.0999999999999998e-01 -1.0169468762172336e+01 -1.0415194064109262e+01 -9.2414206965696586e+00 -4 -3 -1
210 70 2 4.0999999999999998e-01 -1.4314439375830933e+01 -1.1019203494199761e+01 -8.8737342945776536e+00 -4 -2 4
2072 691 2 4.0999999999999998e-01 -8.3642568683615508e+00 -1.2808957327713127e+01 -1.3381943388319357e+01 -2 -1 1
2071 691 1 -8.1999999999999995e-01 -9.2699817289149777e+00 -1.3194963454727432e+01 -1.3557313267564570e+01 -2 -1 1
663 221 2 4.0999999999999998e-01 -5.4209525651134900e+00 -1.3091937783446429e+01 -1.2018634011196987e+01 -2 0 0
2513 838 2 4.0999999999999998e-01 -6.2707241764087360e+00 -1.2089431684275665e+01 -1.4172106263495420e+01 -3 4 3
2514 838 2 4.0999999999999998e-01 -6.8687753017551358e+00 -1.1749321267196159e+01 -1.2691047932601315e+01 -3 4 3
2512 838 1 -8.1999999999999995e-01 -6.3791179679479946e+00 -1.2428710278666959e+01 -1.3237636550368011e+01 -3 4 3
342 114 2 4.0999999999999998e-01 -1.2741788781942098e+01 -9.4640660707860356e+00 -1.0242062367493057e+01 -3 -1 3
289 97 1 -8.1999999999999995e-01 -1.0576065043723432e+01 -1.1002213212061175e+01 -8.5412914947057850e+00 -4 -3 -1
2199 733 2 4.0999999999999998e-01 -9.9115278576819286e+00 -1.4076277195733656e+01 -1.1937010113783177e+01 1 -2 -1
2198 733 2 4.0999999999999998e-01 -1.1409807709847247e+01 -1.3868532077766741e+01 -1.1321483192681313e+01 1 -2 -1
208 70 1 -8.1999999999999995e-01 -1.3556503234243804e+01 -1.0745979539248893e+01 -8.2813033831755227e+00 -4 -2 4
681 227 2 4.0999999999999998e-01 -1.3475107574723863e+01 -8.2477594654919262e+00 -7.9963878973960743e+00 -1 0 -1
2197 733 1 -8.1999999999999995e-01 -1.0565803526190125e+01 -1.4400667053730139e+01 -1.1253791696798196e+01 1 -2 -1
788 263 2 4.0999999999999998e-01 -7.3712677434051477e+00 -1.4190384312640752e+01 -8.9532050963728693e+00 -3 -1 1
290 97 2 4.0999999999999998e-01 -1.1464587515986087e+01 -1.0631678846373873e+01 -8.2705057970535538e+00 -4 -3 -1
612 204 2 4.0999999999999998e-01 -7.1149216933524171e+00 -9.4854004723145628e+00 -1.2029433530211339e+01 -1 -3 1
661 221 1 -8.1999999999999995e-01 -5.2167102256398845e+00 -1.3774730366288940e+01 -1.1317084166823335e+01 -2 0 0
789 263 2 4.0999999999999998e-01 -5.8652355722474265e+00 -1.3742258828436679e+01 -9.3980922918808609e+00 -3 -1 1
234 78 2 4.0999999999999998e-01 -9.0257053532436000e+00 -8.2299265979038267e+00 -9.8496318935161380e+00 -3 -3 -1
232 78 1 -8.1999999999999995e-01 -9.5109002494061308e+00 -9.0600031087571793e+00 -1.0124680547375242e+01 -3 -3 -1
1644 548 2 4.0999999999999998e-01 -1.3151244241891659e+01 -1.3039883025467219e+01 -7.7761562719463937e+00 -4 1 1
233 78 2 4.0999999999999998e-01 -9.2247455117513883e+00 -9.3235831261589084e+00 -1.1045948096893943e+01 -3 -3 -1
1539 513 2 4.0999999999999998e-01 -1.1534137628052456e+01 -7.6070723442136616e+00 -8.4829294711544154e+00 -2 -3 1
1855 619 1 -8.1999999999999995e-01 -8.6216408130924940e+00 -8.6439454165578944e+00 -1.4483414568468735e+01 -5 -1 1
45 15 2 4.0999999999999998e-01 -1.4051247957841611e+01 -1.0837626223814844e+01 -1.3154496190196390e+01 -5 0 2
2278 760 1 -8.1999999999999995e-01 -1.4584693199648438e+01 -1.4364441822224171e+01 -1.0174349052585832e+01 -5 -2 -1
2073 691 2 4.0999999999999998e-01 -9.9369130719326915e+00 -1.2454723562099868e+01 -1.3642989058065035e+01 -2 -1 1
535 179 1 -8.1999999999999995e-01 -1.1004729682395041e+01 -1.1236933540761950e+01 -1.3651221108096044e+01 -5 0 0
43 15 1 -8.1999999999999995e-01 -1.4200036749235149e+01 -9.9745522541971621e+00 -1.2671735362258335e+01 -5 0 2
611 204 2 4.0999999999999998e-01 -7.1237753784273332e+00 -1.0579525600598370e+01 -1.0817127572479698e+01 -1 -3 1
1642 548 1 -8.1999999999999995e-01 -1.3626700317805877e+01 -1.3886837460245344e+01 -7.5380334047884903e+00 -4 1 1
1291 431 1 -8.1999999999999995e-01 -6.5394533257327243e+00 -8.0658512637901527e+00 -1.3020355454273817e+01 -4 -2 -1
1292 431 2 4.0999999999999998e-01 -7.3339647975113635e+00 -8.3813109285925584e+00 -1.3539325141808867e+01 -4 -2 -1
679 227 1 -8.1999999999999995e-01 -1.4320007525922639e+01 -7.8616389283295298e+00 -7.6260531843122745e+00 -1 0 -1
610 204 1 -8.1999999999999995e-01 -7.3707032064253752e+00 -1.0417432170460462e+01 -1.1772556917109911e+01 -1 -3 1
2280 760 2 4.0999999999999998e-01 -1.4313431963466652e+01 -1.4136211043034011e+01 -9.2392443176362882e+00 -5 -2 -1
537 179 2 4.0999999999999998e-01 -1.1205976517953751e+01 -1.1378130475017338e+01 -1.4620579668064796e+01 -5 0 0
269 90 2 4.0999999999999998e-01 -1.4706142894905511e+01 -1.2764187333619857e+01 -1.4205717146280003e+01 -1 2 3
1373 458 2 4.0999999999999998e-01 -1.0183194995235901e+01 -1.4512948248761381e+01 -1.4226884925181995e+01 -1 -2 -2
1652 551 2 4.0999999999999998e-01 -1.4713714773853683e+01 -8.0105232006894092e+00 -1.0500415010929373e+01 -6 1 1
1857 619 2 4.0999999999999998e-01 -9.0998405288916207e+00 -9.4558951209158337e+00 -1.4148518318480756e+01 -5 -1 1
563 188 2 4.0999999999999998e-01 -5.4852607795027932e+00 -8.1608782447972814e+00 -1.0010704591526434e+01 -6 -2 -4
562 188 1 -8.1999999999999995e-01 -6.4722362948720225e+00 -8.1377642927912497e+00 -9.8512119121546213e+00 -6 -2 -4
62 21 2 4.0999999999999998e-01 -6.6488282589102408e+00 -1.1647799661371824e+01 -9.2830084483520672e+00 -5 -3 1
49 17 1 -8.1999999999999995e-01 -1.3151109994072561e+01 -7.6030859918541855e+00 -1.2473313524842322e+01 -3 -2 5
268 90 1 -8.1999999999999995e-01 -1.4042093901452477e+01 -1.2099411321056865e+01 -1.4548068871024471e+01 -1 2 3
564 188 2 4.0999999999999998e-01 -6.7247278429817907e+00 -8.8691692789798822e+00 -9.2176603208576200e+00 -6 -2 -4
536 179 2 4.0999999999999998e-01 -1.1836154703868653e+01 -1.0947360032325676e+01 -1.3176908507077966e+01 -5 0 0
63 21 2 4.0999999999999998e-01 -6.2422833992281657e+00 -1.0444426590412263e+01 -8.2566125627134781e+00 -5 -3 1
61 21 1 -8.1999999999999995e-01 -6.7842330201210732e+00 -1.0681723258887420e+01 -9.0628840548324874e+00 -5 -3 1
1856 619 2 4.0999999999999998e-01 -9.2849097501527780e+00 -7.9181812475929121e+00 -1.4666262819693829e+01 -5 -1 1
358 120 1 -8.1999999999999995e-01 -1.3941882035940754e+01 -6.2320233424230231e+00 -1.4769469545021915e+01 -6 -2 -3
1301 434 2 4.0999999999999998e-01 -1.3897859496563413e+01 -1.9088757028305494e+00 -1.3735371497794123e+01 -2 -1 0
1011 337 2 4.0999999999999998e-01 -8.2642249570044513e+00 -3.6477089591219514e+00 -8.4279054632054091e+00 -5 -4 0
2356 786 1 -8.1999999999999995e-01 -1.3728349728948816e+01 -3.3408198462636918e+00 -1.4818379435493862e+01 -2 -1 -1
2425 809 1 -8.1999999999999995e-01 -1.0780934377139079e+01 -1.4116816025362287e+00 -7.5979096477684998e+00 -3 -1 2
680 227 2 4.0999999999999998e-01 -1.4383852466159681e+01 -6.8960484256119798e+00 -7.8783459296824754e+00 -1 0 -1
2151 717 2 4.0999999999999998e-01 -1.3883684308945512e+01 -1.9655549604233293e+00 -9.4474373266950362e+00 -4 -2 2
1416 472 2 4.0999999999999998e-01 -1.0539470272678704e+01 -1.3959052920777708e+00 -1.0068944039587665e+01 1 -3 -1
1897 633 1 -8.1999999999999995e-01 -1.3429069558867063e+01 -5.1646611222300862e+00 -1.1120795592215407e+01 0 1 -5
2149 717 1 -8.1999999999999995e-01 -1.3633132079473082e+01 -1.9553254335708132e+00 -8.4793403411247716e+00 -4 -2 2
2358 786 2 4.0999999999999998e-01 -1.3887067705315792e+01 -4.2830270996853788e+00 -1.4523172920061496e+01 -2 -1 -1
1186 396 1 -8.1999999999999995e-01 -8.3517922399195506e+00 -2.9506955645008581e+00 -1.4110765113183252e+01 -1 -2 -1
561 187 2 4.0999999999999998e-01 -1.4201308256775169e+01 -2.0697114204742402e+00 -1.1708593421345277e+01 -3 1 2
947 316 2 4.0999999999999998e-01 -8.6226209259061282e+00 -4.4708799020663292e-01 -1.2089533425770998e+01 -1 -2 0
1038 346 2 4.0999999999999998e-01 -1.0578710269745903e+01 -3.3699565820105271e-01 -1.2445701543830703e+01 -4 0 1
1947 649 2 4.0999999999999998e-01 -1.0126915154703577e+01 -5.8775792278243681e+00 -1.4487289980054438e+01 -3 -5 3
1037 346 2 4.0999999999999998e-01 -1.0312705504584171e+01 -7.2155660826886603e-01 -1.4010383076986306e+01 -4 0 1
2575 859 1 -8.1999999999999995e-01 -6.3831210123042492e+00 -4.6421799078074990e+00 -8.0813327357355718e+00 -2 -2 1
1293 431 2 4.0999999999999998e-01 -6.6638759264019392e+00 -7.1053063190987640e+00 -1.2771427315853607e+01 -4 -2 -1
223 75 1 -8.1999999999999995e-01 -6.1362072170051896e+00 -4.1299165571203087e+00 -1.2939340529419891e+01 1 0 -2
1013 338 2 4.0999999999999998e-01 -1.0275479611482492e+01 -5.7993040508135394e+00 -1.2088092608889752e+01 -4 0 -2
1669 557 1 -8.1999999999999995e-01 -1.4453441302393033e+01 -4.8687850453517054e+00 -8.4195048478284633e+00 -1 2 0
1014 338 2 4.0999999999999998e-01 -1.1655622273639207e+01 -6.5404204158676134e+00 -1.2549424082547446e+01 -4 0 -2
559 187 1 -8.1999999999999995e-01 -1.3531343300690130e+01 -2.4677853419536895e+00 -1.1081874254133041e+01 -3 1 2
1187 396 2 4.0999999999999998e-01 -8.4901077427921017e+00 -1.9859235690025301e+00 -1.4334766510634665e+01 -1 -2 -1
560 187 2 4.0999999999999998e-01 -1.3624465214683617e+01 -3.4634861608581620e+00 -1.1082879407605118e+01 -3 1 2
136 46 1 -8.1999999999999995e-01 -7.4184234185549558e+00 -5.7145363372910154e+00 -1.1253666802845656e+01 -4 0 2
137 46 2 4.0999999999999998e-01 -7.1149840292091424e+00 -6.3593289455815309e+00 -1.0552054475202533e+01 -4 0 2
1012 338 1 -8.1999999999999995e-01 -1.0759958486811797e+01 -6.2182228480522603e+00 -1.2856129106226119e+01 -4 0 -2
442 148 1 -8.1999999999999995e-01 -6.3903738601227325e+00 -2.9007516857210280e+00 -1.0243300354124898e+01 -2 -3 -2
1898 633 2 4.0999999999999998e-01 -1.3684733146923584e+01 -5.9632818759738715e+00 -1.1665711974248573e+01 0 1 -5
225 75 2 4.0999999999999998e-01 -6.7871234452639193e+00 -3.5986416430506569e+00 -1.3481694501132784e+01 1 0 -2
138 46 2 4.0999999999999998e-01 -8.2250358285428042e+00 -5.2217803081624403e+00 -1.0927077215380471e+01 -4 0 2
1537 513 1 -8.1999999999999995e-01 -1.1144505318379814e+01 -6.7191856231586726e+00 -8.2381098112379831e+00 -2 -3 1
444 148 2 4.0999999999999998e-01 -6.1845638194235804e+00 -3.0725971952412170e+00 -9.2798668273612819e+00 -2 -3 -2
2010 670 2 4.0999999999999998e-01 -7.8710815747783265e+00 -6.5031835633577195e-01 -7.7762155091158958e+00 -4 3 0
1899 633 2 4.0999999999999998e-01 -1.3856757067532053e+01 -5.2257394860153283e+00 -1.0218883389104459e+01 0 1 -5
1415 472 2 4.0999999999999998e-01 -1.2022476097436481e+01 -1.6762238513192234e+00 -1.0692634049153121e+01 1 -3 -1
1414 472 1 -8.1999999999999995e-01 -1.1211323533105279e+01 -1.0936795733255824e+00 -1.0745232143630410e+01 1 -3 -1
946 316 1 -8.1999999999999995e-01 -7.9939416630840761e+00 -4.7959459958669370e-01 -1.1312488690862976e+01 -1 -2 0
2302 768 1 -8.1999999999999995e-01 -1.0286118853202785e+01 -4.9738067828826544e+00 -1.0625196632342362e+01 -1 -4 -1
2304 768 2 4.0999999999999998e-01 -1.1138335514731452e+01 -4.6269156491642605e+00 -1.1016969828288129e+01 -1 -4 -1
948 316 2 4.0999999999999998e-01 -7.7834545788003577e+00 -1.4324328885091155e+00 -1.1093657313495672e+01 -1 -2 0
224 75 2 4.0999999999999998e-01 -6.6318316579380063e+00 -4.7982596759843119e+00 -1.2384573288393643e+01 1 0 -2
1036 346 1 -8.1999999999999995e-01 -1.0048430984145497e+01 -1.1176545617222899e-01 -1.3263117016070035e+01 -4 0 1
443 148 2 4.0999999999999998e-01 -6.4682815070526871e+00 -3.7719797891046838e+00 -1.0728052694892661e+01 -2 -3 -2
51 17 2 4.0999999999999998e-01 -1.3693884386650323e+01 -7.0822345158781665e+00 -1.3132253999207508e+01 -3 -2 5
1671 557 2 4.0999999999999998e-01 -1.4307296150439342e+01 -4.1513785093127176e+00 -7.7382836098370813e+00 -1 2 0
2303 768 2 4.0999999999999998e-01 -1.0016055487638221e+01 -4.3989098011419276e+00 -9.8527640121313418e+00 -1 -4 -1
1302 434 2 4.0999999999999998e-01 -1.3876698566618883e+01 -5.2080813769147660e-01 -1.2875316504170591e+01 -2 -1 0
2427 809 2 4.0999999999999998e-01 -1.1646582286918431e+01 -1.7302022345094787e+00 -7.9842917419994750e+00 -3 -1 2
1538 513 2 4.0999999999999998e-01 -1.0865502244005771e+01 -6.2371606164704545e+00 -9.0687132007110272e+00 -2 -3 1
1300 434 1 -8.1999999999999995e-01 -1.4450061254776690e+01 -1.1407876936234960e+00 -1.3411015457225659e+01 -2 -1 0
300 100 2 4.0999999999999998e-01 -5.4341977735761642e+00 -1.1008417793434635e+00 -1.1217801682015681e+01 -5 -2 -3
2150 717 2 4.0999999999999998e-01 -1.3841582092073409e+01 -1.0578399979186095e+00 -8.0905456807697220e+00 -4 -2 2
2576 859 2 4.0999999999999998e-01 -7.0313872589423196e+00 -5.4024079967909291e+00 -8.0377778892026015e+00 -2 -2 1
1009 337 1 -8.1999999999999995e-01 -9.2386908699851489e+00 -3.7178034949978329e+00 -8.6414370561106573e+00 -5 -4 0
1188 396 2 4.0999999999999998e-01 -8.6874085783252788e+00 -3.5188043205117268e+00 -1.4862234954790084e+01 -1 -2 -1
1010 337 2 4.0999999999999998e-01 -9.7539160101414346e+00 -3.0907472318510028e+00 -8.0571114740720624e+00 -5 -4 0
78 26 2 4.0999999999999998e-01 -5.2505233075755093e+00 -3.1380432035125772e-01 -8.2117353750394564e+00 1 -1 -1
1657 553 1 -8.1999999999999995e-01 -1.1252042035717254e+01 -1.1326608866925227e+01 -3.3684920652816555e+00 -4 0 0
1659 553 2 4.0999999999999998e-01 -1.2214519676580357e+01 -1.1544917942620804e+01 -3.5299564522944049e+00 -4 0 0
1806 602 2 4.0999999999999998e-01 -1.0327928976352908e+01 -1.2795575793255322e+01 -3.9675038310276367e+00 -2 2 0
2275 759 1 -8.1999999999999995e-01 -1.0408696961184260e+01 -8.5156779218653575e+00 -3.8158886923164204e+00 -1 3 -1
2276 759 2 4.0999999999999998e-01 -9.6558790892058131e+00 -8.7844148087620013e+00 -4.4168367199511671e+00 -1 3 -1
1804 602 1 -8.1999999999999995e-01 -1.0465492051630896e+01 -1.3679145351551615e+01 -4.4152471781313416e+00 -2 2 0
2550 850 2 4.0999999999999998e-01 -8.0876051721731486e+00 -1.2883776141523905e+01 -5.3793784858330440e+00 -3 -1 1
1805 602 2 4.0999999999999998e-01 -9.6297371863135854e+00 -1.4223473269705517e+01 -4.3423517890414605e+00 -2 2 0
1658 553 2 4.0999999999999998e-01 -1.1051399521103228e+01 -1.0416331309544226e+01 -3.7307490902628917e+00 -4 0 0
2277 759 2 4.0999999999999998e-01 -1.0039060869706390e+01 -8.1514602073481637e+00 -2.9610159488888872e+00 -1 3 -1
1835 612 2 4.0999999999999998e-01 -9.8820910587103690e+00 -1.1622601400488541e+01 -1.8388338566387077e+00 -4 -2 -4
2548 850 1 -8.1999999999999995e-01 -7.6249143937739072e+00 -1.3497095153594723e+01 -4.7391833148997780e+00 -3 -1 1
1834 612 1 -8.1999999999999995e-01 -9.1014669049650649e+00 -1.1808250730073812e+01 -1.2419644256124354e+00 -4 -2 -4
2549 850 2 4.0999999999999998e-01 -7.0874200930581592e+00 -1.2958098608962015e+01 -4.0905883535036249e+00 -3 -1 1
2032 678 1 -8.1999999999999995e-01 -9.0278197191319514e+00 -8.3204487602134769e+00 -2.6870725066149070e-01 -4 0 0
366 122 2 4.0999999999999998e-01 -1.1723871441293024e+01 -1.4435896325195209e+01 -7.1409426960356663e+00 1 0 4
2370 790 2 4.0999999999999998e-01 -1.2244040433045106e+01 -1.3859719205851006e+01 -3.9633706797221357e+00 -3 -2 -2
2033 678 2 4.0999999999999998e-01 -9.0114712028321957e+00 -7.5851268785396861e+00 -9.4629658170064346e-01 -4 0 0
1277 426 2 4.0999999999999998e-01 -7.6079744557800772e+00 -1.0944109048900643e+01 -4.0261307322651358e+00 -5 -1 4
1276 426 1 -8.1999999999999995e-01 -8.1086953493699738e+00 -1.0470381033157736e+01 -4.7506672566726902e+00 -5 -1 4
1278 426 2 4.0999999999999998e-01 -8.3738284335589981e+00 -1.1126988464160471e+01 -5.4568287948230445e+00 -5 -1 4
928 310 1 -8.1999999999999995e-01 -1.4053668089551612e+01 -1.1676068494969167e+01 -3.3777840330405144e+00 -2 -6 0
929 310 2 4.0999999999999998e-01 -1.4092609159562222e+01 -1.1283025876194968e+01 -4.2965298602739104e+00 -2 -6 0
1747 583 1 -8.1999999999999995e-01 -1.4457796889430446e+01 -7.9235029958550056e+00 -3.6381060003310139e+00 -1 0 -2
2084 695 2 4.0999999999999998e-01 -5.8690167094986894e+00 -1.1075657357591506e+01 -2.4713737149509765e+00 1 -3 0
2083 695 1 -8.1999999999999995e-01 -6.7295581216617677e+00 -1.1481326046716454e+01 -2.7795852042404974e+00 1 -3 0
364 122 1 -8.1999999999999995e-01 -1.0766286317185507e+01 -1.4592678669734505e+01 -6.8989863941084320e+00 1 0 4
867 289 2 4.0999999999999998e-01 -7.4965820741049329e+00 -9.0352289666146763e+00 -5.4497179048530526e+00 -3 -6 -2
2085 695 2 4.0999999999999998e-01 -7.4306190376445587e+00 -1.1348199417733841e+01 -2.0789542792013425e+00 1 -3 0
865 289 1 -8.1999999999999995e-01 -7.0768911132979850e+00 -8.3960820141462591e+00 -6.0942670004601425e+00 -3 -6 -2
871 291 1 -8.1999999999999995e-01 -1.4449035615751562e+01 -1.1097020212143777e+01 -5.8984018037079800e-01 -1 0 1
872 291 2 4.0999999999999998e-01 -1.4181467676070188e+01 -1.1156069641021400e+01 -1.5516163609151157e+00 -1 0 1
1748 583 2 4.0999999999999998e-01 -1.4453180860166567e+01 -7.4943920552457373e+00 -2.7348146201302654e+00 -1 0 -2
2368 790 1 -8.1999999999999995e-01 -1.3090095026426825e+01 -1.4176711871691868e+01 -3.5346515417272819e+00 -3 -2 -2
1328 443 2 4.0999999999999998e-01 -1.4492405274991340e+01 -9.3522086163169700e+00 -4.7884333414307996e+00 0 0 -1
1327 443 1 -8.1999999999999995e-01 -1.4383560808452485e+01 -9.8718882762901661e+00 -5.6358876086499539e+00 0 0 -1
930 310 2 4.0999999999999998e-01 -1.3809098053298140e+01 -1.2643793471916069e+01 -3.4393210176874778e+00 -2 -6 0
2125 709 1 -8.1999999999999995e-01 -8.7851786379627566e+00 -1.2164681894250753e+01 -6.8233201581196123e+00 0 1 -2
467 156 2 4.0999999999999998e-01 -5.4633255959856601e+00 -8.9592800738460596e+00 -6.6554830010225938e+00 -6 -3 2
365 122 2 4.0999999999999998e-01 -1.0518679474173634e+01 -1.4010853020775645e+01 -6.1242202047616878e+00 1 0 4
1329 443 2 4.0999999999999998e-01 -1.4752424591959414e+01 -9.3434976216604237e+00 -6.4006330904670623e+00 0 0 -1
1836 612 2 4.0999999999999998e-01 -9.3686091731548924e+00 -1.1663768168644197e+01 -2.8915141270305966e-01 -4 -2 -4
1643 548 2 4.0999999999999998e-01 -1.4491202312973211e+01 -1.3667879818571217e+01 -7.0854998080310301e+00 -4 1 1
767 256 2 4.0999999999999998e-01 -6.3890626667588570e+00 -8.1455881825700658e+00 -1.5878251855346370e-01 -2 -2 -1
866 289 2 4.0999999999999998e-01 -7.6356953010580115e+00 -7.5689613314330346e+00 -6.1551120711566014e+00 -3 -6 -2
2369 790 2 4.0999999999999998e-01 -1.2870076945856029e+01 -1.4795236300884577e+01 -2.7802561586571262e+00 -3 -2 -2
2019 673 2 4.0999999999999998e-01 -7.6924015244996999e+00 -1.2770281652772313e+01 -3.2822546340309877e-01 -1 -4 1
766 256 1 -8.1999999999999995e-01 -6.0297145810203734e+00 -9.0686382869175830e+00 -2.1158897091096307e-02 -2 -2 -1
1421 474 2 4.0999999999999998e-01 -1.3405802286917460e+01 -7.5493365605138871e+00 -2.9885167790775391e-01 -3 -2 0
2018 673 2 4.0999999999999998e-01 -6.1163834986868721e+00 -1.3153904699709667e+01 -5.1763148166338091e-01 -1 -4 1
1508 503 2 4.0999999999999998e-01 -6.3725146817755061e+00 -1.4847540776393561e+01 -7.0310985804615695e+00 -1 0 2
1953 651 2 4.0999999999999998e-01 -5.8762345886044756e+00 -1.4600529103215921e+01 -4.0839144948477610e+00 -6 1 -2
209 70 2 4.0999999999999998e-01 -1.3896099973502919e+01 -1.0598046066633559e+01 -7.3523886211912011e+00 -4 -2 4
2126 709 2 4.0999999999999998e-01 -9.5043296901753198e+00 -1.1760445284136159e+01 -7.3885699765649431e+00 0 1 -2
2034 678 2 4.0999999999999998e-01 -8.1800503080960798e+00 -8.8475431003960594e+00 -3.2830092807585842e-01 -4 0 0
839 280 2 4.0999999999999998e-01 -7.6716708050267011e+00 -1.4814873193449932e+01 -2.5020254464484761e+00 -3 1 2
2127 709 2 4.0999999999999998e-01 -8.2374412839085487e+00 -1.2790863493989727e+01 -7.3782734822663514e+00 0 1 -2
873 291 2 4.0999999999999998e-01 -1.3630227905573674e+01 -1.1092914835866594e+01 -1.5706118131401325e-02 -1 0 1
907 303 1 -8.1999999999999995e-01 -1.2276843179415064e+01 -6.8015040968118807e+00 -4.6386294342172345e+00 -1 -5 0
1399 467 1 -8.1999999999999995e-01 -5.2015470746499854e+00 -3.4470100549999216e-01 -9.0265468766443391e-01 -2 0 2
2008 670 1 -8.1999999999999995e-01 -8.2133080333958119e+00 -1.2396523574613099e+00 -7.0443278851253908e+00 -4 3 0
908 303 2 4.0999999999999998e-01 -1.1501027628707226e+01 -7.3530816131073626e+00 -4.3320919007561951e+00 -1 -5 0
1316 439 2 4.0999999999999998e-01 -5.4819411945850351e+00 -3.7898228307435176e+00 -2.5843731583313527e+00 0 -4 0
909 303 2 4.0999999999999998e-01 -1.3128980983241016e+01 -7.2240986609211388e+00 -4.3298126842430094e+00 -1 -5 0
1533 511 2 4.0999999999999998e-01 -7.6655551772041974e+00 -6.8446534143396764e+00 -2.0185739800030298e+00 0 2 5
2009 670 2 4.0999999999999998e-01 -9.1825704160544213e+00 -1.4325142740815942e+00 -7.1973884374313633e+00 -4 3 0
1531 511 1 -8.1999999999999995e-01 -8.5199287594066710e+00 -6.7278649149523986e+00 -2.5250313620765503e+00 0 2 5
520 174 1 -8.1999999999999995e-01 -6.4063710336351125e+00 -6.5827161821220610e+00 -5.8788080855448221e-01 2 -2 -2
1827 609 2 4.0999999999999998e-01 -8.0961513485844563e+00 -3.5804141228342115e+00 -2.2010754787301501e-01 -4 -2 -2
2040 680 2 4.0999999999999998e-01 -9.3734075489889968e+00 -6.0709247429926272e-01 -1.7171000341573510e+00 -1 -4 -2
1284 428 2 4.0999999999999998e-01 -9.2288442821721564e+00 -5.7439006003290078e+00 -5.9600343968089433e+00 -6 0 -2
1357 453 1 -8.1999999999999995e-01 -1.1942611691199367e+01 -4.6349774742680285e+00 -6.3509282733452128e+00 -2 -2 1
1028 343 2 4.0999999999999998e-01 -1.3102869008226000e+01 -3.2608978142833855e-01 -2.4695162942904627e+00 0 0 -5
1420 474 1 -8.1999999999999995e-01 -1.3602692663696955e+01 -6.9700370586736584e+00 -1.0898883823895940e+00 -3 -2 0
2038 680 1 -8.1999999999999995e-01 -1.0044856913885898e+01 -9.9591336911469597e-01 -1.0861745023135096e+00 -1 -4 -2
2577 859 2 4.0999999999999998e-01 -5.9398234273141064e+00 -4.5307525611470343e+00 -7.1918587305424877e+00 -2 -2 1
1359 453 2 4.0999999999999998e-01 -1.2080035721056307e+01 -5.1263750020133543e+00 -7.2110073175188294e+00 -2 -2 1
969 323 2 4.0999999999999998e-01 -1.3630677212626910e+01 -2.9590543271821765e+00 -3.3115103506904315e+00 -3 -2 -1
1826 609 2 4.0999999999999998e-01 -8.9457179677958578e+00 -2.4268122357775432e+00 -1.0038888920381499e+00 -4 -2 -2
1158 386 2 4.0999999999999998e-01 -1.2252928341942546e+01 -3.9163166479019509e+00 -5.9188406471318267e-01 0 -2 -1
2039 680 2 4.0999999999999998e-01 -1.0931439339453721e+01 -5.5631100706287917e-01 -1.2304458610616607e+00 -1 -4 -2
166 56 1 -8.1999999999999995e-01 -5.3403886017350057e+00 -4.6012449386444771e+00 -5.4093355067405522e+00 -5 1 0
967 323 1 -8.1999999999999995e-01 -1.3018864887699987e+01 -2.2541590771190965e+00 -2.9524822470049799e+00 -3 -2 -1
1422 474 2 4.0999999999999998e-01 -1.3031761170897088e+01 -6.1498241147651065e+00 -1.0527297429568563e+00 -3 -2 0
1532 511 2 4.0999999999999998e-01 -8.3392500810509738e+00 -6.2297167030080871e+00 -3.3731448113697819e+00 0 2 5
916 306 1 -8.1999999999999995e-01 -9.2654114805869519e+00 -4.1781572100088411e+00 -5.2015190784837255e+00 -4 -1 -3
2424 808 2 4.0999999999999998e-01 -7.0575763183377900e+00 -2.0841526302396289e+00 -3.7626944269703912e+00 -3 -1 1
2132 711 2 4.0999999999999998e-01 -1.0254620627234099e+01 -4.1209177327601569e+00 -9.8276139621699343e-01 3 -3 3
918 306 2 4.0999999999999998e-01 -8.8832666527466841e+00 -3.5293996842912918e+00 -4.5433611620817178e+00 -4 -1 -3
917 306 2 4.0999999999999998e-01 -9.9404491621701467e+00 -3.7131643888529098e+00 -5.7744053195223941e+00 -4 -1 -3
2422 808 1 -8.1999999999999995e-01 -7.5050967293761737e+00 -1.3090923094274505e+00 -4.2089004403766186e+00 -3 -1 1
2133 711 2 4.0999999999999998e-01 -1.0494026008332796e+01 -5.4128848686935722e+00 -1.9524932784597429e+00 3 -3 3
2131 711 1 -8.1999999999999995e-01 -1.0756702538267861e+01 -4.9790432557852142e+00 -1.0905911294664978e+00 3 -3 3
1434 478 2 4.0999999999999998e-01 -1.1299291550435619e+01 -2.6799156841201341e+00 -5.4915916066109780e+00 -2 -3 1
1433 478 2 4.0999999999999998e-01 -1.1011563497333377e+01 -1.0789837080136877e+00 -5.3463215567991380e+00 -2 -3 1
1156 386 1 -8.1999999999999995e-01 -1.2903203480650907e+01 -3.1974911520294533e+00 -3.4586583749417876e-01 0 -2 -1
1432 478 1 -8.1999999999999995e-01 -1.0986448837494999e+01 -1.9593900927169550e+00 -4.8726690586462258e+00 -2 -3 1
2423 808 2 4.0999999999999998e-01 -7.4834102449572910e+00 -1.4373248241826744e+00 -5.2004542271860359e+00 -3 -1 1
157 53 1 -8.1999999999999995e-01 -1.4116473833707756e+01 -4.5598097974326084e+00 -3.9529400586766279e+00 -2 -5 0
1157 386 2 4.0999999999999998e-01 -1.2960611591756638e+01 -2.5312099469616083e+00 -1.0894157554380097e+00 0 -2 -1
1282 428 1 -8.1999999999999995e-01 -9.2116105538641726e+00 -6.6477852398477086e+00 -6.3875719850194592e+00 -6 0 -2
1358 453 2 4.0999999999999998e-01 -1.1994634656255592e+01 -5.2786143947710400e+00 -5.5873066669423004e+00 -2 -2 1
968 323 2 4.0999999999999998e-01 -1.2206134559095906e+01 -2.1915842311272016e+00 -3.5318324297411703e+00 -3 -2 -1
1317 439 2 4.0999999999999998e-01 -7.0805526701298405e+00 -3.8781262307094906e+00 -2.2626310014760662e+00 0 -4 0
1315 439 1 -8.1999999999999995e-01 -6.3974851254123202e+00 -3.7814119367032717e+00 -2.9866185776280219e+00 0 -4 0
167 56 2 4.0999999999999998e-01 -5.7324437396206154e+00 -4.3359307299184753e+00 -4.5284302778154011e+00 -5 1 0
1825 609 1 -8.1999999999999995e-01 -8.6399152510677730e+00 -3.3784559141678443e+00 -1.0347403131388422e+00 -4 -2 -2
159 53 2 4.0999999999999998e-01 -1.3496759024136500e+01 -5.2155209593064544e+00 -4.3843206972180777e+00 -2 -5 0
1283 428 2 4.0999999999999998e-01 -1.0049427628850678e+01 -6.7822253977449485e+00 -6.9167990279613472e+00 -6 0 -2
522 174 2 4.0999999999999998e-01 -5.7058766704999613e+00 -6.0277323153363938e+00 -1.0366495342146091e+00 2 -2 -2
158 53 2 4.0999999999999998e-01 -1.4747575243568308e+01 -4.1968451428790772e+00 -4.6385496185716342e+00 -2 -5 0
1290 430 2 4.0999999999999998e-01 -7.9678062532234275e+00 -1.6102669301843520e-01 -3.1547615411511902e+00 0 0 1
2426 809 2 4.0999999999999998e-01 -1.0883665848347254e+01 -4.6813886134621718e-01 -7.2828442906639337e+00 -3 -1 2
768 256 2 4.0999999999999998e-01 -5.0369185470627276e+00 -9.0264872417677235e+00 9.1411612907148054e-02 -2 -2 -1
1771 591 1 -8.1999999999999995e-01 -1.4601061763266999e+01 -1.1355957413544742e+01 2.4096228798252621e+00 -3 -2 1
2296 766 1 -8.1999999999999995e-01 -1.4469941180055701e+01 -1.4523078456499672e+01 6.7630992158319057e+00 0 -3 -1
842 281 2 4.0999999999999998e-01 -1.3058851814771725e+01 -8.5396050493466582e+00 1.6808494915695587e+00 -3 -1 -3
1570 524 1 -8.1999999999999995e-01 -1.0745068884893612e+01 -8.7913440461533554e+00 4.3423436927201831e+00 -5 -2 -2
1571 524 2 4.0999999999999998e-01 -1.1641723729209456e+01 -9.0139237341168581e+00 4.7251768830010317e+00 -5 -2 -2
1572 524 2 4.0999999999999998e-01 -1.0037412368995184e+01 -9.2989303355261637e+00 4.8339444126388695e+00 -5 -2 -2
301 101 1 -8.1999999999999995e-01 -1.0342697251960660e+01 -1.1840624429567059e+01 1.1803739101680382e+00 -4 -1 2
669 223 2 4.0999999999999998e-01 -1.0539193096735369e+01 -1.2808325582722357e+01 6.1840410628065374e+00 -4 -3 -4
811 271 1 -8.1999999999999995e-01 -9.2218236017615922e+00 -1.3372937467304956e+01 3.2628309882910660e+00 -1 1 -4
303 101 2 4.0999999999999998e-01 -1.0453102822832086e+01 -1.0867992034296698e+01 1.3850436283715251e+00 -4 -1 2
813 271 2 4.0999999999999998e-01 -8.5787686679203254e+00 -1.4041727863436524e+01 2.8896117782403703e+00 -1 1 -4
2017 673 1 -8.1999999999999995e-01 -6.8991502980275090e+00 -1.3200238830519600e+01 1.0303115402997776e-01 -1 -4 1
989 330 2 4.0999999999999998e-01 -7.9885129341144721e+00 -1.2369298127081681e+01 3.9244472586964800e+00 -7 -1 -5
2116 706 1 -8.1999999999999995e-01 -1.0968833723114821e+01 -9.2488435103705093e+00 1.7769075050896905e+00 -6 -2 0
2117 706 2 4.0999999999999998e-01 -1.0819781341897187e+01 -9.0668456474639889e+00 2.7488915615990823e+00 -6 -2 0
2118 706 2 4.0999999999999998e-01 -1.0228174717371971e+01 -8.8398184208657504e+00 1.2437888262286929e+00 -6 -2 0
302 101 2 4.0999999999999998e-01 -9.8737531150264175e+00 -1.2290117794033209e+01 1.9407290356397144e+00 -4 -1 2
2090 697 2 4.0999999999999998e-01 -1.3319815713259784e+01 -1.2593404275989037e+01 2.0018552853519420e+00 -1 -1 1
990 330 2 4.0999999999999998e-01 -6.7561763287982917e+00 -1.1304828969601619e+01 3.8014597239229655e+00 -7 -1 -5
988 330 1 -8.1999999999999995e-01 -7.1863379278444732e+00 -1.1991834228493957e+01 4.3871880828044834e+00 -7 -1 -5
1130 377 2 4.0999999999999998e-01 -7.0234810238820167e+00 -9.0947110610390318e+00 2.7864537311960991e+00 -2 -1 0
942 314 2 4.0999999999999998e-01 -1.4289047634270840e+01 -9.3394648237129747e+00 4.8783950136615868e+00 -3 -2 -1
1129 377 1 -8.1999999999999995e-01 -6.6174239836926017e+00 -9.9581048947161648e+00 2.4868513430350365e+00 -2 -1 0
812 271 2 4.0999999999999998e-01 -9.7817373403625609e+00 -1.3806820907888905e+01 3.9687591572702434e+00 -1 1 -4
367 123 1 -8.1999999999999995e-01 -9.2269021654107792e+00 -9.8519594011793039e+00 6.9542919892119048e+00 -2 -4 -1
1707 569 2 4.0999999999999998e-01 -6.7397712475229472e+00 -1.3978220629269755e+01 1.7369144341318421e+00 -1 3 1
1131 377 2 4.0999999999999998e-01 -6.4375255395250974e+00 -9.9185001351238178e+00 1.5039165388267453e+00 -2 -1 0