2611
Atoms. Timestep: 8000000
O 5.03617 6.34906 -6.30559
H 4.37158 6.65281 -5.62292
H 4.57287 6.20225 -7.17954
O 12.8555 -11.926 9.76605
H 13.0264 -12.9108 9.79761
H 13.4486 -11.5066 9.07878
O -13.7396 5.81515 -10.3695
H -12.7868 5.57363 -10.5535
H -13.8684 6.79638 -10.513
O 0.928637 -12.9824 -14.659
H 0.993123 -13.4491 -13.777
H 0.0217158 -12.5718 -14.7534
O 4.85156 10.3189 13.255
H 5.70902 10.8323 13.2886
H 4.2091 10.7825 12.6449
O 0.477128 -14.4781 -12.2344
H 0.821928 -14.0329 -11.408
H -0.503939 -14.3051 -12.3216
O 6.13378 -3.76359 7.85363
H 6.73053 -4.4556 8.25982
H 6.68831 -3.00653 7.50815
O 1.8725 -10.856 -11.7266
H 2.36879 -10.0248 -11.977
H 1.20164 -10.6425 -11.0164
O 7.56345 -3.34375 -12.2172
H 6.96487 -4.13352 -12.3511
H 7.00825 -2.53029 -12.044
O -13.2565 8.5816 0.0494525
H -13.8576 9.37676 -0.0309329
H -13.4472 7.94298 -0.696072
O 13.8506 -5.97001 3.44228
H 12.8757 -5.96235 3.66478
H 14.01 -6.57707 2.66379
O -6.09702 8.55005 1.93483
H -5.59347 7.68941 2.01045
H -5.57407 9.19426 1.37671
O 12.0925 -1.17427 9.03197
H 12.425 -1.97068 8.52683
H 12.2972 -1.28699 10.0043
O -6.5671 0.784559 1.5692
H -7.25308 1.11365 2.21813
H -6.13317 -0.0399204 1.9324
O -11.9006 -9.57845 13.542
H -11.0929 -9.08821 13.2146
H -11.7366 -9.90761 14.4719
O -5.21088 3.74708 -14.2834
H -5.57668 4.01369 -13.3918
H -4.69763 4.51077 -14.675
O -10.8113 -7.67538 -13.4779
H -10.7645 -8.67335 -13.4349
H -11.7657 -7.38344 -13.415
O 11.8246 13.1108 14.1569
H 12.3001 12.3596 13.6991
H 11.3035 12.7525 -14.927
O -12.9189 13.1888 -0.571719
H -13.268 14.1044 -0.372266
H -11.9246 13.2256 -0.671643
O 13.3455 -2.00674 -9.14337
H 13.8428 -1.14984 -9.00773
H 13.9079 -2.63747 -9.67802
O -2.90932 -11.0876 -8.91164
H -3.27946 -12.0142 -8.97847
H -3.25832 -10.6482 -8.08395
O -2.70143 -8.16223 -12.7869
H -2.81546 -7.73628 -13.6844
H -3.36768 -7.7773 -12.1482
O 13.6711 13.3497 2.61359
H 12.8358 12.8705 2.88325
H 13.8188 13.2349 1.63126
O 3.83127 -12.5649 7.15967
H 4.11161 -12.8466 6.24204
H 2.96657 -13.0087 7.39494
O -0.135024 8.9615 14.6391
H -0.675427 9.32031 13.8781
H 0.499032 8.26687 14.2994
O -5.30898 -1.26655 -7.87732
H -5.91848 -0.657177 -7.3702
H -5.6533 -1.38259 -8.80896
O 6.69613 13.9644 0.0176272
H 7.02283 13.8175 0.951261
H 5.73604 14.2432 0.0404383
O -3.1311 -3.71635 14.4125
H -3.36197 -3.38725 13.4969
H -2.72614 -4.6283 14.3466
O -2.25931 3.50723 1.09619
H -2.70193 2.98344 1.824
H -2.6893 3.28949 0.220022
O -7.65468 4.07938 -3.26823
H -6.97133 3.367 -3.10849
H -8.11874 3.90728 -4.13714
O 2.00738 -0.95002 13.1705
H 1.72838 -1.46341 12.3589
H 2.08076 -1.57243 13.9497
O 5.76964 -8.02627 4.65026
H 6.66218 -8.0081 4.19968
H 5.58764 -7.13492 5.06541
O 1.79365 10.079 -13.1841
H 1.45342 10.789 -12.5675
H 1.06307 9.80107 -13.8078
O 5.85574 7.45602 -12.3353
H 5.37924 6.70332 -12.7896
H 5.26086 8.25938 -12.3087
O 5.05843 6.01641 8.88908
H 5.29751 6.19768 7.93516
H 5.12292 5.03469 9.06811
O 14.5382 1.92499 8.55868
H 14.361 0.964444 8.34438
H 14.2886 2.493 7.77441
O 8.08321 0.958511 -12.0218
H 8.01537 0.280861 -12.7541
H 8.99969 1.35857 -12.0218
O 8.813 5.90936 9.38776
H 9.56532 5.28159 9.18805
H 8.18107 5.47813 10.0317
O 1.89154 -4.44391 9.04623
H 1.66981 -5.41298 8.93796
H 2.47217 -4.14806 8.28773
O -11.697 12.0605 -14.5394
H -12.528 11.5766 -14.8138
H -11.4286 11.768 -13.6216
O 3.66142 8.56548 -9.38085
H 3.25957 8.64829 -8.46891
H 4.28031 9.33394 -9.5434
O -2.899 7.57528 -10.5469
H -3.09791 6.87536 -9.86091
H -1.94643 7.49352 -10.84
O -5.54189 -6.53183 -12.2344
H -5.13377 -6.66558 -13.1375
H -5.56771 -5.55508 -12.0216
O -8.04261 12.3777 11.8231
H -7.05788 12.2253 11.9074
H -8.22637 12.9271 11.0081
O 10.5651 -4.04983 -0.439596
H 11.3049 -4.70638 -0.586946
H 10.19 -3.76668 -1.32227
O -10.118 -5.14845 -9.61991
H -10.7477 -5.00904 -8.85567
H -9.39537 -5.78265 -9.34497
O 3.21052 -12.488 11.305
H 3.69031 -13.3374 11.0851
H 2.44095 -12.368 10.6778
O 7.61324 8.54296 0.738304
H 8.30549 7.95462 0.320424
H 7.39585 9.29534 0.116491
O 3.60616 -5.57182 14.5016
H 2.86382 -6.17301 14.7974
H 3.76949 -5.70033 13.5234
O -2.13611 14.8051 -1.76819
H -1.18924 14.6944 -1.46629
H -2.30804 14.2083 -2.55193
O -9.53614 -5.59585 7.50199
H -9.4867 -5.01866 6.68689
H -8.96219 -6.40452 7.37308
O -4.29006 -7.093 -14.8093
H -4.96288 -6.82149 14.3611
H -3.47293 -7.44759 14.5948
O -14.6589 -2.22234 -5.34614
H -14.0749 -2.50705 -4.586
H -14.4233 -2.74902 -6.1629
O -12.7374 5.40251 1.52735
H -12.0082 5.67071 2.15689
H -12.6801 5.95533 0.696032
O 13.3453 8.43816 12.4621
H 13.0242 7.75071 13.1135
H 12.8558 8.3316 11.5966
O -5.40137 -4.34505 -1.57003
H -4.84457 -3.95534 -2.30358
H -4.80947 -4.61961 -0.812242
O -0.741306 -9.64608 12.2335
H 0.0348545 -9.80295 11.6228
H -1.38759 -9.0201 11.7971
O -11.8241 -1.06016 8.81711
H -12.4562 -1.76904 9.13015
H -11.0086 -1.4888 8.42839
O -14.4682 8.48055 -10.28
H -14.3566 8.91153 -11.1754
H -14.2876 9.15255 -9.56184
O 11.1654 -12.2973 -13.7541
H 10.2702 -12.2542 -13.3105
H 11.5838 -13.1876 -13.5746
O 3.5022 -13.616 4.5234
H 2.92953 -14.4343 4.57302
H 3.00483 -12.8893 4.04954
O 11.6116 1.97299 14.1409
H 11.6299 0.973174 14.1374
H 11.2047 2.29601 -14.8632
O 4.79358 -0.833729 13.3622
H 5.02236 -1.65437 13.8858
H 3.80453 -0.688154 13.3859
O -9.90417 8.12196 10.7072
H -10.0545 7.98368 9.72827
H -10.433 7.44871 11.224
O 9.04614 11.6872 0.803077
H 9.5563 11.0326 1.36098
H 8.20057 11.9387 1.27396
O 13.0864 3.98052 -6.97142
H 13.6593 4.32219 -6.22645
H 12.5623 4.73697 -7.36269
O 1.24781 -4.73076 -8.12136
H 1.30239 -3.9745 -8.77334
H 0.635574 -5.43581 -8.4792
O -12.3634 2.7151 -3.21397
H -11.9288 2.68236 -4.114
H -11.6677 2.60764 -2.50378
O -2.90601 -0.421555 8.85595
H -3.60329 0.238592 8.57668
H -2.92061 -0.520978 9.85088
O -12.3378 -12.5682 -9.41833
H -12.3198 -12.1411 -10.3224
H -13.2507 -12.9362 -9.24163
O -0.203668 -10.2104 -10.0607
H -1.02306 -10.5636 -9.60919
H -0.374715 -9.27844 -10.3804
O -6.02707 2.43136 10.7101
H -5.21332 2.79683 10.2582
H -6.10656 2.82747 11.6248
O 7.17382 1.13059 -0.812227
H 6.44981 1.75043 -1.11488
H 7.42428 1.34624 0.131566
O 6.07753 -5.39627 -13.613
H 5.24699 -5.72357 -14.0636
H 6.78765 -5.236 -14.2985
O -6.56217 -4.10581 -11.6466
H -7.23723 -4.00716 -12.3777
H -7.03058 -4.15018 -10.7642
O 6.10438 -3.00326 3.03216
H 6.70139 -2.94773 3.83246
H 6.2451 -2.19892 2.4549
O -1.93131 6.30953 -6.37828
H -2.29364 6.62995 -5.50305
H -1.23938 6.95188 -6.70781
O -10.2766 -8.22568 -10.2703
H -10.3397 -8.32707 -11.2632
H -9.37508 -7.86691 -10.0285
O -0.582767 8.66453 -6.60737
H -1.4917 9.06425 -6.72592
H 0.0302524 9.01457 -7.31565
O -1.4289 -2.6422 -5.7593
H -1.68423 -3.27391 -6.49124
H -0.432331 -2.57888 -5.70621
O 14.2922 13.3716 -6.4232
H 14.494 13.5848 -7.37912
H -14.8621 13.7715 -5.8366
O 11.676 -7.64012 1.21052
H 12.0666 -8.47337 1.60184
H 11.3598 -7.04234 1.9472
O 13.6427 -6.88572 -12.0128
H 13.179 -6.12208 -11.5636
H 13.359 -7.74492 -11.587
O 2.17898 4.28814 -6.83632
H 3.03523 4.07401 -7.30638
H 2.28915 4.1309 -5.85493
O 14.9195 4.18845 12.984
H -14.2362 4.1463 12.2739
H 14.0184 4.2634 12.557
O -2.14784 -13.5576 -12.7854
H -2.33119 -13.6201 -13.7665
H -2.39437 -12.6455 -12.4577
O -3.03447 6.85682 -0.865693
H -2.6462 7.697 -0.487116
H -3.47421 6.33421 -0.135286
O -13.6524 -2.20435 11.8252
H -13.2617 -1.28588 11.764
H -13.0754 -2.7737 12.4108
O 7.25417 1.22813 -9.14973
H 7.74144 1.85154 -8.53825
H 7.64647 1.28721 -10.0677
O -13.9682 -9.77699 -13.7828
H -14.9119 -9.8298 -14.1094
H -13.5148 -8.9891 -14.1995
O 9.89987 -10.3546 3.02298
H 10.3777 -10.8743 3.73119
H 10.3112 -10.5486 2.13241
O 1.95059 3.72715 -1.45381
H 1.0419 4.14451 -1.44552
H 2.25883 3.58097 -0.513805
O -6.92626 9.3284 -12.1382
H -7.90757 9.52073 -12.1418
H -6.72388 8.64093 -11.4408
O -4.51436 -6.71357 1.43574
H -4.34761 -7.29381 2.23293
H -3.64402 -6.49577 0.994115
O 14.1813 7.8397 -7.30943
H 14.2972 7.05978 -6.69437
H 14.7165 7.69085 -8.14091
O 3.25983 6.98925 -4.36013
H 4.02532 7.08951 -3.72455
H 2.651 6.26476 -4.037
O -10.3376 -10.3177 -8.22711
H -11.0709 -10.8171 -8.6883
H -10.0899 -9.51421 -8.76848
O 3.82604 14.5151 0.151309
H 4.32501 -14.479 0.21219
H 3.17642 14.558 -0.607728
O -10.3744 -14.5179 -9.06067
H -9.90433 -13.6868 -9.35779
H -11.1536 -14.2721 -8.48413
O -3.70933 1.64927 -11.1261
H -4.61941 1.89729 -10.7941
H -3.71448 0.697636 -11.4333
O -9.5212 -12.9551 1.16948
H -8.98311 -13.7875 1.30158
H -8.90991 -12.1939 0.952662
O 7.64724 13.6794 -9.16311
H 7.51723 14.4328 -8.51858
H 7.05149 13.8119 -9.95527
O 2.03004 4.06537 9.44156
H 2.08323 4.49869 8.54191
H 2.424 4.67532 10.1291
O -8.644 7.47397 -6.10742
H -8.7483 6.62631 -6.6276
H -7.7641 7.46736 -5.63233
O 11.1415 -1.09629 5.68007
H 10.7632 -0.506788 6.39375
H 10.6905 -0.89764 4.80992
O -13.2856 7.14822 -2.36839
H -13.7827 6.2987 -2.19177
H -12.6721 7.01961 -3.14758
O -4.13733 3.60503 9.33251
H -4.20779 4.51522 8.92439
H -3.27465 3.52986 9.83263
O -5.52553 -14.1563 6.39839
H -6.02671 -13.8538 5.58764
H -5.25304 14.7469 6.28461
O -12.6508 -7.1078 10.3087
H -12.8922 -7.80475 9.63341
H -13.4708 -6.83058 10.8093
O 12.6727 7.17731 -10.5131
H 13.4434 7.81439 -10.5265
H 12.0591 7.38026 -11.2763
O -0.907356 -10.2807 -6.38931
H -1.90445 -10.3066 -6.31779
H -0.594214 -11.0404 -6.95922
O 7.37436 4.53754 2.39762
H 8.34133 4.72475 2.57051
H 6.83413 5.35197 2.60937
O 14.0759 0.30472 2.25091
H 14.846 0.569137 2.83147
H 14.0088 -0.692537 2.22008
O -10.7364 -10.241 -13.5764
H -11.3362 -10.6058 -12.8642
H -10.4063 -10.9904 -14.1503
O 11.044 -6.93604 3.66104
H 10.401 -6.70605 4.39154
H 10.9813 -7.91301 3.45715
O 3.51621 0.325638 -11.1438
H 3.07977 -0.0541327 -10.3281
H 4.46927 0.0253394 -11.1823
O -11.3053 3.59573 5.96946
H -10.8849 2.78212 5.56789
H -12.0669 3.89544 5.39488
O 12.2146 1.91346 -4.49304
H 12.4861 2.7341 -4.99583
H 11.257 1.99373 -4.21622
O -2.17174 6.45431 10.6822
H -1.22034 6.74604 10.5837
H -2.2223 5.45725 10.6248
O -13.4369 -6.72889 -13.5016
H -13.6048 -6.22529 -14.3491
H -14.3045 -6.88636 -13.03
O 8.87875 -13.7654 4.74436
H 9.73131 -13.2523 4.6454
H 8.32114 -13.647 3.92277
O -13.6226 -14.7262 -3.13687
H -12.9185 -14.0285 -3.26863
H -13.1889 14.2388 -3.02114
O -9.75733 -9.02837 8.98607
H -10.0723 -9.94231 8.73009
H -10.5032 -8.53062 9.42865
O -14.5293 9.82115 -5.83664
H -13.6063 9.6296 -6.17036
H 14.697 9.13229 -6.19119
O 5.83101 14.1876 -11.2972
H 4.84846 14.2497 -11.4724
H 6.16405 13.2884 -11.581
O 5.33489 -5.50187 2.23701
H 6.09474 -6.14509 2.14277
H 5.69344 -4.58811 2.42795
O -5.0673 9.34487 13.1354
H -5.73186 9.43482 12.3936
H -5.38959 9.85168 13.9349
O 10.7665 -11.2217 6.62121
H 11.3614 -11.3295 5.82467
H 10.6628 -10.2494 6.83066
O -12.8192 0.415192 12.2051
H -12.2716 0.916989 11.5355
H -12.214 -0.0186463 12.8726
O 5.28634 -3.75131 10.5255
H 5.39507 -4.73982 10.6304
H 5.20075 -3.52654 9.55483
O 6.70156 -11.4274 -4.78646
H 7.46148 -10.8456 -4.49658
H 7.01233 -12.0472 -5.5071
O 7.24484 1.69496 -5.70426
H 6.77297 0.827137 -5.54864
H 6.65305 2.45096 -5.42455
O -14.8331 0.11411 -9.07322
H -14.3536 0.78241 -9.64197
H -14.9242 0.4717 -8.1438
O 7.93833 9.77253 11.611
H 7.23348 9.25496 11.1259
H 7.67162 10.7351 11.6586
O 11.0004 1.28328 9.44072
H 10.5822 1.17538 10.3427
H 11.5901 0.498348 9.25065
O 14.2817 -10.847 7.62509
H 14.7364 -11.4757 6.99422
H 14.1328 -9.96866 7.17085
O -7.86395 -6.0396 10.2831
H -7.08543 -5.76468 9.7189
H -8.68544 -5.56064 9.97367
O 10.7614 1.25169 -12.0301
H 10.7282 2.182 -12.3953
H 11.5062 1.18047 -11.3667
O 1.84247 2.58903 6.27733
H 1.03388 2.05565 6.029
H 2.56034 2.44251 5.59676
O 13.8313 -7.97439 6.84809
H 13.3948 -7.79228 7.72915
H 14.332 -7.16174 6.54986
O -5.89145 -11.7179 -2.52931
H -6.03016 -10.7446 -2.34689
H -4.91155 -11.9126 -2.57267
O 6.93816 10.8876 -14.1371
H 5.96686 10.7444 -13.9473
H 7.36412 10.0141 -14.3727
O 10.7717 -12.4662 -3.90943
H 11.4815 -12.9068 -3.35993
H 10.2408 -11.8455 -3.33249
O 11.559 13.8017 -7.06187
H 11.3346 12.9376 -7.51232
H 12.4992 13.7666 -6.72297
O 3.42988 -1.9728 2.91245
H 4.29626 -2.44342 3.0794
H 3.23403 -1.973 1.93182
O -2.00818 9.07442 -13.2308
H -1.36172 9.00025 -13.9901
H -1.51365 9.00722 -12.3643
O -9.02829 6.85825 -10.6372
H -9.09168 6.52119 -11.5765
H -8.08873 7.14375 -10.4482
O -5.80712 -1.5413 -10.4856
H -6.45076 -1.08344 -11.0988
H -6.07222 -2.49964 -10.3793
O -14.5118 5.77233 -5.62468
H -14.2893 4.86284 -5.27354
H -13.7126 6.15561 -6.08762
O -13.5413 7.81124 -13.3844
H -14.2312 7.22414 -13.8078
H -12.8203 7.24432 -12.9859
O 10.1762 -3.74366 -5.95175
H 9.79491 -4.63104 -6.21083
H 9.95935 -3.55445 -4.99408
O -11.2329 -6.50121 -1.2646
H -10.6962 -7.30302 -1.5273
H -12.1747 -6.61188 -1.58215
O -2.878 11.7375 -13.339
H -3.77693 11.7954 -12.9048
H -2.64941 10.7784 -13.5056
O 1.14451 -2.34121 10.7294
H 1.72155 -2.98033 10.221
H 1.01942 -1.50627 10.1935
O -4.59865 8.5894 7.50795
H -5.51013 8.97075 7.66206
H -4.42331 8.53162 6.52515
O -3.87986 -10.3197 -6.33754
H -3.96807 -9.85212 -5.45802
H -4.30312 -11.2238 -6.27832
O 12.4229 -14.7458 -13.8214
H 13.1853 -14.2919 -14.2826
H 12.018 14.4349 -14.4351
O 0.635166 14.5717 -1.41667
H 0.51317 -14.3379 -1.70761
H 1.37173 14.1525 -1.9474
O 13.1766 -8.3272 10.9815
H 12.7473 -9.13028 10.5682
H 14.0683 -8.58151 11.356
O 8.21395 -8.66002 -6.13209
H 8.91217 -8.01364 -6.43976
H 7.66684 -8.95717 -6.91462
O -6.14299 10.8176 -8.06829
H -6.90476 10.3323 -8.49743
H -6.14504 11.7719 -8.36716
O 1.20099 -12.6584 9.47251
H 0.954151 -13.3797 10.1196
H 1.21135 -13.0319 8.54496
O -9.36651 12.446 0.691112
H -9.18397 11.4632 0.664531
H -9.35265 12.8129 -0.239051
O -10.1571 3.17815 1.19756
H -9.82527 3.06656 0.260843
H -11.0876 2.81844 1.26664
O 3.41751 13.8144 -3.14381
H 3.26361 13.6094 -4.1104
H 4.35121 13.5585 -2.89339
O -8.10827 5.27504 11.8457
H -8.26586 5.89763 12.6122
H -8.04944 5.79995 10.9966
O 8.20495 -6.64512 -1.76288
H 7.8122 -5.77067 -1.47816
H 7.68331 -7.00937 -2.53437
O -8.09316 3.09645 -12.8154
H -7.99848 3.05079 -13.8098
H -7.31837 3.59719 -12.4295
O -12.9257 -14.4774 13.7264
H -12.6693 -14.1675 12.8109
H -12.1028 -14.729 14.2358
O -14.2846 14.3062 11.6726
H -14.0861 14.4671 12.6394
H -13.4569 13.9871 11.211
O -5.21276 12.744 6.36026
H -4.30341 12.3399 6.26119
H -5.81307 12.3942 5.64107
O -2.61697 4.99021 5.77335
H -2.2327 5.48698 6.55151
H -2.00182 5.07177 4.98918
O 7.15523 1.11641 12.8638
H 6.78588 0.385167 12.2903
H 6.43596 1.78357 13.0575
O -6.2989 -1.98581 2.67927
H -6.85824 -2.60226 2.12509
H -5.64583 -2.52012 3.21592
O -7.43527 0.419744 7.60225
H -6.63131 0.754126 8.09401
H -7.54701 0.938298 6.75455
O -3.99773 -13.4234 -8.31143
H -3.96148 -14.3814 -8.5958
H -4.71701 -13.306 -7.62672
O -9.63646 2.93343 12.1689
H -8.93581 3.62134 11.9795
H -9.67837 2.2829 11.4105
O 3.80584 -12.3646 -8.45864
H 4.66872 -11.9964 -8.8048
H 3.51621 -11.839 -7.6587
O -6.77429 -10.9292 -14.3658
H -7.28307 -11.5852 -14.9233
H -5.92477 -10.6833 -14.8326
O 13.4926 -12.5921 12.4414
H 13.4279 -12.3125 11.4835
H 12.7333 -13.2043 12.662
O -0.476522 1.06557 11.334
H -1.13469 0.322484 11.4549
H -0.245388 1.15174 10.365
O -1.59782 -6.00869 0.299684
H -1.38484 -5.2649 -0.333869
H -0.971259 -6.77166 0.140676
O 0.964567 -13.8572 -5.34614
H 1.13556 -13.4421 -4.45256
H 0.00651745 -14.1375 -5.40561
O -4.40576 8.76907 4.61677
H -5.04816 9.11075 3.93079
H -3.5551 9.29238 4.56669
O 9.8601 13.5477 4.27313
H 9.9225 13.245 3.32207
H 9.72984 14.5388 4.29967
O 9.61971 9.98833 -7.83902
H 9.63706 8.99214 -7.92435
H 10.555 10.332 -7.75494
O 14.7112 -3.73069 -10.7902
H -14.1974 -3.92892 -11.0317
H 14.1806 -3.57655 -11.6237
O -7.96632 -6.82411 -9.4235
H -7.6771 -7.12385 -8.51439
H -7.16056 -6.66401 -9.99368
O 5.55395 -0.817484 10.6228
H 4.91407 -0.413832 11.2767
H 5.46836 -1.81358 10.6442
O -5.71541 7.85016 -14.1797
H -5.02468 8.17319 -14.8266
H -6.19096 8.63417 -13.7807
O 9.28469 -7.58412 -10.8012
H 8.7961 -6.73057 -10.6203
H 9.9434 -7.75293 -10.068
O -2.01792 3.87962 11.2271
H -1.1515 3.47677 10.9321
H -2.09937 3.80415 12.2209
O 2.05919 -4.55338 3.97904
H 2.10139 -4.94218 3.0587
H 2.66726 -3.76145 4.03454
O 8.9518 -10.6482 -10.6138
H 8.88199 -9.74416 -10.1922
H 9.17569 -10.5476 -11.5832
O -6.40854 11.0159 -14.8405
H -6.07423 11.6072 -14.1067
H -7.37638 11.2051 14.8523
O 5.3424 -9.90741 -10.9595
H 5.48487 -10.8715 -11.1837
H 5.22183 -9.38345 -11.8026
O 1.47721 -0.288351 8.86231
H 1.62078 -0.73637 7.9799
H 1.26277 0.677192 8.71492
O -2.03189 0.853259 14.0685
H -1.32901 0.964733 13.366
H -2.01919 1.64356 14.6811
O 1.6515 -7.52783 8.94839
H 0.721331 -7.41217 8.59998
H 2.30412 -7.4204 8.19837
O 4.82825 5.20397 -13.3715
H 5.45304 4.43768 -13.2217
H 4.623 5.28098 -14.3471
O -0.451899 3.61509 -6.43542
H -1.00668 4.447 -6.42468
H 0.48957 3.84545 -6.68149
O 11.6154 3.78511 5.02661
H 11.57 3.01507 4.39025
H 10.7221 3.91495 5.457
O -0.403445 4.96708 -10.6731
H 0.561614 4.87067 -10.9168
H -0.835443 4.06532 -10.6594
O -4.08158 -10.3207 -14.8141
H -3.70723 -9.61643 -14.2109
H -4.35066 -9.90639 14.1751
O 11.2067 6.69402 0.28196
H 11.6304 7.44977 -0.217309
H 10.8123 7.03725 1.13437
O 9.38728 11.0238 -10.3674
H 9.3018 10.2036 -10.933
H 9.43917 10.7605 -9.40408
O 13.177 5.68192 -4.08726
H 13.6146 5.41808 -3.22764
H 13.8658 5.73087 -4.81055
O -14.4816 -1.57536 -1.72683
H -14.8347 -2.41255 -1.30918
H 14.6125 -0.996301 -2.01034
O 7.7867 13.2025 -4.41344
H 7.00966 13.4954 -4.97059
H 8.55213 13.8308 -4.55246
O -11.5052 7.94684 -9.94443
H -11.6583 8.76263 -10.5021
H -10.6307 7.53133 -10.1946
O 12.0421 1.3892 3.85588
H 11.2116 0.842493 3.74936
H 12.7693 1.0051 3.28692
O -5.70794 -12.1764 -11.8372
H -4.78582 -11.7995 -11.7494
H -5.97113 -12.1923 -12.8018
O 12.7012 1.25876 0.118373
H 13.2817 1.12367 0.921366
H 12.9155 2.13975 -0.303415
O -6.78363 5.52866 -0.84665
H -6.99973 4.85174 -1.55025
H -7.54755 6.16706 -0.752507
O 11.999 -0.613292 14.7395
H 12.0258 -1.60904 14.8275
H 11.811 -0.204649 -14.2259
O -3.38618 -8.12815 6.87054
H -4.02689 -8.27419 7.62429
H -2.62292 -8.76895 6.95299
O 2.32735 9.41083 6.12253
H 1.3388 9.26959 6.17539
H 2.57181 10.2448 6.61717
O 1.48252 14.3362 14.3439
H 1.43678 -14.5751 14.6611
H 0.655831 13.8497 14.6266
O -11.6263 -13.9952 11.2004
H -10.7782 -14.1717 11.6999
H -11.6895 -14.6177 10.4203
O -2.83071 9.9207 2.55206
H -2.57118 9.98266 1.58832
H -3.1758 10.8066 2.86193
O -7.22454 -10.1464 -7.68615
H -6.31938 -10.2656 -7.27816
H -7.15516 -10.2267 -8.6805
O -5.18793 -8.21974 -10.06
H -5.56804 -7.92758 -10.9376
H -5.59562 -9.09339 -9.79448
O -8.50418 -12.5971 4.74689
H -9.32603 -12.9218 5.21502
H -8.20601 -13.2828 4.08287
O 1.29434 -2.4833 -9.81044
H 0.308999 -2.47032 -9.98048
H 1.57175 -1.61857 -9.39179
O 6.24803 7.44437 2.65249
H 5.91052 8.1519 3.27335
H 6.90137 7.84734 2.0116
O -8.8623 9.32361 4.02753
H -9.39411 9.82446 4.71041
H -8.39206 8.55827 4.46698
O -14.8812 -9.25248 -10.2396
H 14.7865 -8.37353 -9.8026
H -13.9761 -9.22416 -10.6639
O 10.8379 10.4541 8.43628
H 10.3241 9.66856 8.78135
H 10.7838 11.2036 9.09605
O 13.8289 5.34307 4.9339
H 13.0019 4.80948 5.11112
H 13.627 6.05851 4.26506
O 1.6945 -11.8933 3.25862
H 1.06588 -12.4625 2.72869
H 1.23752 -11.5771 4.08996
O 3.16326 -9.80375 6.299
H 2.19228 -9.91088 6.08519
H 3.48669 -10.6106 6.79334
O 5.45708 9.17898 4.82239
H 6.43003 8.94805 4.81716
H 5.34923 10.1698 4.7405
O 3.05154 -8.54467 -3.14561
H 3.48231 -8.92741 -2.32834
H 3.41421 -9.00085 -3.95823
O -14.6954 9.74521 9.0386
H 14.712 10.6316 9.14267
H -14.7131 9.2577 9.91152
O 5.44779 -14.7805 -14.3937
H 4.77643 14.7033 -13.7543
H 5.89418 14.3299 -14.8846
O -8.85259 -1.77914 8.8259
H -7.96054 -2.08413 9.15939
H -8.747 -0.914498 8.33476
O 14.263 -4.63217 -4.09034
H 14.1763 -3.70516 -4.45519
H 13.4393 -5.15501 -4.30945
O 12.4782 -6.30719 -1.21121
H 12.5974 -6.69832 -0.298644
H 13.1522 -5.58242 -1.35389
O 4.64223 11.7949 4.95561
H 3.85007 11.8578 5.56267
H 4.9764 12.7141 4.74738
O 4.72245 -6.12486 -2.40556
H 4.61577 -7.11111 -2.2794
H 5.47682 -5.79583 -1.83754
O 4.76233 -9.61747 -1.05063
H 5.55877 -9.91155 -0.522257
H 4.12938 -9.12499 -0.453272
O -10.5227 5.85651 3.09473
H -10.2418 6.77704 2.82319
H -9.82638 5.19786 2.80955
O -9.19462 6.65395 -0.80793
H -9.79649 6.22852 -1.48376
H -9.74671 7.07834 -0.0902394
O 9.01434 -8.04667 0.413247
H 8.80428 -7.6431 -0.477252
H 10.0041 -8.04331 0.555583
O -14.0497 -12.0329 1.3802
H -13.1796 -12.0757 1.8711
H -14.6995 -12.6681 1.79771
O 9.93404 -10.2956 14.3919
H 10.2074 -11.0106 -14.8231
H 9.14762 -9.79926 14.7595
O -10.6878 3.99995 -9.32292
H -10.1064 3.3108 -9.75543
H -11.0776 4.59557 -10.0253
O 4.97167 -9.21432 -13.8363
H 3.97507 -9.13889 -13.869
H 5.3155 -9.48069 -14.7368
O 2.98552 2.33451 -12.8291
H 2.67109 2.32521 -13.7783
H 3.07504 1.39503 -12.4984
O 6.86724 11.7887 -11.5442
H 7.00338 11.4372 -12.4705
H 7.75308 11.8828 -11.0899
O 0.546608 -7.41814 2.71431
H 1.51725 -7.60064 2.87095
H 0.0600877 -7.42962 3.5879
O 2.00571 7.33256 13.9759
H 1.60637 6.54042 14.4374
H 2.99131 7.35415 14.1436
O -9.96278 -3.17508 10.826
H -10.6718 -3.80556 10.5102
H -9.50313 -2.76797 10.0368
O -9.36828 11.2374 -3.13715
H -9.4284 11.0409 -4.1158
H -10.1819 10.8838 -2.6756
O -5.05786 10.6183 0.250391
H -5.42597 11.3025 0.879964
H -5.68643 10.5004 -0.518356
O -2.92962 -11.6075 1.99689
H -3.58559 -11.7576 1.25718
H -2.09621 -11.1983 1.62543
O 10.2161 14.7004 -10.4515
H 10.8015 14.0078 -10.8728
H 9.682 14.2831 -9.71635
O 2.86052 12.8133 2.24117
H 2.83622 13.0727 1.27574
H 1.9624 12.4708 2.51697
O 14.0122 11.8353 -10.7659
H 14.0423 11.0736 -10.1187
H 13.0636 12.0125 -11.0281
O -2.28885 4.20715 14.1714
H -2.30767 3.64593 -14.8597
H -2.8367 5.03127 14.3151
O -5.48269 -12.6087 -5.98357
H -5.41992 -12.5097 -4.99047
H -5.62372 -13.5714 -6.21437
O -13.8744 8.09442 12.7781
H -13.5471 8.83506 13.3649
H -14.8731 8.05771 12.8135
O -9.11718 13.1184 -8.23813
H -9.67249 12.3042 -8.40765
H -9.6407 13.9353 -8.48028
O -5.4027 -5.36868 8.42113
H -4.41613 -5.23985 8.52145
H -5.87734 -4.53068 8.6903
O -0.24816 8.73903 -10.9482
H 0.626172 8.40813 -11.3032
H -0.0826829 9.44745 -10.2621
O 5.662 14.3049 -5.75568
H 6.13319 -14.8536 -6.29221
H 4.96479 14.7366 -5.18343
O 14.8887 -12.7939 -8.65796
H 14.8383 -12.5586 -7.68737
H 14.0502 -12.4993 -9.11633
O -10.3706 13.2091 7.5652
H -9.64708 13.2698 8.25282
H -10.8195 12.318 7.63149
O -7.47521 8.8004 11.5297
H -8.43628 8.89047 11.2685
H -7.41523 8.44947 12.4641
O 3.43277 14.7407 -12.5692
H 2.54198 14.3732 -12.3019
H 3.34833 -14.1382 -12.7507
O -7.89228 -14.7865 3.14576
H -8.32191 14.2477 3.51432
H -6.90235 -14.9196 3.09776
O 10.7965 4.05088 9.01066
H 11.5506 4.45124 9.5312
H 10.8173 3.05562 9.10562
O 2.68279 -6.60692 6.41106
H 1.94663 -6.35966 5.78105
H 3.56383 -6.36032 6.0074
O 9.21581 -0.128469 -1.81984
H 8.44098 0.415752 -1.4982
H 9.47416 -0.789458 -1.11533
O -10.8131 -1.35891 -14.5821
H -10.4324 -1.31222 14.353
H -10.5887 -0.520033 -14.0862
O -10.2432 -4.53981 4.89316
H -9.28041 -4.80935 4.87273
H -10.317 -3.55492 4.73656
O -13.5495 3.67418 4.28142
H -13.5094 4.35812 3.553
H -14.3332 3.86298 4.87311
O -12.924 2.35639 14.2086
H -13.5477 3.13116 14.105
H -12.8699 1.85429 13.3455
O 14.0877 11.0781 12.9678
H 14.1773 11.4002 12.0253
H 13.5908 10.2104 12.9777
O -5.41896 14.4612 -0.879682
H -5.9968 -14.582 -0.842527
H -5.7026 13.8864 -1.64718
O -12.5943 -9.06747 2.52116
H -12.7479 -9.77092 3.21509
H -12.6054 -8.16548 2.95275
O -3.30243 -5.54726 11.3812
H -2.65458 -5.07143 10.7864
H -4.0868 -4.95389 11.5619
O 0.64157 10.9977 -0.166477
H 0.580568 11.5088 -1.02385
H -0.266892 10.668 0.0904033
O -5.49888 -3.89051 11.523
H -6.11862 -3.31124 12.0525
H -5.368 -3.49495 10.6139
O 4.71799 0.975156 -7.83019
H 4.66098 0.550083 -6.92684
H 5.44009 1.66693 -7.82807
O 3.13883 -2.07808 0.227655
H 2.64095 -2.80345 -0.247668
H 2.68483 -1.2017 0.0670061
O 9.17397 4.45992 6.62157
H 9.53585 4.20862 7.51927
H 8.7928 5.38351 6.66248
O 8.56773 8.52485 -12.0853
H 8.22813 8.11243 -12.9306
H 8.09235 8.1217 -11.3033
O -3.67965 -8.94834 -3.655
H -3.37604 -9.70515 -3.07617
H -4.21723 -8.30589 -3.10887
O 6.69611 -9.92708 0.862892
H 7.56286 -9.46961 0.664263
H 6.84434 -10.6381 1.55028
O 13.3797 -13.5609 -2.55631
H 14.2241 -14.0599 -2.75115
H 13.5722 -12.5802 -2.52334
O 11.2892 3.74295 -13.0021
H 10.4409 4.26295 -12.9026
H 12.0708 4.3479 -12.8499
O 1.60378 -6.93692 -4.76966
H 1.32298 -5.99082 -4.60833
H 2.17449 -7.24932 -4.01027
O -7.13154 -14.7145 -11.8256
H -7.01942 -14.4654 -12.7876
H -6.67467 -14.0362 -11.2502
O 0.897305 -9.96247 10.2024
H 1.2237 -9.23503 9.59886
H 1.25598 -10.8417 9.88894
O 11.4843 10.4565 2.41404
H 12.0049 10.9103 1.69083
H 12.0046 9.6754 2.75925
O 8.54979 3.07048 -7.72033
H 8.13783 2.59507 -6.94299
H 8.67951 4.03501 -7.49048
O -2.99818 11.5205 5.70756
H -3.18104 11.8561 4.78346
H -2.01608 11.5658 5.89033
O 2.8726 -5.34552 1.16162
H 2.76893 -4.99889 0.229373
H 3.8338 -5.29198 1.43217
O -9.84975 -0.946188 12.6849
H -9.89726 -0.371097 11.8683
H -9.88008 -1.90908 12.4168
O 7.69991 -7.27697 7.55001
H 7.76788 -6.69544 8.36068
H 6.751 -7.56743 7.42678
O -8.19682 -11.3737 10.2452
H -8.77535 -11.6542 9.47931
H -7.31115 -11.8334 10.1797
O 13.5369 -7.81961 -3.50215
H 12.9711 -7.51841 -2.73464
H 13.3603 -8.78631 -3.68729
O -13.7495 8.79798 2.57832
H -13.5658 8.67596 1.60295
H -13.1152 8.23649 3.10972
O 9.5286 12.4311 -13.9372
H 9.29425 13.4032 -13.9438
H 8.74145 11.9006 -13.6226
O -8.08164 -5.10112 -4.4626
H -8.55158 -4.59644 -5.18678
H -8.20226 -4.62442 -3.59186
O 11.8716 1.51788 -8.18666
H 11.2816 1.27925 -7.41539
H 12.7061 1.9513 -7.84631
O -14.1919 9.66018 -3.22124
H -14.1081 8.66405 -3.19497
H -14.4885 9.94579 -4.13254
O -6.26689 -7.11755 5.6122
H -5.35578 -6.80364 5.87926
H -6.6582 -7.66984 6.3483
O 14.082 -10.8911 -2.56678
H 13.7934 -10.3632 -1.76803
H -14.8493 -10.6218 -2.82695
O 0.578248 8.75871 -4.14886
H 1.54582 8.73311 -4.4001
H 0.0181644 8.73712 -4.977
O 9.05919 -13.0731 -11.8215
H 8.80428 -12.3275 -11.2057
H 9.35819 -13.8617 -11.2842
O -1.61782 -7.52195 14.1126
H -1.17645 -8.20602 13.5319
H -1.06716 -6.68727 14.1218
O -12.8556 -9.35377 6.76996
H -12.5444 -8.41593 6.61618
H -13.0906 -9.47302 7.7346
O 8.63202 4.63496 -10.8085
H 9.38873 4.17332 -10.3456
H 8.00827 5.01778 -10.1271
O -8.9059 2.05179 -10.1987
H -9.18075 2.2109 -11.1469
H -8.78409 1.07089 -10.0471
O -12.6798 13.9622 9.37943
H -13.398 14.298 8.77002
H -12.3068 13.1084 9.01634
O 9.73272 -14.6853 10.7404
H 8.79362 -14.4916 11.0242
H 10.3694 -14.2871 11.4008
O -11.5041 6.42401 12.5688
H -12.1259 7.09631 12.9705
H -11.0981 5.86963 13.2953
O 3.53856 -3.14275 7.15094
H 3.64806 -3.97485 6.60725
H 4.42284 -2.87645 7.5345
O 5.46408 -0.380251 -5.73841
H 4.67746 -0.771442 -5.26073
H 6.00018 -1.11459 -6.15474
O -0.190413 11.5677 5.77348
H 0.0551047 12.031 6.625
H -0.34549 10.5966 5.95507
O -12.6458 -2.61785 -3.73442
H -13.0925 -2.43995 -2.85762
H -11.9084 -3.28068 -3.60441
O 9.12377 -3.05189 1.76146
H 8.76244 -3.85382 2.23719
H 9.7666 -3.34558 1.054
O 10.6349 -9.17015 -8.64722
H 10.5718 -9.96694 -9.24815
H 10.9559 -9.45781 -7.74486
O -6.96589 6.23606 9.24509
H -5.98106 6.3844 9.33506
H -7.42854 7.11762 9.15133
O -5.54789 0.424311 -14.7143
H -5.31468 1.39562 -14.7606
H -4.82892 -0.0680793 -14.2238
O 5.67169 6.09671 6.29078
H 4.86058 6.5945 5.9837
H 5.8619 5.34647 5.65758
O 6.06403 -6.6311 10.2658
H 5.85935 -7.18724 11.0713
H 5.7348 -7.0987 9.44547
O -6.803 -10.6093 5.59124
H -7.46221 -11.2791 5.24941
H -6.21628 -10.306 4.84044
O -4.71892 1.37752 7.62151
H -4.47806 2.07634 8.29503
H -4.08714 1.42828 6.84804
O -1.66427 3.67879 -3.89911
H -1.12833 3.23718 -4.61865
H -1.0494 4.15277 -3.26882
O 12.135 11.0388 -7.35075
H 13.0542 11.0687 -7.74325
H 12.1884 11.1958 -6.3646
O -12.0424 9.26527 -7.11655
H -12.199 8.27831 -7.0796
H -11.7537 9.52267 -8.03872
O -9.79874 -5.78537 0.981989
H -10.3443 -6.03394 1.78231
H -10.1782 -6.22782 0.169432
O 9.31569 -11.17 -1.43866
H 8.69456 -11.9537 -1.44151
H 9.00904 -10.4992 -2.11393
O -9.1665 -3.85335 -6.55973
H -10.0811 -4.12876 -6.85575
H -8.93376 -2.97264 -6.97224
O -9.17865 -5.55121 -12.5237
H -9.68407 -6.34283 -12.867
H -9.36465 -5.43454 -11.5481
O -14.366 -9.46939 12.0839
H -14.9052 -10.3015 12.2141
H -13.5422 -9.51413 12.649
O 13.642 -13.7468 2.29573
H 12.8886 -13.7158 1.63886
H 13.9821 -14.6843 2.36879
O 13.2969 0.275919 -2.26025
H 12.7082 0.574303 -1.50902
H 13.1212 0.841199 -3.0662
O 0.459452 11.6857 2.96432
H 0.723089 10.8811 2.43227
H 0.153107 11.3993 3.87212
O -13.022 0.687239 -1.26951
H -13.0066 1.06794 -2.19407
H -13.462 -0.210577 -1.28605
O 5.4346 -13.2256 0.301419
H 5.5965 -12.6018 1.06603
H 4.8161 -12.7943 -0.355411
O -3.04294 -7.38836 -6.96089
H -2.84467 -7.67839 -7.89714
H -3.45664 -8.14694 -6.45751
O -11.154 1.30888 -13.5126
H -11.6517 1.49936 -14.3588
H -10.2968 1.82384 -13.5069
O -0.542124 -5.1589 3.79532
H 0.422679 -4.89599 3.79106
H -0.777678 -5.57645 2.91774
O 13.2364 9.31833 -0.290736
H 12.3155 9.68405 -0.425101
H 13.9059 9.94789 -0.685052
O 9.9878 13.9935 -0.491513
H 10.3829 13.6259 -1.33337
H 9.46096 13.2792 -0.0308729
O 10.1708 -0.591234 2.68344
H 9.69606 -1.43099 2.41994
H 9.88416 0.155876 2.08372
O -12.6242 11.5226 7.86662
H -13.1827 11.777 7.07711
H -13.062 10.7681 8.3554
O -7.13679 9.28898 7.94768
H -8.08368 9.22906 8.26356
H -6.98069 8.60885 7.23141
O 4.92382 14.0591 3.28275
H 4.15578 13.5322 2.91873
H 4.5842 14.9102 3.68311
O 10.4227 -3.08133 -10.4012
H 9.64179 -2.48021 -10.5708
H 11.1527 -2.56207 -9.95683
O -2.4198 9.05157 12.2434
H -3.29291 9.13993 12.7229
H -2.3535 8.14035 11.8369
O 14.1065 8.11804 6.50619
H 14.6646 8.37862 7.29395
H 14.6968 7.75758 5.78403
O -0.136718 13.0501 8.10823
H 0.750306 13.5075 8.17073
H -0.865572 13.7347 8.10832
O -12.743 2.5814 8.58941
H -12.6532 2.70623 7.60131
H -13.6627 2.25115 8.80143
O 0.836115 12.0256 -5.3792
H 1.3582 12.8782 -5.40434
H 1.30289 11.3326 -5.92857
O -7.21975 7.28872 5.68236
H -7.95386 6.69218 6.00671
H -6.51072 6.73649 5.24383
O 3.62757 -5.11651 -7.00853
H 3.88932 -6.01961 -6.6681
H 2.73485 -5.17463 -7.45536
O 4.55387 2.90781 -9.9744
H 5.27179 2.23892 -9.78165
H 3.73398 2.43366 -10.2953
O 11.0136 -1.21015 -6.99353
H 10.6154 -2.02479 -6.57196
H 11.8191 -1.47031 -7.52598
O 10.5243 -4.25474 10.4826
H 10.6295 -4.79134 11.3199
H 11.3239 -3.66668 10.3609
O 2.2148 0.149625 -8.79828
H 1.37964 0.406234 -8.31181
H 3.00876 0.518136 -8.31475
O 3.21138 -1.29162 -4.51681