2611
Atoms. Timestep: 23000000
O -12.1593 6.91258 3.15979
H -12.8387 6.37485 2.66057
H -11.2721 6.45338 3.11458
O -8.52345 9.42306 7.62574
H -8.21831 9.37061 6.67485
H -7.72891 9.39951 8.23254
O 12.3688 12.5668 -13.3617
H 11.7909 12.4401 -12.5556
H 12.4229 13.5405 -13.5834
O -6.34488 5.69517 -7.02073
H -7.22262 5.30686 -7.30153
H -6.47241 6.65144 -6.75743
O 13.0143 11.2107 -4.12513
H 13.8462 11.1692 -3.57177
H 12.2882 11.6575 -3.60234
O -14.3704 9.18486 -8.74167
H -13.6148 8.86504 -8.16993
H 14.8561 9.4832 -8.15886
O -12.096 7.8154 14.1388
H -12.6643 8.63796 14.16
H -12.0935 7.38856 -14.9392
O 2.90176 2.71369 8.68318
H 2.47426 3.10212 7.86684
H 3.88923 2.64421 8.54133
O -8.53219 -6.17365 -1.75011
H -7.78561 -6.1462 -1.08534
H -8.66954 -7.115 -2.05841
O 2.19324 4.507 6.54849
H 1.2535 4.60672 6.22139
H 2.78089 4.22026 5.79186
O 14.469 -12.8313 8.14179
H 14.7652 -12.3035 7.34567
H 14.9274 -12.4852 8.96042
O -4.29835 6.94474 -3.31022
H -4.55538 7.0649 -2.35129
H -4.94193 6.31971 -3.75201
O -4.31572 4.13837 6.55343
H -3.71332 3.92422 7.32239
H -3.84971 3.92363 5.69507
O 14.7287 -8.21744 -1.18799
H -14.744 -7.50909 -1.67628
H 14.6353 -9.0236 -1.7723
O -3.9171 2.78915 12.5115
H -3.61865 1.86391 12.2771
H -4.65162 3.06904 11.8932
O -11.9312 -12.2812 -10.0532
H -11.9301 -11.3596 -10.4415
H -12.4079 -12.9038 -10.6738
O 12.0784 -4.17283 -14.8871
H 11.8519 -3.23152 14.845
H 13.0418 -4.34889 14.8931
O 12.783 14.3511 0.872544
H 12.3144 13.4698 0.812008
H 13.7513 14.2295 0.653997
O -6.63361 6.59486 12.3636
H -6.3906 6.42701 13.319
H -6.60306 5.73396 11.8557
O -6.78821 3.67546 2.76167
H -7.44526 2.98379 3.06156
H -7.09155 4.57804 3.06726
O -9.9445 -3.65259 3.95847
H -9.47103 -4.45493 4.32199
H -9.4837 -3.3419 3.12709
O 2.00556 -3.3311 -6.37328
H 2.55525 -3.06215 -5.58235
H 1.06806 -3.004 -6.2544
O -3.33356 0.0376916 -3.82728
H -3.76487 0.927109 -3.67576
H -2.34739 0.116263 -3.6812
O 8.57301 14.3304 6.07148
H 7.93603 -14.8839 6.0054
H 8.36396 13.6617 5.35794
O -14.7985 0.230737 -4.31108
H 14.8319 0.656137 -5.14487
H 14.6823 0.581921 -3.52041
O -6.63735 -0.63496 4.09545
H -7.21608 -0.244247 3.37959
H -5.78052 -0.122028 4.14835
O 13.7569 0.771856 13.3932
H 14.2293 1.45022 12.8304
H 12.8157 1.06917 13.554
O -10.4744 -13.7558 12.007
H -10.277 -14.5359 11.4133
H -10.4083 -14.0398 12.9636
O 1.36884 12.1149 12.2308
H 1.2445 11.6815 13.1234
H 2.33566 12.0841 11.9771
O -1.24392 -14.8521 -11.8489
H -1.95138 -14.6451 -11.1731
H -0.359769 -14.5228 -11.5174
O 5.82843 9.42034 -8.56959
H 5.08387 8.90997 -8.99995
H 6.20823 10.0726 -9.22564
O -9.76405 -4.07519 -5.31477
H -10.6975 -4.43342 -5.29664
H -9.6262 -3.54627 -6.1522
O 4.07399 12.3409 -7.71328
H 4.87234 12.9041 -7.92672
H 3.58796 12.7339 -6.93265
O -11.9433 -11.9218 1.69984
H -11.1766 -12.433 2.08839
H -11.741 -11.6895 0.748435
O 0.264141 -4.19677 3.36514
H -0.304676 -4.83729 2.84916
H 0.133361 -4.34938 4.34476
O -0.150252 -13.9534 12.6221
H 0.777439 -13.9389 12.249
H -0.474995 -14.898 12.6714
O -0.336634 13.1784 2.65523
H 0.431596 13.2457 3.2919
H -0.072865 13.5668 1.77231
O -8.01333 -10.0321 14.128
H -7.626 -10.9475 14.0182
H -8.40125 -9.94212 -14.9371
O 10.7554 13.7272 7.72018
H 11.3163 14.5535 7.77226
H 10.0289 13.8595 7.04587
O -11.8263 8.08406 -0.349077
H -11.9442 8.7397 -1.09491
H -12.4344 8.32624 0.406908
O 2.8219 -11.7522 -7.97792
H 3.41374 -11.6644 -8.77921
H 2.11146 -12.4317 -8.16106
O -10.3783 8.56423 -3.49393
H -11.0367 8.94459 -2.84448
H -9.49304 9.01337 -3.3727
O 6.69073 0.483916 14.6755
H 7.17138 -0.0122245 13.9524
H 7.21813 1.29422 14.931
O 12.8018 1.90199 -3.86039
H 13.3629 2.72454 -3.76773
H 11.9874 2.1132 -4.40098
O -10.6009 -6.38735 6.00596
H -9.75755 -5.86985 5.86119
H -10.5244 -6.92057 6.84849
O -9.52453 12.4644 -12.002
H -10.0419 12.782 -12.7966
H -8.72131 13.046 -11.873
O -4.10181 0.971112 -11.0621
H -3.85244 0.569891 -10.1807
H -5.0582 1.26224 -11.0372
O -12.3444 -4.22591 6.51672
H -11.5581 -4.83936 6.44248
H -13.0932 -4.69852 6.98146
O -3.44716 -11.825 11.4682
H -3.00339 -12.1207 10.6222
H -4.40831 -12.1008 11.4544
O 3.01525 13.5124 -1.61928
H 2.98068 14.4851 -1.84887
H 2.71626 12.9733 -2.40666
O -6.2176 0.83722 -13.3136
H -5.28233 0.698096 -13.6391
H -6.44188 0.137698 -12.635
O 11.0287 -14.4511 -3.81764
H 11.0557 -14.4188 -2.8185
H 11.6813 14.8487 -4.14675
O 7.55339 0.458787 9.6582
H 7.03791 0.234932 8.83103
H 8.06835 1.30342 9.51169
O 14.4888 -2.8602 -13.6928
H 14.3671 -2.36209 -12.8342
H -14.9673 -2.29926 -14.3318
O -12.1489 -9.10191 -7.38016
H -11.2656 -8.79152 -7.73156
H -12.8268 -8.37549 -7.49375
O 10.9404 10.4712 3.33677
H 10.7874 9.61923 3.83748
H 11.6248 11.021 3.81573
O -14.9892 -4.40578 -4.65853
H -14.2894 -3.92496 -5.18677
H -14.5986 -4.71515 -3.79151
O 14.8258 -5.68225 14.5868
H -14.4487 -5.16074 -14.9192
H 14.8122 -5.42123 13.6215
O 0.52146 -11.2866 -10.7358
H 0.786662 -12.2298 -10.5355
H -0.460497 -11.1766 -10.5819
O 12.4471 1.70933 -8.39149
H 12.9869 2.45676 -8.7788
H 11.4785 1.95771 -8.40157
O -8.52094 6.37343 -12.5756
H -8.28635 6.6838 -13.4968
H -8.81821 5.41926 -12.6109
O 12.2791 -6.77858 -2.93174
H 12.7799 -6.85531 -3.79389
H 11.8282 -7.64801 -2.72966
O -2.37161 7.72635 -6.94037
H -1.89831 8.37193 -6.34098
H -2.01159 6.80571 -6.78919
O 5.88595 1.45455 -6.51862
H 6.74936 0.950303 -6.53586
H 5.87688 2.07322 -5.73298
O -1.59262 1.06682 6.56882
H -1.88221 0.129684 6.76369
H -1.86146 1.31188 5.63731
O 9.95554 -12.1825 8.04586
H 10.5921 -12.9537 8.04728
H 10.1462 -11.5944 7.2598
O 14.6542 14.8041 -9.89147
H 13.6734 14.647 -9.77559
H -14.882 14.8004 -8.99651
O -0.753295 -5.12117 -11.0037
H -0.196901 -4.56739 -11.6232
H -1.49155 -4.56098 -10.6279
O 3.10752 1.41028 -6.9618
H 2.52904 1.07155 -6.21973
H 4.05265 1.12353 -6.80511
O 9.54003 -12.5692 -11.5446
H 9.82632 -12.2449 -12.4462
H 10.2749 -13.1108 -11.1364
O 2.30543 -2.0648 7.44534
H 2.21341 -1.0715 7.37503
H 3.27155 -2.3153 7.38281
O 9.10248 2.49294 9.21245
H 9.32313 3.4655 9.28665
H 9.85779 1.95075 9.58067
O -14.955 0.741169 -12.8307
H -14.6778 0.270329 -13.6682
H -14.1836 0.772714 -12.1951
O -6.09038 -12.8064 11.3883
H -6.4318 -13.7335 11.5425
H -6.67736 -12.1515 11.8644
O -8.8282 -3.20903 1.47419
H -9.61201 -2.97253 0.899943
H -8.13639 -3.67175 0.919809
O -7.4647 4.66928 6.43209
H -6.48612 4.46934 6.38252
H -7.74177 5.18182 5.61933
O 7.07351 -3.95474 -0.269507
H 7.19302 -3.00775 0.0288074
H 7.94746 -4.31383 -0.597077
O 13.0747 -12.9304 1.88064
H 12.7716 -13.879 1.97187
H 14.0599 -12.8781 2.04395
O -0.653117 11.045 10.625
H 0.105028 11.2957 11.2269
H -0.515492 11.4593 9.72529
O -12.0698 -6.22097 -5.61216
H -12.0369 -6.92027 -4.89807
H -12.7763 -6.45844 -6.27896
O -12.9847 -9.49403 9.31252
H -12.0187 -9.7011 9.46737
H -13.5505 -10.1508 9.81113
O -11.6033 -11.3426 -1.5338
H -11.9457 -11.6412 -2.42464
H -10.6034 -11.3598 -1.53819
O -11.8005 3.01501 -7.74403
H -12.2708 3.65675 -7.13821
H -12.2499 2.12286 -7.6981
O 13.5983 -3.69334 7.50447
H 12.7905 -3.91934 8.04891
H 13.6308 -4.28144 6.6963
O -11.7185 10.5558 -1.77347
H -11.0293 10.9811 -2.36019
H -11.9304 11.1673 -1.01108
O 6.41246 5.64108 7.03025
H 7.2638 5.66538 6.50615
H 5.70573 6.15314 6.542
O 13.9173 -4.83687 0.144105
H 14.1028 -5.81869 0.185126
H 13.0872 -4.67649 -0.389965
O 14.5787 14.4186 9.29448
H 14.529 -14.888 8.55902
H 14.1542 14.792 10.1194
O 0.864414 13.4378 0.234175
H 0.269194 13.2791 -0.553587
H 1.68258 13.9317 -0.0603867
O -5.61299 9.39891 -13.8207
H -5.94951 10.1221 -13.2175
H -4.74715 9.04547 -13.4666
O 8.93736 -0.16737 -3.06369
H 9.78722 -0.665577 -3.23566
H 8.20008 -0.568274 -3.60752
O -8.72884 -7.33672 -11.3613
H -9.33264 -7.03153 -12.0977
H -8.76201 -8.33397 -11.2947
O 3.92823 -5.03588 -7.83928
H 3.23 -5.14466 -8.54688
H 3.62683 -4.35075 -7.17611
O -2.76016 -9.14911 11.4522
H -1.84642 -9.11441 11.0474
H -3.07319 -10.0982 11.4877
O 5.95431 -14.3222 -10.344
H 6.6577 -13.7239 -9.96012
H 5.14592 -13.7807 -10.575
O 7.60846 -14.4153 -6.93871
H 7.46792 -13.9079 -7.78891
H 8.57866 -14.3983 -6.69687
O -2.92002 -4.25432 -5.52572
H -3.01555 -3.69599 -6.34985
H -2.55424 -5.15194 -5.77177
O -0.116953 12.5515 8.25396
H 0.534097 13.0504 8.82609
H -0.479557 13.1631 7.55072
O -8.6427 4.12662 -7.98689
H -9.63989 4.20174 -7.99159
H -8.38039 3.16582 -8.07694
O -4.13721 -2.52092 14.6829
H -4.18109 -2.34737 13.699
H -4.72153 -3.29994 14.9103
O -4.20044 -1.30307 12.2979
H -3.44531 -0.748462 11.9483
H -4.97838 -0.711421 12.5096
O 10.3649 8.9724 1.04558
H 10.5121 9.68159 1.73509
H 10.661 8.08861 1.40795
O -2.33633 -11.0176 -10.4329
H -3.25668 -11.3557 -10.2362
H -2.33915 -10.5332 -11.3077
O 11.1261 8.64845 9.27769
H 11.9849 8.31772 9.66903
H 11.3205 9.35079 8.59288
O -10.0296 9.00222 2.7266
H -9.55931 8.86059 1.85552
H -10.8142 8.38493 2.78603
O 14.367 4.08728 -3.78852
H -14.6716 4.39593 -3.90755
H 13.854 4.77432 -3.27388
O -0.620306 -6.63525 2.29048
H -1.16356 -7.15296 2.95146
H -1.19545 -6.38037 1.51312
O 4.02225 -4.81198 -11.5304
H 3.28848 -5.23132 -10.9958
H 3.70342 -3.94365 -11.9104
O 6.12477 6.83522 -12.7417
H 5.48448 6.09224 -12.5466
H 5.66136 7.54331 -13.2745
O -9.34327 -9.47581 0.656365
H -9.17911 -9.81814 -0.26879
H -8.77078 -9.97841 1.30421
O -7.34849 2.39953 -4.33671
H -8.22759 2.61127 -4.76379
H -7.4963 1.8034 -3.54752
O 7.72075 -8.35743 10.7441
H 7.99075 -7.81491 11.5396
H 6.72327 -8.37379 10.6748
O -3.71731 0.419215 -8.18932
H -4.01773 -0.445088 -7.78587
H -4.37206 1.13948 -7.96006
O -9.13859 -9.17133 -2.27181
H -8.19554 -9.10218 -1.94636
H -9.13941 -9.34779 -3.25614
O 5.63412 3.02574 8.06143
H 5.88532 3.74449 7.41308
H 6.19324 3.11055 8.8862
O -5.44681 -5.18358 -3.8897
H -4.75424 -4.78952 -4.49395
H -6.03941 -4.45644 -3.54307
O 2.11963 -7.33287 12.9497
H 1.57657 -8.09861 13.2943
H 1.73151 -7.01101 12.0861
O 8.64991 -5.73508 -13.1856
H 7.86312 -5.39088 -12.6732
H 8.41841 -6.61503 -13.6005
O -13.201 -7.09648 -2.7682
H -12.7284 -7.63894 -2.07359
H -13.3305 -7.64907 -3.59156
O 8.73593 -8.58846 -14.0116
H 7.86987 -9.0682 -13.8708
H 8.99257 -8.6402 -14.9767
O 6.50683 13.1517 -8.31903
H 7.09451 12.5109 -7.82506
H 6.81451 14.0874 -8.14603
O 3.68932 -2.40131 -4.16687
H 3.96198 -2.88204 -3.33344
H 4.32999 -2.6204 -4.90279
O 13.4408 9.38337 -10.3834
H 14.2553 9.21277 -9.82882
H 12.7593 9.86752 -9.83468
O -12.7358 1.37044 -10.947
H -12.631 0.897008 -10.0724
H -12.5124 2.33828 -10.831
O 10.1578 -8.62836 7.80697
H 10.7929 -9.1688 7.25511
H 9.27579 -9.09721 7.85499
O -10.4683 -6.35154 9.71393
H -9.80819 -6.94464 9.25295
H -11.1495 -6.91295 10.1838
O 7.51063 -7.35581 4.29097
H 7.96088 -6.64371 4.82972
H 7.53252 -7.10544 3.32304
O -2.75507 -14.1501 -9.7965
H -2.43491 -14.0413 -8.85538
H -3.34532 -13.3801 -10.0389
O -6.03552 -8.44063 -13.0769
H -6.93867 -8.86043 -13.167
H -5.85567 -8.2404 -12.1137
O 1.37413 -14.4323 -11.0412
H 2.23192 -14.9171 -10.8703
H 1.36363 -14.0951 -11.9826
O 13.9381 -1.36916 -11.6678
H 12.979 -1.30039 -11.393
H 14.1923 -0.559151 -12.1963
O 5.92481 0.490211 7.16051
H 5.8793 1.47029 7.35398
H 5.90223 0.344292 6.17145
O 10.91 3.79947 -5.23092
H 10.1502 3.81482 -4.58087
H 11.3207 4.70965 -5.28517
O -6.69216 -11.6939 -7.30479
H -7.2427 -11.4432 -6.50847
H -5.80676 -11.2315 -7.25679
O -5.86452 14.9658 7.04669
H -5.65686 -14.0962 7.37808
H -6.75348 14.9692 6.58866
O -6.37945 -14.4363 -0.903319
H -5.87028 14.6978 -0.757573
H -6.24372 -13.8276 -0.121617
O 5.94782 -10.7183 -8.43786
H 5.53441 -10.0032 -7.8742
H 6.17847 -11.5038 -7.86351
O 10.7844 -1.67768 -5.33866
H 11.5414 -2.27494 -5.07379
H 9.91653 -2.1462 -5.17309
O -8.32646 -14.9505 5.89601
H -9.28862 14.9822 6.16403
H -8.15707 14.3964 5.14269
O -2.80297 -14.67 7.76062
H -3.49354 14.9321 8.37586
H -2.40218 14.5771 7.21411
O 7.44629 14.7157 10.1819
H 7.26465 14.0311 9.47594
H 6.68505 14.7362 10.8301
O -0.11331 2.63946 -11.7834
H -0.142604 1.68042 -11.5015
H -1.0063 2.90817 -12.1445
O 2.6645 11.7251 1.67227
H 1.99795 12.2117 1.1075
H 3.54719 12.1926 1.62349
O 5.81542 -3.26022 -6.39425
H 6.35699 -3.97454 -6.83753
H 5.8505 -2.42571 -6.94416
O 9.69411 -5.16446 -5.59063
H 9.65183 -5.67677 -6.44842
H 9.42919 -5.76078 -4.83283
O -14.5728 -0.714983 14.7949
H -13.7645 -0.997662 14.2784
H 14.7948 -0.200798 14.1968
O 13.4826 -7.51105 8.54717
H 13.5535 -7.5312 9.54448
H 13.0268 -6.66774 8.26237
O 5.35018 9.45586 12.7667
H 4.97065 8.57123 13.0377
H 6.34595 9.38678 12.7057
O 9.24915 -4.11464 -2.59366
H 8.70176 -4.89803 -2.29917
H 8.89001 -3.76321 -3.45827
O -1.92635 -5.84705 -13.6442
H -1.18879 -6.51886 -13.713
H -1.66402 -5.01315 -14.1299
O 4.98739 -7.70399 7.79002
H 5.36871 -6.81558 7.53437
H 5.36861 -7.98981 8.66924
O 3.24628 -6.36389 -4.66784
H 2.36575 -6.11329 -5.07022
H 3.26433 -7.34816 -4.49194
O -5.6221 -9.02926 -8.02912
H -6.50857 -8.79382 -7.63064
H -5.70841 -9.08662 -9.02376
O -0.19244 -3.85019 -4.02051
H -0.165244 -4.56594 -4.71837
H -0.272981 -2.95671 -4.46238
O 9.65901 -1.00361 8.34528
H 10.1037 -1.5805 9.03048
H 8.7841 -0.676263 8.70223
O -13.7421 8.9021 4.30013
H -13.1852 8.14546 3.95749
H -14.6703 8.57731 4.48139
O 4.60031 -0.916024 -0.742768
H 4.63414 -1.68125 -1.38568
H 3.90197 -1.09385 -0.0493988
O -12.4877 -4.51831 -2.33204
H -11.5405 -4.41198 -2.6346
H -12.7717 -5.46943 -2.4536
O 6.66432 -11.556 6.21561
H 7.63343 -11.414 6.41745
H 6.25716 -10.6942 5.91296
O -13.2781 12.9352 -4.90637
H -12.9433 13.1651 -5.82023
H -14.2777 12.9066 -4.91502
O -2.74552 -6.39934 0.431742
H -2.70981 -6.91946 -0.421635
H -3.17575 -5.51236 0.263746
O -12.4917 -2.89922 3.122
H -12.9461 -3.55424 3.72575
H -11.5251 -2.8328 3.36946
O -11.7249 -13.7298 7.67672
H -10.878 -13.5107 8.16128
H -12.2249 -12.8861 7.48125
O 8.93826 -10.829 -7.02589
H 9.65298 -10.3408 -7.52677
H 9.29626 -11.7055 -6.70383
O -4.55309 -9.3846 9.26911
H -4.07083 -9.02805 10.0693
H -5.48091 -9.65094 9.5304
O -5.20619 -12.6956 8.39894
H -5.39594 -12.6832 9.38072
H -4.27831 -12.3608 8.23453
O -8.99061 -0.488021 14.1377
H -9.73499 -0.117391 13.5822
H -8.99614 -1.48631 14.0791
O -1.90026 -14.6407 -6.93185
H -0.950509 -14.7148 -6.62767
H -2.3184 -13.8288 -6.52435
O 14.593 -13.8597 5.01025
H 14.887 -12.9139 5.14843
H 13.5941 -13.9041 5.02755
O 13.8095 6.67704 -10.7081
H 13.6173 7.65523 -10.6291
H 14.7446 6.54665 -11.0378
O -2.17039 -8.40008 -1.72033
H -2.90796 -8.13105 -2.33973
H -1.31638 -8.48108 -2.23429
O -14.4124 8.99439 9.92003
H -14.3254 9.03991 8.92484
H -13.8563 9.71362 10.3365
O 1.61784 0.588862 4.935
H 1.99132 -0.302517 4.67808
H 0.659099 0.64165 4.65559
O -6.05163 11.5509 -11.7912
H -6.85301 11.1845 -11.3184
H -5.22206 11.2664 -11.3107
O 10.4273 14.7874 10.6247
H 10.8733 14.6535 9.73971
H 9.43879 14.8607 10.4921
O 6.0119 0.964532 -9.2445
H 5.30333 1.35983 -9.82907
H 6.01567 1.43389 -8.36147
O 5.97021 -5.00624 6.72395
H 5.5618 -5.08523 5.81455
H 5.73912 -4.11619 7.11696
O -13.4379 1.4485 2.17696
H -13.2099 0.738665 1.51051
H -14.0452 1.06806 2.8745
O -12.2342 -13.3377 -7.46857
H -11.5079 -12.8935 -6.94396
H -12.1639 -13.0687 -8.42917
O 0.984702 10.4504 6.67897
H 0.063555 10.0803 6.55841
H 0.966349 11.1708 7.37236
O -0.91619 -5.40647 12.4567
H -1.07669 -4.7431 13.1876
H -1.05037 -6.3319 12.8111
O -4.8561 6.69026 -10.4249
H -5.56453 6.00254 -10.2661
H -4.48275 6.57776 -11.3458
O 14.8054 0.630283 4.30445
H 14.0836 0.0334907 3.95403
H -14.7336 0.193059 5.08695
O 13.6311 -2.38062 -6.93537
H 14.0213 -2.6249 -6.04761
H 12.9293 -3.04753 -7.1859
O 2.29884 2.37831 12.9672
H 2.79373 2.63769 12.1378
H 2.95318 2.15577 13.6899
O -9.23203 -2.22957 -7.19527
H -8.38499 -2.09836 -7.71039
H -9.5283 -1.35452 -6.81245
O 10.8988 -9.06195 -3.06639
H 9.93731 -9.29154 -2.9154
H 11.0239 -8.75403 -4.00958
O -13.4785 -13.9421 -11.4045
H -12.8755 -14.4945 -11.98
H -14.0884 -14.5429 -10.8876
O -4.39306 -5.98936 -12.7562
H -4.75432 -6.91957 -12.8213
H -3.55559 -5.91834 -13.2981
O 9.85252 -8.62789 1.91086
H 10.5721 -9.31746 1.82852
H 10.2495 -7.71687 1.79918
O 0.870311 -13.647 -8.36096
H 0.654212 -14.0416 -7.46784
H 0.511627 -14.2392 -9.08258
O -0.106968 12.8439 -12.5727
H 0.311647 12.2204 -11.9123
H -0.514658 13.6179 -12.0881
O 8.8052 1.81786 -1.09906
H 9.66328 2.32147 -1.19975
H 8.80883 1.02734 -1.71152
O -6.62117 -12.3352 14.4438
H -6.17181 -11.6109 14.9667
H -6.92635 -13.0557 -14.9158
O 9.25451 12.2511 1.72739
H 8.63312 12.1419 0.951501
H 10.1428 11.8511 1.50186
O 0.485719 -1.88375 14.3087
H 1.41752 -2.18389 14.1045
H 0.465862 -0.886849 14.3852
O 9.43875 -4.71816 14.4297
H 8.87105 -4.72612 -14.7295
H 10.4012 -4.80286 14.6877
O 0.45025 -6.17036 -5.82149
H -0.529525 -6.2319 -6.01203
H 0.877548 -5.5425 -6.47207
O 11.1187 -7.87347 -5.46431
H 11.6068 -8.5393 -6.02866
H 10.3786 -7.46352 -5.99743
O 3.66365 -1.81687 -11.5134
H 3.99026 -1.97965 -10.5824
H 4.32719 -1.25345 -12.0057
O 14.3726 -3.50623 2.40941
H 14.1743 -3.78221 1.4689
H -14.6693 -3.75685 2.63911
O 5.96095 -10.5534 -1.05694
H 5.79556 -10.9104 -0.137566
H 5.21571 -9.93843 -1.31476
O 1.11166 9.84368 -7.10535
H 1.64763 10.6874 -7.13604
H 0.943753 9.58992 -6.15275
O -7.95175 -3.26037 -12.6982
H -8.41405 -3.9611 -12.1548
H -8.3051 -3.27696 -13.6336
O -11.6541 -3.16442 -11.8276
H -11.6488 -2.70008 -12.7133
H -10.722 -3.43641 -11.5882
O 10.4563 -11.1014 -13.6733
H 9.82683 -10.3947 -13.9963
H 10.9401 -11.4986 -14.4532
O -12.571 -1.55063 -3.80763
H -13.0886 -0.780934 -4.18146
H -12.9316 -1.78805 -2.90559
O 0.517816 6.71431 0.571808
H 0.512213 6.82617 -0.421925
H 1.23341 6.06528 0.830147
O -13.7033 9.96971 14.4328
H -14.3956 10.0318 -14.8306
H -14.0012 10.4967 13.6368
O -2.73063 2.90578 -12.5896
H -3.23135 2.13028 -12.2049
H -2.67726 2.80825 -13.5834
O 9.62873 -13.3851 12.7488
H 9.52958 -13.7374 11.8182
H 10.1461 -12.5295 12.728
O 3.36572 10.6898 -10.2293
H 4.28137 10.4486 -10.551
H 3.43542 11.1707 -9.35529
O -6.48742 -7.72965 12.3765
H -5.63234 -7.59507 12.8773
H -7.12351 -8.2579 12.939
O 0.347669 1.50099 14.9757
H 0.708355 1.68038 -14.0914
H 0.991298 1.84281 14.2909
O 8.47704 -2.91035 -4.9367
H 8.83608 -3.80869 -5.18991
H 7.67821 -2.69972 -5.50021
O 1.51745 4.45427 -12.863
H 1.42445 4.32205 -13.8499
H 0.961769 3.77609 -12.382
O -8.92607 -10.2907 -4.82171
H -9.4307 -11.0338 -5.26134
H -8.12319 -10.6629 -4.35599
O 11.5918 -2.52747 10.432
H 11.622 -3.2518 9.74316
H 10.7095 -2.55125 10.9022
O -10.7447 -2.70082 -0.326092
H -10.1788 -2.81716 -1.14239
H -11.5365 -3.30918 -0.379945
O -9.83464 -13.02 -5.81166
H -10.515 -13.444 -5.21385
H -9.02374 -13.6032 -5.86003
O -11.3976 -12.3716 -14.5241
H -11.2143 -11.6078 14.8392
H -12.1818 -12.1501 -13.9445
O 5.06518 -13.4832 -3.95727
H 5.32495 -14.3314 -4.41896
H 5.88419 -13.0331 -3.60127
O 10.8068 12.9406 -2.49452
H 11.0897 13.7682 -2.00956
H 9.96465 12.5871 -2.08736
O -14.3935 7.72788 -2.80866
H -13.9489 8.46831 -3.31276
H -14.8213 8.0965 -1.98337
O -11.5501 9.46289 10.9762
H -11.1065 9.89803 11.7597
H -10.9743 9.56946 10.1655
O -13.3197 11.8937 4.38807
H -12.5505 12.0391 3.76584
H -13.4396 10.9136 4.54654
O -9.75742 4.72946 0.59626
H -8.80244 4.74102 0.299732
H -10.3269 5.17227 -0.0963322
O 6.68073 3.28503 4.8658
H 7.45522 3.1086 5.47332
H 6.81504 2.79601 4.0039
O 8.25962 11.4099 -7.04437
H 8.7552 10.9046 -7.75083
H 8.90806 11.9355 -6.49364
O 5.65671 10.6916 -5.92725
H 6.50477 10.7729 -6.45092
H 4.88263 10.9535 -6.50363
O -13.5569 -3.75861 12.6425
H -14.507 -3.51742 12.4448
H -13.1149 -4.08451 11.8067
O 9.4894 12.5069 11.8525
H 10.0159 12.1208 12.61
H 9.7294 13.4708 11.7371
O -9.36283 -8.30992 11.6836
H -8.9298 -7.45223 11.4063
H -9.98255 -8.13809 12.4494
O 12.7375 -13.9758 11.357
H 12.6097 -13.1369 10.828
H 11.8683 -14.4664 11.419
O -6.05695 -12.7639 1.13166
H -6.63582 -12.3652 1.84297
H -5.76049 -12.0459 0.50184
O 5.31056 -8.42159 -7.18124
H 5.73652 -7.51756 -7.21787
H 4.93543 -8.57652 -6.26728
O -1.36044 10.541 2.54264
H -0.877588 11.3599 2.85299
H -0.751481 9.99186 1.97025
O 13.8584 4.24327 -9.43019
H 14.1289 4.28724 -8.46845
H 14.0033 5.13534 -9.8583
O 5.14052 -12.4363 8.78867
H 4.54 -11.7413 9.18429
H 5.44015 -12.1406 7.88156
O 4.50017 -1.93514 10.5529
H 3.55479 -2.26119 10.5533
H 5.03654 -2.46721 11.2081
O -2.52278 -14.2711 -2.26749
H -2.61765 14.8866 -2.82508
H -2.79199 -14.4727 -1.32571
O 9.68273 1.82923 3.56789
H 8.68584 1.76321 3.52435
H 10.0817 1.38118 2.76782
O -2.03478 -9.32625 -13.1229
H -1.50841 -8.67915 -13.6745
H -2.10466 -8.98538 -12.1854
O 11.488 7.4615 -6.35626
H 11.0659 7.66915 -5.47381
H 12.1976 6.768 -6.23134
O 4.3143 8.65423 -13.8415
H 3.3565 8.78642 -13.5862
H 4.37455 8.4607 -14.8208
O -6.4344 0.399598 13.6534
H -7.28363 -0.0169736 13.978
H -5.82554 0.563268 14.4297
O -8.83289 -11.5076 4.83402
H -8.29126 -11.0125 5.5134
H -9.80357 -11.4325 5.06249
O -11.9585 12.9593 8.40693
H -11.0364 12.5804 8.32817
H -12.1708 13.4926 7.5881
O -10.2939 -9.89707 9.51884
H -9.81031 -9.76365 10.384
H -9.8326 -9.38207 8.7963
O 1.0829 4.59342 14.5105
H 1.4901 4.07373 13.7594
H 0.346427 5.16976 14.1562
O -2.4301 -1.35966 7.27349
H -2.27459 -2.19093 6.73977
H -2.21029 -1.53386 8.23338
O -4.29386 -4.51413 -0.636994
H -4.31755 -3.52559 -0.487755
H -3.97779 -4.70339 -1.56669
O -8.04594 -0.697543 -11.7263
H -8.03496 -1.59001 -12.1773
H -8.96966 -0.316279 -11.7642
O -12.141 -10.9769 4.41336
H -11.9799 -9.99098 4.45977
H -11.9002 -11.3114 3.50226
O 10.4643 12.4578 -11.4211
H 9.97628 13.3306 -11.4144
H 9.84557 11.7323 -11.7227
O 6.63716 -14.0883 4.7635
H 6.38957 -13.1518 5.01201
H 5.90703 -14.7116 5.04357
O 8.35844 -8.89451 -1.70144
H 7.5609 -9.41597 -1.39804
H 8.27799 -8.70119 -2.6793
O -5.57428 -4.33628 -11.3514
H -5.0738 -5.05459 -11.8347
H -6.2296 -3.90947 -11.9746
O -7.13083 -9.89259 9.98221
H -6.79648 -9.19149 10.6121
H -7.54768 -10.6374 10.5033
O -7.85405 0.831755 -7.38874
H -8.77779 0.711986 -7.02485
H -7.19312 0.794682 -6.63918
O 11.1479 10.8336 -8.8084
H 10.5589 10.0571 -8.58447
H 10.8854 11.2051 -9.69899
O 4.24015 4.28184 4.72572
H 4.07761 5.21848 4.41534
H 5.22457 4.11168 4.77065
O -7.78729 -3.31748 10.7562
H -8.21985 -4.07124 10.2614
H -8.2133 -2.45383 10.4866
O -14.449 11.3674 -3.11467
H -14.2 11.4868 -2.15352
H -13.7753 11.8274 -3.69312
O -12.9744 -4.07222 0.734142
H -12.6573 -3.79139 1.64004
H -12.5425 -4.93869 0.483633
O -7.11141 14.0334 -12.1149
H -6.90487 14.5186 -11.2653
H -6.73617 13.1075 -12.0697
O 11.2059 -10.7297 13.6599
H 12.0664 -10.2237 13.7189
H 10.6872 -10.4136 12.8655
O 8.04811 -9.44779 -4.68454
H 8.34474 -9.96213 -5.48922
H 7.66645 -8.56943 -4.97241
O 13.8627 11.7203 2.5496
H 13.6086 11.4777 3.48593
H 14.8485 11.8815 2.50281
O 12.6607 11.4584 11.3785
H 11.9137 11.7427 11.9796
H 12.3854 11.579 10.4247
O 8.91976 11.1829 9.44004
H 8.97815 11.7571 10.2567
H 9.82843 10.832 9.2136
O -7.75399 -4.83686 6.79861
H -7.561 -4.02487 6.24773
H -6.9074 -5.34816 6.94664
O 6.40714 -14.2165 -1.02637
H 7.24764 -14.0582 -0.508146
H 6.62072 -14.2613 -2.00229
O 11.841 1.55079 9.91646
H 12.6227 1.77819 10.4972
H 12.1346 0.928174 9.19107
O -1.37538 7.98722 -4.07248
H -2.27046 7.74501 -3.69803
H -0.926806 7.16478 -4.42238
O 1.64176 -8.52429 -0.11004
H 1.6362 -9.51309 -0.259375
H 0.781915 -8.24711 0.318772
O 0.513631 -11.8052 10.0305
H 0.186719 -10.8616 10.0832
H 1.23163 -11.9477 10.7118
O 10.958 -6.00235 1.84433
H 10.321 -5.50728 2.43522
H 11.0038 -5.55233 0.952456
O 5.49551 4.09304 -14.5725
H 4.81531 3.36 -14.5674
H 6.32473 3.7751 14.9501
O -2.38144 14.8373 -14.4527
H -1.89112 -14.8028 -13.6512
H -2.77902 -14.3764 -14.9537
O 9.81255 -1.71654 5.44753
H 9.83772 -1.19335 6.29941
H 9.77832 -2.6937 5.65739
O -4.827 14.4269 9.69724
H -5.60984 14.2214 10.2846
H -5.15269 14.7271 8.80067
O 14.3951 -8.78803 1.4299
H 14.3918 -8.62039 0.444028
H -14.7554 -8.40391 1.8305
O 8.6661 10.5506 -12.0548
H 8.22533 10.5369 -12.9524
H 8.61775 9.63933 -11.6458
O 0.0174838 -4.50625 9.83979
H -0.372508 -4.88951 10.6771
H -0.444899 -4.90083 9.04571
O -3.97435 -13.3567 14.1897
H -4.66959 -12.6477 14.308
H -3.64867 -13.3497 13.2442
O -13.5172 -7.59773 2.57813
H -13.8969 -6.85951 3.13572
H -12.7682 -8.03799 3.07327
O -10.6108 7.86607 -6.17854
H -11.1441 8.6327 -6.53611
H -10.5049 7.96638 -5.18921
O 0.0244186 -7.82945 -14.0786
H 0.524023 -8.43253 -14.7004
H 0.337788 -7.98345 -13.1415
O -3.3751 9.5064 4.24364
H -2.74116 9.86255 3.55711
H -3.61873 8.56379 4.01521
O -10.5262 2.24597 -1.48571
H -11.3391 1.74945 -1.18139
H -10.3111 2.96815 -0.828245
O 8.29583 4.39913 -9.44443
H 8.11682 3.72366 -10.1598
H 7.45544 4.90255 -9.24352
O -11.3212 -4.12639 14.5363
H -10.5947 -3.44099 14.5866
H -12.0205 -3.824 13.8885
O -1.28187 -11.4877 12.9598
H -2.1323 -11.5701 12.4402
H -0.674858 -12.248 12.7284
O -4.93385 2.42828 -6.88342
H -4.71833 3.34524 -7.21927
H -4.68962 2.36171 -5.91596
O 7.41259 -13.4739 2.10395
H 6.62554 -12.9569 1.76732
H 7.1887 -13.8837 2.98825
O -12.2458 -1.08138 13.566
H -11.8627 -0.431543 12.9095
H -12.5465 -1.90422 13.0838
O -6.60675 -8.80474 -1.44261
H -5.7643 -8.86804 -1.97769
H -6.37958 -8.68065 -0.476666
O -0.957466 -10.1529 2.5803
H -1.27598 -10.1536 3.52824
H -0.0299338 -9.78126 2.54056
O 8.07245 -6.32017 12.8296
H 7.27756 -6.77206 13.2346
H 8.44755 -5.65955 13.48
O -4.80312 -10.4937 -14.4871
H -3.81956 -10.4101 -14.3269
H -5.28438 -9.77164 -13.9901
O -9.71581 12.4433 -5.54418
H -9.81123 12.552 -4.55467
H -9.66423 13.3443 -5.97502
O 0.685824 -9.28858 13.7707
H -0.157921 -9.75981 13.5137
H 1.29058 -9.92516 14.2494
O -5.80492 10.789 4.29843
H -4.8691 10.5241 4.53107
H -6.44429 10.1173 4.67286
O 2.78036 14.7981 13.4732
H 3.65816 14.3683 13.6848
H 2.03621 14.2084 13.7869
O -13.7175 -11.6375 -13.1243
H -13.9763 -12.4731 -12.6396
H -14.0457 -10.8417 -12.6154
O -9.47744 3.82632 -12.1653
H -10.032 3.38749 -12.8723
H -9.02565 3.12547 -11.6132
O -0.856281 -11.7197 -14.2207
H -1.34935 -11.7589 14.8926
H -1.01693 -10.8335 -13.7861
O -5.83459 1.16983 -0.24147
H -5.28497 0.442886 -0.65319
H -6.39475 0.788366 0.493889
O 11.5036 1.33037 5.4141
H 12.0229 0.480675 5.3227
H 10.7689 1.34656 4.73588
O -10.2701 0.606128 -12.5579
H -10.4565 1.4338 -13.0873
H -11.0369 0.424544 -11.9422
O -0.0402564 6.5795 -11.8062
H 0.800615 6.09673 -12.051
H -0.657993 6.59269 -12.5926
O -13.3264 5.36186 -4.29436
H -12.3739 5.42095 -3.99555
H -13.8359 6.1464 -3.94089
O 10.4687 5.86786 -10.2238
H 9.82347 5.16733 -9.91894
H 11.3858 5.47335 -10.2827
O -11.4416 5.51884 -1.17565
H -12.0846 4.80692 -0.893346
H -11.7833 6.41185 -0.882708
O 1.34442 -0.444713 -9.02759
H 0.413382 -0.309562 -8.68855
H 1.91794 -0.805388 -8.29204
O 0.264971 -6.62992 7.52624
H 1.03918 -7.262 7.49283
H -0.573132 -7.13943 7.72127
O 5.09222 13.5474 0.342043
H 4.37497 13.3654 -0.330616
H 5.64545 14.3229 0.0378053
O -13.2984 6.92003 11.8376
H -13.7545 7.666 11.3522
H -12.8005 7.28847 12.6226
O 13.0907 -12.8299 -1.4804
H 12.3768 -13.5302 -1.48048
H 13.1462 -12.4106 -0.57425
O -6.60697 -6.35372 -9.59037
H -7.55661 -6.49903 -9.31263
H -6.57385 -5.6704 -10.3198
O -12.4807 0.666752 -0.962377
H -13.1364 1.08179 -1.59313
H -12.8895 -0.143268 -0.541919
O 13.4232 -9.22771 13.8554
H 14.1331 -9.92045 13.9825
H 13.0677 -8.94728 14.7471
O 3.89187 1.85894 3.47644
H 4.03188 2.64391 4.07999
H 2.97302 1.49012 3.61699
O -7.71706 -14.8788 -4.81403
H -7.3293 -14.7777 -5.73026
H -7.32972 14.2925 -4.3758
O -1.33896 -10.9711 -5.02715
H -2.33869 -10.9682 -5.00303
H -1.02767 -10.8091 -5.96358
O 0.0593986 6.98988 12.0022
H -0.733301 6.48057 12.3373
H -0.251139 7.78971 11.4885
O -10.7137 0.645296 12.1661
H -9.85217 0.634315 11.6585
H -11.3542 1.27197 11.7221
O -1.46471 -1.71844 9.77767
H -0.685991 -2.25071 10.1098
H -1.30331 -0.747094 9.95228
O 13.1212 -7.75655 11.2853
H 13.0925 -8.12223 12.2156
H 12.198 -7.49911 10.9997
O 14.4373 5.34849 13.312
H 14.0119 6.15337 13.7257
H -14.5648 5.51071 13.1987
O -13.1071 8.7553 7.01286
H -13.3367 9.1618 6.12851
H -13.0139 7.76492 6.91033
O -9.29848 1.72638 6.86143
H -10.2838 1.55985 6.82322
H -9.11556 2.50923 7.45619
O 7.86361 -12.7287 -9.27751
H 8.52982 -12.9477 -9.99043
H 8.14437 -11.8937 -8.80409
O -8.42023 -8.17206 -6.85544
H -8.37274 -8.93108 -6.20607
H -8.34766 -7.30565 -6.36135
O 4.01811 -5.73269 14.0408
H 3.3346 -6.38954 13.7223
H 4.42748 -6.06349 14.8911
O 11.6011 8.63886 -3.61786
H 10.6626 8.79024 -3.92852
H 12.1903 9.36585 -3.97051
O -7.29598 8.63362 -6.45998
H -8.21706 8.38442 -6.16072
H -7.30703 8.83615 -7.43922
O -9.61078 -7.27438 2.16761
H -9.59188 -8.06749 1.55879
H -10.3124 -6.63281 1.85755
O -4.25034 -11.6461 -5.02984
H -4.15453 -11.4701 -4.0501
H -4.4582 -12.6133 -5.17595
O -2.69351 -9.80328 0.563246
H -2.02521 -9.76995 1.30642
H -2.37743 -9.23311 -0.195076
O -13.8539 -0.93823 6.32698
H -13.4025 -1.52476 5.65443
H -13.778 -1.35189 7.23427
O -11.0089 -6.03285 -8.32728
H -10.7424 -5.70661 -7.42029
H -11.7625 -5.4745 -8.67423
O 7.83002 0.585913 -11.4822
H 8.49349 -0.124225 -11.7179
H 7.65841 0.568053 -10.4972
O -4.75796 6.78967 6.53643
H -4.24748 7.10638 7.33591
H -4.64675 5.80051 6.44033
O -4.72826 13.5222 5.01231
H -5.186 13.9828 5.77279
H -5.29295 12.7599 4.69582
O 11.8578 9.52252 -1.04234
H 10.9619 9.42446 -0.608898
H 11.8361 9.1047 -1.95063
O 8.23947 10.0988 12.7949
H 9.08304 9.56192 12.7827
H 8.34306 10.8959 12.2
O -9.19779 12.0169 8.29486
H -8.61978 12.5575 7.68352
H -9.11431 11.0479 8.06219
O -4.27861 2.89306 3.89224
H -5.1132 3.11479 3.38793
H -4.25603 1.91195 4.08447
O 6.16897 6.05915 -7.95576
H 6.80366 6.81304 -7.78583
H 5.29698 6.42457 -8.28155
O -5.86557 0.100112 9.77802
H -6.1254 -0.137074 8.84192
H -6.64941 -0.0312953 10.385
O 9.32034 6.72678 13.4374
H 9.88131 7.36383 12.9086
H 8.57931 6.37922 12.8628
O -6.63723 12.9073 -3.63261
H -6.15052 12.6384 -2.80141
H -6.61555 12.154 -4.28997
O -11.8509 -6.55068 0.369348
H -12.7163 -6.82973 0.785588
H -11.5235 -7.27556 -0.236794
O -9.59408 -12.5393 9.05958
H -8.99302 -12.8963 9.77467
H -9.75116 -11.5636 9.21251
O 7.03123 12.9408 7.97826
H 7.58604 12.2369 8.42181
H 7.56145 13.3723 7.2484
O -1.65173 11.8101 -6.32347
H -1.45459 12.2595 -7.19485
H -2.45221 11.2197 -6.42652
O 0.409678 -3.90449 6.28563
H 1.01731 -3.16622 6.57852
H 0.801361 -4.78471 6.55368
O 5.04892 6.75278 0.267409
H 5.51788 7.41864 0.84771
H 4.32357 6.30634 0.791444
O 3.44104 10.3269 8.38967
H 3.66654 9.78698 9.20065
H 2.73856 9.85311 7.85855
O -9.36575 -4.17572 8.85578
H -8.82435 -4.44486 8.05923
H -9.73075 -4.99274 9.30222
O -1.84343 -3.02947 -8.07854
H -2.52014 -3.25425 -8.77968
H -1.43118 -2.14219 -8.28548