LAMMPS data file via write_data, version 15 May 2015, timestep = 23005000

2611 atoms
6 atom types
1749 bonds
4 bond types
894 angles
3 angle types
44 dihedrals
3 dihedral types
10 impropers
1 improper types

-1.5006867882039931e+01 1.5006867882039931e+01 xlo xhi
-1.5006867882039931e+01 1.5006867882039931e+01 ylo yhi
-1.5006867882039931e+01 1.5006867882039931e+01 zlo zhi

Masses

1 15.9994
2 1.00794
3 12.0107
4 1.00794
5 12.0107
6 12.0107

Bond Coeffs # harmonic

1 1000 1
2 469 1.4
3 367 1.08
4 469 0.7

Angle Coeffs # harmonic

1 100 109.47
2 35 120
3 63 120

Dihedral Coeffs # opls

1 0 7.25 0 0
2 0 7.25 0 0
3 0 7.25 0 0

Improper Coeffs # cvff

1 2.5 -1 2

Atoms # full

305 102 2 4.0999999999999998e-01 -9.4689388516526520e+00 -1.1018336886747424e+01 -1.4368918567773378e+01 4 0 -1
227 76 2 4.0999999999999998e-01 -9.8629619335097019e+00 -8.9312656249234550e+00 -1.0127168306254147e+01 -1 0 -1
226 76 1 -8.1999999999999995e-01 -9.6508508992045616e+00 -9.5533817867973312e+00 -1.0880820056964254e+01 -1 0 -1
228 76 2 4.0999999999999998e-01 -1.0314473382387986e+01 -9.4230427484141970e+00 -1.1617452608658077e+01 -1 0 -1
304 102 1 -8.1999999999999995e-01 -1.0263650755007777e+01 -1.1281928816797752e+01 -1.4915693403973599e+01 4 0 -1
1630 544 1 -8.1999999999999995e-01 -1.2643063640167865e+01 -5.0792202052872746e+00 -7.6183622934425603e+00 6 4 -1
970 324 1 -8.1999999999999995e-01 -1.0213297585806627e+01 -7.4990840945979453e+00 -9.0452512800886389e+00 8 1 -3
2154 718 2 4.0999999999999998e-01 -1.2819563736784909e+01 -9.8388119648051813e+00 -1.2653920359738631e+01 4 -3 2
2519 840 2 4.0999999999999998e-01 -1.2369799583252320e+01 -1.0347670345237631e+01 -1.0109202110352536e+01 3 0 3
1131 377 2 4.0999999999999998e-01 -1.4402285170129106e+01 -6.4128806643749581e+00 -1.2632182564389682e+01 3 -1 -1
2520 840 2 4.0999999999999998e-01 -1.2205856597892000e+01 -1.0196149204017487e+01 -8.4915438272264687e+00 3 0 3
929 310 2 4.0999999999999998e-01 -8.0848821100030577e+00 -1.3339020211231325e+01 -1.4401050450214330e+01 8 -1 -2
2338 780 1 -8.1999999999999995e-01 -8.7822406234674162e+00 -6.7032934707288945e+00 -1.1842552845083446e+01 1 0 -6
777 259 2 4.0999999999999998e-01 -1.2852833841789458e+01 -1.4002171913469823e+01 -9.2541931570884071e+00 4 5 1
1090 364 1 -8.1999999999999995e-01 -1.3550781930054049e+01 -1.3213839194964436e+01 -1.2057285408204393e+01 4 2 -1
2450 817 2 4.0999999999999998e-01 -1.2537167095615946e+01 -6.3222760853620343e+00 -1.0512830960467372e+01 2 -1 -6
2529 843 2 4.0999999999999998e-01 -9.6112226140103854e+00 -1.4351373727041292e+01 -1.4711652004497633e+01 6 6 -3
2379 793 2 4.0999999999999998e-01 -9.4976489452883612e+00 -1.4835846810106663e+01 -8.6496485681808402e+00 -2 -2 -2
885 295 2 4.0999999999999998e-01 -9.4216517868353833e+00 -1.4334656335300503e+01 -1.2222899980156297e+01 1 6 3
306 102 2 4.0999999999999998e-01 -1.1100619917983069e+01 -1.1021858544779647e+01 -1.4434178512000516e+01 4 0 -1
928 310 1 -8.1999999999999995e-01 -8.4522291846871802e+00 -1.3368090241138601e+01 -1.3471415277792827e+01 8 -1 -2
2449 817 1 -8.1999999999999995e-01 -1.3119394413164599e+01 -6.7478907761838016e+00 -9.8201016094911751e+00 2 -1 -6
2518 840 1 -8.1999999999999995e-01 -1.2844180468488322e+01 -1.0409809382597077e+01 -9.2310723163183397e+00 3 0 3
775 259 1 -8.1999999999999995e-01 -1.3124030775124343e+01 -1.3739610394159284e+01 -8.3281671897202934e+00 4 5 1
972 324 2 4.0999999999999998e-01 -1.1145697946018398e+01 -7.1416498463764544e+00 -9.0989239707977774e+00 8 1 -3
2488 830 1 -8.1999999999999995e-01 -9.8060076725076364e+00 -1.3094129269367109e+01 -7.8733022899233971e+00 8 -2 -2
2153 718 2 4.0999999999999998e-01 -1.2064853102371131e+01 -8.3906945632629686e+00 -1.2658627227505786e+01 4 -3 2
2152 718 1 -8.1999999999999995e-01 -1.1933502793621930e+01 -9.3800834949552794e+00 -1.2720813104040136e+01 4 -3 2
776 259 2 4.0999999999999998e-01 -1.3473789719264163e+01 -1.2802800183718075e+01 -8.3362740369344621e+00 4 5 1
2340 780 2 4.0999999999999998e-01 -8.9096615693352597e+00 -7.5745322253622263e+00 -1.1368509223065036e+01 1 0 -6
1091 364 2 4.0999999999999998e-01 -1.2740669998984746e+01 -1.3575465063669766e+01 -1.1595814041737111e+01 4 2 -1
1116 372 2 4.0999999999999998e-01 -8.7816383616225622e+00 -1.0177707567613801e+01 -1.2211587279733038e+01 3 -3 -6
930 310 2 4.0999999999999998e-01 -8.7464229047511708e+00 -1.2451551118399443e+01 -1.3200460326538655e+01 8 -1 -2
585 195 2 4.0999999999999998e-01 -1.0720685117677199e+01 -6.3890839984014463e+00 -1.1841539505615922e+01 5 1 3
971 324 2 4.0999999999999998e-01 -9.9480994179534132e+00 -7.5957605642260120e+00 -8.0859107503350067e+00 8 1 -3
583 195 1 -8.1999999999999995e-01 -1.1694654293500127e+01 -6.3515781781302021e+00 -1.2065118998000626e+01 5 1 3
965 322 2 4.0999999999999998e-01 -1.4879274168377792e+01 -1.0176376236211098e+01 -1.4256577254152885e+01 5 4 -3
981 327 2 4.0999999999999998e-01 -1.4507482042439737e+01 -1.0521921917052930e+01 -9.3438915779828093e+00 0 2 1
1443 481 2 4.0999999999999998e-01 -7.9946286762605530e+00 -6.3989978516126396e+00 -9.8025038997241136e+00 7 5 -9
2451 817 2 4.0999999999999998e-01 -1.3937778941999095e+01 -7.1218000675841298e+00 -1.0256506356994542e+01 2 -1 -6
456 152 2 4.0999999999999998e-01 -1.4044349462719682e+01 -1.1524912586520809e+01 -1.2066600646993846e+01 5 -2 1
454 152 1 -8.1999999999999995e-01 -1.4322448284679133e+01 -1.0592305021502982e+01 -1.2296632392033935e+01 5 -2 1
1442 481 2 4.0999999999999998e-01 -7.8807448617516096e+00 -6.8182230270636044e+00 -8.2283581017078404e+00 7 5 -9
584 195 2 4.0999999999999998e-01 -1.1836651302953815e+01 -5.7262561273619781e+00 -1.2832464828956789e+01 5 1 3
2527 843 1 -8.1999999999999995e-01 -1.0557382463038131e+01 -1.4648061441960914e+01 -1.4841144757827395e+01 6 6 -3
1092 364 2 4.0999999999999998e-01 -1.3428903751280963e+01 -1.3282640081249550e+01 -1.3047448333057698e+01 4 2 -1
1114 372 1 -8.1999999999999995e-01 -8.4796244604711752e+00 -1.0724896974204919e+01 -1.2992216443865473e+01 3 -3 -6
2354 785 2 4.0999999999999998e-01 -1.2370169790129694e+01 -1.3769187938317446e+01 -1.4911264927782868e+01 3 6 1
2339 780 2 4.0999999999999998e-01 -8.1923144222466213e+00 -6.8399952289520538e+00 -1.2638360702302986e+01 1 0 -6
2353 785 1 -8.1999999999999995e-01 -1.3297016670700767e+01 -1.3439231242300732e+01 -1.4732117315254895e+01 3 6 1
818 273 2 4.0999999999999998e-01 -1.4854951824040219e+01 -6.8772578313647657e+00 -8.0103877547660716e+00 -1 0 -5
1441 481 1 -8.1999999999999995e-01 -7.5171751840500143e+00 -6.2198048710612266e+00 -8.9423071418930391e+00 7 5 -9
2489 830 2 4.0999999999999998e-01 -9.0478705271912201e+00 -1.2484047676725861e+01 -8.1036041563534944e+00 8 -2 -2
1632 544 2 4.0999999999999998e-01 -1.2707662711335916e+01 -5.4808943656557041e+00 -8.5318694653966247e+00 6 4 -1
1130 377 2 4.0999999999999998e-01 -1.4856386255006239e+01 -5.0771662977782324e+00 -1.3454565479304483e+01 3 -1 -1
1129 377 1 -8.1999999999999995e-01 -1.4948845490150578e+01 -6.0712072647046558e+00 -1.3396735732852905e+01 3 -1 -1
21 7 2 4.0999999999999998e-01 -1.1642332758241887e+01 -5.3550100379908585e+00 -1.5000373416687044e+01 9 1 -3
608 203 2 4.0999999999999998e-01 -4.3159516565324303e+00 -1.1749313615352571e+01 -8.1408709817677511e+00 1 -2 1
393 131 2 4.0999999999999998e-01 -7.1050831583614409e+00 -1.4193368306856247e+01 -1.2787021914030003e+01 3 3 -2
2229 743 2 4.0999999999999998e-01 -2.3509347665922871e+00 -1.2083870430986233e+01 -1.4882751154767622e+01 0 0 -1
391 131 1 -8.1999999999999995e-01 -6.5836141985876626e+00 -1.4853671827521804e+01 -1.2246577794074597e+01 3 3 -2
1115 372 2 4.0999999999999998e-01 -7.4920416715638654e+00 -1.0620904695597716e+01 -1.3110014250077169e+01 3 -3 -6
234 78 2 4.0999999999999998e-01 -7.9842671243655161e-01 -1.4507195169248110e+01 -1.3082710688370495e+01 2 -3 0
2227 743 1 -8.1999999999999995e-01 -2.7373790144457359e+00 -1.2275115104187972e+01 -1.3980477988093554e+01 0 0 -1
2022 674 2 4.0999999999999998e-01 -2.5704376223834355e+00 -6.2823220890480513e+00 -1.3354587046851808e+01 -1 1 -3
86 29 2 4.0999999999999998e-01 -1.8733541200374191e+00 -5.5688366328619257e+00 -9.2964737641157775e+00 0 1 -4
233 78 2 4.0999999999999998e-01 -1.9047599463168456e+00 -1.3307667379194097e+01 -1.3020950571010030e+01 2 -3 0
2020 674 1 -8.1999999999999995e-01 -1.7133680564512392e+00 -6.2581630480706103e+00 -1.3869231126793920e+01 -1 1 -3
420 140 2 4.0999999999999998e-01 -3.7540675159844046e+00 -1.3237592103732613e+01 -1.0484745508514422e+01 4 6 7
833 278 2 4.0999999999999998e-01 -4.5304242950731890e+00 -5.5155873512504314e+00 -1.2125632454317676e+01 3 -4 0
832 278 1 -8.1999999999999995e-01 -3.9475585443138819e+00 -6.3258332690720618e+00 -1.2187110421510972e+01 3 -4 0
348 116 2 4.0999999999999998e-01 -1.1429025523211980e+00 -1.1545671925636720e+01 -9.3582945676371487e+00 3 -1 -4
954 318 2 4.0999999999999998e-01 -4.3642706399276499e-01 -8.7950544493100793e+00 -1.0755615215778263e+01 5 1 3
2021 674 2 4.0999999999999998e-01 -1.5912180675089793e+00 -7.1241700408762680e+00 -1.4354124622229945e+01 -1 1 -3
2420 807 2 4.0999999999999998e-01 -1.3089759790197864e+00 -1.4277210278462654e+01 -1.0541678506678847e+01 3 2 -5
87 29 2 4.0999999999999998e-01 -2.3105915033169033e+00 -7.0301292696308604e+00 -8.7132914172144194e+00 0 1 -4
2265 755 2 4.0999999999999998e-01 -4.7341874840182658e+00 -1.0445304896361291e+01 -9.9769605724253516e+00 3 1 -2
347 116 2 4.0999999999999998e-01 -1.4294121767928392e+00 -1.1959868615330272e+01 -1.0911680461843373e+01 3 -1 -4
392 131 2 4.0999999999999998e-01 -5.8801961388696835e+00 -1.4373790013739569e+01 -1.1722243030535253e+01 3 3 -2
2228 743 2 4.0999999999999998e-01 -3.6725314986418489e+00 -1.1923525193155115e+01 -1.3937063139533343e+01 0 0 -1
1991 664 2 4.0999999999999998e-01 -3.0699811831255630e-01 -8.0393040012453927e+00 -8.5329318287662819e+00 9 2 2
232 78 1 -8.1999999999999995e-01 -1.4553938954265178e+00 -1.4031701063233943e+01 -1.2497638123992845e+01 2 -3 0
873 291 2 4.0999999999999998e-01 -4.2908800688599378e+00 -5.6251177815670257e+00 -9.2826896264574046e+00 3 2 6
346 116 1 -8.1999999999999995e-01 -1.7919927287076849e+00 -1.1983999988395398e+01 -9.9800348898240703e+00 3 -1 -4
418 140 1 -8.1999999999999995e-01 -4.6641861360969763e+00 -1.3298221408741526e+01 -1.0894646232153104e+01 4 6 7
1649 550 2 4.0999999999999998e-01 -6.4287567402897778e+00 -5.6803009264474902e+00 -1.3376833076521375e+01 4 -3 -11
1709 570 2 4.0999999999999998e-01 -3.8533853597894989e+00 -1.4597724100367804e+01 -1.4562406865799469e+01 -1 -2 -8
362 121 2 4.0999999999999998e-01 -2.3704020835956552e+00 -1.3155923219203853e+01 -8.7614464907100729e+00 4 4 2
363 121 2 4.0999999999999998e-01 -3.3612216935308084e+00 -1.4067460516095537e+01 -7.8373087545374176e+00 4 4 2
609 203 2 4.0999999999999998e-01 -5.9370355476564427e+00 -1.1898010182219512e+01 -8.2698306834040594e+00 1 -2 1
2263 755 1 -8.1999999999999995e-01 -4.2265594123905128e+00 -1.0143168817212619e+01 -1.0783829828662736e+01 3 1 -2
140 47 2 4.0999999999999998e-01 -1.1513210411227579e+00 -8.6509580986706904e+00 -1.2995069071519403e+01 4 3 5
419 140 2 4.0999999999999998e-01 -5.3172050336154655e+00 -1.2790108215459108e+01 -1.0333043415815194e+01 4 6 7
834 278 2 4.0999999999999998e-01 -3.4048282587368668e+00 -6.4101939301555060e+00 -1.1351444459774140e+01 3 -4 0
1990 664 1 -8.1999999999999995e-01 -9.2415566751263256e-01 -7.9195651786626682e+00 -7.7552496065141447e+00 9 2 2
2264 755 2 4.0999999999999998e-01 -3.3063531491649858e+00 -1.0534133183263027e+01 -1.0764394979360976e+01 3 1 -2
141 47 2 4.0999999999999998e-01 -2.5581606349115713e+00 -8.8382483153541802e+00 -1.2187369117181788e+01 4 3 5
872 291 2 4.0999999999999998e-01 -5.8697323411871647e+00 -5.2259102091457539e+00 -9.1622190897782758e+00 3 2 6
139 47 1 -8.1999999999999995e-01 -1.5627984885111399e+00 -8.8055320347956290e+00 -1.2096846549288443e+01 4 3 5
85 29 1 -8.1999999999999995e-01 -2.4362956802701259e+00 -6.3786935652178620e+00 -9.4615162742164074e+00 0 1 -4
607 203 1 -8.1999999999999995e-01 -5.0887903696234194e+00 -1.1740300448087886e+01 -8.7754176868297442e+00 1 -2 1
361 121 1 -8.1999999999999995e-01 -2.7530176911031408e+00 -1.3273711142309478e+01 -7.8450722325160767e+00 4 4 2
1652 551 2 4.0999999999999998e-01 -5.1308969191106559e+00 -9.4043287961454034e+00 -1.2048134463595350e+01 4 -5 -1
1651 551 1 -8.1999999999999995e-01 -5.9162871277558491e+00 -9.1517275503020272e+00 -1.2613258609956734e+01 4 -5 -1
1653 551 2 4.0999999999999998e-01 -5.7081763664429115e+00 -8.3137501437777566e+00 -1.3117732996981864e+01 4 -5 -1
1648 550 1 -8.1999999999999995e-01 -6.5725897931050916e+00 -6.4164337735048775e+00 -1.4038218675343646e+01 4 -3 -11
1345 449 1 -8.1999999999999995e-01 -4.6524981873474047e-01 -8.7273784499698621e+00 -1.4591717176550434e+01 5 3 1
2419 807 1 -8.1999999999999995e-01 -1.2444085726293341e+00 -1.4899405255698284e+01 -9.7614765712823370e+00 3 2 -5
1650 550 2 4.0999999999999998e-01 -6.5645982574647412e+00 -6.0388601798467310e+00 -1.4964169417318260e+01 4 -3 -11
1981 661 1 -8.1999999999999995e-01 -8.9392470770834755e+00 -1.0764801056923343e+01 -1.5525197345348012e+00 0 -1 0
1983 661 2 4.0999999999999998e-01 -9.4930350161737422e+00 -1.0043757819894445e+01 -1.1360752709381057e+00 0 -1 0
1982 661 2 4.0999999999999998e-01 -8.0837932996387138e+00 -1.0373867737893221e+01 -1.8921966364930167e+00 0 -1 0
758 253 2 4.0999999999999998e-01 -7.5850993753591451e+00 -1.3987633720412591e+01 -3.5255017899112620e+00 -2 0 -6
1154 385 2 4.0999999999999998e-01 -1.3366615152553344e+01 -1.3420224406929874e+01 -5.8605725691118753e+00 5 0 -2
1832 611 2 4.0999999999999998e-01 -1.0547433527696263e+01 -1.2009681176802419e+01 -4.6966588853087021e+00 3 0 1
1155 385 2 4.0999999999999998e-01 -1.4525691957162937e+01 -1.2623638435120455e+01 -5.0307255001935776e+00 5 0 -2
1831 611 1 -8.1999999999999995e-01 -1.0369266249428415e+01 -1.2937529810295798e+01 -5.0243231159280857e+00 3 0 1
1153 385 1 -8.1999999999999995e-01 -1.3769950630255163e+01 -1.2523582239494022e+01 -5.6779150283626016e+00 5 0 -2
2401 801 1 -8.1999999999999995e-01 -1.1917216406929372e+01 -1.0106562070316825e+01 -9.0331738029160746e-01 6 -3 -2
1833 611 2 4.0999999999999998e-01 -9.7109078740446773e+00 -1.3384279986870059e+01 -4.4185269663446842e+00 3 0 1
757 253 1 -8.1999999999999995e-01 -8.5268782892897299e+00 -1.4293721898761868e+01 -3.6646884723610107e+00 -2 0 -6
890 297 2 4.0999999999999998e-01 -1.3370346384402374e+01 -1.3425744734608251e+01 -1.4062723757703903e+00 3 1 0
889 297 1 -8.1999999999999995e-01 -1.3397204534443995e+01 -1.4279072176048929e+01 -8.8557922439532710e-01 3 1 0
984 328 2 4.0999999999999998e-01 -7.7513328592651991e+00 -6.5882991440024270e+00 -2.1207948996266595e+00 8 1 0
2455 819 1 -8.1999999999999995e-01 -1.2166656988541318e+01 -1.4885027371853610e+01 -6.0131138591693514e+00 7 4 -2
759 253 2 4.0999999999999998e-01 -9.0104990424375302e+00 -1.4292678449641272e+01 -2.7894054781950999e+00 -2 0 -6
2457 819 2 4.0999999999999998e-01 -1.1369576422671861e+01 -1.4473163591210257e+01 -5.5714791402911459e+00 7 4 -2
2403 801 2 4.0999999999999998e-01 -1.2807772066706121e+01 -9.8888294580496066e+00 -5.0392585899360931e-01 6 -3 -2
2490 830 2 4.0999999999999998e-01 -9.9861900474418874e+00 -1.3045700821746916e+01 -6.8908566514133529e+00 8 -2 -2
1200 400 2 4.0999999999999998e-01 -1.2909758985601350e+01 -1.0816797531276947e+01 -5.8693779345578747e+00 4 4 2
450 150 2 4.0999999999999998e-01 -1.4439549097443070e+01 -8.5224549240714822e+00 -4.1695593304639225e+00 10 -1 1
421 141 1 -8.1999999999999995e-01 -1.3452865079419897e+01 -1.1750236593072175e+01 -2.2302192235822051e+00 7 1 1
2272 758 1 -8.1999999999999995e-01 -8.2255855601521191e+00 -5.4291227406455747e+00 -4.9890144874278626e+00 0 1 -1
423 141 2 4.0999999999999998e-01 -1.2698637138517737e+01 -1.1300157323662143e+01 -1.7521195040031952e+00 7 1 1
1499 500 2 4.0999999999999998e-01 -8.8042871995437615e+00 -6.8541221999634114e+00 -5.7992272626965544e+00 2 4 -4
1724 575 2 4.0999999999999998e-01 -1.3981723309550013e+01 -6.7447380509192847e+00 -2.6039952126910926e+00 2 3 4
1498 500 1 -8.1999999999999995e-01 -8.9490242474002137e+00 -7.6915718168169986e+00 -6.3262376633791373e+00 2 4 -4
1162 388 1 -8.1999999999999995e-01 -1.0425154012181807e+01 -1.0208686898469605e+01 -3.9228557842253995e+00 0 8 -1
1164 388 2 4.0999999999999998e-01 -1.0845361904875196e+01 -1.0138235790118014e+01 -3.0181611358692209e+00 0 8 -1
1163 388 2 4.0999999999999998e-01 -9.5356858327430345e+00 -1.0658683614428707e+01 -3.8431077747142055e+00 0 8 -1
1725 575 2 4.0999999999999998e-01 -1.3325703957754660e+01 -5.4933634430063467e+00 -3.4227471331810566e+00 2 3 4
1199 400 2 4.0999999999999998e-01 -1.1752437031268494e+01 -9.6988220888522818e+00 -5.5911854069064457e+00 4 4 2
2331 777 2 4.0999999999999998e-01 -8.8281231593867133e+00 -7.6838729107288959e+00 -4.7803217289187394e-01 9 6 1
1198 400 1 -8.1999999999999995e-01 -1.2582200381366144e+01 -9.9032523186303472e+00 -6.1105229667911907e+00 4 4 2
1723 575 1 -8.1999999999999995e-01 -1.3689922739674074e+01 -5.7903923290375534e+00 -2.5400642132071276e+00 2 3 4
2456 819 2 4.0999999999999998e-01 -1.2191460620694805e+01 -1.4614384748858683e+01 -6.9754795751138481e+00 7 4 -2
422 141 2 4.0999999999999998e-01 -1.3593326556384900e+01 -1.1312218705976061e+01 -3.1181501480667251e+00 7 1 1
1825 609 1 -8.1999999999999995e-01 -9.3744321212934310e+00 -6.2602349005847522e+00 -1.5342502624139165e+00 5 -8 -3
702 234 2 4.0999999999999998e-01 -1.4234143009824374e+01 -9.1040435837778411e+00 -6.5082924331967931e+00 1 3 2
235 79 1 -8.1999999999999995e-01 -1.0031688130801367e+01 -1.4454412318154917e+01 -1.2432539338974653e+00 1 2 -3
1500 500 2 4.0999999999999998e-01 -9.0834972964611236e+00 -8.4600409506610177e+00 -5.7006318411135748e+00 2 4 -4
236 79 2 4.0999999999999998e-01 -9.2664805534892452e+00 -1.3928705131628387e+01 -8.7163612009106650e-01 1 2 -3
1826 609 2 4.0999999999999998e-01 -1.0263199671158974e+01 -5.8863848202047748e+00 -1.7994648970890701e+00 5 -8 -3
1530 510 2 4.0999999999999998e-01 -1.4560796587723351e+01 -8.5925160962956824e+00 -1.1883581372012131e+00 7 1 -5
448 150 1 -8.1999999999999995e-01 -1.4699600198058182e+01 -8.1521512878037878e+00 -3.2777863031322312e+00 10 -1 1
1827 609 2 4.0999999999999998e-01 -8.8814004377342961e+00 -5.5879487439203714e+00 -9.8201701255015550e-01 5 -8 -3
1546 516 1 -8.1999999999999995e-01 -7.6794605508501830e+00 -1.3369709911870590e+01 -3.4311264164246325e-01 5 1 1
1528 510 1 -8.1999999999999995e-01 -1.4474735776140271e+01 -8.9864955318796831e+00 -2.7327111071673826e-01 7 1 -5
2346 782 2 4.0999999999999998e-01 -1.4858554923702531e+01 -1.4561157377287723e+01 -6.9990036682341383e-02 6 1 -2
2402 801 2 4.0999999999999998e-01 -1.1242075454853914e+01 -1.0214583323629128e+01 -1.7357320601815474e-01 6 -3 -2
1547 516 2 4.0999999999999998e-01 -7.4786350541179205e+00 -1.2392130048099045e+01 -2.7973167390041453e-01 5 1 1
2406 802 2 4.0999999999999998e-01 -1.2655722520518768e+00 -1.3403480093120789e+01 -6.7163864895433534e+00 6 4 -3
2114 705 2 4.0999999999999998e-01 -4.5619019739244848e-01 -5.9571334527567004e+00 -4.1944000985360166e+00 7 1 -2
143 48 2 4.0999999999999998e-01 -4.2373154105186828e-01 -7.9011405787475821e+00 -4.3707551819938129e+00 5 6 0
2404 802 1 -8.1999999999999995e-01 -5.4632595056557953e-01 -1.3799090260323197e+01 -6.1452579454225287e+00 6 4 -3
1835 612 2 4.0999999999999998e-01 -3.3147834055526300e+00 -9.6510058423913119e+00 -2.2352485852161568e+00 -2 -1 0
982 328 1 -8.1999999999999995e-01 -7.1236311474224729e+00 -7.1152438535872244e+00 -2.6937961109969173e+00 8 1 0
983 328 2 4.0999999999999998e-01 -6.9860498751264348e+00 -6.6393157049993512e+00 -3.5624584655105096e+00 8 1 0
751 251 1 -8.1999999999999995e-01 -5.2696143168062513e+00 -5.9348689910191030e+00 -1.1531783379601528e+00 0 2 -5
1664 555 2 4.0999999999999998e-01 -6.0144358972238816e+00 -1.0272013839490594e+01 -8.5580557910537713e-01 1 -5 3
100 34 1 -8.1999999999999995e-01 -2.7425076148393135e+00 -9.9566662542607425e+00 -5.0333009672671736e-01 -1 5 -6
1834 612 1 -8.1999999999999995e-01 -3.7938446087571815e+00 -9.0434645874779953e+00 -2.8688134571776089e+00 -2 -1 0
752 251 2 4.0999999999999998e-01 -5.3615490437887239e+00 -6.0001902288920146e+00 -1.5955287063365020e-01 0 2 -5
1992 664 2 4.0999999999999998e-01 -1.2356502723857599e+00 -8.8145987509730332e+00 -7.4360373571162386e+00 9 2 2
1836 612 2 4.0999999999999998e-01 -3.1458897807176722e+00 -8.6844448931619986e+00 -3.5405796760241905e+00 -2 -1 0
841 281 1 -8.1999999999999995e-01 -5.9782164222522205e-01 -1.0338767515238224e+01 -2.0373679590825713e+00 -4 -4 -5
1013 338 2 4.0999999999999998e-01 -7.2107972493381904e+00 -1.3612861204559637e+01 -7.3329473977259649e+00 -3 -2 1
230 77 2 4.0999999999999998e-01 -1.5974586889636200e+00 -1.3220633992568292e+01 -3.1692556989281169e+00 0 -4 -4
2405 802 2 4.0999999999999998e-01 -6.2117255703199525e-01 -1.3436577341533066e+01 -5.2162838676333898e+00 6 4 -3
1435 479 1 -8.1999999999999995e-01 -2.5902273554638473e+00 -6.2962265833124516e+00 -1.6624481557446664e+00 -1 3 0
144 48 2 4.0999999999999998e-01 -6.5258820364644166e-01 -9.3341929042769127e+00 -3.6219962210830214e+00 5 6 0
1437 479 2 4.0999999999999998e-01 -2.4797954531437387e+00 -7.1011951774014763e+00 -2.2454068303961208e+00 -1 3 0
1012 338 1 -8.1999999999999995e-01 -7.0374990506694459e+00 -1.2673830078004578e+01 -7.0359645603361409e+00 -3 -2 1
520 174 1 -8.1999999999999995e-01 -5.7659607978411902e+00 -1.2451662936064348e+01 -4.1117620081522137e+00 -2 -1 1
521 174 2 4.0999999999999998e-01 -4.8815352270126020e+00 -1.2323645625568121e+01 -4.5605530599054518e+00 -2 -1 1
229 77 1 -8.1999999999999995e-01 -1.2961815814510036e+00 -1.2528672635343346e+01 -3.8253289762057356e+00 0 -4 -4
231 77 2 4.0999999999999998e-01 -1.1809409957484363e+00 -1.1652822319808585e+01 -3.3566966110072247e+00 0 -4 -4
2115 705 2 4.0999999999999998e-01 -1.5352265274422852e+00 -5.5925816697858988e+00 -3.0241706479227339e+00 7 1 -2
753 251 2 4.0999999999999998e-01 -6.0132602438737646e+00 -6.4404358296431958e+00 -1.5906750149914899e+00 0 2 -5
522 174 2 4.0999999999999998e-01 -5.9156861725263621e+00 -1.1713778940819179e+01 -3.4536435216526886e+00 -2 -1 1
2142 714 2 4.0999999999999998e-01 -3.6105259868603490e+00 -1.4005086452310394e+01 -1.2396410460508989e+00 5 6 4
279 93 2 4.0999999999999998e-01 -6.9494258500921102e+00 -8.9490605012982627e+00 -2.6842532628237254e+00 -1 -1 -2
843 281 2 4.0999999999999998e-01 -1.0789257435235271e+00 -9.9412826057886807e+00 -1.2559877562888317e+00 -4 -4 -5
1145 382 2 4.0999999999999998e-01 -3.1539739021978335e+00 -1.2256746265804585e+01 -6.4487691197755961e+00 3 -6 -1
1146 382 2 4.0999999999999998e-01 -2.5886884741151537e+00 -1.1892725803751485e+01 -4.9606173066631207e+00 3 -6 -1
1144 382 1 -8.1999999999999995e-01 -3.3582672360687695e+00 -1.1786386641596907e+01 -5.5902608216848808e+00 3 -6 -1
277 93 1 -8.1999999999999995e-01 -6.5367575705324441e+00 -9.8532069919544796e+00 -2.5736433413517066e+00 -1 -1 -2
278 93 2 4.0999999999999998e-01 -5.5484238390305620e+00 -9.7875863963671854e+00 -2.7111235643044509e+00 -1 -1 -2
1436 479 2 4.0999999999999998e-01 -3.5345365975582670e+00 -6.2473761656787214e+00 -1.3370189780133241e+00 -1 3 0
2113 705 1 -8.1999999999999995e-01 -6.2975280096933162e-01 -5.3837878865637201e+00 -3.3936745227175891e+00 7 1 -2
1014 338 2 4.0999999999999998e-01 -7.0439660327656837e+00 -1.2633683653436611e+01 -6.0367863928790300e+00 -3 -2 1
2141 714 2 4.0999999999999998e-01 -2.4379432188468524e+00 -1.2875959217700123e+01 -1.3691617280225294e+00 5 6 4
2202 734 2 4.0999999999999998e-01 -5.1579003384975017e+00 -1.4446966527909874e+01 -3.4749087321055185e+00 1 -2 -5
2140 714 1 -8.1999999999999995e-01 -3.1400510139799280e+00 -1.3384815935189462e+01 -1.8672781368987881e+00 5 6 4
102 34 2 4.0999999999999998e-01 -3.6081295210859192e+00 -9.6494086778002881e+00 -1.0797969154397258e-01 -1 5 -6
142 48 1 -8.1999999999999995e-01 -1.0986464145970380e+00 -8.5999664991371532e+00 -4.1338107231024708e+00 5 6 0
674 225 2 4.0999999999999998e-01 -2.9613902594691766e-02 -6.8177101782144600e+00 -6.3149524396583328e+00 4 4 0
101 34 2 4.0999999999999998e-01 -2.4304268148588726e+00 -1.0777594703263766e+01 -2.5111968233108684e-02 -1 5 -6
660 220 2 4.0999999999999998e-01 -8.2897898047442382e+00 -7.9359196682302366e+00 4.6110398653327884e+00 9 3 -4
694 232 1 -8.1999999999999995e-01 -7.8956038758075193e+00 -1.1231460560403468e+01 4.8779269103743665e+00 6 -4 -3
2231 744 2 4.0999999999999998e-01 -1.2190314885957529e+01 -1.2089148926890260e+01 4.2461703639964234e+00 3 -1 1
649 217 1 -8.1999999999999995e-01 -1.1957576235685735e+01 -8.5466814079650106e+00 3.0818353074891256e+00 5 -3 3
1954 652 1 -8.1999999999999995e-01 -1.3141793001794527e+01 -1.0919586482689132e+01 3.1633157855557634e+00 5 -2 -8
2480 827 2 4.0999999999999998e-01 -9.9010331110985277e+00 -1.2713042235078278e+01 2.1238893420785985e+00 4 6 -1
695 232 2 4.0999999999999998e-01 -7.6848328217778450e+00 -1.1717166876933554e+01 5.7262637326507253e+00 6 -4 -3
2479 827 1 -8.1999999999999995e-01 -9.7219343202392032e+00 -1.2715294214194820e+01 3.1077231685917184e+00 4 6 -1
696 232 2 4.0999999999999998e-01 -8.6385594228369911e+00 -1.1700926504592880e+01 4.4008218810123481e+00 6 -4 -3
2481 827 2 4.0999999999999998e-01 -1.0580763907213495e+01 -1.2585038175418100e+01 3.6031578639001403e+00 4 6 -1
1563 521 2 4.0999999999999998e-01 -8.9128731999436219e+00 -5.4842076979728756e+00 2.1653169685241132e+00 5 2 0
2232 744 2 4.0999999999999998e-01 -1.2755136846473711e+01 -1.2823525436296388e+01 5.5909088478042293e+00 3 -1 1
1736 579 2 4.0999999999999998e-01 -1.0885134878090010e+01 -9.4604759031387662e+00 1.8480849285435887e+00 4 -2 -4
2230 744 1 -8.1999999999999995e-01 -1.2061047059890242e+01 -1.2858442228920561e+01 4.8718604509777599e+00 3 -1 1
1956 652 2 4.0999999999999998e-01 -1.4113300484446071e+01 -1.0690540702984052e+01 3.1023099400771983e+00 5 -2 -8
651 217 2 4.0999999999999998e-01 -1.2517111336595665e+01 -9.3205261172459259e+00 3.3786440668158129e+00 5 -3 3
1128 376 2 4.0999999999999998e-01 -1.2375081981922046e+01 -1.4580212310986944e+01 4.2419356090220042e+00 3 2 -7
659 220 2 4.0999999999999998e-01 -7.7729449973665696e+00 -9.4327466078113300e+00 5.0098317064353317e+00 9 3 -4
650 217 2 4.0999999999999998e-01 -1.2551560769735778e+01 -7.8132830978910794e+00 2.7511999606272290e+00 5 -3 3
1735 579 1 -8.1999999999999995e-01 -1.0236593711166915e+01 -9.9899734677395067e+00 1.3012420394214885e+00 4 -2 -4
1737 579 2 4.0999999999999998e-01 -9.5403574538675784e+00 -9.3784627061802066e+00 9.2531631987191787e-01 4 -2 -4
553 185 1 -8.1999999999999995e-01 -9.9441163435181181e+00 -7.3032542264940430e+00 4.6120449192017894e+00 5 3 2
554 185 2 4.0999999999999998e-01 -1.0662089398524557e+01 -7.9452507730102386e+00 4.3430364341423555e+00 5 3 2
1955 652 2 4.0999999999999998e-01 -1.2907674578682364e+01 -1.1573439832916291e+01 2.4438195702945862e+00 5 -2 -8
273 91 2 4.0999999999999998e-01 -1.1237475094081809e+01 -5.1055600659887848e+00 4.4298556636766619e+00 1 -1 2
2418 806 2 4.0999999999999998e-01 -1.2708633310239508e+01 -1.4101237536012972e+01 2.2864609084039174e+00 -4 3 2
923 308 2 4.0999999999999998e-01 -1.2380660745063816e+01 -8.1260091852595089e+00 7.2208409247721335e+00 4 -2 2
197 66 2 4.0999999999999998e-01 -1.3980035690391254e+01 -5.9787034235738439e+00 1.4113835276389963e+00 1 -1 -6
196 66 1 -8.1999999999999995e-01 -1.3068973055718361e+01 -6.3905890198588491e+00 1.3933388943885561e+00 1 -1 -6
198 66 2 4.0999999999999998e-01 -1.2777437841492379e+01 -6.5134191126472754e+00 4.4469226185671218e-01 1 -1 -6
2416 806 1 -8.1999999999999995e-01 -1.2614572407096006e+01 -1.3318901054041426e+01 1.6707396768763125e+00 -4 3 2
2329 777 1 -8.1999999999999995e-01 -8.5446773919991390e+00 -8.2630864436400362e+00 2.8628510396822549e-01 9 6 1
555 185 2 4.0999999999999998e-01 -9.7413169463522706e+00 -6.6907341764330628e+00 3.8480409591151172e+00 5 3 2
2330 777 2 4.0999999999999998e-01 -7.8736725952246749e+00 -7.7743781626463893e+00 8.4389371195109320e-01 9 6 1
1378 460 1 -8.1999999999999995e-01 -1.3069747236900628e+01 -6.4975554297362699e+00 6.7882637546704458e+00 7 -4 -5
371 124 2 4.0999999999999998e-01 -1.4858645040387707e+01 -1.3045124000394075e+01 6.3829480840770465e+00 4 2 3
1226 409 2 4.0999999999999998e-01 -8.7087056232036630e+00 -1.0801784768158832e+01 1.6259531522095259e+00 4 -3 -8
1380 460 2 4.0999999999999998e-01 -1.3974504022725657e+01 -6.0892915485362149e+00 6.9096976707670130e+00 7 -4 -5
52 18 1 -8.1999999999999995e-01 -9.1796002326038693e+00 -1.4214007273802197e+01 6.0863330653325427e+00 0 -8 0
370 124 1 -8.1999999999999995e-01 -1.3917993483015058e+01 -1.3005836860413668e+01 6.7200557737412012e+00 4 2 3
1577 526 2 4.0999999999999998e-01 -9.5345957017655785e+00 -6.4147190834665544e+00 6.0475548095167753e+00 5 -1 3
1576 526 1 -8.1999999999999995e-01 -9.1861372358783200e+00 -5.6744100059533800e+00 6.6224718603725883e+00 5 -1 3
53 18 2 4.0999999999999998e-01 -9.5036553475438339e+00 -1.4372924630434355e+01 7.0189337929246065e+00 0 -8 0
606 202 2 4.0999999999999998e-01 -1.4632876164894245e+01 -7.5953708568706730e+00 6.2646210051554654e+00 1 2 -1
1225 409 1 -8.1999999999999995e-01 -7.7827311483914983e+00 -1.1162163862573735e+01 1.5132206933029586e+00 4 -3 -8
1227 409 2 4.0999999999999998e-01 -7.5153339077375225e+00 -1.1658391569398351e+01 2.3392153697787883e+00 4 -3 -8
54 18 2 4.0999999999999998e-01 -9.8926409913151758e+00 -1.3750671095063574e+01 5.5601174260587065e+00 0 -8 0
1379 460 2 4.0999999999999998e-01 -1.2477562483763002e+01 -5.8564378957826921e+00 6.3001080629802892e+00 7 -4 -5
2417 806 2 4.0999999999999998e-01 -1.2641800001875763e+01 -1.3635749263387483e+01 7.2264879022954176e-01 -4 3 2
1561 521 1 -8.1999999999999995e-01 -9.4552683551365497e+00 -5.2276295333350173e+00 2.9653079396636990e+00 5 2 0
658 220 1 -8.1999999999999995e-01 -7.4881578148840315e+00 -8.5281522046507749e+00 4.6926319475363663e+00 9 3 -4
1085 362 2 4.0999999999999998e-01 -7.8296494913350223e-01 -5.7834580065449988e+00 6.8869182553345709e+00 -2 6 -1