LAMMPS data file via write_data, version 15 May 2015, timestep = 8008000

2611 atoms
6 atom types
1749 bonds
4 bond types
894 angles
3 angle types
44 dihedrals
3 dihedral types
10 impropers
1 improper types

-1.4965023859222406e+01 1.4965023859222406e+01 xlo xhi
-1.4965023859222406e+01 1.4965023859222406e+01 ylo yhi
-1.4965023859222406e+01 1.4965023859222406e+01 zlo zhi

Masses

1 15.9994
2 1.00794
3 12.0107
4 1.00794
5 12.0107
6 12.0107

Bond Coeffs # harmonic

1 1000 1
2 469 1.4
3 367 1.08
4 469 0.7

Angle Coeffs # harmonic

1 100 109.47
2 35 120
3 63 120

Dihedral Coeffs # opls

1 0 7.25 0 0
2 0 7.25 0 0
3 0 7.25 0 0

Improper Coeffs # cvff

1 2.5 -1 2

Atoms # full

562 188 1 -8.1999999999999995e-01 -1.2818573441694852e+01 -1.3890879248602596e+01 -1.3732490937169212e+01 2 -3 3
627 209 2 4.0999999999999998e-01 -8.7530965242128360e+00 -1.2529640956058129e+01 -1.1970612769208891e+01 0 1 2
625 209 1 -8.1999999999999995e-01 -8.5963756988059465e+00 -1.2335981588553434e+01 -1.2939099555546123e+01 0 1 2
930 310 2 4.0999999999999998e-01 -1.0511752924256257e+01 -7.5159972456929207e+00 -1.1160843096259647e+01 2 -3 -2
283 95 1 -8.1999999999999995e-01 -1.1024493937467613e+01 -6.1900653978018187e+00 -9.5578168766188725e+00 -2 3 0
928 310 1 -8.1999999999999995e-01 -1.0268066201329905e+01 -8.2113118517376975e+00 -1.1836998704319328e+01 2 -3 -2
929 310 2 4.0999999999999998e-01 -9.2747550019641931e+00 -8.3255920980786424e+00 -1.1854459834010909e+01 2 -3 -2
1249 417 1 -8.1999999999999995e-01 -9.6381777427934932e+00 -1.2907101915168546e+01 -1.0264153352870412e+01 -1 -2 0
1251 417 2 4.0999999999999998e-01 -9.4092701108522903e+00 -1.3862264466811448e+01 -1.0076276201868673e+01 -1 -2 0
1250 417 2 4.0999999999999998e-01 -1.0354342071468439e+01 -1.2605916871933639e+01 -9.6345278707931215e+00 -1 -2 0
1972 658 1 -8.1999999999999995e-01 -7.7058299433922359e+00 -8.8979629028992058e+00 -1.1040683698659759e+01 4 0 1
1725 575 2 4.0999999999999998e-01 -1.0991190397938064e+01 -1.2507034426162633e+01 -1.1471452055476995e+01 0 2 2
428 143 2 4.0999999999999998e-01 -1.4951427513851600e+01 -1.4374231320568079e+01 -1.1311188293541603e+01 -1 0 2
226 76 1 -8.1999999999999995e-01 -1.0137276225722633e+01 -1.3719221088582273e+01 -1.4596258986478890e+01 -2 0 0
563 188 2 4.0999999999999998e-01 -1.2314801686806685e+01 -1.3374840525158774e+01 -1.3039706635871873e+01 2 -3 3
1116 372 2 4.0999999999999998e-01 -7.9837883541550703e+00 -1.1787510011626029e+01 -9.0048842627560255e+00 2 -5 0
1724 575 2 4.0999999999999998e-01 -1.1786206550295999e+01 -1.1120743696657989e+01 -1.1807397255984023e+01 0 2 2
1561 521 1 -8.1999999999999995e-01 -1.2400690792645097e+01 -9.2607179243004154e+00 -1.3101651583479383e+01 2 -2 1
1074 358 2 4.0999999999999998e-01 -1.2842288828142340e+01 -9.9212684514598646e+00 -1.4595910954927628e+01 5 -2 6
1630 544 1 -8.1999999999999995e-01 -1.4442968446568145e+01 -1.3580106165250328e+01 -8.1373073814941534e+00 1 -2 2
1562 521 2 4.0999999999999998e-01 -1.1444775382766100e+01 -8.9904013481722842e+00 -1.2986818235704447e+01 2 -2 1
1563 521 2 4.0999999999999998e-01 -1.2992100134595127e+01 -8.5969222772085754e+00 -1.2643784394561726e+01 2 -2 1
1723 575 1 -8.1999999999999995e-01 -1.1856379117406689e+01 -1.2118106403353794e+01 -1.1788020338035960e+01 0 2 2
1012 338 1 -8.1999999999999995e-01 -8.3850981070577344e+00 -9.0380230259132830e+00 -1.4276525887947869e+01 -1 -1 1
1681 561 1 -8.1999999999999995e-01 -1.3091719339851061e+01 -5.1173368844510811e+00 -1.1267355731162777e+01 3 -3 0
626 209 2 4.0999999999999998e-01 -9.2714358287093628e+00 -1.2826144821051493e+01 -1.3490521218979195e+01 0 1 2
429 143 2 4.0999999999999998e-01 -1.4198248393724914e+01 -1.4053405888660242e+01 -9.8982112734511922e+00 -1 0 2
284 95 2 4.0999999999999998e-01 -1.1453880326513040e+01 -6.8720922269383440e+00 -8.9657875311848230e+00 -2 3 0
1740 580 2 4.0999999999999998e-01 -1.1601405924644428e+01 -5.5345292321546804e+00 -1.3934621543686413e+01 -1 -1 3
228 76 2 4.0999999999999998e-01 -1.1098235756433182e+01 -1.3858066438118339e+01 -1.4356862338763383e+01 -2 0 0
64 22 1 -8.1999999999999995e-01 -1.4570007789695927e+01 -1.1957120575624383e+01 -1.1782457625666568e+01 3 -3 2
564 188 2 4.0999999999999998e-01 -1.3353816462893246e+01 -1.4609768546285059e+01 -1.3288931350761802e+01 2 -3 3
1683 561 2 4.0999999999999998e-01 -1.2417620385746369e+01 -5.7715808389384069e+00 -1.0924445431007097e+01 3 -3 0
459 153 2 4.0999999999999998e-01 -9.9034642549625787e+00 -6.8710837614682791e+00 -1.3665967646927072e+01 -2 0 1
285 95 2 4.0999999999999998e-01 -1.0713548350454335e+01 -5.4170672056639830e+00 -9.0048081507268058e+00 -2 3 0
2512 838 1 -8.1999999999999995e-01 -1.1057626288923808e+01 -1.0432354273876767e+01 -8.6398854399229510e+00 1 -1 1
1973 658 2 4.0999999999999998e-01 -7.8772042233104340e+00 -9.4335352736081468e+00 -1.0213746512658314e+01 4 0 1
1114 372 1 -8.1999999999999995e-01 -7.8763751305283494e+00 -1.0794074324857831e+01 -8.9651355839550977e+00 2 -5 0
1013 338 2 4.0999999999999998e-01 -8.0174622806072673e+00 -9.7304022298382442e+00 -1.3655649930233043e+01 -1 -1 1
925 309 1 -8.1999999999999995e-01 -1.2103120224176635e+01 -1.4795917971672182e+01 -7.9536634997648790e+00 2 -2 1
2514 838 2 4.0999999999999998e-01 -1.0264239983347661e+01 -1.0135924042505897e+01 -9.1715801759924727e+00 1 -1 1
2513 838 2 4.0999999999999998e-01 -1.1725779020885010e+01 -9.6896105535170456e+00 -8.5958895162946991e+00 1 -1 1
592 198 1 -8.1999999999999995e-01 -1.4264642373057031e+01 -7.5601504553138517e+00 -1.2125106643570856e+01 5 -1 3
457 153 1 -8.1999999999999995e-01 -1.0093747482652082e+01 -5.9046826580617928e+00 -1.3493071113014025e+01 -2 0 1
593 198 2 4.0999999999999998e-01 -1.3697674131298184e+01 -6.7588002910216023e+00 -1.1934274413997107e+01 5 -1 3
66 22 2 4.0999999999999998e-01 -1.3690704408262564e+01 -1.2388012454811971e+01 -1.1985410281314625e+01 3 -3 2
1014 338 2 4.0999999999999998e-01 -7.7998638374502516e+00 -8.2274003654772372e+00 -1.4255940019572122e+01 -1 -1 1
65 22 2 4.0999999999999998e-01 -1.4537795569449301e+01 -1.0993249605512068e+01 -1.2046932855118220e+01 3 -3 2
927 309 2 4.0999999999999998e-01 -1.3025192777428384e+01 -1.4428816102067143e+01 -8.0763438109819052e+00 2 -2 1
458 153 2 4.0999999999999998e-01 -9.2901630023716208e+00 -5.4752903943618723e+00 -1.3080874219017520e+01 -2 0 1
594 198 2 4.0999999999999998e-01 -1.4868318247231564e+01 -7.3649176209555263e+00 -1.2898082421695623e+01 5 -1 3
427 143 1 -8.1999999999999995e-01 -1.4284334684961713e+01 -1.4711011976244828e+01 -1.0646659912483184e+01 -1 0 2
1738 580 1 -8.1999999999999995e-01 -1.2526959174112694e+01 -5.1559099080531965e+00 -1.3940154049577565e+01 -1 -1 3
1325 442 2 4.0999999999999998e-01 -7.8075213993206463e+00 -5.3021742725105039e+00 -1.1245855147245020e+01 1 0 3
1739 580 2 4.0999999999999998e-01 -1.2829415464939400e+01 -5.0011686230754666e+00 -1.2999618399604042e+01 -1 -1 3
118 40 1 -8.1999999999999995e-01 -1.1883810805756008e+01 -7.6182629822046914e+00 -7.6542549025694671e+00 1 1 2
1967 656 2 4.0999999999999998e-01 -8.5120555677535172e+00 -7.7523436238604573e+00 -7.8537659343227784e+00 1 1 -2
842 281 2 4.0999999999999998e-01 -7.9474773895995687e+00 -1.4824369326447499e+01 -1.4645758113171805e+01 -2 -4 -4
1632 544 2 4.0999999999999998e-01 -1.4958174012912849e+01 -1.2773605685340041e+01 -8.4273974657253170e+00 1 -2 2
1464 488 2 4.0999999999999998e-01 -5.1636241618888779e+00 -6.2292557788733625e+00 -7.8644283647792594e+00 5 -3 2
2145 715 2 4.0999999999999998e-01 -2.5539493790166823e-01 -7.4782073329991370e+00 -8.3706315285628676e+00 1 0 1
1974 658 2 4.0999999999999998e-01 -7.0402605885127745e+00 -9.3749330702422426e+00 -1.1614747216338223e+01 4 0 1
2491 831 1 -8.1999999999999995e-01 -1.8400622028636526e-01 -9.5448273835932973e+00 -1.1879975611000932e+01 2 -2 -2
2489 830 2 4.0999999999999998e-01 -6.8087911485382158e-01 -7.7038517485924682e+00 -1.1488432023018245e+01 3 -6 -1
2198 733 2 4.0999999999999998e-01 -2.1664378769692014e+00 -1.3882001591058472e+01 -1.0404924372158089e+01 0 -2 3
1827 609 2 4.0999999999999998e-01 -2.4168920478078704e+00 -1.3389276493469428e+01 -7.8724151443715691e+00 0 -2 0
1462 488 1 -8.1999999999999995e-01 -5.9716838657237759e+00 -6.7556185854910566e+00 -7.5998272915126277e+00 5 -3 2
1534 512 1 -8.1999999999999995e-01 -5.2457215552246144e+00 -1.0653689454176719e+01 -9.4519427578926489e+00 1 -2 0
2197 733 1 -8.1999999999999995e-01 -2.3130407470139396e+00 -1.4308205744915947e+01 -1.1297611114128831e+01 0 -2 3
525 175 2 4.0999999999999998e-01 -1.8763193389300881e+00 -1.0602242084655932e+01 -1.4638702204641035e+01 -1 0 -3
2492 831 2 4.0999999999999998e-01 -5.6776997609650337e-01 -1.0467042438691893e+01 -1.1927691154642591e+01 2 -2 -2
23 8 2 4.0999999999999998e-01 -3.3474722619375807e+00 -1.2243114841180034e+01 -1.3700189906415755e+01 4 2 -2
1078 360 1 -8.1999999999999995e-01 -4.1322295806566167e-01 -1.3124022828538434e+01 -1.3076565209351788e+01 3 -1 3
1080 360 2 4.0999999999999998e-01 -1.1085735547054654e+00 -1.3687167909266456e+01 -1.2630037266048150e+01 3 -1 3
1825 609 1 -8.1999999999999995e-01 -2.5112090672246463e+00 -1.3037080990712065e+01 -8.8035943224524544e+00 0 -2 0
2279 760 2 4.0999999999999998e-01 -1.7384072934140349e+00 -5.4457003172402185e+00 -1.4148672236743653e+01 2 -2 -1
1826 609 2 4.0999999999999998e-01 -2.3239079457838603e+00 -1.2054776968810561e+01 -8.8089923475602561e+00 0 -2 0
2278 760 1 -8.1999999999999995e-01 -1.2823963965845522e+00 -5.2433398767501345e+00 -1.3281991019948377e+01 2 -2 -1
345 115 2 4.0999999999999998e-01 -6.4600190489858331e+00 -6.5575485976591832e+00 -9.5879063279558210e+00 2 0 5
344 115 2 4.0999999999999998e-01 -7.1837268863272294e+00 -7.3004151742155701e+00 -1.0849297661627796e+01 2 0 5
715 239 1 -8.1999999999999995e-01 -7.0208911076559657e+00 -1.4155819545834875e+01 -8.4172622703357156e+00 1 -1 1
2143 715 1 -8.1999999999999995e-01 -3.7195633923509597e-01 -6.4967984075380052e+00 -8.5232158700555267e+00 1 0 1
1015 339 1 -8.1999999999999995e-01 -1.8866073103897367e+00 -1.0473058787339362e+01 -8.2519957236764725e+00 2 -2 0
523 175 1 -8.1999999999999995e-01 -2.0548838667201057e+00 -1.1582585188484684e+01 -1.4554594434550209e+01 -1 0 -3
645 215 2 4.0999999999999998e-01 -4.3955323964684272e+00 -1.3004287394465374e+01 -1.1521400916460291e+01 -3 0 -1
2488 830 1 -8.1999999999999995e-01 -1.2247222890516998e+00 -6.9383028749062579e+00 -1.1144627502676455e+01 3 -6 -1
2490 830 2 4.0999999999999998e-01 -1.4910407838553521e+00 -6.3493933855546949e+00 -1.1907708095508152e+01 3 -6 -1
2155 719 1 -8.1999999999999995e-01 -1.8061475904175559e+00 -8.6377534213329277e+00 -1.4562310383046476e+01 2 0 3
2589 863 2 4.0999999999999998e-01 -3.4005789567370766e+00 -7.7678053615961424e+00 -1.3168184941022073e+01 0 -3 3
2157 719 2 4.0999999999999998e-01 -8.7109241136366222e-01 -8.3248257125146914e+00 -1.4395636942751526e+01 2 0 3
1751 584 2 4.0999999999999998e-01 -2.6605653268089728e+00 -8.3118601725026053e+00 -1.0434835928067027e+01 0 -1 2
643 215 1 -8.1999999999999995e-01 -4.6745336298432587e+00 -1.3004611913933960e+01 -1.0561093569516505e+01 -3 0 -1
1115 372 2 4.0999999999999998e-01 -6.9226497663911548e+00 -1.0554399562327635e+01 -9.1467835283843471e+00 2 -5 0
2587 863 1 -8.1999999999999995e-01 -4.2620134665590133e+00 -7.9775425767747681e+00 -1.2705612956487322e+01 0 -3 3
1079 360 2 4.0999999999999998e-01 -8.5899621318384689e-01 -1.2429955736411507e+01 -1.3641887346582189e+01 3 -1 3
24 8 2 4.0999999999999998e-01 -4.1243561251412828e+00 -1.3628559036357384e+01 -1.3321101912833203e+01 4 2 -2
1752 584 2 4.0999999999999998e-01 -2.7742675000978494e+00 -9.5146724423138025e+00 -9.3361884258483965e+00 0 -1 2
2588 863 2 4.0999999999999998e-01 -4.1090648651370607e+00 -8.6941908314422101e+00 -1.2025132227211703e+01 0 -3 3
2501 834 2 4.0999999999999998e-01 -6.8651607746547327e+00 -1.1351629658688339e+01 -1.3234726254947541e+01 5 -3 -1
1541 514 2 4.0999999999999998e-01 -5.3638695807791166e+00 -7.9734609748735590e+00 -1.3997675637669733e+01 -3 -1 1
1535 512 2 4.0999999999999998e-01 -5.0077618475160275e+00 -1.1535012480990810e+01 -9.8602036468567373e+00 1 -2 0
22 8 1 -8.1999999999999995e-01 -4.1350853057918791e+00 -1.2633390619935120e+01 -1.3223343468930466e+01 4 2 -2
1536 512 2 4.0999999999999998e-01 -4.5883129358146135e+00 -9.9607787952848916e+00 -9.7481196866424256e+00 1 -2 0
343 115 1 -8.1999999999999995e-01 -6.9637990282182063e+00 -6.4149428420733390e+00 -1.0439904777619564e+01 2 0 5
1750 584 1 -8.1999999999999995e-01 -3.2382863878728561e+00 -9.0526175543581822e+00 -1.0091981903586433e+01 0 -1 2
88 30 1 -8.1999999999999995e-01 -5.3404910984419622e+00 -5.2480785856145964e+00 -1.2752992943872549e+01 2 -1 2
2502 834 2 4.0999999999999998e-01 -5.3260345399706743e+00 -1.0810316079060673e+01 -1.3165576516727748e+01 5 -3 -1
2500 834 1 -8.1999999999999995e-01 -6.2760398889812965e+00 -1.0602061804817058e+01 -1.2932870964306574e+01 5 -3 -1
89 30 2 4.0999999999999998e-01 -4.7793159946179973e+00 -5.9923067923798428e+00 -1.2390723862447935e+01 2 -1 2
644 215 2 4.0999999999999998e-01 -3.9051668318197539e+00 -1.3292016395486874e+01 -9.9905627821180936e+00 -3 0 -1
90 30 2 4.0999999999999998e-01 -6.2134977841182870e+00 -5.2214152832575671e+00 -1.2265981227060703e+01 2 -1 2
717 239 2 4.0999999999999998e-01 -6.5954738944524074e+00 -1.3652392660216547e+01 -9.1693351298612065e+00 1 -1 1
1016 339 2 4.0999999999999998e-01 -1.0704391274654608e+00 -9.9015886096561339e+00 -8.3375723483211317e+00 2 -2 0
2280 760 2 4.0999999999999998e-01 -3.3375357144160311e-01 -5.5570334314461274e+00 -1.3323284610756781e+01 2 -2 -1
2144 715 2 4.0999999999999998e-01 -7.0951437121395955e-01 -6.3416008207795542e+00 -9.4516555956396591e+00 1 0 1
1316 439 2 4.0999999999999998e-01 -5.2557059054209105e+00 -1.0241714931721996e+01 -7.5621363319896036e+00 -1 -2 -1
1540 514 1 -8.1999999999999995e-01 -5.9563733561412171e+00 -7.8878456574229769e+00 -1.4798700800218523e+01 -3 -1 1
1188 396 2 4.0999999999999998e-01 -6.6963994334165857e+00 -5.6130053945838334e+00 -1.4917397156218531e+01 4 2 -1
2174 725 2 4.0999999999999998e-01 -1.3031839187649384e+01 -1.2438342325773339e+01 -5.5498349358114805e+00 2 3 0
780 260 2 4.0999999999999998e-01 -8.4549581535953653e+00 -1.0714622461238928e+01 -3.8989776725707692e+00 2 0 0
778 260 1 -8.1999999999999995e-01 -9.2862445167142376e+00 -1.1080573317612268e+01 -3.4805580640771687e+00 2 0 0
2173 725 1 -8.1999999999999995e-01 -1.3637772954930856e+01 -1.3212439489638470e+01 -5.3663959326772357e+00 2 3 0
779 260 2 4.0999999999999998e-01 -9.8060600515284833e+00 -1.0334589924342740e+01 -3.0642257349506323e+00 2 0 0
998 333 2 4.0999999999999998e-01 -7.6508413004183300e+00 -1.1023533794000743e+01 -5.4530421259626820e+00 2 -4 1
2541 847 2 4.0999999999999998e-01 -1.2302642696356477e+01 -1.0614080840005128e+01 -2.6573351746639258e+00 5 0 0
1138 380 1 -8.1999999999999995e-01 -1.1361222742861349e+01 -1.1219912646226087e+01 -5.8490844468604521e+00 1 1 0
119 40 2 4.0999999999999998e-01 -1.2583946615754920e+01 -7.5059103711213613e+00 -6.9491175305897954e+00 1 1 2
1508 503 2 4.0999999999999998e-01 -8.0395866074225175e+00 -6.6522999053385501e+00 -3.5775929892147715e+00 1 -1 0
2478 826 2 4.0999999999999998e-01 -1.0085652808006918e+01 -6.3817729060610500e+00 -2.9866543448919654e+00 3 0 -1
120 40 2 4.0999999999999998e-01 -1.0997389908997199e+01 -7.7810208977564832e+00 -7.2208961601040640e+00 1 1 2
1935 645 2 4.0999999999999998e-01 -1.0155970312937795e+01 -1.4224221817528040e+01 -3.5204469795645625e+00 1 -3 0
2539 847 1 -8.1999999999999995e-01 -1.2134999922493092e+01 -9.8406342033256493e+00 -3.2686519817326758e+00 5 0 0
2540 847 2 4.0999999999999998e-01 -1.1931235589575808e+01 -1.0179749076156401e+01 -4.1870817395897326e+00 5 0 0
1139 380 2 4.0999999999999998e-01 -1.0392037783073286e+01 -1.1184698455529286e+01 -5.6052146042721382e+00 1 1 0
1468 490 1 -8.1999999999999995e-01 -1.0542938248490152e+01 -1.0762874657770301e+01 -3.8618212418895936e-01 0 1 0
2476 826 1 -8.1999999999999995e-01 -1.0036066002388502e+01 -6.7737882093839570e+00 -3.9052931078316941e+00 3 0 -1
2477 826 2 4.0999999999999998e-01 -1.0959837307503552e+01 -6.9695719080370191e+00 -4.2344546727792221e+00 3 0 -1
1933 645 1 -8.1999999999999995e-01 -1.0476310674605095e+01 -1.4223564494598650e+01 -2.5731277983805878e+00 1 -3 0
1469 490 2 4.0999999999999998e-01 -1.1391513109084659e+01 -1.1054406944093477e+01 -8.2772653950098984e-01 0 1 0
1056 352 2 4.0999999999999998e-01 -1.1573482194179947e+01 -1.2645419563337365e+01 -2.3480462013114973e+00 -1 1 -1
1140 380 2 4.0999999999999998e-01 -1.1454141999515301e+01 -1.1233293537615820e+01 -6.8446842224201578e+00 1 1 0
829 277 1 -8.1999999999999995e-01 -1.2743983336556290e+01 -6.4062874829060075e+00 -4.9326787398368825e+00 6 0 0
1903 635 1 -8.1999999999999995e-01 -1.3352291003357632e+01 -7.5444469079080108e+00 -2.1293173263073122e+00 2 -2 -2
1904 635 2 4.0999999999999998e-01 -1.2905985558695765e+01 -8.3608443557745815e+00 -2.4958397224059894e+00 2 -2 -2
830 277 2 4.0999999999999998e-01 -1.3612603984610896e+01 -6.3941941212202114e+00 -4.4373163154896584e+00 6 0 0
1054 352 1 -8.1999999999999995e-01 -1.2210142880549325e+01 -1.2066626920230926e+01 -1.8384441207744704e+00 -1 1 -1
1055 352 2 4.0999999999999998e-01 -1.3147305013829534e+01 -1.2370369642729086e+01 -2.0101983610511258e+00 -1 1 -1
1905 635 2 4.0999999999999998e-01 -1.2669588323180079e+01 -6.8284405816030382e+00 -1.9834269312182151e+00 2 -2 -2
2175 725 2 4.0999999999999998e-01 -1.4567560174331662e+01 -1.2878509050504062e+01 -5.2114178105000359e+00 2 3 0
1271 424 2 4.0999999999999998e-01 -1.3846058424026291e+01 -9.1908969662235851e+00 -4.3134455602777297e+00 2 -3 0
1631 544 2 4.0999999999999998e-01 -1.4221350388696532e+01 -1.3502199133524821e+01 -7.1652744831567929e+00 1 -2 2
831 277 2 4.0999999999999998e-01 -1.2360014270353826e+01 -5.4831894935668739e+00 -4.9548116311733192e+00 6 0 0
357 119 2 4.0999999999999998e-01 -9.4518879746779021e+00 -5.3513442425659026e+00 -7.2496055384480762e-01 4 1 -1
1981 661 1 -8.1999999999999995e-01 -1.0315013546319658e+01 -1.4268592088950792e+01 -5.4374646462944725e+00 2 1 1
1966 656 1 -8.1999999999999995e-01 -9.2061088349604638e+00 -7.8887222239884132e+00 -7.1468551435528331e+00 1 1 -2
356 119 2 4.0999999999999998e-01 -9.5477987548326340e+00 -6.9040662654875522e+00 -1.2215160243672170e+00 4 1 -1
891 297 2 4.0999999999999998e-01 -1.4535310905541563e+01 -9.2551365556933689e+00 -5.0211474142690804e-01 1 0 1
355 119 1 -8.1999999999999995e-01 -9.8655418676370594e+00 -5.9712785815248974e+00 -1.3917467979692333e+00 4 1 -1
52 18 1 -8.1999999999999995e-01 -1.4384586737289581e+01 -1.4897134161731069e+01 -1.8284445296959593e+00 -2 -4 0
2403 801 2 4.0999999999999998e-01 -9.8352617608830535e+00 -1.3788754997695525e+01 -9.7688917016381005e-01 3 -2 4
1270 424 1 -8.1999999999999995e-01 -1.4627261161165166e+01 -9.0302274567849103e+00 -4.9167196262189954e+00 2 -3 0
2381 794 2 4.0999999999999998e-01 -8.1956989569717322e+00 -1.1580848026993744e+01 -1.7188076036746196e+00 4 0 1
1028 343 2 4.0999999999999998e-01 -8.1287893321800553e+00 -1.3112924715476710e+01 -7.2983285390206980e+00 1 1 1
369 123 2 4.0999999999999998e-01 -1.4745602214225842e+01 -6.1337042424786787e+00 -2.6056994905197683e+00 3 -5 0
1968 656 2 4.0999999999999998e-01 -8.7611280561764460e+00 -8.1364091141893518e+00 -6.2862301816816863e+00 1 1 -2
1430 477 2 4.0999999999999998e-01 -8.0826871883860889e+00 -8.7764242321081234e+00 -7.6249812554593532e-01 1 -2 0
1842 614 2 4.0999999999999998e-01 -1.4410506797495469e+01 -1.4932457302107283e+01 -4.9459640943647827e+00 2 -3 1
1431 477 2 4.0999999999999998e-01 -9.6726324945930848e+00 -9.1485758400619162e+00 -7.7949739554029485e-01 1 -2 0
367 123 1 -8.1999999999999995e-01 -1.4706521953652071e+01 -5.2884254696754827e+00 -3.1386240081874917e+00 3 -5 0
1429 477 1 -8.1999999999999995e-01 -9.0040599176496947e+00 -8.4161957930355733e+00 -9.0857956466905954e-01 1 -2 0
1982 661 2 4.0999999999999998e-01 -1.1132497920059915e+01 -1.3940463539525776e+01 -5.9108386521480050e+00 2 1 1
889 297 1 -8.1999999999999995e-01 -1.4488346029946191e+01 -1.0154254326979981e+01 -6.6898095358421727e-02 1 0 1
890 297 2 4.0999999999999998e-01 -1.4413297327849161e+01 -1.0861393492147958e+01 -7.7000114066545322e-01 1 0 1
1027 343 1 -8.1999999999999995e-01 -8.4808971252217731e+00 -1.2550179605140778e+01 -6.5504180890075556e+00 1 1 1
1029 343 2 4.0999999999999998e-01 -9.1045979150610172e+00 -1.3094162939048735e+01 -5.9890701873890375e+00 1 1 1
837 279 2 4.0999999999999998e-01 -7.6726972569358027e+00 -5.5941161531169161e+00 -6.9447531325735241e+00 2 -1 -1
1398 466 2 4.0999999999999998e-01 -1.4942032021442571e+01 -7.0790602720761564e+00 -6.2314186960954672e+00 0 -2 -3
50 17 2 4.0999999999999998e-01 -1.4729411115327119e+01 -1.3227945517123747e+01 -1.7486162527480555e+00 0 0 2
1507 503 1 -8.1999999999999995e-01 -7.1368921378441330e+00 -6.6068282807402223e+00 -3.1496829189819060e+00 1 -1 0
997 333 1 -8.1999999999999995e-01 -7.0734867625929487e+00 -1.0518955137723747e+01 -4.8110965285931471e+00 2 -4 1
1509 503 2 4.0999999999999998e-01 -6.4427973991852898e+00 -6.9097423819212782e+00 -3.8027583919678278e+00 1 -1 0
133 45 1 -8.1999999999999995e-01 -9.9825807440786996e-01 -5.8637562712072739e+00 -2.0893915697803145e-01 -1 -3 3
999 333 2 4.0999999999999998e-01 -6.2479902077129541e+00 -1.0205624148393689e+01 -5.2805762148944595e+00 2 -4 1
979 327 1 -8.1999999999999995e-01 -6.9945252643296367e+00 -1.4536712568094137e+01 -1.7612340533080051e-01 -2 0 4
1017 339 2 4.0999999999999998e-01 -2.1914216387112848e+00 -1.0478378057859789e+01 -7.2995819666305088e+00 2 -2 0
1312 438 1 -8.1999999999999995e-01 -6.7986207779768737e+00 -5.9824874781777968e+00 -3.6265313982650937e-01 3 -2 1
1874 625 2 4.0999999999999998e-01 -7.1025720898068831e+00 -8.8002924369757842e+00 -2.0315218186975201e+00 -1 -2 1
1314 438 2 4.0999999999999998e-01 -5.8149202504284592e+00 -6.0958367789714334e+00 -2.2294902060217048e-01 3 -2 1
981 327 2 4.0999999999999998e-01 -7.0999695647802410e+00 -1.3656578413780341e+01 -6.3902446427382920e-01 -2 0 4
1313 438 2 4.0999999999999998e-01 -7.0508668308411835e+00 -6.3394729943615982e+00 -1.2620781280110389e+00 3 -2 1
1689 563 2 4.0999999999999998e-01 -5.0051060394353364e-01 -1.2830175185788947e+01 -4.3112103581125059e+00 5 0 0
1484 495 2 4.0999999999999998e-01 -1.2869113072804090e+00 -7.2539909750855696e+00 -6.8648255643964866e+00 -1 -1 4
1344 448 2 4.0999999999999998e-01 -5.7895286562900186e+00 -1.4585137757036946e+01 -3.1561381694531043e+00 -1 -2 4
2327 776 2 4.0999999999999998e-01 -3.3278611741644433e+00 -1.3873211185115947e+01 -6.3467933069047877e+00 0 0 2
1247 416 2 4.0999999999999998e-01 -1.7630786720946574e+00 -1.2312568006502049e+01 -1.1263592353108276e+00 1 -1 1
1688 563 2 4.0999999999999998e-01 -9.5863258557110242e-01 -1.2795868290580504e+01 -2.7441560708950021e+00 5 0 0
2310 770 2 4.0999999999999998e-01 -7.2708218503428963e+00 -1.2636343852612153e+01 -4.2733057171198290e+00 3 1 0
1873 625 1 -8.1999999999999995e-01 -6.4766049566934178e+00 -9.3451223071498433e+00 -1.4735275762880153e+00 -1 -2 1
2328 776 2 4.0999999999999998e-01 -2.1598390623431012e+00 -1.4518756571113384e+01 -5.4056730385022274e+00 0 0 2
135 45 2 4.0999999999999998e-01 -1.1023904818724652e+00 -5.4876779483813660e+00 -1.1296744884658398e+00 -1 -3 3
2382 794 2 4.0999999999999998e-01 -6.7888507621105614e+00 -1.1362739641121877e+01 -9.1885840724814294e-01 4 0 1
107 36 2 4.0999999999999998e-01 -1.0532148075295211e+00 -9.8769360583548718e+00 -3.4850377551627965e+00 2 -3 -2
1483 495 1 -8.1999999999999995e-01 -1.5115286848187974e+00 -7.3963260143834111e+00 -5.9008132382068528e+00 -1 -1 4
2530 844 1 -8.1999999999999995e-01 -5.2152108368570023e+00 -7.3743811280242237e+00 -4.9523842493130434e+00 -2 0 2
1887 629 2 4.0999999999999998e-01 -2.7657635729333343e+00 -5.2736102298794680e+00 -5.0658952030519586e+00 -2 -2 -1
2309 770 2 4.0999999999999998e-01 -6.9050221736895327e+00 -1.2970689078358111e+01 -2.7173122385521040e+00 3 1 0
2308 770 1 -8.1999999999999995e-01 -6.6659910146770311e+00 -1.3156617792185751e+01 -3.6703739567009599e+00 3 1 0
2380 794 1 -8.1999999999999995e-01 -7.4678022505830093e+00 -1.2037806757585498e+01 -1.2075473239322587e+00 4 0 1
2028 676 2 4.0999999999999998e-01 -2.6091706031676765e-01 -5.4561397705479973e+00 -2.9238713386232398e+00 0 1 0
1485 495 2 4.0999999999999998e-01 -9.7197779489735403e-01 -8.1579092423205104e+00 -5.5417758747384287e+00 -1 -1 4
1875 625 2 4.0999999999999998e-01 -5.5327913985703994e+00 -9.1257980034379500e+00 -1.7208024367126207e+00 -1 -2 1
106 36 1 -8.1999999999999995e-01 -1.6254835719004159e+00 -9.5416010390004509e+00 -2.7366455494570427e+00 2 -3 -2
2326 776 1 -8.1999999999999995e-01 -2.3604843747067807e+00 -1.4122565877589970e+01 -6.3016676528582369e+00 0 0 2
1754 585 2 4.0999999999999998e-01 -5.5337639621561170e+00 -1.3425554993249010e+01 -5.4286672293436631e+00 0 -2 2
2427 809 2 4.0999999999999998e-01 -1.0275571556902872e+00 -5.1846566890639689e+00 -6.8568447288530017e+00 0 -2 0
581 194 2 4.0999999999999998e-01 -7.2032485394481327e-01 -1.3092289888220582e+01 -6.4850200091734340e+00 5 -1 1
770 257 2 4.0999999999999998e-01 -2.4210133041893531e+00 -1.4594011923384937e+01 -2.4273943555159825e+00 2 -3 2
1753 585 1 -8.1999999999999995e-01 -4.9900829884069218e+00 -1.3436345601340445e+01 -6.2679088896678596e+00 0 -2 2
1315 439 1 -8.1999999999999995e-01 -5.1662613640253507e+00 -9.8242283741610450e+00 -6.6578484084640053e+00 -1 -2 -1
108 36 2 4.0999999999999998e-01 -1.5122832491766971e+00 -1.0134240906458341e+01 -1.9391521638243212e+00 2 -3 -2
1623 541 2 4.0999999999999998e-01 -4.2949782322890862e+00 -1.0612914688086462e+01 -2.8996077964272331e+00 4 -1 -1
1037 346 2 4.0999999999999998e-01 -3.8167277884265722e+00 -7.4137052065838063e+00 -1.7686154926633169e+00 0 0 2
933 311 2 4.0999999999999998e-01 -2.0635945032436656e+00 -1.0640846331314329e+01 -5.2213259134502277e+00 3 -3 2
2531 844 2 4.0999999999999998e-01 -5.0370620264331514e+00 -8.3259815870345690e+00 -5.2028868789654830e+00 -2 0 2
2532 844 2 4.0999999999999998e-01 -4.3795408709807333e+00 -6.9636595484267918e+00 -4.5876987748117166e+00 -2 0 2
1622 541 2 4.0999999999999998e-01 -4.8041030438715016e+00 -1.2157595074480193e+01 -3.0461216099115749e+00 4 -1 -1
931 311 1 -8.1999999999999995e-01 -2.9390419704611670e+00 -1.0683233082857104e+01 -5.7028101003446796e+00 3 -3 2
1036 346 1 -8.1999999999999995e-01 -3.9860182913601623e+00 -8.2901390011091713e+00 -2.2194331330279145e+00 0 0 2
790 264 1 -8.1999999999999995e-01 -4.0755499026974853e+00 -5.9726177986849862e+00 -5.3635082040694648e-01 0 -2 -1
769 257 1 -8.1999999999999995e-01 -2.3165917895108521e+00 -1.3900163652352367e+01 -1.7148617400543156e+00 2 -3 2
1755 585 2 4.0999999999999998e-01 -5.5999189638678040e+00 -1.3470877618537795e+01 -7.0597040883473738e+00 0 -2 2
1038 346 2 4.0999999999999998e-01 -3.1132237298271779e+00 -8.7250301491025049e+00 -2.4410891334974512e+00 0 0 2
1621 541 1 -8.1999999999999995e-01 -4.1237087936861982e+00 -1.1489985524749134e+01 -3.3484346452691156e+00 4 -1 -1
771 257 2 4.0999999999999998e-01 -3.0237229043881193e+00 -1.4027600534184053e+01 -1.0193349908495275e+00 2 -3 2
1317 439 2 4.0999999999999998e-01 -4.2235212248506908e+00 -9.9199488781679435e+00 -6.3383009045722325e+00 -1 -2 -1
932 311 2 4.0999999999999998e-01 -3.6462879599724349e+00 -1.1017341878725643e+01 -5.0797479978180409e+00 3 -3 2
1463 488 2 4.0999999999999998e-01 -5.8080250663223900e+00 -7.1964649859427805e+00 -6.7172729150203647e+00 5 -3 2
1687 563 1 -8.1999999999999995e-01 -1.7727288615945547e-01 -1.2761933187940750e+01 -3.3673393867940913e+00 5 0 0
1885 629 1 -8.1999999999999995e-01 -3.3249942197600451e+00 -5.1397503592893425e+00 -4.2477420090251830e+00 -2 -2 -1
1246 416 1 -8.1999999999999995e-01 -1.4490009188815129e+00 -1.1430080259122271e+01 -7.7621274746737257e-01 1 -1 1
1886 629 2 4.0999999999999998e-01 -2.7817675825140391e+00 -5.3493694713283517e+00 -3.4347249875691901e+00 -2 -2 -1
791 264 2 4.0999999999999998e-01 -3.8110762176527135e+00 -5.0416496688656753e+00 -7.8811268385202027e-01 0 -2 -1
1244 415 2 4.0999999999999998e-01 -5.1221225051745449e+00 -1.4246924912965664e+01 -5.9794198752648242e-02 2 0 1
1248 416 2 4.0999999999999998e-01 -2.1284702260780275e+00 -1.1062502448751287e+01 -1.4120092207088497e-01 1 -1 1
1959 653 2 4.0999999999999998e-01 -9.0255441040522264e+00 -1.1950892044699575e+01 3.1061604118261847e+00 2 0 -1
2339 780 2 4.0999999999999998e-01 -1.4026416475666716e+01 -1.2242267699762461e+01 5.8479264906388337e+00 1 2 1
290 97 2 4.0999999999999998e-01 -1.1732582999986336e+01 -8.6507486980811379e+00 4.1920343335050880e+00 1 -3 -1
289 97 1 -8.1999999999999995e-01 -1.2020965622707918e+01 -9.3895271139058067e+00 4.8011927096166538e+00 1 -3 -1
2019 673 2 4.0999999999999998e-01 -1.1175834665843524e+01 -6.1997359977798432e+00 6.0495789190364313e+00 -1 2 -2
2338 780 1 -8.1999999999999995e-01 -1.3798028307502454e+01 -1.3174416586346801e+01 6.1289412879173355e+00 1 2 1
2340 780 2 4.0999999999999998e-01 -1.3879569322160780e+01 -1.3252432819239701e+01 7.1225692526098783e+00 1 2 1
1957 653 1 -8.1999999999999995e-01 -8.9929672392417359e+00 -1.1139545163871688e+01 2.5224764294508262e+00 2 0 -1
2574 858 2 4.0999999999999998e-01 -1.2125563242754390e+01 -1.0693683163541454e+01 3.5388412341697553e+00 1 1 1
1207 403 1 -8.1999999999999995e-01 -1.1062659924566729e+01 -6.8549742302166052e+00 3.6150486770528296e+00 4 -5 0
291 97 2 4.0999999999999998e-01 -1.2810471254994578e+01 -9.0905466147633813e+00 5.3372183938534050e+00 1 -3 -1
2573 858 2 4.0999999999999998e-01 -1.1060322290318334e+01 -1.1481287787030974e+01 2.5840362648246931e+00 1 1 1
1958 653 2 4.0999999999999998e-01 -8.0397794702215215e+00 -1.0894978870713668e+01 2.3445651503209000e+00 2 0 -1
2572 858 1 -8.1999999999999995e-01 -1.1958948043217809e+01 -1.1532079276829748e+01 3.0198389806019108e+00 1 1 1
1208 403 2 4.0999999999999998e-01 -1.1302061178747856e+01 -6.7154332301042139e+00 2.6541910449061312e+00 4 -5 0