2611
Atoms. Timestep: 8000000
O 7.47676 -2.25928 -4.62724
H 7.22271 -1.29223 -4.60989
H 8.47108 -2.34392 -4.56244
O 9.3911 12.4617 -14.231
H 10.0889 13.1763 -14.2804
H 8.57957 12.7527 -14.7377
O 12.6578 8.04631 -6.18455
H 11.8899 7.40912 -6.25056
H 13.5176 7.53688 -6.21985
O -14.1316 -9.62647 7.31752
H -13.3575 -9.90913 6.75109
H -14.1519 -8.62864 7.38033
O -8.69898 -1.34183 6.03069
H -8.14162 -1.46491 6.85181
H -8.92419 -2.23597 5.6436
O -13.944 7.28799 3.80231
H -13.4326 6.8822 4.5598
H -13.3044 7.63933 3.1186
O -1.16629 14.1323 -7.32232
H -0.398878 14.737 -7.1091
H -1.01025 13.2364 -6.90638
O -1.7698 -9.82387 14.9074
H -1.09577 -10.5562 -14.944
H -2.16325 -9.85248 13.9885
O 8.77609 -9.62303 -0.801159
H 9.13641 -9.63829 -1.73389
H 8.16028 -10.3998 -0.668978
O 10.4045 -0.722355 -1.51366
H 9.57534 -0.909496 -0.986846
H 10.9577 -0.0413959 -1.03379
O 12.5187 10.6935 -7.25187
H 12.3699 11.3302 -6.4952
H 12.4494 9.75427 -6.91574
O 2.739 5.62938 -2.63621
H 3.13687 6.09541 -3.42649
H 2.48656 6.30475 -1.94326
O 14.8988 -3.74587 9.07291
H 14.2439 -4.47362 8.86895
H 14.4501 -3.0364 9.61637
O -0.520791 5.94779 -8.23352
H -1.27831 5.44322 -8.64778
H -0.290706 5.53819 -7.35073
O -10.9821 -5.16836 6.79777
H -10.9043 -5.89765 6.11797
H -10.4431 -5.40681 7.60562
O 14.2788 -9.28502 14.1665
H 14.0374 -9.48681 13.2173
H -14.7469 -9.62165 14.3545
O 14.0409 -13.7708 -0.43771
H 14.9088 -13.7603 0.0588515
H 13.3781 -14.329 0.0614579
O -13.913 13.637 -1.67783
H -13.3775 13.6774 -2.52143
H -13.6846 12.8017 -1.17777
O 12.1707 5.20041 5.37352
H 12.7619 5.2706 4.57003
H 11.2471 5.50076 5.13505
O 5.3716 11.8009 1.1594
H 5.20224 11.3798 0.268286
H 5.49741 12.7862 1.044
O 8.00038 -11.2727 1.85111
H 7.73218 -10.315 1.74677
H 8.3252 -11.4282 2.78404
O 14.0181 -12.8858 -10.2074
H 14.2143 -12.0648 -9.67129
H 13.1153 -13.2377 -9.95997
O -12.9607 -10.4037 -14.9399
H -13.3477 -11.2608 -14.5999
H -13.1075 -9.68074 -14.2647
O 12.3314 -7.55628 -1.39379
H 11.9585 -7.5401 -2.32154
H 13.2784 -7.87662 -1.4207
O 3.06989 4.36168 13.3188
H 2.204 3.87087 13.4156
H 3.45404 4.54173 14.2243
O 7.58873 -7.6978 2.56441
H 7.14763 -7.01614 3.14819
H 8.54509 -7.44392 2.41961
O -12.0068 -2.94671 -7.59338
H -12.6946 -2.87843 -8.31608
H -11.487 -2.0937 -7.54629
O 4.64752 14.8926 -9.02607
H 5.32899 -14.571 -9.5744
H 4.24335 14.1575 -9.57035
O -0.905116 10.0234 -2.70084
H -1.87699 9.79348 -2.75227
H -0.367475 9.29579 -3.12697
O -2.53627 -5.00364 -11.8963
H -2.41463 -4.51155 -12.7583
H -1.64165 -5.19368 -11.4918
O -13.8326 10.8397 -4.4363
H -14.7789 10.8357 -4.11302
H -13.4468 11.7558 -4.32656
O 4.48869 -7.2287 7.16871
H 4.48949 -6.65707 6.34818
H 4.77395 -8.15665 6.92876
O 1.02898 -9.52953 1.59631
H 1.65525 -9.03559 0.993103
H 1.53889 -10.2131 2.11852
O -2.0272 -1.68649 11.8292
H -2.17938 -1.85666 10.8556
H -2.54075 -2.35393 12.3685
O -14.7008 -14.2583 13.7359
H -13.7945 -13.9523 14.0273
H 14.5494 -13.8162 14.299
O -1.08108 -5.88725 -4.26592
H -1.53543 -5.8544 -3.37568
H -0.0987662 -6.02036 -4.1341
O -9.20131 4.30144 9.34225
H -9.73624 4.23511 8.49994
H -9.81478 4.25953 10.1309
O 9.39892 -7.75284 5.59187
H 8.57818 -8.20256 5.94425
H 9.2538 -7.49538 4.63652
O -8.34376 0.907225 -1.61093
H -8.94606 0.284065 -2.10986
H -8.7896 1.79735 -1.51638
O -8.13279 -4.96894 -7.80579
H -7.89736 -5.71838 -7.18697
H -8.47283 -5.34333 -8.66849
O 0.100749 -14.4833 8.48742
H -0.420268 14.896 9.12358
H 0.0338128 -13.5251 8.7658
O -9.76468 13.4484 11.2641
H -10.3756 12.8592 10.7353
H -10.1864 13.66 12.1458
O -4.99899 4.41187 -14.7417
H -4.37038 3.63924 -14.6526
H -4.51592 5.19003 14.8053
O 7.40469 2.31466 11.3382
H 6.59572 2.8627 11.5509
H 7.16936 1.62491 10.6534
O -3.28978 -7.19043 -0.783563
H -3.053 -8.13889 -0.994262
H -2.6935 -6.85184 -0.0556526
O 5.06269 8.13602 14.596
H 4.4486 8.92268 14.6602
H 4.62974 7.33985 -14.9297
O 7.98924 8.94521 9.4228
H 8.80989 8.91944 8.85191
H 8.08542 8.29258 10.1744
O -11.4195 7.96468 -6.45799
H -12.1405 8.13694 -7.12922
H -11.7886 7.4203 -5.70468
O -5.54517 1.70009 10.6554
H -4.8801 1.34773 9.9969
H -5.51736 2.69972 10.6547
O 1.85765 -9.71422 -12.0322
H 1.8672 -10.3832 -11.289
H 2.7883 -9.58166 -12.3733
O 1.38163 -6.74788 2.83234
H 1.43951 -7.74411 2.76738
H 0.497319 -6.49005 3.22164
O 4.11702 -10.5069 -0.545177
H 3.50288 -11.1724 -0.121006
H 4.07117 -9.6435 -0.0426973
O -6.6068 5.0377 -0.691836
H -6.65647 4.76731 -1.65332
H -5.94368 4.45925 -0.216745
O 11.771 3.11685 6.9532
H 11.9835 3.77929 6.23481
H 12.2317 2.25155 6.7555
O 13.538 9.6019 -14.0133
H 13.6461 9.16076 -13.1223
H 13.354 10.5761 -13.8827
O -4.07941 -12.2887 10.9433
H -4.04182 -12.4278 9.95369
H -4.99031 -12.5285 11.2792
O -11.1126 6.11137 7.7749
H -10.6827 5.35637 7.27971
H -11.1712 6.91125 7.17757
O -9.5336 -4.09838 9.12527
H -10.5154 -3.97177 8.98356
H -9.03077 -3.67597 8.3711
O -7.28551 8.11763 7.06485
H -7.36159 7.56325 7.89365
H -7.16963 7.51854 6.27258
O -5.84601 -12.3805 2.67732
H -5.385 -12.4751 1.79496
H -5.8565 -13.2647 3.14438
O -1.44652 -12.9669 6.11608
H -1.87681 -12.0805 5.94515
H -0.571942 -12.8288 6.58092
O 0.745674 4.33923 -3.81871
H 1.354 4.43608 -3.03093
H 1.282 4.09129 -4.6255
O 6.86248 2.23583 7.63941
H 7.66459 2.7936 7.85285
H 6.68321 2.27224 6.65626
O -8.15668 8.26123 4.2771
H -7.91606 8.89299 3.54019
H -8.55812 8.77273 5.03687
O -1.80117 -3.65071 -14.5331
H -1.83655 -4.36319 14.7145
H -2.40551 -2.89746 -14.7927
O -10.1183 7.12769 -0.807157
H -10.3452 8.10152 -0.793167
H -9.14066 7.01072 -0.632093
O 12.5736 2.88667 -2.5007
H 12.3529 3.76009 -2.06659
H 12.167 2.14035 -1.97369
O 9.31089 -5.01194 -2.92621
H 9.54184 -4.60862 -2.04076
H 8.58846 -5.69256 -2.80421
O -12.3956 -0.608575 1.07693
H -12.9475 -0.35802 0.28148
H -11.7146 0.103485 1.24779
O -9.59686 1.3532 7.08533
H -9.85025 0.389522 7.16999
H -8.71822 1.42661 6.61349
O -1.41203 14.556 10.6284
H -2.27182 14.7269 11.1096
H -0.645463 14.6996 11.2543
O 5.91466 7.99472 2.82758
H 6.53566 8.77689 2.87858
H 6.0859 7.4877 1.9828
O 13.2218 -5.05884 12.6992
H 12.4134 -4.62555 13.0976
H 12.9412 -5.67525 11.9634
O 14.4425 -10.7557 -8.63055
H 14.05 -10.7384 -7.71095
H -14.5866 -10.3627 -8.60805
O 4.03964 0.153911 11.9343
H 4.71423 0.0234597 11.2077
H 3.19721 0.525609 11.5441
O -10.2835 -11.7588 14.8106
H -9.7403 -11.7074 -14.2997
H -11.0534 -11.1238 14.873
O -8.74658 10.3366 -3.33004
H -7.90968 9.84048 -3.56143
H -9.34192 10.3784 -4.13246
O -6.04656 -3.02886 -7.97645
H -6.911 -3.531 -7.95145
H -5.2926 -3.65276 -7.7707
O -0.0693616 14.7594 13.1382
H -0.494176 14.7188 14.0426
H 0.755135 14.1935 13.1316
O 13.2888 -14.9706 7.2418
H 12.3244 14.7133 7.24056
H 13.8582 14.1617 7.34059
O 9.82129 -11.655 -12.1244
H 9.92217 -11.1486 -11.268
H 9.76253 -11.0112 -12.8873
O -12.6892 -5.60896 -12.3296
H -13.6102 -5.51264 -12.7072
H -12.6684 -6.38132 -11.6947
O 3.29061 -8.07738 0.727653
H 3.41729 -7.29265 0.120871
H 4.04239 -8.11441 1.38605
O 13.0112 -1.65701 -3.80353
H 13.143 -2.15302 -2.94525
H 13.8092 -1.79013 -4.39133
O 6.87746 0.539986 -11.2051
H 7.2881 1.37669 -10.8427
H 6.70413 -0.0982232 -10.4549
O 1.16547 11.8106 -1.08816
H 1.84198 11.4304 -1.7189
H 0.255008 11.7447 -1.49652
O 6.07131 -14.2892 13.1539
H 5.69539 -13.5749 13.7442
H 5.43132 14.892 13.1099
O -11.0468 -0.0945746 -7.93895
H -11.5527 0.353532 -7.20188
H -11.4629 0.137806 -8.81809
O 5.05997 -8.57657 2.98314
H 5.00816 -9.48529 3.39737
H 6.01841 -8.32949 2.84037
O 2.37319 -5.04633 6.43564
H 2.24086 -5.84653 5.85066
H 2.21423 -5.30086 7.38957
O -10.3298 10.655 -5.6173
H -10.7013 9.88843 -6.14112
H -10.7514 11.5068 -5.92853
O -10.5173 12.6017 6.25424
H -10.1422 11.8321 6.77087
H -11.0089 13.2121 6.87538
O 8.30877 0.0656169 -13.6911
H 7.99711 0.41131 -12.806
H 8.94245 0.72181 -14.1009
O -13.011 2.57147 10.3091
H -13.0312 3.48322 9.8988
H -12.0799 2.36046 10.6068
O -9.66373 -3.50523 -6.22322
H -9.00925 -3.96341 -6.82469
H -10.5835 -3.58763 -6.60708
O -13.5048 10.9459 -7.00284
H -13.7745 10.884 -6.04189
H -13.8125 10.1279 -7.48879
O -9.4551 -9.26901 3.54036
H -9.96717 -8.42231 3.68499
H -9.98584 -9.88406 2.95721
O -2.89224 4.64493 -9.82115
H -3.51895 4.61706 -9.04237
H -3.41642 4.73844 -10.6676
O -5.14604 -6.74136 8.09407
H -5.41394 -7.59747 8.53606
H -4.54208 -6.22677 8.70272
O 8.14877 -0.881934 0.0858209
H 8.53669 -1.06903 0.988345
H 7.87678 0.0789145 0.0325857
O 10.814 -1.055 -9.20057
H 11.3393 -0.60868 -8.47607
H 10.1142 -1.64111 -8.79219
O -2.43906 14.8502 4.39429
H -2.25568 -14.1843 4.75645
H -3.42379 14.6767 4.4103
O 6.60189 -0.027505 -8.57633
H 5.77215 0.062322 -8.02541
H 7.19969 -0.717675 -8.16849
O 9.33759 -8.56501 -7.80631
H 8.36205 -8.51418 -7.59237
H 9.72253 -9.39901 -7.41095
O 10.6832 14.1419 8.21626
H 11.0798 14.3094 9.11887
H 9.68558 14.1677 8.28052
O -7.63451 4.14727 -13.5139
H -7.17178 3.76328 -12.7149
H -7.02443 4.10416 -14.3051
O -10.477 8.40733 -10.8537
H -10.1027 9.20799 -10.3858
H -9.73552 7.77417 -11.0758
O -1.26527 8.21465 11.9754
H -0.808619 8.59031 12.7819
H -1.80228 8.93226 11.5319
O 3.64295 -14.0258 -13.66
H 4.32663 -14.1669 -12.944
H 3.88117 -13.2138 -14.193
O 9.20477 -4.98274 0.00199471
H 9.76823 -4.24935 0.382375
H 9.29935 -5.80272 0.566556
O -11.7098 8.11794 1.36691
H -11.141 8.89455 1.63794
H -11.2533 7.60923 0.636909
O -11.5155 11.7486 9.80804
H -11.625 12.4914 9.14754
H -11.4713 10.8752 9.32307
O -13.6543 -1.42288 -14.74
H -13.0944 -1.12914 14.4337
H -13.1687 -2.13095 -14.2273
O -8.01959 -13.5562 14.4449
H -8.23203 -14.2582 -14.8237
H -8.79713 -12.9339 14.3542
O -3.70799 -6.68347 -9.97757
H -2.84544 -7.18496 -9.91011
H -3.8446 -6.38063 -10.9208
O -6.07969 6.32211 12.1366
H -5.11084 6.50945 11.9745
H -6.37154 6.77919 12.9768
O 9.62684 11.3914 -7.66551
H 10.6159 11.3337 -7.52982
H 9.43243 11.5656 -8.63086
O -4.60589 -7.7546 13.6147
H -4.03893 -8.44007 13.1578
H -4.10927 -7.37915 14.3973
O -11.9394 -7.17861 0.728822
H -11.0439 -6.92927 1.09758
H -12.4475 -6.34888 0.497719
O -1.44881 -10.1667 0.19772
H -2.24994 -10.2381 0.791972
H -0.625532 -10.0742 0.757803
O 2.09129 -9.59685 13.935
H 1.89907 -10.4616 13.471
H 1.5714 -8.86206 13.4993
O -1.20281 -1.76006 -8.15689
H -1.80033 -2.56052 -8.20468
H -0.670205 -1.69086 -9.00045
O -14.675 -5.27202 -2.74909
H -13.9997 -5.20724 -2.01436
H -14.7723 -6.22709 -3.02912
O 1.34311 13.4514 1.2432
H 1.21133 13.0448 0.339102
H 2.07665 12.9689 1.72192
O -14.3451 8.45959 -7.99993
H -14.2778 7.6107 -7.47562
H -14.6436 8.25305 -8.93174
O 10.2365 14.0203 -6.06181
H 9.32395 13.6436 -5.90249
H 10.9257 13.3351 -5.82644
O -11.9887 2.57766 -12.1254
H -12.5379 2.94959 -12.8737
H -11.8756 3.27419 -11.4168
O -14.3335 1.80136 14.2175
H -13.7105 1.07059 13.9383
H -14.8423 1.51376 -14.9195
O -3.83383 -2.59918 -10.8881
H -3.64388 -1.63242 -11.0593
H -2.99293 -3.05847 -10.6018
O 9.75563 7.89296 -2.62061
H 9.93454 6.90921 -2.63685
H 10.4666 8.36962 -3.13772
O -10.5127 14.4474 -5.32274
H -10.7687 14.4241 -6.28914
H -9.55262 14.7144 -5.23864
O -14.737 3.65903 12.3608
H -14.4367 2.92422 12.969
H -14.3765 3.49928 11.4417
O -13.8967 -14.0955 -7.72862
H -14.1492 -14.8739 -7.15385
H -14.7203 -13.7007 -8.1358
O 4.6875 3.44686 -3.89381
H 4.41693 4.20117 -3.2956
H 5.54896 3.67413 -4.34796
O -10.703 3.91869 -3.4498
H -11.0352 4.86102 -3.49099
H -11.2899 3.33361 -4.00957
O 3.9708 -7.92911 -6.09602
H 3.90249 -7.12555 -5.5047
H 3.38188 -7.80615 -6.89483
O -13.7114 3.78816 -13.722
H -13.6791 3.56067 -14.6953
H -13.3536 4.71166 -13.5835
O 8.375 -10.5006 8.5743
H 9.03746 -11.1798 8.25832
H 7.76263 -10.9192 9.24503
O 5.87555 -14.9177 -6.69905
H 5.20588 14.8508 -7.41961
H 6.11285 14.173 -6.24287
O -8.42635 4.83797 -9.65025
H -8.50993 3.84165 -9.67022
H -8.93201 5.19924 -8.86678
O -8.43304 -14.2655 6.00284
H -8.85363 -14.6322 5.17299
H -8.85334 -14.6896 6.805
O 12.521 3.7226 13.0406
H 13.5196 3.75052 13.0861
H 12.2385 3.22422 12.221
O -10.4929 -14.3501 -12.7237
H -10.8558 -14.5389 -11.8112
H -10.6491 -13.3892 -12.9524
O 5.28345 12.8308 7.17739
H 5.04322 12.6193 8.12483
H 4.55831 12.5072 6.5695
O -8.10165 14.5975 -13.5247
H -7.36307 -14.9564 -12.978
H -8.98179 14.9279 -13.1838
O -6.55252 3.99447 9.26446
H -7.534 4.17378 9.33206
H -6.40599 3.06031 8.93902
O -4.38682 9.88853 2.10645
H -3.9966 9.10385 2.58816
H -5.37585 9.91116 2.25255
O -2.6375 5.63639 5.78957
H -2.88799 6.55286 6.10163
H -1.6511 5.59662 5.62998
O 5.2151 -4.25293 -10.8672
H 6.20858 -4.28259 -10.757
H 4.78098 -4.21189 -9.96725
O -2.62512 -2.08202 4.08716
H -3.15521 -2.43724 3.31718
H -2.81768 -1.10759 4.20308
O 3.328 9.12331 9.13663
H 3.93618 9.90945 9.0264
H 3.85568 8.27856 9.04731
O -1.82024 2.88542 -3.50619
H -1.96426 2.18158 -2.81056
H -0.963871 3.36728 -3.32052
O -5.85151 -5.28237 -14.4143
H -5.58367 -4.46837 -13.8989
H -5.30349 -6.06281 -14.1133
O 5.03636 13.5911 -4.08135
H 5.15815 14.0161 -3.18438
H 4.05998 13.4907 -4.27282
O -11.1552 4.43161 3.85333
H -11.0593 3.43785 3.79609
H -11.9253 4.72535 3.28707
O -5.84279 9.60625 -10.2376
H -6.26221 9.67067 -11.1431
H -5.94277 8.67412 -9.88949
O 14.4745 8.47063 5.9007
H 13.4753 8.47956 5.9412
H 14.77 8.00764 5.06506
O 13.0861 -1.48696 7.50434
H 12.6832 -2.3184 7.12179
H 13.0913 -1.54778 8.50249
O 4.9506 -14.8524 -1.96598
H 4.38659 -14.5301 -1.20568
H 5.04733 -14.1221 -2.64223
O 2.57965 3.50156 -5.57994
H 3.38638 3.44721 -4.9915
H 2.81925 3.96724 -6.43187
O 10.6931 6.25865 0.363222
H 11.6238 6.48623 0.649531
H 10.7024 5.95373 -0.589133
O -4.85278 0.876977 -8.90651
H -5.46283 0.940552 -8.11668
H -5.33736 0.446786 -9.66819
O 12.3784 -7.25323 -7.73727
H 12.6549 -6.50154 -7.13848
H 11.4675 -7.06789 -8.10598
O 10.5758 -6.91889 -13.7032
H 11.3973 -7.32056 -14.1079
H 10.0283 -6.48681 -14.4198
O 6.83381 10.4227 -14.8192
H 6.30514 9.78029 14.5743
H 6.89484 10.0812 -13.8812
O 5.90626 -2.28477 9.30329
H 6.15438 -3.25265 9.34442
H 5.08828 -2.17406 8.73876
O 7.83756 2.70004 -14.3251
H 6.94332 3.14405 -14.2683
H 7.80606 1.97376 14.9365
O -3.23711 12.7966 -0.579527
H -3.4412 12.43 -1.48727
H -2.5246 12.2426 -0.148816
O -8.11088 9.41753 9.5437
H -7.97901 8.42626 9.54962
H -8.91277 9.65039 10.094
O 9.57384 14.112 -10.4709
H 9.32262 13.2781 -10.9625
H 8.83498 14.3665 -9.84695
O 3.77797 -11.161 -3.10237
H 4.13489 -10.795 -2.24291
H 3.33776 -10.4273 -3.61989
O -2.2882 -13.6515 1.96428
H -2.38066 -12.774 2.43486
H -2.49981 -14.3943 2.5995
O 4.89291 13.2816 10.6008
H 5.42375 14.1259 10.5275
H 3.91716 13.5006 10.6039
O -12.5858 6.90355 -10.1607
H -13.3763 7.08081 -10.747
H -11.8317 7.50378 -10.4274
O -2.96418 -9.78064 12.385
H -3.30613 -10.6216 11.9657
H -2.22265 -9.4077 11.8273
O 0.948034 9.47286 -5.50578
H 0.741737 8.95737 -6.3375
H 0.6086 8.97133 -4.70998
O -8.88053 -3.56956 3.95364
H -8.73447 -4.45278 4.3993
H -9.83873 -3.3009 4.05217
O 9.08053 4.22912 8.27361
H 9.94932 3.73709 8.21747
H 8.91626 4.50856 9.21964
O 3.90224 -2.52065 7.32652
H 3.66193 -3.43657 7.005
H 4.37362 -2.02445 6.59738
O 2.55659 14.0642 -4.43743
H 2.20776 -14.9741 -4.2137
H 1.85143 13.381 -4.24757
O -12.6876 10.0491 -12.2882
H -11.8386 9.85408 -11.797
H -13.445 9.56527 -11.8496
O -3.60471 -14.8682 11.9153
H -4.4883 14.8159 12.3019
H -3.53916 -13.8708 11.8847
O 0.468657 10.0188 -11.6087
H 1.36578 10.03 -11.167
H -0.239954 9.86447 -10.9201
O 13.9424 11.1032 -2.60064
H 13.4027 11.9403 -2.51143
H 13.8512 10.5574 -1.76765
O 6.71679 -7.97453 -5.30971
H 6.87825 -7.12355 -4.8099
H 5.7386 -8.18233 -5.30681
O 10.721 -8.14961 -11.111
H 10.6241 -8.14427 -12.1063
H 11.0537 -7.25802 -10.8037
O 1.55896 3.9507 3.80588
H 2.12208 4.69953 4.15544
H 0.592158 4.18581 3.90612
O -13.7533 -12.2239 -12.8996
H -14.6468 -12.0089 -12.5054
H -13.4104 -13.0756 -12.5033
O 7.17421 9.46923 -10.6357
H 6.30564 9.69869 -11.075
H 7.02673 9.3341 -9.65588
O -3.4316 -5.21017 4.93402
H -4.06633 -5.95496 5.14004
H -3.7929 -4.3531 5.30136
O -12.3539 -3.05836 -13.1663
H -11.5879 -3.05043 -13.8091
H -12.5391 -3.99845 -12.88
O 14.5367 0.475341 -13.6908
H 13.6071 0.126946 -13.5709
H -14.7896 -0.287923 -13.8654
O -1.52666 -10.5179 -6.88061
H -0.601799 -10.5181 -7.26096
H -1.49625 -10.2074 -5.9305
O -1.55442 -12.8017 -4.32602
H -2.01744 -13.3046 -5.05587
H -1.07452 -13.4455 -3.73006
O 13.0732 0.772133 5.80531
H 12.5782 0.610777 4.95154
H 12.9577 -0.0148349 6.41143
O -7.33205 9.96224 2.00662
H -7.14883 9.31367 1.26782
H -8.06055 10.588 1.72778
O -10.7779 9.78475 -1.16908
H -10.8913 10.4169 -0.40259
H -10.013 10.0854 -1.73874
O 14.9273 -5.45671 -13.4312
H 14.766 -4.59058 -13.9043
H 14.0912 -6.00526 -13.4459
O 1.93665 -2.30069 9.08888
H 1.13232 -1.91544 8.63645
H 2.68604 -2.37414 8.43081
O 11.5004 -9.37652 11.1326
H 11.3565 -10.2747 11.548
H 12.4724 -9.14423 11.1691
O -1.13149 12.6938 3.50647
H -1.40773 13.4875 4.04843
H -0.138937 12.7024 3.38476
O 6.5858 -3.45577 0.195416
H 7.37051 -4.06911 0.285323
H 6.90628 -2.53477 -0.0261555
O 7.6605 -12.9519 -6.42031
H 7.08814 -13.7371 -6.65691
H 7.88405 -12.4403 -7.24997
O -1.53863 -5.10087 7.05661
H -1.26037 -4.18132 6.77905
H -2.46978 -5.27784 6.73774
O -2.78668 3.08279 -6.15929
H -2.63493 2.25971 -6.7066
H -2.56468 2.89275 -5.20292
O -8.05783 9.80619 14.5301
H -8.69325 10.3732 -14.8941
H -8.20027 9.96239 13.5527
O 13.4866 14.2545 -12.0077
H 12.7476 14.9282 -12.001
H 13.7747 14.0665 -11.0687
O -10.3644 1.3659 1.43484
H -9.4827 0.903074 1.52718
H -10.3452 1.96259 0.632575
O -11.0326 -11.7563 -11.3924
H -11.8193 -11.2769 -11.7815
H -11.2358 -12.0194 -10.4492
O -5.86459 -3.71313 -4.7334
H -4.87304 -3.63075 -4.63296
H -6.17599 -3.11291 -5.47015
O 8.89751 1.03392 13.1373
H 8.30136 1.52768 12.5042
H 8.5014 0.137897 13.338
O 0.366034 11.1321 -14.6297
H -0.419999 10.7101 14.8669
H 0.116616 11.3861 -13.6952
O -6.71543 -9.76037 14.5237
H -7.67784 -9.59471 14.739
H -6.24842 -8.88619 14.3904
O 11.1051 2.73799 2.63338
H 11.4973 1.88011 2.96549
H 10.2873 2.95848 3.16493
O -2.75225 -13.5857 -11.782
H -3.00974 -12.7159 -11.3611
H -2.91705 -13.5408 -12.7674
O -10.1508 -12.2748 5.23015
H -9.81705 -11.3507 5.41631
H -9.42799 -12.9366 5.42888
O 4.23494 2.1574 3.04776
H 3.39387 2.68956 3.14502
H 4.894 2.67278 2.49998
O 1.61525 6.18813 -13.0148
H 0.819767 6.70149 -13.3368
H 2.20826 5.97129 -13.7902
O 8.97005 11.5836 -11.3584
H 8.31629 10.8528 -11.1619
H 9.26026 11.5232 -12.3135
O 2.9824 12.9699 -7.66356
H 2.28939 12.6679 -8.31821
H 3.76198 13.3552 -8.15738
O -13.2391 -4.56057 -0.196563
H -13.7864 -3.86466 0.268433
H -12.3491 -4.17594 -0.44153
O 5.37242 9.08129 -4.14049
H 5.17823 9.72318 -4.88231
H 6.35032 8.8725 -4.12781
O -14.7584 7.59671 -11.5444
H 14.2781 7.99113 -11.6585
H -14.4155 7.28773 -12.4315
O 6.66668 -7.98356 -8.78016
H 6.39705 -7.98498 -7.81718
H 6.52447 -8.8945 -9.16747
O -11.5668 -9.34306 12.8496
H -12.1223 -9.78801 13.552
H -12.1198 -8.66242 12.3689
O 1.3544 -4.79086 9.99519
H 1.3219 -3.85339 9.64858
H 1.76971 -4.79569 10.9049
O -10.474 -9.10602 9.22533
H -10.0141 -8.23861 9.41553
H -10.258 -9.76316 9.94752
O -6.89529 -10.295 11.5448
H -6.51497 -10.3453 12.4683
H -7.89267 -10.2448 11.5974
O -5.68597 -11.0852 7.79083
H -5.99676 -11.471 6.92213
H -5.23577 -11.7973 8.32966
O 11.8573 1.05864 -0.0882142
H 12.8215 1.27698 0.0624148
H 11.3302 1.29646 0.727708
O 11.5421 9.02995 6.24786
H 10.9146 8.45838 5.71901
H 11.5239 9.96375 5.89046
O -11.5776 -3.1392 4.9404
H -12.3815 -2.66779 5.30303
H -11.2912 -3.85117 5.58159
O 12.8528 4.41118 0.908844
H 13.1742 3.48805 0.697778
H 11.9665 4.35843 1.36904
O -10.5278 14.4148 1.56877
H -9.8169 -14.8839 1.2993
H -11.3087 14.4996 0.949903
O 2.75101 10.1526 -2.87306
H 3.40226 9.4034 -2.99411
H 2.1557 10.2095 -3.67455
O -5.38149 10.4237 6.644
H -4.64057 9.7596 6.74394
H -6.25757 9.97471 6.81978
O 13.0534 -1.31019 1.31144
H 13.6493 -1.36429 0.510187
H 13.4187 -1.89161 2.03843
O 6.4114 9.07418 -8.08153
H 6.69691 9.74195 -7.39407
H 5.42624 8.91948 -8.00699
O -3.20821 14.8133 -9.12832
H -2.65748 14.2142 -8.54703
H -2.638 -14.3899 -9.47399
O 1.49474 -9.55776 -4.55758
H 0.560278 -9.6874 -4.22591
H 1.59847 -10.006 -5.44551
O 7.03709 -5.00945 -4.77804
H 7.30872 -4.17648 -4.29595
H 6.99958 -4.82858 -5.76085
O -9.78561 -13.5641 10.5704
H -9.70612 -14.5196 10.8544
H -10.5494 -13.4685 9.93202
O 12.6522 5.20557 -12.0564
H 12.6849 5.69533 -12.9277
H 13.3298 4.47014 -12.0618
O -10.8402 3.54104 -7.33351
H -10.4859 4.47297 -7.25616
H -10.4979 2.99002 -6.57244
O -4.95519 14.3154 7.30314
H -5.43633 14.2124 8.17373
H -5.37927 13.7254 6.61607
O -10.8878 1.53402 4.03529
H -10.0918 1.36044 4.61516
H -10.6811 1.26245 3.09533
O 12.2876 11.8809 2.56693
H 12.3187 11.9318 1.5687
H 13.0595 12.3878 2.95073
O 8.75839 14.589 11.9238
H 8.85079 13.626 11.6706
H 8.21862 14.6628 12.7624
O 0.975172 2.59825 13.9663
H 0.284173 3.13167 14.4542
H 0.534531 2.0589 13.2487
O -13.973 -5.13667 5.66456
H -14.2643 -4.28402 6.09839
H -13.3799 -5.64336 6.29027
O -12.6042 -5.82502 -5.15263
H -12.0029 -5.22932 -4.62009
H -13.3672 -6.12592 -4.58046
O 11.8166 -3.79478 6.87844
H 11.0754 -4.36183 7.23763
H 12.5635 -4.38153 6.5655
O 12.0483 12.1984 13.1774
H 12.5952 11.3669 13.0805
H 12.3476 12.7017 13.9881
O -4.11039 11.723 -2.71416
H -4.23718 10.738 -2.59725
H -4.98694 12.1887 -2.59236
O -13.3885 -8.36566 3.4592
H -13.8833 -7.50633 3.32989
H -13.6026 -8.98992 2.70789
O 12.7439 7.0539 9.6521
H 13.3209 6.69415 8.91889
H 11.8691 7.35341 9.27125
O -4.8069 -11.561 -1.95455
H -5.47866 -12.2182 -2.2964
H -4.24581 -11.9942 -1.24919
O -6.56534 -0.513146 -7.00355
H -7.52673 -0.743184 -6.85241
H -6.03831 -1.35285 -7.13463
O -10.4929 -4.50963 -3.6457
H -10.2149 -4.42998 -4.60301
H -9.68818 -4.68507 -3.07848
O -9.08788 -10.9683 -3.89467
H -9.18838 -10.288 -3.1686
H -8.91127 -10.5051 -4.76321
O -10.9703 1.79651 13.8231
H -10.2878 1.76623 14.5534
H -11.6837 1.11979 14.0054
O -7.37324 8.65942 -12.629
H -7.73049 7.83533 -12.1894
H -7.90888 8.85825 -13.4498
O 3.12971 -7.29799 4.67516
H 3.92874 -7.45595 4.09496
H 2.41359 -6.84857 4.14109
O -7.05195 -4.90896 -0.353386
H -7.62992 -5.31338 -1.06221
H -6.53682 -5.63085 0.108719
O 8.08371 8.64441 -4.79752
H 7.73555 9.47819 -5.22606
H 8.33463 8.83701 -3.84884
O -12.7989 12.6943 -11.432
H -12.5273 11.8197 -11.8336
H -13.5564 12.548 -10.7957
O -3.38236 -13.2117 8.21872
H -2.72186 -13.1967 7.46802
H -4.16733 -13.775 7.96083
O 1.51707 6.96097 -10.0463
H 1.0106 6.53819 -9.2948
H 1.54572 6.33284 -10.8239
O 11.5393 14.496 4.53505
H 10.6943 13.9812 4.38992
H 12.3224 13.8783 4.4627
O 14.2651 5.37097 -1.1463
H -14.7652 5.09412 -0.862788
H 13.6046 5.10312 -0.444766
O -1.73545 2.659 4.53294
H -1.83289 3.38703 3.85431
H -1.52238 3.06014 5.42385
O -3.38673 7.25267 -6.83374
H -4.01419 6.5563 -7.18216
H -2.51335 7.18577 -7.3162
O -3.22654 10.0923 11.6325
H -2.8354 10.9133 11.2165
H -4.16191 9.96474 11.3026
O 3.41464 -11.8294 9.69379
H 3.73381 -12.546 9.07354
H 4.13584 -11.1472 9.81415
O -8.73112 5.62261 3.3742
H -9.63722 5.2126 3.47873
H -8.75986 6.57582 3.6752
O -3.19298 -13.8611 -14.365
H -3.57342 -13.4277 14.7663
H -3.68556 -14.7111 -14.1785
O -14.7529 -8.06641 -8.03039
H 14.2382 -7.80768 -8.15954
H -14.1658 -7.28182 -8.22973
O 7.2616 -7.70782 -2.34378
H 7.13551 -8.56107 -2.84984
H 7.9331 -7.84797 -1.61612
O -2.82955 -4.25903 -8.36923
H -3.18016 -4.70817 -9.19105
H -2.6787 -4.94217 -7.65466
O 8.05882 -2.2027 -7.637
H 7.49316 -2.98316 -7.90333
H 7.99887 -2.06976 -6.64767
O -8.86613 -11.7158 -12.7671
H -9.66276 -11.8339 -12.1743
H -8.20243 -12.4406 -12.5819
O -8.00601 1.37403 12.0601
H -8.11496 2.10878 12.7297
H -7.108 1.44868 11.6265
O 0.312558 8.90605 -8.26402
H -0.483906 9.32884 -8.69638
H 0.810767 8.36406 -8.94084
O -3.7614 7.85048 -11.2775
H -3.95608 6.8699 -11.2529
H -4.21473 8.26049 -12.069
O 11.3512 1.22684 14.2907
H 10.5274 0.995957 13.773
H 11.963 1.77233 13.7178
O 14.3079 2.77036 -7.98146
H 14.2426 2.04666 -8.66851
H 14.0497 3.6446 -8.39264
O -0.757304 -5.55317 3.89344
H -0.479594 -4.61582 3.683
H -1.73387 -5.57128 4.10796
O 8.27161 6.63599 -8.6031
H 8.05434 5.86325 -8.00668
H 7.68843 7.41336 -8.36724
O -4.10951 -9.48434 1.15831
H -4.68479 -9.7432 1.93425
H -4.68359 -9.3331 0.353575
O -14.3399 -10.3096 1.6255
H -14.0488 -11.0992 1.08517
H -14.9419 -10.6145 2.36349
O -13.419 8.9238 8.28358
H -13.457 9.18498 9.24814
H -14.3448 8.74651 7.94952
O -2.04777 3.07734 -0.386536
H -1.80521 2.12877 -0.183026
H -1.36833 3.68933 0.0182624
O 3.2652 -5.90398 -1.0508
H 2.40101 -6.03847 -1.5357
H 3.95369 -5.55577 -1.68701
O -9.51813 10.5431 -9.50827
H -9.97691 11.2523 -8.97291
H -8.53207 10.7096 -9.50643
O -10.516 11.2024 1.16874
H -11.3522 11.4727 1.64582
H -9.9397 12.0068 1.0244
O -13.5515 -6.92374 7.88594
H -12.735 -7.14129 7.35113
H -13.2927 -6.76072 8.83803
O -10.6897 -11.5444 2.07602
H -11.5756 -12 2.16338
H -9.99769 -12.2114 1.79982
O -11.4285 5.53341 -14.5362
H -11.2799 5.16457 14.4946
H -10.5503 5.7948 -14.1357
O 5.81522 -10.5068 -9.54507
H 5.27434 -10.9505 -10.2597
H 5.42085 -10.716 -8.65022
O 14.1966 -9.63351 11.4432
H 14.5145 -10.4028 10.889
H 14.9439 -8.98073 11.5673
O -12.0107 8.24495 6.16481
H -11.9904 9.07594 5.60886
H -12.5659 8.40359 6.98128
O -9.46863 9.61821 6.37638
H -8.81873 9.33575 7.08198
H -10.0939 8.86346 6.17773
O 12.1403 12.6344 0.0332932
H 12.1357 12.5941 -0.965903
H 12.2385 13.5849 0.328092
O 5.44356 11.0291 12.3785
H 6.41035 10.8642 12.574
H 5.35512 11.8293 11.7854
O 13.5856 -9.4934 -5.90811
H 13.9214 -8.95035 -5.13845
H 13.2977 -8.88314 -6.64618
O 14.6055 2.73441 -11.7009
H 14.4335 2.1802 -12.5153
H -14.5683 3.34388 -11.87
O 2.37633 12.3024 6.04745
H 1.91055 11.4345 5.87491
H 1.69753 13.0177 6.21355
O 2.61119 4.27923 -11.0379
H 2.14478 4.39516 -11.9148
H 3.521 4.69138 -11.0872
O -8.71383 -14.0053 -9.83859
H -9.68916 -14.2039 -9.74211
H -8.49829 -13.1535 -9.36095
O -12.2999 -7.26132 -10.3562
H -11.3453 -7.53274 -10.2329
H -12.6201 -6.78679 -9.53626
O -1.08263 -7.66228 -7.79545
H -0.214996 -7.35539 -7.40421
H -1.0061 -7.69431 -8.79202
O -3.261 -11.5741 3.78758
H -3.06829 -10.6816 4.1954
H -4.22913 -11.6266 3.54262
O 11.3032 -5.1977 -10.6625
H 10.855 -5.07035 -11.5474
H 10.6109 -5.34866 -9.95686
O 6.7423 -7.5688 14.2571
H 6.734 -6.59982 14.5042
H 7.54531 -8.00852 14.6594
O 1.13271 -10.3861 -7.74965
H 1.24243 -10.7114 -8.6889
H 1.47819 -11.0774 -7.115
O -9.46214 -10.7932 11.6356
H -10.3512 -10.421 11.9022
H -9.59704 -11.622 11.0925
O -1.92778 -0.305304 -14.1345
H -1.36498 0.368363 -14.6135
H -2.68655 -0.584636 -14.7229
O -4.72282 3.15854 0.0577248
H -3.85123 3.47025 -0.320721
H -4.57554 2.79348 0.977006
O 5.55492 3.82995 1.26886
H 6.04694 4.46559 1.86378
H 5.60807 4.14981 0.322867
O 1.7053 -9.51083 10.2428
H 2.28467 -8.69671 10.2031
H 2.27025 -10.3279 10.1277
O 4.25706 0.491382 -7.03505
H 3.9471 0.786107 -7.93898
H 3.47286 0.42933 -6.41762
O 11.4263 -10.768 -7.07669
H 11.015 -11.648 -6.83903
H 12.1886 -10.5784 -6.45786
O 13.8202 5.94696 3.40298
H 14.6496 6.50354 3.45032
H 13.3229 6.16067 2.5621
O -6.77603 6.46434 -6.35667
H -6.12978 7.13479 -6.72122
H -6.2968 5.84151 -5.73824
O 2.84477 -9.66823 6.10549
H 1.90508 -9.97311 6.26065
H 2.83556 -8.76596 5.67437
O 4.3937 -12.7463 -5.503
H 4.2395 -12.5554 -4.53356
H 5.02034 -13.5202 -5.59476
O -5.85655 14.3337 -3.91588
H -6.45096 13.5299 -3.89026
H -5.22481 14.2566 -4.68724
O 8.9013 1.16541 -2.98758
H 7.95476 0.888889 -2.82129
H 9.48813 0.355751 -2.9982
O -0.519114 -2.57042 5.76509
H 0.193606 -3.01025 5.21863
H -1.33205 -2.42822 5.20033
O 11.1709 5.8966 -7.21136
H 11.8235 5.30676 -7.68699
H 10.2391 5.62283 -7.44963
O -5.61672 -5.35874 2.24589
H -4.81685 -5.44565 2.83978
H -5.86115 -6.25768 1.88229
O 9.84267 -2.69308 11.1409
H 10.348 -1.89587 10.8105
H 8.96057 -2.39942 11.5093
O -8.0582 -11.8419 -7.92737
H -7.45687 -11.4629 -8.63079
H -7.87932 -11.3866 -7.05521
O -6.70821 -9.70591 2.56581
H -7.66413 -9.55272 2.81642
H -6.49624 -10.6804 2.63992
O -6.99497 -13.1047 10.8195
H -6.73737 -12.2635 11.2949
H -7.99121 -13.1911 10.811
O 12.218 10.5589 -9.88926
H 12.4997 10.636 -8.93286
H 11.233 10.392 -9.93414
O -8.22754 -7.13509 6.95488
H -8.07446 -8.07735 6.65697
H -8.21791 -7.0957 7.95408
O -7.63967 -6.8257 -12.9304
H -6.94193 -6.28384 -13.399
H -7.22145 -7.65077 -12.5504
O -3.97123 -9.53774 -7.6032
H -4.27199 -8.58684 -7.6765
H -2.97181 -9.57171 -7.59721
O -0.0962076 6.07987 4.41501
H 0.724335 6.20271 4.97327
H 0.0804622 6.40633 3.48643
O -5.85845 -12.2634 -14.7839
H -6.63191 -12.7564 14.7661
H -5.97067 -11.2825 -14.9432
O -8.09658 12.4326 0.645341
H -8.38904 13.3522 0.382787
H -7.1398 12.4572 0.935179
O -5.55066 -11.0429 -9.24588
H -4.94919 -10.5023 -8.65765
H -6.03622 -10.4353 -9.87445
O -2.81044 12.4492 7.30779
H -3.11969 11.9375 6.50618
H -3.38601 13.2579 7.42946
O 11.8695 9.2918 -3.97553
H 12.1364 8.70578 -4.74063
H 12.6087 9.3186 -3.30254
O -4.31401 -4.86108 -2.16212
H -4.14088 -4.16062 -1.46971
H -3.83351 -5.70197 -1.913
O 5.3642 -6.67355 -13.2539
H 5.163 -5.69413 -13.2709
H 6.07404 -6.85621 -12.5736
O -11.6297 4.37216 -10.2485
H -11.3889 4.17639 -9.29783
H -11.8971 5.33198 -10.3337
O 12.7495 -12.9615 9.25197
H 13.1767 -13.422 10.0301
H 13.2124 -13.2336 8.40835
O 2.39544 -12.2484 0.978232
H 1.60968 -12.4382 0.389496
H 2.4457 -12.9388 1.6999
O 0.352677 -12.8254 -0.814458
H -0.292603 -12.1392 -1.15016
H -0.129823 -13.6866 -0.654626
O -13.22 -14.5882 0.275888
H -13.3681 14.7052 -0.465159
H -13.2169 -13.6597 -0.0955388
O -11.0859 -13.1246 -4.03418
H -10.2957 -12.5234 -3.9154
H -10.8033 -13.9558 -4.51315
O 1.79018 -13.1533 -3.1642
H 2.50966 -12.5059 -2.91254
H 1.2602 -13.3951 -2.35139
O -7.313 11.4214 -6.82241
H -8.01688 11.4937 -6.11575
H -6.87146 10.5261 -6.76272
O 9.73133 -5.92336 -8.47032
H 9.2433 -6.77826 -8.29421
H 9.93619 -5.47153 -7.60204
O -13.0733 2.14746 -7.10183
H -13.976 2.32992 -7.49157
H -12.3922 2.7226 -7.55493
O 13.2375 -7.79447 -13.3362
H 13.8361 -7.99861 -14.1109
H 13.4294 -8.43165 -12.5898
O 9.28391 7.73378 13.4413
H 9.82171 8.4486 13.8883
H 9.89948 7.07235 13.0128
O -0.199247 -11.4721 -12.8086
H 0.0937594 -12.3076 -13.2734
H 0.542334 -10.8015 -12.8293
O -14.9253 -3.48873 -5.13591
H -14.4365 -3.93167 -4.38428
H -14.2657 -3.10611 -5.78285
O -14.6906 -3.32799 12.0707
H 14.6168 -4.03175 12.3773
H -13.8417 -3.76008 11.7664
O 7.01088 1.81939 -0.0358873
H 7.68676 2.55643 -0.0354818
H 6.23365 2.07957 0.537043
O 3.26739 9.6145 12.0299
H 4.11161 10.1101 12.2341
H 3.31751 9.23766 11.105
O 11.7196 -1.35508 -14.5832
H 11.4379 -0.496381 14.937
H 11.5033 -1.32752 -13.6072