2611
Atoms. Timestep: 23000000
O 5.49678 -11.1023 -7.78779
H 4.51202 -10.9391 -7.84805
H 5.96838 -10.554 -8.47839
O 5.03271 -3.78101 -1.35264
H 4.25953 -4.14287 -1.87347
H 4.71438 -3.05208 -0.746556
O 0.569338 8.68829 12.95
H -0.304395 9.14407 13.1198
H 0.786923 8.08743 13.7191
O -2.74118 8.20543 13.5317
H -2.39327 9.09565 13.8258
H -2.67971 7.55649 14.2901
O 6.51197 14.454 -3.0861
H 5.72515 14.94 -3.46655
H 6.95345 13.919 -3.80643
O 6.11117 -2.42307 6.37222
H 6.61518 -3.1316 6.86613
H 6.75332 -1.74465 6.01529
O -11.0209 -5.72268 -14.367
H -11.1925 -4.78514 -14.0644
H -11.6542 -5.95596 14.943
O 9.27258 9.11635 11.225
H 8.81661 9.96116 10.945
H 8.88025 8.79579 12.0872
O 0.182324 -8.20751 9.31315
H 0.644231 -7.3734 9.61466
H 0.0158065 -8.79985 10.1014
O -7.87123 13.9658 -10.2217
H -8.09679 13.1323 -10.7261
H -7.02092 14.352 -10.5793
O -3.47607 -2.66258 -1.63141
H -2.51103 -2.41179 -1.55515
H -3.55097 -3.60026 -1.97075
O 13.1262 -6.54117 -12.3714
H 13.9998 -6.20783 -12.0168
H 13.2939 -7.20974 -13.0959
O -4.9538 -3.54399 2.71859
H -5.80974 -3.13758 3.03828
H -4.59024 -3.00228 1.9607
O 0.701868 -5.93482 10.6402
H 0.925926 -5.05342 10.2243
H 0.157727 -5.78516 11.4657
O 13.7275 3.99326 -6.04603
H 12.9473 3.80507 -6.64264
H 13.9235 4.97384 -6.05296
O -4.86771 -2.7088 5.70522
H -5.01699 -1.7658 5.40779
H -4.29487 -3.18255 5.03632
O -0.442572 8.61645 -6.09794
H 0.151522 7.81688 -6.18598
H -0.477143 8.90219 -5.14026
O -11.2444 -12.8205 7.68062
H -10.6192 -13.5081 7.31138
H -11.4281 -13.0196 8.64322
O -8.64184 -14.38 8.13846
H -7.66378 -14.524 8.28898
H -8.94434 -14.9319 7.36134
O -4.33665 5.60767 -0.370272
H -4.33014 6.5097 0.0613499
H -5.01402 5.02695 0.081336
O 5.40893 12.2777 -0.809709
H 4.85773 12.2223 0.0228248
H 5.30843 13.1858 -1.21623
O -12.4933 -0.479987 -3.37998
H -12.0805 0.426064 -3.47322
H -13.2396 -0.575649 -4.03866
O -11.897 12.4717 8.79872
H -12.0751 12.9763 7.95392
H -10.9112 12.346 8.91029
O -3.83046 -6.53333 1.54311
H -4.32923 -5.98941 2.21793
H -3.13241 -7.07991 2.00568
O 5.71521 4.25317 9.40034
H 6.50208 4.25986 8.78326
H 5.04931 4.93554 9.09876
O 8.30865 0.757343 0.30014
H 7.75642 0.180981 0.902517
H 8.44555 1.65104 0.727416
O 2.16552 9.86184 -6.53832
H 3.06426 9.60344 -6.89258
H 1.45513 9.53676 -7.16255
O -10.3335 -1.60472 9.6919
H -10.6853 -2.08768 8.89005
H -10.1653 -2.25991 10.4284
O -1.33341 -4.90051 -7.95976
H -0.523051 -4.31603 -8.00113
H -1.05411 -5.84628 -7.79389
O -3.09629 -13.9754 -4.21758
H -3.68046 -14.6476 -3.76265
H -3.35851 -13.903 -5.17986
O -6.20149 -14.222 -7.46731
H -7.09706 -14.6511 -7.58488
H -5.58057 -14.8643 -7.01792
O 11.642 -10.5648 7.82486
H 11.8172 -10.6002 8.80875
H 11.1684 -11.3983 7.54042
O 5.6435 -7.60086 11.8126
H 5.61594 -6.6025 11.8629
H 4.80195 -7.93666 11.3895
O -2.17632 -8.30279 3.0381
H -1.94154 -8.9787 2.33951
H -1.87025 -8.62809 3.93282
O -14.5878 -9.18769 12.0847
H -14.187 -10.0328 11.731
H 14.7764 -8.84738 11.4391
O 4.26044 -1.6045 0.0174017
H 4.47416 -1.63257 0.993897
H 4.21296 -0.652878 -0.286188
O 10.3692 -10.4871 -5.04447
H 10.4173 -9.71901 -4.40595
H 9.46053 -10.9022 -4.99861
O 1.9217 0.980977 10.9608
H 1.08497 1.37236 10.5777
H 2.60306 1.70309 11.0804
O 10.1318 7.60541 -14.9187
H 9.59682 6.77994 14.9491
H 10.2398 7.72379 -13.9316
O -4.2203 -2.05041 8.21322
H -4.82322 -2.49655 8.87462
H -4.61878 -2.12052 7.29872
O 2.65177 -1.31791 -9.02667
H 3.18376 -0.638843 -9.53251
H 2.04033 -0.852853 -8.38647
O 7.33321 -2.01033 0.495366
H 8.30619 -2.23708 0.451758
H 6.91077 -2.18189 -0.394639
O -2.47905 -4.64459 4.55021
H -3.32873 -5.10495 4.80732
H -2.25336 -4.86684 3.6017
O -4.12548 8.90478 -12.9373
H -4.68557 8.83419 -13.7627
H -3.3432 8.28627 -13.0114
O -9.30971 -0.140393 -1.1905
H -9.15603 -0.0810799 -2.17684
H -10.2858 -0.038654 -0.998535
O 14.0993 -3.91666 -13.2366
H 13.6756 -3.48468 -14.0327
H 13.6352 -3.61119 -12.4052
O -0.894875 -7.33409 -12.0626
H -1.38192 -7.71393 -12.849
H -0.0239499 -6.94686 -12.3651
O -1.07838 -9.51599 -2.94882
H -0.245047 -9.15094 -3.3639
H -0.840696 -10.0463 -2.135
O 0.11348 13.3211 9.05563
H 0.576763 13.3907 9.93911
H -0.49423 12.527 9.05953
O 11.2821 -6.7568 3.88832
H 10.9686 -7.194 4.73128
H 12.0997 -7.2255 3.55388
O -1.38161 10.3043 14.354
H -1.50803 10.4345 -14.7105
H -1.17503 11.1838 13.9253
O -13.5363 5.74947 0.571679
H -13.202 4.94991 1.07063
H -12.7649 6.33835 0.330478
O 5.41981 -3.10068 9.90775
H 4.7783 -3.74634 10.322
H 5.93673 -3.56105 9.18605
O 12.336 3.77549 6.87242
H 12.8917 3.15815 7.42932
H 11.5508 3.27712 6.50486
O -2.84524 5.66525 -14.9474
H -3.48971 5.75473 -14.1881
H -2.67417 4.6965 14.9209
O 11.7258 -14.1037 4.79709
H 12.6387 -14.3957 5.08248
H 11.1857 -13.8627 5.60342
O -14.4826 9.88275 4.80965
H -14.939 10.2716 4.00939
H -13.9939 10.6054 5.29857
O 3.30953 -9.26209 -3.90248
H 2.54443 -9.2132 -4.54453
H 3.26661 -10.1244 -3.39784
O -4.55267 1.94053 7.89836
H -4.1272 2.81618 7.66986
H -4.34682 1.2731 7.1827
O -1.53047 11.0043 9.47657
H -2.45415 10.64 9.59528
H -1.1313 11.1991 10.3725
O 1.67293 -4.12494 14.8546
H 0.875372 -3.80988 14.3401
H 2.50659 -3.79188 14.414
O -10.4657 14.5211 6.37373
H -10.2068 13.6263 6.73759
H -10.9684 14.4001 5.51779
O 2.48824 2.6943 -11.9828
H 2.30373 1.74872 -12.2508
H 2.89278 2.70866 -11.0684
O -3.57576 0.250857 6.05519
H -3.0844 0.299955 5.18562
H -3.08487 -0.354548 6.6817
O -1.38571 11.3187 3.07987
H -0.59265 11.3413 3.6886
H -1.69905 10.3748 2.97557
O -11.8461 -6.67604 1.69423
H -11.9136 -5.73802 1.35428
H -12.6538 -7.19252 1.40997
O -5.28979 13.0194 6.6307
H -5.74035 13.4448 5.8458
H -4.55094 12.4267 6.31002
O -2.55045 -0.0324945 3.57854
H -2.69981 0.778405 3.01273
H -3.02792 -0.813019 3.17505
O -2.10157 3.14585 14.843
H -2.32818 2.37429 -14.6105
H -1.23629 2.96385 14.3759
O 5.79767 -7.24797 -10.4998
H 5.23425 -6.98096 -11.2816
H 5.70914 -8.23206 -10.3458
O -2.89853 3.94529 7.30478
H -2.01475 3.49439 7.42979
H -2.82546 4.62551 6.57542
O -5.57336 10.4378 1.48433
H -5.26262 9.60619 1.0241
H -6.55411 10.3707 1.6677
O 2.87509 -6.35928 8.1068
H 1.89704 -6.17785 8.2093
H 3.23095 -5.83934 7.33024
O 14.824 8.11682 -11.8603
H 13.939 8.49306 -11.5859
H -15.0041 8.42332 -12.7865
O 8.00041 14.8155 -1.09587
H 7.37706 14.6211 -0.338461
H 7.54892 14.6021 -1.96227
O -11.6242 -9.73219 -11.7066
H -10.8772 -9.87567 -11.0574
H -11.761 -8.75143 -11.8459
O 0.855369 -12.876 -3.8855
H 1.80983 -12.7101 -3.63753
H 0.319441 -13.0398 -3.05727
O -1.72721 -12.3548 -11.4489
H -2.31247 -11.6398 -11.8312
H -1.44674 -12.9806 -12.1768
O -8.25261 -12.262 0.0881992
H -7.60029 -11.5781 0.414804
H -8.06281 -13.1401 0.527459
O 9.53904 8.18126 -1.93737
H 10.4717 8.30102 -2.27771
H 8.88865 8.48728 -2.63261
O -4.90675 13.4676 -9.22804
H -3.95176 13.2893 -8.99093
H -5.14369 14.4054 -8.97431
O 6.67151 1.41736 -6.80669
H 6.07973 0.614336 -6.73632
H 7.60884 1.12505 -6.99637
O -0.497833 13.7878 -0.910427
H -1.29512 13.3539 -0.490774
H 0.181508 13.0894 -1.13596
O -9.24362 7.10375 -3.91526
H -9.01882 7.78267 -4.61421
H -9.68894 7.55588 -3.14242
O -12.5764 10.8219 0.694339
H -13.2009 10.111 0.370696
H -12.7963 11.0523 1.64226
O -7.15762 -6.2464 7.80447
H -7.08387 -5.28815 7.5282
H -7.14642 -6.82933 6.99203
O 9.41944 5.06171 -3.5627
H 9.58458 5.97768 -3.19699
H 8.44381 4.85026 -3.50396
O 8.43502 -0.150135 -4.26198
H 8.8161 0.7448 -4.49408
H 7.92377 -0.0826717 -3.40519
O 2.88103 -9.08187 -7.87217
H 3.72582 -8.66992 -7.53065
H 2.12579 -8.43632 -7.75866
O 13.6328 -12.0452 14.0916
H 14.278 -11.3919 14.4878
H 14.0421 -12.9576 14.0882
O -10.1555 -1.58201 3.62847
H -11.0499 -1.15214 3.75196
H -9.99485 -1.7435 2.65475
O 6.77392 -12.9217 -14.638
H 6.13801 -13.387 -14.0222
H 7.49093 -12.476 -14.102
O -6.11428 -10.1955 -3.06208
H -5.19967 -9.80336 -3.16064
H -6.67195 -9.59961 -2.48423
O 4.07041 4.12647 -1.54795
H 3.15762 4.45398 -1.3039
H 4.65689 4.90633 -1.7667
O 3.71571 -7.33779 -13.5457
H 4.13062 -8.1582 -13.9391
H 4.18604 -6.52679 -13.8936
O -8.82458 -0.0673492 -11.9293
H -8.54634 -0.53508 -11.0904
H -8.64617 0.912501 -11.8395
O 1.69486 13.4493 6.61297
H 2.61766 13.8183 6.72393
H 1.27561 13.3241 7.51217
O -8.96316 4.29768 14.0664
H -9.51153 3.65251 13.5344
H -8.30558 4.75138 13.465
O -6.5794 -0.361698 0.313193
H -7.56695 -0.518685 0.303227
H -6.39775 0.608704 0.472342
O 3.3769 -8.02197 10.4662
H 3.13558 -7.58308 9.6007
H 2.61357 -7.93795 11.1068
O 3.85449 12.5529 -9.49878
H 4.29552 12.2271 -10.335
H 3.14278 13.215 -9.73349
O -12.1634 -12.431 -11.2235
H -12.0184 -11.4854 -11.5145
H -11.2887 -12.9156 -11.2168
O -0.992712 -13.9934 -13.4559
H -0.0573334 -14.0238 -13.1035
H -1.32644 -14.9255 -13.5963
O 6.97458 14.3806 -9.83989
H 6.94445 14.0987 -8.88094
H 7.89346 14.2277 -10.2036
O 8.10218 9.29804 14.8953
H 7.68153 9.16944 13.9972
H 8.94138 8.75705 14.9508
O 11.6232 -6.22822 -10.0557
H 12.246 -5.66514 -9.51251
H 11.9366 -6.25099 -11.005
O -6.36798 2.07696 -7.47951
H -6.26796 2.58759 -6.62555
H -7.19735 1.51969 -7.43946
O -8.37315 10.3015 -1.99491
H -8.50576 11.1066 -2.57303
H -7.54227 9.8218 -2.27696
O -13.8191 13.4165 12.7558
H -14.328 12.5634 12.6411
H -14.2562 14.1398 12.2212
O -13.3 -4.07221 -6.19839
H -13.9023 -4.83374 -6.43789
H -13.5128 -3.28444 -6.77644
O -6.51153 11.2874 -8.85412
H -6.89902 11.2092 -7.93557
H -5.94496 12.1096 -8.90796
O 5.09652 -1.40613 2.57032
H 4.92895 -0.907783 3.42096
H 6.05831 -1.67636 2.52626
O 7.91775 -11.8407 -4.78675
H 7.25331 -11.1019 -4.89939
H 7.99114 -12.0782 -3.81812
O 4.96372 -0.513098 9.16989
H 4.9079 -1.45656 9.49663
H 4.92872 -0.50384 8.17054
O 3.59851 -10.6617 9.41717
H 3.5619 -11.3125 10.1755
H 3.40724 -9.74135 9.75827
O -0.60924 -12.2563 -8.94863
H -1.02402 -12.0534 -9.83563
H 0.342631 -11.9498 -8.94783
O -13.8621 8.14954 6.77167
H -14.1855 8.60091 5.93999
H -14.4601 7.37719 6.9858
O -11.6105 11.278 -4.542
H -11.1266 11.74 -3.79872
H -12.5958 11.3245 -4.37794
O -10.6314 -6.44291 11.2123
H -11.3961 -6.48427 11.8554
H -10.0041 -7.20094 11.3911
O -8.54203 4.71162 -4.60161
H -9.32392 4.10014 -4.48013
H -8.71978 5.57706 -4.13319
O -2.02388 -10.3685 -7.29109
H -1.66094 -10.8187 -8.10695
H -1.88518 -10.9582 -6.49546
O 8.76147 3.24773 8.40742
H 9.38184 3.24648 7.62311
H 8.70771 2.32593 8.79135
O -8.77537 -1.90374 -9.86146
H -9.24462 -2.02613 -8.98692
H -8.16611 -2.67981 -10.0243
O -13.1018 12.021 5.74379
H -12.7388 12.2846 4.85007
H -13.9139 12.5675 5.94809
O -4.74424 5.53716 11.7826
H -4.3411 4.80225 12.328
H -4.3553 5.52056 10.8615
O 1.13233 -10.6739 -13.5032
H 1.29464 -9.69195 -13.6
H 0.315267 -10.9293 -14.0201
O 11.4732 9.54659 -8.42441
H 11.2602 10.4371 -8.82637
H 11.3326 8.8302 -9.1078
O -4.34215 2.08154 -1.22367
H -3.52999 2.24017 -1.78512
H -5.00857 1.54821 -1.74468
O 11.3314 14.8138 10.2067
H 10.3512 15.0069 10.2499
H 11.7637 -14.9578 11.0651
O 10.3161 -13.4402 7.82809
H 9.76295 -13.2541 8.64009
H 11.2665 -13.5917 8.09978
O -8.63423 14.887 -7.71417
H -8.4571 14.4209 -8.58098
H -9.26222 -14.3981 -7.86817
O 11.3894 13.0336 -7.87829
H 11.848 13.8466 -8.23718
H 10.5544 12.8637 -8.40156
O 14.4611 -5.88863 2.98
H 14.4786 -5.35408 3.82496
H 14.3887 -6.86095 3.20214
O -9.42054 10.5191 12.446
H -9.83441 9.61523 12.3377
H -10.0661 11.1283 12.9066
O -1.78234 4.27185 3.26164
H -1.13201 4.20015 4.0179
H -2.246 3.39472 3.13645
O -4.38358 13.9416 -2.89236
H -5.07036 14.5279 -3.32193
H -4.72238 13.6256 -2.00616
O 5.12698 5.10686 2.1002
H 4.38834 5.3115 1.45791
H 6.00716 5.18641 1.63227
O 9.85097 13.1998 0.206337
H 9.30043 12.4585 0.590212
H 9.25345 13.9579 -0.0548145
O -4.7569 8.14625 -8.39079
H -4.06318 8.84588 -8.56184
H -5.2135 8.33513 -7.52139
O -3.41775 -14.0042 -9.55993
H -3.31212 -14.0382 -8.5661
H -2.78414 -13.3301 -9.9396
O 14.6496 -8.87707 -3.41121
H 14.1084 -9.70896 -3.28846
H 14.1007 -8.1894 -3.88637
O -12.0431 13.0633 -7.15443
H -11.7929 13.9172 -7.61075
H -11.4874 12.9502 -6.33082
O 14.3329 -5.44762 0.289989
H 14.4057 -5.61204 1.27369
H 14.351 -4.46333 0.114331
O 5.0016 14.5532 12.9249
H 5.2734 13.5939 12.849
H 5.55226 -14.9417 12.2996
O -9.74481 2.71438 -13.4236
H -9.28572 3.04917 -14.2465
H -10.6862 2.46122 -13.6468
O -5.21413 -12.0588 7.75883
H -5.85856 -11.5602 8.33858
H -5.45224 -11.9177 6.79789
O -0.980856 -2.56847 5.22843
H -1.13304 -1.79593 4.61197
H -1.50728 -3.35712 4.91075
O -11.8061 -13.8896 10.1809
H -12.5011 -13.5694 10.8247
H -11.1803 -14.5136 10.649
O -12.2144 4.04917 11.1485
H -13.1301 3.90127 11.5223
H -12.2769 4.61959 10.3295
O 13.3339 -7.35271 -5.15232
H 13.181 -8.00999 -5.8903
H 12.4559 -7.09304 -4.75007
O -3.43009 8.3014 8.02884
H -3.53929 8.61631 8.97166
H -4.10492 8.75404 7.44597
O -14.4907 -10.8263 -14.1225
H 14.86 -10.7197 -13.4136
H -13.7941 -10.1171 -14.0142
O -6.28092 8.57406 -5.97241
H -6.14955 8.5632 -4.98113
H -6.59322 7.67427 -6.27712
O -0.277145 4.1852 5.65037
H 0.399611 4.77962 5.21601
H 0.189754 3.51135 6.22304
O -14.3222 11.1369 -4.62304
H -14.9954 11.6982 -4.14167
H -14.6577 10.9285 -5.54173
O -10.7815 8.89909 -2.34289
H -9.84497 9.15222 -2.1004
H -11.1825 8.35792 -1.60375
O -5.11762 5.66688 -9.70203
H -5.28487 5.778 -10.6817
H -5.21754 6.55044 -9.2445
O 7.1909 -14.5942 3.65664
H 6.84555 -14.2389 4.52524
H 7.94971 -14.0242 3.34144
O 9.78986 -1.81354 12.6532
H 9.0815 -1.46425 13.2666
H 10.1911 -1.0543 12.1408
O -6.56552 10.6958 8.29432
H -5.74349 11.1217 7.91633
H -6.91906 11.2586 9.04147
O 3.57711 6.49201 0.114366
H 4.30787 7.02613 -0.310736
H 3.10983 7.05187 0.798621
O -4.80145 -4.78939 -12.1184
H -4.83635 -4.02575 -12.7631
H -4.0477 -4.64935 -11.4763
O 14.9534 11.2561 2.54712
H 14.6952 12.1298 2.95955
H 14.5351 11.1782 1.64214
O 3.08812 -3.7291 2.21396
H 2.78702 -4.2733 2.99702
H 3.44033 -2.84987 2.53476
O 10.1746 2.35366 -4.29908
H 10.2853 1.99477 -3.37228
H 9.99231 3.33599 -4.25656
O -15.02 1.97224 -7.4139
H -14.674 2.31562 -8.28703
H 14.3612 2.61831 -7.04227
O -6.28745 8.62992 -3.12328
H -5.60588 9.16987 -2.62941
H -6.17837 7.66321 -2.8918
O 2.75564 -8.24719 2.28023
H 3.33603 -7.43298 2.26597
H 1.86983 -8.03234 1.86889
O -8.91099 3.01838 1.24264
H -8.57345 2.4226 1.97142
H -9.66911 2.56958 0.769513
O 4.01606 7.54147 7.22335
H 4.82153 7.45105 6.63765
H 4.30418 7.60534 8.17881
O 8.32651 -10.0393 7.42453
H 7.97557 -9.91805 6.49601
H 8.90421 -9.25986 7.66692
O -11.8392 -0.243698 -0.802753
H -12.2211 -0.77238 -0.0446828
H -12.239 -0.558718 -1.66353
O -10.2366 14.9511 13.8736
H -10.4495 -14.3278 14.4764
H -9.90786 -14.7505 12.995
O -9.55957 -12.8765 -5.20895
H -9.97568 -12.6216 -6.08181
H -8.6564 -12.4538 -5.13421
O -11.5605 -9.30393 13.3118
H -12.0919 -8.45834 13.3627
H -10.9267 -9.34632 14.0841
O -3.81977 4.6429 -4.6357
H -3.50202 5.30857 -5.31091
H -4.58777 4.12567 -5.01338
O 13.2328 -2.86588 -11.1859
H 12.253 -2.666 -11.1884
H 13.505 -3.1879 -10.2792
O 13.2812 1.62201 -10.5234
H 14.0602 1.0277 -10.7232
H 12.8573 1.33816 -9.66334
O -6.43698 0.1066 5.03668
H -6.94213 0.968964 5.00261
H -5.53269 0.265445 5.43295
O 8.02924 -6.23102 -13.0846
H 8.16581 -6.71344 -13.9498
H 8.71805 -5.51207 -12.9915
O 9.68425 1.6589 -7.15054
H 9.61439 2.12995 -6.2712
H 10.6417 1.43644 -7.33436
O 10.8077 10.6218 7.26095
H 11.4758 10.9281 6.58293
H 10.5787 9.66281 7.09365
O -10.667 2.76436 -8.38494
H -10.0188 3.26676 -8.95724
H -11.5788 2.81285 -8.79262
O 12.0436 -2.98719 -6.28799
H 11.9136 -2.68929 -5.34228
H 11.8675 -3.96927 -6.35529
O -9.32354 -7.54675 4.30351
H -9.63204 -8.08794 3.52124
H -10.009 -6.8512 4.51873
O -2.17923 5.609 -1.82762
H -3.10069 5.72044 -1.45545
H -2.0202 4.64503 -2.04085
O 7.93359 3.26741 -12.4466
H 7.00944 2.99073 -12.1831
H 8.58003 2.98941 -11.7361
O 13.871 10.4189 11.5375
H 14.2656 11.1476 12.0972
H 13.6714 10.7717 10.6233
O 11.4909 -4.87645 10.4003
H 10.6524 -5.41768 10.3371
H 11.8296 -4.67787 9.48057
O -0.958219 2.10345 9.7762
H -1.85578 1.69603 9.94474
H -0.887739 2.97041 10.2696
O 6.8795 4.68729 -2.77296
H 6.18357 5.39899 -2.6773
H 6.48483 3.89574 -3.23954
O 11.647 11.243 3.17275
H 11.2485 12.1498 3.30975
H 12.2392 11.0187 3.94672
O -4.62683 14.46 13.0832
H -4.49003 13.4725 13.162
H -3.77505 14.8918 12.7866
O 4.64436 -4.26462 -5.13703
H 4.68236 -3.48268 -5.75923
H 5.47654 -4.29057 -4.58312
O -14.4473 -5.77448 -11.5736
H -13.5571 -5.90139 -12.0112
H -14.4058 -4.98993 -10.9549
O 10.423 0.655738 11.2764
H 9.54583 0.974928 10.9177
H 11.0293 0.423166 10.5159
O -6.4747 5.91848 4.2698
H -5.48791 6.07869 4.29391
H -6.90588 6.3768 5.04699
O -8.17301 6.8631 -13.5919
H -8.45007 6.13627 -14.2203
H -8.24256 7.74741 -14.0536
O -9.88818 9.27372 9.70621
H -9.98037 9.19051 8.71395
H -10.0006 10.2311 9.97229
O 8.70627 -10.9066 11.9808
H 8.49636 -10.5845 11.0576
H 8.04525 -10.5233 12.6258
O 6.82894 9.52783 6.90508
H 7.65635 10.0867 6.85014
H 6.19568 9.93373 7.56404
O -14.4452 -8.21334 5.29618
H -15.0197 -8.00749 6.08843
H -13.7551 -7.49751 5.18986
O -6.27299 -8.06342 -9.69701
H -5.31887 -7.76714 -9.74041
H -6.64777 -7.84938 -8.79494
O -2.67737 6.80458 -6.42933
H -3.36654 7.16045 -7.06052
H -2.10292 7.55603 -6.1048
O 14.3535 7.23399 14.9053
H 14.3244 8.17232 -14.7981
H 13.8444 7.17834 14.0464
O -10.4977 2.71381 7.36338
H -10.0992 1.83027 7.11729
H -9.77276 3.33523 7.6606
O 13.9654 -1.84851 13.0658
H 14.7887 -1.52156 12.6018
H 13.3648 -1.074 13.2641
O 6.43447 -12.3312 6.26691
H 6.95501 -13.1846 6.23898
H 6.30326 -12.0518 7.21808
O 13.0558 8.20037 9.12514
H 13.0693 9.18809 9.28083
H 12.1566 7.83687 9.36877
O 12.0556 4.27252 -11.9604
H 12.316 4.6678 -12.8412
H 12.2586 3.29335 -11.9613
O 4.18748 0.835314 3.8971
H 4.53685 0.896331 2.9621
H 4.12587 1.75265 4.29043
O 3.80468 3.09773 10.9782
H 4.26869 3.61928 10.2622
H 2.94787 3.55309 11.2202
O -3.52523 2.09028 2.10881
H -4.45886 2.44265 2.04425
H -3.15354 1.96075 1.18953
O 0.140973 8.97937 -0.89586
H -0.615499 8.50456 -0.446071
H 0.602133 9.57213 -0.235578
O -14.1481 13.8597 -10.5017
H -14.0875 13.3598 -11.3656
H -14.347 14.8221 -10.6867
O -11.1859 5.80171 14.5705
H -10.4926 5.08861 14.4661
H -11.3076 6.27833 13.6999
O -13.442 -10.5705 4.32471
H -13.9122 -9.8399 4.81978
H -14.0756 -10.9971 3.67918
O -5.85379 3.24333 0.716273
H -5.41781 2.85059 -0.0934644
H -6.84632 3.24194 0.594183
O -3.97801 3.15727 12.7433
H -3.68256 2.45842 12.0919
H -3.42638 3.09234 13.5749
O -8.38187 -10.2869 5.77941
H -7.75988 -10.7031 5.11614
H -9.30518 -10.2558 5.39661
O 0.883582 -1.61185 10.5706
H 1.35036 -2.26281 9.97196
H 1.33637 -0.722098 10.5129
O 12.9886 5.74 -9.33356
H 12.7044 5.10935 -8.61139
H 12.9331 5.27921 -10.2193
O 8.44852 13.6311 -5.04337
H 8.05673 13.3735 -5.92665
H 9.31856 13.1556 -4.91327
O 4.37261 -8.83901 4.37117
H 3.83495 -8.84879 5.21427
H 3.80211 -8.51671 3.61575
O 0.872572 -7.76055 -5.28157
H -0.126887 -7.79045 -5.26773
H 1.17488 -6.95129 -5.78527
O -5.40673 2.39515 -12.1956
H -5.68566 1.69484 -12.8527
H -6.04674 2.40513 -11.4273
O -11.949 0.395002 10.4735
H -11.7561 1.2894 10.07
H -11.3262 -0.285866 10.0881
O 4.31427 12.4883 -14.8739
H 4.01817 13.4334 -15.012
H 3.65353 11.867 14.7528
O 11.8717 8.35673 -3.33125
H 11.4986 8.46891 -4.25223
H 12.7322 7.8496 -3.37974
O 9.15877 -6.50078 10.7834
H 8.76729 -7.21436 10.2024
H 8.48633 -6.22352 11.4696
O -12.3007 12.9701 -1.13739
H -12.5089 12.1121 -0.667992
H -13.1513 13.3968 -1.44472
O -9.67498 -13.4652 3.66702
H -10.5331 -13.9773 3.70304
H -9.85521 -12.4993 3.85315
O 1.38242 5.20492 11.4111
H 1.6963 6.00793 10.9045
H 0.385212 5.22499 11.483
O -11.0716 -6.28567 -1.97171
H -11.8572 -6.90216 -2.02489
H -10.2264 -6.81728 -2.02665
O -10.0833 11.1095 -8.02667
H -10.9218 11.606 -7.80189
H -10.1132 10.8211 -8.9837
O -0.719889 9.67359 -3.73244
H -1.13388 10.5818 -3.79342
H -0.578321 9.43565 -2.77153
O -2.86793 13.879 0.961267
H -3.65443 13.4272 0.540208
H -3.01053 14.8688 0.957178
O -12.5582 -1.64543 -11.4182
H -12.0754 -2.19019 -12.1039
H -12.0223 -0.828815 -11.2036
O 0.0294469 -12.0843 1.57883
H -0.362631 -12.9719 1.82073
H 0.469482 -11.6841 2.38268
O 2.49277 10.4295 -3.66347
H 2.22961 9.5349 -3.30234
H 2.18145 10.5115 -4.61023
O 3.63999 0.284949 -3.5549
H 3.89213 0.556389 -2.62606
H 2.77632 -0.218606 -3.53215
O -9.69038 -7.83451 6.92153
H -8.85931 -7.98425 7.45718
H -9.46341 -7.83275 5.94763
O 10.0613 14.0116 -10.5394
H 11.0578 13.9901 -10.4583
H 9.80826 14.242 -11.479
O 12.5492 6.53239 2.64029
H 11.8886 7.2364 2.37967
H 13.4752 6.90474 2.57774
O -2.35349 8.76596 5.16496
H -3.24336 9.04607 5.52505
H -1.64491 8.95206 5.84561
O 10.5013 -0.108865 3.13756
H 11.3575 -0.324536 2.6681
H 9.94104 -0.934454 3.20509
O 8.26081 4.79274 -8.91747
H 7.46773 4.18361 -8.91616
H 8.47323 5.06539 -7.9791
O -13.484 8.85621 -9.82135
H -13.9882 9.24362 -9.04949
H -14.1231 8.62659 -10.5554
O 11.0057 8.52791 -5.82217
H 10.2945 9.09216 -5.40281
H 11.054 8.7257 -6.80122
O 10.0521 -0.145292 -14.4347
H 10.6728 0.197344 -13.7294
H 9.44191 0.590706 -14.7278
O -6.5751 -6.15008 -3.67683
H -7.06198 -5.40703 -3.21768
H -6.6337 -6.97994 -3.12194
O 4.18823 0.278541 -6.21699
H 3.38892 0.631454 -6.70337
H 4.05391 0.387279 -5.23204
O -10.0234 -12.1216 -2.27765
H -9.79698 -12.783 -2.99271
H -9.52098 -12.3478 -1.44315
O -4.26481 10.5792 -10.4157
H -4.95937 10.881 -9.76263
H -4.70015 10.052 -11.1454
O -2.77568 12.6926 5.01023
H -2.15293 12.2011 4.40141
H -2.60024 13.6749 4.94424
O 7.75487 -6.45753 -1.68636
H 8.64112 -6.27368 -1.26119
H 7.5095 -5.69712 -2.28768
O -2.39587 12.917 -8.13034
H -1.90515 12.11 -7.80194
H -1.73857 13.6282 -8.37971
O 6.50944 8.95908 3.61969
H 6.3478 9.44938 4.47612
H 7.35495 8.43016 3.69288
O -14.159 -13.1134 -8.06733
H -14.6915 -12.3601 -7.68134
H -14.168 -13.0509 -9.06533
O -2.58934 6.20897 -11.0172
H -2.53484 7.02562 -10.4426
H -2.95351 5.44767 -10.4807
O 0.911758 4.91581 -12.008
H 0.0437627 4.68874 -12.4496
H 1.39545 4.07334 -11.7708
O -11.5043 6.5211 -8.76092
H -12.4484 6.22176 -8.89858
H -11.2379 7.13597 -9.50323
O 4.38123 -14.7574 -4.54867
H 4.54683 -14.2254 -5.37911
H 3.47877 14.863 -4.60112
O -8.27954 11.8392 -12.0939
H -9.09004 11.5371 -12.5958
H -7.89196 11.0668 -11.5907
O 0.0859773 -6.81735 2.8699
H -0.448317 -6.05284 2.50927
H -0.531283 -7.55245 3.15031
O -9.465 -14.9999 10.8007
H -9.35174 14.9835 9.80919
H -8.57028 14.9866 11.243
O 7.06941 -0.982438 -9.31823
H 7.29698 -1.79099 -9.86087
H 7.26265 -1.16304 -8.35384
O 8.64469 7.52003 4.36419
H 8.68145 6.53772 4.18053
H 9.03434 7.70526 5.26634
O 10.8664 -8.32577 -3.47171
H 11.3943 -7.98713 -2.69278
H 9.92649 -8.5084 -3.18329
O -7.14454 7.87501 6.1264
H -7.66003 8.54421 5.59119
H -7.54657 7.79687 7.03869
O -7.13029 -3.70978 6.86084
H -7.22586 -2.86264 7.38356
H -6.33124 -3.64429 6.26315
O -10.9212 4.52662 -1.63284
H -11.7901 4.9703 -1.41319
H -10.1652 5.12763 -1.37369
O 13.7639 -3.44701 -8.48005
H 14.1692 -4.35089 -8.34321
H 13.4505 -3.0858 -7.60178
O 1.65572 7.5462 8.46634
H 2.5918 7.3085 8.20698
H 1.01595 6.92962 8.00751
O -10.2564 11.3566 -14.0168
H -10.4216 11.8627 -14.8633
H -10.0167 10.4106 -14.2354
O 2.16672 -3.92667 -0.480124
H 2.32388 -3.50148 0.411237
H 2.26224 -3.23836 -1.19923
O -2.13501 0.324066 13.0407
H -1.93631 -0.188523 12.2054
H -1.8316 -0.202373 13.835
O -2.3953 -5.21398 -10.5729
H -1.95285 -6.03633 -10.9306
H -1.9463 -4.93658 -9.72348
O 3.46723 -14.9493 3.89992
H 3.51099 -14.6747 4.8605
H 4.03229 -14.3332 3.35111
O 4.49364 11.798 -12.0478
H 4.1025 11.0387 -11.5278
H 4.35124 11.6411 -13.0251
O 0.592135 -8.45328 0.287238
H 1.23655 -9.01583 -0.230705
H -0.163241 -9.02344 0.610229
O 4.94155 6.77854 -2.57427
H 5.58288 7.09598 -3.27279
H 4.28339 7.5037 -2.37183
O 1.47929 13.719 11.4467
H 1.07276 13.281 12.2486
H 2.45295 13.4953 11.4025
O 14.4214 9.61515 -7.74036
H 13.4247 9.65315 -7.6683
H 14.7584 10.4622 -8.15149
O 13.7274 -7.39778 10.3783
H 14.1849 -6.50919 10.4115
H 12.9741 -7.40957 11.0358
O 2.50633 10.7808 14.3241
H 1.87813 11.5585 14.3501
H 1.98308 9.92886 14.3428
O -2.66083 -13.9065 -6.80736
H -2.3907 -12.966 -6.6011
H -1.8808 -14.4008 -7.19103
O -12.3095 1.99759 -6.29499
H -11.6053 2.19147 -6.978
H -13.2064 2.24466 -6.66163
O -10.8665 9.79141 -10.346
H -11.553 9.10367 -10.1097
H -10.0084 9.33728 -10.5855
O -8.28087 -8.10812 12.2957
H -8.41671 -9.09884 12.3013
H -7.52607 -7.87869 11.6812
O -5.27685 -2.10199 -7.79989
H -4.9595 -2.99055 -7.46862
H -6.07467 -1.81429 -7.27007
O -14.579 9.63877 -14.2769
H 14.9449 10.4089 -14.6405
H -13.8687 9.98004 -13.6613
O 4.98431 9.51092 -6.67259
H 5.80457 9.27157 -6.15308
H 5.05082 10.4595 -6.98217
O -5.94841 8.72237 -14.877
H -5.62382 7.82732 14.8651
H -6.09434 9.31302 14.3773
O -9.71665 -13.8285 -11.2163
H -9.37161 -14.6153 -11.728
H -8.99559 -13.1401 -11.1372
O -11.913 7.42177 -6.14354
H -12.0356 7.28779 -7.12691
H -11.197 8.10195 -5.98653
O -14.1356 -11.1187 -1.1908
H -14.1059 -10.3846 -1.86921
H -13.205 -11.3438 -0.902201
O 14.5664 4.46381 9.83765
H 14.5238 4.09882 10.7677
H 14.327 3.74417 9.18588
O -10.0566 -5.84888 -9.76731
H -9.80918 -5.56133 -8.84205
H -9.24282 -6.18686 -10.2401
O 9.75072 14.0099 14.5832
H 9.94601 13.2428 13.9721
H 9.05729 14.5987 14.168
O -10.1115 9.32447 -5.82666
H -9.90231 9.86599 -6.6409
H -10.5326 9.9114 -5.13516
O 1.60763 -0.427501 14.8765
H 1.7604 0.560762 14.8757
H 1.45774 -0.740839 -14.2336
O -9.7614 10.8809 0.329271
H -10.7485 10.7773 0.20685
H -9.29492 10.6682 -0.529311
O 14.9679 1.38867 13.6111
H 14.0403 1.115 13.3568
H -14.8472 0.992405 14.4993
O -8.97532 12.3748 7.89943
H -8.30903 11.9443 7.29049
H -8.63502 12.3462 8.83931
O -5.79301 -12.0325 5.2268
H -5.85904 -12.8805 4.70099
H -4.93477 -11.5693 5.00581
O 6.81313 -4.28192 -3.21507
H 6.23703 -3.99441 -2.44992
H 7.59851 -3.66748 -3.29023
O -11.3007 -5.43794 4.01853
H -11.4428 -5.6389 3.04928
H -11.0657 -4.47211 4.12771
O -6.1626 -2.98369 10.3209
H -6.48287 -3.82107 10.7638
H -6.93713 -2.51287 9.89846
O -7.69604 -13.343 -14.1737
H -7.99203 -12.797 -13.3899
H -8.09615 -14.2574 -14.113
O -0.424154 5.56139 -7.97805
H -0.762369 4.81173 -8.54692
H -1.14319 5.85101 -7.34629
O -2.51906 1.91984 -11.7272
H -2.4045 1.24361 -10.9995
H -3.47465 2.21236 -11.763
O 11.365 11.1551 -2.32781
H 10.3818 11.3045 -2.43234
H 11.5711 10.1859 -2.46244
O 5.78433 2.64208 -4.15716
H 6.33203 2.37571 -4.9503
H 5.91884 1.97857 -3.42118
O 4.98999 -9.8877 -10.4063
H 5.9525 -10.1317 -10.5247
H 4.41581 -10.6712 -10.644
O -2.92227 -3.25275 -5.52099
H -3.36428 -3.67314 -4.72859
H -3.27652 -3.66738 -6.3592
O -13.0904 5.74732 9.22223
H -13.0507 6.52741 9.84664
H -13.935 5.23598 9.38101
O 0.233347 -8.67166 -9.8366
H 1.18836 -8.54653 -10.1055
H -0.360134 -8.49149 -10.621
O 8.44159 11.0017 1.11733
H 7.90509 10.5301 0.417542
H 9.08444 10.359 1.534
O -2.23583 -8.69529 -14.298
H -1.81587 -9.60142 -14.2474
H -3.02136 -8.72604 -14.916
O -7.44156 -3.8548 -11.1049
H -7.83931 -4.7473 -11.3177
H -6.44877 -3.89704 -11.2171
O -13.9304 -7.97333 -14.2453
H -13.6677 -7.92702 -13.2816
H -14.316 -7.09512 -14.5283
O 2.09199 -3.4953 -3.26401
H 1.39644 -3.22335 -3.92904
H 1.90065 -4.42243 -2.94181
O -9.7589 -9.11011 -9.60444
H -9.22758 -8.3051 -9.34048
H -10.0825 -9.5799 -8.7831
O 9.02024 -6.10815 7.49616
H 9.85203 -5.65078 7.18159
H 8.78047 -6.83977 6.858
O -4.16008 -1.48556 0.885302
H -3.78461 -1.67142 -0.0227086
H -4.99178 -0.937519 0.796289
O 12.4682 -12.0593 -9.70749
H 12.088 -11.2798 -9.20975
H 13.1064 -11.731 -10.4038
O -9.08455 -9.73676 -5.37814
H -8.12325 -9.9389 -5.19098
H -9.5803 -9.64576 -4.51445
O -1.32194 -13.7857 -2.05504
H -2.01494 -13.7259 -2.77349
H -0.786644 -14.6215 -2.17705
O -9.16957 4.02468 -10.6343
H -9.16928 3.75976 -11.5985
H -9.82229 4.76905 -10.4933
O 7.35007 -8.2542 9.77485
H 6.8867 -8.14427 8.89553
H 6.67248 -8.25978 10.5103
O -5.28865 12.9658 -0.101708
H -5.51524 12.2482 0.556879
H -6.12579 13.4318 -0.388025
O 6.6204 -2.34719 13.4654
H 7.06032 -2.444 14.3582
H 6.49222 -1.37684 13.2605
O 3.72731 -12.1765 11.8711
H 4.61803 -12.631 11.8662
H 3.57315 -11.7548 12.7646
O 8.09888 -11.8204 -12.6779
H 7.7881 -12.2583 -11.8343
H 8.35515 -10.8729 -12.4868
O 11.9493 -10.259 -12.8013
H 11.5024 -11.1465 -12.9142
H 11.2957 -9.52895 -13.001
O -5.58549 -1.78604 -13.135
H -6.47405 -1.32978 -13.087
H -5.16952 -1.80196 -12.2257
O -7.18827 -11.9767 -8.52811
H -6.59733 -12.7717 -8.39073
H -8.14582 -12.2603 -8.47627
O -6.51598 10.1626 12.8178
H -6.38293 9.54179 12.0453
H -7.46547 10.476 12.834
O 10.9486 12.4241 -5.18341
H 11.7169 12.6225 -4.57482
H 11.2099 12.627 -6.1271
O 1.70507 -3.82663 8.99861
H 2.67686 -4.04852 8.91867
H 1.29492 -3.79243 8.08723
O 0.0135759 6.42708 14.7704
H -0.965873 6.58364 14.8976
H 0.171877 5.4635 14.5548
O 7.11167 12.9359 -7.27833
H 6.12959 12.7761 -7.17834
H 7.56786 12.0756 -7.50605
O 12.8873 -2.54589 9.89979
H 12.7341 -2.47245 8.91431
H 12.3386 -3.2968 10.2673
O -12.0502 7.51403 -13.2319
H -12.3405 8.46732 -13.3156
H -12.1351 7.06069 -14.1192
O 11.1982 -8.36099 6.22155
H 11.094 -9.17052 6.7993
H 12.0076 -7.84857 6.50863
O -5.67544 -5.85962 14.1194
H -6.62743 -6.1432 14.2347
H -5.57725 -4.90271 14.3927
O 5.95041 11.9352 13.1845
H 5.49908 11.9832 14.0756
H 6.01666 10.9802 12.8954
O -14.2221 3.50865 -12.2294
H -14.9015 3.33956 -11.5153
H -14.4137 4.38526 -12.6708
O 4.16017 -5.14444 11.3058
H 4.05559 -4.59032 12.1317
H 3.27732 -5.54351 11.0582
O -11.8091 -12.8938 -0.137298
H -10.8369 -12.6627 -0.176201
H -11.99 -13.6755 -0.734144
O 8.28108 -6.59414 -7.49637
H 7.77821 -6.03404 -8.15471
H 7.81819 -6.56356 -6.61048
O -12.6956 4.62936 -4.42248
H -12.5637 5.24115 -3.64253
H -12.2821 5.03479 -5.23776
O -2.13197 2.752 -2.85873
H -1.31332 2.44968 -3.34701
H -2.82985 3.03047 -3.5186
O 14.9519 -0.610797 -11.2481
H -14.1805 -1.01299 -11.2596
H 14.2682 -1.33631 -11.326
O -7.92536 12.6339 4.7834
H -7.8884 13.6293 4.87225
H -7.07116 12.3032 4.38224
O 13.8856 11.5117 14.0913
H 13.1326 10.9011 13.8461
H 13.6054 12.0978 14.8515
O -13.3673 6.35206 -2.30925
H -13.6119 6.14018 -1.36304
H -13.3696 7.34346 -2.4401
O 7.65246 -1.21282 -6.66135
H 6.73436 -1.60628 -6.61347
H 7.89638 -0.826587 -5.77179
O -3.12105 -11.6316 4.01719
H -2.38391 -11.1227 4.46169
H -2.88778 -11.7858 3.05708
O 4.41903 12.4683 4.93068
H 4.10868 13.298 4.46674
H 5.34617 12.6078 5.27847
O 0.226808 -5.55149 6.99303
H 0.102585 -6.31649 6.36109
H -0.587284 -5.45692 7.56602
O -8.25855 9.76766 2.37038
H -8.88406 10.0543 1.64471
H -8.70988 9.86544 3.25736
O 13.2722 14.6402 -12.0442
H 13.1899 -14.8116 -11.2455
H 13.5907 13.7375 -11.7549
O -12.8117 -1.67698 1.5886
H -13.7702 -1.43649 1.43598