LAMMPS data file via write_data, version 15 May 2015, timestep = 2000000

4560 atoms
7 atom types
5040 bonds
3 bond types
7200 angles
2 angle types
10560 dihedrals
3 dihedral types
2400 impropers
1 improper types

-1.0763502675555259e-01 4.1387635026745990e+01 xlo xhi
-4.0433884491974936e-02 3.5938433884472119e+01 ylo yhi
-3.5711112484589691e-01 2.9555111124838550e+01 zlo zhi
-6.7234083837551181e-02 -1.7036217651000683e+01 -4.1707816797290791e-02 xy xz yz

Masses

1 12.0107
2 1.008
3 12.0107
4 12.0107
5 12.0107
6 12.0107
7 12.0107

Pair Coeffs # lj/cut/coul/cut

1 0 0
2 0 0
3 0 0
4 0 0
5 0 0
6 0 0
7 0 0

Bond Coeffs # harmonic

1 469 1.4
2 367 1.08
3 469 0.7

Angle Coeffs # harmonic

1 35 120
2 63 120

Dihedral Coeffs # opls

1 0 7.25 0 0
2 0 7.25 0 0
3 0 7.25 0 0

Improper Coeffs # cvff

1 2.5 -1 2

Atoms # full

219 13 3 0.0000000000000000e+00 -2.7652767244845577e-01 3.1166098445754864e+00 3.1142114382327764e+00 1 0 0
220 13 4 0.0000000000000000e+00 3.1535383308454112e-01 4.0960533710585763e+00 2.3638023477679830e+00 1 0 0
224 13 2 0.0000000000000000e+00 3.9907448476602481e-01 5.0493086722450737e+00 2.8937103910700417e+00 1 0 0
580 33 4 0.0000000000000000e+00 2.6867199714284875e+00 6.7674945921527847e+00 3.9880520958523178e+00 1 0 0
228 13 3 0.0000000000000000e+00 -4.9714534195375770e-01 1.8270474577788796e+00 2.5881418838214252e+00 1 0 0
989 53 4 0.0000000000000000e+00 -1.3646436282941115e+00 7.0348309424496653e+00 3.4852647350170374e+00 1 0 0
600 34 2 0.0000000000000000e+00 2.1424150062065284e-01 5.8156309101635859e+00 6.8503829203390989e+00 1 0 0
245 14 4 0.0000000000000000e+00 -4.9486264467022210e+00 1.4416472004158483e+00 9.0624514480902878e+00 1 0 0
227 13 4 0.0000000000000000e+00 -1.8280828368634117e-01 1.5826194765369548e+00 1.2640983664371179e+00 1 0 0
4390 233 1 0.0000000000000000e+00 2.4471610643357873e+00 7.7350682355868783e-01 5.5029155111507757e+00 1 1 0
733 13 6 0.0000000000000000e+00 -4.3625899373962840e-01 2.4434672400400359e+00 2.9386553355105374e+00 1 0 0
2138 115 2 0.0000000000000000e+00 -3.5777455858846858e+00 1.7345946240575259e+01 1.4369108195156645e+01 1 0 0
230 13 1 0.0000000000000000e+00 7.3122793543241127e-01 3.8321818384719579e+00 1.0618180224135705e+00 1 0 0
217 13 7 0.0000000000000000e+00 -1.2767115072136666e+00 2.4211917007919963e+00 5.2457293310337025e+00 1 0 0
218 13 5 0.0000000000000000e+00 -5.9897244756624834e-01 3.3818967818989578e+00 4.4883846292323186e+00 1 0 0
221 13 1 0.0000000000000000e+00 -1.5826725529134946e+00 1.1393644386847286e+00 4.6770647482776333e+00 1 0 0
222 13 2 0.0000000000000000e+00 -1.5729986465760071e+00 2.7245804055048342e+00 6.2194697120643925e+00 1 0 0
223 13 2 0.0000000000000000e+00 -5.3659079840703816e-01 4.4217642485121536e+00 4.7529061447108161e+00 1 0 0
248 14 1 0.0000000000000000e+00 -3.6758582048931689e+00 3.5069260554885373e+00 8.6938722300237430e+00 1 0 0
4380 233 4 0.0000000000000000e+00 2.5701139657823799e+00 1.1161926053314855e+00 4.1342456756421058e+00 1 1 0
244 14 1 0.0000000000000000e+00 -4.2146245568751493e+00 2.3144311257729178e+00 8.1675240203621335e+00 1 0 0
603 34 2 0.0000000000000000e+00 9.7095274535033393e-01 3.5714334245760551e+00 7.6445136324695397e+00 1 0 0
4396 234 5 0.0000000000000000e+00 -7.4634091895766286e-01 1.8582429002888723e-01 9.2613680708110149e+00 1 1 0
4394 233 2 0.0000000000000000e+00 1.9321373124610832e+00 1.5271816474405771e+00 6.1075823613681903e+00 1 1 0
579 33 3 0.0000000000000000e+00 3.3549379257445597e+00 5.8251667018615310e+00 3.1618687359080386e+00 1 0 0
252 14 2 0.0000000000000000e+00 -3.2348731438546121e+00 4.2031749967267826e+00 8.1019613182044239e+00 1 0 0
581 33 1 0.0000000000000000e+00 4.6422899749450508e+00 3.9775742140983485e+00 1.5260846481285502e+00 1 0 0
596 34 5 0.0000000000000000e+00 -5.3500606246435289e-01 6.3506067093798517e+00 8.8698999386525070e+00 1 0 0
577 33 7 0.0000000000000000e+00 4.1060480116684106e+00 5.1509134014176139e+00 9.5024178112263868e-01 1 0 0
588 33 3 0.0000000000000000e+00 3.8862654458109689e+00 4.6968613982638479e+00 3.7371873007062248e+00 1 0 0
589 33 4 0.0000000000000000e+00 4.5200057482087956e+00 3.7431764001286578e+00 2.8926187439512159e+00 1 0 0
593 33 2 0.0000000000000000e+00 4.6950171047141751e+00 2.7467551307864722e+00 3.3911155990692090e+00 1 0 0
753 33 6 0.0000000000000000e+00 3.6287908015626575e+00 5.1882761322016187e+00 3.3017550375842459e+00 1 0 0
4383 233 2 0.0000000000000000e+00 3.0611651434634020e+00 1.3781592126223681e+00 1.3997075991479169e+00 1 1 0
4379 233 3 0.0000000000000000e+00 3.2518915022640869e+00 2.5757624389826633e-01 3.2783696159775042e+00 1 1 0
578 33 5 0.0000000000000000e+00 3.4912021973986316e+00 6.1444113384273233e+00 1.7756739808208168e+00 1 0 0
226 13 1 0.0000000000000000e+00 5.0483841127403128e-01 2.5295886613283969e+00 5.0003650057736382e-01 1 0 0
4384 233 2 0.0000000000000000e+00 2.2203473967464951e+00 2.0061217693281557e+00 3.7395214280234299e+00 1 1 0
586 33 1 0.0000000000000000e+00 3.1274545567999481e+00 5.4145636785334696e+00 5.9580258982705860e+00 1 0 0
587 33 4 0.0000000000000000e+00 3.7733492007257277e+00 4.4206997773561989e+00 5.1820059019670879e+00 1 0 0
585 33 2 0.0000000000000000e+00 5.1368701290233671e+00 3.2385297839654337e+00 9.0799381477191754e-01 1 0 0
591 33 2 0.0000000000000000e+00 3.0031465714588155e+00 5.3472599332557920e+00 7.0065875098073551e+00 1 0 0
592 33 2 0.0000000000000000e+00 4.1241595798711970e+00 3.5568060504302510e+00 5.6850805629865135e+00 1 0 0
590 33 1 0.0000000000000000e+00 2.6038848085759798e+00 6.6023249478125079e+00 5.4404807427453248e+00 1 0 0
1765 94 4 0.0000000000000000e+00 -5.2059823456278584e+00 1.3753285087023430e+01 8.6463700307820766e+00 1 0 0
234 13 2 0.0000000000000000e+00 1.1787951649188233e+00 4.5456571446847525e+00 3.6622623944870347e-01 1 0 0
229 13 4 0.0000000000000000e+00 -1.2113657896046046e+00 8.6939225028262190e-01 3.3415419001870768e+00 1 0 0
993 53 2 0.0000000000000000e+00 -1.8999046973251497e+00 6.2513790844536841e+00 2.9799839350016413e+00 1 0 0
985 53 2 0.0000000000000000e+00 -1.9584161271464215e+00 6.4876668033766132e+00 5.5035889537588227e+00 1 0 0
599 34 1 0.0000000000000000e+00 4.9066057381734662e-01 4.2489054615899731e+00 8.2961507793338374e+00 1 0 0
4401 234 2 0.0000000000000000e+00 -1.0613133669255408e+00 1.2119974167748053e+00 9.0478812324222631e+00 1 1 0
225 13 2 0.0000000000000000e+00 -2.1276618036487367e+00 4.2977437376441258e-01 5.2460382633546807e+00 1 0 0
595 34 7 0.0000000000000000e+00 -2.3429651866288204e-02 5.4827877217717180e+00 7.8811899383989790e+00 1 0 0
981 53 1 0.0000000000000000e+00 -1.3614735379791769e+00 7.1453763745533214e+00 4.8524383649746072e+00 1 0 0
4378 233 5 0.0000000000000000e+00 3.4444827617311127e+00 5.1818480025081515e-01 1.9186162735698513e+00 1 1 0
582 33 2 0.0000000000000000e+00 4.3708220400432474e+00 5.2572231786065897e+00 -9.4728280375116103e-02 1 0 0
583 33 2 0.0000000000000000e+00 3.0448607630171427e+00 7.0205278089298639e+00 1.3121403898576391e+00 1 0 0
1011 54 2 0.0000000000000000e+00 -6.2943839551870191e+00 6.2551380488504327e+00 1.0717355756991120e+01 1 0 0
232 13 2 0.0000000000000000e+00 -3.6885050007766151e-01 6.0358720057016046e-01 8.0285889332203642e-01 1 0 0
235 14 7 0.0000000000000000e+00 -5.2098779728700251e+00 2.2750086025574623e+00 1.3229196943047807e+01 1 0 0
236 14 5 0.0000000000000000e+00 -4.5661931373715596e+00 3.1621430548644303e+00 1.2342266050665090e+01 1 0 0
597 34 3 0.0000000000000000e+00 -6.0504724683914812e-01 5.8955554607450953e+00 1.0237108696070381e+01 1 0 0
734 14 6 0.0000000000000000e+00 -4.6205558864148673e+00 2.3306282366533955e+00 1.0487362698189024e+01 1 0 0
239 14 1 0.0000000000000000e+00 -5.7502604493050979e+00 1.1543236009766529e+00 1.2631750375344788e+01 1 0 0
240 14 2 0.0000000000000000e+00 -5.3292352103850398e+00 2.4945281498697351e+00 1.4295709851987224e+01 1 0 0
243 14 2 0.0000000000000000e+00 -6.1947669890407848e+00 5.0064656508517769e-01 1.3356776417927069e+01 1 0 0
237 14 3 0.0000000000000000e+00 -4.4578714681754743e+00 2.8642531968151803e+00 1.0936348499046513e+01 1 0 0
4402 234 2 0.0000000000000000e+00 -1.9508793013050214e+00 1.6526148768017626e+00 1.1045385899226073e+01 1 1 0
2129 114 2 0.0000000000000000e+00 -4.6475345036558746e-01 1.6952375890008110e+01 1.3759009556127628e+01 1 0 0
242 14 2 0.0000000000000000e+00 -3.2708778382840746e+00 4.6225164805428696e+00 1.0402526696937951e+01 1 0 0
4408 234 1 0.0000000000000000e+00 -1.8198134195140891e+00 3.5140607094613335e-01 1.2708959776807539e+01 1 1 0
238 14 4 0.0000000000000000e+00 -3.7238485220390887e+00 3.7405135717985649e+00 1.0037064190495293e+01 1 0 0
246 14 3 0.0000000000000000e+00 -5.0328029727877359e+00 1.7176972555557271e+00 1.0415583004148649e+01 1 0 0
604 34 1 0.0000000000000000e+00 -9.6378634666484242e-01 4.9173668673911139e+00 1.2804593552175803e+01 1 0 0
605 34 4 0.0000000000000000e+00 -3.7640190182579847e-01 4.1136061993163375e+00 1.1900112761418697e+01 1 0 0
606 34 3 0.0000000000000000e+00 -1.4975417599623420e-01 4.5910513943198836e+00 1.0607202849447662e+01 1 0 0
607 34 4 0.0000000000000000e+00 4.0602940966525480e-01 3.7258618315720997e+00 9.6137813214718797e+00 1 0 0
611 34 2 0.0000000000000000e+00 7.7681325497844700e-01 2.7724876839854060e+00 9.7606842288508933e+00 1 0 0
610 34 2 0.0000000000000000e+00 -1.0106749548792315e-01 3.1574167917788460e+00 1.2232923793897333e+01 1 0 0
241 14 2 0.0000000000000000e+00 -4.1621643298704765e+00 4.1103589263991216e+00 1.2654267801659216e+01 1 0 0
1753 93 2 0.0000000000000000e+00 -2.0578489903312356e+00 1.2201526116279721e+01 3.2187789129198823e+00 1 0 0
598 34 4 0.0000000000000000e+00 -1.1468795652779242e+00 6.7715437683962367e+00 1.1213906632761896e+01 1 0 0
754 34 6 0.0000000000000000e+00 -4.2769226711636676e-01 5.2622030291699620e+00 1.0472195617987657e+01 1 0 0
609 34 2 0.0000000000000000e+00 -1.0531575436115732e+00 4.6295659449239670e+00 1.3864518463582133e+01 1 0 0
4398 234 4 0.0000000000000000e+00 -1.6095646686381864e+00 7.4660495876036803e-01 1.1386989003133369e+01 1 1 0
4412 234 2 0.0000000000000000e+00 -2.2504080824784989e+00 1.0799589734151285e+00 1.3410170096482384e+01 1 1 0
247 14 4 0.0000000000000000e+00 -5.7805751113015891e+00 8.9939151759973823e-01 1.1249320872159931e+01 1 0 0
608 34 1 0.0000000000000000e+00 -1.3977714705172302e+00 6.2559382169463769e+00 1.2462036460047779e+01 1 0 0
612 34 2 0.0000000000000000e+00 -1.7867295577652227e+00 6.9224146443002441e+00 1.3301674846514485e+01 1 0 0
979 53 3 0.0000000000000000e+00 -1.2221319875151804e-01 9.1250101552278622e+00 3.3125818528756241e+00 1 0 0
980 53 4 0.0000000000000000e+00 5.7285430175734509e-01 1.0032848053639254e+01 2.4986817429535475e+00 1 0 0
984 53 2 0.0000000000000000e+00 1.1932512307221679e+00 1.0907213566077715e+01 2.8751577174774505e+00 1 0 0
1361 74 2 0.0000000000000000e+00 -1.1730460991274612e+00 1.3240342684164089e+01 8.4338861503108902e+00 1 0 0
990 53 1 0.0000000000000000e+00 5.6226124968385782e-01 9.8485728727495836e+00 1.1260800936303574e+00 1 0 0
2253 93 6 0.0000000000000000e+00 -3.8466691010108267e-01 1.4279514993074319e+01 2.9984689763002121e+00 1 0 0
1493 53 6 0.0000000000000000e+00 -5.8234868646435123e-01 8.6574322495356402e+00 2.9873609615904200e+00 1 0 0
986 53 1 0.0000000000000000e+00 -2.4641758198804509e-01 8.8993456965550450e+00 5.1939482753739719e-01 1 0 0
1005 54 4 0.0000000000000000e+00 -4.5337302919423541e+00 7.2298907454814598e+00 8.9027689367811274e+00 1 0 0
994 53 2 0.0000000000000000e+00 1.0381569858101902e+00 1.0535891121608513e+01 4.7562549216573213e-01 1 0 0
594 33 2 0.0000000000000000e+00 2.1957169330706670e+00 7.4030124608168535e+00 6.0839947752028145e+00 1 0 0
1741 93 1 0.0000000000000000e+00 -1.6337447373297538e+00 1.3534238772729779e+01 4.9242420655232673e+00 1 0 0
977 53 7 0.0000000000000000e+00 -7.5408582858576123e-01 8.2905578652004941e+00 5.4645686705472114e+00 1 0 0
978 53 5 0.0000000000000000e+00 -1.7015272557360150e-01 9.2931974906678523e+00 4.7140323468913774e+00 1 0 0
982 53 2 0.0000000000000000e+00 -7.6437398765049647e-01 8.3693521930540165e+00 6.5487201332149469e+00 1 0 0
983 53 2 0.0000000000000000e+00 1.9848335482190027e-01 1.0239205606006282e+01 5.2072374654234839e+00 1 0 0
1012 54 2 0.0000000000000000e+00 -1.9430895611883541e+00 9.2093982201679445e+00 7.9343246908891221e+00 1 0 0
1004 54 1 0.0000000000000000e+00 -3.4707349520799964e+00 7.7310898711392335e+00 8.0727235831174973e+00 1 0 0
1363 74 2 0.0000000000000000e+00 1.1135489684261231e+00 9.6916513738410952e+00 7.8391212413514797e+00 1 0 0
1745 93 2 0.0000000000000000e+00 -2.2511862193960646e+00 1.2950631924744544e+01 5.5881203738376257e+00 1 0 0
1008 54 1 0.0000000000000000e+00 -2.8781724449673938e+00 8.9154111072138011e+00 8.4824690090678860e+00 1 0 0
1338 73 5 0.0000000000000000e+00 3.6554280303362230e+00 1.2282149283056377e+01 1.6956024783672219e+00 1 0 0
1339 73 3 0.0000000000000000e+00 3.4940394064562450e+00 1.1920907849887099e+01 3.0553089552743833e+00 1 0 0
1340 73 4 0.0000000000000000e+00 2.8179867763114661e+00 1.2775054057774184e+01 3.9041422124534124e+00 1 0 0
1341 73 1 0.0000000000000000e+00 4.9996807029031878e+00 1.0251932294397827e+01 1.2457482380017866e+00 1 0 0
1337 73 7 0.0000000000000000e+00 4.4206877470172410e+00 1.1462991684481070e+01 8.2725378766598312e-01 1 0 0
1343 73 2 0.0000000000000000e+00 3.4611947410295247e+00 1.3359840894833457e+01 1.4151506798960589e+00 1 0 0
988 53 3 0.0000000000000000e+00 -7.0231224216259602e-01 8.0232809468515907e+00 2.7378057291644948e+00 1 0 0
1348 73 3 0.0000000000000000e+00 3.9059191713608850e+00 1.0619055439796227e+01 3.4806900325795858e+00 1 0 0
1349 73 4 0.0000000000000000e+00 4.6574648113142914e+00 9.7885277666603088e+00 2.5810472463583323e+00 1 0 0
1353 73 2 0.0000000000000000e+00 5.1124133500646671e+00 8.8679717670408671e+00 2.9193187830651870e+00 1 0 0
1513 73 6 0.0000000000000000e+00 3.6989138769853191e+00 1.1268938297550127e+01 3.2466248016041130e+00 1 0 0
1356 74 5 0.0000000000000000e+00 -6.8515260162424774e-01 1.2317845070067946e+01 8.8423832143185450e+00 1 0 0
1354 73 2 0.0000000000000000e+00 2.0091810584427927e+00 1.3169048924663258e+01 5.8644791281182691e+00 1 0 0
1346 73 1 0.0000000000000000e+00 3.0633715043133618e+00 1.1223492850971054e+01 5.6979953512488191e+00 1 0 0
1347 73 4 0.0000000000000000e+00 3.6328546928367085e+00 1.0273047426198785e+01 4.8039952417577192e+00 1 0 0
1350 73 1 0.0000000000000000e+00 2.5050256165596618e+00 1.2432535074045715e+01 5.2090963885342125e+00 1 0 0
1351 73 2 0.0000000000000000e+00 2.8369166420835237e+00 1.0790712007654221e+01 6.7183477871949613e+00 1 0 0
1352 73 2 0.0000000000000000e+00 3.9341614190740613e+00 9.2839150014352629e+00 5.1356379308108995e+00 1 0 0
1345 73 2 0.0000000000000000e+00 5.4921656959806491e+00 9.6323510907058250e+00 5.3300795790909472e-01 1 0 0
1355 74 7 0.0000000000000000e+00 -8.2875539719300839e-02 1.1456946033494155e+01 7.9312513667815772e+00 1 0 0
1359 74 1 0.0000000000000000e+00 5.3941250121041762e-01 1.0311612436780663e+01 8.4334914507104131e+00 1 0 0
1360 74 2 0.0000000000000000e+00 -9.5864571607347848e-02 1.1630273981119039e+01 6.8951443130427776e+00 1 0 0
1747 93 4 0.0000000000000000e+00 -6.0565584778238801e-01 1.3236976171996291e+01 1.2990307160587495e+00 1 0 0
1748 93 3 0.0000000000000000e+00 -6.7159217140277794e-01 1.3689216930981701e+01 2.6552099333686474e+00 1 0 0
601 34 2 0.0000000000000000e+00 -9.4289648951717275e-01 7.2835809504529863e+00 8.6002816498648151e+00 1 0 0
1762 94 2 0.0000000000000000e+00 -3.3754529910387507e+00 1.6859610722209634e+01 1.0191626878176073e+01 1 0 0
1746 93 1 0.0000000000000000e+00 1.4804475245257431e-01 1.3885463562558527e+01 3.1024775422303774e-01 1 0 0
584 33 2 0.0000000000000000e+00 2.2607198444787255e+00 7.5969287078065459e+00 3.4816564463851711e+00 1 0 0
1764 94 1 0.0000000000000000e+00 -4.3817946356450035e+00 1.4623946140411030e+01 7.8642004444936866e+00 1 0 0
1749 93 4 0.0000000000000000e+00 -1.4991962452722360e+00 1.3043653752873476e+01 3.5836470919700618e+00 1 0 0
1756 94 5 0.0000000000000000e+00 -4.6351354369813027e+00 1.5166101769058448e+01 1.2035457816424136e+01 1 0 0
1344 73 2 0.0000000000000000e+00 2.3398074839666738e+00 1.3651597891527478e+01 3.5215960933732253e+00 1 0 0
1009 54 2 0.0000000000000000e+00 -3.0380311154604684e+00 7.0619665888456593e+00 7.2907798879905092e+00 1 0 0
987 53 4 0.0000000000000000e+00 -8.0402706123054157e-01 7.9629481757886609e+00 1.3482612014738344e+00 1 0 0
995 54 7 0.0000000000000000e+00 -5.4361122630962546e+00 8.9195630278925808e+00 1.2665783111476479e+01 1 0 0
996 54 5 0.0000000000000000e+00 -4.5357089718310410e+00 9.5573265209793199e+00 1.1769172329681933e+01 1 0 0
997 54 3 0.0000000000000000e+00 -4.2174561322059780e+00 8.9787932891875251e+00 1.0509182157793706e+01 1 0 0
1001 54 2 0.0000000000000000e+00 -4.0994045104687995e+00 1.0478184191781185e+01 1.2041004045936198e+01 1 0 0
1371 74 2 0.0000000000000000e+00 1.2039795929607671e+00 9.2084016867192489e+00 1.0077461081630680e+01 1 0 0
1357 74 3 0.0000000000000000e+00 -6.6021581843793697e-01 1.2106677582003853e+01 1.0237938155019148e+01 1 0 0
1767 94 4 0.0000000000000000e+00 -5.9977928940664320e+00 1.3058092007857660e+01 1.0861006607333062e+01 1 0 0
998 54 4 0.0000000000000000e+00 -3.2650643690668963e+00 9.6015424132043137e+00 9.6382179048386600e+00 1 0 0
1494 54 6 0.0000000000000000e+00 -4.5479680239548657e+00 8.4183089735786734e+00 1.0303973603037944e+01 1 0 0
1362 74 2 0.0000000000000000e+00 -1.6126062874198359e+00 1.4025305914430875e+01 1.0731365418110142e+01 1 0 0
1003 54 2 0.0000000000000000e+00 -6.7552057349542913e+00 7.2323408412610375e+00 1.2890317491296056e+01 1 0 0
999 54 1 0.0000000000000000e+00 -6.0324830798252549e+00 7.7234732995827784e+00 1.2254278495266028e+01 1 0 0
1372 74 2 0.0000000000000000e+00 -1.5465474386162974e+00 1.3479972833357511e+01 1.3157641004413728e+01 1 0 0
1514 74 6 0.0000000000000000e+00 -2.5530664715039553e-01 1.1634486270483126e+01 1.0544066937399375e+01 1 0 0
602 34 2 0.0000000000000000e+00 -1.4024227361426602e+00 7.7783343081995442e+00 1.0959210183026194e+01 1 0 0
1358 74 4 0.0000000000000000e+00 -1.2790985713665206e+00 1.3066554638964730e+01 1.1111548731581166e+01 1 0 0
1364 74 1 0.0000000000000000e+00 -6.8555151104485912e-01 1.1526667791454228e+01 1.2918674095642553e+01 1 0 0
1365 74 4 0.0000000000000000e+00 -1.0435522409020770e-01 1.0606549999951948e+01 1.1997642598585641e+01 1 0 0
1366 74 3 0.0000000000000000e+00 -5.7602687356889781e-02 1.0946786028649015e+01 1.0671671838232530e+01 1 0 0
1759 94 1 0.0000000000000000e+00 -6.0345361246099918e+00 1.3194793136140316e+01 1.2291583288671628e+01 1 0 0
1368 74 1 0.0000000000000000e+00 -1.2337032367398821e+00 1.2750573306972354e+01 1.2461154794234217e+01 1 0 0
1369 74 2 0.0000000000000000e+00 -6.4233723106537877e-01 1.1400901042642026e+01 1.4016754803520307e+01 1 0 0
1370 74 2 0.0000000000000000e+00 3.8669393025781140e-01 9.7295204241074735e+00 1.2307469370647951e+01 1 0 0
1378 75 2 0.0000000000000000e+00 -4.2094961853850963e+00 1.1506790507081524e+01 1.3903564545989598e+01 1 0 0
1000 54 2 0.0000000000000000e+00 -5.7237188891369986e+00 9.3778597666317349e+00 1.3635124257644119e+01 1 0 0
1766 94 3 0.0000000000000000e+00 -5.2785144819095606e+00 1.3968801456173304e+01 1.0048541296658151e+01 1 0 0
1006 54 3 0.0000000000000000e+00 -4.8048600578309095e+00 7.8095138079843522e+00 1.0159898990785845e+01 1 0 0
1763 94 2 0.0000000000000000e+00 -6.6319564578807926e+00 1.2476279340286000e+01 1.2814825373736360e+01 1 0 0
1367 74 4 0.0000000000000000e+00 5.5885340564946961e-01 1.0087234728514748e+01 9.7713176619657034e+00 1 0 0
1002 54 2 0.0000000000000000e+00 -2.8383834218439841e+00 1.0569913614341282e+01 9.9861882286255419e+00 1 0 0
1755 94 7 0.0000000000000000e+00 -5.3206756644328417e+00 1.4264617051997611e+01 1.2878160741553447e+01 1 0 0
1007 54 4 0.0000000000000000e+00 -5.7334055668474999e+00 7.1430905107041713e+00 1.1041837253775228e+01 1 0 0
1737 93 7 0.0000000000000000e+00 -8.7740560399771272e-01 1.4641247862305773e+01 5.3042400749320215e+00 1 0 0
1740 93 4 0.0000000000000000e+00 6.6737667394095568e-01 1.5629395730612236e+01 2.0213907656488299e+00 1 0 0
1744 93 2 0.0000000000000000e+00 1.1318785069968140e+00 1.6553864065555242e+01 2.2567796770898156e+00 1 0 0
1768 94 1 0.0000000000000000e+00 -3.7114293701130325e+00 1.5758163609163661e+01 8.3772812697660513e+00 1 0 0
1750 93 1 0.0000000000000000e+00 7.1052716297919272e-01 1.5175679374644174e+01 6.6475232176561283e-01 1 0 0
2112 113 2 0.0000000000000000e+00 3.8966241290057679e+00 1.5553335407058622e+01 5.5112673420212319e+00 1 0 0
2119 114 1 0.0000000000000000e+00 7.5003196938425987e-01 1.5883822989617855e+01 8.2382599003653247e+00 1 0 0
1064 57 2 0.0000000000000000e+00 7.3154768725595583e+00 6.3307966316645468e+00 9.3474501060930493e-01 1 0 0
1743 93 2 0.0000000000000000e+00 4.5461216313068542e-01 1.6198705476670128e+01 4.5796902049604986e+00 1 0 0
2127 114 4 0.0000000000000000e+00 6.1673579281222146e-01 1.5488453273538692e+01 9.5426335388144263e+00 1 0 0
1772 94 2 0.0000000000000000e+00 -3.2551455251831163e+00 1.6532458558703507e+01 7.7131538238976169e+00 1 0 0
1739 93 3 0.0000000000000000e+00 -4.3663164400118415e-02 1.4870345411598240e+01 3.0072154265676398e+00 1 0 0
1754 93 2 0.0000000000000000e+00 1.1631080806492364e+00 1.5774556018798343e+01 -4.5389897084835762e-02 1 0 0
2097 113 7 0.0000000000000000e+00 4.3393014611987626e+00 1.7260378820235459e+01 1.0681412239284729e+00 1 0 0
2131 114 2 0.0000000000000000e+00 1.0203634545197060e+00 1.4499825596769526e+01 9.7860781660210403e+00 1 0 0
2101 113 1 0.0000000000000000e+00 4.7297924301487555e+00 1.6041498893864272e+01 1.6184600934086024e+00 1 0 0
2113 113 2 0.0000000000000000e+00 5.0436238276395251e+00 1.4981448022229459e+01 3.5069928328275211e+00 1 0 0
1738 93 5 0.0000000000000000e+00 -1.4384640667873505e-01 1.5338956773282861e+01 4.3395801366551412e+00 1 0 0
2108 113 3 0.0000000000000000e+00 3.7620561807454149e+00 1.6721303115564861e+01 3.7804102054211590e+00 1 0 0
2109 113 4 0.0000000000000000e+00 4.5472895859276505e+00 1.5836406276773971e+01 3.0336372464461716e+00 1 0 0
2273 113 6 0.0000000000000000e+00 3.6326080825132081e+00 1.7319205368910570e+01 3.4001998342741691e+00 1 0 0
2106 113 1 0.0000000000000000e+00 2.9348198376674679e+00 1.7451721801632100e+01 5.9610608672875589e+00 1 0 0
2107 113 4 0.0000000000000000e+00 3.5749801937388117e+00 1.6491130517804375e+01 5.1754811837272126e+00 1 0 0
2111 113 2 0.0000000000000000e+00 2.8222877678996001e+00 1.7287256668488332e+01 7.0250145335857557e+00 1 0 0
2115 114 7 0.0000000000000000e+00 1.7031826392964877e-01 1.7130082000086624e+01 7.7950550215389658e+00 1 0 0
2102 113 2 0.0000000000000000e+00 4.6198490679450401e+00 1.7429707632013436e+01 1.7698500982702259e-02 1 0 0
2120 114 2 0.0000000000000000e+00 1.6322036488380487e-01 1.7480967844126376e+01 6.8097348001770435e+00 1 0 0
2123 114 2 0.0000000000000000e+00 1.2709071422145399e+00 1.5331970483387877e+01 7.4218364723664170e+00 1 0 0
1760 94 2 0.0000000000000000e+00 -5.3691424597754418e+00 1.4343367474400802e+01 1.3975821040329368e+01 1 0 0
2105 113 2 0.0000000000000000e+00 5.3624243754761451e+00 1.5262354204045840e+01 1.1467845618339478e+00 1 0 0
1742 93 2 0.0000000000000000e+00 -8.9197121597937734e-01 1.5096891083376848e+01 6.2826271056334848e+00 1 0 0
2513 133 2 0.0000000000000000e+00 -1.6029604384636427e+00 1.7936351168911312e+01 2.9966520879690028e+00 1 0 0
2117 114 3 0.0000000000000000e+00 -5.6171932833455962e-01 1.7583241014291346e+01 9.9876795700935652e+00 1 0 0
1761 94 2 0.0000000000000000e+00 -4.1682357528639313e+00 1.6019569903492666e+01 1.2523488912631995e+01 1 0 0
2274 114 6 0.0000000000000000e+00 -2.7802887120125952e-01 1.7055424993505699e+01 1.0312399543130471e+01 1 0 0
2254 94 6 0.0000000000000000e+00 -5.0282394191903146e+00 1.4598516350369900e+01 1.0278030406056290e+01 1 0 0
2130 114 2 0.0000000000000000e+00 6.6071597570049168e-01 1.5357019878836340e+01 1.2160521774697708e+01 1 0 0
2124 114 1 0.0000000000000000e+00 -4.0061318498227383e-01 1.7148042102490855e+01 1.2695869139623868e+01 1 0 0
2125 114 4 0.0000000000000000e+00 1.9087099221961523e-01 1.6247918341723867e+01 1.1822090312243436e+01 1 0 0
2126 114 3 0.0000000000000000e+00 6.7571753052200201e-02 1.6435896380614096e+01 1.0426611512646858e+01 1 0 0
1758 94 4 0.0000000000000000e+00 -3.8350275725434377e+00 1.5954804624766261e+01 9.7711525500187300e+00 1 0 0
1757 94 3 0.0000000000000000e+00 -4.5681196231349599e+00 1.5042894122299302e+01 1.0591313341053725e+01 1 0 0
251 14 2 0.0000000000000000e+00 -6.3684576933361683e+00 4.7736763733679882e-02 1.0921683743283523e+01 1 0 0
1342 73 2 0.0000000000000000e+00 4.7557470774139468e+00 1.1746456180614350e+01 -1.8207224133731797e-01 1 0 0
1010 54 2 0.0000000000000000e+00 -4.9215352410700488e+00 6.2180623595533842e+00 8.6047367387734646e+00 1 0 0
2099 113 3 0.0000000000000000e+00 3.2448858491313941e+00 1.7910288663028940e+01 3.2108316690795782e+00 1 0 0
249 14 2 0.0000000000000000e+00 -4.2489746145748226e+00 2.0560500710380216e+00 7.0801290331726934e+00 1 0 0
1787 95 2 0.0000000000000000e+00 -8.5133078997741656e+00 1.3793180563428058e+01 1.4390844401346543e+01 1 0 0
4416 235 4 0.0000000000000000e+00 -5.8642280105749265e+00 8.8223638387353764e-01 1.9047285552102203e+01 1 1 0
4420 235 2 0.0000000000000000e+00 -6.2035127344364858e+00 1.8062238055930433e+00 1.8691840433089776e+01 1 1 0
255 15 3 0.0000000000000000e+00 -8.7754503626119789e+00 3.1308325644448534e+00 1.8189947814656069e+01 1 0 0
256 15 4 0.0000000000000000e+00 -8.0333950860935808e+00 3.8828315570727390e+00 1.7204863219546585e+01 1 0 0
260 15 2 0.0000000000000000e+00 -7.6068970377652487e+00 4.8607376406965974e+00 1.7463167572668652e+01 1 0 0
1782 95 1 0.0000000000000000e+00 -8.6436610951127779e+00 1.4102771141130331e+01 1.5407050673728177e+01 1 0 0
4414 235 5 0.0000000000000000e+00 -4.8867174767301913e+00 3.4913921716902147e-01 1.6843405729960370e+01 1 1 0
264 15 3 0.0000000000000000e+00 -9.3519032722283839e+00 1.9226902141310123e+00 1.7814459694095287e+01 1 0 0
262 15 1 0.0000000000000000e+00 -8.2866429173427889e+00 2.0662786075766792e+00 1.5588018548769963e+01 1 0 0
266 15 1 0.0000000000000000e+00 -7.8090988224918965e+00 3.3443235026472897e+00 1.5937224204904069e+01 1 0 0
263 15 4 0.0000000000000000e+00 -9.1453007910923070e+00 1.3867025527980121e+00 1.6525019010840097e+01 1 0 0
735 15 6 0.0000000000000000e+00 -8.9332389524510631e+00 2.4331841195732751e+00 1.8072620238497009e+01 1 0 0
265 15 4 0.0000000000000000e+00 -1.0051812905711373e+01 1.1197299358963646e+00 1.8728532141485680e+01 1 0 0
1805 96 2 0.0000000000000000e+00 -1.2519054976428679e+01 1.3791979075544027e+01 2.1678809605940977e+01 1 0 0
613 35 7 0.0000000000000000e+00 -4.5069968014037922e+00 5.5747064939805950e+00 1.6112676711720294e+01 1 0 0
618 35 2 0.0000000000000000e+00 -4.3207781173062187e+00 5.9820904782447171e+00 1.5110161605382265e+01 1 0 0
615 35 3 0.0000000000000000e+00 -5.3242212585113613e+00 5.7527864269372069e+00 1.8419646134504085e+01 1 0 0
617 35 1 0.0000000000000000e+00 -3.9318967864914702e+00 4.3056762489597169e+00 1.6331811684407473e+01 1 0 0
621 35 2 0.0000000000000000e+00 -3.4582505272625994e+00 3.7613183908493761e+00 1.5483576748204896e+01 1 0 0
624 35 3 0.0000000000000000e+00 -4.7011761967910113e+00 4.5451946265234460e+00 1.8722196309436107e+01 1 0 0
625 35 4 0.0000000000000000e+00 -4.0569535037139683e+00 3.8245752693888710e+00 1.7659529158629624e+01 1 0 0
629 35 2 0.0000000000000000e+00 -3.6547577559906745e+00 2.8391727896976473e+00 1.7867945903488632e+01 1 0 0
755 35 6 0.0000000000000000e+00 -4.9494335660242719e+00 5.1302610045498271e+00 1.8428262908583825e+01 1 0 0
270 15 2 0.0000000000000000e+00 -7.1544300636285412e+00 3.8787577196886942e+00 1.5283259460354218e+01 1 0 0
614 35 5 0.0000000000000000e+00 -5.2197998113714910e+00 6.3005848481294091e+00 1.7112417838606053e+01 1 0 0
4419 235 2 0.0000000000000000e+00 -5.2779242545803493e+00 1.3532255919396643e+00 1.6553950380529603e+01 1 1 0
1025 55 4 0.0000000000000000e+00 -9.8058992702330059e+00 6.7517695915454059e+00 1.8318559653226917e+01 1 0 0
616 35 4 0.0000000000000000e+00 -5.9428817093100390e+00 6.5125140377635757e+00 1.9404443144496167e+01 1 0 0
231 13 2 0.0000000000000000e+00 -1.6343574383293550e+01 2.2943491970485330e+00 2.9394507673388631e+01 1 0 -1
2153 116 3 0.0000000000000000e+00 -9.5220556708109179e+00 1.7857981609949011e+01 2.5768027506121932e+01 1 0 0
254 15 5 0.0000000000000000e+00 -8.9443801449553959e+00 3.5633193866849355e+00 1.9532944799910780e+01 1 0 0
280 16 1 0.0000000000000000e+00 -1.2697079999278376e+01 2.3319846879315853e+00 2.3135782274161393e+01 1 0 0
2164 116 1 0.0000000000000000e+00 -1.0576377091432214e+01 1.7798998863546011e+01 2.7959554298925347e+01 1 0 0
258 15 2 0.0000000000000000e+00 -9.9586256931621708e+00 3.0942565217920177e+00 2.1347863977895685e+01 1 0 0
634 36 4 0.0000000000000000e+00 -1.0197217581461114e+01 6.3950041378133768e+00 2.6173748472094612e+01 1 0 0
4433 236 3 0.0000000000000000e+00 -9.5432018733191555e+00 4.2725607249256413e-02 2.5574178324123576e+01 1 1 0
257 15 1 0.0000000000000000e+00 -1.0273511117537190e+01 1.5917568470684609e+00 2.0020791478782240e+01 1 0 0
284 16 1 0.0000000000000000e+00 -1.2223911290578931e+01 3.5687401656214512e+00 2.3599069061768034e+01 1 0 0
279 16 2 0.0000000000000000e+00 -1.4903902626794666e+01 6.0851554847550648e-01 2.8182786751331601e+01 1 0 0
2163 116 4 0.0000000000000000e+00 -8.0857341226394368e+00 1.5996515031238216e+01 2.4996222716594993e+01 1 0 0
288 16 2 0.0000000000000000e+00 -1.1703240602828101e+01 4.1803544363498109e+00 2.2902097621065053e+01 1 0 0
271 16 7 0.0000000000000000e+00 -1.3911786831648204e+01 2.5768244732491041e+00 2.8020022937000050e+01 1 0 0
272 16 5 0.0000000000000000e+00 -1.3176290140542331e+01 3.4199558713788165e+00 2.7163770136941327e+01 1 0 0
273 16 3 0.0000000000000000e+00 -1.3002370732349787e+01 3.0534862712301436e+00 2.5824999005399786e+01 1 0 0
274 16 4 0.0000000000000000e+00 -1.2322006232143837e+01 3.9505838991775009e+00 2.4950106433845527e+01 1 0 0