LAMMPS (15 May 2015)
Reading data file ...
  triclinic box = (-0.107635 -0.0404339 -0.357111) to (41.3876 35.9384 29.5551) with tilt (-0.0672341 -17.0362 -0.0417078)
  5 by 2 by 2 MPI processor grid
  reading atoms ...
  4560 atoms
  reading velocities ...
  4560 velocities
  scanning bonds ...
  3 = max bonds/atom
  scanning angles ...
  3 = max angles/atom
  scanning dihedrals ...
  8 = max dihedrals/atom
  scanning impropers ...
  1 = max impropers/atom
  reading bonds ...
  5040 bonds
  reading angles ...
  7200 angles
  reading dihedrals ...
  10560 dihedrals
  reading impropers ...
  2400 impropers
Finding 1-2 1-3 1-4 neighbors ...
 Special bond factors lj:   0          0          0         
 Special bond factors coul: 0          0          0         
  4 = max # of 1-2 neighbors
  8 = max # of 1-3 neighbors
  20 = max # of 1-4 neighbors
  16 = max # of special neighbors
4560 atoms in group all
720 atoms in group C
480 atoms in group S
1920 atoms in group H
720 atoms in group Si
240 atoms in group Na
240 atoms in group Ba
240 atoms in group O
4560 atoms in group naphthalene
2400 atoms in group carbon
960 atoms in group CO
Setting atom values ...
  720 settings made for charge
Setting atom values ...
  720 settings made for charge
Setting atom values ...
  1920 settings made for charge
Setting atom values ...
  480 settings made for charge
Setting atom values ...
  240 settings made for charge
Setting atom values ...
  240 settings made for charge
Setting atom values ...
  240 settings made for charge
Finding 1-2 1-3 1-4 neighbors ...
 Special bond factors lj:   0          0          0.5       
 Special bond factors coul: 0          0          0.5       
  4 = max # of 1-2 neighbors
  8 = max # of 1-3 neighbors
  20 = max # of 1-4 neighbors
  16 = max # of special neighbors
Neighbor list info ...
  4 neighbor list requests
  update every 1 steps, delay 0 steps, check yes
  master list distance cutoff = 12
Setting up run ...
Memory usage per processor = 13.4064 Mbytes
Step Temp Density PotEng E_vdwl E_tail E_coul E_long Press Volume Xy Xz Yz E_mol E_bond E_angle E_dihed 14[1] 14[2] 14[3] msd[4] msd2[4] msd3[4] msd4[4] naphthal Cella Cellb Cellc CellAlpha CellBeta CellGamma 2 3 27[1] 27[2] 27[3] 28[1] 28[2] 28[3] 
       0          298    1.2509986     3498.833            0            0            0            0   -15873.524    44657.537 -0.067234084   -17.036218 -0.041707817     3498.833    1521.0094     935.4334    889.67826    28.379601    18.846571    14.337846 7.7711016e-30 8.8746852e-30 6.8181724e-30 5.7534156e-30          298     41.49527    35.978931    34.423473    90.016431    119.66323    90.107069 1.1724189e-23 4.9466509e-24    28.379557    18.849013    14.339638    28.379812    18.845474    14.337264 
   10000    293.59888    1.2509986    3460.9609            0            0            0            0   -7771.8363    44657.537 -0.067234084   -17.036218 -0.041707817    3460.9609    1434.4236     977.1242    891.19922    28.377588    18.846436    14.336647 0.00036038969 0.00035743873 0.00053957861 0.0005391679    293.59888     41.49527    35.978931    34.423473    90.016431    119.66323    90.107069    817.46081    216.23381    28.380375    18.848104    14.338432    28.379298    18.845641    14.336919 
   20000    303.05139    1.2509986    3431.1253            0            0            0            0   -6327.5834    44657.537 -0.067234084   -17.036218 -0.041707817    3431.1253    1448.1162    924.67735    902.04411    28.379701    18.845913    14.337263 0.00038939479 0.00038914881 0.00056195669 0.00056181613    303.05139     41.49527    35.978931    34.423473    90.016431    119.66323    90.107069    851.36357    233.63687    28.379471    18.848532    14.339551    28.379692     18.84567    14.336968 
   30000    295.85064    1.2509986    3511.1101            0            0            0            0   -7849.3134    44657.537 -0.067234084   -17.036218 -0.041707817    3511.1101    1465.1121    962.93068    923.34534    28.380457    18.845727    14.337747 0.00037809715 0.00037778535 0.00055380676 0.0005534271    295.85064     41.49527    35.978931    34.423473    90.016431    119.66323    90.107069    839.01644    226.85829    28.380112    18.849025    14.339579    28.379546    18.845418    14.336711 
   40000    293.89497    1.2509986    3475.8167            0            0            0            0   -8352.7457    44657.537 -0.067234084   -17.036218 -0.041707817    3475.8167    1497.8935    934.99464     886.3725    28.377243    18.846671    14.336393 0.00036111612 0.00036077099 0.00056114754 0.00056045375    293.89497     41.49527    35.978931    34.423473    90.016431    119.66323    90.107069     850.1377    216.66967    28.379416    18.849021    14.339068    28.379983    18.845822    14.336527 
   50000    299.39697    1.2509986    3466.8936            0            0            0            0   -6953.6095    44657.537 -0.067234084   -17.036218 -0.041707817    3466.8936    1470.3335    945.52384    891.44859    28.377845    18.847297    14.337065   0.00039383 0.00039327504 0.00055593451 0.00055494439    299.39697     41.49527    35.978931    34.423473    90.016431    119.66323    90.107069    842.23998      236.298    28.379845    18.848347     14.33947    28.379538    18.846241    14.337836 
   60000    291.98627    1.2509986    3443.6851            0            0            0            0    -6402.494    44657.537 -0.067234084   -17.036218 -0.041707817    3443.6851    1438.4052    965.80335    887.40388    28.378946    18.845246    14.337329 0.00033804978 0.00033750455 0.00053478917  0.000534688    291.98627     41.49527    35.978931    34.423473    90.016431    119.66323    90.107069    810.20481    202.82987    28.379592    18.849655    14.339275    28.380012    18.845662    14.337103 
   70000    298.81403    1.2509986    3476.4031            0            0            0            0   -7582.7985    44657.537 -0.067234084   -17.036218 -0.041707817    3476.4031    1499.0415    949.95549    875.76514    28.380507    18.844716    14.337077 0.00037632364 0.00037432992 0.00057293614 0.00057192171    298.81403     41.49527    35.978931    34.423473    90.016431    119.66323    90.107069    867.99742    225.79418    28.380214    18.850244    14.339427    28.379496     18.84615    14.336588 
   80000    302.03565    1.2509986     3449.824            0            0            0            0   -6861.0335    44657.537 -0.067234084   -17.036218 -0.041707817     3449.824    1460.2449    969.12482    868.20925    28.380277    18.846945     14.33793 0.0003437385 0.00034331108 0.00053712438 0.00053705728    302.03565     41.49527    35.978931    34.423473    90.016431    119.66323    90.107069    813.74266     206.2431    28.379993     18.84897    14.340123     28.37961    18.845432    14.337108 
   90000    301.24861    1.2509986    3503.2122            0            0            0            0   -6702.7357    44657.537 -0.067234084   -17.036218 -0.041707817    3503.2122    1485.9232    973.56985    892.08402    28.377866     18.84543    14.337124 0.00034744373 0.00034672187 0.00055336202 0.00055335152    301.24861     41.49527    35.978931    34.423473    90.016431    119.66323    90.107069    838.34265    208.46624    28.379256     18.84963    14.339137    28.379731    18.845499    14.337207 
  100000    296.95482    1.2509986    3509.6674            0            0            0            0   -6353.3408    44657.537 -0.067234084   -17.036218 -0.041707817    3509.6674    1532.4725    941.91829    880.47777    28.381048    18.844741    14.337443 0.00036867853 0.00036838609 0.00055005259 0.00054993064    296.95482     41.49527    35.978931    34.423473    90.016431    119.66323    90.107069    833.32888    221.20712    28.379747    18.849245    14.339188    28.380011    18.845218    14.337134 
  110000    298.43248    1.2509986    3531.7655            0            0            0            0   -8928.7419    44657.537 -0.067234084   -17.036218 -0.041707817    3531.7655    1473.8628    970.89439    928.83112    28.379262    18.844666    14.336533 0.00035062397 0.00034959668 0.00053604043 0.00053561219    298.43248     41.49527    35.978931    34.423473    90.016431    119.66323    90.107069    812.10047    210.37438    28.378634    18.848916    14.340046    28.379974    18.844908     14.33698 
  120000    305.05969    1.2509986     3479.319            0            0            0            0   -7072.8689    44657.537 -0.067234084   -17.036218 -0.041707817     3479.319    1496.5272    935.82344    892.93151    28.381604    18.844479    14.337599 0.00033836142 0.00033802801 0.00059505337 0.00059477601    305.05969     41.49527    35.978931    34.423473    90.016431    119.66323    90.107069    901.50498    203.01685    28.379988     18.84863    14.339628    28.379936    18.844964    14.337233 
  130000     296.5946    1.2509986    3517.1222            0            0            0            0   -6617.7682    44657.537 -0.067234084   -17.036218 -0.041707817    3517.1222    1476.8279      976.643    905.80697    28.378844     18.84559    14.336831 0.00036462872 0.00036281803 0.00053513227 0.00053507831     296.5946     41.49527    35.978931    34.423473    90.016431    119.66323    90.107069    810.72461    218.77723    28.378439    18.849675    14.339989    28.379943    18.845357    14.337112 
  140000    302.31676    1.2509986    3502.6236            0            0            0            0   -5569.9837    44657.537 -0.067234084   -17.036218 -0.041707817    3502.6236    1462.5753    966.01137     917.7227    28.378194    18.847259    14.337242 0.00037586401 0.00037541829 0.00056322799 0.0005629084    302.31676     41.49527    35.978931    34.423473    90.016431    119.66323    90.107069    853.28958    225.51841      28.3799    18.848554     14.33998     28.38029    18.845664    14.337028 
  150000    292.54357    1.2509986    3453.1635            0            0            0            0   -6031.2873    44657.537 -0.067234084   -17.036218 -0.041707817    3453.1635    1400.1841    980.68636    915.10772    28.382775    18.845948      14.3382 0.00033824147 0.00033670062 0.00056478287 0.00056343719    292.54357     41.49527    35.978931    34.423473    90.016431    119.66323    90.107069    855.64522    202.94488    28.379043    18.848461    14.340624     28.38065    18.846266    14.337391 
  160000    295.86915    1.2509986    3477.6006            0            0            0            0   -7522.1213    44657.537 -0.067234084   -17.036218 -0.041707817    3477.6006    1450.4192    956.20707    910.63921    28.380936    18.846318    14.337305 0.00034765869 0.00034667556 0.0005724063 0.00057227501    295.86915     41.49527    35.978931    34.423473    90.016431    119.66323    90.107069     867.1947    208.59522     28.37998     18.84944    14.340426    28.380096    18.845279    14.337153 
  170000    302.44555    1.2509986    3517.3627            0            0            0            0   -6301.3493    44657.537 -0.067234084   -17.036218 -0.041707817    3517.3627    1477.8859    935.41215    942.29278     28.38089      18.8458    14.338401 0.00036197268 0.00035663183 0.00056816016 0.00056793198    302.44555     41.49527    35.978931    34.423473    90.016431    119.66323    90.107069    860.76182    217.18361    28.380465    18.848424     14.34168    28.380005    18.845911     14.33725 
  180000    298.74836    1.2509986    3430.3097            0            0            0            0   -7256.1137    44657.537 -0.067234084   -17.036218 -0.041707817    3430.3097    1444.8026    965.75059    865.29897    28.380954     18.84456    14.337669 0.00036959787 0.00036848538 0.00055191517 0.00055172363    298.74836     41.49527    35.978931    34.423473    90.016431    119.66323    90.107069    836.15068    221.75872    28.379896    18.848048    14.339896    28.379833    18.845651    14.337664 
  190000    300.57168    1.2509986    3505.8671            0            0            0            0   -7905.1279    44657.537 -0.067234084   -17.036218 -0.041707817    3505.8671    1497.7798    936.49926    915.15976    28.377635    18.846681    14.336921 0.00033613394 0.00033509322 0.00058501292 0.00058480011    300.57168     41.49527    35.978931    34.423473    90.016431    119.66323    90.107069    886.29372    201.68036      28.3797    18.848862    14.340637    28.379901    18.845918    14.337176 
  200000    292.01489    1.2509986    3441.0779            0            0            0            0   -7457.3561    44657.537 -0.067234084   -17.036218 -0.041707817    3441.0779    1450.2196    929.32324    905.28656    28.379259    18.846547    14.338102 0.0003658399 0.00036430923 0.00056077769 0.00056058461    292.01489     41.49527    35.978931    34.423473    90.016431    119.66323    90.107069    849.57738    219.50394    28.378528    18.848673    14.340236    28.379709    18.845631    14.337662 
  210000    295.36888    1.2509986    3410.5113            0            0            0            0   -6454.7502    44657.537 -0.067234084   -17.036218 -0.041707817    3410.5113    1450.4021    944.75169    866.49834    28.379879     18.84524    14.337699 0.00032155354 0.00032059044 0.00054176707 0.00054166316    295.36888     41.49527    35.978931    34.423473    90.016431    119.66323    90.107069    820.77633    192.93212    28.380266    18.849035     14.33896    28.379614    18.845682     14.33741 
  220000    296.93409    1.2509986    3531.4348            0            0            0            0   -6496.4854    44657.537 -0.067234084   -17.036218 -0.041707817    3531.4348    1453.2819    993.27853    923.78841    28.379802    18.845747    14.338068 0.00036193782 0.00036117799 0.00055964254 0.00055893341    296.93409     41.49527    35.978931    34.423473    90.016431    119.66323    90.107069    847.85764    217.16269    28.380077    18.849083    14.338942    28.379505    18.845502    14.338048 
  230000    300.06298    1.2509986    3514.0546            0            0            0            0     -8405.81    44657.537 -0.067234084   -17.036218 -0.041707817    3514.0546    1513.5096    934.14048    914.25577    28.381085    18.846476    14.338088 0.0003664356 0.00036334145 0.00057026335 0.00056819167    300.06298     41.49527    35.978931    34.423473    90.016431    119.66323    90.107069    863.94814    219.86136    28.381305    18.848878    14.339496    28.379108    18.846296    14.338214 
  240000    301.09641    1.2509986      3398.02            0            0            0            0   -5526.4741    44657.537 -0.067234084   -17.036218 -0.041707817      3398.02    1458.5362    925.84917    865.98945      28.3815    18.846192    14.337522 0.0003383828 0.00033780938 0.00058051438 0.00058039083    301.09641     41.49527    35.978931    34.423473    90.016431    119.66323    90.107069    879.47844    203.02968    28.379573    18.848261     14.33973    28.380163    18.845468    14.337262 
  250000    295.84809    1.2509986    3498.7776            0            0            0            0   -7369.5428    44657.537 -0.067234084   -17.036218 -0.041707817    3498.7776    1473.0624    966.21644    905.73434    28.379765    18.845537    14.337583 0.00037911322 0.00037887963 0.00055454892 0.00055443654    295.84809     41.49527    35.978931    34.423473    90.016431    119.66323    90.107069    840.14081    227.46793    28.379653    18.849317    14.340001    28.380013    18.845252    14.337415 
  260000     304.6455    1.2509986    3494.9061            0            0            0            0   -7123.4613    44657.537 -0.067234084   -17.036218 -0.041707817    3494.9061     1463.798    962.51187    917.06157    28.380156    18.845575    14.337706 0.00032142727 0.00032074011 0.00055392716 0.00055384776     304.6455     41.49527    35.978931    34.423473    90.016431    119.66323    90.107069    839.19884    192.85636    28.378955     18.84956    14.339799    28.379896    18.845635    14.337049 
  270000    301.27991    1.2509986    3561.9141            0            0            0            0   -8094.5212    44657.537 -0.067234084   -17.036218 -0.041707817    3561.9141    1499.4596    937.43749    960.43496    28.379223    18.846785    14.337345 0.00033220449 0.00033011694 0.0005759849 0.00057556447    301.27991     41.49527    35.978931    34.423473    90.016431    119.66323    90.107069    872.61629    199.32269    28.378785    18.848514    14.338523    28.379378    18.845927    14.337429 
  280000    294.48893    1.2509986     3485.882            0            0            0            0   -6832.4622    44657.537 -0.067234084   -17.036218 -0.041707817     3485.882    1474.7127    939.70861    909.98418    28.380369    18.845482     14.33767 0.00033074652 0.00033059918 0.00054383258 0.00054304779    294.48893     41.49527    35.978931    34.423473    90.016431    119.66323    90.107069    823.90557    198.44791     28.37957    18.848664    14.339478    28.380325    18.844752    14.337288 
  290000    300.45069    1.2509986    3436.2962            0            0            0            0   -6365.4604    44657.537 -0.067234084   -17.036218 -0.041707817    3436.2962    1454.0731    932.70487    896.68794    28.380097    18.845596    14.337061 0.00033812708 0.00033474641 0.00054917746 0.00054881701    300.45069     41.49527    35.978931    34.423473    90.016431    119.66323    90.107069    832.00305    202.87625    28.378494     18.84752    14.339489    28.379502    18.845966    14.337113 
  300000    296.34958    1.2509986    3549.8582            0            0            0            0   -7780.1719    44657.537 -0.067234084   -17.036218 -0.041707817    3549.8582    1511.9494     999.8755    885.84223    28.378865    18.846796    14.337144 0.00035356969 0.00035260588 0.00054737037 0.00054729677    296.34958     41.49527    35.978931    34.423473    90.016431    119.66323    90.107069    829.26532    212.14182    28.379306    18.849124    14.340581    28.379681    18.845501      14.3375 
  310000    297.99843    1.2509986    3433.3745            0            0            0            0   -7656.7161    44657.537 -0.067234084   -17.036218 -0.041707817    3433.3745    1457.3048    920.70884    896.66428    28.379383    18.845384    14.338679 0.00037477382 0.00037456707 0.00058091686 0.00058053678    297.99843     41.49527    35.978931    34.423473    90.016431    119.66323    90.107069     880.0882    224.86429     28.37928    18.849045    14.339279    28.379664    18.845851     14.33773 
  320000    295.88645    1.2509986    3504.5423            0            0            0            0   -6506.0505    44657.537 -0.067234084   -17.036218 -0.041707817    3504.5423    1475.5238    943.16484    926.96561    28.379475    18.845672    14.336381 0.00035852648 0.00035619901 0.00057905503 0.00057785025    295.88645     41.49527    35.978931    34.423473    90.016431    119.66323    90.107069    877.26753    215.11589    28.378764    18.847802    14.339154     28.37965    18.845844    14.336244 
  330000    295.37997    1.2509986    3456.2994            0            0            0            0   -4985.2475    44657.537 -0.067234084   -17.036218 -0.041707817    3456.2994    1481.9454    935.21114     885.0366    28.379068    18.845345    14.337081 0.00039161766 0.00039124006 0.00056802343 0.00056796058    295.37997     41.49527    35.978931    34.423473    90.016431    119.66323    90.107069    860.55468     234.9706    28.379112    18.849377    14.339857     28.37962    18.845316    14.337236 
  340000    303.51169    1.2509986    3418.2832            0            0            0            0    -7257.588    44657.537 -0.067234084   -17.036218 -0.041707817    3418.2832    1464.9885    941.86559    864.66464    28.380694    18.845615    14.337654 0.0003578549 0.00035754217 0.00054259479 0.00054191921    303.51169     41.49527    35.978931    34.423473    90.016431    119.66323    90.107069    822.03031    214.71294    28.379233    18.848641    14.339902    28.379784    18.845804    14.336512 
  350000    292.72996    1.2509986    3573.2491            0            0            0            0   -8284.5483    44657.537 -0.067234084   -17.036218 -0.041707817    3573.2491    1473.0464    1000.0364    936.07843    28.380714    18.845286    14.338151 0.0003494106 0.00034664331 0.0005548997 0.00055452513    292.72996     41.49527    35.978931    34.423473    90.016431    119.66323    90.107069    840.67223    209.64636    28.381076    18.849254    14.339005    28.380346    18.845197    14.337377 
  360000    302.82281    1.2509986    3452.2545            0            0            0            0    -8130.909    44657.537 -0.067234084   -17.036218 -0.041707817    3452.2545    1463.2045    919.67366     914.4589    28.380178    18.844563     14.33783 0.00037957547 0.00037639055 0.00058210751 0.00058189628    302.82281     41.49527    35.978931    34.423473    90.016431    119.66323    90.107069    881.89203    227.74528    28.379697     18.84727    14.339997    28.379686    18.845414    14.337702 
  370000    298.36279    1.2509986    3395.5072            0            0            0            0   -6215.1766    44657.537 -0.067234084   -17.036218 -0.041707817    3395.5072    1431.4033    944.94742     871.5722    28.381637    18.845666    14.337609 0.00036289849 0.00036156536 0.00056506721 0.00056475138    298.36279     41.49527    35.978931    34.423473    90.016431    119.66323    90.107069    856.07601     217.7391    28.380228    18.849321    14.340525     28.37958    18.845983     14.33732 
  380000    298.88644    1.2509986    3551.4302            0            0            0            0   -6252.3346    44657.537 -0.067234084   -17.036218 -0.041707817    3551.4302    1474.7076    959.93517    953.33622    28.377823    18.846861    14.336707 0.00033995303 0.00033953935 0.00054939001 0.00054918326    298.88644     41.49527    35.978931    34.423473    90.016431    119.66323    90.107069    832.32507    203.97182    28.379457    18.849441    14.339168    28.380225    18.845498    14.337075 
  390000     295.1022    1.2509986    3444.8287            0            0            0            0   -6635.9459    44657.537 -0.067234084   -17.036218 -0.041707817    3444.8287     1462.398    952.87009    874.87562    28.379877    18.846018    14.337286 0.00036477879 0.00036329105 0.00057315623 0.00057229881     295.1022     41.49527    35.978931    34.423473    90.016431    119.66323    90.107069    868.33085    218.86728    28.379644    18.849782    14.338696    28.379365    18.846258    14.337473 
  400000    293.84956    1.2509986    3535.2313            0            0            0            0   -8319.7926    44657.537 -0.067234084   -17.036218 -0.041707817    3535.2313    1473.3102    978.32146    929.71368    28.379215      18.8448    14.337356 0.00034588925 0.00034575949 0.00056614414 0.00056568392    293.84956     41.49527    35.978931    34.423473    90.016431    119.66323    90.107069    857.70754    207.53355    28.379625    18.848921     14.33998     28.37977    18.844895    14.337615 
  410000    299.25901    1.2509986    3452.1826            0            0            0            0   -6848.2041    44657.537 -0.067234084   -17.036218 -0.041707817    3452.1826     1492.886    947.64318    857.82879    28.378488    18.845944    14.336267 0.00032720654 0.00032613452 0.00056114255 0.00055969248    299.25901     41.49527    35.978931    34.423473    90.016431    119.66323    90.107069    850.13015    196.32393    28.379986    18.849926    14.339407    28.379705    18.844805    14.336269 
  420000    298.24381    1.2509986    3468.5911            0            0            0            0    -7766.525    44657.537 -0.067234084   -17.036218 -0.041707817    3468.5911    1457.8714     989.9609    871.34064    28.381824    18.845805    14.337162 0.00034910426 0.00034875488 0.00056344441 0.00056287105    298.24381     41.49527    35.978931    34.423473    90.016431    119.66323    90.107069    853.61747    209.46256    28.379795    18.848578     14.33996    28.380004    18.845854    14.336638 
  430000    298.88357    1.2509986    3490.5683            0            0            0            0    -9138.522    44657.537 -0.067234084   -17.036218 -0.041707817    3490.5683    1472.0439    949.04809    908.37604    28.379659    18.847141     14.33772 0.00034756719 0.00034606709 0.00057509076 0.00057333528    298.88357     41.49527    35.978931    34.423473    90.016431    119.66323    90.107069    871.26167    208.54031    28.380469    18.849724     14.34004    28.379864    18.846751    14.336913 
  440000    295.83656    1.2509986    3464.9261            0            0            0            0   -6129.4893    44657.537 -0.067234084   -17.036218 -0.041707817    3464.9261    1469.9786    924.05571    916.69734    28.379874    18.844959    14.338148 0.00036967101 0.00036740167 0.00055469538 0.00055441896    295.83656     41.49527    35.978931    34.423473    90.016431    119.66323    90.107069    840.36269     221.8026    28.380565    18.848661    14.338576    28.379585    18.845948    14.337281 
  450000    304.12377    1.2509986      3439.71            0            0            0            0   -6782.8542    44657.537 -0.067234084   -17.036218 -0.041707817      3439.71    1462.4218    958.32818    865.64128    28.380425    18.846653    14.336846 0.00034106497 0.00034072945 0.00056134751 0.00056085081    304.12377     41.49527    35.978931    34.423473    90.016431    119.66323    90.107069    850.44066    204.63898    28.379925    18.848838     14.34005    28.379785    18.846162     14.33711 
  460000    305.46161    1.2509986    3464.3708            0            0            0            0   -7941.7598    44657.537 -0.067234084   -17.036218 -0.041707817    3464.3708     1442.871    962.88758    900.50977    28.381707    18.844936    14.338207 0.00034507222 0.00034405827 0.00057295762 0.00057269308    305.46161     41.49527    35.978931    34.423473    90.016431    119.66323    90.107069    868.02996    207.04333    28.379727    18.848658    14.340565    28.380001    18.845931    14.337406 
  470000    299.16404    1.2509986    3434.3014            0            0            0            0    -7730.613    44657.537 -0.067234084   -17.036218 -0.041707817    3434.3014    1460.2939    915.49656    902.59502    28.379898    18.844522    14.337371 0.00038135441 0.00038036454 0.0005638725 0.0005637521    299.16404     41.49527    35.978931    34.423473    90.016431    119.66323    90.107069    854.26602    228.81265    28.379687    18.849952    14.339941    28.380134    18.845387     14.33717 
  480000    303.58456    1.2509986      3507.34            0            0            0            0   -8022.2551    44657.537 -0.067234084   -17.036218 -0.041707817      3507.34    1496.4484    966.04177    886.55701    28.380738     18.84512    14.336573 0.00034355797 0.00034154276 0.00055496358 0.00055388095    303.58456     41.49527    35.978931    34.423473    90.016431    119.66323    90.107069    840.76902    206.13478    28.378583    18.847998    14.339442    28.380626    18.845724    14.336666 
  490000    299.05988    1.2509986    3498.2293            0            0            0            0   -7889.7254    44657.537 -0.067234084   -17.036218 -0.041707817    3498.2293    1496.7237     925.6205    915.61506    28.379197    18.845562    14.338413 0.00034697715 0.00034565433 0.00055658578 0.00055504155    299.05988     41.49527    35.978931    34.423473    90.016431    119.66323    90.107069    843.22665    208.18629    28.379319    18.848287    14.338778    28.379099    18.845171    14.338236 
  500000    298.54378    1.2509986    3453.9548            0            0            0            0   -8463.0314    44657.537 -0.067234084   -17.036218 -0.041707817    3453.9548    1474.7166    955.73197    873.41965    28.378331    18.846169    14.337527 0.00032973135 0.00032937237 0.00054306739 0.00054238164    298.54378     41.49527    35.978931    34.423473    90.016431    119.66323    90.107069     822.7463    197.83881    28.379926    18.849476    14.339729    28.379411    18.845906    14.337846 
  510000    296.91982    1.2509986    3431.9917            0            0            0            0   -6267.0258    44657.537 -0.067234084   -17.036218 -0.041707817    3431.9917    1424.5768     969.7575    883.69936    28.377924      18.8467    14.336785 0.00035776548 0.00035735124 0.00057639172 0.00057603365    296.91982     41.49527    35.978931    34.423473    90.016431    119.66323    90.107069    873.23261    214.65929    28.379438    18.848679    14.340176    28.379498    18.845889    14.336968 
  520000    297.08495    1.2509986    3494.4968            0            0            0            0   -6985.0536    44657.537 -0.067234084   -17.036218 -0.041707817    3494.4968    1472.9715     946.6844    918.20826      28.3805    18.844094    14.337896 0.00036619613 0.00036599856 0.00058637911 0.00058571299    297.08495     41.49527    35.978931    34.423473    90.016431    119.66323    90.107069    888.36349    219.71768    28.379124    18.849091    14.339704    28.380401    18.845019    14.337599 
  530000    298.27215    1.2509986    3501.8545            0            0            0            0   -8214.2419    44657.537 -0.067234084   -17.036218 -0.041707817    3501.8545    1477.0356    948.87391    914.31515     28.37873     18.84624    14.336885 0.00032603086 0.00032167835 0.00058946686 0.00058901503    298.27215     41.49527    35.978931    34.423473    90.016431    119.66323    90.107069    893.04143    195.61852    28.379966     18.84777    14.338013    28.379788    18.845612    14.336607 
  540000    294.35323    1.2509986    3301.3086            0            0            0            0   -6665.6397    44657.537 -0.067234084   -17.036218 -0.041707817    3301.3086    1420.1215    891.37598    843.12522    28.382413    18.844638    14.337485 0.00036034636 0.00035636118 0.00057066819 0.00057021071    294.35323     41.49527    35.978931    34.423473    90.016431    119.66323    90.107069    864.56148    216.20782    28.377823    18.848765     14.33868    28.380345    18.845257    14.336909 
  550000    299.78276    1.2509986    3554.0378            0            0            0            0   -8438.2152    44657.537 -0.067234084   -17.036218 -0.041707817    3554.0378    1493.4814    989.49743    913.74645    28.379597    18.847342    14.337842 0.00034874239 0.00034744308 0.00056009659 0.00055911139    299.78276     41.49527    35.978931    34.423473    90.016431    119.66323    90.107069    848.54552    209.24543    28.380159    18.849784    14.339054    28.380116    18.846348    14.337623 
  560000    289.85084    1.2509986    3521.4229            0            0            0            0   -6871.6339    44657.537 -0.067234084   -17.036218 -0.041707817    3521.4229    1468.4972    967.21332    925.55443    28.379146    18.846579    14.336886 0.00031943123 0.00031785814 0.00056573273 0.00056565887    289.85084     41.49527    35.978931    34.423473    90.016431    119.66323    90.107069    857.08427    191.65874    28.378546    18.849721    14.339414    28.379625    18.845277    14.337253 
  570000    299.23925    1.2509986    3403.5384            0            0            0            0   -7828.7347    44657.537 -0.067234084   -17.036218 -0.041707817    3403.5384    1409.7235    948.42395    891.54056     28.38077    18.844459    14.337608 0.00036244321 0.00035997963 0.0005435342 0.00054323812    299.23925     41.49527    35.978931    34.423473    90.016431    119.66323    90.107069    823.45352    217.46593    28.380286    18.848762    14.341005    28.380172    18.845223    14.337585 
  580000    297.89749    1.2509986    3457.0553            0            0            0            0    -8360.764    44657.537 -0.067234084   -17.036218 -0.041707817    3457.0553    1430.1739    982.51182    888.58203    28.380399    18.845101    14.338667 0.00035543626 0.0003549226 0.00055628365 0.00055425701    297.89749     41.49527    35.978931    34.423473    90.016431    119.66323    90.107069    842.76893    213.26176    28.379463    18.848377    14.339955    28.379772    18.844581    14.338372 
  590000    299.59327    1.2509986     3450.469            0            0            0            0   -7695.1521    44657.537 -0.067234084   -17.036218 -0.041707817     3450.469    1443.8781    939.25202    912.86147     28.37981    18.845309    14.337926 0.00038571072 0.0003846564 0.00055092285 0.00055081553    299.59327     41.49527    35.978931    34.423473    90.016431    119.66323    90.107069    834.64732    231.42643    28.379924    18.848054    14.339639    28.379564    18.845273    14.337192 
  600000     300.5866    1.2509986    3494.0232            0            0            0            0   -7261.7441    44657.537 -0.067234084   -17.036218 -0.041707817    3494.0232    1460.8557    985.36749    892.92619    28.380008     18.84472    14.337218 0.00038636746 0.00038482698 0.00055510802 0.00055489682     300.5866     41.49527    35.978931    34.423473    90.016431    119.66323    90.107069    840.98784    231.82048    28.379912    18.849543    14.340703    28.379687    18.845401    14.336828 
  610000    293.55414    1.2509986    3472.4623            0            0            0            0   -8125.0831    44657.537 -0.067234084   -17.036218 -0.041707817    3472.4623    1455.5145    933.64626    923.42235    28.379846    18.846802     14.33697 0.00034334598 0.00034196676 0.00056474679 0.00056446338    293.55414     41.49527    35.978931    34.423473    90.016431    119.66323    90.107069    855.59056    206.00759    28.379892    18.850042    14.339183    28.380254    18.845666    14.337037 
  620000     297.2143    1.2509986    3439.4076            0            0            0            0   -5841.1477    44657.537 -0.067234084   -17.036218 -0.041707817    3439.4076    1385.2242     998.5105    896.65202    28.378648     18.84594    14.337123 0.00033472283 0.00033234895 0.00055180866 0.00055168418     297.2143     41.49527    35.978931    34.423473    90.016431    119.66323    90.107069    835.98932     200.8337     28.38065    18.849507    14.338671    28.379916     18.84581     14.33723 
  630000    299.80905    1.2509986    3478.5221            0            0            0            0   -7993.5807    44657.537 -0.067234084   -17.036218 -0.041707817    3478.5221    1469.2395     964.8158    894.41064    28.379498    18.846113    14.337605 0.00036570884 0.00036451896 0.00056390536 0.00056291243    299.80905     41.49527    35.978931    34.423473    90.016431    119.66323    90.107069     854.3158    219.42531    28.378631    18.849408    14.339218    28.380671    18.845012    14.337061 
  640000    288.67553    1.2509986    3562.6686            0            0            0            0   -6519.7684    44657.537 -0.067234084   -17.036218 -0.041707817    3562.6686     1474.321    987.75305    939.72216    28.380316    18.844528    14.337675 0.00035589452 0.0003555448 0.00055455073 0.00055381131    288.67553     41.49527    35.978931    34.423473    90.016431    119.66323    90.107069    840.14354    213.53671    28.379754    18.848844    14.340169    28.380444    18.845397    14.337842 
  650000    297.71751    1.2509986    3476.0931            0            0            0            0   -7824.9571    44657.537 -0.067234084   -17.036218 -0.041707817    3476.0931     1493.786    941.81165    883.97271    28.380604    18.845838    14.336748 0.00036968606 0.00036916254 0.00057785297 0.00057724115    297.71751     41.49527    35.978931    34.423473    90.016431    119.66323    90.107069    875.44641    221.81164    28.380084    18.848534    14.339763    28.380044    18.845576    14.336524 
  660000    299.76718    1.2509986    3519.5112            0            0            0            0   -4962.3629    44657.537 -0.067234084   -17.036218 -0.041707817    3519.5112    1467.3029    980.05728    913.76161    28.376826    18.845194    14.336111 0.00038277143 0.00038098238 0.00056810158 0.00056780286    299.76718     41.49527    35.978931    34.423473    90.016431    119.66323    90.107069    860.67307    229.66286    28.378839    18.848533    14.340659    28.379675    18.845098    14.336892 
  670000    301.31188    1.2509986    3516.9787            0            0            0            0   -6672.6336    44657.537 -0.067234084   -17.036218 -0.041707817    3516.9787    1487.6176    979.60562    896.00563    28.381286    18.843925    14.336797 0.00034904794 0.00034715737 0.00056864913 0.00056717934    301.31188     41.49527    35.978931    34.423473    90.016431    119.66323    90.107069    861.50261    209.42877    28.380539    18.848321    14.338969    28.380269    18.844991    14.336251 
  680000    297.60438    1.2509986    3435.4837            0            0            0            0    -7746.075    44657.537 -0.067234084   -17.036218 -0.041707817    3435.4837    1454.1712    939.74212    891.65409    28.379723    18.846171     14.33682 0.00035186294 0.00035124615 0.00057357871 0.0005730144    297.60438     41.49527    35.978931    34.423473    90.016431    119.66323    90.107069     868.9709    211.11776    28.380121    18.849244    14.339143     28.37973    18.845841    14.336614 
  690000    293.16966    1.2509986    3462.4372            0            0            0            0   -5614.2579    44657.537 -0.067234084   -17.036218 -0.041707817    3462.4372    1451.8832    952.67489    900.37649    28.379832    18.846443     14.33723 0.00034928289 0.00034859175 0.00056489139 0.00056365314    293.16966     41.49527    35.978931    34.423473    90.016431    119.66323    90.107069    855.80963    209.56974    28.379598    18.849838    14.339728    28.379043     18.84627    14.337384 
  700000    295.06032    1.2509986    3460.3467            0            0            0            0   -5739.7032    44657.537 -0.067234084   -17.036218 -0.041707817    3460.3467    1426.9274    974.71378    905.01832    28.380934    18.845786    14.337661 0.00032406768 0.00032316176 0.00057743212 0.00057718863    295.06032     41.49527    35.978931    34.423473    90.016431    119.66323    90.107069    874.80882    194.44061    28.379498    18.848066    14.339721    28.380032      18.8457    14.337644 
  710000    299.30968    1.2509986    3547.2904            0            0            0            0   -7650.9374    44657.537 -0.067234084   -17.036218 -0.041707817    3547.2904    1505.2488    956.09601     923.3906    28.379133    18.844943    14.337426 0.00035864852 0.00035770468 0.00055585275 0.00055532746    299.30968     41.49527    35.978931    34.423473    90.016431    119.66323    90.107069    842.11611    215.18911    28.379072    18.848173    14.339582    28.379853     18.84612    14.336938 
  720000    293.89468    1.2509986    3461.2047            0            0            0            0   -6314.3958    44657.537 -0.067234084   -17.036218 -0.041707817    3461.2047    1474.6967    946.18876    887.71351    28.379243    18.843478    14.337196 0.00034567151 0.00034534969 0.00057054969 0.00057026726    293.89468     41.49527    35.978931    34.423473    90.016431    119.66323    90.107069    864.38195     207.4029    28.380121     18.84905    14.339596    28.380179    18.845246    14.336955 
  730000    296.57203    1.2509986    3461.5321            0            0            0            0   -7262.3382    44657.537 -0.067234084   -17.036218 -0.041707817    3461.5321    1451.6518    971.00032    886.41537    28.379858    18.845567    14.337682 0.00031871114 0.00031843891 0.00054403145 0.00054374432    296.57203     41.49527    35.978931    34.423473    90.016431    119.66323    90.107069    824.20685    191.22668    28.379994     18.84904    14.339921    28.379904     18.84587    14.337614 
  740000     300.1245    1.2509986    3491.6857            0            0            0            0   -6863.9742    44657.537 -0.067234084   -17.036218 -0.041707817    3491.6857    1426.6832    1003.6753    906.36051    28.379095    18.845139    14.337827 0.00037715988 0.00037550126 0.00056357763 0.0005631529     300.1245     41.49527    35.978931    34.423473    90.016431    119.66323    90.107069    853.81929    226.29593    28.379942    18.848993    14.340867    28.379539    18.845619    14.337838 
  750000    296.75112    1.2509986    3515.9456            0            0            0            0   -7581.3298    44657.537 -0.067234084   -17.036218 -0.041707817    3515.9456    1470.5328    986.52561    900.35403    28.382458    18.846444    14.338183 0.00032489252 0.00032430515 0.00056631229 0.00056567287    296.75112     41.49527    35.978931    34.423473    90.016431    119.66323    90.107069    857.96229    194.93551    28.379263    18.849698    14.339816    28.380582    18.845689    14.337267 
  760000    295.80668    1.2509986    3482.1484            0            0            0            0   -7757.0062    44657.537 -0.067234084   -17.036218 -0.041707817    3482.1484    1435.9854    979.89064    910.34984    28.381458    18.844238    14.337774 0.00034301631 0.00034216939 0.00058206456 0.00058166383    295.80668     41.49527    35.978931    34.423473    90.016431    119.66323    90.107069    881.82696    205.80978    28.378721    18.849383    14.339744    28.379839    18.844846     14.33734 
  770000    295.24249    1.2509986    3490.5826            0            0            0            0   -7716.3181    44657.537 -0.067234084   -17.036218 -0.041707817    3490.5826     1479.767    929.25822    916.97779    28.379062    18.845459    14.337649 0.00034450882 0.0003431689 0.00057075351 0.00056989034    295.24249     41.49527    35.978931    34.423473    90.016431    119.66323    90.107069    864.69074    206.70529    28.379202    18.848182    14.338914    28.379829    18.845931    14.338073 
  780000    297.46491    1.2509986    3489.0242            0            0            0            0   -6662.3895    44657.537 -0.067234084   -17.036218 -0.041707817    3489.0242    1448.2413    934.99237    945.22691     28.37794    18.846162    14.336535 0.00038024372 0.00037870052 0.00056952908 0.00056906327    297.46491     41.49527    35.978931    34.423473    90.016431    119.66323    90.107069    862.83573    228.14623    28.380254    18.848037     14.33996    28.379894    18.844982    14.336799 
  790000     296.2736    1.2509986    3472.4913            0            0            0            0   -8447.2313    44657.537 -0.067234084   -17.036218 -0.041707817    3472.4913    1488.1654    932.12135    894.82803    28.379216    18.845434    14.337482 0.00033038296 0.00032950383 0.00055616727 0.00055575643     296.2736     41.49527    35.978931    34.423473    90.016431    119.66323    90.107069    842.59261    198.22978    28.380486    18.848926    14.339548      28.3799    18.846063    14.337026 
  800000    293.67244    1.2509986    3459.9008            0            0            0            0   -7242.0784    44657.537 -0.067234084   -17.036218 -0.041707817    3459.9008    1461.0095    940.86753    898.70619     28.38014    18.845641    14.336835 0.0003391101 0.00033736931 0.00056874985 0.00056831607    293.67244     41.49527    35.978931    34.423473    90.016431    119.66323    90.107069     861.6552    203.46606    28.380695    18.849072    14.340302    28.380078    18.846071    14.337182 
  810000    297.55111    1.2509986    3517.8869            0            0            0            0   -6026.9795    44657.537 -0.067234084   -17.036218 -0.041707817    3517.8869    1473.8656    988.85703    903.15058     28.38135    18.844474    14.337931 0.00036239791 0.00036063518 0.00055501348 0.00055423303    297.55111     41.49527    35.978931    34.423473    90.016431    119.66323    90.107069    840.84462    217.43875    28.378539    18.848209    14.339921    28.379827    18.844685    14.336868 
  820000    300.27487    1.2509986    3538.5438            0            0            0            0   -7533.9963    44657.537 -0.067234084   -17.036218 -0.041707817    3538.5438    1518.0473    955.76389    911.65125     28.37841     18.84539    14.337078 0.00034046732 0.0003402183 0.00053661052 0.00053612361    300.27487     41.49527    35.978931    34.423473    90.016431    119.66323    90.107069    812.96416    204.28039    28.379742    18.849414    14.339406    28.379864    18.846047    14.336869 
  830000    299.11968    1.2509986    3472.5674            0            0            0            0   -5353.2129    44657.537 -0.067234084   -17.036218 -0.041707817    3472.5674    1418.6445    980.82249    917.41247    28.378519     18.84559    14.337253 0.0003481643 0.00034502587 0.00056766048 0.00056757278    299.11968     41.49527    35.978931    34.423473    90.016431    119.66323    90.107069    860.00481    208.89858    28.380421    18.847612    14.338984    28.379897    18.845373    14.337529 
  840000    295.89738    1.2509986    3465.6871            0            0            0            0   -8362.8949    44657.537 -0.067234084   -17.036218 -0.041707817    3465.6871    1481.1218    971.47542    863.99504    28.378943    18.843315    14.336912 0.00033757578 0.00033756369 0.00055115928 0.00054976999    295.89738     41.49527    35.978931    34.423473    90.016431    119.66323    90.107069    835.00551    202.54547    28.379624    18.849096    14.339615     28.37937    18.844561    14.336664 
  850000    293.34236    1.2509986     3518.033            0            0            0            0   -7355.0314    44657.537 -0.067234084   -17.036218 -0.041707817     3518.033    1471.0273    955.90113    931.85145    28.378636     18.84461    14.336809 0.00036010262 0.0003592431 0.00057885711 0.00057876254    293.34236     41.49527    35.978931    34.423473    90.016431    119.66323    90.107069    876.96769    216.06157    28.380254     18.84841    14.339735    28.379913    18.845219    14.337404 
  860000     296.7316    1.2509986    3556.7205            0            0            0            0    -6366.445    44657.537 -0.067234084   -17.036218 -0.041707817    3556.7205    1486.3173    981.70305    925.41939     28.37866    18.845953    14.336936 0.00038577918 0.00038316476 0.00058170545 0.00058124919     296.7316     41.49527    35.978931    34.423473    90.016431    119.66323    90.107069    881.28291    231.46751    28.378714    18.848137    14.338571     28.38018    18.844914    14.337347 
  870000    297.13347    1.2509986    3462.7928            0            0            0            0   -6646.1129    44657.537 -0.067234084   -17.036218 -0.041707817    3462.7928    1510.3338    929.86889    869.22758    28.379476    18.846358    14.337251 0.0003758017 0.00037425702 0.00057507604 0.00057413798    297.13347     41.49527    35.978931    34.423473    90.016431    119.66323    90.107069    871.23937    225.48102    28.380287    18.848567     14.34054    28.379663    18.846322     14.33682 
  880000    303.46437    1.2509986    3529.3311            0            0            0            0   -7925.3581    44657.537 -0.067234084   -17.036218 -0.041707817    3529.3311    1481.4283    980.71286    910.99793    28.382367    18.845971    14.337939 0.00032161595 0.00032144778 0.00056575068 0.00056489156    303.46437     41.49527    35.978931    34.423473    90.016431    119.66323    90.107069    857.11146    192.96957    28.379767    18.848793    14.339364    28.380703    18.845655    14.337443 
  890000     304.1857    1.2509986     3469.365            0            0            0            0   -5876.4708    44657.537 -0.067234084   -17.036218 -0.041707817     3469.365    1479.6053    927.07062    897.88791    28.378571    18.844977    14.337409 0.00034930056 0.00034797279 0.00058444872 0.00058407667     304.1857     41.49527    35.978931    34.423473    90.016431    119.66323    90.107069    885.43896    209.58033    28.379287    18.850009    14.339126    28.379235    18.845538    14.337077 
  900000    307.45649    1.2509986    3467.3446            0            0            0            0   -7090.1199    44657.537 -0.067234084   -17.036218 -0.041707817    3467.3446    1447.5687    958.77983    903.55866    28.379316    18.844993    14.337563 0.00033418624 0.00033307696 0.00056931704 0.00056842479    307.45649     41.49527    35.978931    34.423473    90.016431    119.66323    90.107069    862.51448    200.51174    28.380591     18.84916    14.339505    28.380214    18.844802    14.336736 
  910000    301.14485    1.2509986    3504.5059            0            0            0            0     -8274.06    44657.537 -0.067234084   -17.036218 -0.041707817    3504.5059    1498.6446    943.53366    906.27412    28.379659    18.846841    14.337842 0.00035533562 0.00035494822 0.00055182413 0.0005516034    301.14485     41.49527    35.978931    34.423473    90.016431    119.66323    90.107069    836.01276    213.20137    28.379979     18.84859    14.339464    28.379406     18.84543    14.337496 
  920000    299.97594    1.2509986    3458.5571            0            0            0            0   -7166.3801    44657.537 -0.067234084   -17.036218 -0.041707817    3458.5571    1465.8206    957.91169     883.7728    28.381661    18.846223    14.338107 0.00036882466 0.00036855969 0.00060624413 0.0006060622    299.97594     41.49527    35.978931    34.423473    90.016431    119.66323    90.107069    918.45897     221.2948    28.379758    18.848739    14.339252    28.379405    18.845358    14.337214 
  930000    298.16115    1.2509986    3508.5118            0            0            0            0   -6805.7086    44657.537 -0.067234084   -17.036218 -0.041707817    3508.5118    1477.0736     953.9108    919.60682    28.380627    18.845967    14.337641 0.00035862054 0.00035793205 0.00057563289 0.00057555079    298.16115     41.49527    35.978931    34.423473    90.016431    119.66323    90.107069    872.08299    215.17232    28.380275    18.849066     14.34005    28.379735    18.845215     14.33717 
  940000    299.03504    1.2509986    3515.3983            0            0            0            0   -6708.1834    44657.537 -0.067234084   -17.036218 -0.041707817    3515.3983     1477.904    965.72483    917.34815    28.381437    18.846251    14.337673 0.00032758413 0.00032489227 0.00057537409 0.0005746312    299.03504     41.49527    35.978931    34.423473    90.016431    119.66323    90.107069     871.6909    196.55048     28.38106    18.849055    14.340294    28.380447    18.846056    14.337227 
  950000    302.20203    1.2509986    3420.4023            0            0            0            0   -6366.6377    44657.537 -0.067234084   -17.036218 -0.041707817    3420.4023    1454.4258     941.9956    874.96824    28.379587    18.845267    14.336614 0.00035052478 0.00034954648  0.000546957 0.00054589035    302.20203     41.49527    35.978931    34.423473    90.016431    119.66323    90.107069    828.63906    210.31487    28.380214    18.848381    14.339255    28.380095    18.844527    14.337564 
  960000    300.56616    1.2509986    3422.8702            0            0            0            0   -6635.9904    44657.537 -0.067234084   -17.036218 -0.041707817    3422.8702    1442.0031    961.39241    871.64306    28.381649    18.845563    14.338564 0.00038562966 0.00038438173 0.00054999154 0.00054942183    300.56616     41.49527    35.978931    34.423473    90.016431    119.66323    90.107069    833.23639    231.37779    28.380567    18.848539    14.339693    28.379747    18.845354    14.338007 
  970000    297.12802    1.2509986    3520.9886            0            0            0            0   -8025.7011    44657.537 -0.067234084   -17.036218 -0.041707817    3520.9886    1473.4587    968.39459     921.6375     28.37965    18.846021    14.338117 0.00038923394 0.00038894785 0.00057106342  0.000570421    297.12802     41.49527    35.978931    34.423473    90.016431    119.66323    90.107069    865.16025    233.54036    28.379916      18.8492    14.339289    28.379908    18.845143    14.337988 
  980000    293.70138    1.2509986    3414.6886            0            0            0            0   -7255.2927    44657.537 -0.067234084   -17.036218 -0.041707817    3414.6886    1427.0667    955.71059    880.97142    28.379882    18.845269    14.337769 0.0003564791 0.00035539074 0.00054995672 0.00054963841    293.70138     41.49527    35.978931    34.423473    90.016431    119.66323    90.107069    833.18362    213.88746     28.37904    18.848873    14.340534    28.379378    18.845788    14.337442 
  990000    300.84158    1.2509986    3471.4626            0            0            0            0   -6824.9904    44657.537 -0.067234084   -17.036218 -0.041707817    3471.4626    1461.2476    963.64035    889.87159    28.379441    18.846072    14.337256 0.00031492001 0.00031296948 0.00056168074 0.00056137205    300.84158     41.49527    35.978931    34.423473    90.016431    119.66323    90.107069    850.94551    188.95201    28.380155    18.848601    14.340831     28.38002    18.845092    14.336919 
 1000000    295.45886    1.2509986    3477.9035            0            0            0            0   -6992.9417    44657.537 -0.067234084   -17.036218 -0.041707817    3477.9035    1491.4867    935.08441    897.46148    28.380617    18.845572    14.337712 0.00032994602 0.00032988757 0.00055709744 0.00055580801    295.45886     41.49527    35.978931    34.423473    90.016431    119.66323    90.107069    844.00181    197.96761    28.379662    18.849191    14.339763    28.378747    18.845308    14.336906 
 1010000    300.15015    1.2509986    3460.2116            0            0            0            0   -8075.0479    44657.537 -0.067234084   -17.036218 -0.041707817    3460.2116    1492.9765    946.17629    871.96571    28.379409    18.844325    14.337157 0.00035074451 0.00035035907 0.0005693437 0.00056923939    300.15015     41.49527    35.978931    34.423473    90.016431    119.66323    90.107069    862.55487    210.44671     28.38014    18.848893    14.339812     28.37961    18.845229    14.337208 
 1020000    300.59194    1.2509986    3540.3233            0            0            0            0   -7914.9513    44657.537 -0.067234084   -17.036218 -0.041707817    3540.3233    1536.3971    958.81238    891.39867    28.379607    18.846834    14.337537 0.00037380373 0.00037187867 0.00053193322 0.00053172117    300.59194     41.49527    35.978931    34.423473    90.016431    119.66323    90.107069    805.87805    224.28224    28.380862    18.848544    14.339642    28.379769    18.845411    14.337718 
 1030000    294.94854    1.2509986    3465.4553            0            0            0            0    -7503.332    44657.537 -0.067234084   -17.036218 -0.041707817    3465.4553    1435.0642    969.56216    901.50355    28.378921    18.846465    14.337261 0.00033930549 0.00033425454 0.00056642965 0.00056498417    294.94854     41.49527    35.978931    34.423473    90.016431    119.66323    90.107069     858.1401     203.5833    28.379147    18.847095    14.340736    28.378648    18.845322    14.337005 
 1040000    297.08153    1.2509986    3419.8844            0            0            0            0   -8180.6111    44657.537 -0.067234084   -17.036218 -0.041707817    3419.8844    1472.4953    938.42931    861.83009     28.38093    18.846173    14.337665 0.0003552003 0.00035489839 0.00058161764 0.00058113328    297.08153     41.49527    35.978931    34.423473    90.016431    119.66323    90.107069    881.14988    213.12018    28.379996    18.849312    14.339498    28.380313    18.845033    14.337463 
 1050000    292.69571    1.2509986    3512.6269            0            0            0            0   -7437.5916    44657.537 -0.067234084   -17.036218 -0.041707817    3512.6269    1489.3245    961.70852    906.44703    28.379996    18.846307    14.336945 0.0004009885 0.0003975953 0.00054940564 0.0005479633    292.69571     41.49527    35.978931    34.423473    90.016431    119.66323    90.107069    832.34875     240.5931    28.380613    18.850482    14.339294    28.378989      18.8454    14.336393 
 1060000     296.1092    1.2509986    3452.5231            0            0            0            0   -5751.3905    44657.537 -0.067234084   -17.036218 -0.041707817    3452.5231    1462.9853    991.37774    849.12309    28.379189    18.844764    14.338158 0.00036350905 0.00036302751 0.0005509241 0.00055077248     296.1092     41.49527    35.978931    34.423473    90.016431    119.66323    90.107069     834.6492    218.10543    28.379583     18.84869    14.340252    28.379455    18.845475     14.33742 
 1070000    295.96269    1.2509986    3526.2637            0            0            0            0   -8337.8484    44657.537 -0.067234084   -17.036218 -0.041707817    3526.2637    1517.8701    946.67118    903.66837    28.382654    18.845007    14.338811 0.00035981586 0.00035679737 0.00054758406 0.00054714276    295.96269     41.49527    35.978931    34.423473    90.016431    119.66323    90.107069    829.58905    215.88952     28.37979    18.847429    14.340313    28.379197    18.845341    14.337478 
 1080000    292.94893    1.2509986    3557.1124            0            0            0            0   -9302.6327    44657.537 -0.067234084   -17.036218 -0.041707817    3557.1124    1481.1163    1013.9336    905.63074    28.380589    18.846183    14.337638 0.00035390062 0.00035302156 0.00056041712 0.00056024987    292.94893     41.49527    35.978931    34.423473    90.016431    119.66323    90.107069    849.03113    212.34037    28.379335    18.848492     14.33889    28.380109    18.845652    14.337483 
 1090000    299.38632    1.2509986    3495.8125            0            0            0            0    -7990.032    44657.537 -0.067234084   -17.036218 -0.041707817    3495.8125    1462.1896    966.49156    906.15746     28.38055    18.844527    14.337782 0.00035115695 0.00035052119 0.00058537719 0.00058477189    299.38632     41.49527    35.978931    34.423473    90.016431    119.66323    90.107069     886.8456    210.69417    28.379203    18.848578    14.339071    28.380423    18.845514    14.337744 
 1100000     294.9774    1.2509986    3474.3733            0            0            0            0    -7545.805    44657.537 -0.067234084   -17.036218 -0.041707817    3474.3733    1460.5442    934.64624    924.28765    28.377901    18.845928    14.336908 0.00034645653 0.0003420876 0.00053546621 0.00053515492     294.9774     41.49527    35.978931    34.423473    90.016431    119.66323    90.107069    811.23054    207.87392    28.377659    18.848194    14.339952     28.37942    18.845218    14.336961 
 1110000    299.41314    1.2509986    3458.0967            0            0            0            0   -7042.4912    44657.537 -0.067234084   -17.036218 -0.041707817    3458.0967     1465.896    940.23482    895.58189    28.381429    18.846322    14.337817 0.00037592931 0.00037454258 0.00055209959 0.00055184457    299.41314     41.49527    35.978931    34.423473    90.016431    119.66323    90.107069    836.43008    225.55758    28.379511     18.84791    14.340047    28.380303    18.845571    14.337194 
 1120000    304.24761    1.2509986    3484.7891            0            0            0            0   -5275.5228    44657.537 -0.067234084   -17.036218 -0.041707817    3484.7891    1461.9368    952.97591    914.95537    28.378536    18.844223    14.336788 0.00036601004 0.00036373904 0.00056281719 0.00056174145    304.24761     41.49527    35.978931    34.423473    90.016431    119.66323    90.107069    852.66723    219.60602    28.379216    18.848639    14.341057    28.379597    18.845053    14.336341 
 1130000    302.87714    1.2509986    3491.7532            0            0            0            0   -8683.4015    44657.537 -0.067234084   -17.036218 -0.041707817    3491.7532    1482.1427    976.16674    882.54073    28.380885    18.846676    14.337631 0.00035015044 0.00034987696 0.00053298926 0.00053268305    302.87714     41.49527    35.978931    34.423473    90.016431    119.66323    90.107069    807.47795    210.09026    28.379812    18.848557    14.339611    28.380171    18.845053    14.337278 
 1140000    301.13808    1.2509986    3385.6605            0            0            0            0   -6963.5875    44657.537 -0.067234084   -17.036218 -0.041707817    3385.6605     1426.532    935.18821    879.15927    28.380657    18.846125    14.337258 0.00034332698 0.00034143542 0.00057023787 0.00056992005    301.13808     41.49527    35.978931    34.423473    90.016431    119.66323    90.107069    863.90955    205.99619    28.379098     18.84846    14.338465     28.37995    18.846017    14.337331 
 1150000    292.38742    1.2509986    3392.6163            0            0            0            0   -5952.2216    44657.537 -0.067234084   -17.036218 -0.041707817    3392.6163    1400.7772    948.94989    887.50608    28.378759    18.845304    14.337239 0.00035119347 0.00035052282 0.00056008115 0.00055991318    292.38742     41.49527    35.978931    34.423473    90.016431    119.66323    90.107069    848.52212    210.71608      28.3792    18.848278    14.339694    28.379651    18.845141    14.337441 
 1160000    300.19487    1.2509986    3478.6188            0            0            0            0   -6328.6081    44657.537 -0.067234084   -17.036218 -0.041707817    3478.6188    1440.7281    986.12633      897.129    28.378129    18.844377    14.337667 0.00033945782 0.00033929169 0.00055112273 0.00054987986    300.19487     41.49527    35.978931    34.423473    90.016431    119.66323    90.107069    834.95013    203.67469    28.379588    18.849397    14.339771    28.380002    18.845152    14.338315 
 1170000    296.39993    1.2509986    3381.7323            0            0            0            0   -7055.8893    44657.537 -0.067234084   -17.036218 -0.041707817    3381.7323    1420.3011    939.92791    872.87345     28.37817    18.845129    14.337505 0.00037166643 0.00037140523 0.00056955201 0.00056864977    296.39993     41.49527    35.978931    34.423473    90.016431    119.66323    90.107069    862.87047    222.99986    28.379417    18.848769    14.340065    28.379007    18.845163    14.337661 
 1180000    293.87287    1.2509986    3397.4057            0            0            0            0   -6466.4942    44657.537 -0.067234084   -17.036218 -0.041707817    3397.4057    1450.7268    942.97062    855.54553    28.380008    18.845634    14.338164 0.00035338974 0.00035115969 0.00057559415 0.00057496817    293.87287     41.49527    35.978931    34.423473    90.016431    119.66323    90.107069     872.0243    212.03385    28.380515    18.849839    14.338845    28.379093    18.845713    14.337036 
 1190000    299.52265    1.2509986    3508.6248            0            0            0            0    -7050.466    44657.537 -0.067234084   -17.036218 -0.041707817    3508.6248    1479.1068    950.87546    916.86905    28.381619    18.845869    14.337901 0.00032058692 0.00032025375 0.00055842839 0.00055763183    299.52265     41.49527    35.978931    34.423473    90.016431    119.66323    90.107069     846.0182    192.35215    28.379628    18.848744    14.340144    28.380523    18.844935    14.337236 
 1200000    300.71758    1.2509986    3486.8461            0            0            0            0   -6605.6503    44657.537 -0.067234084   -17.036218 -0.041707817    3486.8461    1456.9866    940.37021    927.11256    28.378134    18.845149    14.337105 0.00033789648 0.00033679283 0.00057939953 0.00057867376    300.71758     41.49527    35.978931    34.423473    90.016431    119.66323    90.107069    877.78944    202.73789    28.380511    18.849177    14.340045    28.379098    18.845115    14.336969 
 1210000    298.14489    1.2509986    3415.7783            0            0            0            0    -7821.987    44657.537 -0.067234084   -17.036218 -0.041707817    3415.7783    1432.1778     935.3191    895.44485     28.37809    18.846231    14.336989 0.00035908033 0.00035821658 0.00057119911 0.00057098862    298.14489     41.49527    35.978931    34.423473    90.016431    119.66323    90.107069    865.36581     215.4482    28.379953    18.848185    14.339782    28.379727    18.845879    14.337464 
 1220000    295.85525    1.2509986    3519.0467            0            0            0            0   -7010.1837    44657.537 -0.067234084   -17.036218 -0.041707817    3519.0467    1492.3858    980.66717    891.60762     28.37936    18.847063    14.337205 0.00035545258 0.00035467493 0.00058659517 0.00058647134    295.85525     41.49527    35.978931    34.423473    90.016431    119.66323    90.107069    888.69084    213.27155    28.380257    18.848545    14.339899    28.380149    18.845436    14.337171 
 1230000    293.29592    1.2509986    3426.5392            0            0            0            0    -7551.686    44657.537 -0.067234084   -17.036218 -0.041707817    3426.5392    1436.4397    973.58053    872.30599    28.380345    18.845879    14.337875 0.00037287822 0.00037135742 0.00056834898 0.0005677408    293.29592     41.49527    35.978931    34.423473    90.016431    119.66323    90.107069    861.04788    223.72693    28.379687    18.849908      14.3388    28.380111     18.84484    14.337605 
 1240000    297.95593    1.2509986    3512.3072            0            0            0            0   -8941.4349    44657.537 -0.067234084   -17.036218 -0.041707817    3512.3072    1485.8883    943.11689    923.31898    28.381437    18.846488    14.338008 0.00033671548 0.00033655046 0.00052135324 0.0005202599    297.95593     41.49527    35.978931    34.423473    90.016431    119.66323    90.107069     789.8494    202.02929    28.379903    18.848838    14.339519    28.380003    18.846129    14.338057 
 1250000    296.61506    1.2509986    3447.9508            0            0            0            0   -6262.5046    44657.537 -0.067234084   -17.036218 -0.041707817    3447.9508    1458.5025    920.48538    911.07887    28.379724      18.8451    14.337677 0.00038509285 0.0003846679 0.00055666453 0.00055655735    296.61506     41.49527    35.978931    34.423473    90.016431    119.66323    90.107069    843.34595    231.05571    28.379348    18.848576    14.339201    28.379906    18.845161    14.337259 
 1260000    299.45167    1.2509986    3432.3878            0            0            0            0   -7445.9482    44657.537 -0.067234084   -17.036218 -0.041707817    3432.3878    1470.4683    928.36174    881.59439     28.37841    18.845545    14.336459 0.00035794424 0.00035735109 0.00057045761 0.00057001214    299.45167     41.49527    35.978931    34.423473    90.016431    119.66323    90.107069    864.24245    214.76655      28.3794    18.848262    14.339708    28.379491    18.845447     14.33668 
 1270000    300.08838    1.2509986    3455.5664            0            0            0            0   -6774.8236    44657.537 -0.067234084   -17.036218 -0.041707817    3455.5664     1418.784    937.78602    940.90251    28.379601    18.844697    14.337555 0.00036924792 0.00036667522 0.00056086916 0.00056063485    300.08838     41.49527    35.978931    34.423473    90.016431    119.66323    90.107069    849.71596    221.54875    28.378241    18.848775    14.340524    28.380206    18.845355     14.33701 
 1280000    298.36256    1.2509986    3473.7869            0            0            0            0   -7331.4776    44657.537 -0.067234084   -17.036218 -0.041707817    3473.7869    1470.0843    963.14687    889.50481    28.379886    18.845486    14.337841 0.00034024566 0.00033819137 0.00055628106 0.00055578797    298.36256     41.49527    35.978931    34.423473    90.016431    119.66323    90.107069      842.765     204.1474    28.379175    18.850139    14.338839    28.380005    18.845577    14.337932 
 1290000    300.49659    1.2509986    3529.8366            0            0            0            0    -7246.146    44657.537 -0.067234084   -17.036218 -0.041707817    3529.8366    1521.7734    970.98201    885.94353    28.376683      18.8463    14.337359 0.00034090836 0.00033945631 0.00057033386 0.00056982445    300.49659     41.49527    35.978931    34.423473    90.016431    119.66323    90.107069    864.05497    204.54501    28.380231    18.848679    14.340579    28.379826    18.845349    14.337967 
 1300000    296.10222    1.2509986    3538.2695            0            0            0            0   -7393.5482    44657.537 -0.067234084   -17.036218 -0.041707817    3538.2695    1476.0246    965.24314    932.13834    28.379059    18.845215    14.337006 0.00038007809 0.00037917068 0.0005562145 0.00055547325    296.10222     41.49527    35.978931    34.423473    90.016431    119.66323    90.107069    842.66415    228.04685    28.379738    18.848079    14.339693    28.380085    18.846273    14.337435 
 1310000    292.88541    1.2509986     3488.617            0            0            0            0   -7806.1026    44657.537 -0.067234084   -17.036218 -0.041707817     3488.617    1439.2304    967.72203    925.36213    28.381676    18.846114    14.338228 0.00035517747 0.00035325327  0.000581226 0.00058104238    292.88541     41.49527    35.978931    34.423473    90.016431    119.66323    90.107069    880.55655    213.10648    28.378758    18.847943    14.339261    28.379902    18.845122    14.337492 
 1320000    297.07346    1.2509986    3463.5447            0            0            0            0   -6674.9518    44657.537 -0.067234084   -17.036218 -0.041707817    3463.5447    1446.0618    978.62889    884.57404    28.378321    18.844186     14.33751 0.00039851582 0.00039685732 0.00054849811 0.00054802866    297.07346     41.49527    35.978931    34.423473    90.016431    119.66323    90.107069    830.97383    239.10949    28.379853    18.848097    14.338783    28.379861     18.84501    14.337766 
 1330000     300.4555    1.2509986     3511.302            0            0            0            0   -7850.4593    44657.537 -0.067234084   -17.036218 -0.041707817     3511.302    1456.4803    961.15151    931.02329    28.380134    18.847411    14.336944 0.00037377579 0.00037217659 0.00056258704 0.00056199215     300.4555     41.49527    35.978931    34.423473    90.016431    119.66323    90.107069    852.31855    224.26547    28.380608    18.849429    14.339072    28.380022    18.846207    14.337145 
 1340000    296.56773    1.2509986    3555.8084            0            0            0            0   -8342.0491    44657.537 -0.067234084   -17.036218 -0.041707817    3555.8084    1493.4722    973.65143    928.75673    28.381951      18.8454    14.337713 0.00032923888 0.00032810747 0.00053317584 0.00053306336    296.56773     41.49527    35.978931    34.423473    90.016431    119.66323    90.107069    807.76062    197.54333    28.380396    18.848687    14.339073    28.379812    18.845194     14.33708 
 1350000    300.86029    1.2509986    3531.5575            0            0            0            0   -7732.2388    44657.537 -0.067234084   -17.036218 -0.041707817    3531.5575    1488.0547    961.25616    928.56594    28.379302    18.844898    14.337401 0.00036288278 0.00036181492 0.00056361649 0.00056263963    300.86029     41.49527    35.978931    34.423473    90.016431    119.66323    90.107069    853.87816    217.72967    28.379937    18.849012    14.340599    28.379126    18.844947    14.336787 
 1360000    297.97764    1.2509986    3430.6729            0            0            0            0   -8079.4556    44657.537 -0.067234084   -17.036218 -0.041707817    3430.6729    1470.8255    951.66091    858.38162    28.380215    18.845152    14.338441 0.00035722902 0.0003564801 0.00056324975 0.0005621926    297.97764     41.49527    35.978931    34.423473    90.016431    119.66323    90.107069    853.32256    214.33741    28.379392    18.848762     14.34045    28.379037    18.846042    14.337631 
 1370000    297.37372    1.2509986    3500.6677            0            0            0            0   -8966.4806    44657.537 -0.067234084   -17.036218 -0.041707817    3500.6677    1486.7299    946.78845    910.80731    28.379942    18.844563    14.337867 0.0003338491 0.00033045723 0.00055078079 0.00055070136    297.37372     41.49527    35.978931    34.423473    90.016431    119.66323    90.107069    834.43209    200.30946    28.377829    18.848841    14.340254    28.380026    18.845294    14.337295 
 1380000    302.06154    1.2509986    3543.6056            0            0            0            0   -5965.0255    44657.537 -0.067234084   -17.036218 -0.041707817    3543.6056    1504.0204    1001.7933    886.64708    28.379728    18.845165    14.337681 0.00034095994 0.00033857761 0.00055474587 0.00055415392    302.06154     41.49527    35.978931    34.423473    90.016431    119.66323    90.107069    840.43918    204.57597    28.378143    18.848966    14.340257    28.379771    18.844887     14.33776 
 1390000    298.08093    1.2509986    3425.2975            0            0            0            0   -6024.7364    44657.537 -0.067234084   -17.036218 -0.041707817    3425.2975    1472.9251     918.5032    884.02315    28.381275    18.845337    14.337942 0.00034732116 0.00034489062 0.00053135759 0.00053071727    298.08093     41.49527    35.978931    34.423473    90.016431    119.66323    90.107069    805.00597    208.39269    28.379151    18.850205    14.340558    28.380091     18.84552    14.338013 
 1400000    295.63615    1.2509986    3511.1773            0            0            0            0   -6231.4226    44657.537 -0.067234084   -17.036218 -0.041707817    3511.1773    1486.0689     991.2102    883.67584    28.378162    18.845392    14.337461 0.00035089062  0.000350254 0.00055715907 0.00055659657    295.63615     41.49527    35.978931    34.423473    90.016431    119.66323    90.107069    844.09518    210.53437    28.379906     18.84917    14.338938     28.37951    18.845021     14.33778 
 1410000    306.50349    1.2509986    3429.0458            0            0            0            0   -7839.5591    44657.537 -0.067234084   -17.036218 -0.041707817    3429.0458    1437.0122    947.70007    894.32225    28.380074    18.846078    14.337869 0.00035358944 0.00035244597 0.00057044705 0.00056980062    306.50349     41.49527    35.978931    34.423473    90.016431    119.66323    90.107069    864.22645    212.15367    28.379233    18.848044    14.339321    28.379754    18.845907     14.33794 
 1420000    291.75022    1.2509986     3435.786            0            0            0            0   -7125.7475    44657.537 -0.067234084   -17.036218 -0.041707817     3435.786    1439.4525     940.1838    900.21475    28.380552    18.845931    14.337471 0.00035305053 0.00035257676 0.00055479693 0.00055461672    291.75022     41.49527    35.978931    34.423473    90.016431    119.66323    90.107069    840.51655    211.83032    28.379571    18.848814    14.338979    28.379893    18.845169    14.337548 
 1430000    296.51177    1.2509986    3517.1345            0            0            0            0   -7492.2449    44657.537 -0.067234084   -17.036218 -0.041707817    3517.1345    1472.6947    956.63859    925.46076    28.379253    18.845187    14.337806 0.00037544401 0.00037490523 0.00058351159 0.00058297865    296.51177     41.49527    35.978931    34.423473    90.016431    119.66323    90.107069    884.01921    225.26641    28.379236    18.848469    14.339264    28.379319    18.846012    14.337295 
 1440000    304.84846    1.2509986     3429.422            0            0            0            0   -6961.0618    44657.537 -0.067234084   -17.036218 -0.041707817     3429.422    1445.2279    931.30933    893.84286     28.37947    18.845187    14.337547 0.00036102991 0.00036001062 0.00054070938 0.00054004083    304.84846     41.49527    35.978931    34.423473    90.016431    119.66323    90.107069    819.17392    216.61795    28.378638     18.84861    14.339526    28.379337    18.845233    14.336644 
 1450000     295.4794    1.2509986    3418.1691            0            0            0            0   -9535.0578    44657.537 -0.067234084   -17.036218 -0.041707817    3418.1691    1435.8421    954.88877    877.07208     28.37794    18.845713     14.33797 0.00035314219 0.00035293785 0.0005766942 0.00057589218     295.4794     41.49527    35.978931    34.423473    90.016431    119.66323    90.107069    873.69088    211.88531    28.379265    18.848947    14.339977    28.379098     18.84576    14.337724 
 1460000    298.18582    1.2509986    3477.8911            0            0            0            0   -7298.1377    44657.537 -0.067234084   -17.036218 -0.041707817    3477.8911    1471.7453    939.13948    912.35366    28.381438     18.84557    14.337095 0.0004263198 0.00042115402 0.00056879623 0.00056850536    298.18582     41.49527    35.978931    34.423473    90.016431    119.66323    90.107069    861.72546    255.79188    28.380688     18.84714    14.339023    28.379896    18.845629    14.336755 
 1470000    296.88415    1.2509986     3456.673            0            0            0            0   -6619.9232    44657.537 -0.067234084   -17.036218 -0.041707817     3456.673    1481.1759    947.86929    877.47604    28.380353    18.845047    14.337848 0.00035921354 0.00035727297 0.00057535876 0.00057511581    296.88415     41.49527    35.978931    34.423473    90.016431    119.66323    90.107069    871.66768    215.52812    28.379193    18.847742    14.339199    28.379662     18.84593    14.337152 
 1480000    299.14354    1.2509986    3518.8505            0            0            0            0   -7717.5346    44657.537 -0.067234084   -17.036218 -0.041707817    3518.8505    1491.3112    942.61577    923.24808    28.380373     18.84573    14.337828 0.00033845453 0.0003358172 0.00055454843 0.00055450381    299.14354     41.49527    35.978931    34.423473    90.016431    119.66323    90.107069    840.14006    203.07272    28.377966     18.84877    14.339856    28.379646    18.845344    14.337271 
 1490000    299.16507    1.2509986    3438.8144            0            0            0            0   -6486.5578    44657.537 -0.067234084   -17.036218 -0.041707817    3438.8144    1431.5904    985.84043     868.0416    28.378109    18.844956    14.337042 0.00033502335 0.00033376504 0.00057093501 0.00057068432    299.16507     41.49527    35.978931    34.423473    90.016431    119.66323    90.107069    864.96571    201.01401    28.378468    18.849123    14.339884    28.379698    18.845962    14.337264 
 1500000    298.41865    1.2509986    3496.7775            0            0            0            0   -7229.8001    44657.537 -0.067234084   -17.036218 -0.041707817    3496.7775    1496.9982    909.28517    928.71015    28.380811    18.844908    14.337207 0.00035399645 0.00035367645 0.00057479136 0.00057391649    298.41865     41.49527    35.978931    34.423473    90.016431    119.66323    90.107069    870.80807    212.39787    28.379819    18.849202    14.340102    28.379826    18.845452    14.336329 
 1510000    296.78177    1.2509986    3421.4477            0            0            0            0   -5527.9243    44657.537 -0.067234084   -17.036218 -0.041707817    3421.4477    1449.6391     948.7862    875.32701    28.378497    18.845454    14.337178 0.00036290504 0.0003620096 0.00055982286 0.00055966873    296.78177     41.49527    35.978931    34.423473    90.016431    119.66323    90.107069    848.13083    217.74302    28.379675    18.849702       14.339    28.380008    18.845564    14.336937 
 1520000     301.6505    1.2509986     3499.265            0            0            0            0    -6458.364    44657.537 -0.067234084   -17.036218 -0.041707817     3499.265    1488.2382    959.12779    897.86666    28.379491    18.844897    14.337486 0.0003421144 0.00034055611 0.00056433016 0.0005642395     301.6505     41.49527    35.978931    34.423473    90.016431    119.66323    90.107069    854.95938    205.26864    28.379997    18.849784    14.340515    28.380056    18.845306    14.337212 
[...]
 1630000    304.23008    1.2509986    3473.7701            0            0            0            0   -6348.8674    44657.537 -0.067234084   -17.036218 -0.041707817    3473.7701    1459.8118    927.21015    928.20344    28.382317    18.845613     14.33788 0.00032735337 0.00032651172 0.00057822954 0.00057754628    304.23008     41.49527    35.978931    34.423473    90.016431    119.66323    90.107069    876.01691    196.41202    28.378897    18.848632    14.339126    28.380468    18.845778    14.336864 
 1640000     298.7447    1.2509986    3483.2249            0            0            0            0   -7531.8408    44657.537 -0.067234084   -17.036218 -0.041707817    3483.2249     1447.163     964.0654    917.62433    28.380041    18.845822    14.337913 0.0003603671 0.00035944368 0.00055904389 0.0005583554     298.7447     41.49527    35.978931    34.423473    90.016431    119.66323    90.107069    846.95068    216.22026    28.380136    18.849757    14.339451    28.379176    18.844983    14.337472 
 1650000     304.1259    1.2509986    3471.4667            0            0            0            0   -6110.3868    44657.537 -0.067234084   -17.036218 -0.041707817    3471.4667    1451.2085    985.17772    883.78133    28.380215    18.845126    14.337383 0.00030074724 0.00030044358 0.00059564546 0.00059548927     304.1259     41.49527    35.978931    34.423473    90.016431    119.66323    90.107069    902.40201    180.44834    28.379591    18.848934    14.339094    28.379592    18.845171    14.337389 
 1660000    294.01783    1.2509986    3462.0776            0            0            0            0   -7325.8677    44657.537 -0.067234084   -17.036218 -0.041707817    3462.0776    1490.2461    921.79938    897.90521    28.380534    18.845638    14.337782 0.00031704306 0.00031439824 0.00056368023 0.00056293676    294.01783     41.49527    35.978931    34.423473    90.016431    119.66323    90.107069    853.97472    190.22583    28.379236    18.848554    14.341165    28.380327    18.846133    14.337476 
 1670000    304.99084    1.2509986    3531.6112            0            0            0            0   -6550.2597    44657.537 -0.067234084   -17.036218 -0.041707817    3531.6112    1472.7234    950.11508    946.18186    28.381721    18.846652    14.337646 0.00033533912 0.00033460839 0.00054099799 0.00054057636    304.99084     41.49527    35.978931    34.423473    90.016431    119.66323    90.107069    819.61116    201.20347    28.379245    18.849625    14.339129    28.380375    18.845754    14.337102 
 1680000     300.7909    1.2509986    3499.1616            0            0            0            0   -7451.8727    44657.537 -0.067234084   -17.036218 -0.041707817    3499.1616    1470.5313    957.09654    916.45032    28.378595    18.844018     14.33742 0.00034639566 0.00034130814 0.00055408295 0.00055169228     300.7909     41.49527    35.978931    34.423473    90.016431    119.66323    90.107069    839.43486    207.83739    28.380919    18.847876    14.341031    28.378695    18.844559    14.337816 
 1690000    299.26528    1.2509986    3512.1816            0            0            0            0   -7036.5691    44657.537 -0.067234084   -17.036218 -0.041707817    3512.1816    1486.3931    959.68665    909.42491    28.381331    18.845857    14.337758 0.00032403573 0.00032233155 0.0005534903 0.00055319416    299.26528     41.49527    35.978931    34.423473    90.016431    119.66323    90.107069      838.537    194.42144    28.378653    18.848132    14.339973    28.380009    18.844982    14.337388 
 1700000    301.44728    1.2509986    3446.4756            0            0            0            0   -7118.1065    44657.537 -0.067234084   -17.036218 -0.041707817    3446.4756    1456.8546    937.15369    894.58718    28.380051     18.84604    14.337211 0.0003259323 0.00032508941 0.00058058556 0.0005805021    301.44728     41.49527    35.978931    34.423473    90.016431    119.66323    90.107069    879.58628    195.55938    28.379715     18.84824    14.339168    28.379549    18.845521    14.337154 
 1710000    304.62194    1.2509986    3492.0588            0            0            0            0   -6272.9608    44657.537 -0.067234084   -17.036218 -0.041707817    3492.0588    1456.2364    954.30644    918.38735    28.379377    18.845717     14.33734 0.00036940737 0.0003685211 0.00056200769 0.00056053047    304.62194     41.49527    35.978931    34.423473    90.016431    119.66323    90.107069    851.44083    221.64442    28.379333    18.848444    14.340354    28.380896    18.845642    14.337787 
 1720000    297.41246    1.2509986    3537.3863            0            0            0            0   -7792.2046    44657.537 -0.067234084   -17.036218 -0.041707817    3537.3863    1459.8651    978.98861    936.28395    28.380587    18.846371    14.337201 0.00031951804 0.00031703356 0.00056889455 0.0005683247    297.41246     41.49527    35.978931    34.423473    90.016431    119.66323    90.107069    861.87441    191.71083    28.378296    18.849782    14.339087    28.380036    18.845812    14.336627 
 1730000    300.29748    1.2509986    3568.0124            0            0            0            0   -7547.1206    44657.537 -0.067234084   -17.036218 -0.041707817    3568.0124    1483.9503    1003.7887    922.82352    28.381809     18.84605    14.337594 0.0003320359 0.00033163535 0.00056003092 0.00055971907    300.29748     41.49527    35.978931    34.423473    90.016431    119.66323    90.107069    848.44603    199.22154    28.380048    18.849254     14.33932     28.38015    18.845281    14.336864 
 1740000     300.6767    1.2509986    3508.1529            0            0            0            0   -6185.4224    44657.537 -0.067234084   -17.036218 -0.041707817    3508.1529    1456.3869    958.70024    928.86911    28.380077    18.846862    14.337907 0.00035434435 0.00035205724 0.00054885884 0.00054863839     300.6767     41.49527    35.978931    34.423473    90.016431    119.66323    90.107069    831.52035    212.60661    28.380249     18.84906    14.340982    28.379508    18.845327     14.33759 
 1750000    298.39299    1.2509986    3558.3018            0            0            0            0   -6847.2044    44657.537 -0.067234084   -17.036218 -0.041707817    3558.3018    1526.7002    948.33289    926.68214    28.378641    18.845936    14.337833 0.0003638607 0.00036067681 0.00056193346 0.0005618469    298.39299     41.49527    35.978931    34.423473    90.016431    119.66323    90.107069    851.32838    218.31642    28.380978    18.849857    14.340311    28.379984     18.84571     14.33723 
 1760000    294.31157    1.2509986    3471.5535            0            0            0            0   -6419.5929    44657.537 -0.067234084   -17.036218 -0.041707817    3471.5535    1477.9358    970.29889    875.21296    28.378764    18.844954    14.336951 0.00033331386 0.00033327952  0.000561502 0.00056101161    294.31157     41.49527    35.978931    34.423473    90.016431    119.66323    90.107069    850.67472    199.98832    28.379478    18.849116    14.339771    28.380117    18.846095    14.337155 
 1770000    300.67974    1.2509986    3484.0043            0            0            0            0    -6876.364    44657.537 -0.067234084   -17.036218 -0.041707817    3484.0043    1510.4226    931.93687     885.0529    28.379778    18.846363    14.337068 0.00033589319 0.00033445628 0.00057251291 0.00057233005    300.67974     41.49527    35.978931    34.423473    90.016431    119.66323    90.107069    867.35622    201.53591    28.379497    18.848885    14.340828    28.379979    18.845786    14.337024 
 1780000    298.23997    1.2509986    3503.7617            0            0            0            0   -6621.9919    44657.537 -0.067234084   -17.036218 -0.041707817    3503.7617    1491.0633    968.31425    886.89573    28.377211     18.84432    14.336229 0.00033559816 0.00033442777 0.00056295768 0.00056257175    298.23997     41.49527    35.978931    34.423473    90.016431    119.66323    90.107069    852.88007    201.35889     28.37875    18.849705    14.339437    28.379283    18.845304    14.336987 
 1790000    300.74849    1.2509986    3386.9631            0            0            0            0   -6859.9611    44657.537 -0.067234084   -17.036218 -0.041707817    3386.9631    1473.2774    916.55938    852.30373    28.381406    18.845714     14.33821 0.00035753319 0.00035571501 0.00055852885 0.00055806096    300.74849     41.49527    35.978931    34.423473    90.016431    119.66323    90.107069     846.1704    214.51991    28.378514     18.84823    14.339294    28.380029    18.845615    14.337898 
 1800000    299.05263    1.2509986    3566.7733            0            0            0            0   -8345.2037    44657.537 -0.067234084   -17.036218 -0.041707817    3566.7733    1491.6015    998.86269    914.03209    28.379788    18.846442    14.337323 0.0003352119 0.0003337762 0.00055345184 0.00055276918    299.05263     41.49527    35.978931    34.423473    90.016431    119.66323    90.107069    838.47873    201.12714    28.379673    18.849719    14.340599    28.379409     18.84601    14.337747 
 1810000     301.6376    1.2509986    3481.7073            0            0            0            0   -7940.0286    44657.537 -0.067234084   -17.036218 -0.041707817    3481.7073    1425.7702    931.66539    962.92764    28.379439    18.846176    14.338425 0.00033648994 0.00033560387 0.00056250575 0.00056234529     301.6376     41.49527    35.978931    34.423473    90.016431    119.66323    90.107069    852.19539    201.89396    28.378632    18.849034    14.339462     28.37953    18.845574    14.337531 
 1820000    294.08855    1.2509986    3471.9764            0            0            0            0   -7776.9233    44657.537 -0.067234084   -17.036218 -0.041707817    3471.9764    1483.4096    940.65509    892.88383    28.381113     18.84709     14.33776 0.00032129778 0.00032092831 0.0005517096 0.0005513326    294.08855     41.49527    35.978931    34.423473    90.016431    119.66323    90.107069    835.83923    192.77867    28.379052     18.84895    14.339971    28.379303    18.845816    14.337299 
 1830000    301.72265    1.2509986    3468.8772            0            0            0            0   -5638.3702    44657.537 -0.067234084   -17.036218 -0.041707817    3468.8772    1472.2714    967.10089    880.83786     28.37851    18.846605    14.336852 0.00036863748 0.00036815995 0.00057366896 0.00057312833    301.72265     41.49527    35.978931    34.423473    90.016431    119.66323    90.107069    869.10765    221.18249     28.38001     18.84931     14.33921    28.379715    18.845567    14.336541 
 1840000    294.79813    1.2509986    3427.9497            0            0            0            0   -5833.2147    44657.537 -0.067234084   -17.036218 -0.041707817    3427.9497    1462.5645    921.09064    889.18233    28.380952    18.846739    14.338138 0.0003715505 0.00037067919 0.00055601673 0.00055509977    294.79813     41.49527    35.978931    34.423473    90.016431    119.66323    90.107069    842.36454     222.9303    28.379649    18.848891    14.338717    28.379937    18.846377     14.33756 
 1850000    296.43148    1.2509986     3448.039            0            0            0            0   -7363.5149    44657.537 -0.067234084   -17.036218 -0.041707817     3448.039    1443.6701    948.02665    905.47634    28.379426    18.844426    14.337333 0.00035047786 0.00034930862 0.00058172244 0.00058166768    296.43148     41.49527    35.978931    34.423473    90.016431    119.66323    90.107069    881.30865    210.28671     28.37865    18.849283    14.339114     28.38004    18.845425    14.337247 
 1860000    298.01607    1.2509986    3488.9376            0            0            0            0   -7240.2262    44657.537 -0.067234084   -17.036218 -0.041707817    3488.9376    1415.3819    984.81582    930.07962    28.380114    18.844263    14.336834 0.00034126024 0.00033944171 0.00057412112 0.00057394277    298.01607     41.49527    35.978931    34.423473    90.016431    119.66323    90.107069    869.79266    204.75615    28.379453    18.847807    14.339043    28.379702    18.845604    14.336878 
 1870000    298.45747    1.2509986    3425.8078            0            0            0            0   -9104.1227    44657.537 -0.067234084   -17.036218 -0.041707817    3425.8078    1428.4973     936.5802    910.00006    28.381403    18.846635    14.338106 0.00036266291 0.00036159855 0.00056649989 0.00056634222    298.45747     41.49527    35.978931    34.423473    90.016431    119.66323    90.107069     858.2465    217.59775    28.379549     18.84824    14.338955    28.380143     18.84569    14.337221 
 1880000    291.82095    1.2509986     3527.578            0            0            0            0   -8576.5478    44657.537 -0.067234084   -17.036218 -0.041707817     3527.578    1472.3946    943.65559    952.77847    28.382159    18.844776    14.337919 0.00034380369 0.00033972438 0.00057298243 0.00057250173    291.82095     41.49527    35.978931    34.423473    90.016431    119.66323    90.107069    868.06755    206.28221    28.379561    18.848451    14.341578    28.379836    18.844798    14.337112 
 1890000     299.2311    1.2509986    3522.6628            0            0            0            0   -7933.8528    44657.537 -0.067234084   -17.036218 -0.041707817    3522.6628    1529.0341    967.14642    876.61034    28.379693    18.843672    14.337913 0.00035712939 0.00035536209 0.00057334099 0.00057293769     299.2311     41.49527    35.978931    34.423473    90.016431    119.66323    90.107069    868.61077    214.27763    28.380002    18.849107    14.340887    28.379875    18.844843    14.337251 
 1900000    296.38248    1.2509986    3518.8325            0            0            0            0   -5276.9717    44657.537 -0.067234084   -17.036218 -0.041707817    3518.8325    1477.6402    973.70705    906.21887     28.37884    18.845322    14.336535 0.00032988092 0.00032827201 0.00057261249 0.00057188991    296.38248     41.49527    35.978931    34.423473    90.016431    119.66323    90.107069    867.50709    197.92855    28.380216    18.848686    14.340671    28.379615    18.845399    14.336441 
 1910000    295.94626    1.2509986    3469.9589            0            0            0            0   -7332.2263    44657.537 -0.067234084   -17.036218 -0.041707817    3469.9589    1454.0729    975.91047    891.56367    28.380155    18.845187    14.337227 0.00035035059 0.00035028093 0.00057160739 0.00057139032    295.94626     41.49527    35.978931    34.423473    90.016431    119.66323    90.107069    865.98436    210.21035    28.379808    18.849085    14.339672    28.380113    18.845119    14.337267 
 1920000    298.75635    1.2509986    3440.0888            0            0            0            0   -8771.9334    44657.537 -0.067234084   -17.036218 -0.041707817    3440.0888    1458.2998     938.7939    889.81622    28.379135    18.845819     14.33687 0.00034556866 0.00034432932 0.00057029141 0.00056846044    298.75635     41.49527    35.978931    34.423473    90.016431    119.66323    90.107069    863.99066    207.34119    28.378835    18.849461    14.340358     28.37941    18.846137    14.336155 
 1930000    295.58372    1.2509986    3502.5376            0            0            0            0   -7445.5578    44657.537 -0.067234084   -17.036218 -0.041707817    3502.5376    1455.1777    967.55718       918.24    28.378937    18.846716    14.336721 0.00033197914 0.00033180597 0.00057039924 0.00057037242    295.58372     41.49527    35.978931    34.423473    90.016431    119.66323    90.107069    864.15402    199.18748    28.379452     18.84883    14.339997    28.379917     18.84537    14.337334 
 1940000     300.5718    1.2509986    3465.6441            0            0            0            0   -8297.0044    44657.537 -0.067234084   -17.036218 -0.041707817    3465.6441    1456.5499    962.81675    891.29044    28.380994    18.846681    14.336799 0.00037204027 0.00037127929 0.00059346195 0.00059275911     300.5718     41.49527    35.978931    34.423473    90.016431    119.66323    90.107069    899.09399    223.22416    28.378819     18.84925    14.339237     28.38037    18.845263    14.336676 
 1950000    309.27182    1.2509986    3465.2611            0            0            0            0   -8019.3299    44657.537 -0.067234084   -17.036218 -0.041707817    3465.2611    1445.5056    981.71786    883.74457    28.378292    18.844984    14.336976 0.00036447637 0.00036308156 0.00055355034 0.00055340661    309.27182     41.49527    35.978931    34.423473    90.016431    119.66323    90.107069    838.62796    218.68582    28.380719    18.848913    14.339824    28.379873    18.845387      14.3369 
 1960000    297.11489    1.2509986    3476.5791            0            0            0            0    -6600.056    44657.537 -0.067234084   -17.036218 -0.041707817    3476.5791     1451.421    977.49392    893.27397    28.379459    18.846117    14.337146 0.00035113646 0.00034842618 0.00056812929 0.00056596507    297.11489     41.49527    35.978931    34.423473    90.016431    119.66323    90.107069    860.71505    210.68188    28.381006    18.848337    14.339246    28.378876    18.846609     14.33726 
 1970000    292.42921    1.2509986    3434.2378            0            0            0            0   -6734.9751    44657.537 -0.067234084   -17.036218 -0.041707817    3434.2378    1439.2514    938.14732    904.81085    28.379017    18.847688    14.337406 0.00033665276 0.00033510214 0.00055183955 0.00055149906    292.42921     41.49527    35.978931    34.423473    90.016431    119.66323    90.107069    836.03612    201.99166    28.380149    18.848596    14.340651    28.380178    18.845922    14.337342 
 1980000    294.48162    1.2509986     3563.517            0            0            0            0   -6237.1982    44657.537 -0.067234084   -17.036218 -0.041707817     3563.517    1508.6265    989.25115    913.06998    28.379544    18.846947    14.336973 0.0003703634 0.00036998103 0.00055905416 0.00055845906    294.48162     41.49527    35.978931    34.423473    90.016431    119.66323    90.107069    846.96624    222.21804    28.379569    18.849564    14.339919    28.379178     18.84557    14.336835 
 1990000    293.21847    1.2509986    3518.2847            0            0            0            0   -6369.0741    44657.537 -0.067234084   -17.036218 -0.041707817    3518.2847    1531.8089    952.76078    882.25454    28.379941    18.845744    14.337356 0.00035688259 0.00035580151 0.00057286477 0.00057172612    293.21847     41.49527    35.978931    34.423473    90.016431    119.66323    90.107069    867.88929    214.12956    28.379957    18.848054    14.339686    28.380096    18.846503    14.337257 
 2000000    296.34735    1.2509986    3534.6275            0            0            0            0   -7641.3727    44657.537 -0.067234084   -17.036218 -0.041707817    3534.6275     1489.178    978.47399    908.10768    28.383187    18.846195    14.339351 0.0003505133 0.00035018711 0.00056683128 0.00056511674    296.34735     41.49527    35.978931    34.423473    90.016431    119.66323    90.107069    858.74856    210.30798    28.379607    18.848753    14.340144    28.380031    18.846084    14.338403 
Loop time of 3649.55 on 20 procs for 2000000 steps with 4560 atoms

Pair  time (%) = 2681.89 (73.4855)
Bond  time (%) = 343.859 (9.42195)
Neigh time (%) = 38.2446 (1.04793)
Comm  time (%) = 434.167 (11.8964)
Outpt time (%) = 0.520196 (0.0142537)
Other time (%) = 150.87 (4.13394)

Nlocal:    228 ave 240 max 222 min
Histogram: 3 4 4 1 2 4 1 0 0 1
Nghost:    5780.45 ave 5830 max 5743 min
Histogram: 1 2 3 3 4 4 1 0 0 2
Neighs:    83668.6 ave 88519 max 79932 min
Histogram: 1 1 3 6 2 3 1 2 0 1

Total # of neighbors = 1673372
Ave neighs/atom = 366.968
Ave special neighs/atom = 10.6316
Neighbor list builds = 8048
Dangerous builds = 0
System init for write_data ...
