LAMMPS data file via write_data, version 15 May 2015, timestep = 18500000

2593 atoms
6 atom types
1728 bonds
4 bond types
864 angles
3 angle types
0 dihedrals
3 dihedral types
0 impropers
1 improper types

-1.5000059281521064e+01 1.5000059281521064e+01 xlo xhi
-1.5000059281521064e+01 1.5000059281521064e+01 ylo yhi
-1.5000059281521064e+01 1.5000059281521064e+01 zlo zhi

Masses

1 15.9994
2 1.00794
3 12.0107
4 1.00794
5 12.0107
6 12.0107

Bond Coeffs # harmonic

1 1000 1
2 469 1.4
3 367 1.08
4 469 0.7

Angle Coeffs # harmonic

1 100 109.47
2 35 120
3 63 120

Dihedral Coeffs # opls

1 0 7.25 0 0
2 0 7.25 0 0
3 0 7.25 0 0

Improper Coeffs # cvff

1 2.5 -1 2

Atoms # full

1304 435 2 4.0999999999999998e-01 -1.1287233310855626e+01 -1.1277056800799459e+01 -1.1853911081462316e+01 -3 -2 -5
2119 707 1 -8.1999999999999995e-01 -1.1183327693674766e+01 -6.8492068236751891e+00 -1.1643115671715583e+01 -10 0 2
2121 707 2 4.0999999999999998e-01 -1.1745387542297680e+01 -6.3837995628672282e+00 -1.0959336974818914e+01 -10 0 2
2120 707 2 4.0999999999999998e-01 -1.0629189574556754e+01 -7.5519249381817231e+00 -1.1196812217069587e+01 -10 0 2
2061 687 2 4.0999999999999998e-01 -1.1499311023775503e+01 -7.2411527052945610e+00 -8.4642614709063881e+00 -6 0 -1
1352 451 2 4.0999999999999998e-01 -1.2647516001333589e+01 -9.8807669067672279e+00 -8.3292189273555159e+00 -6 0 3
774 258 2 4.0999999999999998e-01 -1.0127379371676170e+01 -9.8703548147706961e+00 -1.0087716754417180e+01 -12 -2 1
1305 435 2 4.0999999999999998e-01 -1.0554316949590989e+01 -9.8343873007799978e+00 -1.2073792085513112e+01 -3 -2 -5
1303 435 1 -8.1999999999999995e-01 -1.1097156877078701e+01 -1.0549903583397160e+01 -1.2513598672112371e+01 -3 -2 -5
343 115 1 -8.1999999999999995e-01 -1.1336501359292827e+01 -7.1310901775010560e+00 -1.4303314163429906e+01 -11 -5 -1
345 115 2 4.0999999999999998e-01 -1.1496311928062726e+01 -6.8913284571570550e+00 -1.3345690305077147e+01 -11 -5 -1
47 16 2 4.0999999999999998e-01 -1.3253365831986317e+01 -9.0838720121500849e+00 -1.4071708124009577e+01 -8 0 6
2473 825 1 -8.1999999999999995e-01 -1.3133002301739252e+01 -8.2155190548508941e+00 -9.0988732074493601e+00 1 -3 3
2474 825 2 4.0999999999999998e-01 -1.3752592636433880e+01 -7.9358725632073570e+00 -8.3654059491942405e+00 1 -3 3
1065 355 2 4.0999999999999998e-01 -1.4164878998831741e+01 -5.6991493808251814e+00 -1.0707502495950942e+01 -6 -5 -2
772 258 1 -8.1999999999999995e-01 -9.9651826726259500e+00 -9.0092197426397362e+00 -1.0569595545413989e+01 -12 -2 1
773 258 2 4.0999999999999998e-01 -9.0102611450032661e+00 -8.9664412509757163e+00 -1.0863472092015780e+01 -12 -2 1
2060 687 2 4.0999999999999998e-01 -9.9673440218589882e+00 -7.5090477817279595e+00 -8.9623764117283216e+00 -6 0 -1
1308 436 2 4.0999999999999998e-01 -8.1471635521091379e+00 -5.2734557541897527e+00 -1.0911153503867560e+01 -9 -2 0
1306 436 1 -8.1999999999999995e-01 -7.9324273139793755e+00 -5.3889903589192070e+00 -9.9413037177450221e+00 -9 -2 0
630 210 2 4.0999999999999998e-01 -1.0639182293037443e+01 -1.0701980638141283e+01 -1.4317881381782376e+01 -14 0 1
2244 748 2 4.0999999999999998e-01 -9.1300562029018444e+00 -1.4663370025153068e+01 -9.7869638866037789e+00 -8 -1 -5
244 82 1 -8.1999999999999995e-01 -9.4237117452184780e+00 -1.1542387550349289e+01 -8.6576237252665322e+00 -7 -6 -7
1307 436 2 4.0999999999999998e-01 -8.7596581273428438e+00 -5.2472219559561921e+00 -9.3975579590659102e+00 -9 -2 0
1587 529 2 4.0999999999999998e-01 -1.2782336164528299e+01 -1.3733080317441287e+01 -1.4945595179403471e+01 -2 1 0
507 169 2 4.0999999999999998e-01 -1.2972365756963026e+01 -1.2612990382970237e+01 -1.1077498227983330e+01 -5 -2 2
506 169 2 4.0999999999999998e-01 -1.1636731793396571e+01 -1.3416799553875904e+01 -1.0590895876814102e+01 -5 -2 2
505 169 1 -8.1999999999999995e-01 -1.2135431232205120e+01 -1.2551883783824454e+01 -1.0533554195072611e+01 -5 -2 2
1833 611 2 4.0999999999999998e-01 -8.2348745233292036e+00 -9.4144717643936993e+00 -7.9956792488801893e+00 -9 -4 -2
246 82 2 4.0999999999999998e-01 -8.8992209621964484e+00 -1.2059623596970310e+01 -7.9812770970378031e+00 -7 -6 -7
699 233 2 4.0999999999999998e-01 -1.4467365847430539e+01 -1.2591717338243154e+01 -1.3128055657349222e+01 -10 3 -3
697 233 1 -8.1999999999999995e-01 -1.4455176663746222e+01 -1.2925566011683898e+01 -1.2185471421216302e+01 -10 3 -3
49 17 1 -8.1999999999999995e-01 -8.4300575618765841e+00 -5.1022358359241053e+00 -1.3018687412231081e+01 -2 -2 -2
1831 611 1 -8.1999999999999995e-01 -7.8403260425113341e+00 -8.7303688126242331e+00 -8.6091963302634937e+00 -9 -4 -2
2048 683 2 4.0999999999999998e-01 -1.3816117645748957e+01 -5.5579660879213471e+00 -1.4773355113150050e+01 -3 0 -6
698 233 2 4.0999999999999998e-01 -1.4968530146018814e+01 -1.3781889400481148e+01 -1.2128488703342153e+01 -10 3 -3
344 115 2 4.0999999999999998e-01 -1.2110742281326790e+01 -7.6621845649390652e+00 -1.4647637115901651e+01 -11 -5 -1
2475 825 2 4.0999999999999998e-01 -1.3613936443201313e+01 -8.8283240041057951e+00 -9.7259625286233113e+00 1 -3 3
245 82 2 4.0999999999999998e-01 -1.0231196014076723e+01 -1.2067733046045960e+01 -8.9260447220357477e+00 -7 -6 -7
605 202 2 4.0999999999999998e-01 -9.4700012040799795e+00 -7.7141709402045642e+00 -1.3978992495723553e+01 -5 0 1
725 242 2 4.0999999999999998e-01 -1.0352559597246042e+01 -5.2322526715751394e+00 -8.2669384328744151e+00 -6 -1 1
2059 687 1 -8.1999999999999995e-01 -1.0559564364412209e+01 -6.9005093042436236e+00 -8.4341486670118293e+00 -6 0 -1
2242 748 1 -8.1999999999999995e-01 -1.0090162299090466e+01 -1.4427464505730216e+01 -9.6365864381859083e+00 -8 -1 -5
51 17 2 4.0999999999999998e-01 -9.4246769853802164e+00 -5.0680553063858138e+00 -1.2920542621777617e+01 -2 -2 -2
1832 611 2 4.0999999999999998e-01 -7.8738587715553203e+00 -9.0675634991306069e+00 -9.5500703259720687e+00 -9 -4 -2
2027 676 2 4.0999999999999998e-01 -8.3107509083136044e+00 -1.2120817976004862e+01 -1.0841552374292924e+01 -9 -2 -4
949 317 1 -8.1999999999999995e-01 -1.4799175890410300e+01 -1.0110558201962821e+01 -1.0567282653017152e+01 -4 -3 -4
50 17 2 4.0999999999999998e-01 -8.1518878334209575e+00 -6.0283954227147571e+00 -1.3273478597102164e+01 -2 -2 -2
222 74 2 4.0999999999999998e-01 -1.4418676683196487e+01 -1.3091118553969698e+01 -9.4080791152412484e+00 -7 1 -2
606 202 2 4.0999999999999998e-01 -8.1385599113897094e+00 -8.6552847519089724e+00 -1.4070523124179207e+01 -5 0 1
1353 451 2 4.0999999999999998e-01 -1.2696196553549797e+01 -1.1305549058154156e+01 -9.1257334283412632e+00 -6 0 3
604 202 1 -8.1999999999999995e-01 -8.5435750976534539e+00 -7.8543381300391548e+00 -1.3629483801986719e+01 -5 0 1
130 44 1 -8.1999999999999995e-01 -7.5506124523691458e+00 -1.4772772861379623e+01 -1.1008551602992853e+01 -7 -7 -1
1044 348 2 4.0999999999999998e-01 -7.6393515160389445e+00 -1.0849706276106090e+01 -1.4268074281264282e+01 -2 -1 -7
2204 735 2 4.0999999999999998e-01 -7.5262905588645550e+00 -1.0106440792495881e+01 -1.1328420910958394e+01 -7 -2 -3
1586 529 2 4.0999999999999998e-01 -1.4200959457157344e+01 -1.4540496813663323e+01 -1.4994542432408435e+01 -2 1 0
2026 676 1 -8.1999999999999995e-01 -7.8179665293364042e+00 -1.1682078233948697e+01 -1.1593043848404289e+01 -9 -2 -4
2028 676 2 4.0999999999999998e-01 -7.7802234383409505e+00 -1.2304219691167413e+01 -1.2375082194989877e+01 -9 -2 -4
1585 529 1 -8.1999999999999995e-01 -1.3759697959709847e+01 -1.3679732409602048e+01 -1.4740689227077935e+01 -2 1 0
1351 451 1 -8.1999999999999995e-01 -1.2709398708651502e+01 -1.0873325928326501e+01 -8.2240253610695504e+00 -6 0 3
950 317 2 4.0999999999999998e-01 -1.4836668193677108e+01 -1.0690696565570065e+01 -9.7535860478035499e+00 -4 -3 -4
598 200 1 -8.1999999999999995e-01 -5.0475308384534401e-02 -7.2887305818274069e+00 -1.2856820250591205e+01 -5 0 -6
1823 608 2 4.0999999999999998e-01 -5.0572452516701887e+00 -5.4563595460681213e+00 -1.0566212913168741e+01 -3 0 -3
600 200 2 4.0999999999999998e-01 -2.7087973840277257e-01 -7.5074357253982154e+00 -1.1906210705003728e+01 -5 0 -6
2205 735 2 4.0999999999999998e-01 -7.3603161689453529e+00 -8.7180141458606535e+00 -1.2171945188405349e+01 -7 -2 -3
840 280 2 4.0999999999999998e-01 -1.0887003105806681e+00 -1.2538993920408590e+01 -1.3025818296970774e+01 -5 -1 -4
2575 859 1 -8.1999999999999995e-01 -6.5414735269132596e+00 -6.6534124789823927e+00 -7.8046351971144681e+00 -8 -1 -3
2070 690 2 4.0999999999999998e-01 -3.6529886841331454e+00 -1.2922795860101365e+01 -1.3493679333936301e+01 -7 -1 -2
839 280 2 4.0999999999999998e-01 -8.8129045080211554e-01 -1.2611235160306659e+01 -1.4644018316467605e+01 -5 -1 -4
997 333 1 -8.1999999999999995e-01 -1.7401997922403538e+00 -1.1128541213642182e+01 -1.2153927095157400e+01 -10 3 -1
2422 808 1 -8.1999999999999995e-01 -9.3420797872990491e-01 -7.5441057897733641e+00 -9.6974474419836199e+00 -5 1 -5
2576 859 2 4.0999999999999998e-01 -7.0165446663423969e+00 -7.4742048719425158e+00 -8.1219294491364273e+00 -8 -1 -3
2577 859 2 4.0999999999999998e-01 -6.6298135567508556e+00 -5.9310275165874646e+00 -8.4905102229382905e+00 -8 -1 -3
892 298 1 -8.1999999999999995e-01 -6.8078038376106225e+00 -1.3760510291628032e+01 -1.3419798966494195e+01 -7 -2 -9
137 46 2 4.0999999999999998e-01 -2.3541616126722236e+00 -8.3200736449667527e+00 -9.9042842775590643e+00 -3 1 -2
1628 543 2 4.0999999999999998e-01 -3.2753251176320770e+00 -1.1963510337759129e+01 -9.8915425411421776e+00 -9 -3 -6
2274 758 2 4.0999999999999998e-01 -1.1058479995583319e+00 -6.3284703247613336e+00 -1.3551002937795950e+01 -4 0 2
1043 348 2 4.0999999999999998e-01 -6.1743273878217924e+00 -1.0278394374989729e+01 -1.4708660441616791e+01 -2 -1 -7
2057 686 2 4.0999999999999998e-01 -4.4540617314498814e+00 -7.4311835603772636e+00 -1.0634032577193798e+01 -6 -2 0
1627 543 1 -8.1999999999999995e-01 -2.6453226285764924e+00 -1.1365512022203053e+01 -9.3959989526575143e+00 -9 -3 -6
2337 779 2 4.0999999999999998e-01 -3.7076927045858099e-01 -1.2910416916206042e+01 -8.2755604535578975e+00 -9 0 -1
138 46 2 4.0999999999999998e-01 -3.3280345270841014e+00 -9.6281297811595046e+00 -9.9901321747149634e+00 -3 1 -2
999 333 2 4.0999999999999998e-01 -1.8592842992682126e+00 -1.0890397017944832e+01 -1.1189990071093645e+01 -10 3 -1
838 280 1 -8.1999999999999995e-01 -1.1064488600305289e+00 -1.3139492598454309e+01 -1.3825289831425708e+01 -5 -1 -4
2424 808 2 4.0999999999999998e-01 -1.0533004541369522e+00 -6.6025180049815511e+00 -1.0012563335514933e+01 -5 1 -5
894 298 2 4.0999999999999998e-01 -6.0316738115144908e+00 -1.3318671837224663e+01 -1.3869765075517344e+01 -7 -2 -9
1042 348 1 -8.1999999999999995e-01 -7.1079117173616320e+00 -1.0023761270721135e+01 -1.4456369248656108e+01 -2 -1 -7
1629 543 2 4.0999999999999998e-01 -3.0131019118346600e+00 -1.1174888285139064e+01 -8.4857959122753108e+00 -9 -3 -6
1386 462 2 4.0999999999999998e-01 -3.5702619280838235e+00 -6.1299172776155313e+00 -1.3860951800593082e+01 -5 -4 0
2252 751 2 4.0999999999999998e-01 -3.7276233988669070e+00 -8.7298094742109527e+00 -1.4334719579935738e+01 -7 1 1
2056 686 1 -8.1999999999999995e-01 -5.2283549692880289e+00 -7.0515448758467514e+00 -1.1140405015316555e+01 -6 -2 0
2251 751 1 -8.1999999999999995e-01 -3.8376788417900016e+00 -9.3616574664611587e+00 -1.3567435759927790e+01 -7 1 1
2203 735 1 -8.1999999999999995e-01 -7.4692303071575337e+00 -9.1104792476560945e+00 -1.1258612061892537e+01 -7 -2 -3
2058 686 2 4.0999999999999998e-01 -6.0802927680245951e+00 -7.2873828347721927e+00 -1.0672803731180295e+01 -6 -2 0
2069 690 2 4.0999999999999998e-01 -4.0471816445071660e+00 -1.1385600279398160e+01 -1.3878972415654747e+01 -7 -1 -2
1384 462 1 -8.1999999999999995e-01 -4.5673642517824931e+00 -6.1561692119986269e+00 -1.3789074339843451e+01 -5 -4 0
2253 751 2 4.0999999999999998e-01 -4.2468728428056259e+00 -8.8781859526696358e+00 -1.2793559721737797e+01 -7 1 1
136 46 1 -8.1999999999999995e-01 -3.2681003962349511e+00 -8.6428512951307042e+00 -1.0150452901037641e+01 -3 1 -2
669 223 2 4.0999999999999998e-01 -4.7130458648882136e+00 -7.0703373713999582e+00 -7.5972889289909826e+00 -5 -3 -4
1385 462 2 4.0999999999999998e-01 -4.8303680423176640e+00 -6.2304830630114640e+00 -1.2827110193929702e+01 -5 -4 0
2272 758 1 -8.1999999999999995e-01 -1.8164193031800320e+00 -5.7143757594143825e+00 -1.3894579533040083e+01 -4 0 2
2068 690 1 -8.1999999999999995e-01 -4.3668385056231767e+00 -1.2333140824696589e+01 -1.3871560060141077e+01 -7 -1 -2
2423 808 2 4.0999999999999998e-01 -2.2652169812544365e-01 -7.5723353898325980e+00 -8.9914363105635040e+00 -5 1 -5
131 44 2 4.0999999999999998e-01 -7.1812593513870135e+00 -1.4545354564926450e+01 -1.1909621951919970e+01 -7 -7 -1
893 298 2 4.0999999999999998e-01 -7.4398766022105649e+00 -1.4109366312827930e+01 -1.4111790256774659e+01 -7 -2 -9
998 333 2 4.0999999999999998e-01 -2.3456239579177947e+00 -1.0563188288036780e+01 -1.2714200419753308e+01 -10 3 -1
901 301 1 -8.1999999999999995e-01 -1.1715796332333904e+01 -1.2760670740224757e+01 -6.4652205542690080e+00 -5 -1 -5
1438 480 1 -8.1999999999999995e-01 -1.1447949197019735e+01 -1.2018132489499317e+01 -3.8328902616615661e+00 -9 -4 1
243 81 2 4.0999999999999998e-01 -1.4809428953816331e+01 -1.1499762759232107e+01 -5.3266190551224675e+00 -8 -4 -1
241 81 1 -8.1999999999999995e-01 -1.4984364149767025e+01 -1.1178645038637473e+01 -6.2573981301037271e+00 -8 -4 -1
2569 857 1 -8.1999999999999995e-01 -1.4568214647013233e+01 -6.5623127446031511e+00 -3.6128930760466140e+00 -6 1 -2
2570 857 2 4.0999999999999998e-01 -1.4036153735339223e+01 -7.3941576315986568e+00 -3.7710506689903998e+00 -6 1 -2
242 81 2 4.0999999999999998e-01 -1.4172622012033301e+01 -1.1331978476958840e+01 -6.8209866931188916e+00 -8 -4 -1
1440 480 2 4.0999999999999998e-01 -1.1425286377182916e+01 -1.2045607716340216e+01 -4.8322900664339272e+00 -9 -4 1
1439 480 2 4.0999999999999998e-01 -1.0661894830973731e+01 -1.1499923376976115e+01 -3.4957756144302916e+00 -9 -4 1
538 180 1 -8.1999999999999995e-01 -1.2469552860339530e+01 -8.4657091052026310e+00 -3.7572873182371396e+00 -5 -4 -6
539 180 2 4.0999999999999998e-01 -1.2276070775495876e+01 -9.0218239749133140e+00 -2.9489746622419339e+00 -5 -4 -6
540 180 2 4.0999999999999998e-01 -1.1634376513391445e+01 -7.9991282172943938e+00 -4.0485796296281826e+00 -5 -4 -6
248 83 2 4.0999999999999998e-01 -9.5408314089720694e+00 -1.0466363219055735e+01 -1.6331962279557928e+00 -7 -3 -6
902 301 2 4.0999999999999998e-01 -1.2101921510753021e+01 -1.1920295782209687e+01 -6.8456751635886839e+00 -5 -1 -5
1112 371 2 4.0999999999999998e-01 -1.3299274379645093e+01 -8.1835628628649371e+00 -5.2304813944743689e+00 -8 1 1
1111 371 1 -8.1999999999999995e-01 -1.3787788345498175e+01 -8.0737449454926349e+00 -6.0961387865372139e+00 -8 1 1
2461 821 1 -8.1999999999999995e-01 -1.2564693034685028e+01 -1.0877556386601100e+01 -1.7316397227708826e+00 -3 0 -1
1113 371 2 4.0999999999999998e-01 -1.4629655082939831e+01 -8.6130614094444358e+00 -6.0745356095428775e+00 -8 1 1
2463 821 2 4.0999999999999998e-01 -1.2314686914537740e+01 -1.1315453836769864e+01 -2.5952434222710963e+00 -3 0 -1
247 83 1 -8.1999999999999995e-01 -9.3141999642510367e+00 -1.0998995001953357e+01 -2.4486777628462946e+00 -7 -3 -6
1977 659 2 4.0999999999999998e-01 -8.3891037947569131e+00 -1.4174917901403683e+01 -6.0063044118288804e+00 -8 2 -1
913 305 1 -8.1999999999999995e-01 -9.8450152749411934e+00 -7.6541788940434801e+00 -5.8207920195767162e+00 -8 -5 -8
914 305 2 4.0999999999999998e-01 -9.0229459474264573e+00 -7.0899101178005735e+00 -5.7441673128296067e+00 -8 -5 -8
381 127 2 4.0999999999999998e-01 -1.4369221360479308e+01 -1.0251755132841499e+01 -1.3442867056803838e+00 -1 3 -5
2200 734 1 -8.1999999999999995e-01 -1.0860009156405823e+01 -7.1547880968213704e+00 -7.2540237112023931e-01 -1 -1 -9
2531 844 2 4.0999999999999998e-01 -1.2594564699990574e+01 -1.4970566768996934e+01 -3.5722146745716721e+00 -8 2 7
172 58 1 -8.1999999999999995e-01 -1.4052765933519590e+01 -5.5190589760374031e+00 -7.3749387851892845e+00 -6 -2 -4
813 271 2 4.0999999999999998e-01 -1.3577916791056658e+01 -5.9771069639852534e+00 -2.3824539695425351e+00 -4 -3 -8
1280 427 2 4.0999999999999998e-01 -1.4097156846437116e+01 -1.1821324359517780e+01 -3.0443664842947200e+00 -9 -4 2
811 271 1 -8.1999999999999995e-01 -1.2949749162299367e+01 -5.3620706561481359e+00 -1.9057944310338844e+00 -4 -3 -8
2201 734 2 4.0999999999999998e-01 -1.1454657229998222e+01 -6.5073621424898782e+00 -1.2021641351737227e+00 -1 -1 -9
1281 427 2 4.0999999999999998e-01 -1.4183213589573649e+01 -1.3232902024839664e+01 -3.8609765863555143e+00 -9 -4 2
1922 641 2 4.0999999999999998e-01 -1.1170617746958698e+01 -1.3698941674546910e+01 -3.2041028457661938e+00 -4 2 1
915 305 2 4.0999999999999998e-01 -1.0388975803064966e+01 -7.3464237517803772e+00 -6.6014726735460521e+00 -8 -5 -8
2009 670 2 4.0999999999999998e-01 -9.3596616202324583e+00 -9.5476414317055056e+00 -5.0840708748265744e+00 -4 5 -1
1533 511 2 4.0999999999999998e-01 -8.3301635857647849e+00 -1.1714286528738613e+01 -6.0261644512875279e+00 -4 -2 -5
1531 511 1 -8.1999999999999995e-01 -8.0043186097070738e+00 -1.2579980877461738e+01 -6.4062525246447368e+00 -4 -2 -5
2008 670 1 -8.1999999999999995e-01 -8.8489665202261811e+00 -1.0405772621540546e+01 -5.0304989488047873e+00 -4 5 -1
2010 670 2 4.0999999999999998e-01 -8.9118634909807781e+00 -1.0773730294256026e+01 -4.1027492441662297e+00 -4 5 -1
174 58 2 4.0999999999999998e-01 -1.3762937999328143e+01 -6.3806767108889062e+00 -6.9581856559385837e+00 -6 -2 -4
959 320 2 4.0999999999999998e-01 -1.4561934134060426e+01 -1.4850205514375530e+01 -2.4017572742550843e+00 -2 -1 -2
1279 427 1 -8.1999999999999995e-01 -1.4515014805335301e+01 -1.2290300462424026e+01 -3.8225211647114303e+00 -9 -4 2
422 141 2 4.0999999999999998e-01 -9.2076023925160939e+00 -5.8257431163362661e+00 -1.3074010523712865e+00 -7 -1 -8
2462 821 2 4.0999999999999998e-01 -1.1735209050876069e+01 -1.0637166764298554e+01 -1.2274198177361999e+00 -3 0 -1
1921 641 1 -8.1999999999999995e-01 -1.0803993373411981e+01 -1.4613774504792794e+01 -3.0345861598019468e+00 -4 2 1
903 301 2 4.0999999999999998e-01 -1.1144877131440941e+01 -1.3206991917524149e+01 -7.1543627763461206e+00 -5 -1 -5
1372 458 1 -8.1999999999999995e-01 -7.7429977746389262e+00 -5.9820091548541647e+00 -5.3903011807944701e+00 -7 1 -5
1373 458 2 4.0999999999999998e-01 -7.5359931147371135e+00 -6.2275223339625327e+00 -4.4432315284882531e+00 -7 1 -5
249 83 2 4.0999999999999998e-01 -8.4689258217356329e+00 -1.1509090409491604e+01 -2.2893576179924082e+00 -7 -3 -6
421 141 1 -8.1999999999999995e-01 -8.3038420000064654e+00 -5.9302014059964812e+00 -1.7225807609241794e+00 -7 -1 -8
423 141 2 4.0999999999999998e-01 -8.2473763231520998e+00 -6.8181421814748084e+00 -2.1791345853307398e+00 -7 -1 -8
2530 844 1 -8.1999999999999995e-01 -1.3522835207662872e+01 -1.4843108884808448e+01 -3.9216955628347563e+00 -8 2 7
1757 586 2 4.0999999999999998e-01 -8.1184898865418162e+00 -8.4061709352329803e+00 -4.1075148599082496e+00 -8 -4 3
1756 586 1 -8.1999999999999995e-01 -7.8569276701546942e+00 -8.0402759846746097e+00 -3.2143325455980349e+00 -8 -4 3
2485 829 1 -8.1999999999999995e-01 -1.0230096203838155e+01 -1.0063500735404567e+01 -2.9589190531988052e-02 -8 -4 -4
2571 857 2 4.0999999999999998e-01 -1.4838744617266485e+01 -6.1676683684830049e+00 -4.4910376625034925e+00 -6 1 -2
1923 641 2 4.0999999999999998e-01 -1.0056669753949631e+01 -1.4555982524778207e+01 -2.3725921488454880e+00 -4 2 1
741 247 2 4.0999999999999998e-01 -1.4672686084049527e+01 -1.4883218139118551e+01 -6.5980097494513306e+00 -2 -2 0
1367 456 2 4.0999999999999998e-01 -7.6623957612845555e+00 -1.4949667134191685e+01 -2.1339186369248928e+00 -3 2 1
1321 441 1 -8.1999999999999995e-01 -3.3043928001962701e+00 -1.1087759569189275e+01 -6.7760862767046568e+00 -12 2 2
64 22 1 -8.1999999999999995e-01 -1.8732067654917692e+00 -1.2877984031713497e+01 -3.2092708075094478e+00 -7 -5 -5
259 87 1 -8.1999999999999995e-01 -8.9064013598673775e-01 -7.5117134075333087e+00 -7.4739782359983131e-01 -8 -6 -1
1339 447 1 -8.1999999999999995e-01 -6.0950806471935177e+00 -1.4865855702271638e+01 -3.1241511345515605e+00 -8 1 1
667 223 1 -8.1999999999999995e-01 -3.9362473945180803e+00 -6.7579289009240409e+00 -7.0504310260315730e+00 -5 -3 -4
1124 375 2 4.0999999999999998e-01 -4.6121304569387078e-01 -5.9210341971596581e+00 -5.6080823767312502e+00 -11 -5 0
1053 351 2 4.0999999999999998e-01 -4.8394248545145349e+00 -7.1579553711093373e+00 -2.4844708210922839e-01 -3 2 -5
1723 575 1 -8.1999999999999995e-01 -5.2352824341705677e+00 -1.3920720060223918e+01 -1.5401790357780243e-01 -7 -5 -5
2138 713 2 4.0999999999999998e-01 -4.7131209547812194e+00 -5.5496815946562315e+00 -4.2150162986688091e+00 -9 6 -4
2137 713 1 -8.1999999999999995e-01 -5.0374341184545148e+00 -6.4021851645484045e+00 -4.6250492653449040e+00 -9 6 -4
646 216 1 -8.1999999999999995e-01 -1.9430046627998205e+00 -8.6092460994653699e+00 -6.3215409244332772e+00 -7 1 -4
1323 441 2 4.0999999999999998e-01 -3.0011657674143120e+00 -1.0161160410378631e+01 -6.5535196002050533e+00 -12 2 2
1122 374 2 4.0999999999999998e-01 -6.6763812152925563e+00 -1.2734851831084109e+01 -1.1703658891297231e+00 -8 2 -1
1052 351 2 4.0999999999999998e-01 -5.8025405385232194e+00 -6.0564200277820213e+00 -9.7359353774830559e-01 -3 2 -5
1051 351 1 -8.1999999999999995e-01 -4.8600622182711195e+00 -6.3740037044429307e+00 -8.6898109577262872e-01 -3 2 -5
1135 379 1 -8.1999999999999995e-01 -2.3877630293869387e+00 -5.7189282951093023e+00 -1.9359004388942900e+00 -9 0 -8
66 22 2 4.0999999999999998e-01 -1.7876499325856905e+00 -1.2915258430528006e+01 -2.2136006024884747e+00 -7 -5 -5
94 32 1 -8.1999999999999995e-01 -4.2374214479773062e+00 -8.4500697282764783e+00 -3.0231326237211178e+00 -5 -1 0
1896 632 2 4.0999999999999998e-01 -2.1882003078507868e+00 -1.3864666046835119e+01 -6.4646213962855050e+00 -6 4 2
861 287 2 4.0999999999999998e-01 -1.3467274243084635e+00 -7.6153435332049453e+00 -4.0986591261798075e+00 -4 1 0
1894 632 1 -8.1999999999999995e-01 -1.5570989403042148e+00 -1.3155688564270127e+01 -6.7794713438853620e+00 -6 4 2
1895 632 2 4.0999999999999998e-01 -6.4243552737803000e-01 -1.3339889187252206e+01 -6.4195692199185110e+00 -6 4 2
859 287 1 -8.1999999999999995e-01 -1.1072365196317246e+00 -6.6509871763845680e+00 -4.2114838600205768e+00 -4 1 0
1341 447 2 4.0999999999999998e-01 -6.2297885352727320e+00 -1.4258161110901684e+01 -3.9068577422528552e+00 -8 1 1
1136 379 2 4.0999999999999998e-01 -1.7703993639583580e+00 -6.2925743683722839e+00 -1.3975131676502262e+00 -9 0 -8
1322 441 2 4.0999999999999998e-01 -2.5207444179085687e+00 -1.1708703757452874e+01 -6.7562860660174309e+00 -12 2 2
1453 485 1 -8.1999999999999995e-01 -5.4119983344994100e+00 -1.3083249437470920e+01 -5.3361751832409485e+00 -1 1 -3
2139 713 2 4.0999999999999998e-01 -4.5485897208346415e+00 -6.5671216206782912e+00 -5.4817263489630879e+00 -9 6 -4
96 32 2 4.0999999999999998e-01 -4.6078062204598815e+00 -7.9181193324978469e+00 -2.2616127934109560e+00 -5 -1 0
860 287 2 4.0999999999999998e-01 -1.5750419460285752e+00 -6.1075970721172084e+00 -3.5143800166456796e+00 -4 1 0
95 32 2 4.0999999999999998e-01 -4.7555322613190949e+00 -8.2477158594632236e+00 -3.8542058043225680e+00 -5 -1 0
1725 575 2 4.0999999999999998e-01 -5.2466753014633589e+00 -1.4341063778566120e+01 -1.0613491145403557e+00 -7 -5 -5
2349 783 2 4.0999999999999998e-01 -2.4832599478471202e+00 -9.2780366983101246e+00 -2.9377486955089367e+00 -11 6 -5
1758 586 2 4.0999999999999998e-01 -7.2860184530265233e+00 -8.7070207487749016e+00 -2.7351847211297766e+00 -8 -4 3
260 87 2 4.0999999999999998e-01 -8.8578522154659289e-01 -8.0002670710534609e+00 -1.6199574112041013e+00 -8 -6 -1
1140 380 2 4.0999999999999998e-01 -3.2347836266639689e+00 -1.1889622197608148e+01 -3.3616714572592095e+00 -10 0 -9
1121 374 2 4.0999999999999998e-01 -5.9919952221967865e+00 -1.1815522419984886e+01 -2.3336623258393541e+00 -8 2 -1
2347 783 1 -8.1999999999999995e-01 -1.4964532746599950e+00 -9.1308855742158670e+00 -3.0057744325126059e+00 -11 6 -5
1137 379 2 4.0999999999999998e-01 -3.3325806970595622e+00 -6.0055169720432264e+00 -1.7769820976765587e+00 -9 0 -8
647 216 2 4.0999999999999998e-01 -1.0003541028050140e+00 -8.4214657096049237e+00 -6.5976150717978168e+00 -7 1 -4
1139 380 2 4.0999999999999998e-01 -4.0700668899405734e+00 -1.0498917488700823e+01 -3.1744515647271729e+00 -10 0 -9
648 216 2 4.0999999999999998e-01 -2.5016301951811233e+00 -7.7924574732356469e+00 -6.4659790948159852e+00 -7 1 -4
1455 485 2 4.0999999999999998e-01 -4.7522594255852848e+00 -1.3690459666299517e+01 -5.7790169847009754e+00 -1 1 -3
1532 511 2 4.0999999999999998e-01 -7.0949944333876962e+00 -1.2782413529880387e+01 -6.0426330154303756e+00 -4 -2 -5
1454 485 2 4.0999999999999998e-01 -4.9246812531443354e+00 -1.2413505620252160e+01 -4.7757880195228655e+00 -1 1 -3
1138 380 1 -8.1999999999999995e-01 -4.1401253632364678e+00 -1.1496121723100009e+01 -3.2017269181940744e+00 -10 0 -9
65 22 2 4.0999999999999998e-01 -1.5629168662123618e+00 -1.3743245899224627e+01 -3.6031117017306329e+00 -7 -5 -5
2348 783 2 4.0999999999999998e-01 -1.0275621620537763e+00 -1.0014135955293881e+01 -3.0146302294514236e+00 -11 6 -5
1374 458 2 4.0999999999999998e-01 -6.9839522047486255e+00 -6.2583866341929717e+00 -5.9798210191032908e+00 -7 1 -5
1120 374 1 -8.1999999999999995e-01 -6.8524345974162006e+00 -1.2058628447054080e+01 -1.8857648793034159e+00 -8 2 -1
2158 720 1 -8.1999999999999995e-01 -2.2631854393400097e+00 -1.3678935803186931e+01 -4.7838154142190525e-01 -8 1 -2
1123 375 1 -8.1999999999999995e-01 -1.8505587221786435e-01 -5.2289893454293317e+00 -6.2750754016893708e+00 -11 -5 0
2160 720 2 4.0999999999999998e-01 -3.0999184913302660e+00 -1.3195483927702600e+01 -2.2104824116123822e-01 -8 1 -2
668 223 2 4.0999999999999998e-01 -3.9319062183380318e+00 -5.7584286859353320e+00 -7.0180432189555368e+00 -5 -3 -4
1954 652 1 -8.1999999999999995e-01 -1.2423765472055052e+01 -1.3289420146503385e+01 4.7124080515754656e+00 -10 1 -1
1956 652 2 4.0999999999999998e-01 -1.3303508845597159e+01 -1.2858771459350576e+01 4.5107601285092471e+00 -10 1 -1
1955 652 2 4.0999999999999998e-01 -1.2325329200708650e+01 -1.4119444658952442e+01 4.1633741981933845e+00 -10 1 -1
2450 817 2 4.0999999999999998e-01 -1.3761071054830175e+01 -8.5141307713375980e+00 4.6615009790854458e+00 -7 5 6
288 96 2 4.0999999999999998e-01 -1.4130649196123503e+01 -5.6256242448189600e+00 2.3000083539507337e+00 -9 0 -2
686 229 2 4.0999999999999998e-01 -1.1492996427547416e+01 -1.4523347367236399e+01 5.9473792724528423e+00 -6 -5 0
1371 457 2 4.0999999999999998e-01 -8.5562958342115571e+00 -7.4507043889666242e+00 3.3226900690864092e+00 -4 -2 -5
2196 732 2 4.0999999999999998e-01 -1.1706003796329512e+01 -8.1326532981256570e+00 2.7649784506092487e+00 -7 0 -4
2194 732 1 -8.1999999999999995e-01 -1.1505673928339206e+01 -7.4038928075374022e+00 2.1101161462284956e+00 -7 0 -4
1370 457 2 4.0999999999999998e-01 -9.8452755049559784e+00 -6.6354739258978412e+00 2.7389607019689883e+00 -4 -2 -5
1369 457 1 -8.1999999999999995e-01 -8.9138082661693172e+00 -6.5457865320503803e+00 3.0916552268367994e+00 -4 -2 -5
2492 831 2 4.0999999999999998e-01 -9.3609624585356173e+00 -9.7557703832480271e+00 3.9953070431517332e+00 -7 2 -5
933 311 2 4.0999999999999998e-01 -9.8663049910342462e+00 -1.4837538317283032e+01 1.9613904891560523e+00 -4 0 -4
2195 732 2 4.0999999999999998e-01 -1.2250607778611014e+01 -6.7367264081202460e+00 2.1156682404955269e+00 -7 0 -4
1251 417 2 4.0999999999999998e-01 -1.1693023866681891e+01 -1.0244100879603078e+01 4.7175860941889525e+00 -6 -5 -3
2491 831 1 -8.1999999999999995e-01 -8.9475883528553588e+00 -9.2223313793715782e+00 3.2573143519328021e+00 -7 2 -5
2043 681 2 4.0999999999999998e-01 -9.2096693915733887e+00 -5.6404012825625216e+00 4.8773399167593467e+00 -5 0 -5
931 311 1 -8.1999999999999995e-01 -9.3848971481419134e+00 -1.4002881590295214e+01 1.6936906494629334e+00 -4 0 -4
2449 817 1 -8.1999999999999995e-01 -1.2795181156410163e+01 -8.4799860073111155e+00 4.9183257868096746e+00 -7 5 6
1250 417 2 4.0999999999999998e-01 -1.1042908869146208e+01 -1.1692047148132302e+01 5.1017884456298503e+00 -6 -5 -3
2493 831 2 4.0999999999999998e-01 -8.6359814863774247e+00 -9.8390581626152596e+00 2.5343912634544239e+00 -7 2 -5
1249 417 1 -8.1999999999999995e-01 -1.0844792211454973e+01 -1.0771715031434537e+01 4.7644354183869417e+00 -6 -5 -3
797 266 2 4.0999999999999998e-01 -1.1480470261891286e+01 -5.8539217215456425e+00 6.0517562596233141e+00 -3 -5 0
2202 734 2 4.0999999999999998e-01 -1.1088737038968770e+01 -7.1628582281790614e+00 2.4808974645711146e-01 -1 -1 -9
2041 681 1 -8.1999999999999995e-01 -9.5631720359910055e+00 -5.5750743440443333e+00 5.8105262669851783e+00 -5 0 -5
2451 817 2 4.0999999999999998e-01 -1.2603932067676546e+01 -7.6147984622707092e+00 5.3819447489228516e+00 -7 5 6
796 266 1 -8.1999999999999995e-01 -1.2380663410499787e+01 -6.1059976299229408e+00 6.4069724836364941e+00 -3 -5 0
1071 357 2 4.0999999999999998e-01 -8.5762997708643116e+00 -1.2282373983767314e+01 1.5956087480890879e+00 -5 -6 0
1069 357 1 -8.1999999999999995e-01 -8.2114311309940788e+00 -1.1352550954492576e+01 1.6442751314479338e+00 -5 -6 0
2042 681 2 4.0999999999999998e-01 -9.3020905217830645e+00 -6.3926268285275878e+00 6.3238613941852755e+00 -5 0 -5
168 56 2 4.0999999999999998e-01 -9.3918532719778796e+00 -1.4447423774041283e+01 4.9192580187222781e+00 -7 5 -3
166 56 1 -8.1999999999999995e-01 -8.8235684422721903e+00 -1.3911229898428443e+01 4.2950649226152215e+00 -7 5 -3
2231 744 2 4.0999999999999998e-01 -1.1742426640853054e+01 -9.4970813043582112e+00 6.4415289679227534e+00 -8 1 -4
2230 744 1 -8.1999999999999995e-01 -1.1805215781696443e+01 -9.6805133602571622e+00 7.4225889678818611e+00 -8 1 -4
987 329 2 4.0999999999999998e-01 -8.2152283927639544e+00 -1.4096663099903788e+01 7.2976247410208614e+00 -5 -3 -4
2486 829 2 4.0999999999999998e-01 -9.5114777945789122e+00 -1.0543587799582607e+01 4.7357323595738698e-01 -8 -4 -4
1087 363 1 -8.1999999999999995e-01 -8.8569161096857485e+00 -7.8404663322340289e+00 7.4666085468974721e+00 -10 -2 -4
167 56 2 4.0999999999999998e-01 -9.3297156138581236e+00 -1.3736284253875215e+01 3.4505072963352355e+00 -7 5 -3