2593
Atoms. Timestep: 1000000
O 13.8704 -10.725 13.4638
H 13.4236 -10.6833 12.5701
H 14.3529 -11.5962 13.5549
O 9.88724 15.0624 12.9721
H 9.3438 -15.0429 13.8065
H 10.8137 14.7691 13.2081
O 2.1379 13.2176 13.6769
H 2.92108 12.8961 13.1446
H 2.38853 14.0519 14.1679
O -6.7804 3.34051 -8.6444
H -6.51291 3.52788 -7.69918
H -7.58412 3.88777 -8.8781
O -9.91684 2.303 -3.05872
H -10.4986 1.71312 -2.49869
H -9.89128 3.22029 -2.66121
O 4.63671 3.58139 -1.66584
H 4.10629 3.67119 -0.82282
H 5.61074 3.6718 -1.45805
O 4.7699 -13.2114 7.34369
H 5.14074 -12.3927 7.78223
H 5.43259 -13.9569 7.41501
O -8.69233 -1.34537 7.21523
H -8.28451 -1.07515 6.34301
H -9.61072 -1.70761 7.05578
O -12.3433 9.13891 0.0541748
H -11.3942 9.45012 0.00471798
H -12.6502 9.15481 1.00585
O 4.75574 3.30121 6.67332
H 4.33891 4.0745 6.19544
H 5.59892 3.03568 6.20574
O 6.60951 -5.10747 -4.97868
H 5.72469 -4.93913 -4.54411
H 7.31791 -4.58263 -4.50668
O 2.66324 14.5273 -10.3175
H 3.65726 14.4274 -10.3626
H 2.38531 14.6698 -9.36751
O 1.89283 12.9297 -0.694297
H 1.43149 13.3417 0.0915143
H 2.83739 12.7109 -0.449261
O -14.2622 -8.08699 -9.29988
H -13.631 -8.6041 -8.72164
H -14.7531 -8.71586 -9.90286
O 7.67598 -8.41255 7.39105
H 7.07142 -7.79818 7.89815
H 8.57866 -7.99183 7.30015
O -3.34666 3.0104 13.5001
H -3.48631 2.47651 12.6661
H -3.15713 2.39277 14.2635
O 7.88041 -13.4275 -6.96757
H 8.20121 -14.1954 -7.52205
H 7.29122 -12.8394 -7.52174
O -8.39966 -4.88397 6.61275
H -7.47195 -4.51209 6.64659
H -8.93862 -4.37476 5.94168
O -1.88828 -4.67604 12.5205
H -1.39415 -5.43984 12.1051
H -2.10515 -3.99796 11.8181
O -13.7105 7.45637 -6.13912
H -13.4769 6.70318 -5.52412
H -13.2198 7.3454 -7.00343
O 11.048 10.2819 -5.79191
H 11.0903 9.77386 -6.65227
H 10.1896 10.073 -5.32332
O -6.7715 13.0714 -12.2099
H -6.38039 13.9754 -12.0372
H -7.06515 13.012 -13.164
O 12.8342 6.44517 -5.24394
H 12.6956 5.92594 -4.40057
H 13.26 7.32391 -5.0282
O -10.9237 -0.380569 13.3562
H -10.1853 -0.968327 13.687
H -10.5877 0.184701 12.6028
O -3.01634 8.35991 -9.77853
H -2.15855 8.87328 -9.80578
H -2.90042 7.49131 -10.2604
O -0.280024 8.76497 2.26227
H -0.88995 8.93081 1.4873
H 0.667076 8.74172 1.94204
O 13.3066 -1.537 11.7038
H 13.2626 -2.48303 11.3826
H 13.5212 -1.52625 12.6805
O 13.4178 8.87947 -1.49405
H 13.1526 8.77262 -2.45235
H 13.6955 9.82584 -1.32856
O 13.2145 -7.51178 -8.63364
H 14.1851 -7.6816 -8.80472
H 12.7918 -8.33862 -8.2625
O -7.10911 -5.09183 0.798365
H -7.94815 -5.37554 0.334026
H -7.34247 -4.57962 1.62497
O 6.93582 1.97431 5.70541
H 6.68333 1.16971 6.24296
H 7.62127 1.71811 5.02378
O 9.5526 13.9671 9.78748
H 10.4391 14.2699 9.43741
H 8.83442 14.5731 9.44528
O -3.70347 4.77958 -2.07554
H -2.86261 4.46922 -2.51906
H -3.49364 5.53505 -1.4548
O -10.1148 14.5706 -11.1207
H -9.36682 -15.0726 -11.4869
H -10.9605 -15.0926 -11.1313
O -12.7144 -10.7858 14.566
H -12.3999 -9.83714 14.6011
H -13.0911 -11.0452 -14.7416
O -14.0738 9.45903 -13.2415
H -13.5277 8.90668 -12.6115
H -13.9159 10.4291 -13.0568
O 0.902696 11.2589 4.98807
H 1.68618 11.1615 4.37426
H 0.0585469 11.2693 4.45198
O 2.68192 -0.793426 -14.2329
H 2.7313 -0.449686 -13.2951
H 3.30704 -1.56694 -14.3378
O 6.5949 10.0264 -5.89017
H 7.19257 10.0715 -6.69069
H 5.64151 10.1074 -6.18099
O 5.75982 -1.06715 -10.2218
H 6.17913 -0.912608 -11.1164
H 5.30714 -0.229265 -9.91663
O -0.563467 7.53296 -7.98715
H -1.47146 7.84289 -8.26927
H 0.112378 7.81906 -8.66647
O 4.2987 5.58531 -7.80481
H 3.74488 5.40527 -8.6178
H 4.86419 4.78559 -7.60291
O -6.19422 -2.11366 -12.9694
H -6.51043 -3.0237 -13.2376
H -6.594 -1.86877 -12.0861
O -11.8634 10.9093 4.13576
H -12.3635 10.1299 3.75826
H -12.0877 11.7331 3.61507
O 2.24199 -9.84645 6.94766
H 2.88763 -9.08287 6.96151
H 1.9538 -10.0223 6.00631
O -3.96278 -6.94498 6.56273
H -2.98136 -6.77279 6.64792
H -4.35736 -7.08153 7.47144
O 14.3144 -4.99421 9.97681
H 13.5505 -4.36784 10.132
H 14.4418 -5.571 10.7838
O -7.84083 -13.7267 -11.6371
H -7.64757 -12.7607 -11.4648
H -6.98405 -14.2424 -11.6414
O 1.25978 -6.82494 7.35992
H 1.27706 -6.07128 8.01703
H 2.18987 -7.16302 7.21593
O 10.8104 9.22214 8.54933
H 9.93232 9.6663 8.37084
H 11.1132 9.44298 9.47647
O -8.03168 -10.5933 14.1617
H -8.43618 -10.8531 13.2848
H -8.27847 -11.2695 14.8559
O -7.1519 4.28462 -13.4929
H -7.57589 5.15176 -13.2313
H -6.45529 4.4513 -14.1907
O -9.75171 -4.35881 15.0386
H -10.5185 -4.99976 15.0743
H -9.45335 -4.14388 -14.2283
O 11.1923 6.10547 10.6169
H 11.2642 5.61511 9.74835
H 10.503 6.82562 10.5371
O 2.17225 7.97581 13.1568
H 1.43058 8.35089 12.6007
H 1.82969 7.20383 13.6924
O 13.6149 -14.3577 -1.83237
H 14.4129 -14.2162 -2.41817
H 13.1108 -13.4987 -1.74263
O 11.5811 -7.83782 8.58877
H 11.2088 -8.76234 8.67086
H 11.2717 -7.42893 7.73016
O -8.94044 -13.8046 6.83669
H -8.03953 -14.058 6.48425
H -9.25629 -12.974 6.37783
O 4.86924 -12.5207 -13.1737
H 5.6137 -12.0592 -13.6562
H 5.25048 -13.1753 -12.5208
O 7.18341 -5.37752 5.26195
H 6.43264 -5.84885 4.79904
H 8.05618 -5.7464 4.94214
O -6.73534 -12.1331 -6.38047
H -6.88612 -12.6785 -7.20502
H -6.38727 -12.7215 -5.65061
O 9.59403 -8.048 -2.0964
H 9.19999 -8.96545 -2.04069
H 9.1476 -7.53755 -2.83141
O -11.9586 7.96252 -11.8718
H -12.5496 7.15775 -11.9281
H -11.0107 7.67154 -11.7417
O -10.4481 -10.7168 8.53585
H -9.89942 -11.4506 8.93664
H -10.3192 -10.7077 7.5442
O -10.2982 -10.89 5.86555
H -11.1228 -11.0974 5.33922
H -9.68191 -10.3293 5.31246
O -2.19707 12.443 10.5952
H -1.86733 12.3228 11.5316
H -2.75614 13.2705 10.5423
O -7.4101 8.76648 2.60342
H -6.9458 9.53701 2.1666
H -8.35361 8.71662 2.27571
O 13.2239 -3.54354 7.47759
H 13.451 -3.8426 6.55074
H 14.04 -3.16659 7.91565
O -3.54407 -14.9665 8.36868
H -4.04667 -14.1136 8.22731
H -2.57575 -14.8203 8.166
O -14.4137 -2.07984 -7.65108
H -14.0858 -1.29573 -7.12406
H -13.645 -2.68277 -7.8648
O 14.1166 -1.01141 -4.44749
H 14.0176 -0.294136 -5.13727
H 13.4616 -0.855524 -3.70811
O -14.2389 6.3314 9.3722
H -14.3055 6.96576 8.60198
H -15.0725 6.38603 9.92205
O 3.9436 -5.27811 0.167804
H 4.38423 -5.43148 -0.716737
H 4.45187 -4.58385 0.67747
O -2.56711 -4.22403 -8.60338
H -3.04254 -4.78578 -7.92625
H -3.19804 -3.54153 -8.97246
O -7.238 0.71512 -2.28056
H -6.466 1.34684 -2.20962
H -8.08119 1.23379 -2.42235
O 3.43056 5.83315 6.06592
H 3.07594 6.63624 6.54486
H 4.28324 6.07181 5.60108
O -8.94616 6.38776 -9.49723
H -9.30563 7.15256 -8.96247
H -9.39367 5.54078 -9.21007
O 5.67063 -9.16994 -7.21844
H 6.13774 -8.96749 -8.0792
H 5.72457 -8.37444 -6.61481
O 13.1904 -11.7912 -4.85252
H 13.6046 -10.9348 -5.16108
H 12.219 -11.7963 -5.09016
O -4.46228 -12.5206 7.50399
H -5.02205 -12.8744 6.75462
H -5.02076 -11.931 8.08759
O 0.285048 3.55603 -12.9444
H -0.0687642 2.7018 -13.3255
H 0.903639 3.35159 -12.1857
O -7.84451 -12.6658 11.9209
H -6.96582 -12.2186 12.0883
H -8.46638 -12.0222 11.4747
O -14.0212 11.0233 12.8969
H -13.8918 10.1903 12.359
H -14.9583 11.0531 13.2449
O -8.02245 -1.47341 -11.145
H -7.6583 -1.09857 -10.2924
H -8.78559 -0.908229 -11.4585
O 13.3009 14.544 0.344391
H 13.4639 14.7077 -0.628615
H 13.9836 13.9019 0.693343
O 2.50618 8.57973 1.90587
H 3.08841 8.20503 1.18428
H 2.38462 7.89553 2.62503
O -8.94327 7.81686 -5.50338
H -9.77099 7.97995 -4.96638
H -8.17166 8.29048 -5.07865
O 5.70031 11.8871 8.88695
H 5.31147 12.3668 8.10033
H 4.96167 11.5111 9.44653
O 14.7622 -1.54189 9.0619
H 14.1232 -1.49727 9.82983
H -14.5247 -1.78377 9.39906
O -10.8109 12.0452 -11.8236
H -10.9392 11.7597 -10.8738
H -10.1224 12.7694 -11.8639
O 4.39014 -3.89129 -11.2955
H 3.49645 -4.00676 -10.8618
H 5.07293 -3.67169 -10.5986
O -10.6819 14.2257 6.76718
H -10.0896 15.0278 6.84384
H -11.5927 14.5111 6.46872
O 10.8078 -5.91659 -7.04135
H 11.1626 -5.97713 -7.9744
H 11.5665 -5.77856 -6.40459
O -8.5174 -7.14687 -7.67992
H -8.03693 -7.08405 -8.55474
H -8.28731 -8.01225 -7.23465
O 8.62183 7.26325 11.5761
H 8.67959 8.13919 12.0552
H 8.573 6.5206 12.2441
O 1.60938 11.9236 -5.38008
H 1.91755 12.5849 -4.69615
H 0.620495 11.7978 -5.30028
O -10.0257 8.33382 -7.88159
H -9.7577 8.03308 -6.96627
H -11.0135 8.48823 -7.90578
O 4.17916 2.52981 -13.6996
H 3.77532 1.96902 -14.4224
H 5.10788 2.7927 -13.9612
O -11.9134 -5.86655 3.63446
H -12.6957 -6.24096 3.13658
H -11.7733 -6.3881 4.47616
O 9.80141 -14.8193 -0.709454
H 10.2272 14.8671 -1.45661
H 9.78975 14.8129 0.115834
O -14.5984 2.43804 -14.2045
H -13.9569 1.85784 -14.7063
H 14.7145 1.97537 -14.1353
O 8.0877 -5.09552 2.03933
H 8.20424 -5.221 1.05406
H 7.29963 -4.50372 2.20908
O -2.94014 9.20028 -5.3689
H -3.5016 8.95401 -6.15897
H -3.07153 8.52495 -4.64312
O 1.3518 -14.472 2.72692
H 2.28294 -14.4557 3.09134
H 1.25266 -13.7582 2.03353
O 7.18765 -11.2204 -13.9584
H 7.14116 -10.3296 -13.5062
H 8.14482 -11.4864 -14.0732
O 14.3853 -14.6814 -7.42584
H 13.6791 14.9961 -6.9447
H 14.6022 15.0617 -8.29019
O -6.33524 3.03247 3.75258
H -5.47413 2.74832 4.17429
H -6.21031 3.91697 3.30299
O -6.69936 -14.0142 -4.11691
H -6.87205 -14.948 -4.43041
H -7.56593 -13.579 -3.87235
O -11.8707 0.0152698 8.83055
H -11.0233 0.545514 8.80002
H -12.6523 0.62955 8.72234
O 2.27712 12.3721 6.89521
H 1.67252 13.0464 7.31923
H 1.80434 11.9351 6.12997
O -11.3268 -8.4238 14.7326
H -11.3527 -7.45618 14.9838
H -11.1843 -8.5084 13.7464
O -12.8347 9.08652 8.15081
H -13.2062 8.30265 7.65316
H -13.1574 9.93327 7.72771
O 10.5813 -2.22132 -7.52031
H 10.2909 -1.54623 -6.84209
H 11.5524 -2.42406 -7.39411
O 1.50997 -8.23235 -4.22475
H 1.44916 -7.33223 -4.65624
H 2.41321 -8.6249 -4.39843
O 4.07533 0.901592 9.96572
H 3.26281 1.47651 9.86888
H 3.97865 0.32138 10.7745
O 4.9126 -14.8861 10.893
H 4.38519 -14.0432 10.7861
H 4.59108 14.8165 11.7007
O -9.77951 14.0976 11.5309
H -9.72196 14.7186 12.3126
H -10.6788 13.6604 11.518
O 1.5631 11.4041 -11.4638
H 1.14143 11.593 -12.3507
H 1.80654 12.2666 -11.02
O 14.9857 -4.14138 -3.53304
H 14.7131 -3.6034 -2.73531
H -14.3057 -3.84777 -3.83955
O -13.383 14.961 6.49499
H -13.5313 -14.6231 7.27126
H -13.4058 -14.709 5.64531
O 2.77677 -11.5458 9.21845
H 1.88822 -11.8053 8.84
H 3.18185 -10.826 8.65462
O -7.88423 -1.67253 -0.780385
H -8.38586 -1.31247 0.00626503
H -7.43698 -0.919759 -1.26349
O -7.86043 0.176787 -7.36775
H -7.30713 0.417491 -6.57025
H -7.41111 0.508098 -8.19747
O 6.46985 3.90974 11.8885
H 6.11528 3.07849 12.3168
H 6.43656 3.81247 10.8938
O -6.49269 -5.01107 -13.2314
H -6.45578 -5.13465 -14.2231
H -7.22181 -5.58037 -12.8514
O 0.964254 8.01782 -5.85467
H 0.738164 8.82953 -5.31607
H 0.335535 7.94585 -6.62902
O 11.2845 14.351 -2.60542
H 12.1203 14.8976 -2.55203
H 11.5236 13.3848 -2.70185
O 0.720841 -0.183228 12.89
H 0.493161 0.70699 13.2846
H 0.0336077 -0.855523 13.1653
O -12.2341 -4.11461 -9.40898
H -11.9887 -3.343 -9.99592
H -11.4268 -4.41821 -8.90271
O 2.73824 -0.30001 -8.9637
H 3.03969 -1.14316 -8.51836
H 2.22866 0.258776 -8.30935
O 1.71018 -3.86486 -15.0653
H 1.29443 -4.55376 14.5377
H 1.00639 -3.22833 -14.7497
O -0.907823 -9.61043 0.930349
H -0.786395 -9.44939 -0.0491464
H -1.88418 -9.64712 1.1436
O -5.42496 7.61316 4.20931
H -6.06267 8.00059 3.54348
H -4.60768 8.18715 4.26117
O 11.8321 4.9862 7.89852
H 11.2302 4.30057 7.48893
H 12.6615 4.54191 8.23732
O 12.1542 11.5896 -1.56986
H 11.3838 11.1272 -1.1308
H 12.8502 11.8023 -0.883962
O 4.69332 12.8816 12.4434
H 5.66911 13.0907 12.3786
H 4.51491 11.9907 12.0258
O 7.84479 2.19378 -3.65199
H 8.20672 2.90795 -4.2512
H 7.76559 2.54876 -2.72043
O 14.8602 3.22245 -3.4043
H 14.4048 2.82005 -2.61008
H 14.966 4.207 -3.26449
O -0.433011 -5.7856 14.6674
H -1.03755 -5.45656 13.9419
H 0.152063 -6.5133 14.3093
O 2.88972 14.721 8.99486
H 2.22008 14.1343 9.45034
H 3.52652 15.0886 9.6727
O -11.7516 -12.7009 12.6368
H -12.1654 -12.1945 13.3934
H -11.5113 -12.0659 11.9026
O -11.2495 -4.73409 -1.48293
H -11.1378 -4.943 -2.45452
H -11.9452 -5.33573 -1.09042
O -0.304945 14.0755 -3.65853
H -0.384659 14.6567 -2.84862
H 0.643052 14.0757 -3.97695
O 0.297054 -2.13087 8.04945
H -0.0484302 -1.74159 8.90337
H 0.614803 -1.39456 7.45197
O -9.45279 -10.4488 11.5231
H -9.48861 -9.46595 11.7042
H -10.2603 -10.7209 10.9997
O -12.1024 3.68498 13.5624
H -12.2197 4.1933 12.7092
H -11.4538 4.16733 14.1512
O 7.33205 1.73828 -14.7123
H 7.23925 2.70259 -14.4641
H 8.12084 1.62395 14.8805
O 11.1474 -1.77755 1.70465
H 11.2768 -0.790793 1.8029
H 10.5461 -2.1089 2.43181
O -9.17769 -3.49141 -12.3104
H -9.01818 -4.41678 -11.9664
H -8.56181 -2.85323 -11.8483
O -6.48083 10.7766 -6.74226
H -5.91558 10.1487 -7.27733
H -7.36063 10.9055 -7.1999
O -0.698772 15.0174 7.9398
H -0.0995675 -14.5012 7.5144
H -0.313931 14.7377 8.81942
O 5.0041 -9.83381 10.9756
H 5.16111 -10.2995 10.1046
H 5.28636 -10.4295 11.7276
O -2.47639 -2.70446 10.8789
H -2.95184 -2.54108 10.0144
H -1.99672 -1.87251 11.1579
O -11.5757 -12.234 0.454077
H -11.5195 -11.2685 0.708711
H -11.6135 -12.3143 -0.542021
O -4.63723 -13.5768 -9.34066
H -3.70982 -13.3376 -9.053
H -5.1608 -12.7411 -9.50656
O -1.90482 14.5411 1.09647
H -1.98684 -14.9434 1.79361
H -2.52983 14.74 0.341555
O 11.6907 -15.0427 7.95611
H 11.3239 -14.1612 7.65872
H 12.5796 15.0003 7.52465
O 8.7331 9.69773 13.1313
H 7.96559 10.1593 13.5762
H 9.26454 10.3638 12.6078
O 3.27532 1.38166 5.19243
H 3.67479 1.99228 5.87629
H 3.78793 1.45824 4.33717
O 0.857102 -8.6104 -13.2236
H 0.853251 -7.84818 -12.5762
H 0.359666 -9.38391 -12.8308
O 15.0386 -4.81111 1.12343
H 14.9758 -5.78027 1.36192
H 14.1228 -4.45241 0.942369
O 2.09984 -13.1739 -13.899
H 2.963 -12.7397 -13.6411
H 1.76125 -13.7226 -13.1345
O -14.2268 -4.4886 -11.4221
H -13.9928 -3.95432 -12.2345
H -13.4321 -4.54077 -10.8172
O -6.79243 13.7761 6.80194
H -6.00601 13.2256 7.08213
H -7.38115 13.9432 7.59288
O 10.6434 13.9056 1.21354
H 10.8371 13.224 1.91928
H 11.4957 14.1692 0.761791
O -2.12116 -8.36082 9.58492
H -1.86288 -9.29242 9.84087
H -1.54543 -7.70808 10.0774
O -0.562263 -6.68042 11.525
H -0.793638 -7.5476 11.9661
H 0.382631 -6.71386 11.1992
O -4.49994 8.54163 -7.51599
H -5.41592 8.14084 -7.53654
H -4.0683 8.43277 -8.4115
O 6.74832 -13.6128 -4.38584
H 7.14091 -12.7995 -3.95636
H 7.1078 -13.7059 -5.31439
O -0.734506 -2.29313 -8.04812
H -1.15067 -3.17592 -8.26623
H -1.38402 -1.73763 -7.52885
O -11.3967 -6.32355 10.1838
H -10.5383 -5.81143 10.1519
H -12.1432 -5.74351 9.85773
O -13.0776 0.238853 3.09253
H -12.1819 0.661762 2.95524
H -13.2219 -0.468469 2.40045
O -6.31082 -8.87465 12.6114
H -7.07049 -9.49876 12.7944
H -6.54902 -8.27447 11.8478
O 4.14494 7.46406 -10.8975
H 4.97641 6.91068 -10.8472
H 4.31675 8.27359 -11.459
O -7.14385 13.5897 -8.35898
H -7.2984 12.7539 -8.88589
H -7.15406 13.3748 -7.38237
O -13.0829 -7.71882 -2.76966
H -13.8117 -7.4918 -3.41565
H -13.1477 -7.12114 -1.97049
O 7.41735 -14.3523 9.26266
H 7.3869 -14.779 8.35874
H 6.64348 -14.673 9.8089
O 14.1229 -4.83977 -9.20539
H 14.8764 -4.87471 -9.86196
H 13.8036 -5.76811 -9.01468
O -12.5546 -3.82233 -4.61862
H -13.0408 -3.94375 -5.48403
H -12.0029 -4.63466 -4.42943
O -3.29883 0.919737 8.49613
H -3.56039 -0.0422884 8.41749
H -4.04402 1.49625 8.16086
O -7.11331 -3.57516 -2.83637
H -7.62922 -2.86983 -2.35013
H -6.25771 -3.75629 -2.35136
O 12.178 9.48911 10.9381
H 11.536 9.90401 11.5829
H 12.8118 10.1865 10.6035
O -0.131262 10.7187 9.49177
H -0.243916 10.1197 10.2847
H -0.736233 11.5097 9.58294
O -7.1068 -0.654083 14.9257
H -7.21067 0.333836 15.0411
H -6.71483 -1.04745 -14.4395
O -11.3263 -7.01672 -6.50028
H -12.2369 -6.64341 -6.67747
H -10.6354 -6.41311 -6.89827
O -7.87666 11.0952 -10.6009
H -7.59877 11.9217 -11.0904
H -7.84544 10.3129 -11.2231
O 13.2908 -2.67149 -7.75863
H 14.1991 -2.27741 -7.61786
H 13.3038 -3.25799 -8.56853
O 3.99629 -8.20918 -14.4593
H 3.04003 -8.18177 -14.1679
H 4.11188 -8.91584 15.0394
O 3.32055 9.40775 -14.8835
H 2.75849 8.89565 14.6638
H 3.71259 10.2068 14.8574
O -13.5964 12.7876 9.14753
H -14.075 13.2849 8.42379
H -12.6371 12.6683 8.89169
O 1.47905 7.81019 -10.1954
H 2.46199 7.81308 -10.0112
H 1.30285 7.33483 -11.0574
O -1.48077 4.27563 7.13543
H -0.553167 4.57658 6.9139
H -2.04474 4.29861 6.3099
O -5.77813 0.396578 12.6011
H -6.06416 1.35378 12.6463
H -6.50337 -0.18575 12.9685
O 14.3017 -14.5147 5.04907
H 14.5509 14.7157 5.11103
H 14.0153 -14.3035 4.11445
O -12.1114 -8.89242 3.43909
H -12.2855 -9.83601 3.72087
H -11.5981 -8.41993 4.15554
O -0.007094 7.30464 6.76573
H -0.352791 7.048 5.86311
H 0.800513 7.88502 6.66071
O 10.5189 -12.3878 -0.180133
H 10.0075 -13.2406 -0.2863
H 11.4332 -12.4966 -0.570401
O -7.29278 12.2353 -14.8868
H -7.13076 12.2603 14.3235
H -7.00886 11.3474 -14.5248
O 5.03968 9.52825 5.89793
H 5.08834 9.2889 6.86769
H 5.64763 8.92984 5.376
O -2.2885 0.0350298 13.6564
H -2.61715 0.398012 14.5284
H -2.81707 0.435848 12.9081
O -8.68701 1.36767 4.89602
H -7.92239 1.87502 4.49848
H -9.00555 1.83635 5.72001
O -1.40793 4.52786 12.485
H -1.57516 4.68523 11.5117
H -2.17762 4.02499 12.8784
O -3.72234 -5.62762 14.4316
H -3.2908 -5.28969 13.5951
H -4.15845 -4.86691 14.9125
O -8.12073 9.31688 -1.00711
H -7.27281 9.84179 -0.93225
H -7.93783 8.35641 -0.797031
O 5.9317 -0.691897 12.3591
H 6.19688 0.247259 12.5776
H 4.93513 -0.771349 12.3845
O -14.9553 2.6241 -9.50542
H 14.8997 1.68595 -9.4497
H 14.4699 3.26029 -9.51018
O 8.56584 -4.07024 -3.02479
H 9.50179 -4.31426 -3.27886
H 8.35817 -3.15134 -3.36033
O -8.32224 -10.7312 -12.362
H -8.87184 -11.4388 -12.8063
H -8.32106 -9.90618 -12.9272
O -12.6957 13.2304 11.7482
H -13.1031 13.1146 10.8422
H -12.9845 12.4793 12.342
O -2.02259 -12.2077 9.39999
H -1.1147 -12.0571 9.00865
H -2.63836 -12.5514 8.69094
O 5.93884 5.59379 1.79435
H 6.52514 4.80047 1.63006
H 6.42136 6.42672 1.52325
O 3.81572 10.4469 -6.28512
H 3.79517 9.44717 -6.29752
H 2.89399 10.7972 -6.11844
O -2.38831 5.8552 -10.646
H -2.19504 5.94987 -11.6226
H -1.78461 5.16184 -10.2524
O 2.26056 2.73137 8.6311
H 3.11828 2.41298 8.22732
H 1.65943 3.07438 7.90924
O 6.73527 -0.413968 -12.9044
H 6.06347 -1.05145 -13.2818
H 6.8417 0.363645 -13.5241
O -6.52959 -2.69588 8.68244
H -6.39052 -3.55159 8.18393
H -7.37971 -2.26667 8.3772
O 14.8299 6.31606 -9.88308
H 14.5858 6.0282 -8.95701
H 14.0427 6.75791 -10.3133
O -11.6926 -13.2889 -2.11677
H -12.011 -14.1249 -2.56386
H -12.0022 -12.4935 -2.6379
O -3.95652 -1.8748 8.46842
H -4.90508 -2.18831 8.51364
H -3.56072 -2.13608 7.58799
O -6.13079 5.37069 2.44869
H -5.78928 6.20786 2.87602
H -7.06584 5.5185 2.12631
O -7.57443 9.06254 -12.5745
H -8.41788 9.3147 -13.0489
H -6.81793 9.04104 -13.2282
O -0.00912817 2.38016 13.7714
H -0.970283 2.17149 13.9523
H 0.051711 3.08207 13.0616
O -8.90993 -4.90196 9.55554
H -8.71731 -4.89043 8.57429
H -9.17099 -3.98414 9.85478
O -4.81976 -9.38112 -9.74467
H -4.05285 -9.0751 -10.3088
H -5.62493 -8.8231 -9.94565
O 1.10448 -14.8127 -12.2067
H 0.225175 -14.6542 -11.7575
H 1.70911 14.8823 -11.5881
O 2.47889 -14.382 6.55984
H 2.43873 -15.0582 7.29553
H 3.14977 -13.6773 6.79103
O 3.23179 4.76089 -10.1985
H 2.5971 3.98969 -10.2488
H 2.91495 5.49319 -10.8014
O 6.57522 12.1435 -1.1796
H 5.79004 12.762 -1.14878
H 7.00381 12.1935 -2.08175
O 13.6461 -7.30097 0.543166
H 12.9924 -7.06801 -0.176914
H 13.2343 -7.96793 1.16417
O 12.3907 -12.1467 -14.2214
H 12.3505 -11.1502 -14.295
H 12.6319 -12.5372 15.087
O 1.18079 6.74225 9.37041
H 1.99937 6.16978 9.32252
H 0.746327 6.77858 8.4704
O -12.7937 4.94205 -5.20868
H -13.2778 4.3249 -5.82904
H -11.8122 4.75495 -5.25114
O 9.94369 7.23096 4.14901
H 10.5481 7.3403 4.93822
H 9.07044 6.84656 4.44863
O 13.9942 -2.78876 -1.21865
H 13.5301 -3.13919 -0.405098
H 14.9583 -2.62639 -1.00842
O -8.04877 9.45459 6.07575
H -8.68252 10.2177 5.94874
H -7.13498 9.7264 5.77376
O -13.5259 14.1931 -15.0343
H -13.4768 14.6893 14.2957
H -14.4559 13.8517 -14.8979
O -7.46679 -9.50497 -1.18886
H -6.7746 -10.2155 -1.31553
H -7.01892 -8.61504 -1.10208
O 13.4954 2.43299 -1.0373
H 14.1112 1.64742 -1.09877
H 13.5092 2.79516 -0.105241
O 12.094 3.15679 11.4016
H 12.5594 3.3466 12.2662
H 11.3755 3.8364 11.2536
O 0.902454 -11.3086 -4.34193
H -0.0538998 -11.1096 -4.55615
H 1.34315 -10.484 -3.98725
O 5.47563 -6.963 -11.8173
H 4.67427 -6.91396 -11.221
H 5.39813 -6.27327 -12.5372
O -6.5962 -11.5138 9.30694
H -7.33324 -12.171 9.14884
H -6.28844 -11.5801 10.2561
O -8.16411 -7.91231 -14.9691
H -8.05312 -8.7371 14.6733
H -9.12163 -7.82099 -14.6954
O 0.970209 12.0748 -14.07
H 1.51924 12.21 -14.8949
H 0.00196135 12.0347 -14.317
O 4.51534 -14.4726 -7.47625
H 4.83332 -13.9354 -8.25757
H 5.11089 14.9304 -7.353
O -0.292908 -14.9099 12.3077
H 0.531096 -14.6131 12.7905
H -1.07436 -14.3687 12.6184
O -8.81487 10.7502 -7.89004
H -9.33484 9.9131 -7.71992
H -8.62634 10.8324 -8.86871
O -10.1015 10.2425 -13.6682
H -10.3972 10.9231 -12.9979
H -10.584 10.3929 -14.5311
O -7.92355 -6.16768 -2.94881
H -8.25765 -6.41484 -2.0392
H -7.69383 -5.19454 -2.96648
O 10.9802 -14.5348 -8.15664
H 11.5008 -14.3133 -7.33205
H 11.0728 -13.7914 -8.81909
O -8.78539 6.15208 12.1951
H -9.42692 6.90301 12.3521
H -9.05811 5.36079 12.7424
O 6.94326 -10.9457 -3.22044
H 5.95244 -10.8773 -3.33749
H 7.39882 -10.3466 -3.87901
O -10.2565 13.6362 -8.49802
H -10.1159 14.306 -9.22714
H -9.39075 13.4711 -8.02545
O 3.24275 -4.38557 3.501
H 3.83453 -4.58872 2.72086
H 3.37726 -3.43557 3.78295
O 10.7903 -5.79663 2.17212
H 10.6562 -6.6337 1.64162
H 10.0141 -5.18272 2.02805
O -14.5333 0.347927 -0.875089
H -13.9045 -0.393593 -1.10918
H -14.0099 1.15508 -0.60186
O -6.2866 6.79731 -9.07291
H -7.21528 6.449 -9.20066
H -5.64635 6.24198 -9.60376
O -12.749 5.00527 11.1785
H -12.1159 4.41604 10.6763
H -13.2643 5.5681 10.5322
O -1.05927 11.3005 -5.83759
H -1.48989 10.4204 -5.63723
H -1.52399 12.0231 -5.32585
O 5.07809 -5.81722 -14.1647
H 4.79047 -5.19203 -14.8903
H 4.73623 -6.73617 -14.3616
O -3.83686 -3.55252 -14.0367
H -2.88394 -3.49329 -13.7392
H -4.31104 -2.70237 -13.8076
O -8.17674 -7.57504 6.51646
H -7.80896 -8.25087 7.15528
H -8.11168 -6.66318 6.92189
O 11.9745 11.6961 -12.434
H 11.5506 11.1957 -11.6791
H 12.2893 11.0485 -13.128
O 6.55739 4.17289 -7.84067
H 6.19821 3.83895 -8.7122
H 7.41198 4.66729 -7.99982
O -3.81413 -6.5734 -13.1014
H -4.6384 -6.25511 -12.6331
H -3.76337 -6.15486 -14.0082
O 12.3662 -6.75818 -2.0237
H 12.356 -5.76081 -2.09607
H 11.4512 -7.11543 -2.21102
O -7.43866 2.73949 8.84212
H -7.83746 3.46018 8.27497
H -6.63292 3.09543 9.3156
O 7.23508 3.8334 -1.10326
H 7.6306 3.82687 -0.184773
H 7.50467 4.67223 -1.57631
O 13.8526 11.5343 0.641842
H 13.9658 10.9478 1.44392
H 14.5868 11.3504 -0.0118066
O 10.7326 -1.93187 -3.86502
H 10.5118 -1.33312 -4.63499
H 11.4467 -1.50843 -3.30756
O -6.54071 13.0771 12.6301
H -7.52351 13.2303 12.5266
H -6.06255 13.4231 11.8228
O -2.81071 7.54458 -3.22004
H -2.09784 8.14472 -2.85706
H -3.64451 7.652 -2.67845
O 1.53138 4.07572 6.35692
H 0.953161 4.19963 5.55045
H 2.21086 4.80845 6.39567
O 8.24805 12.3537 -10.4386
H 7.81604 11.4523 -10.4096
H 8.72179 12.4683 -11.3118
O 3.4384 -1.73942 4.70188
H 3.57651 -1.91162 5.67726
H 2.71386 -1.06053 4.58257
O 10.0288 -4.2984 -14.9912
H 9.80616 -3.66132 14.4676
H 9.23502 -4.4053 -14.3924
O -8.40698 2.12297 -14.3999
H -9.38832 2.2264 -14.5622
H -8.07311 2.90172 -13.8687
O -0.458123 -14.9241 -0.988647
H -0.962885 -15.0203 -0.130712
H -0.261911 -13.9574 -1.15336
O 7.64404 12.4091 -14.861
H 6.77566 12.398 -14.3651
H 7.55723 12.9873 14.5245
O -14.6571 -9.82636 9.50861
H -15.0568 -8.95174 9.23397
H 15.0843 -10.5695 9.01833
O 3.77936 5.69445 9.01239
H 4.58334 5.30264 8.56496
H 3.75644 5.40529 9.96945
O 12.1044 -5.60255 4.44787
H 12.996 -6.05452 4.41772
H 11.6609 -5.68039 3.55494
O -6.56462 11.9739 -3.18548
H -6.35848 12.035 -2.20882
H -5.71316 11.873 -3.70018
O 0.0565639 7.80916 -13.9918
H 0.211541 7.08516 -14.664
H 0.509804 8.64764 -14.2945
O -9.55261 6.88781 9.69994
H -9.86109 7.83489 9.78913
H -9.27413 6.54216 10.5961
O 13.8417 0.128692 1.78604
H 14.3152 -0.0199818 0.91783
H 13.8398 -0.720416 2.31434
O -12.8398 -11.2718 4.14872
H -13.744 -11.048 4.51251
H -12.7854 -12.2546 3.97214
O -14.8307 -8.9853 -14.0905
H 15.0632 -8.07397 -14.3694
H 14.8929 -9.67583 -14.6375
O 2.93551 -1.04649 11.663
H 2.12196 -0.78157 12.1807
H 2.98893 -2.04388 11.6134
O -6.30915 -12.1627 -1.14465
H -5.73124 -12.643 -1.80453
H -7.26516 -12.4166 -1.292
O -13.7013 -13.0038 -6.50556
H -14.4622 -13.6506 -6.4535
H -12.961 -13.4028 -7.0467
O -7.10508 13.8256 -5.30405
H -6.43862 13.1941 -4.90769
H -8.02091 13.4297 -5.23584
O -9.14677 -13.0797 9.32601
H -9.0636 -13.9081 9.88002
H -9.30575 -13.3317 8.37138
O -13.3651 -2.20524 1.64484
H -12.6088 -2.80188 1.91326
H -14.0882 -2.75271 1.22342
O -13.1672 0.111274 -6.4167
H -12.2729 0.269527 -6.83523
H -13.1132 0.295362 -5.43523
O 8.12756 -0.749178 4.24444
H 8.28495 -1.44817 4.94209
H 7.21904 -0.874738 3.8458
O 9.03249 5.54109 -8.56262
H 9.57271 5.28726 -9.365
H 9.64588 5.7776 -7.80902
O -1.27516 12.3477 6.79818
H -0.982212 13.096 7.39345
H -0.504953 12.0491 6.23453
O 9.66188 -12.9678 6.83229
H 9.02111 -12.2615 6.53117
H 9.87959 -13.5698 6.06399
O -9.01211 2.13695 -5.59456
H -9.49919 1.42602 -6.10193
H -9.22181 2.05417 -4.62025
O -4.65814 -10.3864 -7.31173
H -4.73149 -9.82627 -8.13692
H -5.50431 -10.9038 -7.18378
O 12.9552 5.89922 -13.7015
H 12.1813 6.05344 -13.0871
H 12.9156 6.55232 -14.4578
O -1.46468 -2.51887 14.3689
H -1.97375 -1.72238 14.0425
H -1.82775 -3.34561 13.939
O -13.325 -14.4557 -10.4897
H -13.2393 -14.7809 -11.4316
H -13.9635 -15.0423 -9.9914
O 12.9194 -12.1612 5.75702
H 12.0442 -11.7778 5.46187
H 13.0893 -13.0178 5.26978
O -13.5381 7.27552 -1.41692
H -14.4054 6.88834 -1.10398
H -13.1624 7.86976 -0.705698
O 13.4465 -8.91776 3.19447
H 13.9869 -9.45998 3.83796
H 12.5322 -9.31412 3.11026
O -11.547 0.777808 -0.283511
H -11.2857 0.662359 -1.24189
H -11.9679 1.67634 -0.158688
O 2.0055 -6.32152 -12.3623
H 2.66322 -5.68063 -12.7582
H 1.07792 -5.97285 -12.4969
O 6.2783 12.9773 -3.82621
H 5.9379 13.8713 -3.53472
H 7.07562 13.1007 -4.4171
O 13.6193 -5.35538 -12.7686
H 13.1927 -6.23336 -12.5513
H 14.4225 -5.22223 -12.1879
O 14.6813 -6.99683 -4.04401
H 14.6655 -5.99782 -4.0868
H 13.931 -7.31761 -3.46591
O -10.0871 -4.0367 4.49682
H -10.4925 -3.65121 5.32572
H -10.772 -4.58167 4.01309
O -4.98538 -9.60247 5.9868
H -4.42851 -8.7736 6.04125
H -5.71649 -9.55817 6.66769
O -11.5669 -9.61291 0.924071
H -12.4914 -9.51296 0.5562
H -11.5597 -9.34013 1.88617
O -1.28708 10.9399 3.41692
H -0.716921 10.3281 2.86854
H -2.01706 11.3161 2.84618
O -5.60451 -15.055 2.18741
H -5.02905 14.7631 2.91231
H -6.15709 -14.3077 2.55667
O 3.3483 -3.84864 11.3986
H 3.19356 -3.69216 10.4231
H 2.61171 -4.41655 11.7661
O -13.0703 12.1675 -13.2985
H -13.1073 13.1485 -13.4892
H -12.2347 11.958 -12.7906
O 9.18099 13.132 -8.0137
H 9.15343 13.0745 -9.01171
H 10.0497 13.536 -7.72693
O 10.5471 2.48215 6.93941
H 10.8122 1.53213 7.10444
H 10.8693 2.7661 6.0363
O -0.549765 -4.83408 -10.637
H -1.37204 -4.75604 -10.0733
H -0.801426 -5.15139 -11.5514
O 9.6426 2.28645 -8.41725
H 8.93444 2.73116 -7.86877
H 9.24902 1.97844 -9.28345
O -10.7567 -6.00563 -4.07331
H -9.7892 -6.07598 -3.83016
H -10.9247 -6.50868 -4.92112
O 1.33289 0.282195 6.72285
H 1.89962 0.754579 6.04774
H 0.600507 0.891042 7.02782
O 3.23411 -3.06616 -8.16628
H 2.39631 -3.3666 -8.62226
H 3.85138 -3.84521 -8.05607
O 14.0986 -14.055 2.43198
H 14.9824 -13.8209 2.02668
H 13.5495 -14.5594 1.76562
O 1.36373 7.50488 -1.58523
H 1.34883 6.86982 -2.3576
H 1.78648 8.36547 -1.86939
O 5.20073 11.837 -13.9398
H 4.59044 12.6086 -13.7603
H 5.07921 11.1436 -13.2295
O 11.7674 8.73544 -8.58233
H 11.5671 9.00665 -9.52383
H 12.7524 8.79582 -8.42044
O 4.4117 -14.5748 -3.1941
H 3.77169 -14.3527 -3.92974
H 5.32803 -14.2615 -3.44358
O -6.60619 11.39 2.476
H -6.70181 12.3387 2.17459
H -6.90422 11.3108 3.42732
O 9.88552 -2.51894 12.326
H 9.9376 -1.5488 12.0889
H 8.93388 -2.76715 12.5073
O 11.1436 -7.00303 14.7429
H 10.6354 -7.35261 13.9557
H 10.6963 -6.17818 15.0888
O -1.28733 -14.4523 -10.1002
H -1.39915 -14.0803 -9.17866
H -1.58411 14.7896 -10.1124
O 4.54263 0.105426 -6.08188
H 4.96166 0.486436 -5.25766
H 4.00827 0.814312 -6.54234
O -13.564 11.1583 6.44107
H -14.3813 11.7182 6.30432
H -13.026 11.1424 5.59821
O 7.70449 -9.69313 -5.5732
H 7.06617 -9.95221 -6.29813
H 8.56582 -9.38922 -5.98042
O 8.82904 4.13913 -12.4267
H 8.14255 4.62172 -12.9707
H 9.41907 4.80407 -11.9686
O -3.74862 3.73422 -12.8931
H -4.3006 3.73975 -12.0592
H -4.2822 4.11458 -13.6485
O -7.61098 13.6311 0.862373
H -8.0653 14.1081 0.109934
H -7.16733 14.2985 1.46059
O 14.9311 14.0836 -9.55195
H 14.3483 14.0591 -10.3642
H -14.6126 13.3271 -9.58737
O -8.90935 0.41735 9.32564
H -8.34474 1.22454 9.15318
H -8.90846 -0.169279 8.51573
O -6.70806 5.9968 -4.98594
H -6.42906 6.03097 -4.02621
H -7.32502 6.75929 -5.18106
O 2.34655 9.77116 9.08128
H 1.64608 10.4804 9.00145
H 1.91424 8.87012 9.04497
O -6.1702 -11.526 -10.6215
H -5.51009 -10.817 -10.3733
H -6.81308 -11.1617 -11.2953
O 13.7781 -11.8701 8.18343
H 13.0749 -12.1204 8.84891
H 13.3863 -11.8836 7.26342
O 14.4752 2.95239 -5.97759
H 14.2756 2.02319 -6.28877
H 14.5862 2.95446 -4.98372
O -2.84397 1.49034 -14.1275
H -2.98247 2.36474 -13.6624
H -2.62054 0.786042 -13.4537
O 2.96724 2.20648 -6.5402
H 3.17083 2.9732 -5.93128
H 2.08504 2.35967 -6.98556
O 9.26296 1.82335 -11.1155
H 9.2158 1.02097 -11.7106
H 9.0326 2.64224 -11.6413
O -11.6834 4.04797 4.54129
H -11.0462 3.94292 3.7777
H -12.5576 3.62277 4.30683
O 6.25186 -10.67 3.78923
H 5.36188 -11.1236 3.74169
H 6.74008 -10.8026 2.92659
O 4.04122 -4.76776 -4.22963
H 3.13698 -4.9347 -4.62277
H 3.94476 -4.24892 -3.38017
O -10.0741 11.0516 -5.51096
H -9.99013 11.0981 -4.51553
H -9.17349 10.8889 -5.91418
O 8.2523 3.65154 7.25564
H 7.7038 3.04117 6.68407
H 9.17107 3.27152 7.36297
O -12.701 14.1981 -7.54822
H -13.2788 13.4246 -7.28771
H -11.8144 13.8602 -7.86435
O -10.9363 -2.70459 6.70712
H -11.157 -3.00836 7.63399
H -11.6749 -2.12586 6.36127
O 3.22019 -7.94201 -10.4941
H 2.70956 -7.38459 -11.1488
H 3.62258 -8.72624 -10.9664
O 9.61452 13.4926 5.39707
H 9.45035 13.0824 6.29422
H 8.87252 13.2421 4.77518
O -5.31549 14.0029 10.5588
H -6.28029 14.1623 10.3495
H -4.74815 14.3925 9.83328
O 13.9872 0.332278 -6.75949
H 13.52 0.546068 -7.61746
H 14.7017 -0.346545 -6.92917
O 8.12287 -3.27809 -6.99602
H 9.10903 -3.14403 -7.09401
H 7.95073 -4.06911 -6.40887
O 7.57181 -8.84411 -12.9119
H 6.78806 -8.23514 -12.7895
H 8.25099 -8.66027 -12.2013
O 10.9562 11.6148 2.8552
H 10.039 11.8651 3.16553
H 10.9509 10.67 2.52734