LAMMPS data file via write_data, version 15 May 2015, timestep = 8008000

2611 atoms
6 atom types
1749 bonds
4 bond types
894 angles
3 angle types
44 dihedrals
3 dihedral types
10 impropers
1 improper types

-1.4961289857549563e+01 1.4961289857549563e+01 xlo xhi
-1.4961289857549563e+01 1.4961289857549563e+01 ylo yhi
-1.4961289857549563e+01 1.4961289857549563e+01 zlo zhi

Masses

1 15.9994
2 1.00794
3 12.0107
4 1.00794
5 12.0107
6 12.0107

Bond Coeffs # harmonic

1 1000 1
2 469 1.4
3 367 1.08
4 469 0.7

Angle Coeffs # harmonic

1 100 109.47
2 35 120
3 63 120

Dihedral Coeffs # opls

1 0 7.25 0 0
2 0 7.25 0 0
3 0 7.25 0 0

Improper Coeffs # cvff

1 2.5 -1 2

Atoms # full

632 211 2 4.0999999999999998e-01 -1.3032206283428225e+01 -1.4353801778911805e+01 -7.5307541423481990e+00 1 -2 2
2368 790 1 -8.1999999999999995e-01 -1.1279668779282416e+01 -9.5765759633865351e+00 -8.1619456297292494e+00 0 0 4
631 211 1 -8.1999999999999995e-01 -1.3045984895792484e+01 -1.4208478199595344e+01 -8.5200140479620039e+00 1 -2 2
2370 790 2 4.0999999999999998e-01 -1.0709261209220820e+01 -8.9724913689150227e+00 -8.7184175293404227e+00 0 0 4
1315 439 1 -8.1999999999999995e-01 -1.4710251356221184e+01 -5.6986287584484838e+00 -9.3834497291060330e+00 0 0 -1
496 166 1 -8.1999999999999995e-01 -1.2870286423984984e+01 -1.2197987548614559e+01 -1.0336726612894505e+01 -2 -3 3
497 166 2 4.0999999999999998e-01 -1.3252106045519964e+01 -1.2879244663222723e+01 -9.7121896116872790e+00 -2 -3 3
498 166 2 4.0999999999999998e-01 -1.1875371337110888e+01 -1.2293848209793541e+01 -1.0366704400039364e+01 -2 -3 3
1247 416 2 4.0999999999999998e-01 -1.3213588699556794e+01 -6.3617589893346960e+00 -1.2651795072544848e+01 2 2 -7
1248 416 2 4.0999999999999998e-01 -1.4344531816502490e+01 -5.1839492115684163e+00 -1.2637342527970128e+01 2 2 -7
2014 672 1 -8.1999999999999995e-01 -1.3601474532827920e+01 -1.0819881646436141e+01 -1.2657995702715555e+01 3 -1 -2
1246 416 1 -8.1999999999999995e-01 -1.4186098154893251e+01 -6.1621383023611536e+00 -1.2771465082653744e+01 2 2 -7
2369 790 2 4.0999999999999998e-01 -1.2089883444917385e+01 -9.8437808247425238e+00 -8.6835754852078679e+00 0 0 4
487 163 1 -8.1999999999999995e-01 -8.3027802097280556e+00 -1.4213341366502190e+01 -9.7581342985645385e+00 0 -4 0
2064 688 2 4.0999999999999998e-01 -9.5961346980030342e+00 -1.1427981241603977e+01 -1.0249295821423562e+01 2 0 5
1351 451 1 -8.1999999999999995e-01 -9.5493937603525829e+00 -8.2663045726842199e+00 -9.9031731010911628e+00 0 -2 4
1352 451 2 4.0999999999999998e-01 -9.4884513800030881e+00 -7.7320846451740382e+00 -1.0746285816998935e+01 0 -2 4
71 24 2 4.0999999999999998e-01 -1.0658962651190226e+01 -1.4075646833883443e+01 -1.2163488711930238e+01 -2 1 0
1835 612 2 4.0999999999999998e-01 -1.3699246539887600e+01 -1.0904569193663642e+01 -9.5486424364340383e+00 4 -4 -1
1834 612 1 -8.1999999999999995e-01 -1.4282124686418857e+01 -1.0348160808743877e+01 -8.9565218753791047e+00 4 -4 -1
2062 688 1 -8.1999999999999995e-01 -1.0252142356086360e+01 -1.2135652936913775e+01 -9.9870008235049532e+00 2 0 5
1413 471 2 4.0999999999999998e-01 -1.2573063370710912e+01 -5.1139408561714603e+00 -8.1781467570567195e+00 4 2 4
414 138 2 4.0999999999999998e-01 -1.0475098286148956e+01 -7.7493137642312924e+00 -1.4099549821388802e+01 -4 -2 1
2063 688 2 4.0999999999999998e-01 -9.7892775099537701e+00 -1.3021184705296998e+01 -9.9478400050815026e+00 2 0 5
1316 439 2 4.0999999999999998e-01 -1.3809961326406741e+01 -5.5728445760719900e+00 -9.8001032778643751e+00 0 0 -1
489 163 2 4.0999999999999998e-01 -7.7020764952150458e+00 -1.3961567349075539e+01 -8.9993794833399150e+00 0 -4 0
2016 672 2 4.0999999999999998e-01 -1.3355773716613120e+01 -1.1259404274793615e+01 -1.1794054186170303e+01 3 -1 -2
1353 451 2 4.0999999999999998e-01 -8.8428834537465697e+00 -8.9739648765516016e+00 -9.9051837856890348e+00 0 -2 4
2187 729 2 4.0999999999999998e-01 -1.1402560914662905e+01 -1.3070294513408381e+01 -1.4000424244883414e+01 2 1 2
412 138 1 -8.1999999999999995e-01 -9.8824924353919990e+00 -8.4467787063766444e+00 -1.3696678972351481e+01 -4 -2 1
2015 672 2 4.0999999999999998e-01 -1.2896064151506526e+01 -1.1009573977217372e+01 -1.3340899047179933e+01 3 -1 -2
389 130 2 4.0999999999999998e-01 -1.1334698914746472e+01 -5.5007840231170171e+00 -1.1124905847634924e+01 3 2 -1
2185 729 1 -8.1999999999999995e-01 -1.2054004686387490e+01 -1.2616943606344618e+01 -1.4608731683800691e+01 2 1 2
236 79 2 4.0999999999999998e-01 -7.6221674948343319e+00 -1.3952126118369360e+01 -1.1482196308668698e+01 0 1 1
818 273 2 4.0999999999999998e-01 -1.4668176252355257e+01 -9.5860472719592131e+00 -1.2931992517142845e+01 0 1 2
388 130 1 -8.1999999999999995e-01 -1.1991348691466278e+01 -5.2455586264092577e+00 -1.0415247450396942e+01 3 2 -1
413 138 2 4.0999999999999998e-01 -1.0216649095194912e+01 -9.3546830016238189e+00 -1.3949647497253201e+01 -4 -2 1
70 24 1 -8.1999999999999995e-01 -1.0230649204420683e+01 -1.3680757351363342e+01 -1.2976233349523639e+01 -2 1 0
72 24 2 4.0999999999999998e-01 -9.3073826142243927e+00 -1.3370934050602543e+01 -1.2749226137877848e+01 -2 1 0
648 216 2 4.0999999999999998e-01 -9.3018478005486962e+00 -6.8756944456499145e+00 -7.7198979344198957e+00 0 -1 3
1189 397 1 -8.1999999999999995e-01 -7.5531369614993427e+00 -1.0795372288571130e+01 -9.9592829953848199e+00 -2 -2 2
819 273 2 4.0999999999999998e-01 -1.4824978043412775e+01 -7.9635796531244400e+00 -1.3029404619283682e+01 0 1 2
633 211 2 4.0999999999999998e-01 -1.3822963896129757e+01 -1.4696364252094829e+01 -8.9177762748933453e+00 1 -2 2
1869 623 2 4.0999999999999998e-01 -1.4605980999645352e+01 -1.3003145754798991e+01 -1.2683131467782410e+01 1 0 -2
1764 588 2 4.0999999999999998e-01 -1.1366247754018826e+01 -5.3788981191378564e+00 -1.4693097493033697e+01 1 0 1
1791 597 2 4.0999999999999998e-01 -8.7913996000986572e+00 -1.1647131444618049e+01 -7.6414785724507865e+00 1 -2 3
1601 534 2 4.0999999999999998e-01 -8.1165665650046446e+00 -8.1242254838998917e+00 -1.4952319575266651e+01 -1 -1 6
755 252 2 4.0999999999999998e-01 -1.1462774953370753e+01 -1.4742107152126701e+01 -9.8126308758634018e+00 4 0 1
2385 795 2 4.0999999999999998e-01 -1.3689871167811042e+01 -1.3772722601064336e+01 -1.4943822447031319e+01 3 0 -1
1722 574 2 4.0999999999999998e-01 -5.9278677515026992e+00 -1.3846899339568454e+01 -8.4755529175986233e+00 0 -1 -1
2085 695 2 4.0999999999999998e-01 -1.9200497928680242e+00 -1.4686406247786678e+01 -9.8553774824802627e+00 1 -3 3
1086 362 2 4.0999999999999998e-01 -4.5583393547589246e-01 -6.5234924325909347e+00 -1.3516602648440049e+01 2 0 1
1173 391 2 4.0999999999999998e-01 -1.3178699977983150e+00 -6.7652049828082941e+00 -1.0832998033471759e+01 3 1 0
1171 391 1 -8.1999999999999995e-01 -2.0571490527144167e+00 -6.4840046362403871e+00 -1.1444828734071354e+01 3 1 0
1177 393 1 -8.1999999999999995e-01 -2.6347819230816931e+00 -5.4467057105404120e+00 -1.4722087554977589e+01 -3 -1 0
196 66 1 -8.1999999999999995e-01 -2.9109632649382320e+00 -1.1798858338829207e+01 -9.7469594096239920e+00 1 0 1
2084 695 2 4.0999999999999998e-01 -2.0495044600271832e+00 -1.4522803405544110e+01 -8.2358242753996151e+00 1 -3 3
924 308 2 4.0999999999999998e-01 -6.5748206864113072e+00 -6.8419218431941822e+00 -7.9190697280180427e+00 3 -3 1
973 325 1 -8.1999999999999995e-01 -2.2561620607237387e+00 -1.1110924805785597e+01 -1.3472095359322376e+01 3 3 4
975 325 2 4.0999999999999998e-01 -3.2345511489760099e+00 -1.0975991289080600e+01 -1.3315597113392453e+01 3 3 4
2285 762 2 4.0999999999999998e-01 -3.6504648107791748e+00 -8.2782064225262442e+00 -1.4181307005117487e+01 3 -5 -1
2253 751 2 4.0999999999999998e-01 -4.2667853925165335e+00 -1.4903334136973594e+01 -9.1976434812389449e+00 5 0 0
1136 379 2 4.0999999999999998e-01 -1.1162879097650080e+00 -1.4772363305745523e+01 -1.3792224239063481e+01 1 0 2
1853 618 2 4.0999999999999998e-01 -2.0420256317678263e+00 -8.8370705502236824e+00 -7.6832070455305610e+00 0 -2 5
1648 550 1 -8.1999999999999995e-01 -2.9127869023424182e+00 -1.4189796706710942e+01 -1.3362765548560041e+01 0 -1 6
2011 671 1 -8.1999999999999995e-01 -4.4044384532520553e+00 -1.2776117814640314e+01 -1.1780044402707141e+01 1 -3 1
461 154 2 4.0999999999999998e-01 -5.1826800715262618e+00 -8.9610949976482210e+00 -1.0921178864136273e+01 1 -1 3
1156 386 1 -8.1999999999999995e-01 -4.1671253602217337e+00 -7.5902611369599704e+00 -1.2780175300636330e+01 0 3 4
1191 397 2 4.0999999999999998e-01 -7.4553284131524782e+00 -1.1760569422295006e+01 -9.7168537360418910e+00 -2 -2 2
1649 550 2 4.0999999999999998e-01 -3.4952008077860448e+00 -1.3730048238980487e+01 -1.2692415385670081e+01 0 -1 6
1158 386 2 4.0999999999999998e-01 -4.9154882592765841e+00 -6.9352087723040192e+00 -1.2676236229573298e+01 0 3 4
1569 523 2 4.0999999999999998e-01 -6.2820948904528997e+00 -5.0427695305905136e+00 -9.4724495076708735e+00 1 -1 5
1135 379 1 -8.1999999999999995e-01 -1.1697737564543509e-01 -1.4737927454559705e+01 -1.3803911547257545e+01 1 0 2
460 154 1 -8.1999999999999995e-01 -5.1259343186234876e+00 -9.0605338950072323e+00 -9.9277827778672219e+00 1 -1 3
2013 671 2 4.0999999999999998e-01 -4.9151887467560851e+00 -1.1995581350951610e+01 -1.2140378900534381e+01 1 -3 1
871 291 1 -8.1999999999999995e-01 -6.4212290229340052e+00 -5.5096562247033365e+00 -1.3654653286296936e+01 0 0 1
198 66 2 4.0999999999999998e-01 -2.9345297827195242e+00 -1.2063432601450341e+01 -8.7829111550274792e+00 1 0 1
462 154 2 4.0999999999999998e-01 -4.1804738585368728e+00 -8.9231542119185541e+00 -9.6325283686410259e+00 1 -1 3
923 308 2 4.0999999999999998e-01 -6.0448057882891142e+00 -7.5626657708280725e+00 -9.2851185399248948e+00 3 -3 1
1872 624 2 4.0999999999999998e-01 -1.3429981528224886e+00 -1.3874923727121484e+01 -1.1955732031795085e+01 2 0 2
1854 618 2 4.0999999999999998e-01 -1.2671593117099960e+00 -9.3188786577577201e+00 -9.0374301300880493e+00 0 -2 5
922 308 1 -8.1999999999999995e-01 -6.3957081755974539e+00 -6.7117765506536973e+00 -8.8942234580752366e+00 3 -3 1
235 79 1 -8.1999999999999995e-01 -7.0958580720599285e+00 -1.3853107474475886e+01 -1.2326671099486628e+01 0 1 1
237 79 2 4.0999999999999998e-01 -6.1362308748587875e+00 -1.3682390643852411e+01 -1.2103253622604203e+01 0 1 1
2083 695 1 -8.1999999999999995e-01 -2.4943034535337603e+00 -1.4875768514066202e+01 -9.0589362719063757e+00 1 -3 3
1852 618 1 -8.1999999999999995e-01 -2.0310774233752298e+00 -9.5113745436696817e+00 -8.4215418307143253e+00 0 -2 5
1028 343 2 4.0999999999999998e-01 -5.9867613480618065e+00 -1.0379312149940375e+01 -1.3531887400981619e+01 0 -2 6
2012 671 2 4.0999999999999998e-01 -3.8122015031095984e+00 -1.2471275123131157e+01 -1.1034209108479782e+01 1 -3 1
974 325 2 4.0999999999999998e-01 -2.1242381398081722e+00 -1.1813865937801413e+01 -1.4170961438474905e+01 3 3 4
1190 397 2 4.0999999999999998e-01 -6.6552334259492056e+00 -1.0355476358465115e+01 -9.9449733803943907e+00 -2 -2 2
1084 362 1 -8.1999999999999995e-01 -2.6727689244251707e-01 -7.2094415924598465e+00 -1.4219357182490707e+01 2 0 1
1871 624 2 4.0999999999999998e-01 -1.8870678935344145e+00 -1.2847022114028118e+01 -1.0809484482322897e+01 2 0 2
1157 386 2 4.0999999999999998e-01 -3.3775076930374368e+00 -7.2810583541685547e+00 -1.2250230535274731e+01 0 3 4
1720 574 1 -8.1999999999999995e-01 -6.3032123274608303e+00 -1.2988131226446070e+01 -8.1268728954225491e+00 0 -1 -1
1602 534 2 4.0999999999999998e-01 -6.8309042125177371e+00 -7.1569875890206900e+00 -1.4673034393971220e+01 -1 -1 6
778 260 1 -8.1999999999999995e-01 -6.9139750052155549e+00 -1.0948606549908954e+01 -1.4822479450898904e+01 -1 3 0
1027 343 1 -8.1999999999999995e-01 -5.2026921720992991e+00 -1.0165388287287637e+01 -1.2949293113509944e+01 0 -2 6
1029 343 2 4.0999999999999998e-01 -4.8866196278521858e+00 -9.2367857250179473e+00 -1.3143559388382499e+01 0 -2 6
1870 624 1 -8.1999999999999995e-01 -1.1886853052066950e+00 -1.3527632217896603e+01 -1.1030788745488664e+01 2 0 2
197 66 2 4.0999999999999998e-01 -2.5741135538661357e+00 -1.0860737189971974e+01 -9.8269901235865600e+00 1 0 1
239 80 2 4.0999999999999998e-01 -6.3629778506443344e+00 -1.4116377277058909e+01 -1.4189275651031460e+01 5 1 2
2586 862 2 4.0999999999999998e-01 -3.0455125246660586e-01 -1.0340676796892033e+01 -1.2928551636880513e+01 4 0 2
872 291 2 4.0999999999999998e-01 -5.5825199942376678e+00 -5.0107157465671399e+00 -1.3436548845025014e+01 0 0 1
1172 391 2 4.0999999999999998e-01 -1.9025986954692620e+00 -5.5422753516914742e+00 -1.1743499283088536e+01 3 1 0
1085 362 2 4.0999999999999998e-01 -9.4456931150617329e-01 -7.1319956314822717e+00 -1.4950945198627196e+01 2 0 1
1179 393 2 4.0999999999999998e-01 -1.7423497481380696e+00 -5.0429051570532373e+00 -1.4923219083027359e+01 -3 -1 0
597 199 2 4.0999999999999998e-01 -1.0897263797954164e+01 -1.4267601818527110e+01 -4.2344487225094021e+00 -1 4 4
1234 412 1 -8.1999999999999995e-01 -9.8848616845979684e+00 -8.0331802689223970e+00 -2.6232529198055055e-01 -1 2 2
2436 812 2 4.0999999999999998e-01 -1.4113529653266950e+01 -1.4560124378190055e+01 -5.3934204105159935e+00 3 1 -1
1593 531 2 4.0999999999999998e-01 -1.4752612227812627e+01 -7.2282468094196144e+00 -4.1741845342502319e+00 3 1 1
508 170 1 -8.1999999999999995e-01 -1.1953774637438354e+01 -1.2541267682728790e+01 -5.1736316100906645e+00 4 -1 2
596 199 2 4.0999999999999998e-01 -9.2974415396125814e+00 -1.3941902823957648e+01 -4.2655276476066639e+00 -1 4 4
1592 531 2 4.0999999999999998e-01 -1.4743786992550278e+01 -8.0580750502698741e+00 -5.5805217205481288e+00 3 1 1
1236 412 2 4.0999999999999998e-01 -8.9281928084988671e+00 -7.7434155006497418e+00 -2.8998313530175679e-01 -1 2 2
509 170 2 4.0999999999999998e-01 -1.1153153343589491e+01 -1.2119444991365857e+01 -5.5990900232899037e+00 4 -1 2
149 50 2 4.0999999999999998e-01 -1.2486527183516003e+01 -1.1164987693596652e+01 -3.3592135763603839e+00 0 -2 2
2517 839 2 4.0999999999999998e-01 -1.2110452993053489e+01 -6.8839008633101368e+00 -6.1467056956386106e+00 0 1 4
2516 839 2 4.0999999999999998e-01 -1.1974447550797699e+01 -7.3555874207052696e+00 -4.5893067934482392e+00 0 1 4
2515 839 1 -8.1999999999999995e-01 -1.1472307720514543e+01 -7.1800127115228634e+00 -5.4360494236044747e+00 0 1 4
464 155 2 4.0999999999999998e-01 -1.0117428848257898e+01 -1.1369100592900418e+01 -8.0608774159106211e-01 2 -2 2
463 155 1 -8.1999999999999995e-01 -1.0744195191996674e+01 -1.0651997848515490e+01 -5.0133938571248393e-01 2 -2 2
150 50 2 4.0999999999999998e-01 -1.3536291295040860e+01 -1.0237258147466001e+01 -4.1981356471259925e+00 0 -2 2
481 161 1 -8.1999999999999995e-01 -9.0239684288733208e+00 -6.6517682188840297e+00 -3.3985030322291134e+00 -1 -1 4
2460 820 2 4.0999999999999998e-01 -1.3268961307283169e+01 -7.1414934562046497e+00 -2.1590521827309406e+00 1 0 0
514 172 1 -8.1999999999999995e-01 -1.3487697965548914e+01 -8.9755411189836352e+00 -6.5045374421608777e+00 0 -2 -1
2458 820 1 -8.1999999999999995e-01 -1.3407082668556891e+01 -6.8997802536133310e+00 -3.1194902005613976e+00 1 0 0
516 172 2 4.0999999999999998e-01 -1.2488519721910837e+01 -8.9927637166555954e+00 -6.4686185964518934e+00 0 -2 -1
595 199 1 -8.1999999999999995e-01 -9.9884908576335487e+00 -1.4653199756973914e+01 -4.3937909111700115e+00 -1 4 4
2201 734 2 4.0999999999999998e-01 -9.0413163098012070e+00 -1.3386320696559176e+01 -1.5570784456071110e+00 2 -3 1
148 50 1 -8.1999999999999995e-01 -1.3187175450571040e+01 -1.0455206044613465e+01 -3.2867845620154679e+00 0 -2 2
2459 820 2 4.0999999999999998e-01 -1.2857216815735496e+01 -6.0950396868785308e+00 -3.3430614853657499e+00 1 0 0
2200 734 1 -8.1999999999999995e-01 -8.8514978297438223e+00 -1.2423054117170560e+01 -1.7468951590992852e+00 2 -3 1
1235 412 2 4.0999999999999998e-01 -9.9569953360497898e+00 -8.9762382631515596e+00 -5.8695167193783604e-01 -1 2 2
2344 782 1 -8.1999999999999995e-01 -1.0307774291770230e+01 -1.4599960282839179e+01 -1.0499870448087858e+00 -1 2 2
2202 734 2 4.0999999999999998e-01 -9.0252615226148230e+00 -1.2233220462584562e+01 -2.7131835717452812e+00 2 -3 1
2043 681 2 4.0999999999999998e-01 -8.8551863269520403e+00 -1.1991622544171721e+01 -5.4231930807358690e+00 1 -1 2
2346 782 2 4.0999999999999998e-01 -1.1226946418827495e+01 -1.4568991818474052e+01 -1.4425523600495147e+00 -1 2 2
515 172 2 4.0999999999999998e-01 -1.3796159872922827e+01 -9.3460674564501787e+00 -7.3806113300490210e+00 0 -2 -1
807 269 2 4.0999999999999998e-01 -1.4916633923936274e+01 -1.1853116724621721e+01 -8.0928189877312207e-01 3 3 2
485 162 2 4.0999999999999998e-01 -8.1883817616847381e+00 -7.8754907594776329e+00 -2.7228816364887347e+00 0 -3 4
2041 681 1 -8.1999999999999995e-01 -8.5148291743158673e+00 -1.2292775506698899e+01 -4.5324586838251513e+00 1 -1 2
482 161 2 4.0999999999999998e-01 -9.9126235481007328e+00 -6.7449492834678946e+00 -3.8474499068100005e+00 -1 -1 4
112 38 1 -8.1999999999999995e-01 -9.8838907157301659e+00 -5.2764979451464367e+00 -4.6055724813085419e-01 3 -1 -1
806 269 2 4.0999999999999998e-01 -1.4416253509462598e+01 -1.0477144363755034e+01 -1.5323286308827910e+00 3 3 2
2183 728 2 4.0999999999999998e-01 -1.4870158359721829e+01 -1.2628126685856678e+01 -3.8959971365226487e+00 1 3 3
114 38 2 4.0999999999999998e-01 -1.0242709519233699e+01 -6.1860218903207240e+00 -6.7022156618986095e-01 3 -1 -1
483 161 2 4.0999999999999998e-01 -9.0836380998314503e+00 -5.9564569076598826e+00 -2.6823147732125747e+00 -1 -1 4
510 170 2 4.0999999999999998e-01 -1.2241028963507578e+01 -1.3331747281641778e+01 -5.7145298268588931e+00 4 -1 2
805 269 1 -8.1999999999999995e-01 -1.4291942225001147e+01 -1.1075300127098746e+01 -7.4068455487643625e-01 3 3 2
2182 728 1 -8.1999999999999995e-01 -1.4773548350834226e+01 -1.3617057976968242e+01 -3.7836345223822558e+00 1 3 3
647 216 2 4.0999999999999998e-01 -1.0149891506458738e+01 -6.7129909454616090e+00 -6.3339590725419264e+00 0 -1 3
841 281 1 -8.1999999999999995e-01 -1.3333422566399660e+01 -7.8704452763445456e+00 -4.7800730985804840e-01 2 -1 1
705 235 2 4.0999999999999998e-01 -7.5224841063043577e+00 -1.1693770205475349e+01 -8.3176007315749878e-01 3 0 5
1789 597 1 -8.1999999999999995e-01 -9.5574953916125587e+00 -1.1479051744686188e+01 -7.0211638210089342e+00 1 -2 3
134 45 2 4.0999999999999998e-01 -1.3342953402562493e+01 -1.4382825453621777e+01 -3.1423590202127940e+00 -1 -2 2
484 162 1 -8.1999999999999995e-01 -7.5667164632518151e+00 -8.5591172377032123e+00 -2.3406107190293994e+00 0 -3 4
646 216 1 -8.1999999999999995e-01 -9.3718611246464860e+00 -6.3698589896139399e+00 -6.8601464658050713e+00 0 -1 3
2042 681 2 4.0999999999999998e-01 -7.5150216335411102e+00 -1.2306058545999536e+01 -4.5448050509317959e+00 1 -1 2
1446 482 2 4.0999999999999998e-01 -7.6981806644749495e+00 -6.5627895343480915e+00 -6.1521885404794787e+00 4 0 2
843 281 2 4.0999999999999998e-01 -1.2739405750519113e+01 -8.6716240608570203e+00 -5.5012191022768420e-01 2 -1 1
133 45 1 -8.1999999999999995e-01 -1.2547519643752558e+01 -1.4849187528134326e+01 -2.7554022652968442e+00 -1 -2 2
1790 597 2 4.0999999999999998e-01 -1.0188284987531461e+01 -1.0825819960878167e+01 -7.4398959602635815e+00 1 -2 3
2283 761 2 4.0999999999999998e-01 -7.9866906679392340e+00 -5.6041036910545223e+00 -1.3990460840519603e-01 4 0 2
465 155 2 4.0999999999999998e-01 -1.1505845619140754e+01 -1.1065068466721959e+01 -2.1347735410071067e-03 2 -2 2
88 30 1 -8.1999999999999995e-01 -1.7293584214234468e+00 -7.2920933446262639e+00 -6.8456553948855117e+00 1 0 1
445 149 1 -8.1999999999999995e-01 -8.9558574020340309e-01 -5.8936722764933993e+00 -3.2593704762612425e+00 3 -5 2
2590 864 1 -8.1999999999999995e-01 -1.0937582507444397e+00 -1.3975986143989575e+01 -6.9360481272326844e+00 -1 -2 3
781 261 1 -8.1999999999999995e-01 -9.6613389443909448e-01 -1.3525630522038512e+01 -9.9132594240011684e-01 0 1 2
2330 777 2 4.0999999999999998e-01 -4.1616787952659120e+00 -6.7817747063162930e+00 -3.6882561068691455e+00 0 2 2
1652 551 2 4.0999999999999998e-01 -5.0055925746162515e+00 -6.4845584794490776e+00 -5.6890280951555425e+00 2 -1 1
89 30 2 4.0999999999999998e-01 -1.3577146511511042e+00 -7.4199491880556048e+00 -5.9261567458904931e+00 1 0 1
2591 864 2 4.0999999999999998e-01 -1.0582550120291501e-01 -1.3942641547015974e+01 -7.0871143241821279e+00 -1 -2 3
1299 433 2 4.0999999999999998e-01 -3.4955946513059644e-01 -1.1824663101730213e+01 -1.4814929266564416e+00 -3 1 -2
2331 777 2 4.0999999999999998e-01 -4.6473356549003686e+00 -6.2496751371416863e+00 -2.2228262960709273e+00 0 2 2
520 174 1 -8.1999999999999995e-01 -7.7642232435795400e-01 -8.9611359251988958e+00 -7.5752564216181462e-01 1 0 2
152 51 2 4.0999999999999998e-01 -1.3175197549175905e+00 -1.1501547337391779e+01 -5.0358339844180602e+00 1 1 3
153 51 2 4.0999999999999998e-01 -1.8481503170638938e+00 -1.2132519595894298e+01 -3.6263013399306434e+00 1 1 3
585 195 2 4.0999999999999998e-01 -3.3899136549141673e-02 -9.0831981014666798e+00 -4.9527860697735822e+00 -2 -1 1
1653 551 2 4.0999999999999998e-01 -3.4116744510395076e+00 -6.8287947256453592e+00 -5.7750717424037070e+00 2 -1 1
2057 686 2 4.0999999999999998e-01 -6.0233099572386859e+00 -1.0491296965272822e+01 -4.6881912873490084e+00 1 -2 3
1444 482 1 -8.1999999999999995e-01 -6.7630229644963702e+00 -6.9168359317898265e+00 -6.1435172806091956e+00 4 0 2
1121 374 2 4.0999999999999998e-01 -5.9619652034947030e+00 -1.4420754303903081e+01 -1.8277747997197089e+00 4 -1 -1
486 162 2 4.0999999999999998e-01 -7.1673597986860518e+00 -9.0981559530174678e+00 -3.0821601066456150e+00 0 -3 4
639 213 2 4.0999999999999998e-01 -3.5838438378363673e+00 -1.4564622317086245e+01 -5.0969768638223343e+00 2 -1 6
2592 864 2 4.0999999999999998e-01 -1.3166076726138503e+00 -1.3504185567512216e+01 -6.0830028192250403e+00 -1 -2 3
637 213 1 -8.1999999999999995e-01 -4.4838936774915332e+00 -1.4581163785232610e+01 -4.6615682985477349e+00 2 -1 6
1445 482 2 4.0999999999999998e-01 -6.7286017563534219e+00 -7.7539338215150835e+00 -5.5975994629483719e+00 4 0 2
2058 686 2 4.0999999999999998e-01 -5.0726794074393418e+00 -9.2031462409855180e+00 -4.3665605360956246e+00 1 -2 3
2310 770 2 4.0999999999999998e-01 -2.8326618973940416e+00 -1.0103166796380741e+01 -2.7288653382945167e+00 5 1 -1
1651 551 1 -8.1999999999999995e-01 -4.1170139240729764e+00 -6.3530343033444066e+00 -5.2496269591435940e+00 2 -1 1
446 149 2 4.0999999999999998e-01 -1.2491148897651776e+00 -5.9024482120628434e+00 -2.3240181504213258e+00 3 -5 2
584 195 2 4.0999999999999998e-01 -1.4668079074788789e+00 -8.8765588484100917e+00 -4.1974386277069868e+00 -2 -1 1
522 174 2 4.0999999999999998e-01 -9.2485101982033946e-01 -8.0140988812451681e+00 -1.0421898438327322e+00 1 0 2
2309 770 2 4.0999999999999998e-01 -3.3235618351650587e+00 -8.5578923952116206e+00 -2.9228273378369032e+00 5 1 -1
2329 777 1 -8.1999999999999995e-01 -4.3114473265543296e+00 -7.0407174861561650e+00 -2.7340747825682818e+00 0 2 2
1122 374 2 4.0999999999999998e-01 -4.8858516546499242e+00 -1.3827057840928040e+01 -2.9029404210845442e+00 4 -1 -1
783 261 2 4.0999999999999998e-01 -2.5636594360317844e-01 -1.4225859095334775e+01 -1.0678332940128215e+00 0 1 2
2056 686 1 -8.1999999999999995e-01 -6.0070093303860812e+00 -9.4990689083838937e+00 -4.5650582245839999e+00 1 -2 3
583 195 1 -8.1999999999999995e-01 -6.1035359227652286e-01 -8.4318379321566539e+00 -4.4594563785340959e+00 -2 -1 1
2027 676 2 4.0999999999999998e-01 -5.2881513990860096e+00 -1.1969373070946730e+01 -5.8240405180644075e+00 2 -1 1
2308 770 1 -8.1999999999999995e-01 -3.0482789102915113e+00 -9.3929972458353461e+00 -3.3990238269927922e+00 5 1 -1
1120 374 1 -8.1999999999999995e-01 -5.4678602786590016e+00 -1.3602477726887418e+01 -2.1214203401819312e+00 4 -1 -1
703 235 1 -8.1999999999999995e-01 -6.5932771158727075e+00 -1.1676583978911935e+01 -4.6267610991466412e-01 3 0 5
457 153 1 -8.1999999999999995e-01 -1.7734815876345920e+00 -5.6247800531318557e+00 -6.5639569415513854e-01 -2 -1 3
458 153 2 4.0999999999999998e-01 -2.6265560447570397e+00 -6.0368881633022458e+00 -3.3643501177049373e-01 -2 -1 3
151 51 1 -8.1999999999999995e-01 -1.7274420112094742e+00 -1.2304870024644131e+01 -4.6038844881616843e+00 1 1 3
2189 730 2 4.0999999999999998e-01 -2.3821421704269845e+00 -1.2414579123849862e+01 -1.4279786021839840e+00 -1 -5 2
2188 730 1 -8.1999999999999995e-01 -3.1254152138457698e+00 -1.1966070614844238e+01 -1.9242942760922315e+00 -1 -5 2
2026 676 1 -8.1999999999999995e-01 -5.8450110342003434e+00 -1.2246164464385513e+01 -5.0409454767405073e+00 2 -1 1
2190 730 2 4.0999999999999998e-01 -3.9999993145391848e+00 -1.2360743400688595e+01 -1.6427272366503782e+00 -1 -5 2
1004 335 2 4.0999999999999998e-01 -1.6592110950008419e+00 -1.4217607106828860e+01 -4.2361534235934961e+00 0 2 0
2028 676 2 4.0999999999999998e-01 -5.5639357265419118e+00 -1.3156490342259765e+01 -4.7372228363350359e+00 2 -1 1
704 235 2 4.0999999999999998e-01 -5.9570857219654130e+00 -1.2037558604236409e+01 -1.1445131786401994e+00 3 0 5
1318 440 1 -8.1999999999999995e-01 -3.7049032472129202e+00 -1.1660420105257044e+01 -7.0193983449069632e+00 1 -1 1
1565 522 2 4.0999999999999998e-01 -5.6468122938132588e+00 -8.3228654015136421e+00 -9.4263169969256033e-01 1 -1 0
1319 440 2 4.0999999999999998e-01 -3.1029067365874088e+00 -1.1905123071544709e+01 -6.2593558607123683e+00 1 -1 1
782 261 2 4.0999999999999998e-01 -1.3374173095970345e+00 -1.3527439411861460e+01 -6.2838284326186766e-02 0 1 2
1564 522 1 -8.1999999999999995e-01 -5.1624700943641795e+00 -8.5619135539894806e+00 -1.0107802599901916e-01 1 -1 0
90 30 2 4.0999999999999998e-01 -1.2667890680866556e+00 -6.5239417617284676e+00 -7.2882802003838165e+00 1 0 1
447 149 2 4.0999999999999998e-01 -9.0164895939224543e-01 -6.8237057975029192e+00 -3.6267188007254099e+00 3 -5 2
1083 361 2 4.0999999999999998e-01 -5.8222453536620566e+00 -5.5030971191267906e+00 -8.3306812561462351e-01 3 -1 2
1320 440 2 4.0999999999999998e-01 -3.3603472501956606e+00 -1.0834062986316194e+01 -7.4647734955620892e+00 1 -1 1
1566 522 2 4.0999999999999998e-01 -4.9285475074077443e+00 -9.5340284764628045e+00 -1.1579636091673962e-01 1 -1 0
1721 574 2 4.0999999999999998e-01 -5.6695659973819978e+00 -1.2593137635694983e+01 -7.4617290401834566e+00 0 -1 -1
1609 537 1 -8.1999999999999995e-01 -8.0963376251283918e+00 -6.3842974344596701e+00 4.0033501566782448e+00 0 1 2
57 19 2 4.0999999999999998e-01 -1.0729532773871558e+01 -1.1164510051158448e+01 3.8489922959637042e+00 -3 -2 3
1719 573 2 4.0999999999999998e-01 -8.8325329711513874e+00 -1.0598941964874625e+01 3.1673080443350230e+00 2 -1 1
23 8 2 4.0999999999999998e-01 -1.1140056550681766e+01 -6.6276829428821191e+00 2.9566897710503568e+00 4 -1 3
1717 573 1 -8.1999999999999995e-01 -7.8935973790829266e+00 -1.0323272626582028e+01 3.3730999712646899e+00 2 -1 1
55 19 1 -8.1999999999999995e-01 -1.1011695333913909e+01 -1.0769289696952246e+01 2.9748475001520021e+00 -3 -2 3
1729 577 1 -8.1999999999999995e-01 -1.4436602023700898e+01 -1.2578932615456740e+01 5.5473636755021261e+00 -2 0 0
655 219 1 -8.1999999999999995e-01 -1.4483536043614999e+01 -9.4183260112634777e+00 5.7632577961187863e+00 6 0 -1
1287 429 2 4.0999999999999998e-01 -9.3576157056308347e+00 -1.1969770381855231e+01 5.6702764340240819e+00 0 1 3
1426 476 1 -8.1999999999999995e-01 -1.0148100810067513e+01 -8.0504801575232303e+00 2.5951169027516414e+00 1 -2 1
1285 429 1 -8.1999999999999995e-01 -1.0352235006261893e+01 -1.1870648982198281e+01 5.6410982642599983e+00 0 1 3
1523 508 2 4.0999999999999998e-01 -7.5394466671373515e+00 -1.0008401588050837e+01 5.2209997500266461e+00 2 -1 3
56 19 2 4.0999999999999998e-01 -1.1258949800077344e+01 -1.1502774426200679e+01 2.3417525222346249e+00 -3 -2 3
1731 577 2 4.0999999999999998e-01 -1.3565397004119498e+01 -1.3051347429127819e+01 5.6806678240757336e+00 -2 0 0
656 219 2 4.0999999999999998e-01 -1.3722762422375736e+01 -8.7710383826802953e+00 5.7165008306549367e+00 6 0 -1
657 219 2 4.0999999999999998e-01 -1.4160202442508959e+01 -1.0331241846439465e+01 5.5142918589007053e+00 6 0 -1
1611 537 2 4.0999999999999998e-01 -8.5859863321900729e+00 -6.9481376061902935e+00 3.3383145434047989e+00 0 1 2
1428 476 2 4.0999999999999998e-01 -1.0583069439032041e+01 -8.9225499004870841e+00 2.8192610932292439e+00 1 -2 1
254 85 2 4.0999999999999998e-01 -1.1489622734639987e+01 -1.3835890750447073e+01 5.6832243054114677e+00 0 1 3
1148 383 2 4.0999999999999998e-01 -8.8937466782886290e+00 -6.8660404908683041e+00 7.3865530328714506e+00 4 -1 2
1286 429 2 4.0999999999999998e-01 -1.0635514166168850e+01 -1.1160849480287029e+01 6.2859870551097430e+00 0 1 3
2293 765 1 -8.1999999999999995e-01 -1.2100442331448965e+01 -8.0621875403821814e+00 5.8926607206734865e+00 8 2 3
22 8 1 -8.1999999999999995e-01 -1.1908022078985695e+01 -5.9872649220036323e+00 2.9505532881169572e+00 4 -1 3
897 299 2 4.0999999999999998e-01 -1.3579167686126754e+01 -5.9679347771743565e+00 3.0968128558430017e+00 1 2 1
2295 765 2 4.0999999999999998e-01 -1.1713022232158824e+01 -7.7493322383787246e+00 5.0254979957971777e+00 8 2 3
1149 383 2 4.0999999999999998e-01 -8.6943692511717643e+00 -8.2358421007299007e+00 6.5203145249930756e+00 4 -1 2
1147 383 1 -8.1999999999999995e-01 -9.3583722402182037e+00 -7.5560204331123577e+00 6.8315803718033337e+00 4 -1 2
2181 727 2 4.0999999999999998e-01 -1.3100605498882521e+01 -1.1683295289661157e+01 4.0217068592817640e-01 -2 -2 1
1920 640 2 4.0999999999999998e-01 -8.0748635763637449e+00 -1.3836148020281442e+01 4.8115743339337520e+00 4 -2 1
1427 476 2 4.0999999999999998e-01 -9.9234424990283649e+00 -8.0307432226497397e+00 1.6209079607604764e+00 1 -2 1
2175 725 2 4.0999999999999998e-01 -1.3912790470688979e+01 -1.0310671526685617e+01 2.1058681022116303e+00 3 -6 2
2294 765 2 4.0999999999999998e-01 -1.1361277102713149e+01 -8.3297258748704408e+00 6.5107237740354051e+00 8 2 3
253 85 1 -8.1999999999999995e-01 -1.2413849507016074e+01 -1.4204352874395431e+01 5.7831468193179028e+00 0 1 3
684 228 2 4.0999999999999998e-01 -1.3248694052581346e+01 -6.0913232030110596e+00 5.9689646137517940e+00 -3 1 0
255 85 2 4.0999999999999998e-01 -1.2545412339889362e+01 -1.4954604251668625e+01 5.1352594384674148e+00 0 1 3
2173 725 1 -8.1999999999999995e-01 -1.3700462291496649e+01 -9.3515508046462745e+00 2.2928123127257010e+00 3 -6 2