LAMMPS data file via write_data, version 15 May 2015, timestep = 23005000

2611 atoms
6 atom types
1749 bonds
4 bond types
894 angles
3 angle types
44 dihedrals
3 dihedral types
10 impropers
1 improper types

-1.5041344259615531e+01 1.5041344259615531e+01 xlo xhi
-1.5041344259615531e+01 1.5041344259615531e+01 ylo yhi
-1.5041344259615531e+01 1.5041344259615531e+01 zlo zhi

Masses

1 15.9994
2 1.00794
3 12.0107
4 1.00794
5 12.0107
6 12.0107

Bond Coeffs # harmonic

1 1000 1
2 469 1.4
3 367 1.08
4 469 0.7

Angle Coeffs # harmonic

1 100 109.47
2 35 120
3 63 120

Dihedral Coeffs # opls

1 0 7.25 0 0
2 0 7.25 0 0
3 0 7.25 0 0

Improper Coeffs # cvff

1 2.5 -1 2

Atoms # full

969 323 2 4.0999999999999998e-01 -1.1075659720279456e+01 -9.9990084331775222e+00 -1.0943882599820135e+01 -2 6 0
967 323 1 -8.1999999999999995e-01 -1.1804549392724462e+01 -1.0616260133672551e+01 -1.0647624403070957e+01 -2 6 0
561 187 2 4.0999999999999998e-01 -1.4146823390026640e+01 -7.0929533948190011e+00 -7.7814872707795910e+00 3 4 5
625 209 1 -8.1999999999999995e-01 -8.7975222921379306e+00 -6.2530520941366632e+00 -1.0800772745256229e+01 1 0 10
1786 596 1 -8.1999999999999995e-01 -8.6781917533041977e+00 -1.1250485770456805e+01 -9.0492712619837281e+00 8 -3 4
1231 411 1 -8.1999999999999995e-01 -1.1133031441317062e+01 -1.3001775373926300e+01 -9.2471652347404554e+00 2 2 5
1233 411 2 4.0999999999999998e-01 -1.1180150101944220e+01 -1.2093966830144421e+01 -9.6639531924313644e+00 2 2 5
850 284 1 -8.1999999999999995e-01 -9.2725645965324794e+00 -1.4993652700610635e+01 -8.2956871414541471e+00 8 4 3
1232 411 2 4.0999999999999998e-01 -1.2058021814219558e+01 -1.3363661360607383e+01 -9.1310616518873573e+00 2 2 5
818 273 2 4.0999999999999998e-01 -9.5868045011790510e+00 -9.1899013570411441e+00 -1.2664107169603708e+01 -3 5 11
627 209 2 4.0999999999999998e-01 -9.7431503385838454e+00 -5.9308319240804899e+00 -1.0845611348639686e+01 1 0 10
1376 459 2 4.0999999999999998e-01 -7.8334284736939912e+00 -8.6131510940810365e+00 -8.1611313794823772e+00 -2 2 1
1362 454 2 4.0999999999999998e-01 -1.3376035638624113e+01 -1.0602166980156086e+01 -9.3821690382450313e+00 -2 3 0
968 323 2 4.0999999999999998e-01 -1.2314959289898542e+01 -1.0936601215865917e+01 -1.1445692109011301e+01 -2 6 0
1467 489 2 4.0999999999999998e-01 -1.1779712705519064e+01 -7.2039148079629083e+00 -1.2258350457708092e+01 1 1 9
2337 779 2 4.0999999999999998e-01 -1.2176826519862392e+01 -7.6611497186069926e+00 -8.4237711962207555e+00 -1 -4 5
1839 613 2 4.0999999999999998e-01 -1.4564648701681779e+01 -1.3400497877794660e+01 -8.9535600455970652e+00 5 9 3
1024 342 1 -8.1999999999999995e-01 -9.5004499348453013e+00 -9.0757052968090868e+00 -1.1005023174781149e+01 -2 0 4
1025 342 2 4.0999999999999998e-01 -9.0769790271511948e+00 -9.5895471957907077e+00 -1.0258908171850713e+01 -2 0 4
1360 454 1 -8.1999999999999995e-01 -1.3761181454294933e+01 -1.0367230909867221e+01 -8.4896913344137737e+00 -2 3 0
473 158 2 4.0999999999999998e-01 -1.2815755828192653e+01 -9.4877381035307771e+00 -1.2737889196343835e+01 -3 0 5
1026 342 2 4.0999999999999998e-01 -9.2256463229474761e+00 -8.1159458233023170e+00 -1.0946769666044059e+01 -2 0 4
472 158 1 -8.1999999999999995e-01 -1.3439219516407475e+01 -1.0263162631226479e+01 -1.2838181636328812e+01 -3 0 5
1361 454 2 4.0999999999999998e-01 -1.4755069988653975e+01 -1.0474443474309986e+01 -8.5168902631589454e+00 -2 3 0
1465 489 1 -8.1999999999999995e-01 -1.2112922968859035e+01 -7.9117149665685007e+00 -1.2881277859157048e+01 1 1 9
474 158 2 4.0999999999999998e-01 -1.4371717896579693e+01 -9.9706989522887852e+00 -1.2626142755024791e+01 -3 0 5
1466 489 2 4.0999999999999998e-01 -1.1983644717156920e+01 -7.6116901520330487e+00 -1.3826434451984962e+01 1 1 9
1154 385 2 4.0999999999999998e-01 -1.2077267577229824e+01 -5.0502400244804875e+00 -1.0635318659682621e+01 -2 1 5
626 209 2 4.0999999999999998e-01 -8.2176998830276240e+00 -5.5328822644364770e+00 -1.0419708284477164e+01 1 0 10
559 187 1 -8.1999999999999995e-01 -1.3800938916081746e+01 -7.2949817361486442e+00 -8.6977826596488583e+00 3 4 5
1153 385 1 -8.1999999999999995e-01 -1.1303905442097218e+01 -5.3070444207654877e+00 -1.1214983442593157e+01 -2 1 5
1243 415 1 -8.1999999999999995e-01 -1.2847489152312280e+01 -1.2113189565103241e+01 -1.4596030651026295e+01 5 -1 6
852 284 2 4.0999999999999998e-01 -9.5930278751129237e+00 -1.4127669896667884e+01 -8.6796478052032739e+00 8 4 3
781 261 1 -8.1999999999999995e-01 -1.0098275529045804e+01 -1.1832055046483081e+01 -1.4295760633486713e+01 -1 4 6
1244 415 2 4.0999999999999998e-01 -1.3240783702299931e+01 -1.1527371132624060e+01 -1.3887380578924695e+01 5 -1 6
819 273 2 4.0999999999999998e-01 -9.8971722799425113e+00 -8.5797202263967449e+00 -1.4146708686847763e+01 -3 5 11
1158 386 2 4.0999999999999998e-01 -8.4496702641418047e+00 -1.2748305664153481e+01 -1.4059043210907975e+01 -2 2 10
1787 596 2 4.0999999999999998e-01 -8.2054689338911366e+00 -1.1285254856439133e+01 -8.1687186098296287e+00 8 -3 4
1156 386 1 -8.1999999999999995e-01 -7.7967407820219865e+00 -1.3482199660040017e+01 -1.3871609393317168e+01 -2 2 10
783 261 2 4.0999999999999998e-01 -1.1060465536754283e+01 -1.1980489559072460e+01 -1.4524247666516475e+01 -1 4 6
1837 613 1 -8.1999999999999995e-01 -1.3844920116057095e+01 -1.4086155972121148e+01 -8.8444157500457585e+00 5 9 3
1788 596 2 4.0999999999999998e-01 -8.1845246232007369e+00 -1.1810152403264919e+01 -9.7149399214665024e+00 8 -3 4
560 187 2 4.0999999999999998e-01 -1.4471575836732077e+01 -7.8473684906290684e+00 -9.1929227701999814e+00 3 4 5
1245 415 2 4.0999999999999998e-01 -1.3549213656461514e+01 -1.2737088706945629e+01 -1.4940096506050160e+01 5 -1 6
2336 779 2 4.0999999999999998e-01 -1.0797964972944158e+01 -8.5035742878225449e+00 -8.1875125727364129e+00 -1 -4 5
515 172 2 4.0999999999999998e-01 -1.3496476117094016e+01 -5.8774602279092143e+00 -9.7475193136982199e+00 -1 -2 5
851 284 2 4.0999999999999998e-01 -8.6652547569971308e+00 -1.4810998856811805e+01 -7.5224723819412809e+00 8 4 3
782 261 2 4.0999999999999998e-01 -9.9055029263816277e+00 -1.0850833943095287e+01 -1.4286138453979339e+01 -1 4 6
595 199 1 -8.1999999999999995e-01 -1.4722281463371509e+01 -1.3631471381451096e+01 -1.2050619084026279e+01 -3 1 5
2335 779 1 -8.1999999999999995e-01 -1.1196790074585969e+01 -7.5879551499009468e+00 -8.2387850485957799e+00 -1 -4 5
817 273 1 -8.1999999999999995e-01 -9.4295671642227266e+00 -9.3072994386677195e+00 -1.3644690086926095e+01 -3 5 11
1331 444 2 4.0999999999999998e-01 -9.8356015050892882e+00 -1.3779388529591555e+01 -1.2093729037211782e+01 9 6 6
1289 430 2 4.0999999999999998e-01 -7.7148418371028988e+00 -1.0999641212771547e+01 -1.2039197147269803e+01 3 0 3
57 19 2 4.0999999999999998e-01 -8.5211909033638094e+00 -6.0063662870885288e+00 -7.7642738736296035e+00 -2 4 -1
1330 444 1 -8.1999999999999995e-01 -1.0338916770432704e+01 -1.4367026655339272e+01 -1.2727293488586056e+01 9 6 6
1332 444 2 4.0999999999999998e-01 -1.0280796253271914e+01 -1.3988191396945570e+01 -1.3650957167255271e+01 9 6 6
1119 373 2 4.0999999999999998e-01 -1.0642352993121868e+01 -1.0704389502030512e+01 -8.2755431573955676e+00 3 6 7
1118 373 2 4.0999999999999998e-01 -1.2150438298205863e+01 -1.0421258402701339e+01 -7.7167301861283137e+00 3 6 7
1014 338 2 4.0999999999999998e-01 -1.3430693998863962e+01 -1.4709858293170791e+01 -1.1701658398404467e+01 3 3 8
1838 613 2 4.0999999999999998e-01 -1.4248655505771866e+01 -1.5000617776902770e+01 -8.8728070777118226e+00 5 9 3
1013 338 2 4.0999999999999998e-01 -1.1877371367039096e+01 -1.4911813798857629e+01 -1.2163350016234100e+01 3 3 8
55 19 1 -8.1999999999999995e-01 -8.1351096869062456e+00 -5.0855245812523382e+00 -7.8194153419148362e+00 -2 4 -1
672 224 2 4.0999999999999998e-01 -1.3832078864158195e+01 -1.4808683048739077e+01 -1.4146803128384258e+01 5 6 6
224 75 2 4.0999999999999998e-01 -1.3405588993490380e+01 -5.0189457750477722e+00 -1.4013629070366390e+01 0 -4 6
745 249 1 -8.1999999999999995e-01 -2.5280146149557865e+00 -5.2197197078538107e+00 -7.8852313119975905e+00 0 4 5
457 153 1 -8.1999999999999995e-01 -2.6234435014854505e+00 -1.4696012736572671e+01 -1.4877279824385388e+01 -9 2 3
1290 430 2 4.0999999999999998e-01 -7.2947707938059541e+00 -1.2575100922615372e+01 -1.2129880507663621e+01 3 0 3
1375 459 1 -8.1999999999999995e-01 -7.2537982549237441e+00 -8.0559456285890576e+00 -7.5664889665469701e+00 -2 2 1
494 165 2 4.0999999999999998e-01 -1.7646701587403442e+00 -6.6668235739172559e+00 -1.4192424851204889e+01 -3 -3 5
1197 399 2 4.0999999999999998e-01 -3.7145038733640412e-01 -1.3396441087964467e+01 -1.5005555714614012e+01 4 0 10
2203 735 1 -8.1999999999999995e-01 -6.3792687935169639e+00 -5.0949187876615110e+00 -1.1661442067403687e+01 4 1 0
1538 513 2 4.0999999999999998e-01 -7.5037247418794806e-02 -5.1238714574451887e+00 -8.8843559413070690e+00 -3 -1 7
1055 352 2 4.0999999999999998e-01 -3.1803221468199716e-01 -6.6945096433061675e+00 -1.0961286386398264e+01 3 4 7
1930 644 1 -8.1999999999999995e-01 -3.8257263101741401e-01 -1.2638281043668417e+01 -1.1371802103440464e+01 -6 -2 7
954 318 2 4.0999999999999998e-01 -6.5649279140083969e+00 -8.4174382091768436e+00 -1.2956352412964963e+01 3 6 6
1931 644 2 4.0999999999999998e-01 -4.1218457986484758e-01 -1.1645685425505162e+01 -1.1489809729627172e+01 -6 -2 7
1308 436 2 4.0999999999999998e-01 -6.6033500136749446e-01 -1.0103723317204857e+01 -1.2608911358327861e+01 2 -3 2
2411 804 2 4.0999999999999998e-01 -6.0405164303006007e+00 -6.6088164853637839e+00 -1.4565610185713524e+01 6 6 6
1932 644 2 4.0999999999999998e-01 -1.2372233906695396e+00 -1.2950244573305337e+01 -1.0956712409363629e+01 -6 -2 7
504 168 2 4.0999999999999998e-01 -6.8334725944566372e+00 -9.8382873142705893e+00 -1.4488079513312492e+01 -2 -3 5
2569 857 1 -8.1999999999999995e-01 -2.5211438402193789e+00 -1.3374402129023119e+01 -9.9944037444775056e+00 2 3 7
1731 577 2 4.0999999999999998e-01 -3.9225226805998457e+00 -6.8580136526591353e+00 -1.0317295250305646e+01 -3 4 3
493 165 1 -8.1999999999999995e-01 -1.4512070502251735e+00 -6.0780717780000426e+00 -1.4937516083168889e+01 -3 -3 5
1606 536 1 -8.1999999999999995e-01 -5.0820430354434603e+00 -1.0234241422701661e+01 -8.0193159501473303e+00 6 -2 2
872 291 2 4.0999999999999998e-01 -1.6373505187528696e+00 -8.8835401256082935e+00 -1.0571802621137060e+01 -6 3 7
1215 405 2 4.0999999999999998e-01 -4.9767853066087770e+00 -8.5978113275142771e+00 -9.3125016331978685e+00 -3 -5 4
592 198 1 -8.1999999999999995e-01 -3.1454578362901433e+00 -1.1745135320382868e+01 -1.3935256725916130e+01 -2 -2 7
873 291 2 4.0999999999999998e-01 -2.1925003227896713e+00 -9.2373852776647851e+00 -9.0773600035604964e+00 -6 3 7
1157 386 2 4.0999999999999998e-01 -6.9124016768829222e+00 -1.3253586890150226e+01 -1.4278707975074427e+01 -2 2 10
1141 381 1 -8.1999999999999995e-01 -2.7619592837477906e+00 -7.5677757174195515e+00 -1.3282441927435613e+01 0 1 3
495 165 2 4.0999999999999998e-01 -1.9664502479548336e+00 -5.2210983238459008e+00 -1.4924490210732140e+01 -3 -3 5
1288 430 1 -8.1999999999999995e-01 -7.5104477527752254e+00 -1.1822047241555172e+01 -1.1508235641683740e+01 3 0 3
979 327 1 -8.1999999999999995e-01 -2.5836261163290963e+00 -1.4911330182265759e+01 -7.8050875968236566e+00 -1 -1 5
1143 381 2 4.0999999999999998e-01 -2.3253422567964979e+00 -7.1182434561279706e+00 -1.2503124882453822e+01 0 1 3
184 62 1 -8.1999999999999995e-01 -3.7356949743131569e+00 -9.7329411835358091e+00 -1.2218051327725309e+01 4 8 7
1729 577 1 -8.1999999999999995e-01 -3.1051589651583864e+00 -6.3112852853476085e+00 -1.0499101148367842e+01 -3 4 3
186 62 2 4.0999999999999998e-01 -3.5662051926065939e+00 -1.0589638650807860e+01 -1.2705279636216561e+01 4 8 7
593 198 2 4.0999999999999998e-01 -2.3147112964392296e+00 -1.2220416709278972e+01 -1.4225112766583861e+01 -2 -2 7
871 291 1 -8.1999999999999995e-01 -2.1539536817270051e+00 -9.5450269192533561e+00 -1.0028106809942752e+01 -6 3 7
1056 352 2 4.0999999999999998e-01 -1.4294926101613346e+00 -6.7544450141104875e+00 -9.7663722080240554e+00 3 4 7
1054 352 1 -8.1999999999999995e-01 -6.2254401168102191e-01 -7.2001097500743390e+00 -1.0154013313471307e+01 3 4 7
1213 405 1 -8.1999999999999995e-01 -5.4949493938013951e+00 -7.9315465798948912e+00 -9.8488280142314313e+00 -3 -5 4
185 62 2 4.0999999999999998e-01 -3.1147917308066955e+00 -9.6651827257809053e+00 -1.1437066878635498e+01 4 8 7
1608 536 2 4.0999999999999998e-01 -4.9197291169577468e+00 -1.0851018863083999e+01 -8.7895681968139456e+00 6 -2 2
2570 857 2 4.0999999999999998e-01 -3.4018769158237987e+00 -1.2906808822709367e+01 -1.0069998009395725e+01 2 3 7
2571 857 2 4.0999999999999998e-01 -2.5207258642222428e+00 -1.3954824244450402e+01 -9.1800581492155189e+00 2 3 7
316 106 1 -8.1999999999999995e-01 -7.5752853433243672e-02 -5.1282329844738133e+00 -1.2060515941947591e+01 -5 0 3
953 318 2 4.0999999999999998e-01 -5.4273025655393212e+00 -9.3560739259918506e+00 -1.2255261835455308e+01 3 6 6
1142 381 2 4.0999999999999998e-01 -3.4178852986544630e+00 -8.2461554188558921e+00 -1.2951366733328166e+01 0 1 3
1816 606 1 -8.1999999999999995e-01 -5.2504573651290993e+00 -1.2451357342859804e+01 -9.8332030892809730e+00 0 -4 4
1817 606 2 4.0999999999999998e-01 -6.0086835195821191e+00 -1.2051447350355325e+01 -1.0348192248110916e+01 0 -4 4
1818 606 2 4.0999999999999998e-01 -5.1938966711304353e+00 -1.3430310217931504e+01 -1.0029419565547595e+01 0 -4 4
1214 405 2 4.0999999999999998e-01 -5.9019680625010054e+00 -8.3857512794623243e+00 -1.0641344658226508e+01 -3 -5 4
952 318 1 -8.1999999999999995e-01 -6.3544546677822176e+00 -8.9922211698241910e+00 -1.2165546302878594e+01 3 6 6
1730 577 2 4.0999999999999998e-01 -3.0715606181030299e+00 -5.5403296714049866e+00 -9.8630607987040939e+00 -3 4 3
594 198 2 4.0999999999999998e-01 -3.9400564143087351e+00 -1.2165475821156461e+01 -1.4373407020915385e+01 -2 -2 7
1697 566 2 4.0999999999999998e-01 -6.0826107036506194e-01 -1.4567664590441710e+01 -1.1974841931880693e+01 2 8 5
353 118 2 4.0999999999999998e-01 -5.3597349138146324e+00 -1.4895622272855451e+01 -1.4714896705851547e+01 -2 4 5
2205 735 2 4.0999999999999998e-01 -6.3794114151661425e+00 -6.0531658286865291e+00 -1.1947468821234290e+01 4 1 0
2412 804 2 4.0999999999999998e-01 -7.4488774570762857e+00 -7.3170837512076448e+00 -1.4991794556545315e+01 6 6 6
1195 399 1 -8.1999999999999995e-01 -4.0745485257475522e-01 -1.2412909084322756e+01 -1.4828306655190053e+01 4 0 10
2410 804 1 -8.1999999999999995e-01 -6.7339198633679533e+00 -7.2761652115729065e+00 -1.4293790230592631e+01 6 6 6
1377 459 2 4.0999999999999998e-01 -6.6692453006725074e+00 -7.4685058540402522e+00 -8.1261862621984484e+00 -2 2 1
458 153 2 4.0999999999999998e-01 -3.0206346470277357e+00 -1.4734209176946187e+01 -1.3960312561249747e+01 -9 2 3
180 60 2 4.0999999999999998e-01 -4.7877215555766117e+00 -5.1704379250974402e+00 -8.1141702429859492e+00 1 2 -1
214 72 1 -8.1999999999999995e-01 -1.0117505239738779e+01 -1.3856258581692977e+01 -4.1227074312739198e-01 3 8 8
216 72 2 4.0999999999999998e-01 -9.5564517627831975e+00 -1.3044689938633891e+01 -5.7543954655892549e-01 3 8 8
2080 694 1 -8.1999999999999995e-01 -1.0938379913249861e+01 -1.3188690327205308e+01 -4.4889761116314730e+00 6 6 9
215 72 2 4.0999999999999998e-01 -1.0536193122330513e+01 -1.4150287479677564e+01 -1.2715123830047652e+00 3 8 8
1355 452 2 4.0999999999999998e-01 -9.7498876184946468e+00 -6.8436304721221948e+00 -3.0220551396022053e+00 0 1 4
1995 665 2 4.0999999999999998e-01 -1.4642679306615513e+01 -1.0179230664337158e+01 -2.4049851808705309e+00 -4 1 3
1325 442 2 4.0999999999999998e-01 -1.1544541776048781e+01 -8.3512588647689885e+00 -3.3881823725995659e+00 4 2 9
556 186 1 -8.1999999999999995e-01 -1.1852079232344366e+01 -1.4773087943067770e+01 -6.7036681083307705e+00 0 6 6
1324 442 1 -8.1999999999999995e-01 -1.0745355131321228e+01 -8.7583976374477182e+00 -2.9459296584798000e+00 4 2 9
2177 726 2 4.0999999999999998e-01 -1.2195496889394722e+01 -7.0940104232408725e+00 -5.9034811952242450e-01 -1 2 4
1675 559 1 -8.1999999999999995e-01 -1.2139284236964519e+01 -6.1635085216439798e+00 -4.1820117726211929e+00 -1 3 8
1354 452 1 -8.1999999999999995e-01 -9.6750885763540548e+00 -5.9484842215786422e+00 -2.5825474345411159e+00 0 1 4
1676 559 2 4.0999999999999998e-01 -1.1376167685293870e+01 -6.0757091558661394e+00 -3.5417047145997032e+00 -1 3 8
1678 560 1 -8.1999999999999995e-01 -8.1252774034342181e+00 -1.3775397307258357e+01 -5.7357260718996432e+00 1 3 2
2081 694 2 4.0999999999999998e-01 -1.1333945149863151e+01 -1.3389396670887441e+01 -5.3852427153175295e+00 6 6 9
1356 452 2 4.0999999999999998e-01 -1.0148602838553460e+01 -5.9688971808825269e+00 -1.7019701856772169e+00 0 1 4
1581 527 2 4.0999999999999998e-01 -9.7886400083457694e+00 -8.7387791138881923e+00 -1.6383141517415378e+00 3 -4 4
1326 442 2 4.0999999999999998e-01 -1.0447688207041924e+01 -9.5585279804036656e+00 -3.4667315246841302e+00 4 2 9
1680 560 2 4.0999999999999998e-01 -9.0938226238007580e+00 -1.3779528739408482e+01 -5.4868249806171843e+00 1 3 2
2082 694 2 4.0999999999999998e-01 -1.1151920416991123e+01 -1.3932986301410978e+01 -3.8561469808860753e+00 6 6 9
41 14 2 4.0999999999999998e-01 -1.2420960429717589e+01 -1.0957857336446081e+01 -3.8175596060654176e+00 2 1 3
1979 660 2 4.0999999999999998e-01 -7.9751203824463177e+00 -1.0261183197542721e+01 -1.0661130822226443e+00 8 -2 8
893 298 2 4.0999999999999998e-01 -1.4002996377767127e+01 -6.3873785044787112e+00 -5.4422824008509476e+00 -1 2 4
676 226 1 -8.1999999999999995e-01 -1.4034069776931815e+01 -9.6342565028971343e+00 -5.7860396864291701e+00 2 -1 3
188 63 2 4.0999999999999998e-01 -8.1314518566434160e+00 -8.0625388435940799e+00 -6.1638892563801342e+00 7 1 8
187 63 1 -8.1999999999999995e-01 -8.5264407698411180e+00 -7.9502029367531142e+00 -5.2520706626018256e+00 7 1 8
1579 527 1 -8.1999999999999995e-01 -9.0132988362631199e+00 -8.6828049752163423e+00 -1.0092181937333287e+00 3 -4 4
189 63 2 4.0999999999999998e-01 -9.1758071683300724e+00 -8.6901992186706316e+00 -5.0766354282765498e+00 7 1 8
2236 746 1 -8.1999999999999995e-01 -1.0233577133469890e+01 -1.0376394148555299e+01 -4.9949180859704043e+00 2 -4 9
2237 746 2 4.0999999999999998e-01 -1.0478519007956354e+01 -1.0417645826486652e+01 -5.9636030157077524e+00 2 -4 9
2238 746 2 4.0999999999999998e-01 -1.0229672000733686e+01 -1.1300381841382977e+01 -4.6124521227729591e+00 2 -4 9
1242 414 2 4.0999999999999998e-01 -7.7770935268603045e+00 -7.4737301085368593e+00 -1.3849906379564185e+00 1 1 2
40 14 1 -8.1999999999999995e-01 -1.3347702066791957e+01 -1.0673271607798572e+01 -3.5721830782267467e+00 2 1 3
557 186 2 4.0999999999999998e-01 -1.2440160724488340e+01 -1.4436104393294652e+01 -7.4389578342863700e+00 0 6 6
678 226 2 4.0999999999999998e-01 -1.4220288291600889e+01 -8.6519204553444027e+00 -5.8057194483734520e+00 2 -1 3
1679 560 2 4.0999999999999998e-01 -7.8415401531864681e+00 -1.2841955175578848e+01 -5.9553341640428759e+00 1 3 2
677 226 2 4.0999999999999998e-01 -1.3431415109077463e+01 -9.8745816463362051e+00 -6.5470258290876835e+00 2 -1 3
42 14 2 4.0999999999999998e-01 -1.3792419911950990e+01 -1.0263474570804346e+01 -4.3686384723945633e+00 2 1 3
1949 650 2 4.0999999999999998e-01 -1.1417442588028146e+01 -5.9557676714760941e+00 -6.9521613329789993e+00 0 0 5
892 298 1 -8.1999999999999995e-01 -1.4567325055385895e+01 -6.8121273266826705e+00 -6.1502162246664795e+00 -1 2 4
2110 704 1 -8.1999999999999995e-01 -7.7422467487004525e+00 -1.3660621140590493e+01 -2.7406362185845676e+00 1 2 7
641 214 2 4.0999999999999998e-01 -1.3577867161398506e+01 -5.7248486335164248e+00 -3.4942699718894570e+00 0 5 2
2111 704 2 4.0999999999999998e-01 -8.4037333687919684e+00 -1.3089741697867094e+01 -3.2270319986353684e+00 1 2 7
1580 527 2 4.0999999999999998e-01 -9.3121992264143678e+00 -8.2728400119316241e+00 -1.4745487459453521e-01 3 -4 4
1117 373 1 -8.1999999999999995e-01 -1.1186967222656822e+01 -1.0502582320651253e+01 -7.4614682578814948e+00 3 6 7
2178 726 2 4.0999999999999998e-01 -1.2408319927040152e+01 -5.4759347021143920e+00 -6.4773951866213686e-01 -1 2 4
480 160 2 4.0999999999999998e-01 -1.3728529928945086e+01 -8.7534765413395519e+00 -7.2196281031271781e-01 1 3 3
1677 559 2 4.0999999999999998e-01 -1.1901355715711180e+01 -5.7212531831948628e+00 -5.0467943965441133e+00 -1 3 8
2176 726 1 -8.1999999999999995e-01 -1.1730925444741665e+01 -6.2114300866019008e+00 -6.6297078686940836e-01 -1 2 4
1948 650 1 -8.1999999999999995e-01 -1.1653667300362276e+01 -5.0535783274535504e+00 -6.5911890178371593e+00 0 0 5
640 214 1 -8.1999999999999995e-01 -1.4285726977158159e+01 -5.2932725805121148e+00 -2.9350514585791014e+00 0 5 2
1929 643 2 4.0999999999999998e-01 -1.4957853565084024e+01 -1.5039105900469401e+01 -2.2713026990994987e+00 6 -6 3
478 160 1 -8.1999999999999995e-01 -1.2939390272173561e+01 -8.8459883056360766e+00 -1.1471580693537575e-01 1 3 3
1372 458 1 -8.1999999999999995e-01 -9.8041554766331274e-01 -1.2768874932490670e+01 -2.4741021737102287e-01 1 1 7
691 231 1 -8.1999999999999995e-01 -2.1499597159227193e+00 -8.4600952775928668e+00 -7.4689131881493998e+00 2 6 5
1980 660 2 4.0999999999999998e-01 -7.1143769989033956e+00 -1.1398220045804997e+01 -2.7048473357474734e-01 8 -2 8
1607 536 2 4.0999999999999998e-01 -4.3584109961413766e+00 -1.0352578289047095e+01 -7.3393146302111667e+00 6 -2 2
1507 503 1 -8.1999999999999995e-01 -3.4260986927831105e-01 -1.3489646750276821e+01 -6.4867403199784839e+00 1 0 7
1833 611 2 4.0999999999999998e-01 -7.1541625876252732e+00 -1.4684767475134164e+01 -9.3497910499795012e-01 -3 2 8
1978 660 1 -8.1999999999999995e-01 -7.2613809253171713e+00 -1.0955933623529161e+01 -1.1552566123623524e+00 8 -2 8
1643 548 2 4.0999999999999998e-01 -4.4501690069528141e+00 -5.7547559086829310e+00 -4.2671261867552914e+00 -1 8 4
693 231 2 4.0999999999999998e-01 -1.2216999520747134e+00 -8.4426891640432977e+00 -7.0973225776967368e+00 2 6 5
2112 704 2 4.0999999999999998e-01 -6.8259092303736413e+00 -1.3492358505946047e+01 -3.1040395643340339e+00 1 2 7
2021 674 2 4.0999999999999998e-01 -4.7992996344264878e+00 -7.4917331336013815e+00 -4.9681581200623928e+00 1 4 1
275 92 2 4.0999999999999998e-01 -3.2106872982889776e+00 -1.5015170083807169e+01 -1.0560286880414562e+00 -1 0 3
1205 402 2 4.0999999999999998e-01 -3.4447467603045219e+00 -1.0129496209229627e+01 -3.0637441517195967e+00 2 3 6
1240 414 1 -8.1999999999999995e-01 -7.0246452065001073e+00 -6.9263103138442403e+00 -1.7513262689151912e+00 1 1 2
2150 717 2 4.0999999999999998e-01 -6.4033919637354657e+00 -1.1104781076845819e+01 -7.0816823420674275e+00 3 -2 14
1542 514 2 4.0999999999999998e-01 -3.6123241359049185e+00 -6.8102465685266012e+00 -2.5393032009941336e+00 0 3 0
118 40 1 -8.1999999999999995e-01 -7.2221121358736093e+00 -1.0405823845492144e+01 -3.9595563475060516e+00 2 1 4
2422 808 1 -8.1999999999999995e-01 -3.5902486327796446e-01 -5.2703770143004949e+00 -3.4316954363174865e+00 -7 -2 4
1452 484 2 4.0999999999999998e-01 -4.8038483456684133e+00 -1.2570056171793823e+01 -4.0210369258377963e+00 2 0 2
1241 414 2 4.0999999999999998e-01 -7.1144207590961051e+00 -6.8589946042072896e+00 -2.7450353079033203e+00 1 1 2
1204 402 1 -8.1999999999999995e-01 -2.9967199051298667e+00 -9.8685952417166476e+00 -2.2086118069803877e+00 2 3 6
1935 645 2 4.0999999999999998e-01 -1.7786788913793483e+00 -1.1752757195981234e+01 -6.5836515221212970e+00 -1 0 1
2022 674 2 4.0999999999999998e-01 -5.7598388898172157e+00 -8.1921191881901905e+00 -6.0877920440327209e+00 1 4 1
450 150 2 4.0999999999999998e-01 -1.7072165765871059e+00 -1.4463138477607432e+01 -2.5785229273410231e+00 1 -3 7
1540 514 1 -8.1999999999999995e-01 -3.8753918268865473e+00 -7.2229600800030598e+00 -1.6672299763221528e+00 0 3 0
1923 641 2 4.0999999999999998e-01 -6.2452762018236054e+00 -5.6889718174329413e+00 -7.7505400179791550e-01 1 0 7
1206 402 2 4.0999999999999998e-01 -3.0410525559878341e+00 -8.8756364909088941e+00 -2.0985378686750380e+00 2 3 6
1541 514 2 4.0999999999999998e-01 -4.7879191554080709e+00 -6.9050308897282644e+00 -1.4098127263458213e+00 0 3 0
119 40 2 4.0999999999999998e-01 -7.4154583739614077e+00 -9.4398687621615061e+00 -4.1315933636812012e+00 2 1 4
1085 362 2 4.0999999999999998e-01 -3.0071768992082770e+00 -7.4947505543751456e+00 -2.8502750592507908e-01 0 2 7
2020 674 1 -8.1999999999999995e-01 -5.0259493187161297e+00 -8.3507428411226066e+00 -5.4272669737256365e+00 1 4 1
2151 717 2 4.0999999999999998e-01 -7.2925090337471845e+00 -1.0908009475064842e+01 -5.7261351414225690e+00 3 -2 14
254 85 2 4.0999999999999998e-01 -1.1721864546556287e+00 -1.0816948627247985e+01 -2.5247553967030498e+00 0 2 8
2098 700 1 -8.1999999999999995e-01 -4.0416572060546745e+00 -1.1107727185069301e+01 -4.5900476534549028e+00 4 -1 1
1450 484 1 -8.1999999999999995e-01 -5.1967006919843683e+00 -1.3471313282142169e+01 -3.8381397281393870e+00 2 0 2
2149 717 1 -8.1999999999999995e-01 -7.1318536306365736e+00 -1.1495775539197668e+01 -6.5190850835053649e+00 3 -2 14
1933 645 1 -8.1999999999999995e-01 -2.5220194382545706e+00 -1.1085950260856977e+01 -6.6371495995862926e+00 -1 0 1
2099 700 2 4.0999999999999998e-01 -3.4872233926100229e+00 -1.1145697302850850e+01 -5.4214381707890222e+00 4 -1 1
2100 700 2 4.0999999999999998e-01 -4.9061867963320225e+00 -1.0645195419495277e+01 -4.7867751148444295e+00 4 -1 1
448 150 1 -8.1999999999999995e-01 -2.5326585364922725e+00 -1.3935913553356576e+01 -2.3767106491378502e+00 1 -3 7
1509 503 2 4.0999999999999998e-01 -1.2066886768460829e+00 -1.3904643152372484e+01 -6.7716868500653735e+00 1 0 7
449 150 2 4.0999999999999998e-01 -2.3595104543223488e+00 -1.3329742608559052e+01 -1.6004212339628303e+00 1 -3 7
938 313 2 4.0999999999999998e-01 -3.3724696930108404e+00 -1.0585151422577116e+01 -7.6053182879651260e-01 1 4 3
120 40 2 4.0999999999999998e-01 -7.0731522204456372e+00 -1.0546765789143159e+01 -2.9807841333275178e+00 2 1 4
1642 548 1 -8.1999999999999995e-01 -3.6449028406851447e+00 -6.3387541417374216e+00 -4.1644558223181658e+00 -1 8 4
1644 548 2 4.0999999999999998e-01 -2.9901589196445002e+00 -6.1346623531432272e+00 -4.8922646421219440e+00 -1 8 4
692 231 2 4.0999999999999998e-01 -2.5073716745306616e+00 -7.5273507197753311e+00 -7.5167986823917312e+00 2 6 5
253 85 1 -8.1999999999999995e-01 -1.7865180984656170e-01 -1.0929600198470297e+01 -2.5090304853212544e+00 0 2 8
1451 484 2 4.0999999999999998e-01 -4.5987529656703572e+00 -1.3975317167072578e+01 -3.2148522244994133e+00 2 0 2
1373 458 2 4.0999999999999998e-01 -6.8759491555133678e-01 -1.2187661486049047e+01 -1.0066833875672607e+00 1 1 7
2461 821 1 -8.1999999999999995e-01 -6.5873951184577120e+00 -5.7218760847193906e+00 -4.7836699725202845e+00 -2 2 2
1934 645 2 4.0999999999999998e-01 -2.2103034126188934e+00 -1.0278793234665191e+01 -7.1385270682802116e+00 -1 0 1
2463 821 2 4.0999999999999998e-01 -7.2656400457688015e+00 -6.4567413235411397e+00 -4.7860430629306272e+00 -2 2 2
2250 750 2 4.0999999999999998e-01 -8.1900317392060558e+00 -1.1522253131662778e+01 4.8311940364079611e+00 4 2 10
1641 547 2 4.0999999999999998e-01 -1.0517711249777580e+01 -1.3592825185527218e+01 5.1144072856359131e+00 -3 0 11
1478 493 2 4.0999999999999998e-01 -1.1085561379758706e+01 -8.8036317938854278e+00 5.1554102522969529e+00 6 -1 2
1639 547 1 -8.1999999999999995e-01 -1.0027457019528818e+01 -1.4148674207930739e+01 4.4430419665255663e+00 -3 0 11
1477 493 1 -8.1999999999999995e-01 -1.2071822126635958e+01 -8.7205470791752031e+00 5.2983627357300236e+00 6 -1 2
1479 493 2 4.0999999999999998e-01 -1.2483707816684117e+01 -9.6315992207050414e+00 5.3179307977381995e+00 6 -1 2
1640 547 2 4.0999999999999998e-01 -9.0892750774269171e+00 -1.3813968384689172e+01 4.3545242549801273e+00 -3 0 11
34 12 1 -8.1999999999999995e-01 -9.3197130835840341e+00 -8.6046003295197799e+00 5.3928980122076418e+00 -2 0 2
1976 659 2 4.0999999999999998e-01 -1.0879181199287626e+01 -5.4790791195991861e+00 4.9666138262680342e+00 -3 3 7
1943 648 2 4.0999999999999998e-01 -9.2138085240025731e+00 -7.5690441635302506e+00 2.9768506299215431e+00 1 1 10
1944 648 2 4.0999999999999998e-01 -8.0167124944133530e+00 -7.5837282253705691e+00 1.8662193267323559e+00 1 1 10
1942 648 1 -8.1999999999999995e-01 -8.9087822668307659e+00 -7.9641104073676265e+00 2.1102882409999495e+00 1 1 10
2013 671 2 4.0999999999999998e-01 -9.9944232155544839e+00 -1.0987899562528060e+01 2.7086270088390521e+00 0 -1 4
1583 528 2 4.0999999999999998e-01 -1.2449339657019053e+01 -1.3566058725599397e+01 5.7944565187349575e+00 6 5 6
1777 593 1 -8.1999999999999995e-01 -1.2785998768138196e+01 -1.1336154764227647e+01 3.3985342370683362e+00 -1 -3 1
2031 677 2 4.0999999999999998e-01 -1.2400656616681559e+01 -7.7938326387949477e+00 3.4534497169267873e+00 3 1 1
2029 677 1 -8.1999999999999995e-01 -1.3085323899300032e+01 -7.4351439200346929e+00 2.8189248187731799e+00 3 1 1
1739 580 2 4.0999999999999998e-01 -1.0897984868219190e+01 -1.4319964373361531e+01 3.0267905432615478e+00 -2 2 1
1486 496 1 -8.1999999999999995e-01 -1.2187763991457199e+01 -1.1432508349406437e+01 2.8277354398009003e-01 4 3 1
2012 671 2 4.0999999999999998e-01 -9.6893459247711586e+00 -9.8067234095147171e+00 1.6230363082886541e+00 0 -1 4
1778 593 2 4.0999999999999998e-01 -1.2614570972850380e+01 -1.1901519610298122e+01 2.5916737552680331e+00 -1 -3 1
1977 659 2 4.0999999999999998e-01 -1.0072254358913034e+01 -6.8984518444789753e+00 4.9983402788380253e+00 -3 3 7
2011 671 1 -8.1999999999999995e-01 -9.9743155412357609e+00 -1.0758672574717931e+01 1.7354366933720087e+00 0 -1 4
1975 659 1 -8.1999999999999995e-01 -1.0091651607800930e+01 -5.9788368430911909e+00 4.6059365419162219e+00 -3 3 7
1582 528 1 -8.1999999999999995e-01 -1.1863482025214573e+01 -1.2766317687186723e+01 5.6631787795388497e+00 6 5 6
1738 580 1 -8.1999999999999995e-01 -1.1328759940839836e+01 -1.4618114556428635e+01 2.1749759750086213e+00 -2 2 1
2248 750 1 -8.1999999999999995e-01 -9.1404319249724253e+00 -1.1240070127836228e+01 4.7001941981156037e+00 4 2 10
1349 450 2 4.0999999999999998e-01 -1.2127171782516795e+01 -8.6036513480247798e+00 7.0765475239609898e+00 -2 0 5
1779 593 2 4.0999999999999998e-01 -1.3766103892141295e+01 -1.1152855275786971e+01 3.4749800995198186e+00 -1 -3 1