2611
Atoms. Timestep: 23000000
O -13.2803 3.97833 1.15761
H -13.058 3.27163 1.82925
H -12.4353 4.35256 0.775536
O 0.320986 -1.13192 12.9258
H 0.482728 -0.391107 13.5777
H 1.19673 -1.51767 12.6357
O -12.8863 1.2264 2.09298
H -13.8659 1.02655 2.11281
H -12.4841 1.01082 2.98274
O -14.8812 -2.66938 -4.11255
H 14.8422 -3.64856 -3.95919
H 14.7597 -2.16853 -3.27424
O -4.38169 -11.7645 11.0645
H -3.50766 -11.2815 11.0125
H -4.25179 -12.7186 10.795
O -6.40993 -4.29777 12.7388
H -6.27442 -3.57864 12.0573
H -6.96109 -5.03234 12.3431
O -7.91133 -6.61349 12.1058
H -8.4797 -6.31448 11.3393
H -8.21207 -7.51693 12.4112
O -9.07419 3.51666 -10.3484
H -8.89723 4.17379 -9.61574
H -8.39655 2.78241 -10.3084
O 11.5199 2.71395 6.12613
H 10.731 3.01824 6.65998
H 11.9479 1.93228 6.57976
O 8.38396 -14.1815 4.84552
H 7.7821 -13.561 5.34817
H 8.04248 -14.294 3.91242
O 10.5672 10.2321 -12.7073
H 10.1789 9.57149 -12.0648
H 10.8271 9.76305 -13.5513
O -8.91847 -9.47981 7.15651
H -8.08109 -10.0016 7.31919
H -8.74816 -8.51125 7.33768
O 0.751217 -9.63394 9.98024
H 0.626917 -10.5791 9.67825
H 0.978404 -9.05985 9.19365
O -13.6817 -11.5811 -6.61389
H -13.3974 -12.5398 -6.61424
H -13.909 -11.3005 -7.54637
O -3.06359 11.614 -8.47432
H -2.84558 11.0975 -9.30236
H -2.23043 11.7528 -7.93906
O 4.21847 2.1447 12.5824
H 3.83421 1.36693 13.0798
H 4.99028 1.83634 12.0264
O 6.53884 -10.3362 -3.06472
H 6.64669 -9.35135 -3.20062
H 7.43844 -10.7728 -3.0624
O 2.97604 0.650094 9.99719
H 3.64652 0.793544 9.26931
H 3.41811 0.770467 10.886
O -4.68785 -5.84757 -6.08454
H -5.56814 -5.37344 -6.06926
H -4.75422 -6.69094 -5.55139
O 7.38718 -2.43279 5.02015
H 8.20036 -2.93762 5.30964
H 6.99214 -1.95798 5.80655
O -6.71695 6.1061 -8.57267
H -7.21605 6.05264 -9.43751
H -7.17147 5.53442 -7.88965
O 8.92293 -8.56868 3.16434
H 8.8881 -7.60815 2.88847
H 8.57769 -8.65993 4.09837
O 10.2507 1.27534 -7.10383
H 10.4599 1.25907 -6.12611
H 9.78756 2.13185 -7.33139
O 7.25607 -6.31539 -7.25399
H 7.92442 -6.51151 -6.53651
H 7.73056 -6.18186 -8.12402
O -5.11774 14.6966 3.64563
H -4.85992 14.5112 2.69742
H -5.81548 -14.4436 3.66745
O 7.07851 4.78701 -3.92386
H 6.18175 4.44274 -4.20178
H 6.96062 5.53456 -3.27025
O 9.07727 -1.43678 -6.69215
H 9.41933 -0.538756 -6.96869
H 8.07851 -1.44244 -6.74073
O 1.36933 13.6524 12.4408
H 0.595147 13.8317 11.8338
H 1.11402 13.8758 13.3815
O 10.7397 8.06233 -3.86094
H 10.8699 8.93685 -4.32805
H 10.1167 8.18648 -3.08866
O -0.959606 6.4512 -6.15471
H -1.23154 5.8151 -6.87676
H -1.35917 7.35006 -6.3345
O 0.934202 14.0068 -1.24119
H 1.71948 13.8943 -1.84997
H 0.792837 13.1648 -0.720548
O 9.69306 0.408573 6.46772
H 8.85266 0.659813 5.98758
H 10.3561 0.0471758 5.81221
O 8.9826 -4.18748 -11.0773
H 8.76531 -5.13428 -10.84
H 9.70186 -3.84857 -10.4709
O -2.79453 7.15409 -2.82666
H -2.99142 7.77714 -3.58361
H -3.63684 6.96704 -2.32123
O 12.9425 8.90485 9.74884
H 12.1953 8.58249 10.3299
H 13.7405 8.31555 9.87454
O 14.507 6.9579 -0.669373
H 13.9142 6.70528 -1.43401
H -14.8601 7.8014 -0.891337
O 9.34595 8.33449 -11.2592
H 9.17046 7.48406 -11.7551
H 10.1584 8.2249 -10.6867
O -13.8069 10.1502 7.52069
H -14.1375 10.9154 8.07296
H -13.9559 9.29369 8.01483
O 13.5574 2.25158 0.821722
H 13.6218 1.51799 1.49821
H 12.7502 2.10732 0.249406
O -5.91334 -12.413 -3.20207
H -5.07378 -12.8935 -2.94865
H -6.31129 -11.9863 -2.38996
O 6.76951 -8.90763 -14.3082
H 7.58862 -9.13923 -14.8329
H 6.51738 -7.95652 -14.4864
O 14.1493 -2.80027 -14.656
H 14.3019 -1.89097 14.8131
H 13.3968 -3.24667 14.716
O 3.2233 9.4608 2.91944
H 3.18647 8.52094 2.57995
H 2.85487 9.49429 3.84845
O -4.01166 -1.46484 14.3735
H -3.38855 -2.23466 14.5116
H -4.94684 -1.75163 14.5812
O -6.35952 1.17412 -3.37614
H -6.61436 1.21753 -4.34212
H -7.11905 1.50452 -2.81589
O 6.50305 -11.7801 11.509
H 5.93344 -11.4341 10.7635
H 6.06623 -11.5753 12.3849
O 9.13932 11.8988 7.8646
H 8.60717 11.075 7.66944
H 9.45233 12.3046 7.00595
O 13.3527 -5.0085 13.6176
H 12.9715 -5.93247 13.5878
H 14.2847 -5.04397 13.9781
O -3.56202 8.33714 11.9085
H -3.05788 8.91895 11.2704
H -4.04498 7.62459 11.3997
O -9.46419 4.54323 -13.5585
H -8.53084 4.46882 -13.2074
H -10.0578 4.92325 -12.8492
O 0.929721 7.30244 13.1896
H 0.582404 7.62761 12.31
H 1.47402 6.47564 13.0479
O 8.57422 -3.39104 -3.46606
H 9.08972 -3.87316 -4.17441
H 8.97943 -3.58047 -2.57172
O 8.29214 -10.234 0.740337
H 8.48372 -9.95469 1.68119
H 7.36704 -9.94883 0.489789
O 2.52133 6.84394 8.50703
H 2.43216 7.68913 9.03394
H 3.41166 6.42808 8.69221
O -1.83376 8.17579 -8.09477
H -1.79933 7.59734 -8.90972
H -2.76256 8.1747 -7.72427
O -11.9476 1.58252 -6.01841
H -12.6162 0.95321 -5.62242
H -11.9426 2.43533 -5.49628
O 6.31501 10.6289 9.82864
H 5.93379 10.6612 8.90476
H 5.61972 10.2941 10.4646
O -2.81652 -4.54475 7.29956
H -2.39521 -3.98446 6.58647
H -3.21336 -3.95069 7.99924
O 11.5978 -2.32464 7.01867
H 11.7521 -2.37599 8.00533
H 10.9538 -3.03874 6.74442
O -3.38277 -4.7727 -8.78663
H -3.78887 -5.2448 -8.00424
H -2.53903 -4.31857 -8.50064
O -8.55814 -14.7119 -3.12726
H -8.3533 -14.218 -3.97229
H -7.77353 14.5788 -2.87311
O -3.48728 -11.3254 -10.6292
H -2.5925 -10.8815 -10.5811
H -3.85311 -11.4388 -9.70546
O -6.06414 -7.84838 -4.47387
H -6.75994 -7.29117 -4.92696
H -6.28547 -8.8167 -4.58923
O 10.812 -10.4871 -9.61279
H 11.2781 -10.9827 -8.87993
H 11.3587 -10.5366 -10.4487
O -4.02805 -1.02035 11.4265
H -3.78509 -1.03957 12.3963
H -3.42545 -0.3844 10.9445
O -14.8626 -12.0624 10.7051
H -14.507 -11.6407 9.87108
H -14.42 -12.948 10.8456
O 4.57684 -2.95854 -2.06251
H 4.96305 -3.83241 -1.76735
H 4.50289 -2.94662 -3.05966
O -5.75927 1.36938 6.15078
H -5.56352 0.482287 5.73284
H -6.54912 1.78377 5.69873
O 9.82372 -3.49425 -8.69107
H 9.93857 -4.42965 -8.35678
H 9.46655 -2.91887 -7.95534
O 8.62874 6.07557 5.2629
H 8.53347 6.6242 6.09348
H 9.564 5.72758 5.19877
O 11.8358 -2.69891 -12.3329
H 12.5595 -2.05604 -12.0822
H 11.4742 -2.45895 -13.2338
O -12.881 -12.7583 -2.58021
H -12.5225 -13.4573 -3.19901
H -12.9812 -11.895 -3.07478
O 13.4366 -9.43891 -13.7109
H 14.277 -8.97176 -13.4363
H 13.5535 -9.82515 -14.6258
O 12.3945 3.4367 -11.9806
H 12.4531 4.39253 -12.2685
H 12.47 3.38326 -10.985
O -13.0073 -6.19618 -14.0409
H -13.6869 -5.60173 -13.611
H -12.099 -5.78997 -13.9419
O 3.16978 11.8648 -9.09296
H 3.2352 10.9433 -8.71018
H 3.70346 11.9137 -9.93719
O 3.37126 9.07081 -8.50903
H 3.42283 8.89631 -9.4923
H 2.5149 8.70048 -8.14926
O 2.59359 5.12098 -8.27056
H 1.85576 5.77304 -8.09636
H 3.47584 5.57386 -8.14226
O -5.64432 9.37454 5.13744
H -6.11181 8.59363 4.72325
H -6.25849 9.82555 5.78499
O 11.5191 -0.872887 4.72521
H 11.8811 -1.36634 3.93439
H 11.6509 -1.42265 5.55003
O 10.5399 14.7449 -11.3746
H 10.9609 14.35 -10.5581
H 10.2237 14.0104 -11.9749
O -2.14796 7.09057 -10.4974
H -1.71032 7.74747 -11.1113
H -1.81718 6.16978 -10.704
O 11.4945 10.4921 -5.14281
H 12.1786 10.9733 -4.59471
H 11.9371 10.073 -5.93547
O 6.8812 -11.1625 -12.5034
H 6.95669 -10.7462 -11.5973
H 6.56678 -10.477 -13.16
O -0.193075 -10.5427 -4.77131
H -0.473563 -9.68679 -4.33692
H -0.650441 -10.633 -5.65595
O 4.045 -10.704 -12.5631
H 3.9436 -10.5468 -11.5808
H 4.7412 -11.4048 -12.7183
O 0.226905 -2.17924 -3.68632
H 0.0407037 -2.25679 -2.70691
H 1.21158 -2.25093 -3.84509
O 8.90637 14.2454 -7.33315
H 9.28306 13.3346 -7.50179
H 8.60637 14.6474 -8.19821
O 12.6804 2.73138 -9.39683
H 13.1118 2.87939 -8.50693
H 12.0163 1.98719 -9.32563
O -1.44936 -3.44522 4.56094
H -1.42609 -3.96558 3.70735
H -0.620167 -3.63184 5.08776
O 6.27211 13.3608 -9.6809
H 5.68563 12.9333 -10.3688
H 6.69636 12.6519 -9.1175
O -2.68547 -12.7974 0.925293
H -1.82863 -13.1992 0.602352
H -2.65283 -11.8048 0.808795
O -8.92001 2.96557 11.86
H -7.99307 2.75413 12.1698
H -9.51186 3.10943 12.653
O -4.50931 6.88077 -7.16103
H -3.79655 6.18253 -7.09499
H -5.23624 6.5587 -7.76747
O -6.5844 6.76304 4.33042
H -6.50129 6.69044 5.32428
H -7.4411 6.33972 4.03579
O -11.0416 6.19882 -11.5461
H -11.1129 7.0737 -11.0671
H -11.3399 5.46164 -10.9398
O -6.38197 -4.39248 -1.37693
H -5.50212 -4.17959 -1.80175
H -6.2863 -4.36777 -0.381857
O -12.3803 10.8998 13.3678
H -12.161 10.4824 14.2496
H -13.344 11.1663 13.3556
O -6.52965 13.6704 9.63459
H -6.38637 13.7798 8.65101
H -7.50951 13.6911 9.833
O -6.59798 -11.009 7.68671
H -5.89579 -11.62 7.32122
H -6.81637 -11.276 8.62531
O -3.02115 10.2712 9.94092
H -3.93983 10.3672 9.55786
H -2.34419 10.533 9.25308
O 6.88337 -1.39479 9.84148
H 6.75637 -2.03789 10.5966
H 7.85582 -1.18331 9.74377
O -5.48136 0.385977 -13.252
H -5.15654 -0.554477 -13.3518
H -6.46851 0.416064 -13.4087
O -7.29955 4.14622 -6.35826
H -7.90868 3.36813 -6.51145
H -6.60112 3.89581 -5.68787
O 9.82369 -13.5125 -2.3719
H 9.99029 -14.4623 -2.10733
H 8.99353 -13.1821 -1.92287
O -0.148785 -2.80121 -13.0721
H -0.494328 -2.80721 -14.0104
H -0.869542 -2.48853 -12.4535
O 0.327934 0.597755 9.19769
H 0.40279 1.56607 8.95959
H 1.13423 0.319572 9.71964
O -6.62728 5.84344 -12.9154
H -6.81077 6.1432 -13.8515
H -5.64434 5.70284 -12.797
O -5.61305 -1.09144 5.20481
H -4.7824 -1.41488 4.75167
H -6.39477 -1.63124 4.89262
O 11.4133 3.52624 14.7449
H 10.6382 3.48371 -14.4809
H 11.8124 4.44282 14.7688
O -0.956238 -13.7705 6.74183
H -0.857241 -12.7756 6.75669
H -1.64381 -14.0471 7.41315
O 8.2578 0.260818 -12.5628
H 9.23689 0.119847 -12.7092
H 8.03478 0.0811857 -11.6047
O -1.63325 -0.115368 11.0237
H -0.922138 0.141725 10.3693
H -1.23836 -0.169942 11.9407
O 5.44284 8.58922 7.68579
H 5.69667 8.27003 6.77276
H 4.50648 8.9397 7.66799
O 4.9924 0.776194 4.02705
H 4.92816 0.0197676 3.37619
H 4.84454 1.64146 3.54812
O -5.97723 8.86042 12.9903
H -5.07091 8.70186 12.5987
H -5.98425 9.73785 13.4698
O -9.3425 8.41887 -6.64323
H -9.21279 8.50226 -5.65523
H -10.2621 8.72771 -6.8859
O -4.52509 -14.8468 13.9189
H -4.62219 14.5896 14.8213
H -5.43057 -14.6411 13.5478
O -11.8202 10.0253 -14.0376
H -12.3538 10.0522 -13.1923
H -10.888 10.3369 -13.8534
O 1.28865 -10.0103 5.78131
H 2.08432 -10.614 5.73225
H 0.571374 -10.3544 5.17545
O 9.28721 -8.02496 9.99401
H 9.81588 -8.83845 10.2362
H 8.6702 -8.24151 9.23748
O -3.59462 -2.3503 8.97772
H -3.69398 -2.32563 9.97243
H -2.77459 -1.84347 8.712
O -12.5477 7.76601 -1.19198
H -12.7067 8.62998 -1.66971
H -11.755 7.85916 -0.589572
O -8.74905 -2.42519 6.00633
H -8.73834 -2.90523 5.12919
H -9.6281 -1.96293 6.12259
O 3.09589 -9.641 -6.4738
H 3.86561 -10.0535 -5.98667
H 2.33752 -10.2917 -6.51075
O -11.9577 0.53701 4.66128
H -11.8363 1.34439 5.23862
H -12.1723 -0.253591 5.23472
O 5.21447 -10.9875 14.3061
H 5.22078 -11.9013 14.7122
H 5.76055 -10.3683 14.8703
O 12.1952 -2.83132 -9.6957
H 11.4454 -3.20401 -9.14913
H 12.0893 -3.11957 -10.6473
O 1.3092 4.10533 1.01534
H 0.592793 3.74591 0.417427
H 0.891646 4.62494 1.76071
O 9.28283 -12.2668 -13.2829
H 9.67603 -12.7038 -12.4739
H 8.40072 -11.8597 -13.0462
O 8.48202 1.29717 12.4706
H 8.78781 2.24923 12.4725
H 9.21717 0.711653 12.1291
O -13.2589 -0.587452 -4.88124
H -13.5494 -1.54428 -4.87595
H -13.7922 -0.073487 -4.20945
O 12.2522 11.107 11.9531
H 12.8448 10.9237 11.1688
H 12.5129 10.5127 12.7139
O -0.289274 -6.34299 -5.42171
H -0.132553 -6.45731 -6.40267
H -0.874365 -5.54672 -5.26822
O 14.0574 2.11509 4.35825
H 13.1963 2.14983 4.86531
H 14.1663 1.20977 3.94778
O -0.55647 5.70479 -3.63629
H -1.35512 6.189 -3.27903
H -0.513558 5.81948 -4.62873
O 11.3668 -10.1438 10.8188
H 11.6879 -10.6716 10.0326
H 10.7314 -10.6987 11.3557
O -5.02514 -1.68586 -9.30142
H -5.34934 -2.62769 -9.38957
H -5.72631 -1.05887 -9.64079
O -4.81157 6.73679 9.9456
H -4.36823 6.55579 9.06776
H -5.68777 6.25629 9.98184
O 3.79524 5.39341 -14.8736
H 3.02236 4.82443 -14.5928
H 3.61324 5.78033 14.0786
O 12.2622 -1.12905 -2.34481
H 11.7851 -1.4612 -3.15843
H 12.3829 -1.88238 -1.69838
O -6.45857 14.8786 6.8536
H -7.33189 -14.5144 6.70279
H -6.2191 14.3462 6.04175
O -2.45504 -0.869758 -9.00435
H -3.41727 -1.12878 -8.92096
H -1.88688 -1.53991 -8.52682
O 1.26587 -12.1752 -7.36052
H 1.27136 -12.9979 -7.92887
H 0.327873 -11.9685 -7.0824
O 3.50553 0.45375 6.48364
H 3.99179 0.363263 5.61457
H 4.04923 1.00823 7.11362
O 2.94643 5.62574 -0.504415
H 2.44639 5.04508 0.138017
H 2.39572 5.76314 -1.32768
O 11.5831 13.5508 -8.9672
H 12.3021 12.9072 -8.70498
H 10.7433 13.0475 -9.17043
O 1.73181 6.84698 -12.375
H 1.82661 6.2566 -11.5735
H 2.63588 7.03721 -12.7577
O 5.15883 -6.79255 14.5156
H 4.98303 -5.98697 -14.7748
H 5.8887 -6.58878 13.8632
O -0.542575 -14.0725 -0.242679
H -0.110108 -13.195 -0.449935
H -0.0874389 -14.7984 -0.758247
O 12.7791 -13.5442 13.6344
H 12.9923 -14.4734 13.3327
H 13.4142 -12.901 13.2067
O -14.265 -5.85951 10.6161
H -14.4188 -4.9386 10.9742
H 14.7857 -6.15653 10.1033
O -1.62344 -14.3738 14.058
H -1.55821 -14.2476 -14.8083
H -2.55646 -14.6407 13.8168
O -11.5583 -0.387196 11.0814
H -11.924 -0.676083 11.9661
H -11.1263 -1.1671 10.6286
O 2.10415 9.38558 9.64371
H 2.71256 9.90321 10.2452
H 1.39685 8.93762 10.1905
O -0.743683 8.17732 7.23024
H -0.486565 7.28251 7.59512
H -1.69298 8.14937 6.91721
O 8.01797 8.50614 10.0654
H 7.66719 8.16928 10.9391
H 7.52083 9.3332 9.80322
O -13.4802 -13.3132 -12.957
H -13.7217 -12.3713 -12.7235
H -13.946 -13.9411 -12.3335
O 3.08023 2.23952 -13.173
H 3.01161 2.02386 -12.199
H 3.7175 1.60531 -13.6107
O -14.9078 -9.35846 -1.79884
H 13.9797 -9.59052 -1.71025
H -14.5479 -9.74794 -2.64662
O 10.5702 8.35201 11.3166
H 9.77514 8.07505 10.777
H 10.2647 8.84462 12.1315
O -14.3514 -7.81685 -12.5691
H -14.7484 -7.46454 -11.7217
H -13.7188 -7.14091 -12.9471
O -4.01833 5.18578 -12.5521
H -3.23406 5.62664 -12.1157
H -3.8005 4.22803 -12.7397
O -4.62953 -12.8286 7.18998
H -4.03606 -13.3036 7.83967
H -5.27958 -13.4782 6.79583
O -5.43137 -6.16951 14.8165
H -5.60948 -5.35773 14.2604
H -5.08641 -5.89054 -14.1435
O 9.37252 12.0571 3.49069
H 10.0871 11.3601 3.55029
H 9.32917 12.5644 4.35131
O -2.12124 4.93439 -8.07095
H -1.45048 4.7526 -8.78996
H -2.6836 4.12031 -7.92621
O -5.24536 -8.72274 7.4047
H -5.79513 -9.55126 7.29863
H -4.43811 -8.78094 6.81743
O 6.26395 0.0939664 -5.35835
H 5.98573 -0.621086 -5.99961
H 5.49237 0.706479 -5.18683
O 4.62314 -8.66218 6.22051
H 4.49222 -7.72705 5.89136
H 4.3974 -8.70769 7.19359
O 14.5819 7.05114 -9.02122
H -14.9236 7.58408 -8.25119
H 14.3723 6.12231 -8.71578
O -12.5167 -4.09894 -9.76205
H -13.3108 -4.65555 -9.51831
H -12.5321 -3.24812 -9.23689
O 6.9083 13.7092 -1.19989
H 6.25945 13.6859 -1.9604
H 7.35167 14.6049 -1.16736
O -3.60061 3.70511 -1.65364
H -4.26928 3.30345 -1.02796
H -3.78965 4.68107 -1.76183
O 1.08633 -7.35847 1.71433
H 1.1063 -6.51249 1.18155
H 0.757373 -7.16287 2.63815
O -0.414805 9.79671 -5.30173
H -0.537199 10.0804 -4.35069
H 0.523417 9.98952 -5.58894
O -12.0062 13.3698 13.1348
H -12.0637 14.0237 13.8892
H -11.9364 12.4424 13.5021
O -9.5976 -2.37934 -14.727
H -10.336 -1.74306 -14.5037
H -9.77916 -2.80231 14.2414
O -14.5851 10.7281 5.06168
H -14.3712 10.4153 5.98707
H -14.4804 9.968 4.42041
O 0.987155 11.6246 -0.135787
H 0.927173 10.6566 -0.379135
H 1.76532 11.7669 0.475885
O -6.61496 -2.70367 -11.975
H -6.47072 -3.46088 -11.3381
H -7.04472 -1.94007 -11.4932
O 12.375 -14.6585 4.73605
H 12.2573 -14.279 3.81842
H 12.9681 -14.0574 5.27172
O 11.5032 10.4472 3.45086
H 12.0266 11.2497 3.73705
H 12.0035 9.96101 2.7345
O -11.1004 9.40365 1.08786
H -11.4893 9.85072 1.89334
H -10.7451 10.0969 0.460872
O -2.88011 -0.790813 -4.13265
H -2.25911 -1.25068 -4.76732
H -2.68691 0.190304 -4.12937
O -13.3249 -14.3493 -5.95377
H -14.2522 -14.7123 -5.86269
H -12.7272 -14.79 -5.28408
O -14.7649 -4.90043 -8.29434
H -14.9271 -3.99268 -7.90751
H 14.8269 -5.5984 -7.62883
O -11.3222 -3.39364 1.17063
H -12.2082 -3.84984 1.25279
H -11.1268 -3.21621 0.206117
O 8.15356 -1.8703 -0.443552
H 8.38331 -1.34258 -1.26126
H 7.17275 -1.7959 -0.263532
O 5.97236 -9.04352 3.17462
H 5.92037 -8.91304 4.16467
H 6.90025 -8.84315 2.8603
O 13.0009 12.0975 -3.48677
H 12.5605 12.9421 -3.79121
H 12.8863 11.9995 -2.49824
O 11.8132 -14.619 8.10217
H 11.2713 -13.8152 8.34747
H 11.4483 14.4332 8.57165
O 9.65859 -5.06623 2.36565
H 8.8748 -4.79195 1.80856
H 10.2355 -4.2693 2.54465
O 10.0662 -4.90074 -5.24355
H 10.326 -5.52368 -4.50571
H 10.6127 -5.101 -6.0567
O 4.60228 -11.2447 -4.92233
H 4.86005 -11.0577 -3.97442
H 3.8543 -11.9081 -4.93968
O 12.4106 9.27589 1.13619
H 13.3883 9.48349 1.16626
H 12.2801 8.2845 1.14209
O 7.68404 -6.61852 13.3461
H 8.08501 -7.44362 13.7441
H 8.25757 -5.82958 13.5665
O -2.24452 -11.1128 13.7399
H -2.62203 -12.0182 13.5456
H -2.98667 -10.4863 13.9779
O -14.6906 -14.7066 -11.0908
H 14.2895 -14.2588 -11.2694
H -14.6213 -14.9275 -10.118
O -3.36057 2.61309 10.7143
H -3.98203 2.17473 10.065
H -2.96001 1.91923 11.3127
O 6.69683 9.41141 -0.668454
H 6.87991 10.0256 0.0990949
H 5.7203 9.19841 -0.699308
O 10.6874 -5.36504 -13.1456
H 9.75034 -5.16226 -12.8616
H 11.2882 -4.61343 -12.8735
O -9.4905 -2.41218 12.1728
H -10.3453 -2.92785 12.2312
H -9.05926 -2.58098 11.2866
O 10.2676 0.832706 -4.17435
H 10.9033 0.450822 -3.50355
H 9.45414 0.25378 -4.2299
O -2.73471 10.3308 -10.6965
H -2.12824 9.67298 -11.1431
H -3.64022 9.92305 -10.5793
O -0.617012 -4.70453 2.24752
H -0.624953 -4.06894 1.47559
H -1.03803 -5.5687 1.97207
O 8.93064 10.292 -6.51519
H 9.7906 10.2256 -6.00924
H 8.65431 9.38183 -6.82374
O -13.408 14.4643 6.07186
H -14.21 14.1764 6.59514
H -12.5824 14.307 6.61374
O -7.95774 -6.72051 -9.9287
H -7.01237 -6.45715 -10.1207
H -8.57472 -5.9971 -10.2385
O -0.390617 5.32299 -13.6553
H 0.3858 5.75279 -13.1944
H -0.954694 6.02775 -14.0854
O -6.49306 1.64503 12.8607
H -5.56381 1.31084 13.018
H -7.1433 1.06542 13.3517
O -11.3475 -4.34232 -4.89645
H -11.7554 -3.43452 -4.79933
H -11.9381 -5.02146 -4.4607
O 6.94345 -8.42589 8.11576
H 6.15273 -8.93144 8.4609
H 6.63141 -7.68204 7.52479
O -14.1833 -5.67904 -3.21959
H -14.7532 -6.42437 -3.56535
H -14.3712 -5.53918 -2.24745
O 4.57514 -11.0843 4.99767
H 4.19369 -11.054 4.07382
H 4.58527 -10.1623 5.38457
O -4.45882 12.541 -11.3729
H -3.71751 11.8821 -11.2451
H -5.28317 12.2081 -10.9151
O 2.74057 -11.6499 3.15596
H 2.60753 -12.2496 3.94497
H 2.31231 -12.0591 2.3503
O 8.46599 9.8243 6.11608
H 8.22692 9.04903 6.70066
H 9.19351 9.55431 5.48541
O -6.31731 -2.38488 -14.7913
H -6.52252 -3.07398 14.3699
H -6.64252 -2.70257 -13.9006
O -7.77452 3.23118 2.1414
H -7.20882 4.04495 2.00841
H -7.49455 2.76406 2.98006
O 7.88381 -7.12345 -10.0884
H 7.88099 -8.12258 -10.0476
H 7.02722 -6.80398 -10.4935
O -4.44842 -14.553 10.9584
H -5.15221 14.6822 10.6135
H -4.50001 -14.512 11.9562
O 9.41175 -11.9887 11.8155
H 8.44825 -11.7215 11.8016
H 9.7465 -11.9798 12.7578
O -14.6691 13.1469 -13.1709
H 14.2421 12.8434 -13.2922
H -14.6296 13.8306 -12.4422
O 1.58873 3.85294 -14.6692
H 2.02561 3.27312 -13.9815
H 0.685981 4.13383 -14.3435
O 14.6265 -12.1632 -9.43984
H 13.8748 -12.6854 -9.03724
H 14.3845 -11.8955 -10.3724
O -5.58803 4.35789 12.7701
H -4.67516 4.6485 13.0567
H -5.58857 3.37087 12.6097
O 11.203 0.933035 11.1427
H 11.6219 0.192149 10.6178
H 11.4014 1.80797 10.7011
O 4.96851 -12.4896 1.28224
H 5.4421 -11.8868 0.640184
H 4.24441 -11.9794 1.74625
O -3.54651 14.7779 -3.90796
H -3.32868 -14.6093 -4.76384
H -3.50253 -14.427 -3.15047
O -0.492997 -5.12161 -10.4351
H -1.38708 -4.76934 -10.7116
H 0.0494315 -5.32981 -11.249
O -7.5453 9.7901 -13.3858
H -7.78613 9.51319 -14.316
H -6.55861 9.69448 -13.2545
O 2.64245 -13.2498 -10.8943
H 2.24321 -13.6141 -10.0531
H 3.24745 -13.9348 -11.3001
O 14.4848 5.82865 9.55082
H -14.9169 4.99098 9.24796
H 13.4999 5.66874 9.61565
O -0.749545 2.04988 -7.31244
H -0.210283 1.45802 -6.71341
H -1.61608 2.2745 -6.86681
O 2.85094 -9.21878 -0.271514
H 2.15164 -9.93295 -0.241893
H 2.47766 -8.37098 0.105078
O -9.70571 8.29727 6.27035
H -10.4183 8.95722 6.03237
H -9.59638 7.64107 5.52377
O -1.31818 -14.6749 -12.7943
H -1.0601 14.7166 -11.9473
H -2.17885 -14.1848 -12.6567
O -8.94639 12.6702 3.84436
H -9.27563 13.4139 3.26258
H -8.03606 12.3882 3.54156
O -3.28685 8.83306 -4.85684
H -2.37361 9.17939 -5.07125
H -3.97084 9.36592 -5.355
O 2.42065 3.7788 9.84111
H 2.03172 4.21028 9.02718
H 2.96877 2.98782 9.56937
O 9.42017 11.7259 -3.65334
H 10.0728 11.3814 -4.32812
H 9.82401 12.4983 -3.16319
O -4.84656 6.7063 -1.22408
H -5.56797 6.36725 -1.82785
H -5.25695 7.08684 -0.395409
O 13.6994 1.71769 -13.5462
H 13.2748 2.30609 -12.8582
H 13.7443 2.20401 -14.4188
O -3.48621 2.69565 -6.71002
H -4.28172 2.22857 -7.09593
H -3.57372 2.73591 -5.71471
O -1.66077 1.92148 -9.97167
H -0.89978 1.40714 -10.367
H -1.5419 1.98375 -8.98075
O 8.98911 -11.0736 -3.35534
H 9.0602 -10.7147 -4.28596
H 9.5542 -11.8943 -3.27052
O -8.38732 -8.96889 13.3867
H -8.03531 -9.70184 12.8046
H -8.39291 -9.27328 14.3392
O -1.33437 -3.35926 -7.70086
H -1.13626 -3.63337 -6.75983
H -0.477202 -3.17597 -8.1821
O 6.73023 1.73966 -7.44974
H 7.3824 1.33011 -8.08761
H 6.53179 1.09192 -6.71424
O 12.6487 12.52 4.63273
H 13.6201 12.2824 4.63421
H 12.5455 13.5019 4.79136
O 12.5045 -10.9711 -11.661
H 12.6864 -11.9383 -11.8382
H 12.9266 -10.4158 -12.3774
O -8.43925 -4.05001 -3.18216
H -8.89948 -4.90525 -2.94406
H -7.68068 -3.89251 -2.54994
O 14.3695 13.9349 7.88339
H 14.4005 12.9893 8.20705
H 13.448 14.3012 8.01222
O -7.9945 1.68924 4.40246
H -8.53904 0.991229 3.93751
H -8.60094 2.39151 4.77525
O 13.6552 -9.93558 6.98784
H 13.1573 -10.757 6.70976
H 13.0041 -9.20646 7.19851
O 10.4751 12.97 1.10176
H 10.1093 12.5975 1.9546
H 11.4692 12.8624 1.09034
O -14.819 -4.55925 -12.6683
H 14.355 -5.17331 -12.2714
H 14.5826 -3.89502 -13.2616
O -9.57405 2.83926 -1.71537
H -10.2474 2.9896 -2.43919
H -10.0348 2.4929 -0.898244
O -4.7638 10.4571 -6.24197
H -5.64649 10.083 -6.52628
H -4.37716 11.0015 -6.98634
O -10.3548 -12.0125 14.8367
H -9.80555 -12.5708 -14.3977
H -10.7417 -11.2383 -14.5185
O -9.66508 -14.5041 11.3082
H -9.4262 -13.5374 11.4002
H -10.1288 -14.6511 10.4345
O 13.1479 14.404 -0.962146
H 13.3386 13.8356 -0.161853
H 13.8012 -14.696 -0.997284
O 12.5613 -8.36352 13.1939
H 12.2537 -8.26328 14.1401
H 11.8175 -8.73671 12.6394
O -12.4732 -9.16604 12.7127
H -12.1942 -8.87854 11.7965
H -13.443 -9.40977 12.7046
O 6.314 1.01993 -2.16945
H 7.00938 1.72533 -2.30649
H 6.52882 0.225362 -2.73729
O -8.99909 -12.6885 5.14665
H -9.20495 -12.5153 6.10976
H -9.78159 -12.4197 4.58504
O -7.4285 -5.38147 -5.86294
H -7.48846 -4.80481 -5.04821
H -8.26479 -5.28413 -6.40246
O 10.7533 9.12179 14.635
H 10.1169 9.77909 14.2313
H 11.6911 9.38095 14.4043
O -0.968169 8.70024 -12.2469
H -0.720092 8.20372 -13.0787
H -0.199244 9.27 -11.957
O 3.25445 1.7579 -10.5665
H 4.08444 2.19083 -10.2149
H 2.45201 2.21421 -10.182
O 6.22011 3.98821 7.7574
H 6.5648 3.9087 6.8221
H 6.97842 3.88902 8.40164
O -8.87622 -9.68616 -13.7848
H -8.93313 -9.6053 -12.7897
H -9.67141 -9.24531 -14.201
O -7.04939 1.35348 -6.12991
H -7.83175 1.43753 -6.74698
H -6.58133 0.486604 -6.30131
O -10.9967 7.22125 -14.3065
H -11.3452 6.61364 -13.5928
H -11.0636 8.17017 -13.9982
O 0.117907 -0.380749 -5.71151
H 0.316426 -1.05097 -4.99645
H 0.779826 -0.480037 -6.45443
O -1.62677 -3.77405 -4.76303
H -2.48012 -3.77329 -4.24176
H -0.976936 -3.14296 -4.3395
O -5.7952 -9.33225 2.59352
H -6.41725 -9.295 1.81148
H -5.44975 -10.2645 2.70051
O 6.55139 9.66079 -11.488
H 6.57152 9.37366 -12.4456
H 7.48581 9.71148 -11.1355
O 7.55032 0.634549 4.86879
H 7.57962 -0.306701 5.20512
H 6.67732 0.797192 4.40906
O 14.7658 -10.3693 12.7437
H 14.6592 -10.9782 11.9578
H 14.0408 -9.68064 12.7325
O 9.87909 -2.58885 11.2998
H 10.7269 -2.83174 11.771
H 10.0914 -2.26257 10.3787
O 8.60891 -2.19267 14.7402
H 8.00646 -2.86401 -14.6844
H 8.10172 -1.34668 14.5759
O -11.0267 13.7444 -7.0141
H -11.7527 14.4145 -6.8595
H -10.3173 14.1488 -7.59119
O 12.0005 4.82284 -7.08789
H 12.9867 4.72767 -6.95285
H 11.5241 4.5917 -6.23963
O -7.38934 11.5809 -1.46824
H -6.71377 12.312 -1.37321
H -7.41577 11.2731 -2.41927
O -0.20031 -14.6254 -4.15852
H -0.370072 -13.7378 -3.73046
H 0.649108 14.8444 -3.79913
O 11.123 -11.8938 -7.08793
H 11.8128 -11.6682 -6.39999
H 10.2451 -12.0578 -6.63829
O 11.008 2.8995 2.12284
H 11.3688 2.44335 2.93625
H 11.7222 3.46833 1.7152
O 8.82505 -14.6348 1.23459
H 8.06209 -14.6453 1.88089
H 9.26175 14.3219 1.21981
O -1.76849 -8.03991 -11.404
H -1.85551 -8.37396 -12.3425
H -1.02637 -7.37144 -11.3556
O 14.2051 3.27179 7.9376
H 14.6751 2.73939 8.64154
H 14.8551 3.52388 7.22075
O -13.496 -1.84583 3.65016
H -12.5259 -1.99246 3.84378
H -14.0182 -1.90411 4.50093
O -7.7617 -0.45793 13.7002
H -8.40658 -0.973947 13.1365
H -7.23472 -1.09055 14.2677
O 4.87089 -1.24811 2.3483
H 5.32991 -2.07916 2.66229
H 4.90781 -1.20385 1.34999
O -14.724 10.2492 1.12774
H -14.3515 9.62434 1.81381
H -13.9761 10.637 0.58904
O 3.80136 14.3168 6.22617
H 4.07621 13.3881 6.47493
H 4.04173 14.4911 5.2713
O -14.7174 -7.44937 -6.76313
H -13.7688 -7.63296 -7.02056
H -14.8659 -7.73058 -5.81508
O 12.0839 -10.2327 -1.87491
H 11.2177 -9.8203 -1.59306
H 12.0471 -11.2207 -1.72498
O 3.56128 -2.55788 7.04384
H 3.21917 -1.85664 6.41842
H 4.53624 -2.40976 7.20952
O -9.26021 -1.50893 -3.36593
H -8.40474 -1.03431 -3.57292
H -9.07836 -2.48418 -3.24041
O -10.7173 1.36015 -12.2275
H -10.5826 2.32727 -12.012
H -10.5203 0.80759 -11.4177
O -14.7991 6.49575 -4.12025
H -14.1584 5.83732 -3.72543
H 14.1738 6.41996 -3.65751
O -11.5023 10.5565 5.89497
H -10.8658 11.3072 6.0722
H -12.2862 10.6317 6.51117
O 13.6671 13.8145 12.2415
H 12.9484 13.1454 12.0526
H 14.0413 14.1543 11.3787
O 7.54727 -4.19295 -13.3908
H 7.99721 -3.86274 -12.5611
H 6.55583 -4.17594 -13.2616
O 5.64877 -1.04279 -0.272607
H 5.58852 -0.0830113 -0.546701
H 5.31208 -1.62297 -1.0142
O -10.3905 -0.0462182 -9.60807
H -10.0184 -0.79002 -10.1632
H -11.2807 -0.316966 -9.24164
O 14.3691 -0.205525 14.1969
H 13.5262 0.181996 13.8236
H 14.6791 0.351085 -14.8886
O 13.6995 11.7712 -8.52834
H 13.3741 10.9061 -8.14659
H 14.0262 11.6217 -9.46155
O 1.78917 8.94916 5.28874
H 0.934929 9.41044 5.04909
H 1.66562 7.95959 5.21517
O 3.82497 14.576 -12.7299
H 2.89832 14.2237 -12.8605
H 4.42369 13.8349 -12.4263
O -2.32516 -9.90433 -0.258407
H -2.84064 -9.68919 -1.08782
H -1.34932 -9.76582 -0.42712
O -3.43474 11.1852 -13.902
H -3.86664 10.5476 -13.2642
H -3.49011 12.1134 -13.5342
O 11.4104 14.2123 -14.7936
H 11.7696 14.5644 14.1983
H 10.471 14.5314 -14.6685
O -10.2881 2.45422 1.03552
H -9.44904 2.30024 1.55719
H -10.9875 1.80259 1.32917
O 5.81693 6.69453 -13.4504
H 6.1247 7.63028 -13.6225
H 5.2033 6.40513 -14.185
O -6.13788 -9.0397 -13.2129
H -5.64358 -8.72581 -12.4023
H -7.05203 -9.34633 -12.9479
O -2.55899 -4.00201 -0.381269
H -3.14067 -4.23204 0.398903
H -2.19896 -4.84176 -0.787635
O -7.13176 13.9436 -6.33972
H -6.96322 14.7125 -5.72302
H -7.4129 14.2896 -7.23478
O -13.9999 12.0652 9.55125
H -13.0293 11.9802 9.77606
H -14.2629 13.0298 9.56847
O -11.4638 10.9919 3.19007
H -11.7837 10.6699 4.08106
H -10.5248 11.3255 3.27375
O -11.4757 -11.3614 -11.1818
H -12.258 -11.0921 -11.7434
H -10.6665 -10.8496 -11.4701
O -2.62236 -8.8503 3.12776
H -1.95859 -8.36341 2.56007
H -3.51077 -8.85873 2.66885
O -7.60527 14.2722 -11.0796
H -8.10223 14.4076 -11.9367
H -7.543 13.294 -10.8814
O -5.3247 11.1203 9.04758
H -5.12133 11.4747 8.1349
H -5.35161 11.8771 9.70061
O -4.15321 13.7673 -7.35327
H -5.11409 13.5543 -7.17643
H -3.75125 13.0481 -7.92002
O -4.9861 9.11152 -12.8561
H -4.7016 8.36757 -13.4607
H -5.01647 8.78126 -11.9127
O 10.1839 -6.85419 5.57847
H 10.7013 -7.63433 5.22702
H 9.21479 -6.97224 5.36197
O 1.42047 -8.04828 7.84416
H 1.48673 -8.82312 7.21554
H 0.622988 -7.49369 7.6067
O -0.0941778 14.4367 2.18605
H -0.0594366 -14.8881 1.33963
H -0.728337 13.6718 2.07362
O 10.6686 13.378 9.56692
H 10.0036 12.8095 9.0826
H 10.5756 13.2337 10.552
O 5.20039 5.85795 -8.45138
H 6.05168 5.51412 -8.84764
H 5.39791 6.64877 -7.87214
O -0.360862 -2.48713 -1.09777
H -1.1749 -2.93017 -0.722273
H -0.391622 -1.50804 -0.896857
O 3.04162 13.6831 9.13919
H 2.22561 13.3619 8.65865
H 3.6681 14.1073 8.48537
O 3.83836 -5.64281 8.1331
H 3.09432 -6.30856 8.0773
H 3.48318 -4.77418 8.47843
O 7.80109 4.72887 -9.50758
H 8.55822 4.39853 -8.94406
H 8.13653 4.94089 -10.4254
O -11.6049 13.8242 -12.2962
H -11.003 13.0259 -12.3163
H -12.4064 13.6518 -12.8688
O 10.9708 -7.43316 0.308504
H 10.9164 -6.59025 0.843735
H 10.0517 -7.70988 0.0281238
O -6.27414 -1.02235 -1.2723
H -5.80576 -0.669333 -2.08219
H -6.66342 -0.260929 -0.754011
O 0.109887 -5.72884 -13.0351
H -0.820475 -5.90973 -13.3539
H 0.532249 -5.03366 -13.6167
O -8.78981 -9.18695 -11.0709
H -8.54834 -9.95489 -10.4777
H -8.28378 -8.37316 -10.7852
O 4.41591 -6.95721 -6.21102
H 4.03203 -7.87371 -6.09877
H 5.34568 -7.02725 -6.57232
O 2.28523 -2.39666 9.9512
H 1.44786 -2.88633 9.70837
H 2.78952 -2.16578 9.11914
O 3.75092 8.25814 -0.976524
H 3.59393 7.29034 -1.1731
H 3.22617 8.52335 -0.16768
O -1.7688 13.2034 -2.29596
H -1.00785 13.8418 -2.18029
H -2.46599 13.6183 -2.88052
O 4.63661 -12.2918 8.90635
H 4.18688 -12.7261 9.68676
H 4.20761 -12.6035 8.05858
O -6.22957 11.8305 3.82576
H -5.78288 12.7197 3.72715
H -5.56507 11.158 4.1515
O 10.9635 3.671 -4.62089
H 11.0265 2.67391 -4.66312
H 10.8237 3.95627 -3.67274
O -2.87032 -14.4984 8.63329
H -3.16264 -14.5864 9.58552
H -2.91958 14.4649 8.18568
O 13.235 -11.6921 -5.21084
H 14.1285 -11.4675 -5.59957
H 13.3415 -12.4117 -4.52464
O -2.09753 -6.45432 -14.4901
H -2.59298 -6.48272 14.4979
H -2.69997 -6.10215 -13.7739
O 11.5406 -9.01436 3.7806
H 11.2788 -9.94515 4.03559
H 10.7831 -8.57561 3.29731
O -8.74639 -2.08757 -0.0488845
H -9.37103 -1.72587 -0.740924
H -7.80254 -1.96844 -0.356936
O 7.90945 -3.8326 8.36746
H 8.39663 -4.26954 9.12355
H 7.43066 -3.02169 8.70379
O 7.87659 -10.0703 -9.98382
H 7.49803 -10.6531 -9.26482
H 8.86377 -10.2168 -10.0464
O 9.55338 -0.672629 9.22706
H 9.84022 -0.617985 8.27068
H 9.85171 0.149422 9.71199
O -8.51427 -11.868 1.22087
H -8.74248 -12.5426 1.92279
H -9.15343 -11.1009 1.27552
O 9.293 12.1436 -9.26946
H 9.35709 12.4003 -10.2338
H 8.53911 11.4985 -9.14569
O 4.60673 11.6746 -11.4179
H 4.2542 11.7258 -12.3522
H 5.15843 10.847 -11.3147
O 7.79218 -12.7608 -0.624808
H 7.74581 -11.9612 -0.0261355
H 8.12604 -13.5473 -0.105243
O -0.731741 -5.82488 -1.26124
H -0.629761 -6.51308 -1.97951
H 0.142364 -5.70124 -0.791579
O 8.0491 3.44624 5.26314
H 8.14943 4.40779 5.00765
H 8.43527 2.86831 4.54425
O -1.34743 1.24248 -13.4131
H -0.595529 1.25517 -12.754
H -0.994788 0.998187 -14.3164
O 8.71112 11.5644 -0.604267