2611
Atoms. Timestep: 8000000
O 4.64578 -11.1856 -9.92809
H 4.52116 -11.3929 -10.8984
H 3.77072 -11.2766 -9.45273
O 14.194 12.126 -2.92179
H 13.326 12.5025 -2.598
H 14.8357 12.0627 -2.15743
O -2.61216 0.838618 8.94582
H -1.96976 0.624311 9.6816
H -3.11131 0.0114477 8.6877
O -10.7705 10.3333 4.64224
H -10.9727 10.9746 5.38242
H -11.2257 9.46147 4.82293
O 13.7566 4.71299 -5.89447
H 13.2332 4.36627 -5.11616
H 14.7268 4.7477 -5.65475
O 14.5491 -8.36615 -7.75319
H 14.6653 -8.80015 -6.85983
H 13.8651 -7.63986 -7.68443
O 3.12657 -12.3113 3.315
H 3.24256 -13.3009 3.22927
H 3.9603 -11.8504 3.01096
O -12.3873 -5.86472 7.0425
H -11.7385 -6.28084 6.40532
H -13.3163 -5.9681 6.68727
O 14.9136 -11.3092 14.163
H -14.9228 -10.3841 14.5007
H 13.9381 -11.4162 13.9706
O 10.4673 -4.03062 -12.955
H 10.3591 -3.03666 -12.9372
H 10.2691 -4.4038 -12.0487
O -12.4073 13.5855 -10.1131
H -12.1535 12.8214 -9.52019
H -11.702 13.7153 -10.81
O 5.80413 -5.47171 7.89605
H 5.03466 -5.9984 8.25731
H 6.56409 -5.5039 8.54521
O -3.45545 -10.4465 10.0851
H -3.29872 -10.603 9.11
H -4.4371 -10.4747 10.2737
O 1.58872 -3.68385 -7.20905
H 1.5193 -3.52747 -6.2238
H 2.10547 -4.52321 -7.37771
O 2.48119 14.2966 -8.60695
H 2.80046 13.4388 -8.20416
H 2.41867 14.1957 -9.59987
O 14.132 4.00041 -14.4572
H 14.3222 3.2405 -13.8356
H 13.8698 4.80688 -13.9273
O 10.6111 11.1649 -7.2578
H 10.834 10.2089 -7.4487
H 11.4518 11.6715 -7.06664
O 3.68397 3.07591 14.2792
H 2.96994 3.46706 13.6985
H 3.32369 2.27427 14.7562
O -11.7202 -11.924 0.708858
H -12.4445 -11.7142 0.0521603
H -11.5015 -12.8988 0.663689
O -3.94855 6.986 -12.0201
H -3.70913 7.24898 -11.0855
H -4.87831 7.2921 -12.2247
O 7.71065 12.9973 15.0044
H 7.28329 13.129 -14.1112
H 8.59485 13.464 14.9855
O 2.20484 -2.1473 9.37053
H 1.35605 -2.50794 8.98392
H 2.2036 -1.14948 9.30459
O -11.3909 -2.57316 7.26102
H -11.0496 -1.64253 7.39305
H -11.4804 -3.02446 8.14889
O -6.80103 -10.4136 14.9825
H -7.30843 -9.62675 -14.6763
H -6.04232 -10.6232 -14.4107
O 6.97887 -11.4403 4.20435
H 6.73198 -12.3532 4.52944
H 6.41653 -11.2054 3.4115
O -9.82529 14.0853 -7.0599
H -9.7632 14.7712 -6.33489
H -10.6874 13.5859 -6.97339
O 13.1278 8.73138 -12.1481
H 12.7785 9.66643 -12.2083
H 13.0788 8.41768 -11.1998
O 2.71352 -7.2504 12.0094
H 3.05475 -8.17272 11.8281
H 2.65597 -6.74147 11.1506
O -6.82933 0.267054 3.20478
H -7.37588 1.10327 3.24953
H -6.40872 0.191756 2.30067
O -2.92618 -4.19503 -6.93978
H -2.57035 -4.95359 -6.39392
H -2.35487 -4.07151 -7.75116
O -10.8861 10.7378 8.5689
H -11.348 11.3052 7.88718
H -11.447 9.93451 8.76915
O -13.3209 7.65655 0.304386
H -13.5289 8.33413 -0.401031
H -12.3625 7.38111 0.229715
O 0.0519236 -6.22057 -9.74932
H -0.0594501 -7.21332 -9.70439
H 0.894004 -6.00161 -10.2422
O -8.68372 2.75513 -5.41342
H -7.70099 2.75204 -5.59839
H -8.90798 2.00574 -4.79044
O 14.765 11.3248 6.90924
H 14.2993 11.5658 6.05776
H 14.5798 10.3674 7.13098
O 10.4174 -6.4354 -9.51002
H 9.89857 -5.68912 -9.09305
H 10.351 -7.25008 -8.93393
O 4.60159 1.39957 0.140257
H 4.99434 2.29201 0.362255
H 4.0012 1.48802 -0.654535
O -11.2492 -5.0506 0.619906
H -11.52 -4.65303 -0.256758
H -10.2723 -5.26358 0.601668
O 6.44378 7.03558 -3.29905
H 6.59011 7.94618 -2.91256
H 5.58038 7.02235 -3.80338
O 8.79087 7.87051 -4.83512
H 8.17188 7.51012 -4.1373
H 8.74804 7.29188 -5.64958
O -0.62206 -14.308 0.963084
H -0.523554 14.7183 0.812651
H -0.117605 -13.8107 0.257244
O -3.59079 8.28094 -2.42206
H -3.33646 9.08276 -2.96279
H -3.03042 8.24553 -1.59459
O 5.20103 6.85467 -10.6402
H 5.56034 7.30021 -9.82024
H 4.77099 5.988 -10.3874
O -0.087515 11.7983 3.44337
H -0.891136 11.2046 3.48541
H -0.204082 12.5624 4.07774
O -13.7293 -12.8995 -2.59468
H -14.6609 -13.223 -2.42913
H -13.5514 -12.8851 -3.57862
O 1.73207 -10.85 14.1082
H 1.72841 -11.6361 13.4901
H 1.42139 -10.0372 13.6154
O 5.67775 11.5743 13.4579
H 6.06303 10.7254 13.0962
H 6.3625 12.0383 14.0199
O 11.8592 4.04543 8.7651
H 11.1842 4.7415 8.5206
H 12.3243 3.72738 7.93892
O 2.88995 0.770831 -14.3122
H 3.48654 0.0457111 -14.6561
H 2.46986 0.477575 -13.4534
O 13.2269 -10.5489 -5.23507
H 13.6505 -11.2738 -5.77822
H 13.9397 -9.98473 -4.81843
O 0.963267 -12.1182 -0.712758
H 1.28176 -11.1811 -0.855859
H 1.49966 -12.7428 -1.28025
O -5.79474 -0.367925 0.772009
H -5.13726 0.00941364 0.119847
H -6.72141 -0.257527 0.412734
O 0.355928 4.45711 3.33111
H 0.505989 5.44407 3.3892
H 1.2377 3.98846 3.27793
O 0.11721 9.59693 -2.59651
H -0.0666831 9.82431 -3.55279
H -0.455961 8.82512 -2.32126
O 2.56795 5.58294 -8.37408
H 3.16508 5.03801 -8.96269
H 2.2331 5.0153 -7.62199
O -2.49947 -1.40189 4.02227
H -2.51705 -2.11225 3.31867
H -3.37613 -0.92089 4.03226
O 5.97127 -3.67507 -8.18562
H 6.24875 -4.60312 -8.43406
H 5.36635 -3.30767 -8.89207
O 2.51188 -3.40237 -4.17706
H 2.75378 -2.48576 -3.85877
H 1.83261 -3.80076 -3.56074
O 8.25406 7.92352 8.55663
H 7.87212 7.23488 7.94029
H 9.03468 7.53583 9.04685
O -12.9646 2.83585 14.5596
H -12.9291 3.63736 -14.8534
H -13.8045 2.86102 14.0174
O 14.0016 7.39781 -3.35917
H 13.9086 6.47516 -2.98491
H 13.2577 7.57237 -4.00423
O -9.03917 7.058 4.20301
H -8.75098 7.03709 5.16035
H -9.67438 7.81747 4.06266
O 3.53086 -9.89538 8.75596
H 3.91443 -9.88134 7.83257
H 2.54049 -10.0235 8.70358
O -14.6119 -12.784 -13.5523
H -14.6332 -12.1451 -14.3213
H -14.0382 -13.5688 -13.7867
O -14.4367 -2.61255 -10.2164
H -14.9083 -2.70498 -9.33946
H -13.6432 -2.01392 -10.1066
O -4.80029 -10.8546 -10.8608
H -4.02837 -10.5403 -11.4134
H -4.58818 -11.7508 -10.4712
O 1.14241 9.91677 -11.6323
H 0.9616 10.2492 -10.7067
H 1.36446 8.94231 -11.5991
O -3.66183 12.7275 -3.64065
H -4.46515 12.3021 -3.22385
H -3.72779 13.7214 -3.55306
O -7.51252 -6.85133 2.95156
H -6.53472 -6.92798 2.75659
H -7.85086 -7.72269 3.30686
O 9.68585 -9.95613 12.0673
H 9.98298 -9.00409 11.9944
H 8.84614 -10.0027 12.6083
O 6.92683 -9.59108 13.7828
H 7.29101 -9.7307 14.7036
H 6.01595 -9.9988 13.7192
O -11.0393 7.05957 -4.70818
H -11.0231 6.49705 -3.88156
H -11.8926 7.57996 -4.74049
O 3.18589 -11.5008 -3.76196
H 3.06029 -12.448 -3.46716
H 2.78027 -10.8849 -3.08655
O 1.09348 12.2569 -13.0369
H 0.955659 11.4437 -12.4715
H 1.41168 13.0117 -12.4632
O 13.0779 4.89742 11.7439
H 14.0561 4.92616 11.5379
H 12.7135 3.9971 11.5059
O -10.4974 4.87099 4.37506
H -10.0837 5.77034 4.23379
H -10.9479 4.84782 5.26753
O 11.9681 1.27079 7.0169
H 12.5905 1.95177 6.63109
H 11.6841 0.634483 6.29963
O 7.29056 9.55733 12.4608
H 8.11212 9.68692 13.016
H 7.04842 8.58722 12.4452
O -6.40866 14.6226 -14.0062
H -6.76247 14.7162 -13.0756
H -5.67186 -14.7269 -14.1506
O -2.77357 12.8135 -14.3392
H -2.57699 13.7837 -14.1981
H -2.80212 12.6184 14.6904
O 11.1352 -7.3799 6.58202
H 11.7325 -6.63145 6.29402
H 11.3342 -8.19402 6.03653
O 4.0987 1.87884 -5.57837
H 3.38854 2.52432 -5.85946
H 4.10166 1.0952 -6.19956
O 11.4742 -14.0604 6.71928
H 11.2843 -13.3598 7.40708
H 12.1753 -14.6845 7.06407
O -10.8194 6.47937 0.420268
H -9.87519 6.68873 0.674591
H -11.206 5.83243 1.07752
O -14.8569 -12.6258 0.869195
H 14.8571 -11.7161 1.16048
H 14.9431 -12.75 -0.100576
O 11.5709 8.20198 -14.8433
H 12.2482 8.91546 -14.6641
H 11.905 7.59961 14.4418
O -12.9513 -6.09949 14.1324
H -13.8612 -6.499 14.0205
H -12.7532 -5.989 -14.9037
O -14.3043 13.5986 -4.62558
H -14.9224 12.955 -4.17421
H -13.6885 14.0004 -3.94783
O -13.9122 12.4012 -0.627435
H -13.4594 12.9944 -1.29303
H -13.6464 12.6738 0.29721
O 8.43152 -12.6887 -4.12965
H 7.43781 -12.758 -4.21756
H 8.83225 -12.4906 -5.02416
O 7.11049 7.64154 -12.3999
H 6.36895 7.34282 -11.7992
H 6.76371 8.32376 -13.0436
O 11.8226 2.59039 2.23336
H 10.9855 2.60974 2.78011
H 11.8049 1.79719 1.62467
O 1.51775 -13.6127 -13.1142
H 0.768103 -12.9534 -13.1721
H 1.62672 -14.0717 -13.9959
O -3.21455 -14.2532 -0.623273
H -2.74616 -13.8997 0.186412
H -4.12277 -14.5829 -0.365556
O -5.38623 12.2842 -11.1895
H -5.6578 11.7964 -12.0192
H -4.52412 11.9087 -10.8493
O -2.4742 12.7527 6.82714
H -1.82871 13.0635 6.12948
H -1.99033 12.2019 7.50723
O -6.07795 -10.2232 10.4462
H -6.53824 -9.78676 9.6731
H -6.29801 -11.1986 10.4578
O 8.41632 -1.62184 14.0186
H 7.77288 -1.03708 13.5246
H 8.57082 -2.46158 13.4981
O 3.88555 -0.151451 7.07779
H 3.52946 0.0432642 6.16386
H 4.08899 -1.12746 7.15528
O -13.0176 4.14352 8.63139
H -13.1841 3.35465 8.03983
H -13.6313 4.10431 9.41991
O -8.72106 -5.41987 -12.6531
H -9.21291 -4.97471 -11.9049
H -9.37788 -5.81878 -13.293
O -7.42965 11.4816 0.292133
H -8.28857 11.488 0.804199
H -6.90194 10.6681 0.536473
O -10.7175 4.75725 7.00694
H -11.5514 4.65163 7.54856
H -10.1322 5.45022 7.4279
O -2.9801 7.25664 -9.11307
H -2.47091 6.47254 -8.75825
H -3.27789 7.83279 -8.35191
O 1.21335 -3.55351 3.33085
H 0.909443 -3.14488 4.19145
H 1.78652 -2.90047 2.83587
O 13.0006 12.4623 4.45696
H 13.2694 12.1879 3.5337
H 13.1547 13.4437 4.57108
O -6.11836 11.9063 -2.65604
H -6.30651 11.3256 -1.86392
H -6.94795 12.404 -2.90901
O 11.0928 -6.46413 10.2318
H 11.9101 -5.92094 10.0395
H 11.1511 -7.33697 9.74728
O -14.1884 4.79712 11.5672
H -13.8831 3.85235 11.4481
H -14.251 5.00665 12.543
O 11.4126 -3.25652 2.28244
H 11.882 -2.63653 2.91109
H 11.5991 -4.20287 2.54627
O -14.1753 -14.4543 -9.49751
H -13.536 14.7871 -9.47401
H 14.8978 -14.8012 -9.54086
O 4.46993 -1.93632 4.51499
H 3.58294 -1.48541 4.4154
H 4.36375 -2.76198 5.06907
O 2.8045 9.3647 -5.03831
H 3.1925 8.48815 -4.75352
H 3.53215 10.0482 -5.09642
O -7.799 10.6745 -5.32642
H -7.13788 10.8343 -6.05949
H -7.95732 11.5273 -4.82869
O -13.4569 1.53158 7.88806
H -12.8307 1.29315 7.14583
H -13.399 0.840144 8.60816
O -12.355 7.8633 4.82967
H -13.0107 8.1303 4.12342
H -12.6374 8.24701 5.70887
O 0.151292 12.5476 -2.49461
H -0.240629 13.0433 -1.7196
H -0.0359237 11.5704 -2.39432
O 1.69822 1.82686 5.90471
H 0.787776 2.09571 6.21902
H 2.38285 2.4339 6.30815
O 2.05813 14.7906 14.9473
H 1.5129 14.016 -14.7421
H 2.27254 14.6688 13.9782
O 10.2269 10.2503 1.71965
H 10.2681 9.57965 2.46026
H 9.27126 10.4371 1.49194
O -11.7094 11.2507 -8.60347
H -10.7642 11.3003 -8.92632
H -11.8491 10.3909 -8.11242
O 4.07626 -8.51071 -1.3669
H 3.68902 -8.26709 -0.477692
H 4.48611 -7.70019 -1.78531
O -0.373699 4.5305 -14.8737
H -0.888254 3.68299 -15.0038
H -0.962149 5.21495 -14.4433
O -10.6253 2.0701 5.72732
H -10.5966 2.97801 6.14548
H -10.1618 1.414 6.32292
O 11.0365 2.58855 -14.8731
H 11.4491 2.8411 -13.9979
H 10.0522 2.7622 -14.8401
O -9.70947 10.8082 2.12028
H -9.98037 10.7439 3.08073
H -9.86375 9.92832 1.67083
O 12.2478 14.0044 9.35655
H 11.4785 14.4685 9.79554
H 11.9026 13.3535 8.68036
O 2.45308 -13.8622 -2.1639
H 2.15526 -14.7447 -2.5279
H 3.17962 -14.0067 -1.49216
O -0.233738 -9.03044 -12.1913
H 0.348433 -9.55836 -12.8096
H -0.376095 -8.11505 -12.5678
O -13.439 -2.74485 -6.74217
H -13.959 -2.72035 -7.59592
H -13.7243 -3.53559 -6.20061
O -14.4637 7.26603 -13.0269
H 14.6263 7.65701 -12.9982
H -14.3836 6.55109 -12.3324
O -0.246436 13.8649 5.50299
H 0.495306 13.8763 6.17356
H -0.282692 14.7458 5.03108
O 6.84048 -8.15934 6.77785
H 7.70018 -8.66459 6.70283
H 7.03425 -7.20132 6.98913
O 4.44921 -1.4699 11.9985
H 3.61721 -0.922991 12.0915
H 4.20772 -2.39912 11.7188
O -12.8079 2.38761 11.378
H -11.8432 2.57511 11.1932
H -13.1176 1.63306 10.7995
O -8.30664 -3.9707 10.0354
H -7.54941 -3.78927 9.40795
H -9.14557 -3.56644 9.671
O -6.7809 3.23169 -13.6053
H -6.75424 4.18128 -13.9176
H -7.17969 2.65687 -14.3198
O -7.44268 -6.63656 13.57
H -7.66332 -7.26565 12.8246
H -7.62912 -5.69785 13.2801
O -7.90014 7.04925 0.348942
H -8.10964 7.27766 -0.601807
H -7.71988 7.88877 0.86148
O 12.4741 2.44657 10.7171
H 12.1876 3.0271 9.95493
H 12.4087 1.48589 10.4473
O 7.25461 -5.54986 1.09911
H 7.5213 -5.49681 0.136802
H 6.30042 -5.84172 1.16494
O 7.90684 13.1563 -8.9531
H 8.51451 13.9502 -8.97717
H 7.83444 12.8204 -8.01403
O -13.7005 12.5075 -12.3887
H -13.6003 13.0277 -11.5406
H -13.1703 11.6619 -12.3256
O 2.1651 -1.49665 -8.62062
H 1.32163 -1.01446 -8.85735
H 1.95033 -2.272 -8.02675
O 5.45607 5.5645 -13.3943
H 6.30349 6.05065 -13.1809
H 5.06736 5.18754 -12.5536
O 5.74469 11.6485 7.83792
H 5.78906 10.9537 8.55579
H 5.76192 12.5581 8.25292
O -8.53953 12.8636 -3.85193
H -8.05194 13.6324 -4.26564
H -9.5077 13.0951 -3.75703
O 0.718625 -7.5692 8.34349
H 0.801837 -8.00201 7.44586
H -0.0454097 -6.92413 8.33294
O 0.860437 -5.6513 -3.07517
H 0.0457985 -5.95055 -2.57838
H 0.916424 -6.13753 -3.94719
O -10.5421 1.89464 13.2063
H -10.304 2.56937 12.5077
H -11.4552 2.09207 13.5629
O -1.74818 -6.39761 7.57999
H -2.23079 -5.52694 7.48517
H -2.16656 -6.93239 8.31413
O -8.40099 0.369517 -7.1335
H -8.30347 1.14302 -7.75974
H -9.16869 0.536308 -6.5148
O -1.27403 -5.72104 -1.52423
H -1.78804 -4.94037 -1.87966
H -0.908191 -5.49597 -0.621183
O -6.14016 -7.94726 -10.9165
H -5.39588 -8.6063 -10.8084
H -5.76274 -7.05727 -11.1724
O -13.2915 -9.63398 -2.67726
H -12.3966 -9.19661 -2.58884
H -13.171 -10.6206 -2.78701
O -1.95568 8.67665 -0.0595297
H -0.966721 8.72627 0.0800739
H -2.2902 7.78323 0.240249
O -0.848051 8.57142 10.2514
H -0.359148 8.45379 9.38701
H -0.294754 8.2056 10.9997
O 4.5759 -10.8474 14.5665
H 4.72142 -10.3806 -14.5712
H 3.60214 -11.0441 14.4521
O 2.02042 -0.716714 4.4714
H 1.93563 0.242363 4.74152
H 1.38964 -1.27251 5.01287
O 4.04301 6.00667 1.46708
H 4.46788 6.87653 1.71772
H 4.71565 5.42775 1.0062
O -6.34118 -3.88659 -1.72701
H -5.94829 -4.68888 -2.1764
H -5.83446 -3.69364 -0.886781
O -9.02687 -9.188 -4.53599
H -8.41792 -8.51605 -4.95746
H -8.48207 -9.90529 -4.10162
O -8.80217 -13.5942 -9.86184
H -8.2638 -13.3232 -10.6598
H -8.72072 -14.5814 -9.72444
O 13.0252 7.95808 -9.17803
H 13.2458 6.98291 -9.19655
H 13.6488 8.42913 -8.55419
O -0.926061 14.8399 10.2626
H -1.77248 14.7935 9.73209
H -0.892761 14.0741 10.9047
O -9.84885 -11.1772 -13.7698
H -10.0346 -11.7212 -12.9516
H -8.91899 -10.8123 -13.7234
O 4.29968 4.34742 -10.432
H 4.93015 3.60526 -10.2046
H 3.5894 4.00476 -11.0468
O 1.18365 8.08648 14.731
H 1.95809 7.87265 -14.6836
H 0.385081 8.30957 -14.7199
O 1.87188 2.807 -7.20558
H 1.64964 2.47479 -8.12222
H 1.0666 2.7278 -6.61801
O -11.2669 -10.2913 -5.47844
H -10.4411 -9.8904 -5.08185
H -11.6576 -9.65747 -6.14598
O 9.50532 12.4009 9.80653
H 9.15012 13.2251 9.36547
H 9.44304 11.6303 9.17232
O -10.447 -4.74696 -7.5976
H -9.87831 -3.95959 -7.35969
H -11.3343 -4.66657 -7.1435
O 4.74913 11.2331 -5.51185
H 5.74189 11.3076 -5.60609
H 4.37306 12.1182 -5.23764
O 2.47354 -8.65557 5.90994
H 2.63037 -7.69641 5.67457
H 3.34608 -9.14404 5.91682
O 4.53246 12.7531 -2.23499
H 5.17819 13.3816 -1.80141
H 4.3866 13.0282 -3.18527
O 7.79657 13.9866 12.2256
H 8.42703 13.5341 11.5949
H 7.98574 13.6846 13.1599
O 3.26544 -9.81816 11.4436
H 3.20636 -10.7528 11.7941
H 2.9202 -9.79152 10.5055
O 0.274675 -2.81934 -13.0545
H 0.856556 -3.53088 -12.6607
H -0.662609 -2.9355 -12.7259
O 10.7733 -3.31533 6.39922
H 11.3338 -4.10635 6.15392
H 10.9553 -3.05947 7.34865
O -6.73903 8.56664 2.48619
H -6.82856 7.65069 2.87734
H -5.84318 8.9435 2.72161
O -2.92353 14.9175 8.32866
H -2.70141 14.1212 7.76616
H -2.74512 -14.257 7.80885
O 8.47608 4.48726 -11.5626
H 8.19958 3.56385 -11.8287
H 8.88079 4.95374 -12.3491
O 11.9022 -12.3296 1.12502
H 11.2693 -11.9093 0.474802
H 12.789 -11.8707 1.07099
O 2.20528 7.03091 -11.6041
H 3.01412 6.95203 -11.0214
H 2.48935 7.20715 -12.5465
O -2.57581 -2.74833 -12.6321
H -2.76182 -1.96458 -12.0396
H -3.14164 -3.52246 -12.3483
O 2.86658 -5.31397 -10.3751
H 2.86532 -5.2277 -11.3713
H 3.56936 -4.71604 -9.98961
O -8.35757 -13.7145 11.5198
H -7.78688 -13.2842 12.2192
H -9.24927 -13.2627 11.4929
O 8.64839 -3.39326 2.31788
H 9.57566 -3.12472 2.05702
H 8.37657 -4.20221 1.79663
O -13.1848 -0.77124 2.25895
H -13.2162 0.128932 2.69333
H -12.336 -0.860336 1.73769
O -12.3702 9.15558 -6.73314
H -13.1493 8.67223 -7.13231
H -12.4868 9.21436 -5.74171
O 10.3784 -2.48591 -10.0786
H 9.74384 -1.7287 -10.2335
H 10.0934 -2.99936 -9.26924
O 11.8549 12.129 11.1037
H 12.6145 12.732 10.8599
H 11.0603 12.3484 10.5377
O 12.4476 -8.13111 -3.04644
H 12.5001 -7.60577 -3.89571
H 12.1063 -9.05015 -3.24354
O 7.40734 0.286588 -13.823
H 7.62216 -0.079782 -14.7283
H 8.22454 0.253667 -13.2476
O -1.30262 -6.36929 -6.21663
H -1.67147 -7.06171 -5.59656
H -0.376453 -6.12446 -5.92983
O -8.29844 9.89142 8.49371
H -9.16575 10.3292 8.73064
H -7.86965 9.53119 9.32218
O 6.41582 -14.7914 -6.84296
H 5.44431 14.9817 -6.84921
H 6.55952 -13.9596 -7.37905
O 14.3774 -1.22248 0.697495
H -14.7047 -1.16006 1.06519
H 14.0272 -2.14944 0.832052
O -6.89358 -13.0111 -8.08322
H -7.00877 -12.1437 -7.59922
H -7.58555 -13.0867 -8.80117
O -9.07029 0.487065 7.02881
H -8.27213 1.07105 7.17675
H -8.9412 -0.0487597 6.19442
O -1.76077 5.42738 12.1261
H -1.155 5.32097 12.9146
H -1.2821 5.13922 11.2967
O -0.314157 -1.88492 12.1875
H -1.00097 -2.61084 12.1513
H 0.0947374 -1.85822 13.0997
O -10.1787 8.53805 -8.58925
H -9.27952 8.11655 -8.4715
H -10.6935 8.46928 -7.73474
O -9.53777 -0.262396 2.53074
H -8.99539 -0.568295 3.3132
H -9.692 0.723402 2.59706
O -3.8291 0.453519 -1.03258
H -4.25191 1.21064 -1.53056
H -2.9291 0.259254 -1.42276
O 5.07891 -9.55212 -12.9703
H 6.06513 -9.52716 -12.8067
H 4.63925 -8.80561 -12.4708
O -13.9779 -12.0574 7.37556
H -14.0972 -11.1571 6.95693
H -14.8739 -12.4696 7.54054
O -5.32068 -12.242 6.69736
H -5.82524 -13.0985 6.80614
H -4.46132 -12.42 6.21799
O -8.33664 -3.60298 2.58302
H -8.28282 -3.20865 3.5004
H -7.42052 -3.86255 2.27752
O -5.45897 14.864 4.41474
H -6.43974 14.984 4.26081
H -5.31566 14.3061 5.23212
O -10.831 -12.5394 -11.5454
H -10.3538 -12.7416 -10.6902
H -11.815 -12.4895 -11.3743
O -13.9787 -5.76421 10.8599
H -14.7486 -5.1884 10.585
H -13.5218 -5.35498 11.6497
O -4.2622 -12.8297 -5.34826
H -4.29022 -11.9116 -5.74342
H -4.8137 -13.4498 -5.90631
O -5.37903 9.6546 -0.31884
H -4.97842 9.01139 -0.971346
H -4.8853 9.59989 0.54904
O 7.53112 -10.3552 -10.184
H 7.69104 -10.1902 -11.1573
H 6.60558 -10.7107 -10.0539
O -6.15369 -7.66312 -7.68067
H -5.23211 -7.87075 -8.00864
H -6.63036 -7.10315 -8.35832
O 9.35513 10.459 8.05489
H 8.98949 10.5755 7.13146
H 9.16898 9.52916 8.37225
O -2.51793 -7.65451 9.72013
H -2.76574 -7.06794 10.4912
H -3.04036 -8.50586 9.7676
O -12.9752 -8.9329 4.66107
H -12.5632 -9.82131 4.45853
H -13.6285 -9.03179 5.4116
O -9.079 -1.87954 -14.2149
H -9.66317 -2.07755 -13.4278
H -8.79107 -2.73742 -14.6405
O -10.991 6.2588 10.2966
H -10.2236 6.37649 9.66634
H -11.3892 5.35017 10.1709
O -10.5385 -3.91453 5.06777
H -10.9433 -3.70606 5.95807
H -11.2652 -4.04095 4.39256
O 13.0197 11.6732 -11.39
H 13.2368 12.0625 -12.2851
H 12.1394 12.0292 -11.0763
O -13.463 9.69395 -1.38576
H -13.6418 10.6145 -1.03838
H -12.4771 9.52694 -1.39533
O 3.84317 -8.30673 -5.04914
H 3.90271 -7.45561 -4.52757
H 4.23259 -9.05484 -4.51185
O 6.48607 -13.0614 -8.822
H 5.83611 -12.3862 -9.17069
H 7.11786 -13.3236 -9.55145
O -6.53781 11.0462 -13.3773
H -5.99201 10.8787 -14.1983
H -7.50198 11.1292 -13.6293
O -11.1734 -4.41625 9.31617
H -11.1261 -4.9773 10.1426
H -11.4965 -4.97478 8.55219
O 9.09828 -9.65677 5.75491
H 10.0755 -9.81196 5.61018
H 8.57814 -10.1081 5.02982
O 6.2873 9.72811 9.56172
H 6.41996 9.69817 10.5524
H 6.91702 9.088 9.12162
O -0.303148 -11.6269 -10.8543
H -0.509118 -12.081 -11.7211
H -0.467698 -10.6447 -10.9452
O -3.04428 -14.4323 -3.54255
H -3.66479 -13.9814 -4.18409
H -3.16151 -14.0368 -2.6316
O 13.5629 12.9846 -7.88807
H 13.587 12.9348 -8.88653
H 13.855 12.109 -7.50351
O -9.23865 6.89965 7.86234
H -9.08334 7.87314 7.69443
H -8.35917 6.42838 7.92864
O -4.09393 -10.4215 -0.649618
H -3.83694 -10.9185 -1.47844
H -5.08768 -10.3139 -0.620086
O -0.57285 7.15413 -6.4369
H -0.334647 6.38046 -7.02399
H -0.772324 6.82354 -5.51445
O 5.67906 8.00847 -8.29676
H 4.71009 8.00041 -8.04972
H 5.96451 8.94596 -8.49577
O 14.5945 -7.37534 13.2523
H 13.8798 -7.97877 12.8988
H -14.6618 -7.92594 13.6112
O 7.30865 -3.57494 -11.0588
H 7.71663 -3.42751 -10.1578
H 6.5694 -2.91686 -11.2017
O -7.62523 -5.34379 -8.94695
H -7.93674 -5.17981 -9.88292
H -8.3705 -5.15026 -8.3089
O -1.79736 11.0412 -8.02584
H -2.32141 10.3197 -7.57337
H -1.52847 11.73 -7.35262
O 12.4951 -5.2912 5.66598
H 12.2376 -5.65261 4.76984
H 13.4888 -5.33392 5.76961
O 12.7039 9.47839 6.13217
H 12.1434 10.1637 5.66722
H 13.3125 9.04073 5.47032
O 13.7741 -14.1085 -2.02667
H 13.0609 -13.8149 -2.66324
H 13.4679 -14.9247 -1.53655
O 9.83612 5.64595 -13.7595
H 10.0532 5.16846 -14.6108
H 10.6167 6.20682 -13.4835
O 6.84634 -1.29576 -7.15126
H 6.80379 -2.27736 -7.33738
H 6.54563 -1.12094 -6.21371
O 12.8978 -3.73932 -10.6902
H 13.3714 -3.59379 -9.8216
H 12.1147 -3.12034 -10.7507
O -7.61327 7.97837 -4.66035
H -7.87484 7.6153 -5.55463
H -7.46129 8.96412 -4.73229
O 8.10536 11.0356 -6.48909
H 9.0189 10.9372 -6.88375
H 8.12695 10.7641 -5.5269
O 6.55917 -0.108467 4.52314
H 5.71015 -0.496161 4.88209
H 7.32213 -0.716602 4.74234
O -10.5368 -5.06438 13.2065
H -10.2115 -5.63934 12.4558
H -11.5086 -5.24019 13.3641
O -10.4264 13.889 -12.0351
H -9.68868 14.018 -11.3725
H -10.4455 14.6634 -12.6676
O 7.48469 2.91225 6.45366
H 6.94671 2.82387 5.61535
H 6.997 2.47654 7.21016
O -5.08858 -8.78651 3.61804
H -4.44818 -8.37544 2.96927
H -5.13685 -9.77265 3.45931
O 4.85661 -3.18505 -13.1509
H 5.43285 -3.80162 -13.6873
H 4.74705 -2.32036 -13.6411
O 14.414 1.6599 -12.4683
H 14.4981 1.98804 -11.5275
H 14.2352 0.676025 -12.4635
O 0.110847 9.85433 -5.56584
H -0.277239 8.97056 -5.82724
H 1.06505 9.73175 -5.29297
O -10.5129 1.84753 -2.47992
H -10.8716 1.60471 -3.38123
H -10.8001 1.16186 -1.81108
O -10.3691 7.71517 -12.645
H -10.5885 7.963 -13.5886
H -11.0603 8.09639 -12.031
O -2.93426 14.7186 13.1087
H -3.58481 14.859 12.3623
H -2.34987 -14.4848 13.1976
O -1.68414 -12.2667 -1.8119
H -0.842708 -12.1484 -1.28465
H -2.22422 -13.0092 -1.4156
O 5.09243 13.2208 -9.9971
H 6.01688 13.3844 -9.65269
H 4.63075 12.556 -9.40988
O 12.3769 8.33946 -1.21549
H 11.7014 7.97607 -1.8571
H 13.2675 8.39782 -1.66662
O -13.5693 4.8377 -0.773165
H -13.761 5.48239 -0.0331711
H -12.9047 4.15915 -0.460234
O 0.874059 -10.9373 8.8625
H 0.430196 -11.2861 9.68792
H 0.194907 -10.4845 8.28482
O 11.7646 -6.59477 -0.992726
H 12.3097 -7.08177 -1.67517
H 11.5121 -7.22355 -0.257294
O -6.41278 7.33648 13.3307
H -5.49762 7.59774 13.0238
H -7.09558 7.88348 12.8464
O 5.93446 9.54323 -13.8821
H 6.44659 10.0212 -14.5957
H 5.3694 10.1989 -13.3814
O 11.1545 -10.7191 -3.51581
H 11.7231 -10.8552 -4.32709
H 10.8796 -11.6077 -3.1486
O 9.77712 7.3316 12.4769
H 10.2928 6.68786 13.0422
H 8.80215 7.24976 12.6835
O -10.8028 0.793902 -12.0182
H -11.3713 0.581343 -12.813
H -9.91163 1.12766 -12.3255
O 14.2615 -6.40968 0.580824
H 14.6747 -7.09237 -0.0218281
H 13.3221 -6.23171 0.288148
O -12.4463 -5.8438 -13.1959
H -12.0903 -6.07821 -12.2913
H -12.9613 -4.98843 -13.14
O -2.19479 13.1509 -5.92254
H -1.54643 13.8744 -5.68539
H -2.71396 12.8888 -5.10906
O -3.69772 -6.04446 11.805
H -4.4351 -5.41017 11.5728
H -3.7943 -6.33352 12.7575
O 6.99681 0.681613 1.95805
H 7.11675 0.322716 2.88368
H 6.03009 0.637433 1.7061
O 8.26894 6.0441 -9.42343
H 8.04333 5.52555 -10.2482
H 8.61314 6.94694 -9.6811
O -1.88834 2.44893 14.6373
H -2.09896 1.48921 14.8232
H -1.73496 2.57266 13.657
O -8.20339 -0.507956 -0.701793
H -8.54513 -1.18971 -0.0549489
H -8.26797 -0.869255 -1.632
O 9.83247 -9.15795 -1.63099
H 10.2989 -9.61734 -2.38688
H 9.06027 -8.6314 -1.98656
O 14.8838 -7.49001 -1.78869
H -14.4656 -8.21316 -1.99054
H 13.962 -7.81012 -2.00712
O 10.5326 11.2767 4.98043
H 11.3334 11.8252 4.73979
H 9.84188 11.8631 5.40361
O 13.8464 5.10854 -1.752
H 14.8324 5.05758 -1.59358
H 13.3619 4.94869 -0.891926
O -13.8977 -11.2393 11.7911
H -14.8342 -11.349 11.4581
H -13.8905 -11.2923 12.7896
O 8.70457 -5.96237 6.17131
H 8.97829 -5.14135 6.67231
H 9.45242 -6.62609 6.18511
O 9.57178 0.759953 -12.0797
H 10.4107 0.833878 -11.5405
H 9.62724 -0.0422642 -12.6742
O 1.41855 14.9308 8.69392
H 0.549165 14.8388 9.17939
H 1.48087 -14.1656 8.29209
O 14.3593 2.53348 13.2473
H 13.6254 2.412 12.5789
H 14.0234 3.07805 14.0158
O 9.10464 -14.6558 5.81226
H 10.0783 -14.5467 6.01227
H 8.868 -14.1169 5.00381
O 9.97698 -10.5612 -8.86795
H 10.5896 -10.8161 -9.61608
H 9.03649 -10.523 -9.2056
O -6.14735 -5.76343 -13.3796
H -5.63123 -5.12204 -12.812
H -7.10867 -5.75311 -13.1044
O 9.18994 0.870861 -0.264184
H 9.68963 0.00585475 -0.309531
H 8.5306 0.835933 0.486844
O 12.8982 -13.896 14.9522
H 13.1728 -14.8053 14.6394
H 13.6889 -13.284 14.9328
O -10.6843 5.49304 -2.31199
H -11.0141 5.71841 -1.39524
H -10.627 4.49959 -2.41073
O -4.27272 9.73679 2.24244
H -3.90617 10.5455 1.78252
H -3.6452 9.45245 2.96726
O -7.06265 12.0489 12.9931
H -6.2294 11.6801 13.4049
H -7.53486 12.6279 13.6577
O 0.33276 -9.25012 4.13032
H 1.03873 -8.86131 4.72229
H 0.76331 -9.68506 3.33948
O 10.9691 -12.2747 8.79851
H 10.1233 -11.8315 8.50147
H 10.756 -12.9811 9.47348
O -14.8476 -5.94597 5.76446
H -14.904 -6.65886 5.06548
H -14.4467 -5.12052 5.36705
O 7.93234 -14.265 2.4891
H 7.79173 14.8017 2.1884
H 7.44396 -14.1128 3.34834
O -11.2385 13.0474 -3.78252
H -11.9705 13.4023 -3.20089
H -11.5936 12.8847 -4.70312
O 10.9155 -14.1611 -5.91721
H 10.2539 -14.8483 -6.217
H 11.8394 -14.5386 -5.97907
O 2.00808 -0.806257 -12.1717
H 1.32522 -1.43983 -12.5354
H 1.81679 -0.628067 -11.2065
O -14.6636 -1.58398 -14.898
H 14.928 -1.12399 14.3287
H -14.2582 -0.902507 -14.2888
O 12.816 -9.32914 12.5628
H 13.142 -9.56633 11.6476
H 12.102 -9.97225 12.8393
O -2.14685 -0.405477 14.9416
H -2.80949 -1.01767 14.5102
H -1.22926 -0.793518 14.8554
O -2.83851 -3.61179 2.41068
H -3.56982 -3.78728 3.06975
H -2.37105 -4.46917 2.19536
O -5.17626 -4.17531 -8.89056
H -4.80761 -4.32854 -7.97372
H -5.96856 -4.76818 -9.03461
O -3.47372 7.65172 12.9807
H -2.94366 8.27795 13.5524
H -2.8642 6.96469 12.5852
O -9.86466 2.55306 2.70402
H -10.0861 3.21174 3.42313
H -9.50631 3.03825 1.90643
O 8.57725 -2.10684 -2.23974
H 9.03062 -1.78489 -3.07088
H 8.51148 -1.35523 -1.58344
O 3.91753 13.8576 -4.7161
H 3.95427 14.4654 -5.5093
H 2.98192 13.8244 -4.36465
O -11.3859 6.84504 12.8933
H -11.3656 6.79963 11.8946
H -12.2574 6.48454 13.2257
O -9.39058 10.9469 -14.2145
H -9.97607 10.3066 -14.7117
H -9.14453 11.7082 -14.8143
O -6.17266 -1.79544 4.68799
H -6.28646 -1.0508 4.03031
H -5.8616 -1.42319 5.56243
O 10.9096 5.13761 13.7556
H 11.3036 4.3065 14.148
H 11.6442 5.73559 13.4351
O 3.56408 7.51162 -13.8896
H 4.15611 6.72511 -14.0653
H 4.1215 8.33859 -13.8162
O -11.2595 12.6063 12.1795
H -10.2808 12.4544 12.041
H -11.4016 13.5043 12.596
O 0.508748 -5.50416 10.1576
H 0.665308 -6.39664 9.73459
H 0.467489 -4.80134 9.44747
O -9.0554 10.9295 -9.445
H -9.63021 10.1112 -9.43713
H -8.34973 10.8479 -8.74119
O 11.2112 -6.36902 -5.25898
H 11.6447 -5.47997 -5.40595
H 10.3208 -6.23767 -4.82314
O -2.45471 10.3577 -4.52437
H -1.48632 10.4827 -4.7402
H -2.81441 11.1938 -4.11003
O -12.6617 2.60649 -7.34455
H -12.4597 2.20505 -8.23785
H -12.391 3.56914 -7.34279
O -13.907 5.74792 14.3083
H -14.8502 5.41771 14.346
H -13.7205 6.31631 -14.9004
O -2.88911 -9.61569 -12.2026
H -2.02414 -9.20078 -11.9204
H -2.89135 -9.7393 -13.1949
O -0.689267 6.75482 -1.93591
H -1.15634 6.33427 -1.15812
H 0.282314 6.51979 -1.90808
O 12.9736 6.07597 -12.8799
H 12.3319 5.3967 -12.5237
H 12.69 6.98871 -12.5857
O -5.35185 14.7889 0.70965
H -4.81716 14.0207 1.06168
H -6.31478 14.5257 0.650928
O 7.24728 0.827397 -4.45748
H 6.47841 1.20316 -4.97481
H 7.20512 1.15404 -3.51328
O 11.4706 1.71002 -5.12337
H 10.8096 1.75338 -5.87251
H 11.7955 2.63179 -4.91173
O 2.12645 -11.5183 -8.90466
H 1.50449 -12.1581 -9.35616
H 1.8873 -11.4483 -7.93621
O -3.73885 10.8576 12.8152
H -2.88374 10.3707 12.9933
H -3.56655 11.614 12.1842
O 12.0641 -4.23866 -2.30636
H 12.954 -4.07336 -1.8811
H 11.6437 -5.04777 -1.89581
O 5.38076 -10.8378 -0.857887
H 4.95658 -9.95312 -1.05151
H 6.36693 -10.7752 -1.01128
O -0.72317 -14.2274 -5.55255
H -0.952396 -13.6622 -6.345
H -1.51711 -14.2915 -4.94795
O -14.9313 1.57957 4.82899
H -14.0183 1.63021 4.42427
H 14.8414 0.622872 4.99744
O 0.893352 10.3935 -8.82575
H 0.257547 10.4733 -8.05805
H 1.21422 9.44898 -8.89595
O -4.18084 12.9892 -8.01449
H -3.45942 12.917 -7.32578
H -3.77401 12.961 -8.92755
O 2.13398 10.0746 2.91482
H 2.51212 9.48126 3.62539
H 1.39996 10.6324 3.30219
O -14.4658 5.37438 -11.0243
H -13.8378 5.74174 -10.3383
H 14.6785 5.13052 -10.5871
O -3.28797 5.55513 3.62492
H -3.49474 5.52297 2.64707
H -3.5138 4.675 4.04248
O 1.67886 6.67506 5.79529
H 1.8344 6.99024 4.8591
H 0.700817 6.71028 6.00068
O -3.25658 -9.566 -14.9021
H -3.68599 -8.70085 14.8488
H -2.77177 -9.94646 14.3203
O -12.8684 14.4653 -2.16652
H -13.5474 -14.9172 -1.78542
H -11.9583 14.8724 -2.09011
O 4.31384 -2.67102 -10.1183
H 4.34 -2.38115 -11.075
H 3.61485 -2.14803 -9.63055
O -13.9713 3.88291 -3.4971
H -13.6098 4.20649 -2.62272
H -13.2604 3.37609 -3.9847
O -4.81117 -3.35166 -4.70794
H -3.91269 -3.58299 -5.08103
H -4.90218 -2.3575 -4.65013
O 6.35443 2.60673 -7.09612
H 6.4618 3.59343 -6.9742
H 5.73764 2.24938 -6.39479
O 5.25768 -1.57588 -0.125626
H 4.92802 -0.63301 -0.0776816
H 5.66805 -1.83043 0.750035
O -7.36173 5.20358 -10.4567
H -6.87767 5.83602 -11.0614
H -6.70591 4.57654 -10.0363
O 14.0481 -3.30755 11.6176
H 13.8357 -3.87341 12.4143
H 13.2025 -3.08372 11.1329
O 1.8078 14.5215 11.9114
H 2.73564 14.1542 11.9764
H 1.16931 13.7796 11.7065
O 1.70124 2.2796 -9.77812
H 1.95996 2.53165 -10.7106
H 1.04641 1.52437 -9.8065
O 10.856 -14.0766 -3.27468
H 9.85734 -14.117 -3.3056
H 11.2198 -14.1053 -4.20574
O -0.0663001 0.193142 -9.56434
H -0.855801 0.283659 -8.95731
H -0.347024 0.378144 -10.5061
O -4.49419 7.71434 4.57127
H -4.09523 6.9247 4.10514
H -5.10306 7.39911 5.29921
O -10.8846 11.1074 -11.945
H -10.8268 12.0859 -11.7468
H -10.359 10.903 -12.7708
O -8.20469 2.40504 -1.19508
H -8.26945 1.42356 -1.0148
H -8.83603 2.65122 -1.93046
O -3.71017 3.17039 5.16879
H -3.36895 3.15629 6.10866
H -2.95204 3.01084 4.53652
O -12.6019 -0.811749 5.37314
H -11.9078 -0.528992 4.71113
H -12.3368 -1.68519 5.78154
O -4.68106 -3.105 0.374646
H -4.0338 -3.67025 0.886052
H -4.63308 -2.16213 0.704311
O 2.06336 -9.98041 -13.3634
H 1.96668 -10.4896 -14.2186
H 2.95151 -9.52115 -13.3475
O 12.7451 7.18462 12.903
H 12.4963 7.92304 12.2763
H 12.9481 6.35723 12.3794
O -1.14179 7.57511 3.98255
H -1.6206 8.44288 4.11554
H -1.80699 6.85316 3.79207
O -6.42416 -12.3857 13.1155
H -5.57962 -12.7021 13.5474
H -6.75733 -11.5718 13.5915