LAMMPS data file via write_data, version 15 May 2015, timestep = 8008000

2611 atoms
6 atom types
1749 bonds
4 bond types
894 angles
3 angle types
44 dihedrals
3 dihedral types
10 impropers
1 improper types

-1.5026890856085291e+01 1.5026890856085291e+01 xlo xhi
-1.5026890856085291e+01 1.5026890856085291e+01 ylo yhi
-1.5026890856085291e+01 1.5026890856085291e+01 zlo zhi

Masses

1 15.9994
2 1.00794
3 12.0107
4 1.00794
5 12.0107
6 12.0107

Bond Coeffs # harmonic

1 1000 1
2 469 1.4
3 367 1.08
4 469 0.7

Angle Coeffs # harmonic

1 100 109.47
2 35 120
3 63 120

Dihedral Coeffs # opls

1 0 7.25 0 0
2 0 7.25 0 0
3 0 7.25 0 0

Improper Coeffs # cvff

1 2.5 -1 2

Atoms # full

1121 374 2 4.0999999999999998e-01 -1.1245597136459166e+01 -1.4049074920299262e+01 -1.2705156999118307e+01 2 0 1
2415 805 2 4.0999999999999998e-01 -8.9678337207124557e+00 -1.1018627872888928e+01 -1.2887118733842135e+01 3 5 1
2413 805 1 -8.1999999999999995e-01 -8.4371222540427944e+00 -1.0659012708178773e+01 -1.2119615245947099e+01 3 5 1
2414 805 2 4.0999999999999998e-01 -8.6493867700599196e+00 -1.1181444568344796e+01 -1.1293753257193071e+01 3 5 1
1567 523 1 -8.1999999999999995e-01 -1.2379522797004361e+01 -7.8649203611747893e+00 -1.0698335962143826e+01 0 0 0
2399 800 2 4.0999999999999998e-01 -9.3706015456772995e+00 -1.2616623249742887e+01 -9.4819923357208857e+00 4 1 0
767 256 2 4.0999999999999998e-01 -1.4096208573356128e+01 -1.3893014175625268e+01 -9.1166350759933596e+00 0 1 3
1450 484 1 -8.1999999999999995e-01 -8.7192595695030839e+00 -1.4764430796418965e+01 -1.2063848195412746e+01 3 3 -1
2400 800 2 4.0999999999999998e-01 -1.0481948054785617e+01 -1.1567632412847887e+01 -1.0057543054902281e+01 4 1 0
1391 464 2 4.0999999999999998e-01 -8.6086957072186170e+00 -6.4507559622017041e+00 -9.3529852170114545e+00 3 -3 2
1568 523 2 4.0999999999999998e-01 -1.2083941319309202e+01 -7.7181387479813273e+00 -1.1642330698837394e+01 0 0 0
1569 523 2 4.0999999999999998e-01 -1.2422804166391629e+01 -6.9865845651625076e+00 -1.0222213789442522e+01 0 0 0
1953 651 2 4.0999999999999998e-01 -1.2112235918533765e+01 -1.0322776759084357e+01 -9.0131584984772566e+00 0 -2 0
1451 484 2 4.0999999999999998e-01 -9.0021659318251608e+00 -1.4193578984012845e+01 -1.1293048862823104e+01 3 3 -1
2398 800 1 -8.1999999999999995e-01 -9.9266766395168418e+00 -1.2370183859088403e+01 -1.0275772725324988e+01 4 1 0
1952 651 2 4.0999999999999998e-01 -1.1675743151560813e+01 -9.4334264886405137e+00 -1.0311334780441488e+01 0 -2 0
1841 614 2 4.0999999999999998e-01 -1.1813175392085750e+01 -5.6419125699368049e+00 -1.2374211410193576e+01 3 1 3
1951 651 1 -8.1999999999999995e-01 -1.1702684211060326e+01 -1.0355364635706851e+01 -9.9248847920529073e+00 0 -2 0
1392 464 2 4.0999999999999998e-01 -9.4174720456450682e+00 -7.1483952469419734e+00 -8.1177072228430625e+00 3 -3 2
1078 360 1 -8.1999999999999995e-01 -7.5886402372514592e+00 -5.8209355907407616e+00 -1.0816255314562792e+01 -2 3 2
1842 614 2 4.0999999999999998e-01 -1.3429201788444789e+01 -5.4930186400075947e+00 -1.2192495187593845e+01 3 1 3
1080 360 2 4.0999999999999998e-01 -7.6217726221898525e+00 -5.0402127712759217e+00 -1.1440285350465631e+01 -2 3 2
913 305 1 -8.1999999999999995e-01 -1.3394211931749368e+01 -1.1416087895763663e+01 -1.1765416085011548e+01 3 2 3
1934 645 2 4.0999999999999998e-01 -9.6608705145991305e+00 -6.0904036650513671e+00 -1.4594267085198402e+01 4 0 2
1079 360 2 4.0999999999999998e-01 -7.5806207996467148e+00 -6.6699049218612014e+00 -1.1344673885507618e+01 -2 3 2
2084 695 2 4.0999999999999998e-01 -1.3841627222635809e+01 -8.5493506009293281e+00 -1.4839064321052463e+01 4 3 4
1840 614 1 -8.1999999999999995e-01 -1.2702721434049549e+01 -5.8376649275097137e+00 -1.2787040914570445e+01 3 1 3
1122 374 2 4.0999999999999998e-01 -1.1194270863186176e+01 -1.3406522475299514e+01 -1.1204749201608585e+01 2 0 1
2589 863 2 4.0999999999999998e-01 -1.4238983996499588e+01 -6.0375011232348861e+00 -8.3745662311733575e+00 4 4 0
1348 450 1 -8.1999999999999995e-01 -1.0218397804712680e+01 -1.4628701880240584e+01 -1.4640068175481955e+01 1 2 0
2542 848 1 -8.1999999999999995e-01 -9.4275930490975668e+00 -7.5815974716040184e+00 -1.4832955144603007e+01 3 3 0
2120 707 2 4.0999999999999998e-01 -9.9805625340162205e+00 -1.3839693303806817e+01 -7.5994490459463098e+00 1 -1 2
915 305 2 4.0999999999999998e-01 -1.2858630909072838e+01 -1.0864844021654188e+01 -1.1125632865947173e+01 3 2 3
1515 505 2 4.0999999999999998e-01 -1.3679816442999703e+01 -1.0955247701820831e+01 -1.3502176144222238e+01 -1 2 0
1120 374 1 -8.1999999999999995e-01 -1.1793453937159690e+01 -1.3779603696118606e+01 -1.1913148423725215e+01 2 0 1
1543 515 1 -8.1999999999999995e-01 -1.2851060081383155e+01 -5.3586141745021756e+00 -9.6191483179844308e+00 4 5 -3
1390 464 1 -8.1999999999999995e-01 -9.1669499949536828e+00 -6.2779427292229517e+00 -8.5414883901041510e+00 3 -3 2
914 305 2 4.0999999999999998e-01 -1.3012107197632663e+01 -1.2339103009337894e+01 -1.1811006523694834e+01 3 2 3
1272 424 2 4.0999999999999998e-01 -8.0743196713095244e+00 -8.9254195508831877e+00 -9.9925494307439600e+00 -1 4 3
1293 431 2 4.0999999999999998e-01 -1.4248277323596628e+01 -7.4074877737042639e+00 -1.0435485731932417e+01 4 3 2
766 256 1 -8.1999999999999995e-01 -1.3515701286233021e+01 -1.3364735147135631e+01 -8.4969804439705428e+00 0 1 3
1513 505 1 -8.1999999999999995e-01 -1.3652825372292373e+01 -1.0446098358199645e+01 -1.4362453801410638e+01 -1 2 0
2121 707 2 4.0999999999999998e-01 -8.3562531941863938e+00 -1.3693818597704510e+01 -7.6835397365102720e+00 1 -1 2
768 256 2 4.0999999999999998e-01 -1.3747363693350868e+01 -1.2394596411750893e+01 -8.5691107159591233e+00 0 1 3
2119 707 1 -8.1999999999999995e-01 -9.2279232305497896e+00 -1.3276050763441461e+01 -7.9398613731761234e+00 1 -1 2
1514 505 2 4.0999999999999998e-01 -1.4320504319133915e+01 -1.0831871074705091e+01 -1.4999182653379920e+01 -1 2 0
1773 591 2 4.0999999999999998e-01 -1.0680581657021715e+01 -1.0612204698007782e+01 -1.4664714236563304e+01 1 -1 4
1349 450 2 4.0999999999999998e-01 -9.5449438543984897e+00 -1.4584463046403213e+01 -1.3902137203423576e+01 1 2 0
1772 591 2 4.0999999999999998e-01 -1.2141770306537408e+01 -9.9664797402581762e+00 -1.4326042566558872e+01 1 -1 4
2085 695 2 4.0999999999999998e-01 -1.2928228495326959e+01 -7.2260242847625262e+00 -1.4554035170933135e+01 4 3 4
19 7 1 -8.1999999999999995e-01 -1.3054675900485478e+01 -9.8425841418856663e+00 -7.6518576139927923e+00 1 2 4
1270 424 1 -8.1999999999999995e-01 -7.6181726375423686e+00 -9.4751366598356590e+00 -9.2927063103005718e+00 -1 4 3
618 206 2 4.0999999999999998e-01 -8.7899486101058599e+00 -1.0209456555837651e+01 -8.1743968990101550e+00 2 0 2
845 282 2 4.0999999999999998e-01 -1.4231235594618408e+01 -1.4372485928601330e+01 -1.4008541588294296e+01 0 -1 3
1933 645 1 -8.1999999999999995e-01 -9.7199404122395023e+00 -5.1102318181279625e+00 -1.4405023064036381e+01 4 0 2
199 67 1 -8.1999999999999995e-01 -9.7520946641779318e+00 -1.1754992050336728e+01 -1.4951946955827758e+01 -1 -1 1
1268 423 2 4.0999999999999998e-01 -1.2219606170770433e+01 -1.4066505698094048e+01 -8.0352126332838480e+00 5 2 3
1771 591 1 -8.1999999999999995e-01 -1.1173054368176121e+01 -9.7639914914304811e+00 -1.4469664652859167e+01 1 -1 4
200 67 2 4.0999999999999998e-01 -9.8809271809641892e+00 -1.2742656364415630e+01 -1.4862723681666498e+01 -1 -1 1
2543 848 2 4.0999999999999998e-01 -1.0155661050485554e+01 -8.2428675323494183e+00 -1.4652183768598826e+01 3 3 0
617 206 2 4.0999999999999998e-01 -9.5707036690697489e+00 -1.1514872086328035e+01 -7.5802223890789762e+00 2 0 2
1544 515 2 4.0999999999999998e-01 -1.3504794506407359e+01 -5.0231206087366775e+00 -1.0297465941640704e+01 4 5 -3
2083 695 1 -8.1999999999999995e-01 -1.3789561447992225e+01 -7.5558525982973315e+00 -1.4940503829363362e+01 4 3 4
1896 632 2 4.0999999999999998e-01 -2.8785816585017443e-01 -7.9997860652778741e+00 -1.1857599928602854e+01 1 2 -1
499 167 1 -8.1999999999999995e-01 -4.6561807078749116e+00 -6.6929314926499650e+00 -1.1616308552863028e+01 1 0 5
192 64 2 4.0999999999999998e-01 -7.4594326813025988e+00 -9.1457223341726515e+00 -1.2333628019693148e+01 4 2 2
190 64 1 -8.1999999999999995e-01 -7.1251913223338841e+00 -8.2200808038905304e+00 -1.2156117764176850e+01 4 2 2
1026 342 2 4.0999999999999998e-01 -6.0945801613237371e+00 -1.4961153189612634e+01 -8.4429222125197434e+00 6 1 3
1024 342 1 -8.1999999999999995e-01 -6.2954830136667006e+00 -1.4042256353603760e+01 -8.1033547476708101e+00 6 1 3
704 235 2 4.0999999999999998e-01 -2.0301171606389410e+00 -1.0120446520496554e+01 -7.7014125954407238e+00 -1 2 1
2318 773 2 4.0999999999999998e-01 -1.2730680589093932e+00 -8.9056440008947657e+00 -9.6207070425294994e+00 3 3 3
191 64 2 4.0999999999999998e-01 -6.7232381285534402e+00 -7.8449328892823065e+00 -1.2991424335789974e+01 4 2 2
1124 375 2 4.0999999999999998e-01 -4.3488839428441644e+00 -8.5825536147316299e+00 -1.1831662363003495e+01 1 0 -1
292 98 1 -8.1999999999999995e-01 -2.4263073296150584e+00 -1.4329287064232840e+01 -8.1875447250956057e+00 5 1 -2
2391 797 2 4.0999999999999998e-01 -4.4722158098569214e+00 -1.3982005412859372e+01 -1.0522175252080073e+01 3 3 2
1155 385 2 4.0999999999999998e-01 -6.3133234590127856e+00 -1.2489462182194117e+01 -9.2500284096564585e+00 -3 2 1
2264 755 2 4.0999999999999998e-01 -6.0421811770300771e+00 -5.4474425132515183e+00 -9.1802913934658807e+00 4 2 0
293 98 2 4.0999999999999998e-01 -2.9953978608451379e+00 -1.3982642802880338e+01 -8.9332076116541366e+00 5 1 -2
1763 588 2 4.0999999999999998e-01 -6.9889473852717110e-01 -1.3847041843318763e+01 -8.2143051789393553e+00 2 -1 3
111 37 2 4.0999999999999998e-01 -5.6600273534946126e+00 -1.0721384216109278e+01 -1.4305880932617672e+01 -1 -1 1
2265 755 2 4.0999999999999998e-01 -4.7125457431338162e+00 -5.9857371889072084e+00 -8.3998812347846847e+00 4 2 0
2317 773 1 -8.1999999999999995e-01 -1.2732740867820205e+00 -8.5319083069448460e+00 -1.0548263497348660e+01 3 3 3
2389 797 1 -8.1999999999999995e-01 -3.5306640076345470e+00 -1.3659810038126748e+01 -1.0620713361085180e+01 3 3 2
378 126 2 4.0999999999999998e-01 -4.3784966241798013e+00 -8.0436264014881953e+00 -8.7331343050676811e+00 0 1 0
560 187 2 4.0999999999999998e-01 -7.0847211814034488e+00 -1.4031374582247549e+01 -1.2928447717530311e+01 -1 0 3
464 155 2 4.0999999999999998e-01 -1.2676993863178350e+00 -7.2714853647359945e+00 -1.3451042411020172e+01 2 -1 2
2060 687 2 4.0999999999999998e-01 -3.6304087468315895e+00 -1.0537759428260562e+01 -9.9048837646592087e+00 0 0 1
2059 687 1 -8.1999999999999995e-01 -3.3551856505302950e+00 -1.1185515137037429e+01 -9.1944584110726169e+00 0 0 1
559 187 1 -8.1999999999999995e-01 -6.1844387315901610e+00 -1.3997998234674530e+01 -1.3362517852933475e+01 -1 0 3
2263 755 1 -8.1999999999999995e-01 -5.1969315874139550e+00 -5.1723648262029140e+00 -8.7221158617668131e+00 4 2 0
352 118 1 -8.1999999999999995e-01 -1.5434428549282000e+00 -1.1906836812407478e+01 -1.2707441614639905e+01 3 0 4
501 167 2 4.0999999999999998e-01 -4.2135032870185807e+00 -5.8291827139062882e+00 -1.1375447266950033e+01 1 0 5
1854 618 2 4.0999999999999998e-01 -3.3609076884713236e+00 -1.4654137111245472e+01 -1.4239858800871893e+01 2 -2 1
354 118 2 4.0999999999999998e-01 -2.0252083082677252e+00 -1.2740345703868421e+01 -1.2978004718029478e+01 3 0 4
1271 424 2 4.0999999999999998e-01 -6.7050103361521671e+00 -9.1053524312283116e+00 -9.1211438537828347e+00 -1 4 3
2390 797 2 4.0999999999999998e-01 -3.1586370368017498e+00 -1.3979012093829086e+01 -1.1492347109020079e+01 3 3 2
1853 618 2 4.0999999999999998e-01 -1.8798147201698363e+00 -1.5012274445334786e+01 -1.3652634099096245e+01 2 -2 1
2319 773 2 4.0999999999999998e-01 -2.1958205802535193e+00 -8.5881514971874999e+00 -1.0930080098658239e+01 3 3 3
376 126 1 -8.1999999999999995e-01 -5.1651431397950844e+00 -8.2644834758440311e+00 -9.3097179846192546e+00 0 1 0
561 187 2 4.0999999999999998e-01 -5.7899300086439442e+00 -1.3087002392996970e+01 -1.3242148591644128e+01 -1 0 3
465 155 2 4.0999999999999998e-01 -2.2936789203342300e+00 -6.2384757655939911e+00 -1.4190629279312049e+01 2 -1 2
500 167 2 4.0999999999999998e-01 -5.0166090942615771e+00 -6.6345078312652479e+00 -1.2547285138118280e+01 1 0 5
463 155 1 -8.1999999999999995e-01 -2.0553154797354836e+00 -7.2012796027041572e+00 -1.4063228207159446e+01 2 -1 2
1154 385 2 4.0999999999999998e-01 -6.4625796142828680e+00 -1.1136819426833645e+01 -1.0152697645495405e+01 -3 2 1
1852 618 1 -8.1999999999999995e-01 -2.7827891517297463e+00 -1.4648464045888234e+01 -1.3423901579462553e+01 2 -2 1
2061 687 2 4.0999999999999998e-01 -3.6016637579534230e+00 -1.2113044645970149e+01 -9.4754867967632528e+00 0 0 1
2535 845 2 4.0999999999999998e-01 -4.5817815971986722e+00 -1.0644302829174908e+01 -1.2471376669850134e+01 0 0 -2
377 126 2 4.0999999999999998e-01 -5.1383944779346074e+00 -7.7054471278886494e+00 -1.0138453323064304e+01 0 1 0
353 118 2 4.0999999999999998e-01 -2.1441782133055352e+00 -1.1117837529414103e+01 -1.2836424448572807e+01 3 0 4
2276 759 2 4.0999999999999998e-01 -5.5248695583197129e+00 -8.2487385601743739e+00 -1.4839494261877219e+01 1 1 -2
1153 385 1 -8.1999999999999995e-01 -6.2978867566984018e+00 -1.2122798712444782e+01 -1.0180275162505705e+01 -3 2 1
1125 375 2 4.0999999999999998e-01 -2.9981071260827488e+00 -8.4941452172895033e+00 -1.2745072141512528e+01 1 0 -1
1123 375 1 -8.1999999999999995e-01 -3.5746003888658233e+00 -9.0997119630758618e+00 -1.2196452225073646e+01 1 0 -1
2275 759 1 -8.1999999999999995e-01 -5.4847503295151423e+00 -7.3695683458872052e+00 -1.4364636847972807e+01 1 1 -2
2534 845 2 4.0999999999999998e-01 -5.6367551079207434e+00 -1.1646721675828248e+01 -1.1730486080598533e+01 0 0 -2
2533 845 1 -8.1999999999999995e-01 -5.1963197852727987e+00 -1.1422677387531374e+01 -1.2599888332291714e+01 0 0 -2
2420 807 2 4.0999999999999998e-01 -5.0116106513586391e+00 -1.3695385118388973e+01 -1.4899979926844871e+01 -1 1 3
314 105 2 4.0999999999999998e-01 -3.3057577094646806e+00 -8.5740131845150920e+00 -1.4898632097692541e+01 -1 1 0
2277 759 2 4.0999999999999998e-01 -5.6329503082776693e+00 -6.6293964177075200e+00 -1.5020549697905832e+01 1 1 -2
2135 712 2 4.0999999999999998e-01 -9.3650533295777514e+00 -1.0290222588118489e+01 -8.5578478951137527e-01 0 4 0
478 160 1 -8.1999999999999995e-01 -1.1270716590442639e+01 -1.1790352609429466e+01 -5.1799622711117781e+00 4 0 1
1671 557 2 4.0999999999999998e-01 -1.0696650657989826e+01 -8.2293530601368694e+00 -5.9959129169437002e+00 -1 1 0
1669 557 1 -8.1999999999999995e-01 -1.0467292028528954e+01 -8.2412441249432753e+00 -6.9692024900364746e+00 -1 1 0
1251 417 2 4.0999999999999998e-01 -8.5564535902381316e+00 -1.2759043065434618e+01 -4.9043505727782968e+00 1 0 0
1249 417 1 -8.1999999999999995e-01 -9.2152836668281175e+00 -1.3500998591479510e+01 -4.7799145201718058e+00 1 0 0
1161 387 2 4.0999999999999998e-01 -1.1215337609885099e+01 -1.0640399940102348e+01 -3.9028425746818058e+00 5 2 -1
791 264 2 4.0999999999999998e-01 -1.0274056776755762e+01 -6.8430810184107305e+00 -3.2462536191347997e+00 2 0 -1
790 264 1 -8.1999999999999995e-01 -9.9304904370956582e+00 -7.4611431406925286e+00 -3.9533609468534596e+00 2 0 -1
792 264 2 4.0999999999999998e-01 -1.0126452946794572e+01 -8.4067104267719444e+00 -3.6934756874746402e+00 2 0 -1
1159 387 1 -8.1999999999999995e-01 -1.0965522581117325e+01 -9.9679759190521580e+00 -3.2060802132153920e+00 5 2 -1
1250 417 2 4.0999999999999998e-01 -9.2393322645637941e+00 -1.3767286949527406e+01 -3.8163007213931692e+00 1 0 0
171 57 2 4.0999999999999998e-01 -8.9766524594108184e+00 -5.7736867504280820e+00 -6.7303098786465974e+00 1 -1 3
480 160 2 4.0999999999999998e-01 -1.2029971026569097e+01 -1.2171137920690624e+01 -5.7077639951241004e+00 4 0 1
87 29 2 4.0999999999999998e-01 -8.0669763667114225e+00 -1.2007796604892675e+01 -1.8569617316250664e-01 3 0 0
1160 387 2 4.0999999999999998e-01 -1.1520994313411940e+01 -1.0114143342036364e+01 -2.3874681984461663e+00 5 2 -1
2134 712 1 -8.1999999999999995e-01 -8.5642465044182146e+00 -1.0488308071808326e+01 -1.4210368923146337e+00 0 4 0
170 57 2 4.0999999999999998e-01 -9.0229391737295046e+00 -6.1323059010552576e+00 -5.1378333693241043e+00 1 -1 3
1610 537 2 4.0999999999999998e-01 -1.1408023055699530e+01 -6.2758545421950043e+00 -6.7221835949594162e+00 2 -1 2
1609 537 1 -8.1999999999999995e-01 -1.2236810302933829e+01 -5.7781706280566283e+00 -6.4663285438712244e+00 2 -1 2
1818 606 2 4.0999999999999998e-01 -8.2001770470380535e+00 -7.9621057742226293e+00 -4.2269165136553610e+00 2 -1 1
1611 537 2 4.0999999999999998e-01 -1.2762859198685069e+01 -5.5616252753087370e+00 -7.2887761588569617e+00 2 -1 2
2136 712 2 4.0999999999999998e-01 -8.8420884850908052e+00 -1.0560831397179932e+01 -2.3789427440029680e+00 0 4 0
1263 421 2 4.0999999999999998e-01 -1.3657921821232385e+01 -9.4561757242538622e+00 -1.7174709613174510e+00 5 3 6
1267 423 1 -8.1999999999999995e-01 -1.1678558633191971e+01 -1.4683638292623330e+01 -7.4638508137991320e+00 5 2 3
1261 421 1 -8.1999999999999995e-01 -1.3306355373768790e+01 -1.0386461406434956e+01 -1.6125473632739524e+00 5 3 6
172 58 1 -8.1999999999999995e-01 -9.8566676729195724e+00 -1.4428561908443287e+01 -1.9268254802014582e+00 5 2 1
1262 421 2 4.0999999999999998e-01 -1.3787017478667456e+01 -1.0997371176535733e+01 -2.2416678765419871e+00 5 3 6
169 57 1 -8.1999999999999995e-01 -8.6554905377696461e+00 -5.5030885600699051e+00 -5.8227467225909439e+00 1 -1 3
182 61 2 4.0999999999999998e-01 -1.1885141129559894e+01 -1.0940493950423665e+01 -3.8271883062850520e-01 3 3 0
479 160 2 4.0999999999999998e-01 -1.0600482801290912e+01 -1.2508898542896162e+01 -4.9941725431202340e+00 4 0 1
1670 557 2 4.0999999999999998e-01 -1.0102506462047080e+01 -9.1393988987852737e+00 -7.2147405279145609e+00 -1 1 0
20 7 2 4.0999999999999998e-01 -1.2262799165432350e+01 -1.0035636926328880e+01 -7.0724603167887805e+00 1 2 4
2453 818 2 4.0999999999999998e-01 -1.3931385691911743e+01 -6.3044195701576555e+00 -3.9468606571047893e-01 1 -2 4
1050 350 2 4.0999999999999998e-01 -8.0411043209903390e+00 -6.1016051422244288e+00 -2.1453085471446016e+00 4 1 -1
1585 529 1 -8.1999999999999995e-01 -1.4353073961816529e+01 -1.4191381819198520e+01 -5.8208907370300889e+00 5 1 1
2140 714 1 -8.1999999999999995e-01 -7.9553348022272754e+00 -1.1060145225969674e+01 -5.0285077130636147e+00 1 4 2
2236 746 1 -8.1999999999999995e-01 -1.3497594992721309e+01 -1.3746245627951339e+01 -3.4425550583251123e+00 4 2 4
2141 714 2 4.0999999999999998e-01 -7.6036000021402232e+00 -1.0195427410287898e+01 -4.6699200214932670e+00 1 4 2
1288 430 1 -8.1999999999999995e-01 -1.4952859305274625e+01 -8.2038046792542936e+00 -2.5164948637285409e+00 3 2 4
2237 746 2 4.0999999999999998e-01 -1.3873971074975442e+01 -1.4038019004187985e+01 -4.3219007080585232e+00 4 2 4
1587 529 2 4.0999999999999998e-01 -1.4034232784807976e+01 -1.3606666098293829e+01 -6.5668714295395461e+00 5 1 1
196 66 1 -8.1999999999999995e-01 -1.0092992121133374e+01 -5.6165214974630917e+00 -1.8409654771479165e+00 1 -3 4
181 61 1 -8.1999999999999995e-01 -1.0957474998478673e+01 -1.0813647786734471e+01 -3.1456843621628039e-02 3 3 0
2238 746 2 4.0999999999999998e-01 -1.4179963923073188e+01 -1.3205192225041262e+01 -2.9509523263040549e+00 4 2 4
2452 818 1 -8.1999999999999995e-01 -1.4747061131495565e+01 -6.1319689748638044e+00 -9.4693037998909801e-01 1 -2 4
2142 714 2 4.0999999999999998e-01 -8.3144266876028112e+00 -1.0917090185368137e+01 -5.9508024327241227e+00 1 4 2
1289 430 2 4.0999999999999998e-01 -1.4825701743889597e+01 -7.4481385025726157e+00 -1.8739693698072433e+00 3 2 4
995 332 2 4.0999999999999998e-01 -1.4215102251176875e+01 -8.3435667402259526e+00 -4.6480750481661204e+00 2 2 1
21 7 2 4.0999999999999998e-01 -1.3640126521223051e+01 -9.1679606861259479e+00 -7.2022243171755411e+00 1 2 4
996 332 2 4.0999999999999998e-01 -1.4550857655392360e+01 -7.3776974036730518e+00 -5.9212978429293734e+00 2 2 1
994 332 1 -8.1999999999999995e-01 -1.4367485613442861e+01 -8.3184817475231903e+00 -5.6360980477630633e+00 2 2 1
198 66 2 4.0999999999999998e-01 -9.4435721628822655e+00 -5.3772479534569655e+00 -1.1191335763934021e+00 1 -3 4
174 58 2 4.0999999999999998e-01 -1.0264810047568835e+01 -1.3981946865614734e+01 -1.1305879374489809e+00 5 2 1
2255 752 2 4.0999999999999998e-01 -1.3712407356971681e+01 -1.1593485905141385e+01 -2.8658875864213407e-01 4 3 3
1130 377 2 4.0999999999999998e-01 -1.3480577249075392e+01 -5.0870882761527039e+00 -5.4337557391196878e+00 3 -1 6
616 206 1 -8.1999999999999995e-01 -9.3944307168655747e+00 -1.0539265478234404e+01 -7.4492301069920739e+00 2 0 2
862 288 1 -8.1999999999999995e-01 -6.5015729248912635e-02 -1.3401720478587400e+01 -5.1152751990026477e+00 -1 0 1
1025 342 2 4.0999999999999998e-01 -5.6181130261313488e+00 -1.3786284326805530e+01 -7.4136536564450610e+00 6 1 3
2091 697 2 4.0999999999999998e-01 -7.1041684290640612e+00 -9.3900254058920574e+00 -1.1840734668286093e+00 6 2 2
1696 566 1 -8.1999999999999995e-01 -9.4849679179777269e-02 -1.1151813638304263e+01 -3.7374883692043444e+00 -1 -1 2
2374 792 1 -8.1999999999999995e-01 -1.6217752251757034e-02 -8.5453969425668355e+00 -2.9690720055572015e+00 0 3 2
633 211 2 4.0999999999999998e-01 -6.7157657049318669e+00 -5.7559213238557838e+00 -5.7616732860152506e+00 0 2 4
1048 350 1 -8.1999999999999995e-01 -7.1141869074180919e+00 -6.2124430078016584e+00 -1.7867301562465485e+00 4 1 -1
1816 606 1 -8.1999999999999995e-01 -7.2742850600982800e+00 -8.2985008816407735e+00 -4.0548649489071558e+00 2 -1 1
2375 792 2 4.0999999999999998e-01 -1.0080225734059773e+00 -8.4175239151021692e+00 -2.9723980945856816e+00 0 3 2
294 98 2 4.0999999999999998e-01 -2.8755826819289165e+00 -1.4147041461505411e+01 -7.3129147371165502e+00 5 1 -2
1224 408 2 4.0999999999999998e-01 -1.1529448612508393e+00 -7.1232398826211014e+00 -4.9775647618485177e+00 -2 0 2
632 211 2 4.0999999999999998e-01 -5.3766391731169279e+00 -5.4847054691359176e+00 -4.8672944469083088e+00 0 2 4
397 133 1 -8.1999999999999995e-01 -1.7709376719003291e+00 -1.4366895478350902e+01 -2.9669626830883153e+00 -2 3 -2
398 133 2 4.0999999999999998e-01 -2.5452768361588145e+00 -1.4800022769627112e+01 -3.4283073341809747e+00 -2 3 -2
674 225 2 4.0999999999999998e-01 -2.6424106704281520e+00 -5.1713189533525199e+00 -1.6664030332078639e+00 0 1 -1
366 122 2 4.0999999999999998e-01 -5.0757602955852690e+00 -6.0064121098647263e+00 -1.6630804772698866e+00 4 0 0
1072 358 1 -8.1999999999999995e-01 -2.8046297514273846e+00 -1.2649207305571405e+01 -1.1035425628852664e+00 -1 -2 4
2089 697 1 -8.1999999999999995e-01 -6.4468912370589599e+00 -8.7202842772152032e+00 -8.3842495082799218e-01 6 2 2
80 27 2 4.0999999999999998e-01 -3.2267795708416092e+00 -1.0776132752415236e+01 -1.0788355111436800e+00 5 0 -1
1714 572 1 -8.1999999999999995e-01 -2.8916215695034708e-01 -1.4646641212279908e+01 -5.3102940027788037e-01 2 1 3
1034 345 2 4.0999999999999998e-01 -3.1180043259547929e+00 -7.3293336208152535e+00 -6.7889939869706133e+00 4 4 2
1033 345 1 -8.1999999999999995e-01 -4.0022587478304832e+00 -7.2521312951990495e+00 -7.2496167284597002e+00 4 4 2
365 122 2 4.0999999999999998e-01 -4.2121724348235041e+00 -6.4408931051003115e+00 -3.4695978054594612e-01 4 0 0
41 14 2 4.0999999999999998e-01 -6.4330318196027747e-02 -5.1240424012745844e+00 -7.2118833474732460e+00 -2 1 3
364 122 1 -8.1999999999999995e-01 -4.2301525051551945e+00 -5.8491671708218949e+00 -1.1529228869107175e+00 4 0 0
1101 367 2 4.0999999999999998e-01 -5.0623205163807938e+00 -1.3746618101460738e+01 -3.0719291526986101e+00 0 1 0
1074 358 2 4.0999999999999998e-01 -2.5451900534263547e+00 -1.3135114435067187e+01 -1.9381830230472943e+00 -1 -2 4
260 87 2 4.0999999999999998e-01 -5.8461291417302927e+00 -1.4395073762452522e+01 -4.7187880330567644e-01 -3 -2 3
1222 408 1 -8.1999999999999995e-01 -1.8113209722579118e+00 -7.7879217557394371e+00 -5.3308044705939963e+00 -2 0 2
1223 408 2 4.0999999999999998e-01 -2.4887826452165580e+00 -7.9936844971058454e+00 -4.6245844304578778e+00 -2 0 2
506 169 2 4.0999999999999998e-01 -5.7095736004177766e+00 -1.1452458243428474e+01 -2.2513190070833442e+00 0 0 -1
1715 572 2 4.0999999999999998e-01 -7.7488432798047668e-01 -1.4584305985932437e+01 -1.4029397787035673e+00 2 1 3
776 259 2 4.0999999999999998e-01 -4.3145708449779470e+00 -1.3904204113994066e+01 -5.2044501584003431e+00 2 0 1
1099 367 1 -8.1999999999999995e-01 -4.5318176169914004e+00 -1.4474125849718595e+01 -3.5070596721908345e+00 0 1 0
2104 702 1 -8.1999999999999995e-01 -2.6492404101199334e+00 -7.8443305961321377e+00 -2.5128035172446417e+00 2 3 0
2105 702 2 4.0999999999999998e-01 -2.0374321691923303e+00 -7.7742537172443136e+00 -1.7248826496237584e+00 2 3 0
1817 606 2 4.0999999999999998e-01 -6.6123497743448674e+00 -7.6945556961439534e+00 -4.4988596599704689e+00 2 -1 1
775 259 1 -8.1999999999999995e-01 -4.1765141477795567e+00 -1.3385380684428254e+01 -6.0481336771557785e+00 2 0 1
403 135 1 -8.1999999999999995e-01 -4.2934068753430132e-01 -1.0040799291093798e+01 -1.6015098542783512e-01 -2 0 1
399 133 2 4.0999999999999998e-01 -1.2630871766579848e+00 -1.3807461224125367e+01 -3.6220661091617981e+00 -2 3 -2
777 259 2 4.0999999999999998e-01 -3.7292030969687140e+00 -1.2516564010281513e+01 -5.8357431756376155e+00 2 0 1
81 27 2 4.0999999999999998e-01 -3.4475506834653640e+00 -9.2966362729008907e+00 -1.7338788273713828e+00 5 0 -1
1073 358 2 4.0999999999999998e-01 -3.7282570891656981e+00 -1.2920898218522733e+01 -8.3310599475912639e-01 -1 -2 4
505 169 1 -8.1999999999999995e-01 -5.7252265748536075e+00 -1.2179915762610088e+01 -2.9373218830252252e+00 0 0 -1
1035 345 2 4.0999999999999998e-01 -4.7329317573285028e+00 -7.2316944616664598e+00 -6.5671662271194631e+00 4 4 2
507 169 2 4.0999999999999998e-01 -6.5666124190437198e+00 -1.2114135469943314e+01 -3.4737752478082609e+00 0 0 -1
705 235 2 4.0999999999999998e-01 -1.4561996929568686e+00 -9.0511273391409688e+00 -6.6087521735623653e+00 -1 2 1
631 211 1 -8.1999999999999995e-01 -5.8380925631367617e+00 -6.1360231262727289e+00 -5.4696942011876697e+00 0 2 4
974 325 2 4.0999999999999998e-01 -1.9625857154965107e+00 -1.1011152085540278e+01 -4.1995525041870359e+00 2 0 4
973 325 1 -8.1999999999999995e-01 -2.8293339131077158e+00 -1.1359110774498879e+01 -4.5569202530074850e+00 2 0 4
2090 697 2 4.0999999999999998e-01 -5.5230024139775917e+00 -8.9882804356606982e+00 -1.1116407744025256e+00 6 2 2
79 27 1 -8.1999999999999995e-01 -3.8858855583737189e+00 -1.0170943120755243e+01 -1.5253376158008187e+00 5 0 -1
975 325 2 4.0999999999999998e-01 -3.4969661849296276e+00 -1.1416402025909987e+01 -3.8146101732715536e+00 2 0 4
1049 350 2 4.0999999999999998e-01 -7.0091234650039222e+00 -7.1343129559559104e+00 -1.4136928364021184e+00 4 1 -1
2106 702 2 4.0999999999999998e-01 -3.3348026614944075e+00 -7.1176602053884581e+00 -2.4681499975902437e+00 2 3 0
1698 566 2 4.0999999999999998e-01 -1.8018499524496079e-01 -1.1965173652361750e+01 -4.3129905535571194e+00 -1 -1 2
703 235 1 -8.1999999999999995e-01 -1.2044286094961443e+00 -9.6935076701696623e+00 -7.3326294031159813e+00 -1 2 1
863 288 2 4.0999999999999998e-01 -2.4388250972530656e-01 -1.3319965433670070e+01 -6.0957659762883836e+00 -1 0 1
455 152 2 4.0999999999999998e-01 -9.9286910491005269e+00 -7.9863432811240465e+00 1.0022379998658302e+00 -1 0 2
682 228 1 -8.1999999999999995e-01 -1.2356458381105337e+01 -1.2417102738991565e+01 2.8719120483102429e+00 2 3 -1
454 152 1 -8.1999999999999995e-01 -1.0869599434594559e+01 -8.2477208526998567e+00 1.2176735541680586e+00 -1 0 2
1663 555 1 -8.1999999999999995e-01 -1.0208553185040968e+01 -1.3627577966561445e+01 5.8765333782065099e-01 1 2 1
1664 555 2 4.0999999999999998e-01 -9.3058442649224755e+00 -1.3360753350860048e+01 9.2523390677225592e-01 1 2 1
284 95 2 4.0999999999999998e-01 -9.4792656498231036e+00 -1.1987738599040467e+01 5.7136935479176394e+00 1 4 3
257 86 2 4.0999999999999998e-01 -1.1281249926603854e+01 -8.9854426339434070e+00 3.0503198259236832e+00 -2 1 2
1996 666 1 -8.1999999999999995e-01 -1.2514103897476279e+01 -6.0523944115349941e+00 7.6989315156566818e-01 2 5 0
1997 666 2 4.0999999999999998e-01 -1.1766484829684025e+01 -6.6582173439147887e+00 1.0420763835739884e+00 2 5 0
858 286 2 4.0999999999999998e-01 -1.1495581264050115e+01 -1.3300276975633063e+01 6.6498624122257795e+00 -1 2 3
1839 613 2 4.0999999999999998e-01 -1.4558842802938653e+01 -7.8800970768770311e+00 3.8607535813896092e+00 4 -1 1
683 228 2 4.0999999999999998e-01 -1.2282956330550610e+01 -1.1455062739751801e+01 3.1348110802243525e+00 2 3 -1
1657 553 1 -8.1999999999999995e-01 -1.3238137691527269e+01 -1.4913557053314399e+01 3.3597009788800065e+00 3 1 1
283 95 1 -8.1999999999999995e-01 -1.0468973916078220e+01 -1.2016209861899627e+01 5.5733144110652795e+00 1 4 3
256 86 1 -8.1999999999999995e-01 -1.1786608696325150e+01 -9.6696096972269050e+00 3.5762165308580265e+00 -2 1 2
258 86 2 4.0999999999999998e-01 -1.2506490870439588e+01 -9.2191398400936109e+00 4.1043130757689958e+00 -2 1 2
1658 553 2 4.0999999999999998e-01 -1.2693089858690476e+01 -1.4083686702946627e+01 3.2402127179150888e+00 3 1 1
684 228 2 4.0999999999999998e-01 -1.2971972264219509e+01 -1.2502441066015257e+01 2.0883946872341639e+00 2 3 -1
1478 493 2 4.0999999999999998e-01 -1.4515317601193411e+01 -8.6081795892862321e+00 5.7163388018360806e+00 -2 2 0
285 95 2 4.0999999999999998e-01 -1.0669299424917162e+01 -1.1942875285780293e+01 4.5963133978930770e+00 1 4 3
857 286 2 4.0999999999999998e-01 -1.3040414050747243e+01 -1.3751161499502468e+01 6.9272181090728466e+00 -1 2 3
1565 522 2 4.0999999999999998e-01 -7.7237328385720287e+00 -8.1769187140480604e+00 7.7061483423442212e-02 2 3 3
1321 441 1 -8.1999999999999995e-01 -8.4333341696256845e+00 -1.4176215763886375e+01 3.7693727349480071e+00 2 -1 0
1477 493 1 -8.1999999999999995e-01 -1.3617665686424488e+01 -8.6967027674261708e+00 5.2845702360696833e+00 -2 2 0
1202 401 2 4.0999999999999998e-01 -1.0781055858233927e+01 -5.1529220762655008e+00 4.2161365223194878e+00 1 3 7
1998 666 2 4.0999999999999998e-01 -1.2508932514244519e+01 -5.2362125078809214e+00 1.3476991413811099e+00 2 5 0
1479 493 2 4.0999999999999998e-01 -1.2976364198118471e+01 -9.1105788590408707e+00 5.9306959167042415e+00 -2 2 0