LAMMPS data file via write_data, version 15 May 2015, timestep = 23005000

2611 atoms
6 atom types
1749 bonds
4 bond types
894 angles
3 angle types
44 dihedrals
3 dihedral types
10 impropers
1 improper types

-1.4935202867685453e+01 1.4935202867685453e+01 xlo xhi
-1.4935202867685453e+01 1.4935202867685453e+01 ylo yhi
-1.4935202867685453e+01 1.4935202867685453e+01 zlo zhi

Masses

1 15.9994
2 1.00794
3 12.0107
4 1.00794
5 12.0107
6 12.0107

Bond Coeffs # harmonic

1 1000 1
2 469 1.4
3 367 1.08
4 469 0.7

Angle Coeffs # harmonic

1 100 109.47
2 35 120
3 63 120

Dihedral Coeffs # opls

1 0 7.25 0 0
2 0 7.25 0 0
3 0 7.25 0 0

Improper Coeffs # cvff

1 2.5 -1 2

Atoms # full

1836 612 2 4.0999999999999998e-01 -1.3365253221985782e+01 -1.0407104295665000e+01 -1.1134880052097985e+01 0 -5 1
513 171 2 4.0999999999999998e-01 -1.4561032736515422e+01 -1.1300481177370070e+01 -9.2790458394327473e+00 2 -3 -3
1352 451 2 4.0999999999999998e-01 -1.1922155289502250e+01 -1.0219555771864997e+01 -9.6038062564960995e+00 -4 6 -4
2200 734 1 -8.1999999999999995e-01 -9.6697566047093630e+00 -7.8396865532079767e+00 -1.3995311195285298e+01 0 -6 3
2201 734 2 4.0999999999999998e-01 -1.0413971602054115e+01 -7.6595545768753723e+00 -1.3352208530875256e+01 0 -6 3
472 158 1 -8.1999999999999995e-01 -1.1760951120189599e+01 -9.9699387944206173e+00 -1.4117787542468291e+01 1 -2 5
1834 612 1 -8.1999999999999995e-01 -1.2406348736253417e+01 -1.0364259809743986e+01 -1.1415149667658023e+01 0 -5 1
474 158 2 4.0999999999999998e-01 -1.1126363598032519e+01 -9.2234667149968033e+00 -1.4317694035781555e+01 1 -2 5
1835 612 2 4.0999999999999998e-01 -1.2350097687582732e+01 -1.0374955853866108e+01 -1.2413451199449986e+01 0 -5 1
1446 482 2 4.0999999999999998e-01 -8.8538075160957472e+00 -1.2636668548514981e+01 -8.8490074126682430e+00 4 -9 -3
877 293 1 -8.1999999999999995e-01 -1.2077800538827479e+01 -6.9260623402483041e+00 -1.2898103368764000e+01 0 5 0
879 293 2 4.0999999999999998e-01 -1.2578759402742197e+01 -7.3519866368375260e+00 -1.2144768632610166e+01 0 5 0
381 127 2 4.0999999999999998e-01 -1.0870986352705064e+01 -1.2265105226825522e+01 -1.3720877664470217e+01 2 -2 9
379 127 1 -8.1999999999999995e-01 -1.1451660646928222e+01 -1.3053027642629697e+01 -1.3516231339496215e+01 2 -2 9
1444 482 1 -8.1999999999999995e-01 -7.9186341916457854e+00 -1.2496084109093099e+01 -9.1739253703539845e+00 4 -9 -3
973 325 1 -8.1999999999999995e-01 -1.2421118630505671e+01 -1.4761594445791488e+01 -8.6210614575738092e+00 2 0 1
380 127 2 4.0999999999999998e-01 -1.1398966025977888e+01 -1.3261185626190368e+01 -1.2539615714288946e+01 2 -2 9
1745 582 2 4.0999999999999998e-01 -1.4795575205070392e+01 -8.5767321998044483e+00 -1.3182802168927104e+01 3 2 -1
974 325 2 4.0999999999999998e-01 -1.2796851626460549e+01 -1.4756496343464205e+01 -7.6944098349057342e+00 2 0 1
1351 451 1 -8.1999999999999995e-01 -1.2046688450668212e+01 -1.0247206393919264e+01 -8.6120343883047532e+00 -4 6 -4
1962 654 2 4.0999999999999998e-01 -1.1836081469836062e+01 -1.3948555032971324e+01 -1.0103748792955779e+01 4 -2 0
208 70 1 -8.1999999999999995e-01 -1.3534477443842317e+01 -7.6459146868300696e+00 -1.0532841023097168e+01 0 -2 2
1675 559 1 -8.1999999999999995e-01 -8.9345860846545548e+00 -1.2001980787376995e+01 -1.4418443923600581e+01 4 4 2
1961 654 2 4.0999999999999998e-01 -1.2010330044199520e+01 -1.2594049330706820e+01 -1.0998885748155825e+01 4 -2 0
511 171 1 -8.1999999999999995e-01 -1.4326250057949762e+01 -1.1833763983893007e+01 -8.4664136655901139e+00 2 -3 -3
615 205 2 4.0999999999999998e-01 -1.0695447793243687e+01 -5.1722076416541416e+00 -1.2861042892417476e+01 1 -4 1
2411 804 2 4.0999999999999998e-01 -1.3373665791643244e+01 -1.3446398887046882e+01 -1.3970085712602108e+01 3 4 5
2471 824 2 4.0999999999999998e-01 -1.2890457444491453e+01 -6.5613299790553405e+00 -9.3142350404235685e+00 6 2 1
2202 734 2 4.0999999999999998e-01 -8.9144195834237223e+00 -7.2094579283446940e+00 -1.3815970933629339e+01 0 -6 3
315 105 2 4.0999999999999998e-01 -1.0457388531595996e+01 -1.4103260636171154e+01 -8.1327806865617411e+00 -1 0 3
2472 824 2 4.0999999999999998e-01 -1.2072811801171833e+01 -6.5580684491485499e+00 -7.9008124131410300e+00 6 2 1
1353 451 2 4.0999999999999998e-01 -1.1504067013907878e+01 -9.5223987389733900e+00 -8.1876520138238380e+00 -4 6 -4
1140 380 2 4.0999999999999998e-01 -1.3891527543564846e+01 -6.1970744654169181e+00 -1.4712944051382500e+01 2 -5 5
1448 483 2 4.0999999999999998e-01 -8.1412026110493816e+00 -1.2214892280983742e+01 -1.2864512475247597e+01 4 -1 -2
209 70 2 4.0999999999999998e-01 -1.4216895436793068e+01 -7.2463521350835718e+00 -1.1144837696708759e+01 0 -2 2
210 70 2 4.0999999999999998e-01 -1.3530986602754057e+01 -8.6399662201366461e+00 -1.0641163935880373e+01 0 -2 2
1960 654 1 -8.1999999999999995e-01 -1.1407970579256123e+01 -1.3365495318558821e+01 -1.0794145030218113e+01 4 -2 0
1447 483 1 -8.1999999999999995e-01 -7.5369631725995729e+00 -1.2532865812975150e+01 -1.2133983839152917e+01 4 -1 -2
1445 482 2 4.0999999999999998e-01 -7.8858054159012649e+00 -1.2632135647855250e+01 -1.0164024793515967e+01 4 -9 -3
520 174 1 -8.1999999999999995e-01 -9.1537502402156505e+00 -8.9379011492222418e+00 -8.9920563772933058e+00 7 -2 0
682 228 1 -8.1999999999999995e-01 -7.7339036948661297e+00 -6.0475995781179215e+00 -1.3175328661895923e+01 8 -1 1
521 174 2 4.0999999999999998e-01 -8.9484707375424151e+00 -8.2726732159684957e+00 -9.7098423523934798e+00 7 -2 0
2410 804 1 -8.1999999999999995e-01 -1.4144447408294349e+01 -1.3977729970614558e+01 -1.4321465112133220e+01 3 4 5
92 31 2 4.0999999999999998e-01 -8.9793101162589934e+00 -4.9932753270394663e+00 -9.8675966356192024e+00 5 3 -1
1746 582 2 4.0999999999999998e-01 -1.4310941402893640e+01 -9.4213263481400507e+00 -1.4493568888200054e+01 3 2 -1
2470 824 1 -8.1999999999999995e-01 -1.2476422081059116e+01 -5.9824134770732194e+00 -8.6118712144520106e+00 6 2 1
342 114 2 4.0999999999999998e-01 -1.0645185395015465e+01 -1.4154373029260601e+01 -1.4762195182143877e+01 4 -1 0
2163 721 2 4.0999999999999998e-01 -1.4819413404646737e+01 -1.3235228156542103e+01 -7.4690640453814998e+00 3 -2 1
614 205 2 4.0999999999999998e-01 -9.1806582494164726e+00 -5.4043026746503191e+00 -1.2297249494946751e+01 1 -4 1
522 174 2 4.0999999999999998e-01 -8.4362480285009411e+00 -9.6339458943739089e+00 -8.9676272634628020e+00 7 -2 0
263 88 2 4.0999999999999998e-01 -1.4880151758373229e+01 -6.2010763124474249e+00 -1.3262197873309280e+01 -2 -3 4
878 293 2 4.0999999999999998e-01 -1.2616767556157900e+01 -6.9944590594171725e+00 -1.3737579948499537e+01 0 5 0
1744 582 1 -8.1999999999999995e-01 -1.4702602331768075e+01 -9.4913291448520098e+00 -1.3576188890510121e+01 3 2 -1
512 171 2 4.0999999999999998e-01 -1.3362758867842306e+01 -1.1690371605713089e+01 -8.2405644539539296e+00 2 -3 -3
1320 440 2 4.0999999999999998e-01 -1.4136793497154704e+01 -6.2022930047658793e+00 -7.6114297883844495e+00 -2 -3 -4
252 84 2 4.0999999999999998e-01 -9.8257444050294325e+00 -1.4171766705370974e+01 -1.0840313578862352e+01 5 7 0
1865 622 2 4.0999999999999998e-01 -1.0283598815168501e+01 -7.6875653589199251e+00 -7.5110389188159319e+00 0 1 -3
1851 617 2 4.0999999999999998e-01 -8.8694509069980469e+00 -5.2970021628465940e+00 -1.4748763116670686e+01 2 -3 4
1677 559 2 4.0999999999999998e-01 -9.4212851566616003e+00 -1.1143838936276023e+01 -1.4581543066259355e+01 4 4 2
1032 344 2 4.0999999999999998e-01 -1.8676210593838647e+00 -8.2595518648898754e+00 -8.2465131137042427e+00 1 -6 4
2377 793 1 -8.1999999999999995e-01 -3.7871570242879145e+00 -8.3595386885028340e+00 -8.2160990884914042e+00 11 2 -1
771 257 2 4.0999999999999998e-01 -2.7955020644002033e+00 -6.5453618256858750e+00 -1.0260936514638502e+01 7 -1 -2
5 2 2 4.0999999999999998e-01 -1.0213794715234030e+00 -7.0693428687164044e+00 -1.4495409985111307e+01 -3 0 -2
1906 636 1 -8.1999999999999995e-01 -4.2064820595607930e+00 -1.4106729415582624e+01 -9.5764830212286931e+00 0 3 0
1741 581 1 -8.1999999999999995e-01 -2.7767980100456935e+00 -1.0482531538788130e+01 -1.3162483903811076e+01 0 0 -1
2490 830 2 4.0999999999999998e-01 -4.3035732326614990e+00 -7.4766765962139630e+00 -1.4162292453534537e+01 3 -3 2
1933 645 1 -8.1999999999999995e-01 -2.6566158864723022e-01 -7.0380826618950438e+00 -1.0515595755940623e+01 4 -1 1
684 228 2 4.0999999999999998e-01 -7.4203366344116537e+00 -6.7566618106204945e+00 -1.2543829598182258e+01 8 -1 1
35 12 2 4.0999999999999998e-01 -6.3243810856131457e+00 -7.1225388842537392e+00 -8.3205549104782861e+00 -2 -1 3
1449 483 2 4.0999999999999998e-01 -6.8558527135011609e+00 -1.1828456496763405e+01 -1.1934533147773069e+01 4 -1 -2
1908 636 2 4.0999999999999998e-01 -3.8125314049476771e+00 -1.3692813774410745e+01 -1.0397068980639187e+01 0 3 0
300 100 2 4.0999999999999998e-01 -5.7472004002371708e+00 -1.0201738652522081e+01 -8.2674902139726072e+00 -4 1 3
34 12 1 -8.1999999999999995e-01 -5.6267363507757846e+00 -6.6026488650322044e+00 -8.8133943451939807e+00 -2 -1 3
2561 854 2 4.0999999999999998e-01 -6.4538575141834897e+00 -8.6942889976208697e+00 -1.1119487935393767e+01 2 2 6
1769 590 2 4.0999999999999998e-01 -1.7032500862234485e+00 -1.2427064783186093e+01 -8.4852867462354382e+00 3 -5 3
2489 830 2 4.0999999999999998e-01 -4.2633688463816561e+00 -7.4252544715773121e+00 -1.2530710858084115e+01 3 -3 2
683 228 2 4.0999999999999998e-01 -6.9771845330864695e+00 -5.4277693528284061e+00 -1.3382864517918804e+01 8 -1 1
1934 645 2 4.0999999999999998e-01 -7.0639494806630765e-01 -7.8957272321943242e+00 -1.0780331585509700e+01 4 -1 1
2562 854 2 4.0999999999999998e-01 -6.5079106881003987e+00 -7.2298859814546841e+00 -1.0399126510736703e+01 2 2 6
2560 854 1 -8.1999999999999995e-01 -6.9722249848259814e+00 -7.8430804671164109e+00 -1.1038101689064998e+01 2 2 6
36 12 2 4.0999999999999998e-01 -5.7486325754589362e+00 -5.6267487899741333e+00 -8.6327153615939203e+00 -2 -1 3
896 299 2 4.0999999999999998e-01 -4.1332735799950644e+00 -1.3235778989885514e+01 -1.2066805730129747e+01 1 2 1
1879 627 1 -8.1999999999999995e-01 -5.9026702413936984e+00 -1.0443894009916072e+01 -1.1731380856560270e+01 2 0 1
282 94 2 4.0999999999999998e-01 -5.5664515346197980e+00 -1.4576755130930362e+01 -1.3259500237506463e+01 1 -5 2
1172 391 2 4.0999999999999998e-01 -1.1232626370843182e+00 -1.3958157188382524e+01 -1.0596497635897542e+01 -1 -3 3
281 94 2 4.0999999999999998e-01 -6.2042711450238226e+00 -1.3760154642015699e+01 -1.1997490613099448e+01 1 -5 2
988 330 1 -8.1999999999999995e-01 -1.7131276515447524e-01 -5.4752865685014029e+00 -7.7366447615401572e+00 4 -2 4
1743 581 2 4.0999999999999998e-01 -2.1210873118182310e+00 -9.9727431624874026e+00 -1.2605668129158513e+01 0 0 -1
895 299 1 -8.1999999999999995e-01 -3.3126393730536794e+00 -1.2762124351559294e+01 -1.1747282225225891e+01 1 2 1
770 257 2 4.0999999999999998e-01 -3.8263917085509362e+00 -5.6738011555605272e+00 -1.1179613248993137e+01 7 -1 -2
1881 627 2 4.0999999999999998e-01 -5.8629816332159912e+00 -1.0380762350932979e+01 -1.0734222999134076e+01 2 0 1
1127 376 2 4.0999999999999998e-01 -1.7136148322897569e+00 -1.4436448214286839e+01 -1.3625462441732513e+01 4 1 9
1126 376 1 -8.1999999999999995e-01 -2.1544090705574153e+00 -1.4268972476342899e+01 -1.4507243000626270e+01 4 1 9
427 143 1 -8.1999999999999995e-01 -9.0944179413398274e-01 -5.9996461114319910e+00 -1.2973610171840111e+01 2 -5 -2
429 143 2 4.0999999999999998e-01 -2.5437805391359802e-01 -6.4045436368425364e+00 -1.2335774795747570e+01 2 -5 -2
922 308 1 -8.1999999999999995e-01 -8.7707642587801438e-01 -9.3853568386626769e+00 -1.1690348322313991e+01 3 -2 3
1880 627 2 4.0999999999999998e-01 -4.9979089374464589e+00 -1.0256087835358681e+01 -1.2113506901358907e+01 2 0 1
298 100 1 -8.1999999999999995e-01 -6.2815508226973886e+00 -1.0396572011603400e+01 -9.0899220142891082e+00 -4 1 3
280 94 1 -8.1999999999999995e-01 -5.5139442646539756e+00 -1.4429527445727059e+01 -1.2271850718637177e+01 1 -5 2
2378 793 2 4.0999999999999998e-01 -4.3348586613131310e+00 -7.5846975647862456e+00 -8.5315806794227047e+00 11 2 -1
299 100 2 4.0999999999999998e-01 -6.8321072126689906e+00 -1.1218232361604663e+01 -8.9427947178248601e+00 -4 1 3
1742 581 2 4.0999999999999998e-01 -3.2675948248831617e+00 -9.8503001309806599e+00 -1.3761888989907346e+01 0 0 -1
977 326 2 4.0999999999999998e-01 -5.2985045386380847e+00 -1.3658476976014889e+01 -7.9371483937636329e+00 4 1 8
1768 590 1 -8.1999999999999995e-01 -1.1582395232475289e+00 -1.2333090406396071e+01 -9.3183634827006294e+00 3 -5 3
1770 590 2 4.0999999999999998e-01 -1.7509713161810438e+00 -1.2433043341385780e+01 -1.0117464844821253e+01 3 -5 3
2488 830 1 -8.1999999999999995e-01 -4.5063840583528822e+00 -7.9830549139472957e+00 -1.3324239072892622e+01 3 -3 2
897 299 2 4.0999999999999998e-01 -3.1876749053102493e+00 -1.1920570993388418e+01 -1.2272692893694984e+01 1 2 1
1907 636 2 4.0999999999999998e-01 -4.8356700919210933e+00 -1.4837502196392153e+01 -9.8410166860138375e+00 0 3 0
428 143 2 4.0999999999999998e-01 -1.8062205604388293e+00 -5.9374759189000432e+00 -1.2535652199311841e+01 2 -5 -2
923 308 2 4.0999999999999998e-01 -4.0339961479522302e-01 -9.9546722894631721e+00 -1.1018489178772288e+01 3 -2 3
1031 344 2 4.0999999999999998e-01 -5.2272529753251185e-01 -9.1816518125829845e+00 -8.1610349551393355e+00 1 -6 4
769 257 1 -8.1999999999999995e-01 -3.2774437480367045e+00 -6.5084653247084621e+00 -1.1136296625294030e+01 7 -1 -2
1136 379 2 4.0999999999999998e-01 -6.5552868875439128e+00 -7.7831309602772691e+00 -1.4466859765169668e+01 4 -3 5
1030 344 1 -8.1999999999999995e-01 -9.2719808908501911e-01 -8.3024676739696375e+00 -7.9093964762245816e+00 1 -6 4
924 308 2 4.0999999999999998e-01 -2.6417588619621668e-01 -9.1949296734448893e+00 -1.2457143575350837e+01 3 -2 3
990 330 2 4.0999999999999998e-01 -4.5441172318470180e-01 -6.3884380870396225e+00 -8.0297212006030207e+00 4 -2 4
806 269 2 4.0999999999999998e-01 -3.7665328705673886e+00 -1.2774618291624858e+01 -8.4935791475361704e+00 2 0 1
978 326 2 4.0999999999999998e-01 -6.8724242651625325e+00 -1.3230863412240449e+01 -8.0161530927893043e+00 4 1 8
805 269 1 -8.1999999999999995e-01 -3.3370669389982339e+00 -1.2513203327222360e+01 -7.6292263499987651e+00 2 0 1
2379 793 2 4.0999999999999998e-01 -4.3674544642095530e+00 -8.9899786237510568e+00 -7.7006528270895789e+00 11 2 -1
749 250 2 4.0999999999999998e-01 -3.8515244910228557e+00 -1.4197855242645861e+01 -1.4809072921774414e+01 12 2 5
2343 781 2 4.0999999999999998e-01 -1.4849208331659332e+01 -6.1636511598641093e+00 -2.4355641622426631e+00 -1 2 -2
2530 844 1 -8.1999999999999995e-01 -8.4084116624740481e+00 -9.2382767999574966e+00 -4.0738318455715152e+00 6 -2 -1
1968 656 2 4.0999999999999998e-01 -1.1781132407355212e+01 -1.4922611685248222e+01 -2.5699175547831299e+00 -1 -3 -5
1966 656 1 -8.1999999999999995e-01 -1.2344316359029181e+01 -1.4447567136439357e+01 -3.2459656635065635e+00 -1 -3 -5
646 216 1 -8.1999999999999995e-01 -1.1769542803609040e+01 -5.7345030522486820e+00 -1.0606461762128312e+00 3 1 6
620 207 2 4.0999999999999998e-01 -1.1228721626418052e+01 -8.8517846984803406e+00 -2.4963960977996713e+00 2 0 -3
2532 844 2 4.0999999999999998e-01 -8.8301626846506700e+00 -9.3061120411143570e+00 -4.9779385542440338e+00 6 -2 -1
1387 463 1 -8.1999999999999995e-01 -9.0143894243153362e+00 -5.6414281701836835e+00 -1.1519196743989912e+00 10 -4 1
619 207 1 -8.1999999999999995e-01 -1.1453450742338340e+01 -8.2728071937500793e+00 -1.7127083845559632e+00 2 0 -3
621 207 2 4.0999999999999998e-01 -1.0961822320356703e+01 -8.5990887883467551e+00 -9.0541270306295729e-01 2 0 -3
1882 628 1 -8.1999999999999995e-01 -8.9891878579689752e+00 -1.3040014024943641e+01 -3.8114243675921795e+00 -1 -2 -4
1883 628 2 4.0999999999999998e-01 -8.6288005528322032e+00 -1.3496828112843767e+01 -2.9982045737092555e+00 -1 -2 -4
2531 844 2 4.0999999999999998e-01 -8.9713704491491040e+00 -9.7251566737235731e+00 -3.4060669307225790e+00 6 -2 -1
1832 611 2 4.0999999999999998e-01 -1.2319964507690582e+01 -1.1464085907571940e+01 -5.4078871001141327e+00 2 5 -1
859 287 1 -8.1999999999999995e-01 -1.2036126742771575e+01 -6.6466801928487111e+00 -4.4726031541660927e+00 3 -1 10
2423 808 2 4.0999999999999998e-01 -1.3810282455505185e+01 -1.2334093469419358e+01 -3.7770248887903985e+00 3 3 -3
861 287 2 4.0999999999999998e-01 -1.2473643698690163e+01 -7.1902045191644071e+00 -3.7563317442558031e+00 3 -1 10
2422 808 1 -8.1999999999999995e-01 -1.3450766206562394e+01 -1.1416067984659101e+01 -3.9439435379594183e+00 3 3 -3
860 287 2 4.0999999999999998e-01 -1.1199484736284884e+01 -6.2334176965262031e+00 -4.1132581811543876e+00 3 -1 10
647 216 2 4.0999999999999998e-01 -1.1576779211923650e+01 -6.7131110099506213e+00 -1.1317318322770085e+00 3 1 6
2424 808 2 4.0999999999999998e-01 -1.4174183547319750e+01 -1.0742356535066367e+01 -3.7933953936207878e+00 3 3 -3
436 146 1 -8.1999999999999995e-01 -9.7804770561204304e+00 -1.0959538593308928e+01 -2.4157407649942488e+00 4 -1 6
438 146 2 4.0999999999999998e-01 -9.1272089855367202e+00 -1.0952123944833254e+01 -1.6587266758037931e+00 4 -1 6
1866 622 2 4.0999999999999998e-01 -1.1170840656261980e+01 -7.5146632233015902e+00 -6.1511766933337917e+00 0 1 -3
1814 605 2 4.0999999999999998e-01 -1.1441581401486985e+01 -1.0590098478680808e+01 -2.2823876662625864e-02 0 2 0
437 146 2 4.0999999999999998e-01 -9.6702009947847394e+00 -1.1802050259392985e+01 -2.9429008824012968e+00 4 -1 6
1388 463 2 4.0999999999999998e-01 -8.3640340737171002e+00 -6.3349031223622667e+00 -1.4617823542091593e+00 10 -4 1
1815 605 2 4.0999999999999998e-01 -1.2264463633901507e+01 -1.0914780074082241e+01 -1.3953271142920638e+00 0 2 0
1884 628 2 4.0999999999999998e-01 -9.0038637347751305e+00 -1.3683824945257669e+01 -4.5763928490029002e+00 -1 -2 -4
1549 517 1 -8.1999999999999995e-01 -8.6559327406611750e+00 -1.0465204114309273e+01 -6.5188254580367673e+00 4 0 3
1551 517 2 4.0999999999999998e-01 -9.6072798655912965e+00 -1.0766867299759628e+01 -6.4569992960761518e+00 4 0 3
283 95 1 -8.1999999999999995e-01 -9.2828255317553037e+00 -5.7027880149964858e+00 -3.9662529756568627e+00 0 5 0
1813 605 1 -8.1999999999999995e-01 -1.2111766757027514e+01 -1.1197955525711956e+01 -4.4855373594086956e-01 0 2 0
928 310 1 -8.1999999999999995e-01 -1.4143583825830875e+01 -8.7790684064688556e+00 -6.7226715964194987e+00 -1 4 1
929 310 2 4.0999999999999998e-01 -1.3287764954198460e+01 -8.8913330915496722e+00 -7.2275034756751779e+00 -1 4 1
1864 622 1 -8.1999999999999995e-01 -1.1198536839777251e+01 -7.7730775845615385e+00 -7.1167539410973077e+00 0 1 -3
648 216 2 4.0999999999999998e-01 -1.0937260598983549e+01 -5.2158139149910543e+00 -1.2559725607364314e+00 3 1 6
1831 611 1 -8.1999999999999995e-01 -1.1670025543940278e+01 -1.1543117644249925e+01 -6.1636766841592738e+00 2 5 -1
2352 784 2 4.0999999999999998e-01 -8.2022799103700859e+00 -5.5514304968599699e+00 -7.0927582084814471e+00 4 -5 3
284 95 2 4.0999999999999998e-01 -8.4898200843474676e+00 -6.1875824819143954e+00 -3.5974694698274128e+00 0 5 0
1833 611 2 4.0999999999999998e-01 -1.1942089808797121e+01 -1.0927269186975932e+01 -6.9029981273514878e+00 2 5 -1
2350 784 1 -8.1999999999999995e-01 -9.1026884555757608e+00 -5.3226597143879140e+00 -6.7228759853251763e+00 4 -5 3
2413 805 1 -8.1999999999999995e-01 -1.2756679171695456e+01 -1.3875911564163127e+01 -2.5677385686719845e-02 3 0 -2
2415 805 2 4.0999999999999998e-01 -1.3584626771926082e+01 -1.3961758000148496e+01 -5.7976913350811543e-01 3 0 -2
2351 784 2 4.0999999999999998e-01 -9.1727665406400121e+00 -5.6596196528587104e+00 -5.7840301071422591e+00 4 -5 3
314 105 2 4.0999999999999998e-01 -1.0900504157382183e+01 -1.2926987309474658e+01 -7.0905004391735345e+00 -1 0 3
803 268 2 4.0999999999999998e-01 -1.4754011723531919e+01 -9.2709707747722057e+00 -4.9049815418845721e+00 4 1 3
1825 609 1 -8.1999999999999995e-01 -8.0453218172676380e+00 -1.3587882461961664e+01 -7.5224303347156862e-01 2 0 -2
1967 656 2 4.0999999999999998e-01 -1.1815941166239652e+01 -1.3704904572567603e+01 -3.6572520855594082e+00 -1 -3 -5
2093 698 2 4.0999999999999998e-01 -8.0448646773331198e+00 -8.4951239745203644e+00 -7.1638228183909485e+00 6 0 2
1550 517 2 4.0999999999999998e-01 -8.0588782850542806e+00 -1.1262091162833677e+01 -6.6103762081141486e+00 4 0 3
930 310 2 4.0999999999999998e-01 -1.4510059848579006e+01 -7.8634020561211511e+00 -6.8873985272352893e+00 -1 4 1
1389 463 2 4.0999999999999998e-01 -8.5699152615426826e+00 -5.0410090094572855e+00 -4.8722121723108991e-01 10 -4 1
2414 805 2 4.0999999999999998e-01 -1.2325457147602677e+01 -1.2991836471934484e+01 -2.0551984284008107e-01 3 0 -2
313 105 1 -8.1999999999999995e-01 -1.0157595250027112e+01 -1.3537562628981014e+01 -7.3646698097005485e+00 -1 0 3
1355 452 2 4.0999999999999998e-01 -5.6629132442808583e-01 -1.1114115660655987e+01 -1.6779612326011240e+00 2 -4 -1
2311 771 1 -8.1999999999999995e-01 -3.1547094864626324e-01 -1.2620814248003521e+01 -5.5123532145024328e+00 5 -3 0
807 269 2 4.0999999999999998e-01 -2.8119217141112518e+00 -1.3285125090709982e+01 -7.2711149178125982e+00 2 0 1
2485 829 1 -8.1999999999999995e-01 -3.8216189299123116e-01 -1.4416606899985734e+01 -1.3769697833724788e+00 5 2 -3
370 124 1 -8.1999999999999995e-01 -6.9991758768159071e+00 -7.0197855968774254e+00 -2.9369014699509499e+00 6 3 1
182 61 2 4.0999999999999998e-01 -4.2854603998869916e+00 -6.9902996788701390e+00 -5.0810315289664185e+00 0 1 -6
372 124 2 4.0999999999999998e-01 -7.3523412294840202e+00 -7.8957534916027292e+00 -3.2652898966000290e+00 6 3 1
1826 609 2 4.0999999999999998e-01 -7.3915812287776568e+00 -1.2860636929996193e+01 -9.6110107442962622e-01 2 0 -2
2317 773 1 -8.1999999999999995e-01 -2.6258807915977211e+00 -9.8878541807078122e+00 -9.4464008605936733e-01 3 0 5
1085 362 2 4.0999999999999998e-01 -5.1708181190413356e+00 -8.3469926625693720e+00 -1.5861902844403826e+00 1 3 -2
972 324 2 4.0999999999999998e-01 -5.3695809675511867e+00 -1.2182309807633438e+01 -8.6435038303203626e-01 6 -5 -3
1233 411 2 4.0999999999999998e-01 -6.1602479220613837e+00 -1.1999871270484791e+01 -4.5384666856564131e+00 10 0 0
2319 773 2 4.0999999999999998e-01 -2.8798262207239027e+00 -9.0211526497998626e+00 -1.3738541822476975e+00 3 0 5
1998 666 2 4.0999999999999998e-01 -2.2780522991026189e+00 -7.2998339633271963e+00 -2.1019870130464131e+00 4 1 -1
1052 351 2 4.0999999999999998e-01 -4.8774302494577615e+00 -1.3543114934150029e+01 -2.9637212279709892e+00 -3 -1 5
2312 771 2 4.0999999999999998e-01 -1.0975731231505339e+00 -1.3111143830530828e+01 -5.8967719416620241e+00 5 -3 0
1754 585 2 4.0999999999999998e-01 -6.5425805891394440e-01 -8.5277431426881805e+00 -6.2181881743325800e+00 -1 -3 4
970 324 1 -8.1999999999999995e-01 -6.0745017306938323e+00 -1.1674249510312892e+01 -3.6953129304278498e-01 6 -5 -3
99 33 2 4.0999999999999998e-01 -4.5428462574267687e+00 -1.0165572874402386e+01 -5.7345198469526295e+00 -5 -4 -2
462 154 2 4.0999999999999998e-01 -5.7589839140027799e+00 -5.4371983608574581e+00 -1.8354234075255285e+00 2 0 1
1568 523 2 4.0999999999999998e-01 -1.6329530647719501e+00 -1.1394169455673552e+01 -4.7692389373210808e+00 4 -4 1
1569 523 2 4.0999999999999998e-01 -1.7455001854936434e+00 -9.7670017508971636e+00 -4.6919281973167681e+00 4 -4 1
1086 362 2 4.0999999999999998e-01 -6.6184620871539970e+00 -8.8505062546573576e+00 -1.0230567105688344e+00 1 3 -2
63 21 2 4.0999999999999998e-01 -3.7961247700638605e+00 -1.0230815180735872e+01 -4.0124409074992045e+00 1 0 -1
1084 362 1 -8.1999999999999995e-01 -5.7639060337081141e+00 -9.1410348254072940e+00 -1.4534188610545726e+00 1 3 -2
1997 666 2 4.0999999999999998e-01 -3.6851394838929661e+00 -6.5154144883579175e+00 -1.8353221391279479e+00 4 1 -1
1567 523 1 -8.1999999999999995e-01 -2.2330941871669889e+00 -1.0627136155445513e+01 -4.5425782053001207e+00 4 -4 1
2486 829 2 4.0999999999999998e-01 -1.0672136845655178e+00 -1.3690029100977265e+01 -1.3252640672475415e+00 5 2 -3
1726 576 1 -8.1999999999999995e-01 -1.9800362331196943e+00 -1.4569835294423118e+01 -6.3924536480320047e+00 -1 2 3
1657 553 1 -8.1999999999999995e-01 -2.2112744747952213e+00 -1.2399658095844538e+01 -1.2409034131383798e+00 3 -3 0
97 33 1 -8.1999999999999995e-01 -4.7295826719665133e+00 -1.0383741361713053e+01 -6.6923384740562923e+00 -5 -4 -2
1893 631 2 4.0999999999999998e-01 -2.0291281521373641e+00 -6.7529688117255144e+00 -5.7819664620379267e+00 -1 3 1
98 33 2 4.0999999999999998e-01 -4.1438037880296346e+00 -1.1140564768351314e+01 -6.9821072890838352e+00 -5 -4 -2
1053 351 2 4.0999999999999998e-01 -4.3260083333176382e+00 -1.4752760842841347e+01 -2.0155602794430649e+00 -3 -1 5
61 21 1 -8.1999999999999995e-01 -4.7454914790949712e+00 -9.9245253685331765e+00 -3.9433468188461056e+00 1 0 -1
460 154 1 -8.1999999999999995e-01 -4.8775504906182459e+00 -4.9851129683958924e+00 -1.6991208618518314e+00 2 0 1
1051 351 1 -8.1999999999999995e-01 -4.5454555466523789e+00 -1.3777809374111810e+01 -2.0501590441045590e+00 -3 -1 5
1659 553 2 4.0999999999999998e-01 -2.3724817518728969e+00 -1.1414636293335548e+01 -1.1806644731071714e+00 3 -3 0
2094 698 2 4.0999999999999998e-01 -6.5434220237977687e+00 -8.5151326118810733e+00 -6.5222715013457968e+00 6 0 2
371 124 2 4.0999999999999998e-01 -6.1236541589604201e+00 -6.8263649227148839e+00 -3.3795465212603304e+00 6 3 1
971 324 2 4.0999999999999998e-01 -6.0375958026875143e+00 -1.0710373773837951e+01 -6.3309532022509529e-01 6 -5 -3
1231 411 1 -8.1999999999999995e-01 -5.9478538199659390e+00 -1.2961884175190937e+01 -4.7096520020148525e+00 10 0 0
1891 631 1 -8.1999999999999995e-01 -2.6454891430888203e+00 -6.2734982388271234e+00 -5.1573933318996339e+00 -1 3 1
976 326 1 -8.1999999999999995e-01 -6.1295800396362932e+00 -1.3501207821745655e+01 -7.4037962687363130e+00 4 1 8
1658 553 2 4.0999999999999998e-01 -3.0853441609470309e+00 -1.2883577540388075e+01 -1.1995671030574293e+00 3 -3 0
1071 357 2 4.0999999999999998e-01 -1.3146559961520303e+00 -6.4332739226492919e+00 -3.8707298990969328e+00 0 -2 0
183 61 2 4.0999999999999998e-01 -5.0020602199079747e+00 -8.3476249943895198e+00 -4.5238320984566656e+00 0 1 -6
1892 631 2 4.0999999999999998e-01 -3.2244145893167211e+00 -5.6454288427130095e+00 -5.6772574082759224e+00 -1 3 1
181 61 1 -8.1999999999999995e-01 -5.1558364534750307e+00 -7.4025184491463163e+00 -4.8119484264113588e+00 0 1 -6
1069 357 1 -8.1999999999999995e-01 -7.9756350544194810e-01 -6.4037822396393089e+00 -3.0153760970163823e+00 0 -2 0
1996 666 1 -8.1999999999999995e-01 -3.2508876243510212e+00 -7.4137623983015120e+00 -1.9007502834592707e+00 4 1 -1
2092 698 1 -8.1999999999999995e-01 -7.1713017311258715e+00 -8.0109743630093302e+00 -7.1151256686700455e+00 6 0 2
62 21 2 4.0999999999999998e-01 -4.9881958131633830e+00 -9.8058849916313058e+00 -2.9805884933054188e+00 1 0 -1
1753 585 1 -8.1999999999999995e-01 -5.2917064132386216e-01 -8.6498979360017358e+00 -5.2336497342273045e+00 -1 -3 4
1232 411 2 4.0999999999999998e-01 -6.1880963035458922e+00 -1.3193632119576368e+01 -5.6522341715121822e+00 10 0 0
538 180 1 -8.1999999999999995e-01 -1.0345986884970117e+01 -1.0451728256310439e+01 6.5260748116705596e+00 1 3 -2
540 180 2 4.0999999999999998e-01 -1.0755121029722901e+01 -1.1355559479099437e+01 6.4012432581364340e+00 1 3 -2
234 78 2 4.0999999999999998e-01 -8.5213630218435910e+00 -1.0107851062891378e+01 3.4395825324023956e+00 0 1 2
1480 494 1 -8.1999999999999995e-01 -9.3105923768938332e+00 -6.7483899592055625e+00 3.3448720806887433e+00 1 1 7
1383 461 2 4.0999999999999998e-01 -1.2336686163393940e+01 -1.0592897998887452e+01 4.4115261604359457e+00 8 -3 1
232 78 1 -8.1999999999999995e-01 -9.2053767999648333e+00 -9.4664620500345009e+00 3.7869005103622175e+00 0 1 2
233 78 2 4.0999999999999998e-01 -9.3812634917749040e+00 -9.6573412924689741e+00 4.7525678871797421e+00 0 1 2
1381 461 1 -8.1999999999999995e-01 -1.2710535012027005e+01 -1.1297195947744402e+01 3.8081308331507362e+00 8 -3 1
1512 504 2 4.0999999999999998e-01 -1.1460651634183725e+01 -5.1655978599350814e+00 9.6177367230473543e-01 3 1 1
1382 461 2 4.0999999999999998e-01 -1.2032035176480003e+01 -1.2020371620490550e+01 3.6795252999142516e+00 8 -3 1
291 97 2 4.0999999999999998e-01 -1.0353556188126905e+01 -1.0012731638345475e+01 1.5057004029317671e+00 2 0 0
289 97 1 -8.1999999999999995e-01 -1.0047534029601927e+01 -9.6309154494772180e+00 6.3366174785623208e-01 2 0 0
55 19 1 -8.1999999999999995e-01 -8.4177268251340731e+00 -1.3099524362694593e+01 1.9969642975330490e+00 1 -2 1
57 19 2 4.0999999999999998e-01 -9.2511588448831006e+00 -1.3316179257523094e+01 2.5052322878589575e+00 1 -2 1
254 85 2 4.0999999999999998e-01 -1.4509806819639390e+01 -8.5979068181351437e+00 3.6557044661708407e+00 5 8 -2
539 180 2 4.0999999999999998e-01 -1.1062693551066181e+01 -9.7549320222983980e+00 6.4997818405884100e+00 1 3 -2
2363 788 2 4.0999999999999998e-01 -8.2900935938511680e+00 -7.4651442253428399e+00 6.4811848879509704e-01 0 -2 -4
1055 352 2 4.0999999999999998e-01 -7.8374312215565904e+00 -5.8875625062472920e+00 4.5930635197678722e+00 3 -4 3
441 147 2 4.0999999999999998e-01 -1.3417102991933067e+01 -1.1298374160775971e+01 2.2268632942092861e+00 3 -1 -4
56 19 2 4.0999999999999998e-01 -7.6245527402374789e+00 -1.3205979576531533e+01 2.5964863113592269e+00 1 -2 1
591 197 2 4.0999999999999998e-01 -1.2463874598352067e+01 -7.7351346039344531e+00 5.4752602828836903e+00 4 2 3
1482 494 2 4.0999999999999998e-01 -9.1493575372749696e+00 -7.7277540321429985e+00 3.4662557964197713e+00 1 1 7
1481 494 2 4.0999999999999998e-01 -1.0276199483276635e+01 -6.5467602653429093e+00 3.5086800709507795e+00 1 1 7
1577 526 2 4.0999999999999998e-01 -9.5136933363699363e+00 -5.5371025197611079e+00 6.4111820439656295e+00 1 -2 1
708 236 2 4.0999999999999998e-01 -1.2734782494813970e+01 -1.1379842954913975e+01 7.0141606201653577e+00 1 1 -1
1576 526 1 -8.1999999999999995e-01 -1.0500663036240395e+01 -5.6332481836806210e+00 6.2826075267400814e+00 1 -2 1
1723 575 1 -8.1999999999999995e-01 -1.4247467882879421e+01 -7.1335380583401209e+00 5.4354530012819335e+00 -3 -3 10
1725 575 2 4.0999999999999998e-01 -1.4903694331130426e+01 -6.4603805156078113e+00 5.0947034407169749e+00 -3 -3 10
82 28 1 -8.1999999999999995e-01 -1.0881711817892093e+01 -1.3717718562092145e+01 3.0794364470036601e+00 5 3 -5