2611
Atoms. Timestep: 23000000
O -1.50934 4.25596 -2.52066
H -1.04767 4.15512 -1.63939
H -1.89467 5.17597 -2.59173
O -0.340311 -7.05467 13.1709
H -0.263795 -7.28844 14.1401
H -1.035 -7.63246 12.7425
O -7.69414 -10.2748 12.0416
H -7.1172 -9.62223 12.5328
H -8.15796 -9.80853 11.2883
O 4.2386 -12.9946 -11.5903
H 5.0498 -12.6543 -11.1148
H 4.49552 -13.3102 -12.5037
O -5.22519 -0.383927 -14.4309
H -4.56978 -1.12652 -14.2932
H -5.29758 -0.179914 14.5977
O -0.0918064 0.876826 -14.1058
H -0.93285 0.902078 -13.5654
H 0.571474 0.274246 -13.662
O 14.8981 10.7682 7.82997
H 14.9231 10.2317 6.98652
H -14.3843 11.4592 7.80703
O 6.14023 12.0385 13.0308
H 6.2088 11.3084 12.3509
H 7.02449 12.1576 13.4823
O -1.98502 4.6588 0.275474
H -1.00786 4.68765 0.485877
H -2.36257 5.58379 0.317956
O 3.40795 6.01865 1.57666
H 3.339 6.41571 2.49183
H 3.76153 6.7051 0.941278
O -3.32576 -12.6086 6.73365
H -2.39246 -12.8676 6.98226
H -3.84314 -12.3916 7.5614
O -5.79113 -7.04019 -10.2803
H -6.10611 -7.98907 -10.2613
H -4.79945 -7.02067 -10.4074
O 13.3267 -9.56078 -12.4007
H 14.2151 -9.65467 -12.8498
H 12.6528 -9.22939 -13.0609
O 2.32004 -3.47161 -2.13765
H 1.46313 -3.8796 -1.82268
H 2.46735 -3.70589 -3.09856
O 13.6892 -8.25569 14.9092
H 13.1604 -7.73619 -14.4245
H 13.0694 -8.80876 14.3525
O 11.3477 -13.8547 14.1723
H 11.8305 -13.8595 -14.9569
H 11.7735 -13.1882 13.5605
O 14.213 7.38266 -11.7111
H 13.9262 7.78975 -10.844
H 14.8739 7.9845 -12.1594
O 12.7698 2.89012 12.607
H 12.0578 3.53795 12.3362
H 12.3467 2.03174 12.8969
O -9.58125 -12.1205 4.54209
H -9.09563 -12.9742 4.35454
H -10.2439 -12.2683 5.27625
O 9.62135 -0.770095 -3.33503
H 10.0726 -0.69745 -2.44565
H 8.63074 -0.808368 -3.204
O -3.34311 -9.9966 -4.75454
H -2.74938 -10.6739 -4.32017
H -3.62274 -9.31561 -4.07777
O 9.33684 -11.7187 0.281686
H 8.55261 -11.1247 0.460882
H 9.58778 -11.6571 -0.684328
O -5.5855 0.539267 -1.482
H -4.81522 0.954499 -1.96595
H -5.97158 1.20136 -0.839716
O -9.34187 -0.417527 10.7099
H -9.20253 0.190636 9.92842
H -10.0321 -0.0257502 11.3182
O -11.2371 0.762832 12.0884
H -12.2154 0.583754 12.1929
H -11.0323 1.68927 12.4042
O 6.80291 -4.5915 -3.39118
H 7.51973 -4.78666 -2.72184
H 6.02115 -5.19313 -3.22733
O -8.04851 13.1331 13.3137
H -8.92384 12.9295 12.8752
H -8.20356 13.3726 14.2721
O 14.1711 -13.2484 3.72566
H 14.5617 -13.9368 4.3368
H 13.2892 -13.5703 3.38133
O 4.69182 8.14754 0.763461
H 5.69163 8.14435 0.745843
H 4.36889 8.98558 1.20319
O -1.83327 12.1523 -7.73952
H -0.909534 12.0061 -7.38554
H -2.02504 13.133 -7.77562
O -9.00341 -3.01438 -9.15489
H -8.22387 -3.57681 -8.87931
H -9.23118 -3.2053 -10.1097
O 5.82817 -4.48423 14.8167
H 5.89054 -5.42353 -14.8508
H 5.12809 -3.99061 -14.6722
O -3.72405 -9.58756 -7.36042
H -2.9726 -10.0078 -7.86902
H -3.6098 -9.77162 -6.3842
O -14.5322 9.38153 5.64953
H 14.8468 9.62898 4.90992
H -13.6001 9.32366 5.29206
O -1.65252 11.8217 -0.246966
H -2.58303 11.7946 0.118218
H -1.67809 11.6746 -1.23573
O 12.3038 -14.398 -13.4558
H 11.7789 -13.9 -12.7655
H 13.2669 -14.4233 -13.188
O 11.9135 -14.2487 -2.5351
H 12.8807 -14.0548 -2.37144
H 11.6751 14.8774 -2.12161
O 12.3404 -14.6451 1.80287
H 11.8299 -13.7864 1.84589
H 13.0146 -14.5955 1.06597
O 0.461416 13.4864 4.51177
H 0.92648 14.2434 4.05285
H -0.344668 13.2207 3.98299
O -1.33788 5.32848 10.1733
H -0.896654 5.41795 9.28036
H -0.641086 5.32484 10.8905
O 8.89406 -0.231458 6.96664
H 7.93332 -0.14336 6.70363
H 9.44816 0.396467 6.42017
O 11.8887 -3.51126 1.02069
H 11.1644 -3.42092 0.33721
H 12.751 -3.7328 0.565277
O 8.4466 9.66935 4.78444
H 8.61292 8.69356 4.64259
H 8.92462 10.1947 4.08056
O 12.2938 -5.48361 -8.53642
H 11.7237 -4.95983 -7.90343
H 13.1908 -5.64215 -8.12397
O 5.1424 11.6761 5.74371
H 5.46064 10.9841 5.09579
H 4.39282 12.1962 5.33442
O -9.96587 13.7429 -4.45374
H -9.28867 14.2203 -3.89384
H -10.6582 13.3316 -3.86095
O 5.70962 -6.98018 -7.2471
H 5.79798 -7.42708 -6.35692
H 6.37612 -7.36924 -7.88299
O 11.1101 -10.6614 -13.9201
H 11.4629 -10.5654 -14.8508
H 10.6678 -9.8088 -13.6417
O 6.36746 -12.5067 9.14503
H 6.66753 -13.2535 8.55159
H 6.23867 -11.6786 8.59946
O 5.75109 -8.73072 -10.6888
H 6.09919 -9.46549 -11.2709
H 6.27849 -7.89716 -10.853
O 5.78844 12.0808 -6.9812
H 6.46201 12.1766 -6.24835
H 6.24779 11.7885 -7.81997
O 10.3588 -0.728235 -0.857237
H 9.59804 -0.254653 -0.413564
H 11.2234 -0.329999 -0.550932
O 6.86332 -10.5738 -13.0363
H 7.48902 -10.4071 -13.7983
H 7.25247 -11.2684 -12.4313
O -0.615584 -13.8697 5.17418
H -0.514083 -13.8735 6.16898
H -1.25586 -14.5879 4.90178
O -4.02843 -12.3809 -14.8596
H -4.98073 -12.4358 -14.5596
H -3.79795 -13.1977 14.6165
O -10.5481 6.52322 10.6084
H -10.5182 7.02463 9.74377
H -11.419 6.70074 11.0667
O -11.947 4.97123 -7.87803
H -11.9365 4.42612 -8.7163
H -11.345 5.76217 -7.98719
O 7.63762 -3.58621 6.18899
H 8.2111 -2.77777 6.05673
H 6.76236 -3.45369 5.72389
O -12.9702 12.6452 8.01257
H -12.3363 12.6345 8.78586
H -13.4612 13.5161 7.99605
O 4.31845 0.487559 -11.1897
H 4.75301 -0.382633 -11.4218
H 4.8536 0.949101 -10.4822
O -3.60844 -8.32341 -2.47853
H -3.15982 -8.51275 -1.60512
H -2.95348 -7.90082 -3.10494
O 8.44954 -2.24068 -6.672
H 9.43816 -2.09329 -6.70115
H 8.25354 -3.21278 -6.80069
O -5.82276 7.78399 -1.27983
H -5.22702 7.44831 -0.550195
H -6.6832 7.27462 -1.26843
O 5.9555 11.9091 -2.76271
H 5.88093 10.9132 -2.81306
H 5.06549 12.2984 -2.52553
O -4.21004 6.06714 10.8678
H -5.13509 6.42963 10.981
H -3.98834 6.01774 9.89392
O 1.9411 -0.394036 -12.4847
H 2.65929 -0.155476 -11.831
H 1.38596 -1.13813 -12.113
O 5.60316 -0.0671753 1.88182
H 5.88754 -0.996346 1.64576
H 4.97015 0.274295 1.18709
O 6.41893 10.8044 0.347794
H 5.94186 10.7916 -0.53095
H 5.75602 10.9344 1.08509
O 9.31806 4.24625 3.89431
H 9.17172 4.0171 2.93201
H 8.82764 3.59278 4.47086
O -13.499 -6.79832 -13.175
H -14.123 -6.44802 -12.4766
H -13.6568 -6.31459 -14.0359
O 8.90107 -5.85643 -11.6338
H 9.77235 -5.42008 -11.4092
H 8.61991 -5.58514 -12.5543
O -2.25459 -14.7352 -5.37188
H -3.00398 -14.8786 -4.72549
H -2.50664 14.893 -6.26326
O 0.822675 -8.26721 9.50849
H 0.706622 -7.33193 9.84275
H 1.78547 -8.52856 9.57691
O -10.4369 -13.4545 0.483274
H -9.55114 -13.7573 0.834953
H -10.8125 -12.7513 1.087
O 0.717694 11.9402 -6.41009
H 1.68503 11.6869 -6.40354
H 0.634028 12.9349 -6.46935
O 2.22757 6.11537 13.6062
H 2.69249 5.96434 14.4785
H 1.23824 6.11717 13.7517
O 2.47346 12.8408 12.8443
H 2.829 11.9212 13.0111
H 2.57898 13.0685 11.8763
O -8.67656 -8.54136 3.49313
H -9.67412 -8.47289 3.50433
H -8.37473 -9.13384 4.24
O -7.90533 -3.65104 8.06304
H -8.05836 -4.02161 8.97912
H -7.03056 -3.16705 8.04113
O -0.53251 -2.82925 12.8849
H 0.0985308 -3.59292 13.021
H -1.43516 -3.18251 12.6391
O -14.4218 -11.3204 -10.8271
H 14.9789 -10.5333 -10.951
H -14.8628 -12.1399 -11.1928
O -3.14139 14.9118 3.32207
H -3.98095 -14.5658 3.19169
H -2.47716 -14.8417 2.61813
O 12.7767 13.1028 6.70204
H 12.3767 12.2735 7.09224
H 13.3399 12.8613 5.91183
O -8.75842 14.0415 -11.3671
H -8.40137 14.8606 -10.918
H -8.83462 13.3015 -10.6989
O -14.5681 -9.10144 3.87519
H -14.0867 -9.9628 3.71328
H 14.5965 -9.08234 3.33343
O -6.4769 13.0201 1.23263
H -7.1159 13.7016 1.58935
H -5.58507 13.4464 1.08146
O 14.2703 6.01065 6.37312
H 13.4646 6.58323 6.52459
H 14.8067 6.3836 5.61606
O 14.8983 -5.72323 -11.3339
H -14.873 -6.34314 -10.5849
H 14.1262 -5.14862 -11.0625
O 12.6965 0.189355 13.6038
H 12.1597 -0.557848 13.9956
H 13.109 0.725286 14.3404
O -1.94132 -2.99193 9.85746
H -2.38434 -2.65462 10.6881
H -2.62882 -3.39399 9.25277
O -0.211337 1.1512 9.40253
H -0.236293 0.265974 8.9381
H -1.06021 1.28312 9.91435
O 8.46938 3.20945 1.45758
H 8.11761 2.28718 1.29752
H 9.31847 3.33598 0.944749
O -5.1958 -0.175405 -10.4739
H -4.96405 0.587586 -11.0773
H -6.16328 -0.122783 -10.2266
O -4.43744 14.2078 -13.0244
H -4.97353 -14.9844 -13.2528
H -3.47248 14.3782 -13.2238
O -10.6344 -6.30558 -4.83327
H -9.92472 -7.00211 -4.9389
H -10.313 -5.59448 -4.20794
O 3.47116 11.8883 -9.82575
H 3.81657 12.8261 -9.85973
H 3.76184 11.4568 -8.97179
O -10.8337 -11.2876 2.28204
H -10.0995 -10.7567 1.85886
H -10.6207 -11.4407 3.24701
O -1.86014 6.76631 -13.2342
H -1.40059 7.45097 -13.7999
H -1.19219 6.3281 -12.6327
O 5.07748 -6.93168 11.8645
H 5.86303 -7.20411 12.4201
H 4.39303 -7.66064 11.8749
O -6.13581 -9.82045 -8.94881
H -6.96164 -10.1304 -8.47779
H -5.34611 -9.93267 -8.34571
O -14.7586 2.11745 -6.52988
H -14.4525 1.19622 -6.76976
H 14.7551 2.08932 -5.65931
O 1.53105 8.72693 -11.1152
H 1.33685 8.69609 -12.0957
H 1.83141 9.64697 -10.8637
O 5.61765 -13.4161 -13.8568
H 5.89749 -12.9808 -14.7124
H 6.00776 -14.3355 -13.8074
O -8.1784 -8.59875 9.92962
H -7.29346 -8.13441 9.96452
H -8.31911 -8.9797 9.01582
O -9.54242 -13.2061 -7.91528
H -8.98705 -12.5574 -7.39494
H -10.2497 -13.5903 -7.32194
O 9.56079 -5.09855 1.14354
H 10.5013 -4.91875 1.43186
H 8.93582 -4.51538 1.66246
O 14.5481 9.70361 12.3992
H 14.0692 10.5378 12.6726
H 14.5704 9.06478 13.1682
O 4.18783 8.26117 -6.50012
H 4.00348 8.02599 -7.4544
H 4.71713 9.10872 -6.46199
O 9.88096 -0.00181504 11.6532
H 10.2728 -0.665666 11.0162
H 9.17817 0.534192 11.1855
O -7.59628 5.43266 -1.22103
H -6.66177 5.12715 -1.03856
H -8.09184 4.7153 -1.71069
O 9.21155 4.02454 7.02858
H 10.1724 4.29995 7.05887
H 8.67311 4.62814 7.61654
O -7.60334 -12.486 7.38362
H -7.82295 -13.4614 7.40198
H -6.96122 -12.275 8.12058
O 4.31238 -5.96364 4.30812
H 5.089 -6.54313 4.06111
H 3.99238 -6.20755 5.22358
O -12.2138 -12.2965 12.9673
H -11.4752 -11.8838 13.5003
H -12.9179 -11.61 12.786
O 7.53914 9.78014 -14.5685
H 8.04323 10.5255 -14.1322
H 8.16749 9.03132 -14.7792
O 12.4729 -1.60151 2.9623
H 12.4056 -2.47278 2.47619
H 12.2827 -1.74603 3.93332
O 0.586626 11.5822 6.39794
H -0.356714 11.4296 6.69255
H 0.591937 12.165 5.58536
O 5.08633 -0.846261 9.21047
H 4.76267 -0.833149 8.26441
H 4.52275 -0.233189 9.76407
O -2.77389 9.76051 -7.31507
H -2.71502 10.7304 -7.55124
H -1.98911 9.50693 -6.74959
O -8.5329 8.06758 -14.2144
H -8.33072 7.21262 -14.692
H -8.48396 8.82965 -14.86
O 12.3375 5.75334 -3.67046
H 13.3222 5.58244 -3.63754
H 12.033 6.1188 -2.79085
O -11.8978 11.2262 -11.078
H -11.4727 10.933 -11.9343
H -12.0763 10.4271 -10.5038
O 2.26548 -4.17958 13.1742
H 2.22526 -4.20628 14.1731
H 3.2208 -4.15751 12.8796
O -5.88473 -6.7019 -3.46113
H -5.10719 -7.27578 -3.20414
H -6.49194 -7.21534 -4.06745
O 8.06119 1.23644 -12.4064
H 7.79162 1.20756 -11.4438
H 8.1314 2.18838 -12.7044
O 12.2477 5.36866 -8.32037
H 12.3008 5.89277 -9.17033
H 13.0835 4.83148 -8.20729
O -11.4266 -12.9499 -13.5526
H -11.2726 -13.5684 -12.7821
H -11.1 -12.0349 -13.3159
O -10.0305 3.58737 -9.64745
H -9.90964 4.47585 -10.0901
H -9.31413 2.96134 -9.95543
O -3.46095 -2.45218 12.4102
H -3.13732 -2.01376 13.2486
H -4.44645 -2.30957 12.3185
O 13.5708 0.167647 7.80566
H 14.1338 0.882063 8.22105
H 14.1066 -0.320653 7.11687
O 8.96954 -4.97283 -14.1623
H 8.35976 -5.24828 -14.9054
H 9.83338 -4.64451 -14.5443
O 14.1275 -12.1154 13.6836
H 14.8285 -12.0724 14.3955
H 14.5379 -12.4387 12.831
O 10.8271 -3.41746 -3.07876
H 11.7762 -3.58047 -2.80914
H 10.5909 -2.46136 -2.90548
O 13.3187 13.6093 3.60151
H 13.083 14.3296 2.94922
H 13.4492 12.7467 3.11274
O -10.4676 5.05063 -2.86163
H -10.8321 4.99108 -1.93238
H -10.7902 4.27005 -3.39691
O -9.28465 5.60733 7.623
H -9.54634 4.6462 7.71072
H -10.1036 6.16456 7.48592
O -6.00708 -3.36294 -12.8613
H -5.55893 -2.93511 -12.0764
H -5.63043 -2.98496 -13.707
O -4.41633 9.0243 9.54859
H -3.65144 9.32696 10.1172
H -4.11251 8.28565 8.94689
O -5.30665 6.33358 6.01794
H -6.29413 6.35732 5.86212
H -4.87271 7.08533 5.52144
O -14.033 8.08582 -5.09373
H -14.0697 7.08896 -5.02401
H -14.96 8.45772 -5.04492
O 9.43639 2.5785 9.39046
H 8.8978 1.7876 9.6809
H 9.3549 2.69178 8.40027
O -14.8164 14.9024 5.42382
H -13.9537 14.5594 5.0522
H 14.4282 14.3797 5.0381
O -0.509378 -8.28685 -14.357
H -0.91943 -9.10829 -14.7533
H 0.287437 -8.54287 -13.8097
O 9.19395 6.91279 -10.4191
H 9.06481 7.75288 -10.9459
H 10.0353 6.46021 -10.7144
O -8.1986 -4.82612 10.6241
H -9.05535 -4.31597 10.6995
H -7.56203 -4.51468 11.3296
O -7.57111 -10.239 -3.74802
H -6.70476 -10.7382 -3.7627
H -7.81492 -10.0223 -2.80276
O 13.6146 -10.3556 1.92648
H 14.2826 -11.0829 1.76864
H 12.6933 -10.7443 1.92998
O 4.82035 -4.18676 12.03
H 5.43022 -3.67831 12.6378
H 4.97503 -5.16774 12.147
O 12.7901 11.0498 -13.9182
H 13.6612 10.9531 -13.4366
H 12.3089 10.1732 -13.9158
O 13.6205 9.98422 -4.31635
H 13.6416 10.5026 -5.17122
H 13.2103 9.08713 -4.48056
O -6.66653 -1.12838 2.43682
H -6.40177 -1.72987 3.19052
H -6.15657 -0.270543 2.50006
O 3.42562 7.87302 -9.0839
H 2.82565 8.09425 -9.85269
H 3.16965 6.98298 -8.70672
O -8.04543 0.366888 -6.61282
H -8.10791 1.14201 -5.98415
H -8.4502 -0.441826 -6.1861
O -4.25918 -3.42446 -1.87504
H -3.6154 -2.67613 -1.71538
H -5.07724 -3.28511 -1.31708
O 13.9332 -6.29438 1.9674
H 14.4171 -5.46232 1.69619
H 14.351 -7.08422 1.51842
O -1.92629 10.4278 -10.5981
H -2.31372 10.0119 -9.77535
H -0.942918 10.5597 -10.4734
O -14.4727 6.80421 -7.85771
H -14.4686 5.80643 -7.92376
H -13.5312 7.1404 -7.83279
O -10.3425 -9.95248 -13.8661
H -10.172 -8.97392 -13.9816
H -10.7173 -10.1202 -12.9543
O -5.37223 -6.36393 0.258328
H -5.22872 -5.70071 0.99284
H -6.1737 -6.09921 -0.277871
O -9.30892 4.51267 -13.324
H -9.03594 5.0488 -12.5253
H -10.0498 3.89068 -13.0706
O 8.59364 6.95311 7.71682
H 7.60109 7.02487 7.61866
H 8.88375 7.44446 8.53801
O 10.3718 -12.7589 -12.2045
H 10.6209 -12.4539 -11.2853
H 10.4405 -11.9904 -12.8407
O 10.1386 4.37561 -0.568623
H 11.1234 4.24823 -0.450638
H 9.9672 5.254 -1.01473
O -9.60287 7.15121 3.75613
H -10.3659 7.44948 4.32951
H -8.99919 6.55683 4.28739
O -7.64386 3.14488 14.7655
H -8.00698 3.39862 -14.3428
H -8.05031 2.27892 14.4742
O 10.3769 8.46278 9.94261
H 9.65653 9.07702 9.62057
H 10.3581 8.42189 10.9416
O 0.56627 5.60409 0.811964
H 1.41296 5.27409 1.22931
H 0.568292 6.60399 0.799873
O 4.0269 -13.2668 11.0989
H 4.54459 -12.8474 10.3533
H 4.29508 -14.2256 11.1929
O 7.27102 13.0583 4.01929
H 7.94894 13.7926 4.05229
H 7.36072 12.485 4.8337
O 5.97522 -7.2763 8.70317
H 6.05744 -6.41075 8.20921
H 5.05632 -7.35333 9.09001
O -14.3728 -12.2909 -8.1871
H -13.7682 -13.0685 -8.35942
H -14.2432 -11.6032 -8.90139
O -3.95641 -1.80159 -8.6738
H -4.6952 -1.22344 -9.02005
H -3.09006 -1.30554 -8.73144
O -5.96091 1.79914 -4.10537
H -5.17387 2.08643 -3.55949
H -5.82381 2.07246 -5.05745
O -9.05246 -8.40584 -9.2844
H -8.62708 -8.94841 -10.0087
H -8.39858 -8.27328 -8.53953
O 13.059 8.31532 -9.58248
H 13.1843 7.89453 -8.68405
H 12.3904 9.05571 -9.51345
O 2.40974 10.9743 -3.01655
H 1.51856 10.8057 -3.43768
H 3.04945 10.2566 -3.29159
O 14.9134 3.28736 3.06491
H 14.9207 2.96251 4.01063
H -14.9837 4.28144 3.05311
O 11.5389 5.91416 -11.3802
H 12.44 6.25912 -11.6426
H 11.3436 5.07357 -11.8854
O -13.187 -0.624828 14.7713
H -13.4666 -0.163884 13.9291
H -13.8904 -0.496808 -14.5344
O -11.1276 -7.68931 4.25128
H -11.7136 -7.02604 3.78584
H -11.4149 -7.77635 5.20512
O -14.0331 -3.70529 -3.53751
H -13.7772 -4.61931 -3.85226
H -13.3699 -3.38853 -2.85942
O 11.8696 5.0504 4.33289
H 10.8845 4.95518 4.18996
H 12.0608 5.10116 5.3131
O 9.02779 -9.3643 6.55019
H 8.0573 -9.58997 6.46555
H 9.28551 -9.35806 7.51636
O 4.39506 13.9284 8.48237
H 3.45964 13.8406 8.14
H 4.42454 13.6581 9.44467
O -7.71716 5.82191 14.4112
H -7.80691 5.80398 13.4154
H -7.69838 4.88533 14.7611
O 7.82417 11.8487 -5.30809
H 7.3569 12.1088 -4.46313
H 8.6775 12.3637 -5.38918
O -11.851 -14.9598 13.3948
H -10.9819 -14.9868 13.8888
H -11.9327 -14.0883 12.9115
O 8.90618 -14.901 -12.3314
H 9.49334 14.4168 -12.7592
H 9.4623 -14.1234 -12.038
O 5.99754 9.34806 -2.48652
H 5.31429 8.88261 -3.04908
H 6.53879 8.66949 -1.98999
O 6.28832 6.48387 -7.97216
H 6.39721 7.38127 -7.54464
H 6.82702 6.4481 -8.81387
O -14.1616 -2.85748 -6.46186
H -13.4663 -3.5285 -6.71933
H -14.3722 -2.95232 -5.48893
O 2.7999 -2.34947 -9.57054
H 3.19517 -2.48551 -10.4789
H 3.52795 -2.36073 -8.88515
O -0.101242 8.45691 -8.89392
H -1.0372 8.15743 -9.079
H 0.42146 8.46306 -9.74639
O -7.85892 2.15765 -10.7413
H -7.93969 1.34211 -10.1683
H -7.83199 1.88749 -11.7038
O -11.4195 8.33542 -2.97115
H -12.2016 8.47477 -3.57847
H -10.9997 7.44907 -3.16635
O 1.25497 -5.81511 11.1322
H 1.65985 -5.00885 11.5635
H 0.750963 -6.34159 11.8169
O -11.5111 -6.98722 6.88014
H -10.7178 -6.4255 6.64547
H -12.3437 -6.4399 6.79576
O -2.52049 9.63552 11.4779
H -2.72757 8.76784 11.9298
H -2.5833 10.3805 12.142
O 5.69321 -9.49493 -5.44246
H 5.85681 -9.72966 -4.48429
H 6.5623 -9.48805 -5.93701
O 8.01535 -9.4016 -6.78471
H 8.78852 -9.07911 -6.23867
H 8.23736 -9.32201 -7.75647
O -10.9518 -7.71181 14.2022
H -11.9505 -7.75069 14.1701
H -10.6015 -7.40656 13.3168
O 12.1118 -1.21129 9.49887
H 12.4826 -0.413492 9.02352
H 12.7249 -1.46914 10.2456
O 9.36285 -7.91229 12.5216
H 10.3134 -7.77171 12.2447
H 8.76899 -7.84737 11.7197
O 1.07445 -10.013 -8.49574
H 1.01781 -9.09475 -8.88761
H 1.97921 -10.1478 -8.09177
O -9.11855 -4.24134 -12.2411
H -8.35822 -4.76589 -12.6241
H -9.86468 -4.86246 -12.0014
O 6.10087 -5.95499 -11.8832
H 5.65334 -5.08535 -11.6748
H 7.0206 -5.95896 -11.4907
O -13.2997 -10.075 -0.957293
H -13.9081 -10.4035 -1.67977
H -12.3955 -9.88915 -1.3418
O 6.14293 2.11957 12.0684
H 5.49017 2.87476 12.0088
H 6.90415 2.38296 12.661
O 8.82238 1.27715 -5.73214
H 9.4907 1.67574 -5.10411
H 8.48205 0.41615 -5.35424
O -5.32295 -13.3767 3.38336
H -5.05191 -12.8203 4.16882
H -5.25452 -12.8305 2.54853
O 6.59222 13.5622 -10.9105
H 7.31542 14.2334 -11.073
H 5.7258 14.0367 -10.7553
O -7.03414 5.16422 -5.5927
H -7.72796 4.5553 -5.97713
H -6.50887 5.58131 -6.33437
O -3.63386 -0.216107 4.92994
H -4.1258 0.191656 4.16075
H -2.7453 0.231098 5.03204
O -4.26209 -11.0483 4.46841
H -3.82068 -11.4425 5.27447
H -4.29486 -10.053 4.55958
O 10.2569 -9.12996 -5.07409
H 9.9211 -9.7134 -4.33465
H 11.2415 -9.26552 -5.18463
O -13.4669 -6.38079 -4.01365
H -14.4046 -6.70764 -3.89634
H -12.8949 -7.12541 -4.35776
O 3.03419 2.46943 3.87953
H 3.40438 2.88458 3.04853
H 2.31209 3.05325 4.25059
O 13.9298 2.73409 -13.0941
H 12.9518 2.75016 -12.8861
H 14.4518 2.72381 -12.2413
O 11.1656 8.40609 12.7098
H 11.9265 7.83838 12.3956
H 11.4644 9.35826 12.7736
O -12.0684 14.678 4.14225
H -11.8527 13.9242 4.76297
H -11.9011 14.3913 3.19899
O 8.63647 2.52023 13.646
H 8.48146 2.18013 14.5735
H 9.08375 1.81087 13.1013
O 2.55648 -11.6555 1.64771
H 2.90367 -12.1617 2.43716
H 1.55751 -11.6275 1.68285
O 6.58513 13.7197 1.37638
H 6.68211 12.769 1.08192
H 6.89526 13.8088 2.32286
O 4.03601 -9.48479 12.58
H 3.06852 -9.73741 12.57
H 4.39831 -9.58948 13.5061
O -10.1721 12.4411 8.97371
H -9.64127 11.6908 8.5799
H -9.96459 13.2886 8.48507
O 3.7315 -0.638687 -1.98811
H 3.18199 -0.0196941 -1.427
H 3.22419 -0.876731 -2.81631
O 12.0513 -6.69692 11.5803
H 12.6633 -5.99308 11.2196
H 11.9252 -6.55747 12.5624
O -6.9343 -5.83242 -12.6239
H -6.569 -4.93003 -12.8524
H -6.41367 -6.21991 -11.8632
O -0.288322 9.10369 -6.2395
H 0.0562963 10.0399 -6.17073
H -0.0446856 8.72353 -7.13173
O 7.59233 10.2764 7.26173
H 8.03929 10.2083 6.36981
H 6.60331 10.3506 7.13413
O -5.3097 11.8785 -13.9322
H -4.8197 11.2011 -13.3835
H -5.02468 12.7974 -13.6597
O 7.7886 0.500723 3.51532
H 6.86754 0.250708 3.21683
H 7.73318 1.24955 4.17572
O 7.36263 8.05875 -0.490298
H 7.47308 7.28554 0.134112
H 7.98591 8.79395 -0.223917
O 3.01871 -4.11578 -4.83203
H 3.92324 -3.93823 -5.21965
H 2.37555 -4.32461 -5.56869
O 6.17973 14.5921 -1.10578
H 6.49427 14.3261 -0.194581
H 6.95092 14.9471 -1.63413
O -12.4901 -12.6389 5.41778
H -13.016 -11.9989 4.85762
H -12.2605 -13.4464 4.87457
O -8.99836 9.51806 2.82685
H -9.12492 8.54741 3.03126
H -9.66214 9.8023 2.13508
O 11.2004 -13.7471 -5.30885
H 11.5336 -13.6198 -4.37466
H 11.8328 -14.3371 -5.81079
O -0.431136 6.53522 -4.87465
H -0.783819 5.77872 -5.42535
H -0.244602 7.31952 -5.46629
O 6.8259 1.71181 -9.91067
H 6.12773 2.41703 -10.0338
H 7.65165 2.12392 -9.52563
O 3.47517 -5.47258 -8.33186
H 4.30379 -5.85749 -7.92542
H 2.8365 -5.21569 -7.60656
O 11.6549 -9.45701 11.071
H 11.9586 -8.50429 11.0727
H 12.3754 -10.0359 10.6893
O 5.75218 -10.9656 -1.16022
H 5.93015 -11.6097 -1.90417
H 6.43906 -11.0862 -0.44355
O -14.6506 6.92183 13.9028
H -14.592 6.29202 14.6773
H 14.4852 6.78547 13.4273
O 3.72176 -12.1541 -3.74456
H 4.71098 -12.2968 -3.77661
H 3.48562 -11.3373 -4.27079
O -6.66939 -3.93699 12.5506
H -7.05063 -3.60523 13.4134
H -6.53667 -3.16676 11.9268
O 14.4943 -14.0293 11.3636
H 13.6006 -14.461 11.2408
H 14.9344 -13.915 10.4731
O 13.8836 12.1179 9.91754
H 13.9678 11.4777 9.15398
H 13.0732 11.8888 10.4568
O 5.58541 -1.60007 -12.3132
H 6.51491 -1.79989 -12.6231
H 4.98638 -2.36824 -12.5391
O -3.269 14.9363 13.8698
H -2.70954 14.8313 14.692
H -4.03574 14.2953 13.9043
O -6.28972 -1.8818 -0.226193
H -6.07263 -1.04901 -0.735391
H -6.19463 -1.70755 0.753881
O 3.05459 10.1314 13.151
H 2.81324 9.48424 12.4279
H 3.79535 9.75125 13.7049
O -8.1202 10.1141 -7.98672
H -8.80121 9.68955 -7.39011
H -7.21625 9.7399 -7.77983
O 5.61536 -7.35938 -14.4615
H 5.67802 -7.1725 -13.4812
H 6.40248 -7.90576 -14.7477
O 2.6837 4.79642 9.22553
H 2.4044 3.93657 9.65284
H 2.30264 5.56395 9.74094
O -11.9923 1.75388 -9.85945
H -11.3599 2.46418 -9.55041
H -11.5528 0.859126 -9.78085
O -0.92283 -5.76871 -11.5843
H -0.678912 -5.81721 -12.5529
H -0.199089 -5.29602 -11.0816
O 8.98056 -5.57344 -1.75551
H 9.35994 -5.02328 -2.49938
H 9.48866 -5.39143 -0.913697
O 1.90598 -2.86904 7.72649
H 2.75077 -2.7887 8.25548
H 1.40678 -3.68513 8.0176
O 14.505 10.1232 0.837259
H -14.5295 10.1634 0.599354
H 14.0166 9.58025 0.154154
O 7.406 9.37016 -6.14125
H 8.08846 9.15032 -6.83829
H 7.64846 10.233 -5.69786
O 11.0071 4.70088 11.5789
H 10.2537 5.31646 11.81
H 10.66 3.94072 11.0297
O 14.161 -4.02419 -14.0172
H 14.9631 -3.83743 -14.5844
H 14.4139 -4.64702 -13.2769
O 12.8737 2.21172 1.69196
H 13.6621 2.56251 2.19726
H 12.3472 1.59776 2.28003
O -9.67937 11.9651 -9.11704
H -10.3696 11.5156 -9.68402
H -9.07519 11.2755 -8.71784
O 11.1846 -12.0396 2.16965
H 10.4406 -11.8173 1.53951
H 10.9206 -11.785 3.09996
O -2.57084 -4.96488 1.7584
H -2.55179 -5.2388 0.796859
H -1.63645 -4.81139 2.07981
O -14.4288 -10.1007 -6.00924
H -14.2653 -10.8379 -6.66487
H -13.5908 -9.56824 -5.89051
O -1.72654 -10.6024 -8.88298
H -0.84594 -10.4842 -8.42416
H -1.66235 -10.2609 -9.82062
O -4.28413 14.9014 0.555196
H -4.17734 14.8652 -0.438403
H -3.39181 -14.9541 0.981109
O 11.5359 -4.86708 6.18379
H 11.8577 -5.52976 5.50762
H 11.3834 -3.98449 5.73913
O -3.35134 14.5072 -7.96223
H -3.60039 14.9006 -8.84717
H -4.07118 13.8818 -7.66104
O 13.8606 -7.52956 6.76382
H 14.2121 -8.46572 6.76168
H 13.2681 -7.3978 7.55854
O 6.42635 -1.57343 -1.59624
H 6.70288 -1.36095 -2.53344
H 5.42899 -1.626 -1.54681
O 6.2229 -2.60763 0.970728
H 6.80462 -2.28878 0.222474
H 5.62776 -3.34053 0.641166
O 7.04136 5.54816 0.679804
H 6.47019 5.44533 -0.134534
H 7.70995 4.80534 0.71394
O -0.297506 -9.26865 3.98617
H -0.54161 -10.1948 3.69868
H 0.565898 -9.29276 4.49006
O -13.5407 5.55866 -11.2516
H -12.8796 5.77984 -11.9686
H -14.2381 6.27402 -11.209
O -14.4231 4.75904 -1.35855
H -13.5332 4.87969 -0.918745
H -14.5033 3.8215 -1.697
O -4.78177 4.97905 -4.04042
H -5.64285 4.91149 -4.54434
H -4.32817 4.08789 -4.03462
O 13.0873 -14.4525 8.27297
H 13.9874 -14.4718 8.70824
H 12.8842 14.6525 7.88724
O 14.8245 -3.96492 1.11832
H -14.4729 -3.30071 0.877243
H 14.526 -3.80718 2.0596
O -1.10721 6.44701 4.77831
H -0.644515 5.94792 4.04566
H -0.816902 7.40382 4.76478
O -7.68935 -10.101 1.67903
H -8.01832 -9.38924 2.29959
H -6.82623 -10.4705 2.02325
O 14.5182 2.7781 10.5936
H 13.99 2.97457 9.76757
H 13.922 2.84305 11.3938
O 13.2973 -8.78306 -9.46298
H 13.465 -7.8245 -9.23277
H 13.2154 -8.87818 -10.455
O -12.1654 -8.35511 -5.47635
H -11.682 -7.48189 -5.41467
H -11.5742 -9.03315 -5.91312
O 8.81988 5.37062 13.2048
H 8.80114 4.37123 13.1761
H 8.33178 5.68999 14.017
O 4.75531 3.54095 1.86039
H 5.57929 3.70678 2.40216
H 4.28774 4.40845 1.6908
O 7.1479 -12.1646 -10.6339
H 7.89443 -12.8121 -10.4811
H 6.68651 -11.9772 -9.76673
O 5.21514 4.39843 -1.34439
H 4.88953 3.62218 -0.804606
H 5.67157 4.06323 -2.16856
O 4.78856 12.5284 -14.4949
H 5.64704 13.022 -14.3559
H 4.61729 12.427 14.53
O -10.6329 -6.38802 -13.4816
H -10.8528 -6.9187 -14.3001
H -11.4618 -6.25447 -12.9384
O 3.80918 4.8694 6.89625
H 4.24621 3.98078 7.03514
H 3.31958 5.13356 7.7272
O 9.99731 4.33683 -6.90725
H 9.664 5.10065 -6.35459
H 10.7405 4.65183 -7.49745
O 4.44729 0.354521 -5.88664
H 5.06084 -0.0452492 -6.5676
H 4.97651 0.638675 -5.08718
O 0.640276 8.8763 -1.71281
H 0.245593 8.95681 -0.797559
H 1.38384 8.20785 -1.69753
O 0.460149 14.8656 -6.13671
H -0.290984 14.8685 -5.4766
H 1.32995 14.9591 -5.65229
O -3.08965 -11.9317 -12.364
H -3.67358 -12.1202 -13.1536
H -2.23092 -11.524 -12.6743
O 13.4301 -12.3418 6.38376
H 13.7674 -13.2648 6.56863
H 13.4317 -12.1776 5.39734
O 0.222516 -4.86175 -0.736935
H -0.726858 -5.16952 -0.799483
H 0.378048 -4.44013 0.156375
O -0.622709 -1.19635 8.11391
H -1.18737 -1.77585 8.70153
H 0.183599 -1.7079 7.81704
O 4.76401 14.7732 -5.79794
H 5.66008 -14.7878 -5.80421
H 4.85491 13.8341 -6.12909
O 1.30261 10.685 2.19834
H 1.13233 11.5736 1.7725
H 2.08031 10.2442 1.75021
O -4.70249 0.515708 7.87946
H -4.76289 0.250825 6.9171
H -4.26013 1.40958 7.952
O -4.74459 10.3797 -1.99005
H -4.49663 10.4686 -2.9547
H -5.1121 9.46475 -1.82335
O 9.72215 -9.97461 9.11194
H 10.0871 -10.796 8.67366
H 10.3952 -9.61434 9.75778
O 0.870711 -8.89942 -12.0468
H 1.27891 -8.45194 -11.2511
H 1.29002 -9.79808 -12.1754
O -0.964212 -3.54009 -7.03086
H -1.92114 -3.82674 -7.07629
H -0.914419 -2.59455 -6.70925
O -14.3191 -7.29492 -9.07824
H -14.0114 -8.24636 -9.07469
H -14.5765 -7.02442 -8.1506
O 0.983332 -14.5559 -13.0021
H 0.735696 -13.8353 -12.3545
H 1.47458 14.7229 -12.521
O 8.73477 13.4686 -8.38486
H 7.92453 12.9082 -8.55647
H 9.5099 12.8758 -8.16653
O 12.1686 1.79132 -1.03165
H 12.7208 2.33627 -1.66255
H 12.3322 2.09906 -0.0943745
O -8.669 -10.2471 7.8102
H -8.79798 -9.90795 6.87838
H -8.27446 -11.1654 7.77903
O 1.67153 7.89014 6.99279
H 2.48954 8.46485 7.01567
H 0.961926 8.34174 6.45198
O 11.0675 13.4792 -0.964907
H 10.5264 14.1276 -0.429348
H 11.7349 13.031 -0.370276
O 10.9824 14.6319 -9.43068
H 11.3211 13.9582 -10.0874
H 10.0748 14.3592 -9.11142
O -14.9585 3.19769 5.67873
H 14.7469 4.14024 5.82644
H -14.9349 2.71442 6.55386
O 5.01392 -8.33944 -0.83659
H 5.37232 -9.24795 -0.621847
H 4.73501 -7.88292 0.00824294
O -1.16882 -7.70899 1.67331
H -0.851521 -8.18287 2.49471
H -0.840568 -6.7645 1.68564
O 12.9788 -0.506746 -2.18741
H 12.5985 0.39546 -1.98401
H 12.742 -0.764811 -3.12404
O 7.17637 -2.43 10.977
H 7.91811 -1.9782 10.4813
H 6.31002 -1.97776 10.7652
O 8.86467 7.15367 4.79674
H 9.06222 7.48497 5.71933
H 9.15858 6.20141 4.7145
O -7.00517 -13.9822 0.0501717
H -6.65229 -13.8905 -0.880971
H -6.2433 -14.1179 0.683482
O -12.8097 14.6813 -9.29882
H -12.1364 14.3707 -8.62783
H -13.5459 14.0082 -9.36844
O -5.42768 -13.3597 -7.14597
H -5.53552 -14.2657 -7.55539
H -4.91612 -12.7702 -7.77106
O -10.4664 -0.341977 -1.63956
H -9.77995 -0.96064 -1.25742
H -10.5321 0.476421 -1.06872
O -0.750823 4.14411 -6.172
H -1.61386 3.65871 -6.03235
H -0.0480821 3.75209 -5.57835
O 4.74591 3.72444 -9.79976
H 5.32185 4.52723 -9.95394
H 4.25077 3.50314 -10.6399
O 1.12009 -4.95775 -6.67426
H 0.360493 -4.30744 -6.66717
H 0.764113 -5.88714 -6.57693
O -13.2474 4.32659 10.2622
H -13.523 5.20977 9.88277
H -14.0451 3.86894 10.6549
O 11.804 3.53896 -5.17291
H 11.1231 3.76874 -5.86827
H 11.7529 4.20068 -4.42494
O 1.01657 -2.99412 -12.3218
H 0.74909 -3.55 -13.1088
H 0.791135 -3.48089 -11.4779
O 3.90091 0.799678 11.0707
H 3.27752 0.303461 11.675
H 4.60781 1.2487 11.6172
O -11.3752 3.3703 8.50534
H -11.8206 2.74392 7.86559
H -12.0619 3.77114 9.11181
O 9.70918 2.7408 -2.74748
H 10.4789 2.12478 -2.58034
H 9.75744 3.51378 -2.11492
O -4.11184 7.54562 -4.8075
H -4.39854 6.6003 -4.65218
H -3.30105 7.74283 -4.25643
O 14.8791 10.9501 -11.7897
H -14.5672 11.7343 -11.5196
H -14.5441 10.1418 -11.8801
O -5.24765 12.7721 -7.36738
H -5.31272 12.2431 -8.21352
H -6.09892 13.2766 -7.22339
O -7.83446 -2.71929 -4.33523
H -7.6642 -3.26474 -3.51459
H -7.91852 -1.75526 -4.08317
O -10.4209 12.4606 11.5873
H -11.2855 12.9432 11.7266
H -10.1458 12.5394 10.6291
O 12.8013 -6.56255 4.47952
H 13.3009 -6.56608 3.61329
H 13.3696 -6.971 5.19373
O -7.39005 11.9603 4.12665
H -7.41111 11.1144 3.59377
H -8.01383 12.6269 3.7186
O 0.0681598 -7.60968 -6.64592
H -0.21737 -7.27115 -7.54248
H -0.730979 -7.94242 -6.1453
O 10.8751 11.9632 10.4065
H 10.9394 12.7354 9.77439
H 9.94888 11.5871 10.3801
O 11.9567 -7.23282 8.77106
H 11.242 -6.71756 8.29813
H 11.9569 -6.98917 9.7409
O -5.26058 12.6193 13.3235
H -6.24289 12.8001 13.3717
H -4.94783 12.2426 14.1955
O 11.2338 -0.962869 -10.8442
H 11.1776 -0.0189707 -10.5188
H 12.1927 -1.24224 -10.8924
O 7.46816 4.75708 9.7064
H 8.32137 4.24854 9.59079
H 7.67511 5.71833 9.88837
O -14.7918 -14.1734 -12.3317
H -14.1403 -14.8621 -12.0136
H -14.4793 -13.7965 -13.2036
O -5.63724 -13.859 -2.57167
H -5.56663 -13.1944 -3.31549
H -4.77093 -14.35 -2.48004
O -7.80017 -5.94966 4.49228
H -8.03816 -6.88733 4.23912
H -6.8178 -5.81003 4.36818
O -9.92122 10.1808 5.41332
H -9.59764 10.2572 4.47024
H -9.13837 10.1827 6.03549
O -8.47506 10.5425 7.87701
H -7.85562 11.238 7.51295
H -7.97298 9.94167 8.49901
O 3.89399 5.42355 -5.53025
H 4.25995 4.69154 -6.10487
H 3.8498 6.27145 -6.05852
O 12.7453 7.62777 3.5303
H 12.2997 6.73943 3.64097
H 12.1719 8.34083 3.93361
O -1.60587 -7.02814 -3.79583
H -0.711048 -6.60527 -3.65287
H -1.83259 -7.00739 -4.76954
O 10.3535 14.2903 5.66435
H 11.295 13.9802 5.5323
H 9.77099 13.5059 5.87731
O -14.1752 6.40918 8.837
H 14.9607 6.17597 8.40075
H -14.2795 7.25807 9.35512
O -12.1117 4.69855 -13.6315
H -12.3327 4.60853 -14.6026
H -12.0184 3.78959 -13.2253
O 7.84931 -9.14283 14.6613
H 7.51429 -9.68251 13.889
H 8.66103 -8.62981 14.3823
O -8.05583 -11.2002 -0.953396
H -7.85207 -12.1576 -0.748988
H -7.864 -10.6393 -0.148061
O 2.62865 13.1199 -12.7768
H 2.59939 12.5781 -11.9368
H 3.44083 12.8723 -13.305
O 8.72165 13.556 11.7576
H 8.45818 12.6783 11.3574
H 7.91341 14.0043 12.1393
O -2.44139 -2.44576 -4.46786
H -3.20824 -1.81529 -4.58782
H -2.78767 -3.3805 -4.38855
O 11.507 13.8071 12.8161