2611
Atoms. Timestep: 8000000
O -1.06292 0.424896 -8.35785
H -1.27325 0.201512 -9.30958
H -1.80923 0.113511 -7.76965
O -12.6837 5.45129 7.43555
H -12.5787 6.4333 7.27892
H -12.5228 5.24874 8.40147
O 2.35805 7.49904 -13.1137
H 3.29843 7.78665 -12.9324
H 1.82704 8.28144 -13.439
O 11.0077 4.66704 -0.0839922
H 10.6657 4.77012 -1.01799
H 10.5986 5.36808 0.500016
O -1.21474 3.19555 -8.01888
H -0.614624 3.7309 -8.61317
H -1.09627 2.22224 -8.2152
O 14.2668 7.23975 -7.49766
H -14.7593 7.06942 -7.04015
H 13.5163 7.05481 -6.86331
O 14.6002 -6.9765 -8.08746
H 14.7064 -7.28981 -7.14381
H -14.4264 -6.61807 -8.41988
O 10.4467 -0.222872 5.09214
H 10.0522 -1.14162 5.07718
H 9.73373 0.442374 5.31367
O -12.7937 8.28 10.5551
H -12.2206 8.18451 11.3689
H -13.6465 8.74108 10.8002
O -3.53004 10.1015 -9.48325
H -3.24986 9.3804 -8.8497
H -3.28836 9.83734 -10.4169
O -11.5531 -14.5347 0.656603
H -12.3731 -13.9909 0.835131
H -11.4849 -14.7232 -0.323068
O -10.9064 -5.62809 7.15834
H -11.7084 -5.15276 7.51989
H -11.1863 -6.23731 6.41645
O 14.1496 14.5672 13.2174
H 13.7185 14.3574 14.0949
H 13.4809 -14.8996 12.6123
O -0.296997 -5.39414 -7.81453
H 0.290661 -4.67081 -7.45208
H -1.06953 -5.53724 -7.19595
O -0.515982 8.48401 5.67118
H 0.14688 8.84042 6.32959
H -0.73309 7.53451 5.89755
O 11.679 12.9158 0.56631
H 11.3777 12.0337 0.204476
H 12.3634 13.3111 -0.046238
O -10.9466 9.75562 -14.0994
H -11.2224 9.08934 -14.7922
H -10.7148 9.27851 -13.2517
O 10.0384 -6.16685 -1.21391
H 9.08967 -6.02247 -1.49501
H 10.6411 -5.59187 -1.76712
O 13.843 8.00017 -13.4876
H 13.4591 7.08138 -13.5788
H 14.4266 8.19729 -14.2753
O 11.0041 -2.47351 -6.26563
H 10.3325 -2.78376 -5.59284
H 11.4852 -3.26372 -6.64516
O 13.6011 -7.17616 12.5359
H 12.6176 -7.34591 12.4732
H 14.0975 -7.92973 12.105
O 0.206833 3.77204 0.134662
H -0.174574 3.98655 1.03379
H 1.18415 3.58039 0.224284
O 12.1619 -14.7184 2.39474
H 12.5 14.276 2.65465
H 11.5036 -14.8106 1.64779
O -5.82869 -10.1962 3.14618
H -6.66974 -9.7826 3.49477
H -5.58418 -10.9827 3.71319
O 10.1984 9.78565 -4.73866
H 10.3407 9.21647 -5.54841
H 11.0816 9.99544 -4.3193
O -0.360388 11.33 -3.4179
H -0.285275 10.6373 -2.70063
H 0.469864 11.3241 -3.97519
O -6.22601 -11.9713 0.856972
H -6.25388 -12.9326 1.13067
H -5.97966 -11.4073 1.64514
O 1.8437 -4.5038 11.1953
H 1.21142 -3.79597 11.5102
H 2.7802 -4.24165 11.4281
O -8.63883 -12.0319 2.49612
H -9.60695 -11.836 2.65189
H -8.24328 -11.3187 1.91759
O 7.41111 -7.90399 9.07171
H 8.29901 -7.72655 8.64736
H 7.01581 -8.73581 8.68218
O 1.22051 -11.1343 13.6335
H 2.19031 -10.9557 13.7994
H 0.930975 -11.9268 14.1702
O -9.31475 3.48906 -5.62502
H -10.0232 2.97185 -5.14486
H -8.73689 2.85968 -6.14453
O 11.9504 12.8803 6.11761
H 12.8393 13.3379 6.13636
H 12.0824 11.8922 6.19623
O -6.48554 11.0006 13.6493
H -6.79515 10.6771 12.7552
H -7.26762 11.346 14.1679
O 9.3535 -12.4578 2.37424
H 9.0059 -11.7029 1.81819
H 10.2001 -12.1766 2.82613
O -1.62889 10.1712 12.2734
H -2.03019 10.9398 11.7752
H -0.633369 10.1991 12.1836
O -5.63234 -10.3692 -12.9464
H -6.46344 -10.1131 -13.44
H -5.41576 -9.66474 -12.2705
O 10.7643 -1.55413 12.7231
H 10.319 -1.79205 13.5863
H 11.7392 -1.39924 12.8826
O 10.2539 4.43166 -2.74771
H 10.7653 3.57328 -2.70744
H 9.5475 4.36605 -3.45241
O -13.761 1.15992 5.83442
H -14.5777 1.3727 6.37082
H -14.0321 0.758139 4.95976
O -1.12263 1.15093 -5.30602
H -1.5783 1.92122 -4.86
H -0.148894 1.35384 -5.4089
O 6.40027 -7.08763 -5.91879
H 5.58708 -7.05478 -6.49979
H 6.13456 -7.33581 -4.98728
O 11.8394 -14.5455 11.8541
H 11.715 -14.4948 10.8632
H 10.9559 -14.4278 12.3074
O -9.21561 4.88793 2.49206
H -8.93898 4.21848 3.18143
H -8.6953 4.73556 1.65183
O -6.02205 5.00983 14.3974
H -5.75257 4.11308 14.7483
H -5.21948 5.47803 14.0278
O 8.52476 -8.64851 2.50866
H 7.66678 -8.32297 2.11139
H 8.93136 -9.33554 1.9065
O 9.88113 -12.5995 6.08316
H 8.90193 -12.4643 5.93215
H 10.0164 -13.2706 6.81208
O 4.08059 13.5372 4.87302
H 4.94495 13.5552 5.3755
H 3.70663 14.4631 4.81988
O -1.35027 7.53559 -13.9048
H -2.03488 7.82052 -14.5757
H -1.2381 6.54272 -13.9442
O -12.0151 10.4661 7.01423
H -12.8772 10.9703 6.96426
H -11.492 10.6163 6.17534
O -1.73736 11.3436 -5.80076
H -2.48652 12.0036 -5.85692
H -1.4903 11.2006 -4.84241
O 9.04122 -6.08621 -13.0986
H 9.06258 -5.48413 -13.8967
H 8.12024 -6.45945 -12.9873
O 6.21465 -4.22927 7.24483
H 6.61822 -4.94039 6.66919
H 6.43831 -3.32982 6.86949
O -0.28412 4.49831 -2.40666
H -1.2248 4.32473 -2.69806
H -0.22249 4.4148 -1.4121
O -4.90436 2.63509 3.10564
H -4.58768 3.16467 2.31876
H -5.83773 2.90872 3.33772
O -7.19569 -2.36536 4.8709
H -6.54709 -3.1205 4.776
H -7.73923 -2.49508 5.70015
O -10.017 -6.54144 -5.19176
H -9.63774 -7.20549 -4.54746
H -9.77793 -5.61647 -4.89646
O -11.6982 -11.5846 -0.946931
H -12.494 -11.3483 -1.50443
H -12.0033 -11.9194 -0.0554496
O -7.57959 -4.87615 13.0139
H -8.32206 -4.85646 13.6834
H -7.72995 -5.62754 12.3715
O -13.8099 -2.7067 2.74893
H -13.0192 -2.62226 2.14259
H -14.0836 -1.7994 3.06798
O -13.7448 -12.7315 0.736791
H -13.9031 -12.2145 -0.104387
H -14.4236 -12.4684 1.42237
O 3.42711 -13.6454 4.4378
H 4.36874 -13.3099 4.41222
H 2.80764 -12.8854 4.63392
O 10.4828 -0.0981748 8.63501
H 11.4388 -0.212617 8.36497
H 10.1667 -0.924828 9.10045
O -8.36018 -4.94743 -10.2958
H -7.88135 -5.30771 -11.0963
H -8.08337 -5.46016 -9.48316
O -6.73586 11.1808 -4.83633
H -5.96904 10.7642 -5.32454
H -6.41228 11.5612 -3.97001
O -10.6901 -2.61001 3.70984
H -11.1161 -3.106 2.9532
H -10.0261 -3.20298 4.16522
O -9.88447 -14.8984 14.1929
H -10.4156 14.1618 14.313
H -9.34424 -14.7251 -14.8825
O -10.4795 8.16732 12.2544
H -10.0489 9.04593 12.0481
H -9.77569 7.50057 12.4994
O -11.0471 -1.23575 -0.827666
H -11.3535 -1.21114 0.123884
H -11.0628 -0.310618 -1.20688
O -4.15922 10.9339 -14.8064
H -4.97515 11.0909 14.5361
H -3.94401 11.7623 -14.2893
O -9.24548 5.39312 10.2763
H -10.2429 5.46306 10.2603
H -8.88308 5.9643 11.0127
O -13.6752 12.6576 13.3266
H -13.9203 11.9262 12.6902
H -14.5074 13.0671 13.7002
O 9.30694 12.7848 2.11645
H 9.02314 13.7335 2.25567
H 10.0813 12.7579 1.48432
O 12.9401 8.42358 0.65313
H 13.8271 8.08565 0.338471
H 12.21 7.96779 0.143984
O -7.92253 10.0261 -7.12982
H -7.22056 10.5799 -7.57753
H -7.98428 10.2823 -6.16523
O 13.3623 -1.75517 1.75848
H 12.4256 -1.75739 1.40866
H 13.9907 -1.4913 1.02676
O 3.25688 -1.22813 4.82037
H 2.77274 -2.03575 4.48381
H 3.27891 -1.24522 5.81994
O 7.146 -6.65971 5.74041
H 6.46976 -7.19287 6.24871
H 8.02622 -7.13385 5.75844
O -5.32654 -1.85378 -8.29621
H -4.88918 -2.5667 -7.74814
H -5.85181 -1.24866 -7.69801
O -14.8389 8.73607 13.7945
H -14.8088 8.91041 12.8103
H -13.9192 8.52189 14.1234
O 1.46377 -0.803601 -7.6626
H 0.633384 -0.284725 -7.86547
H 2.26238 -0.21299 -7.77801
O -12.2771 -2.73373 -3.17922
H -12.9022 -2.24218 -3.78549
H -12.139 -2.20407 -2.34237
O -0.143457 11.4897 14.4677
H -1.05258 11.3304 14.0829
H 0.221495 12.3513 14.115
O -3.57455 5.93576 4.33017
H -3.79787 5.83588 5.29974
H -4.36217 5.66438 3.77706
O -10.5581 10.5199 2.02715
H -10.7267 11.2415 1.35569
H -11.0143 9.67946 1.73499
O -11.3428 -9.92594 6.54282
H -11.0732 -9.05451 6.1331
H -10.8609 -10.0496 7.41025
O -7.47532 -14.1097 3.40071
H -6.92299 -14.436 2.63365
H -7.94763 -13.2686 3.13733
O 7.7828 8.25941 0.467008
H 8.01935 8.6388 -0.42744
H 7.64216 9.00479 1.11858
O 12.7367 7.85935 11.6889
H 11.9171 7.78568 11.1209
H 12.5258 7.55907 12.619
O 7.54447 -8.57711 -7.77217
H 7.45071 -7.85105 -7.09101
H 8.51411 -8.74037 -7.95397
O -9.60375 8.99658 -11.699
H -9.05316 9.83128 -11.7066
H -9.42618 8.48784 -10.8566
O 1.68934 4.6649 -13.6109
H 1.94695 5.62343 -13.4894
H 0.701035 4.6003 -13.7488
O -14.5351 -14.7511 -9.82676
H -14.3455 14.1808 -9.99679
H -14.3946 -14.5493 -8.8575
O -2.0068 -8.65468 9.39914
H -2.83716 -8.12697 9.22039
H -1.77896 -8.59848 10.3712
O -8.19163 -11.2853 6.24489
H -8.85066 -11.6323 5.57766
H -8.47397 -10.376 6.55037
O 6.08423 -2.28437 3.51397
H 6.69822 -2.58852 4.24227
H 5.40492 -1.65528 3.89175
O 7.78381 10.6053 7.97296
H 8.43848 10.5592 7.21851
H 8.07683 11.3032 8.62636
O -2.16006 -14.6147 -7.49645
H -3.02191 -14.4465 -7.97482
H -2.27913 -14.4312 -6.5207
O -4.75496 -1.85101 3.24804
H -4.28871 -2.59058 3.73338
H -5.22263 -2.22173 2.44569
O 7.39078 -10.8712 5.39995
H 7.18227 -10.6871 6.36044
H 7.90912 -10.1057 5.01876
O 5.56093 -1.70541 12.7835
H 5.99196 -2.1757 13.5535
H 5.72469 -0.721897 12.8597
O 12.1094 1.67537 -11.9905
H 13.0343 1.54913 -12.349
H 11.6524 2.40637 -12.4972
O -6.21424 -6.26075 10.9694
H -5.55553 -6.69701 11.5823
H -7.10892 -6.69373 11.079
O -13.3295 -1.6632 -10.5896
H -12.9643 -1.77132 -11.5142
H -12.7415 -2.14571 -9.94044
O -3.46705 -10.2694 14.6221
H -3.54263 -9.32262 14.9348
H -3.45378 -10.8815 -14.4861
O 9.76664 -6.2124 1.53412
H 9.65806 -6.0432 0.554582
H 9.47542 -7.14537 1.74549
O 14.8948 -1.45186 -14.899
H -14.5049 -1.8362 14.2233
H 14.7855 -2.15208 -14.1935
O 8.34745 -1.24139 -6.60644
H 7.88397 -2.00112 -7.06241
H 9.32535 -1.43933 -6.53971
O -10.7781 -13.0878 7.27719
H -10.2641 -13.387 6.47335
H -10.3155 -12.3071 7.69713
O 5.28135 -11.3171 -4.56322
H 4.70606 -10.5005 -4.60871
H 5.92068 -11.3177 -5.3321
O -5.95021 13.357 5.66945
H -5.76692 14.1673 6.22606
H -5.09316 12.8731 5.49293
O -8.47836 14.7661 -13.4658
H -9.09989 14.5979 -12.7007
H -7.53584 14.7824 -13.1322
O -13.1362 -8.5538 8.92402
H -13.239 -9.47428 9.30094
H -12.3354 -8.11448 9.33103
O 10.6662 -13.3 -5.9979
H 10.1983 -13.8918 -5.34155
H 10.1361 -13.2567 -6.84463
O -9.10431 2.57532 10.9315
H -9.52093 2.72544 10.0349
H -8.62462 3.40422 11.2191
O -3.69657 13.2611 -5.52539
H -3.93992 13.4674 -4.5777
H -4.37982 13.6571 -6.13876
O 6.47179 2.06053 -0.551538
H 7.4449 2.23473 -0.701985
H 6.16083 1.34459 -1.17656
O -2.08264 -11.8904 -8.79668
H -1.11341 -11.9083 -9.04203
H -2.6238 -12.2668 -9.54859
O -1.80722 -1.3258 14.002
H -1.7469 -2.0818 13.3503
H -1.43 -0.497609 13.5876
O 8.22331 -12.5509 10.5662
H 7.38494 -12.1473 10.1999
H 8.48767 -12.0694 11.4017
O 4.67335 -9.71443 -12.4969
H 4.26686 -8.85604 -12.8097
H 5.2151 -9.54609 -11.6734
O -8.37634 -1.37735 2.5573
H -9.37381 -1.44682 2.56974
H -8.0075 -1.72101 3.42088
O 8.95508 2.31543 0.578788
H 9.61 2.87378 0.0696274
H 9.43011 1.53916 0.993123
O -1.58711 -3.3935 0.188812
H -1.5167 -2.39604 0.195413
H -1.36566 -3.74928 1.09672
O 4.51384 -2.39373 -2.66776
H 4.40702 -1.50163 -2.22883
H 4.22493 -3.11284 -2.03583
O -1.23919 -8.63532 -6.48059
H -2.0762 -8.76637 -7.01176
H -0.723971 -7.86451 -6.85518
O 11.5877 2.17691 -2.32982
H 11.6091 1.59063 -3.1396
H 11.797 1.63182 -1.51806
O 5.21599 -11.7837 -14.3117
H 5.09357 -11.0802 -13.6117
H 4.98297 -11.4062 14.6909
O 5.32644 14.6149 -6.31881
H 5.73081 -14.8451 -7.12123
H 4.85415 -14.5974 -5.76605
O 11.3811 -12.3612 -1.11282
H 10.7879 -11.8713 -1.75156
H 10.8548 -13.0737 -0.64878
O -2.23775 -3.31311 11.8511
H -1.89254 -4.09392 11.3304
H -3.20136 -3.46076 12.0737
O 6.18161 8.46288 -9.46774
H 6.53501 8.26055 -8.55445
H 6.33524 9.42828 -9.67825
O -4.66794 -14.7709 -3.27193
H -4.8268 -14.2688 -2.42191
H -3.90347 -14.3567 -3.76584
O -3.36673 -9.37847 1.74668
H -4.20633 -9.63665 2.22454
H -2.5853 -9.82808 2.17928
O 0.999007 -12.2112 2.1757
H 1.26275 -12.2655 1.21268
H 0.439857 -13.0054 2.41349
O -11.0331 12.31 14.3926
H -10.8236 11.4997 14.9398
H -12.0005 12.3005 14.1399
O -12.8479 1.71946 1.5505
H -13.7827 1.89388 1.85972
H -12.2333 2.40223 1.94553
O 10.1868 -8.98006 -8.00164
H 10.9132 -8.36502 -8.30822
H 10.4546 -9.40806 -7.13851
O -11.564 2.78028 -4.09799
H -11.9405 3.30459 -3.33423
H -12.3114 2.43418 -4.66512
O -5.61922 12.7086 1.38494
H -4.9992 11.9845 1.6869
H -6.47161 12.6559 1.90512
O 0.623742 -11.8724 -9.93625
H 1.38343 -11.9022 -9.2867
H 0.709074 -11.0592 -10.5119
O 8.4947 1.58948 14.3801
H 8.89424 0.911806 -14.9015
H 8.43494 1.20642 13.4583
O -4.96611 6.0784 -12.8466
H -5.71085 6.53616 -12.3611
H -5.07907 6.21093 -13.8313
O -1.00064 1.68215 9.33986
H -1.84113 1.32761 9.74951
H -1.03029 1.54803 8.34938
O -3.40115 -14.883 9.49846
H -3.001 14.0995 9.49446
H -2.9099 -14.3019 8.84961
O 4.06802 4.93872 3.40185
H 4.58577 5.78802 3.29912
H 3.63461 4.70524 2.53147
O -9.0419 5.76001 -12.3046
H -8.98137 4.76276 -12.3464
H -8.8774 6.14229 -13.2138
O 6.50373 8.22037 -6.2283
H 6.734 9.1916 -6.16813
H 5.51545 8.10534 -6.12836
O -12.1445 11.8921 -11.5085
H -11.3678 12.427 -11.8409
H -12.7009 11.5948 -12.2843
O 2.36199 -8.87033 9.1927
H 1.87471 -9.24205 9.98282
H 2.4902 -9.59065 8.51107
O 5.88784 -14.4911 1.35552
H 5.48976 14.501 1.49447
H 6.64491 -14.3579 1.99507
O -10.9124 -8.60505 2.22664
H -11.0619 -9.52269 2.59477
H -11.7924 -8.19403 1.98859
O -3.05679 8.68819 14.0738
H -2.46017 9.12025 13.3976
H -3.37507 9.37648 14.7256
O -2.88193 -14.2511 4.78989
H -3.73636 -13.7341 4.73897
H -2.28361 -13.8393 5.47714
O -3.772 -7.79916 -14.2833
H -3.07305 -7.10219 -14.4434
H -4.04445 -7.78321 -13.3213
O 11.7913 -6.08915 9.4246
H 11.8188 -5.16389 9.80283
H 12.7084 -6.48693 9.44991
O 5.78829 -12 9.55506
H 5.78438 -12.8619 9.04804
H 4.94111 -11.9182 10.08
O -10.9407 10.328 -9.50378
H -10.6744 9.36433 -9.52464
H -11.4447 10.5526 -10.3377
O -6.05143 6.07812 11.342
H -6.06464 5.11338 11.0793
H -5.29354 6.2412 11.9736
O -11.8833 -12.9188 -5.23542
H -11.35 -13.7637 -5.27413
H -12.7837 -13.1106 -4.845
O 11.4602 6.80146 8.31539
H 12.4093 7.00228 8.07279
H 10.9417 6.59135 7.48662
O -14.7276 5.31122 -11.49
H -13.9837 5.92663 -11.7502
H -14.8439 4.61195 -12.1953
O 14.7031 6.58104 4.02444
H 13.9294 7.21435 4.03761
H -14.3722 7.05437 4.33705
O 3.4494 7.72601 -2.66903
H 2.99123 8.45482 -2.16026
H 4.35969 8.03398 -2.94553
O -10.1292 -4.9922 14.2943
H -10.5582 -5.26082 13.4319
H -10.535 -4.13686 14.6162
O 2.6904 -0.461678 13.3178
H 2.37817 0.488282 13.3149
H 3.61054 -0.511282 12.9295
O -4.74521 -7.98108 -11.6238
H -4.75042 -7.91552 -10.626
H -5.56533 -7.5423 -11.9909
O -6.88254 13.3251 10.9396
H -6.63709 12.3584 10.8679
H -6.21961 13.8758 10.4324
O -5.15944 -12.8593 -1.38928
H -5.46247 -12.3621 -0.576371
H -5.82094 -12.7263 -2.12727
O 0.573491 12.8785 11.8374
H 0.0261171 12.834 11.0018
H 0.343894 13.7105 12.3424
O 0.218285 4.57761 -10.0177
H -0.380763 4.11401 -10.6705
H 0.210772 5.56103 -10.1986
O -5.78477 -10.2949 10.1585
H -6.64551 -10.7163 10.4439
H -5.02328 -10.7407 10.6288
O -9.10897 8.69062 4.01126
H -8.13226 8.51996 3.88157
H -9.23658 9.5805 4.44915
O 9.87193 -4.20086 14.5396
H 10.803 -4.55602 14.4567
H 9.40452 -4.28235 13.6594
O -9.85561 -14.5696 -4.21877
H -9.98123 -14.0074 -3.40141
H -8.91516 -14.477 -4.5457
O 12.7861 -1.98401 6.92026
H 12.7186 -1.84256 5.93266
H 13.73 -1.83454 7.2146
O 14.6745 3.61727 -9.28473
H -14.6886 4.01546 -8.54017
H 14.9484 4.03319 -10.1519
O -0.645281 4.42835 9.30288
H 0.345826 4.55957 9.28262
H -0.853504 3.51527 9.65338
O 12.8128 4.74594 -5.93869
H 12.0895 4.15783 -5.577
H 12.7431 4.78547 -6.93543
O 11.6118 1.35637 14.7493
H 10.7232 1.02042 -14.8376
H 12.2962 1.19921 -14.4376
O -1.1756 -14.2016 2.61758
H -1.85525 -14.1676 3.35028
H -1.59012 -13.8872 1.76362
O 2.13228 6.36815 -6.78191
H 2.82152 6.47242 -7.49885
H 1.23046 6.59191 -7.15146
O -1.42254 -11.1068 -12.6036
H -1.78363 -10.559 -11.849
H -2.16887 -11.6147 -13.0337
O 7.03205 -1.1006 10.496
H 6.50598 -0.411821 9.9972
H 6.5283 -1.3765 11.3145
O -4.81336 -7.72337 9.11681
H -5.2229 -7.03819 9.71907
H -5.07437 -8.63774 9.4262
O -1.1447 -10.2089 13.1196
H -0.336228 -10.7368 13.3797
H -1.90026 -10.4311 13.7358
O -6.35973 -12.9212 -11.1349
H -7.27822 -12.9932 -10.7462
H -6.17536 -11.9695 -11.3802
O -7.62163 -13.4078 9.30677
H -7.16977 -12.9653 10.0813
H -8.28868 -14.0716 9.6449
O 5.12139 13.5829 -10.8772
H 4.4836 12.8335 -11.0548
H 5.03213 14.2736 -11.5947
O -6.22132 14.4258 -12.0071
H -6.09354 -14.5283 -11.7051
H -6.41161 13.8457 -11.2152
O -4.23074 -4.20669 1.33499
H -3.37696 -3.82412 0.981983
H -4.99726 -3.63242 1.04759
O 13.3626 11.9579 10.1187
H 12.507 11.462 10.267
H 13.1618 12.9171 9.91984
O -0.941604 -2.93856 -4.59363
H -1.33469 -2.03369 -4.75674
H -0.561689 -3.29565 -5.4469
O -5.58967 9.39905 -12.4174
H -6.17582 10.2092 -12.4093
H -4.6935 9.63228 -12.04
O -8.50068 7.4673 -14.6178
H -9.04434 8.26348 -14.3524
H -7.52885 7.67572 -14.5081
O 10.9966 11.2691 3.63568
H 10.2873 11.9045 3.33046
H 10.8133 10.3602 3.26125
O 2.65051 2.87187 -1.96202
H 1.65318 2.94178 -1.94267
H 3.05128 3.763 -1.74944
O 12.36 -6.57487 2.67682
H 11.4448 -6.61961 2.27638
H 12.3017 -6.19457 3.5998
O -1.91562 13.1164 -11.8763
H -1.06293 12.6225 -11.7063
H -2.43807 13.1819 -11.0262
O -4.90827 3.96853 0.86701
H -4.29693 4.58456 0.370335
H -5.63411 3.65446 0.255097
O 10.0318 9.53996 -11.8173
H 9.48308 10.3757 -11.798
H 10.4455 9.4337 -12.7215
O -0.205297 0.52099 12.6649
H -0.612807 0.89201 11.8305
H 0.476587 1.16234 13.0165
O 9.01299 -4.22184 11.8854
H 8.86046 -5.19702 11.7252
H 8.83211 -3.71345 11.0435
O -13.236 -4.10034 7.92363
H -13.0367 -4.07152 8.90309
H -13.6909 -3.25264 7.65099
O -14.3244 -2.06244 -7.27066
H -13.9708 -2.58438 -8.04687
H -14.837 -2.67132 -6.66537
O -9.21143 -9.6661 -7.51443
H -8.40627 -9.58876 -6.92651
H -8.92277 -9.87032 -8.44978
O -14.9435 -0.00773616 -0.0549625
H 14.0295 0.297758 -0.277006
H -14.4877 0.687054 0.501304
O -8.00481 12.8373 3.16867
H -8.75342 13.0007 2.52616
H -7.7988 13.6823 3.66216
O -7.63384 11.1296 -12.4453
H -8.14873 11.4824 -11.6641
H -7.89363 11.632 -13.27
O -7.79687 10.7464 5.4901
H -8.24546 11.4293 6.06662
H -7.48455 11.1779 4.64385
O -7.7256 -6.30631 -7.80523
H -7.32299 -5.65072 -7.16645
H -7.92848 -7.15903 -7.32394
O -4.98076 -3.01938 -10.7781
H -4.00467 -3.23166 -10.7321
H -5.28942 -2.6763 -9.89104
O 10.6889 11.4296 10.7027
H 10.2103 12.1835 10.2526
H 10.7443 11.6091 11.6849
O -3.49722 -11.1753 11.707
H -2.52704 -11.4148 11.7429
H -3.68172 -10.4345 12.3528
O -3.39854 -0.513541 5.21112
H -3.55764 -0.854798 4.28475
H -3.57207 0.470879 5.23806
O -6.65367 5.83055 -8.73906
H -6.90292 6.43362 -7.98137
H -6.81142 6.30246 -9.60643
O -14.5692 2.1507 -3.00607
H 14.8054 2.89084 -2.58509
H -14.1078 1.62197 -2.29364
O -6.03941 10.5891 10.6156
H -6.96044 10.2549 10.4157
H -5.37908 10.1146 10.0335
O -12.6314 -4.69291 -7.98041
H -12.1443 -3.82168 -8.04002
H -12.1933 -5.36154 -8.58116
O 3.97053 -1.47327 -14.3203
H 3.52405 -1.09794 14.7663
H 3.28757 -1.62975 -13.6069
O 7.2399 -8.25501 -14.7817
H 7.02257 -7.67672 -13.9954
H 6.62302 -8.03553 14.3614
O 3.83695 6.0469 13.3157
H 4.10389 5.85009 14.259
H 3.78751 7.03676 13.1829
O -4.95217 -1.04019 9.97173
H -5.47296 -0.226575 9.71342
H -4.468 -1.39398 9.17152
O 0.790777 14.5916 7.10176
H 1.00559 14.8067 6.14914
H 0.439606 13.6572 7.16143
O -4.47895 -3.58388 -3.36628
H -5.21303 -3.03484 -2.96678
H -4.03707 -4.12221 -2.64875
O -13.4754 -5.33253 -0.349028
H -14.1486 -4.87055 0.228317
H -13.8437 -5.43589 -1.27295
O 6.65639 2.54932 -5.00236
H 6.09587 2.30783 -4.21027
H 6.38043 1.99488 -5.78745
O -11.7878 -13.953 3.66229
H -12.2953 -13.9029 4.52243
H -12.391 -14.2879 2.93846
O -11.5964 1.73922 11.9574
H -11.6103 1.58942 12.946
H -10.6493 1.80628 11.6437
O 10.4999 -5.87003 -10.8252
H 10.546 -4.878 -10.7083
H 9.86362 -6.08924 -11.5648
O 1.30453 -12.7928 -0.456358
H 1.73861 -12.5529 -1.32465
H 1.78549 -13.5677 -0.0461606
O 14.5157 -4.49821 1.41813
H 13.7862 -4.94115 1.93925
H 14.9157 -3.76215 1.96414
O -4.12465 10.3355 -1.6818
H -4.88266 10.8518 -2.08024
H -3.7997 10.8019 -0.859121
O 1.27736 -6.34485 9.24641
H 1.54556 -5.86411 10.0812
H 1.78695 -7.20244 9.17731
O 0.981501 -7.69931 -4.10304
H 0.088642 -8.08525 -4.33495
H 1.01837 -7.51069 -3.12173
O -12.1007 5.10054 10.2612
H -12.8089 4.43542 10.4978
H -12.4513 6.02597 10.4047
O 1.88459 3.76074 -7.93006
H 1.3994 3.89261 -8.79442
H 2.09895 4.65128 -7.52893
O -8.60476 -5.01195 -1.51378
H -9.55668 -5.02655 -1.81966
H -8.52559 -5.5043 -0.647041
O 2.33198 -12.1365 -2.89296
H 2.03579 -12.5687 -3.74467
H 3.21853 -11.6959 -3.03355
O -5.48041 -2.39118 -13.5908
H -6.34394 -2.75417 -13.9408
H -5.38912 -2.62372 -12.6225
O -8.05177 1.49567 -6.80548
H -7.47008 1.09967 -7.51593
H -8.37226 0.771388 -6.19506
O 1.40098 -3.60171 7.33953
H 1.50307 -3.842 6.37425
H 1.11629 -4.40941 7.85576
O 14.8544 -0.282259 3.82326
H 13.9889 -0.783097 3.83346
H 14.7662 0.52359 3.23781
O -0.185666 -3.48266 -12.0663
H 0.00392642 -2.9707 -12.9041
H 0.329693 -3.08358 -11.308
O -3.02981 13.0131 5.44659
H -2.88251 13.9999 5.38028
H -2.33637 12.6121 6.04511
O 0.688104 -10.3539 10.938
H -0.159468 -10.7289 10.5626
H 0.532588 -10.0566 11.88
O 4.67107 5.18056 -4.92113
H 3.73307 5.07318 -4.59167
H 5.2711 4.54895 -4.43025
O 10.9238 -7.80437 11.7336
H 9.92634 -7.73528 11.7188
H 11.3021 -7.33742 10.9344
O -11.6787 1.85191 14.686
H -12.2594 1.68174 -14.4167
H -11.3946 2.81062 14.6796
O -10.8389 5.89003 -8.07417
H -10.4882 5.10538 -7.563
H -11.6379 5.61085 -8.60661
O -8.90516 14.8944 -7.75759
H -9.02086 13.9905 -7.34597
H -9.65083 -14.8336 -8.40155
O 1.87721 -8.23576 14.3017
H 1.12502 -8.53313 14.8897
H 1.90169 -8.8036 13.479
O 3.61053 11.5044 -12.1043
H 2.85469 11.4981 -11.4496
H 3.27104 11.2432 -13.0078
O -3.66938 -0.041014 -14.5418
H -4.36317 -0.704937 -14.2629
H -2.97095 -0.499632 14.8077
O -7.69464 1.23104 -12.0309
H -8.5055 1.7793 -11.8263
H -6.98621 1.41688 -11.3501
O 12.9219 -12.0243 -5.74182
H 12.3354 -12.8304 -5.82104
H 13.3146 -11.8087 -6.63581
O 8.79048 5.38012 2.34762
H 8.24266 5.05258 1.57786
H 8.18919 5.59451 3.1173
O 3.85499 -7.689 11.181
H 3.89428 -6.69586 11.0712
H 3.65861 -8.11447 10.2976
O -4.64222 -8.58795 -5.01549
H -4.04716 -9.19632 -5.54056
H -4.12244 -7.78619 -4.72064
O 6.57209 12.862 13.8838
H 6.61431 13.6861 14.4486
H 7.40783 12.3278 14.0107
O 13.0365 1.18326 6.17402
H 12.7511 1.93706 5.58219
H 12.4746 0.37845 5.98306
O 0.188576 4.26185 5.05611
H -0.209 4.89726 5.718
H 0.0480771 3.32278 5.36968
O 10.1062 -9.73139 -11.8254
H 9.42965 -10.0121 -11.1447
H 11.0253 -9.91838 -11.4787
O -8.99045 -8.80298 -2.98763
H -9.44221 -8.94801 -2.10741
H -9.57833 -9.13914 -3.72338
O -11.1861 1.56639 -1.01176
H -10.9923 2.54526 -1.0763
H -11.6936 1.38188 -0.170173
O 8.18003 5.75694 13.3264
H 8.30771 6.40293 14.079
H 8.01061 6.26101 12.4796
O 12.4196 -5.34493 14.4659
H 12.8205 -5.8626 13.7101
H 12.2875 -5.94979 -14.6477
O -13.2192 -10.7854 14.7324
H -12.2807 -11.0596 14.5228
H -13.7852 -11.6006 14.8546
O 2.89578 -8.91292 5.08961
H 3.77459 -9.17052 4.68804
H 2.48483 -8.17872 4.54925
O -11.9664 8.53617 -7.37146
H -12.1156 7.98684 -6.54933
H -11.2478 8.11718 -7.92642
O 13.0902 -0.586396 10.2129
H 13.2613 -0.682147 11.1935
H 12.9597 0.379654 9.99014
O 5.94229 -5.80989 9.65467
H 6.39637 -6.69563 9.55878
H 5.97857 -5.32068 8.7833
O 13.3734 0.307052 -4.08281
H 13.9546 1.01951 -3.68977
H 13.1477 0.544557 -5.02758
O 9.47488 0.560541 -11.1053
H 9.52895 0.44478 -10.1136
H 10.2617 1.08997 -11.4225
O -12.7414 6.81385 -5.5881
H -13.0531 7.44913 -4.88157
H -11.8082 6.51888 -5.38293
O -2.75353 12.1859 -0.172933
H -3.33378 12.9944 -0.27116
H -2.6877 11.9384 0.793658
O 12.0365 -1.72767 -3.0218
H 12.5543 -1.02588 -3.51089
H 12.4656 -1.90161 -2.13552
O -5.62005 -12.532 4.76171
H -6.30021 -13.257 4.65378
H -5.62419 -12.2093 5.70817
O 12.5147 -4.19543 -8.09304
H 13.2817 -4.73294 -7.74267
H 12.8122 -3.67095 -8.89076
O 13.4891 4.6377 14.1178
H 12.7964 3.93294 14.2708
H 13.7819 4.61532 13.162
O 9.75042 -7.52159 7.69743
H 10.5867 -7.01369 7.90383
H 9.66787 -7.63974 6.70791
O -14.618 12.3612 -9.94018
H -13.9665 11.9378 -10.5695
H 14.5229 11.7312 -9.7714
O -4.06309 5.41986 6.95251
H -4.06856 5.79065 7.88117
H -4.4693 4.50613 6.95605
O -8.28367 -2.05079 -14.0351
H -8.88724 -1.98499 -14.8296
H -7.93247 -1.14269 -13.8072
O 10.3839 14.6198 4.35929
H 10.9003 13.8892 4.80597
H 10.9923 -14.76 3.75893
O -10.0007 11.8849 8.26716
H -10.8895 11.6206 7.8928
H -9.44924 12.3089 7.54879
O 1.85366 9.56817 -1.22819
H 2.29483 9.50765 -0.332858
H 0.869225 9.42621 -1.12496
O -0.278957 13.9309 -2.98587
H 0.418114 14.0544 -3.6921
H -0.745418 13.0577 -3.12704
O 13.2272 -0.238631 13.2327
H 13.9416 -0.513798 13.876
H 12.607 0.406188 13.6792
O -1.47034 -4.5905 -2.5693
H -1.60978 -3.96983 -1.79778
H -1.38648 -4.06009 -3.41284
O 9.02847 0.518484 11.4134
H 9.88496 0.0173485 11.5367
H 8.34214 -0.0881727 11.0123
O 11.7208 6.43554 -11.9288
H 11.2768 7.30326 -12.152
H 12.3113 6.55874 -11.1312
O 14.5061 10.4322 -1.16228
H -14.7306 10.9083 -0.583739
H 14.4829 9.46361 -0.914692
O 3.65973 8.89769 0.766106
H 4.32386 8.17519 0.958065
H 4.13898 9.76644 0.641592
O 3.98376 8.02512 -5.52661
H 3.9803 7.0506 -5.75072
H 3.17743 8.24359 -4.97704
O -5.84461 -14.7261 7.58492
H -6.50912 -14.1408 8.04954
H -5.12599 14.9086 8.22812
O 9.30073 -2.68107 5.47045
H 9.97737 -3.2647 5.91929
H 8.67945 -3.24702 4.92857
O 12.2154 14.1841 8.77931
H 11.744 -14.8333 8.75175
H 11.8875 13.6072 8.03124
O -7.65281 14.0857 -1.21511
H -8.33426 14.7262 -1.56903
H -8.11226 13.2675 -0.869503
O 8.3628 4.69543 9.03477
H 7.4109 4.64253 8.7331
H 8.43062 4.37927 9.98101
O 6.65642 -3.84784 -3.41286
H 5.95856 -3.18709 -3.13661
H 6.52576 -4.08812 -4.37469
O 5.09062 7.52497 4.49919
H 5.20572 8.5046 4.66346
H 5.58097 7.2667 3.66686
O -4.59165 -7.58857 12.7731
H -4.63674 -7.18546 13.6871
H -3.64555 -7.57601 12.4496
O -0.421738 -8.36638 7.03117
H -1.09311 -8.19936 7.75317
H 0.480549 -8.50267 7.44009
O 14.131 -11.1162 -8.30027
H 13.7528 -10.4554 -8.94855
H -14.7791 -10.9849 -8.22909
O 3.08714 -10.5693 7.2712
H 2.84489 -9.88689 6.58162
H 2.99568 -11.4852 6.8803
O 7.47747 -12.7077 -3.48816
H 6.77946 -12.3063 -4.08109
H 8.28094 -12.1127 -3.46913
O -14.2827 -12.9737 12.9203
H -14.068 -13.2352 11.9793
H 14.8009 -13.4659 13.2253
O -5.96667 8.28017 -14.7849
H -5.80886 8.74708 -13.9148
H -5.39701 8.69541 14.4048
O -5.42233 -13.1863 13.6157
H -6.26438 -13.548 13.2157
H -4.9168 -12.674 12.9215
O -5.15126 3.0426 -5.35421
H -4.50942 3.3283 -6.06578
H -5.72776 3.81736 -5.09476
O -9.72073 13.3374 1.22874
H -9.53152 12.9703 0.318068
H -10.3495 14.1112 1.15213
O -2.81262 -0.828627 -5.85471
H -3.69848 -0.466536 -5.56477
H -2.08062 -0.267012 -5.4691
O 14.4604 -6.84111 8.60334
H 14.2825 -6.79762 7.62028
H -14.5699 -7.30967 8.76448
O 2.9431 -9.11284 2.2079
H 3.24991 -8.42608 1.549
H 3.03864 -10.0244 1.80811
O -9.09592 3.58968 -2.70335
H -9.23151 4.54493 -2.44058
H -9.75979 3.34049 -3.40841
O 4.67332 10.9324 -2.78859
H 4.16781 11.6288 -3.29786
H 4.39337 10.9525 -1.82883
O 12.4798 -8.20966 5.73715
H 12.6123 -7.23659 5.54878
H 13.3327 -8.60155 6.08202
O -4.29202 9.84932 -5.78072
H -4.15326 8.87491 -5.95733
H -3.43801 10.2537 -5.45348
O 14.8786 6.63616 -2.53865
H 13.9209 6.81686 -2.7623
H -14.8806 5.65066 -2.44274
O 0.539361 -13.0347 -14.3033
H 1.25766 -13.6111 -13.9137
H 0.0221047 -12.602 -13.5649
O 4.17772 -13.8423 -4.23325
H 4.12347 -13.7005 -3.24488
H 4.45838 -12.9914 -4.67715
O 0.441115 -2.29488 12.0438
H 0.315891 -1.36463 12.3886
H -0.383441 -2.83104 12.2243
O 3.85835 -11.8055 2.00568
H 4.67162 -12.1989 2.43434
H 3.14695 -12.5048 1.9361
O -2.72199 -11.5271 -1.49135
H -2.08461 -12.2947 -1.42439
H -3.66084 -11.8691 -1.45237
O 4.58036 6.05337 7.91049
H 5.34869 6.69239 7.87515
H 4.25007 5.87765 6.98316
O 2.72277 4.63141 1.01308
H 2.2702 5.51239 1.15085
H 3.27786 4.66819 0.182152
O 11.7299 6.6199 14.2815
H 10.9914 5.95374 14.385
H 12.5206 6.17784 13.8581
O 5.84881 6.95042 1.76993
H 5.64221 6.06409 1.35563
H 6.74228 7.26703 1.45152
O -13.6554 -11.0686 9.74759
H -14.615 -11.2851 9.56782
H -13.1428 -11.916 9.88563
O -7.96999 10.2241 1.54892
H -7.82547 11.1093 1.99113
H -8.9486 10.0202 1.52332
O -14.3512 -11.1292 -1.95502
H -14.9197 -11.9422 -1.82939
H -14.724 -10.5733 -2.69796
O -13.6044 -2.31785 12.9796
H -14.1209 -3.10742 12.6485
H -13.3658 -1.7282 12.2081
O -11.6456 -0.719482 1.75997
H -11.976 0.224216 1.7453
H -11.3807 -0.965421 2.69231
O -8.70678 9.60008 9.73543
H -9.12755 10.1789 9.03698
H -8.70105 8.65046 9.42219
O -2.42997 6.49516 -4.26774
H -2.17103 7.45155 -4.13287
H -1.83451 6.08267 -4.95708
O 4.29953 -5.73793 2.24187
H 4.51877 -4.8494 1.83893
H 5.06657 -6.36459 2.10449
O 10.8505 9.19206 -14.5349
H 10.1917 9.29216 14.6183
H 11.599 8.59775 -14.829
O 13.2697 14.8043 -14.0705
H 13.3192 14.152 -13.3142
H 12.3992 -14.604 -14.0311
O 8.27533 0.697768 7.2945
H 9.06664 0.569183 7.89217
H 7.45351 0.358148 7.75187
O -0.258268 -9.49502 1.98057
H 0.127282 -10.3579 2.30734
H -0.213071 -8.81237 2.70985
O -6.00015 14.1412 -6.94656
H -5.70115 14.8682 -7.56466
H -6.62875 13.5312 -7.4289
O 5.61491 -14.8496 8.69556
H 6.01882 14.727 9.5517
H 5.86863 14.4292 7.95322
O 12.8108 -14.8859 -9.04392
H 13.0895 14.6982 -8.1366
H 13.6211 -14.7573 -9.61553
O -2.58205 -5.39098 -6.19546
H -2.7288 -5.86451 -5.32704
H -3.27073 -4.67426 -6.3048
O 11.5879 -10.5933 12.1742
H 12.3648 -10.6163 12.8034
H 11.1776 -9.68148 12.1844
O 4.30018 -6.85907 -7.51002
H 3.71989 -7.31171 -8.187
H 3.74899 -6.60439 -6.71552
O 1.66154 -5.81644 2.93419
H 2.6255 -5.81353 2.6683
H 1.35637 -6.75882 3.07099
O 1.90264 -14.691 9.65235
H 1.57037 -14.5633 8.7179
H 2.05099 14.2338 9.82312
O -7.59298 -6.7154 0.543955
H -7.95925 -7.64334 0.612513
H -6.81421 -6.61784 1.16356
O 6.31444 -7.42961 1.21678
H 6.65381 -6.75605 0.560211
H 5.90621 -8.19844 0.724668
O -8.63073 3.94741 14.409
H -8.10963 4.16619 13.5841
H -8.45375 4.63979 -14.7904
O -0.114619 -1.38604 8.47429
H 0.381445 -2.07867 7.95073
H 0.491261 -0.994255 9.16662
O 2.7874 9.74769 7.10207
H 2.60933 8.84021 7.48245
H 3.75809 9.8299 6.87641
O 6.50844 -14.8352 -9.06133
H 6.2903 14.3234 -9.69718
H 6.42637 -13.9567 -9.53184
O -4.79353 2.23268 7.6532
H -5.69504 1.80038 7.67093
H -4.11474 1.60365 8.03201
O 13.6194 9.86278 2.93799
H 13.4661 9.18898 2.2152
H 12.7872 10.4001 3.07469
O -6.28926 -14.5499 0.983422
H -6.88307 -14.5886 0.179799
H -5.89828 14.4444 1.15283
O 3.74155 11.956 -0.412912
H 2.76875 12.1314 -0.563861
H 4.00691 12.3019 0.486983
O -7.0908 -10.0747 -9.62311
H -6.74281 -9.15909 -9.42195
H -6.45383 -10.7588 -9.26793
O 2.55725 1.96137 -13.9817
H 2.25849 2.88555 -13.7439
H 3.53427 1.8674 -13.7906
O -14.2513 -5.40045 12.1066
H -14.4168 -5.3772 11.1207
H 14.8774 -5.84556 12.5635
O 3.63122 -7.40817 -13.6262
H 3.64203 -6.47156 -13.9763
H 3.18913 -8.00813 -14.2929
O 1.99739 7.58166 8.46329
H 2.62179 6.81409 8.31884
H 1.33115 7.34107 9.16909
O -14.4446 -1.67129 -4.30933
H 14.8168 -2.29511 -3.85716
H -14.8374 -0.752002 -4.33194
O 5.56005 0.964064 13.4341