LAMMPS data file via write_data, version 15 May 2015, timestep = 8008000

2611 atoms
6 atom types
1749 bonds
4 bond types
894 angles
3 angle types
44 dihedrals
3 dihedral types
10 impropers
1 improper types

-1.5064880747627909e+01 1.5064880747627909e+01 xlo xhi
-1.5064880747627909e+01 1.5064880747627909e+01 ylo yhi
-1.5064880747627909e+01 1.5064880747627909e+01 zlo zhi

Masses

1 15.9994
2 1.00794
3 12.0107
4 1.00794
5 12.0107
6 12.0107

Bond Coeffs # harmonic

1 1000 1
2 469 1.4
3 367 1.08
4 469 0.7

Angle Coeffs # harmonic

1 100 109.47
2 35 120
3 63 120

Dihedral Coeffs # opls

1 0 7.25 0 0
2 0 7.25 0 0
3 0 7.25 0 0

Improper Coeffs # cvff

1 2.5 -1 2

Atoms # full

1253 418 2 4.0999999999999998e-01 -1.2789971528860120e+01 -1.4414769256512569e+01 -1.3532422348403665e+01 1 2 0
1252 418 1 -8.1999999999999995e-01 -1.2064308711750300e+01 -1.4374049419476339e+01 -1.4219282904729909e+01 1 2 0
1558 520 1 -8.1999999999999995e-01 -1.3908103543631011e+01 -1.4440938977333330e+01 -7.8495450001872253e+00 3 -1 -1
1243 415 1 -8.1999999999999995e-01 -9.8393945314781384e+00 -1.2775251603012293e+01 -1.4024572204500419e+01 0 3 1
498 166 2 4.0999999999999998e-01 -1.1041264672617956e+01 -1.1071704903702976e+01 -8.6255860000174192e+00 4 1 -2
1790 597 2 4.0999999999999998e-01 -9.5693037806433914e+00 -1.0986343577586293e+01 -1.3829038118211693e+01 3 -1 1
1560 520 2 4.0999999999999998e-01 -1.4228747689373289e+01 -1.3828002976064301e+01 -8.5717076095017291e+00 3 -1 -1
2220 740 2 4.0999999999999998e-01 -7.9309380055423109e+00 -1.3124668142284225e+01 -9.3003165672838044e+00 -1 1 -2
496 166 1 -8.1999999999999995e-01 -1.0433807765433789e+01 -1.0292347387444330e+01 -8.7792740543135359e+00 4 1 -2
1197 399 2 4.0999999999999998e-01 -1.1976018104297955e+01 -1.0355643198673208e+01 -1.3901945540317202e+01 -1 -2 0
998 333 2 4.0999999999999998e-01 -9.2709798384500282e+00 -6.9762043942881924e+00 -1.2756104160436816e+01 2 0 -1
997 333 1 -8.1999999999999995e-01 -9.6694248919673349e+00 -7.2104285594387170e+00 -1.3642897610707397e+01 2 0 -1
497 166 2 4.0999999999999998e-01 -1.0971027041787506e+01 -9.4490385832130848e+00 -8.7950142494622483e+00 4 1 -2
2499 833 2 4.0999999999999998e-01 -1.2141488139391249e+01 -6.4058117079973957e+00 -1.3659924198305877e+01 0 2 2
999 333 2 4.0999999999999998e-01 -1.0275856265767807e+01 -7.9986429406050013e+00 -1.3538106751796251e+01 2 0 -1
2008 670 1 -8.1999999999999995e-01 -1.2517333665654771e+01 -7.4508420390750834e+00 -1.2224854262146929e+01 -2 2 -3
1244 415 2 4.0999999999999998e-01 -8.9792379925283292e+00 -1.3233155618542604e+01 -1.4249242368471453e+01 0 3 1
2010 670 2 4.0999999999999998e-01 -1.1833177842468201e+01 -7.1459308340968102e+00 -1.1562297062719324e+01 -2 2 -3
2304 768 2 4.0999999999999998e-01 -1.0938668489593011e+01 -7.2310195415525795e+00 -9.7278887617303234e+00 3 -2 1
734 245 2 4.0999999999999998e-01 -1.4645643541885669e+01 -1.3308843870592421e+01 -1.0798163377727102e+01 1 0 -2
1245 415 2 4.0999999999999998e-01 -1.0561411352694229e+01 -1.3458153480086516e+01 -1.3913402064115072e+01 0 3 1
2498 833 2 4.0999999999999998e-01 -1.0965948510365983e+01 -5.9459697061917183e+00 -1.4695944066196263e+01 0 2 2
1945 649 1 -8.1999999999999995e-01 -9.0695479465845565e+00 -9.9597885389101428e+00 -1.1033841668532093e+01 3 -1 2
1195 399 1 -8.1999999999999995e-01 -1.2440319590757994e+01 -1.0996240589974473e+01 -1.3290323764285649e+01 -1 -2 0
1946 649 2 4.0999999999999998e-01 -9.6561137440296108e+00 -1.0026776250654887e+01 -1.0226701498410058e+01 3 -1 2
157 53 1 -8.1999999999999995e-01 -9.3342258733536383e+00 -1.5007932704259655e+01 -1.0008524757681712e+01 2 -1 2
1196 399 2 4.0999999999999998e-01 -1.1800958907588535e+01 -1.1712181875570739e+01 -1.3009845558218551e+01 -1 -2 0
2278 760 1 -8.1999999999999995e-01 -1.4214961913203659e+01 -9.7697935156565272e+00 -1.1581315048558407e+01 5 1 -1
2280 760 2 4.0999999999999998e-01 -1.3500631685268564e+01 -1.0244901986781786e+01 -1.2095149990217230e+01 5 1 -1
2009 670 2 4.0999999999999998e-01 -1.3062759402590359e+01 -8.1878029640993546e+00 -1.1825578156009518e+01 -2 2 -3
2383 795 1 -8.1999999999999995e-01 -1.2741033272367188e+01 -1.1817489674309668e+01 -8.6528353323199454e+00 3 -1 0
1791 597 2 4.0999999999999998e-01 -9.1951063740565910e+00 -1.0013972034470358e+01 -1.2571598208755185e+01 3 -1 1
2302 768 1 -8.1999999999999995e-01 -1.0648138604022437e+01 -6.7483540018119843e+00 -1.0554114155253773e+01 3 -2 1
1789 597 1 -8.1999999999999995e-01 -9.1343126914210728e+00 -1.0125952873663255e+01 -1.3563458311392749e+01 3 -1 1
1883 628 2 4.0999999999999998e-01 -1.4679251435050597e+01 -5.9393061685591970e+00 -1.3024955892637118e+01 3 1 1
1759 587 1 -8.1999999999999995e-01 -1.0881724287825184e+01 -1.3628421002536978e+01 -8.2228774689697222e+00 -1 2 0
2469 823 2 4.0999999999999998e-01 -1.2659555293716483e+01 -7.3082865413181324e+00 -8.3158711891167840e+00 1 1 -4
1842 614 2 4.0999999999999998e-01 -9.6349863591374394e+00 -7.2498068454475000e+00 -8.1102087589209422e+00 7 -4 1
2467 823 1 -8.1999999999999995e-01 -1.1823865458645924e+01 -7.8441757168307271e+00 -8.4361514368632999e+00 1 1 -4
1639 547 1 -8.1999999999999995e-01 -1.4202725990437592e+01 -6.8916591334044277e+00 -8.1773191685813487e+00 3 2 -2
2385 795 2 4.0999999999999998e-01 -1.3605644190988528e+01 -1.1917728071913707e+01 -9.1451992928689414e+00 3 -1 0
1641 547 2 4.0999999999999998e-01 -1.4292254236968478e+01 -6.1111500180294875e+00 -8.7960374203714213e+00 3 2 -2
1760 587 2 4.0999999999999998e-01 -1.1758972433647386e+01 -1.3180236133189103e+01 -8.3948892597563169e+00 -1 2 0
2384 795 2 4.0999999999999998e-01 -1.2917357764063327e+01 -1.1443233231123134e+01 -7.7424157373136389e+00 3 -1 0
158 53 2 4.0999999999999998e-01 -1.0068808877054025e+01 -1.4867044209108190e+01 -9.3447776043163913e+00 2 -1 2
733 245 1 -8.1999999999999995e-01 -1.4979417874316328e+01 -1.2672757689661930e+01 -1.0102454285320210e+01 1 0 -2
1711 571 1 -8.1999999999999995e-01 -1.1031414044473447e+01 -1.2902968876037090e+01 -1.1098481153686437e+01 2 3 3
2497 833 1 -8.1999999999999995e-01 -1.1954205068547994e+01 -5.9880098976469505e+00 -1.4548962311935192e+01 0 2 2
2303 768 2 4.0999999999999998e-01 -1.0754018753951119e+01 -5.7631539355416592e+00 -1.0419235479471972e+01 3 -2 1
1609 537 1 -8.1999999999999995e-01 -1.3666496956117692e+01 -1.4400245944531108e+01 -1.1710279267039441e+01 5 2 -2
809 270 2 4.0999999999999998e-01 -7.7370967440564291e+00 -9.8032325055831873e+00 -1.4722311384945909e+01 2 1 2
1947 649 2 4.0999999999999998e-01 -8.7194247710404209e+00 -9.0265881442784917e+00 -1.1114914753596489e+01 3 -1 2
2524 842 1 -8.1999999999999995e-01 -7.6545538427059858e+00 -7.6752279787138225e+00 -1.1264562726359371e+01 1 1 4
1712 571 2 4.0999999999999998e-01 -1.0209182917019438e+01 -1.3461501223514205e+01 -1.0988938354931960e+01 2 3 3
59 20 2 4.0999999999999998e-01 -1.4510340417734922e+01 -8.7823074623349733e+00 -8.5098239363035173e+00 1 -1 -1
1713 571 2 4.0999999999999998e-01 -1.1184963730183785e+01 -1.2369145404244890e+01 -1.0266930156132727e+01 2 3 3
1611 537 2 4.0999999999999998e-01 -1.2743511996183209e+01 -1.4103592380578773e+01 -1.1465090611399122e+01 5 2 -2
1679 560 2 4.0999999999999998e-01 -1.4546940650615719e+01 -1.1263542895346085e+01 -1.4721722927971870e+01 2 0 3
60 20 2 4.0999999999999998e-01 -1.4585035433222743e+01 -1.0133814725375313e+01 -9.4233522673569432e+00 1 -1 -1
58 20 1 -8.1999999999999995e-01 -1.5053354851932118e+01 -9.5943896016752941e+00 -8.7235526572078115e+00 1 -1 -1
2159 720 2 4.0999999999999998e-01 -1.4007708370812578e+01 -5.1467079389274630e+00 -1.0500448041669117e+01 3 7 -2
2468 823 2 4.0999999999999998e-01 -1.1462313999176382e+01 -8.1033712931644395e+00 -7.5405397837806705e+00 1 1 -4
1871 624 2 4.0999999999999998e-01 -2.3794227803398762e+00 -1.4679752399718877e+01 -1.2791580075590240e+01 3 0 1
854 285 2 4.0999999999999998e-01 -6.9367601615052781e+00 -1.4045341630507004e+01 -1.1183050983981438e+01 0 1 2
2412 804 2 4.0999999999999998e-01 -5.0485729244535733e+00 -1.4962449842850104e+01 -8.7146378421768382e+00 1 -3 0
855 285 2 4.0999999999999998e-01 -7.0864582026051997e+00 -1.3083474638906145e+01 -1.2494190821127887e+01 0 1 2
853 285 1 -8.1999999999999995e-01 -7.0944528469730983e+00 -1.3108248823931209e+01 -1.1494518684100733e+01 0 1 2
659 220 2 4.0999999999999998e-01 -2.7528450991184901e+00 -9.2566575085919300e+00 -9.6744696421497238e+00 3 -3 2
2431 811 1 -8.1999999999999995e-01 -2.6540373048517019e-01 -1.4779002219091037e+01 -9.8309157193689209e+00 3 3 0
2410 804 1 -8.1999999999999995e-01 -5.7612224084951364e+00 -1.4961201672264636e+01 -9.4161727541826679e+00 1 -3 0
901 301 1 -8.1999999999999995e-01 -5.7883470452282655e+00 -6.1313620363741723e+00 -9.5251862291322382e+00 2 3 1
29 10 2 4.0999999999999998e-01 -7.1202267181969896e+00 -1.4561694842222275e+01 -1.4139239376388169e+01 5 1 4
1282 428 1 -8.1999999999999995e-01 -1.7064558704872645e+00 -5.2138319458118971e+00 -1.2930163315664220e+01 2 5 0
1978 660 1 -8.1999999999999995e-01 -1.9094536598117049e+00 -1.1006145277758730e+01 -1.2061970070719951e+01 3 -1 1
28 10 1 -8.1999999999999995e-01 -7.0389039678669043e+00 -1.3582646816179764e+01 -1.4325984167397912e+01 5 1 4
1782 594 2 4.0999999999999998e-01 -3.0709366399457476e+00 -8.5412378440637600e+00 -1.3980201119091921e+01 -1 0 5
2525 842 2 4.0999999999999998e-01 -7.3197531653091250e+00 -7.1007642531082160e+00 -1.0517620977682364e+01 1 1 4
2193 731 2 4.0999999999999998e-01 -6.1216052601304725e+00 -6.1653449986778242e+00 -1.4824103503231257e+01 2 0 0
2424 808 2 4.0999999999999998e-01 -4.9824993695531248e+00 -8.6453368944224103e+00 -8.6737829468875667e+00 -1 -3 -3
902 301 2 4.0999999999999998e-01 -4.8936307976317348e+00 -6.2484363057295749e+00 -9.9562297299177338e+00 2 3 1
1492 498 1 -8.1999999999999995e-01 -3.0836400803542343e+00 -1.2314043257424199e+01 -1.4360819552146985e+01 1 2 2
30 10 2 4.0999999999999998e-01 -6.1942034191935385e+00 -1.3408925802983420e+01 -1.4832268699960450e+01 5 1 4
1494 498 2 4.0999999999999998e-01 -2.7885147924046016e+00 -1.1653890273048150e+01 -1.3670079992558140e+01 1 2 2
1681 561 1 -8.1999999999999995e-01 -2.4239947657248742e+00 -1.3072120397707636e+01 -1.0069766139724267e+01 1 0 0
1493 498 2 4.0999999999999998e-01 -4.0091033202505066e+00 -1.2087488470320894e+01 -1.4664485097563295e+01 1 2 2
2422 808 1 -8.1999999999999995e-01 -4.2660945257957383e+00 -9.2873927496387605e+00 -8.9468221789280875e+00 -1 -3 -3
1781 594 2 4.0999999999999998e-01 -2.9238971422013211e+00 -9.6479640370871387e+00 -1.2788470509780922e+01 -1 0 5
1929 643 2 4.0999999999999998e-01 -6.8463618960176227e+00 -1.0179053651426905e+01 -1.0774941390216142e+01 3 2 3
2423 808 2 4.0999999999999998e-01 -4.5873639300291948e+00 -9.8370777932444664e+00 -9.7179605489650953e+00 -1 -3 -3
1928 643 2 4.0999999999999998e-01 -6.2908378717077582e+00 -1.1705097539745347e+01 -1.0946021361675950e+01 3 2 3
1927 643 1 -8.1999999999999995e-01 -6.0529471060914588e+00 -1.0776825135437285e+01 -1.0660118607432818e+01 3 2 3
2202 734 2 4.0999999999999998e-01 -2.7416290729119197e+00 -7.1673502021472100e+00 -1.0713950191071209e+01 3 -1 2
2200 734 1 -8.1999999999999995e-01 -3.4431726827910349e+00 -6.6448014417092232e+00 -1.1198513288584572e+01 3 -1 2
1872 624 2 4.0999999999999998e-01 -2.3188704247998970e+00 -1.3841978533270101e+01 -1.4191992025663987e+01 3 0 1
1283 428 2 4.0999999999999998e-01 -2.3550020656537143e+00 -5.6148216158676636e+00 -1.2283157006571656e+01 2 5 0
1683 561 2 4.0999999999999998e-01 -2.4795146335157270e+00 -1.2622006253951129e+01 -9.1785103725257322e+00 1 0 0
427 143 1 -8.1999999999999995e-01 -6.0176000256949198e+00 -7.7179708238025553e+00 -1.3673180693781184e+01 1 0 2
660 220 2 4.0999999999999998e-01 -1.1336216190491264e+00 -9.0454090952546018e+00 -9.6612520209729826e+00 3 -3 2
2201 734 2 4.0999999999999998e-01 -3.8246971192148855e+00 -7.2026357299738715e+00 -1.1935589983247686e+01 3 -1 2
542 181 2 4.0999999999999998e-01 -6.0039347175248334e+00 -6.9946198256237651e+00 -7.9725814947622453e+00 1 1 -1
428 143 2 4.0999999999999998e-01 -6.5802374776061860e+00 -8.3335246457536698e+00 -1.4225045402642163e+01 1 0 2
1780 594 1 -8.1999999999999995e-01 -3.4509852502290101e+00 -8.8624598310537657e+00 -1.3112790290913985e+01 -1 0 5
1870 624 1 -8.1999999999999995e-01 -2.1297148370168024e+00 -1.4723285865573049e+01 -1.3758933592347875e+01 3 0 1
2014 672 1 -8.1999999999999995e-01 -1.5987238671178829e+00 -5.3821108547621801e+00 -9.3513956723859160e+00 3 5 5
1980 660 2 4.0999999999999998e-01 -1.0917559225121884e+00 -1.1059259923227671e+01 -1.2635181453930960e+01 3 -1 1
1682 561 2 4.0999999999999998e-01 -2.8309392530268251e+00 -1.2482079444631104e+01 -1.0767096683303048e+01 1 0 0
2411 804 2 4.0999999999999998e-01 -6.1675506434495819e+00 -1.4049483649282312e+01 -9.4769152547364737e+00 1 -3 0
2015 672 2 4.0999999999999998e-01 -2.1130627008786611e+00 -5.8111034874087117e+00 -8.6088036384006568e+00 3 5 5
1979 660 2 4.0999999999999998e-01 -1.7875372503601525e+00 -1.0291919871225364e+01 -1.1372738250475287e+01 3 -1 1
2526 842 2 4.0999999999999998e-01 -7.0633842269378579e+00 -7.5617088761923501e+00 -1.2063095103418227e+01 1 1 4
658 220 1 -8.1999999999999995e-01 -1.9474384155242852e+00 -9.0829293406741556e+00 -1.0241180032549225e+01 3 -3 2
429 143 2 4.0999999999999998e-01 -5.1541042437268914e+00 -8.1686931666262907e+00 -1.3446803902076265e+01 1 0 2
2432 811 2 4.0999999999999998e-01 -9.5792947789109206e-01 -1.4105227572949188e+01 -1.0088709976533043e+01 3 3 0
2219 740 2 4.0999999999999998e-01 -7.0902182478335272e+00 -1.1877661714232795e+01 -8.6640379402808918e+00 -1 1 -2
2218 740 1 -8.1999999999999995e-01 -7.3750577837721289e+00 -1.2826042702836876e+01 -8.5245317642971585e+00 -1 1 -2
903 301 2 4.0999999999999998e-01 -6.1301340507105415e+00 -5.2102325115526806e+00 -9.7115302056406954e+00 2 3 1
335 112 2 4.0999999999999998e-01 -7.0927606044832103e-01 -1.4727389586517004e+01 -7.7928633269579652e+00 -1 0 -1
1284 428 2 4.0999999999999998e-01 -7.8152424091794614e-01 -5.2724803282882124e+00 -1.2554551970174755e+01 2 5 0
980 327 2 4.0999999999999998e-01 -8.2823407906396085e-02 -6.3904534595642701e+00 -8.8865010129586288e+00 1 -1 1
2224 742 1 -8.1999999999999995e-01 -1.1117296574821790e+01 -8.6527909703256682e+00 -5.8894064343528498e+00 0 0 0
2225 742 2 4.0999999999999998e-01 -1.0165095755478784e+01 -8.7982009020569905e+00 -5.6207215183260875e+00 0 0 0
1136 379 2 4.0999999999999998e-01 -1.2975447486967257e+01 -8.8008250766191303e+00 -3.4785613363397392e+00 3 -1 2
2217 739 2 4.0999999999999998e-01 -1.2841389377405985e+01 -9.5195950850008515e+00 -1.2333392943068713e+00 2 0 2
1115 372 2 4.0999999999999998e-01 -1.0513122133395271e+01 -1.1973988115947485e+01 -5.4828804798211319e+00 2 3 0
1135 379 1 -8.1999999999999995e-01 -1.3340297834709698e+01 -9.6747874251667199e+00 -3.1574754816835675e+00 3 -1 2
1137 379 2 4.0999999999999998e-01 -1.4264957443568790e+01 -9.8020326860468217e+00 -3.5164118447118362e+00 3 -1 2
2031 677 2 4.0999999999999998e-01 -1.1813648293489022e+01 -1.0722474975371437e+01 -3.2473769238115135e+00 2 2 -1
1116 372 2 4.0999999999999998e-01 -9.0952905171802279e+00 -1.2756498776500376e+01 -5.6929181265991744e+00 2 3 0
1640 547 2 4.0999999999999998e-01 -1.4377688804656163e+01 -6.5946496896049318e+00 -7.2385990529678086e+00 3 2 -2
2328 776 2 4.0999999999999998e-01 -9.2786792142340779e+00 -1.4166952659635253e+01 -1.9873150136524682e+00 4 2 -2
2496 832 2 4.0999999999999998e-01 -9.6995465979240265e+00 -7.7025051965251574e+00 -3.2034272637948877e+00 3 0 0
819 273 2 4.0999999999999998e-01 -1.0206867780982670e+01 -1.2665127923107331e+01 -3.3439332335223497e+00 -2 1 -2
2030 677 2 4.0999999999999998e-01 -1.0252322914424603e+01 -1.0404111503056189e+01 -3.6045785955085172e+00 2 2 -1
2494 832 1 -8.1999999999999995e-01 -1.0131928547743303e+01 -6.8315036944800589e+00 -2.9701371488230617e+00 3 0 0
817 273 1 -8.1999999999999995e-01 -1.0160843153275968e+01 -1.3658245842241609e+01 -3.2361343290473030e+00 -2 1 -2
2029 677 1 -8.1999999999999995e-01 -1.0942389368190547e+01 -1.1123990572458498e+01 -3.5297156883526739e+00 2 2 -1
737 246 2 4.0999999999999998e-01 -1.2209147420135036e+01 -9.9186943859160799e+00 -5.9978725633214296e+00 2 -2 -1
261 87 2 4.0999999999999998e-01 -1.3175127604375579e+01 -6.4265649051630298e+00 -4.1884360183163292e+00 -1 3 -2
1559 520 2 4.0999999999999998e-01 -1.3922577723618927e+01 -1.3959667759115963e+01 -6.9730802010668089e+00 3 -1 -1
2226 742 2 4.0999999999999998e-01 -1.1555300820528844e+01 -8.0302883428601035e+00 -5.2408196470115413e+00 0 0 0
736 246 1 -8.1999999999999995e-01 -1.2974881760402369e+01 -1.0551391852758023e+01 -6.1134880177258477e+00 2 -2 -1
259 87 1 -8.1999999999999995e-01 -1.2568383948461060e+01 -7.1825960909723214e+00 -3.9428733382394032e+00 -1 3 -2
818 273 2 4.0999999999999998e-01 -1.0864191228505989e+01 -1.4087940536832823e+01 -3.8024257683355511e+00 -2 1 -2
260 87 2 4.0999999999999998e-01 -1.1837083110214044e+01 -6.8442250629858012e+00 -3.3506519362382168e+00 -1 3 -2
1114 372 1 -8.1999999999999995e-01 -1.0019191667055161e+01 -1.2629679898029391e+01 -6.0539522901544363e+00 2 3 0
1081 361 1 -8.1999999999999995e-01 -1.2452149597341444e+01 -1.4252469627916559e+01 -1.1857873470349389e+00 2 2 0
512 171 2 4.0999999999999998e-01 -8.1121385307130005e+00 -8.7297710397037545e+00 -6.8731543495567635e+00 1 -1 -2
1082 361 2 4.0999999999999998e-01 -1.2699399710467556e+01 -1.4177391340057333e+01 -2.1518373795766550e+00 2 2 0
1598 533 2 4.0999999999999998e-01 -8.2302547654172216e+00 -9.6907715703960857e+00 -6.2670491378281312e-01 2 1 3
2495 832 2 4.0999999999999998e-01 -9.9363866715000668e+00 -6.6074746285944226e+00 -2.0153615790766306e+00 3 0 0
1841 614 2 4.0999999999999998e-01 -9.6372815856330583e+00 -6.1343593926738649e+00 -6.9175407323637419e+00 7 -4 1
511 171 1 -8.1999999999999995e-01 -8.4432200535814257e+00 -9.6098525524962461e+00 -6.5327669305380898e+00 1 -1 -2
738 246 2 4.0999999999999998e-01 -1.3672023497510457e+01 -1.0360783310301223e+01 -5.4223412674547742e+00 2 -2 -1
986 329 2 4.0999999999999998e-01 -8.9290249680031302e+00 -6.0118386864563185e+00 -3.8313234809075958e-01 5 -3 2
1334 445 2 4.0999999999999998e-01 -8.3054805560233476e+00 -9.5657696083477610e+00 -4.4483829407667113e+00 1 0 -1
1335 445 2 4.0999999999999998e-01 -8.2552780693744072e+00 -9.5540428515160727e+00 -2.8161980713089267e+00 1 0 -1
1333 445 1 -8.1999999999999995e-01 -8.8176345285609301e+00 -9.3489980011434408e+00 -3.6172810097367059e+00 1 0 -1
2326 776 1 -8.1999999999999995e-01 -8.6620586148018841e+00 -1.4771321353446782e+01 -1.4827958838560864e+00 4 2 -2
1463 488 2 4.0999999999999998e-01 -1.3774581759647882e+01 -1.1154741721156256e+01 -3.3539569530861613e-01 -2 -2 0
513 171 2 4.0999999999999998e-01 -9.2336161103354755e+00 -9.8999403066653535e+00 -7.0723456659736419e+00 1 -1 -2
14 5 2 4.0999999999999998e-01 -7.6294970102185724e+00 -7.0680089361579261e+00 -4.2004456028086103e+00 3 -2 4
2327 776 2 4.0999999999999998e-01 -7.8554929751382749e+00 -1.4965916152712650e+01 -2.0410133753017270e+00 4 2 -2
1840 614 1 -8.1999999999999995e-01 -9.0609197241549175e+00 -6.7278923455340092e+00 -7.4792770684435794e+00 7 -4 1
2215 739 1 -8.1999999999999995e-01 -1.2646373466074698e+01 -9.6825603588090630e+00 -2.6616135953013398e-01 2 0 2
977 326 2 4.0999999999999998e-01 -1.4083587636784415e+01 -1.5027475425367054e+01 -4.4198740993546526e+00 -2 4 2
1464 488 2 4.0999999999999998e-01 -1.3507940855737392e+01 -1.2700533424513601e+01 -7.8939559067829812e-01 -2 -2 0
987 329 2 4.0999999999999998e-01 -9.1231890497421979e+00 -7.6284659989699257e+00 -2.5862642829539695e-01 5 -3 2
985 329 1 -8.1999999999999995e-01 -8.5938825113731703e+00 -6.9008826979883011e+00 -6.9506561913390286e-01 5 -3 2
1393 465 1 -8.1999999999999995e-01 -1.1073111960931797e+01 -5.0717485281955739e+00 -6.4429333696758277e+00 -1 1 0
1462 488 1 -8.1999999999999995e-01 -1.4180652309793221e+01 -1.2065586311264992e+01 -4.0949624876365398e-01 -2 -2 0
1193 398 2 4.0999999999999998e-01 -1.0685644231403625e+01 -9.5181308954772881e+00 -1.9544128600365696e-02 6 -1 -1
1761 587 2 4.0999999999999998e-01 -1.0491528445800061e+01 -1.3281114510302048e+01 -7.3701480565565305e+00 -1 2 0
381 127 2 4.0999999999999998e-01 -3.5027931983426548e+00 -5.0338662878435230e+00 -6.8319376961267331e+00 0 3 -2
2515 839 1 -8.1999999999999995e-01 -2.8612794798165986e+00 -1.2322159872587239e+01 -7.4771967078268071e+00 1 -1 -1
543 181 2 4.0999999999999998e-01 -6.3057120549672288e+00 -7.3673950244000590e+00 -6.4116028191731047e+00 1 1 -1
2517 839 2 4.0999999999999998e-01 -2.9376588533288572e+00 -1.1350114647214811e+01 -7.2551239500327576e+00 1 -1 -1
1028 343 2 4.0999999999999998e-01 -5.4584863959835968e+00 -1.4946493902553829e+01 -2.7340022816364566e+00 3 0 -1
1967 656 2 4.0999999999999998e-01 -5.9429018786147481e-02 -9.8444142241509702e+00 -7.2044062765677799e+00 -4 2 1
419 140 2 4.0999999999999998e-01 -4.2967996288630488e+00 -1.3890795586997680e+01 -1.0532739009423526e+00 5 -1 2
299 100 2 4.0999999999999998e-01 -5.3909206448981912e+00 -1.3603912020019424e+01 -5.8038982364709373e+00 2 4 0
541 181 1 -8.1999999999999995e-01 -5.7184956803219631e+00 -7.5590731291883202e+00 -7.1980241394753524e+00 1 1 -1
2351 784 2 4.0999999999999998e-01 -4.0109483158130210e+00 -9.2086516258122124e+00 -5.4233518748573744e+00 1 0 -1
185 62 2 4.0999999999999998e-01 -2.9021345994898695e-01 -8.7105202840329543e+00 -2.0491648205253394e+00 3 0 3
741 247 2 4.0999999999999998e-01 -8.5865525359930572e-01 -9.5982572562632686e+00 -4.6936303729716666e+00 5 1 -1
420 140 2 4.0999999999999998e-01 -5.7105143245864340e+00 -1.3429964711194135e+01 -3.7819544102394254e-01 5 -1 2
379 127 1 -8.1999999999999995e-01 -3.1779649947448334e+00 -5.9765264997478766e+00 -6.9087518162929804e+00 0 3 -2
2087 696 2 4.0999999999999998e-01 -1.8906956058733240e+00 -1.4556001280556162e+01 -1.0285103258800081e+00 -1 -2 1
1597 533 1 -8.1999999999999995e-01 -7.4033493226896327e+00 -9.6473497671913364e+00 -1.1873866397156050e+00 2 1 3
35 12 2 4.0999999999999998e-01 -4.5656547232225559e+00 -8.4288446459272954e+00 -3.0154338039526944e+00 2 0 0
1599 533 2 4.0999999999999998e-01 -6.7108158212496942e+00 -9.0994676490225519e+00 -7.1808441348516894e-01 2 1 3
334 112 1 -8.1999999999999995e-01 -1.1411519920870354e+00 -1.5027564430616959e+01 -6.9423339122923142e+00 -1 0 -1
2516 839 2 4.0999999999999998e-01 -3.5462847478800334e+00 -1.2836722846104372e+01 -6.9614305064325475e+00 1 -1 -1
336 112 2 4.0999999999999998e-01 -1.5293436546844372e+00 -1.4237075993842081e+01 -6.4685646384398225e+00 -1 0 -1
1739 580 2 4.0999999999999998e-01 -6.8162195790406539e+00 -6.6473178849346404e+00 -1.0814490115267219e+00 4 -3 -1
1738 580 1 -8.1999999999999995e-01 -6.1600586460218860e+00 -6.0417251037506698e+00 -1.5317070316667181e+00 4 -3 -1
739 247 1 -8.1999999999999995e-01 -8.5721479708205095e-01 -9.7509213450909904e+00 -5.6819186170617240e+00 5 1 -1
2476 826 1 -8.1999999999999995e-01 -2.6299284722817671e+00 -1.4394588042909456e+01 -3.9124858369950974e+00 2 1 2
740 247 2 4.0999999999999998e-01 -1.7976586361372497e+00 -9.7428634701581363e+00 -6.0218046626099326e+00 5 1 -1
13 5 1 -8.1999999999999995e-01 -6.8469089420226243e+00 -7.1502395876285405e+00 -4.8175485729716101e+00 3 -2 4
380 127 2 4.0999999999999998e-01 -3.9610890979554210e+00 -6.5938533534779022e+00 -6.9838931860405147e+00 0 3 -2
2086 696 1 -8.1999999999999995e-01 -2.7343293030593028e+00 -1.5028325644322518e+01 -7.7314014699916278e-01 -1 -2 1
184 62 1 -8.1999999999999995e-01 -6.9681781226349138e-01 -9.0734205449034810e+00 -2.8876147957096485e+00 3 0 3
2429 810 2 4.0999999999999998e-01 -1.9034097824353626e+00 -5.8463229518705671e+00 -4.0516339674454418e+00 0 0 0
2428 810 1 -8.1999999999999995e-01 -1.7169866790865296e+00 -6.8265613100440117e+00 -3.9852921728015751e+00 0 0 0
343 115 1 -8.1999999999999995e-01 -5.9230349570391336e+00 -1.1364339787050616e+01 -2.5691297047123012e+00 1 2 1
2064 688 2 4.0999999999999998e-01 -7.0966892643139161e+00 -1.1131284702632524e+01 -5.7804874414693437e+00 2 5 3
418 140 1 -8.1999999999999995e-01 -5.1985126868903659e+00 -1.3498237743022786e+01 -1.2344752747817136e+00 5 -1 2
298 100 1 -8.1999999999999995e-01 -4.5245684667854196e+00 -1.4085874112625824e+01 -5.9349269037132366e+00 2 4 0
15 5 2 4.0999999999999998e-01 -6.1540432456414766e+00 -7.7385690044112625e+00 -4.4006221085488804e+00 3 -2 4
1740 580 2 4.0999999999999998e-01 -5.3458074288411446e+00 -6.5632150616182034e+00 -1.7867858926929152e+00 4 -3 -1
2350 784 1 -8.1999999999999995e-01 -3.5198305237156475e+00 -9.7318368324368620e+00 -6.1198449577274321e+00 1 0 -1
36 12 2 4.0999999999999998e-01 -5.3347102886154119e+00 -9.8520379229170061e+00 -3.2385025955064428e+00 2 0 0
345 115 2 4.0999999999999998e-01 -5.6453615304205762e+00 -1.2265108489220989e+01 -2.2351607139441168e+00 1 2 1
2062 688 1 -8.1999999999999995e-01 -6.4572010451796569e+00 -1.1800176276412683e+01 -5.4014611774066115e+00 2 5 3
2063 688 2 4.0999999999999998e-01 -6.2319528181961505e+00 -1.1549622251778615e+01 -4.4599156645030646e+00 2 5 3
826 276 1 -8.1999999999999995e-01 -3.7483614818282529e+00 -7.3195275779741520e+00 -1.9569586086292343e+00 2 2 2
827 276 2 4.0999999999999998e-01 -3.3869704637785905e+00 -7.7351741441416362e+00 -1.1222990834302298e+00 2 2 2
1458 486 2 4.0999999999999998e-01 -2.4327035943338728e+00 -1.1607860424629621e+01 -5.9440338994756026e-01 -2 0 5
2477 826 2 4.0999999999999998e-01 -2.5444265653880347e+00 -1.3549452748932152e+01 -3.3847948297920993e+00 2 1 2
2352 784 2 4.0999999999999998e-01 -3.9760357920638167e+00 -9.6216315565134511e+00 -7.0028815355284042e+00 1 0 -1
34 12 1 -8.1999999999999995e-01 -5.0985360900742016e+00 -8.9766700176306689e+00 -3.6603732282962991e+00 2 0 0
186 62 2 4.0999999999999998e-01 -1.0145081550377597e+00 -8.3164905895543697e+00 -3.4587119334793677e+00 3 0 3
300 100 2 4.0999999999999998e-01 -4.0015436325695397e+00 -1.4068973655890119e+01 -5.0827640926874285e+00 2 4 0
2430 810 2 4.0999999999999998e-01 -2.0478912904528048e+00 -7.2853449954831788e+00 -4.8099385829530537e+00 0 0 0
828 276 2 4.0999999999999998e-01 -3.0080104518027024e+00 -7.2035661263110429e+00 -2.6191182012221308e+00 2 2 2
94 32 1 -8.1999999999999995e-01 -1.7057479963664175e+00 -1.1845239876900797e+01 -2.2391833444438518e+00 2 1 0
96 32 2 4.0999999999999998e-01 -1.5252559594046762e+00 -1.0998346815958069e+01 -2.7394001090680664e+00 2 1 0
344 115 2 4.0999999999999998e-01 -6.4397299759622051e+00 -1.0889445485022620e+01 -1.8567227062013796e+00 1 2 1
95 32 2 4.0999999999999998e-01 -8.3866915389948105e-01 -1.2266876013586582e+01 -1.9738169979894131e+00 2 1 0
2478 826 2 4.0999999999999998e-01 -1.8133642698468133e+00 -1.4955864516931470e+01 -3.7775277221112127e+00 2 1 2
150 50 2 4.0999999999999998e-01 -2.9067769783824300e+00 -9.4698507024182490e+00 -3.5099597602242660e-01 -1 3 1
2223 741 2 4.0999999999999998e-01 -6.1721838439996208e+00 -5.4851985984708520e+00 -4.4161578788690203e+00 1 -2 0
2222 741 2 4.0999999999999998e-01 -5.7528985698939277e+00 -5.2905074147752824e+00 -2.8499585163150076e+00 1 -2 0
148 50 1 -8.1999999999999995e-01 -2.6444427883883943e+00 -8.5395815936300217e+00 -9.4476580237374819e-02 -1 3 1
875 292 2 4.0999999999999998e-01 -1.4045193500861480e+01 -1.2651856116905728e+01 5.8180293767612081e+00 4 1 1
208 70 1 -8.1999999999999995e-01 -1.3407707029447312e+01 -5.5624873328096136e+00 1.0287461524504682e+00 0 -1 2
1954 652 1 -8.1999999999999995e-01 -1.2654739545093509e+01 -1.3669986381533235e+01 3.3594803096908290e+00 2 1 1
1955 652 2 4.0999999999999998e-01 -1.3109812978354622e+01 -1.3479839175931327e+01 2.4895525819816964e+00 2 1 1
2034 678 2 4.0999999999999998e-01 -8.0217095884412366e+00 -1.0369541371533138e+01 2.0588805545620392e+00 -2 2 1
2032 678 1 -8.1999999999999995e-01 -8.6776180672169332e+00 -1.1124026101113051e+01 2.0352385523277530e+00 -2 2 1
1194 398 2 4.0999999999999998e-01 -9.4403709294500153e+00 -9.9787750738893237e+00 9.3113280068802950e-01 6 -1 -1
2033 678 2 4.0999999999999998e-01 -9.0479071220398453e+00 -1.1272635754485162e+01 2.9522026911056596e+00 -2 2 1
1009 337 1 -8.1999999999999995e-01 -1.3853724984931555e+01 -6.9756920031685432e+00 4.7876002880309532e+00 3 -1 -2
1956 652 2 4.0999999999999998e-01 -1.2719843437163705e+01 -1.4646865777005539e+01 3.5631716603580497e+00 2 1 1
515 172 2 4.0999999999999998e-01 -1.2153078752795167e+01 -6.4797227114595586e+00 2.2663040476990002e+00 3 4 2
1953 651 2 4.0999999999999998e-01 -1.3426407778783940e+01 -1.4750352554515379e+01 5.9997837002407639e+00 -1 2 -1
608 203 2 4.0999999999999998e-01 -1.2778215091775241e+01 -9.6186339378870436e+00 3.8231804418088995e+00 3 -2 2
514 172 1 -8.1999999999999995e-01 -1.1228269477923817e+01 -6.7504063533958210e+00 2.5336618792669210e+00 3 4 2
516 172 2 4.0999999999999998e-01 -1.1269398700724865e+01 -7.5949240640470794e+00 3.0676284213274467e+00 3 4 2
609 203 2 4.0999999999999998e-01 -1.1395069223693415e+01 -9.1153738432374745e+00 4.5305148921453036e+00 3 -2 2
958 320 1 -8.1999999999999995e-01 -1.0368758604820583e+01 -1.1978595465790637e+01 4.2879152192366536e+00 2 -1 -1
759 253 2 4.0999999999999998e-01 -1.0044875199588272e+01 -1.4537270907813665e+01 2.5316927350506031e+00 2 5 4
960 320 2 4.0999999999999998e-01 -1.1135440942146790e+01 -1.2438909255860857e+01 3.8403311926703072e+00 2 -1 -1
1010 337 2 4.0999999999999998e-01 -1.4818523066600186e+01 -7.2342301433361316e+00 4.8360227670236160e+00 3 -1 -2
607 203 1 -8.1999999999999995e-01 -1.2047443221362450e+01 -8.9366206676221758e+00 3.7939841601110320e+00 3 -2 2
161 54 2 4.0999999999999998e-01 -9.4785946925998221e+00 -6.8045448028056210e+00 2.9334387386367862e+00 0 2 -1
1776 592 2 4.0999999999999998e-01 -1.0014004910850463e+01 -1.2494498656607634e+01 1.1728545181753081e+00 -1 0 2
1436 479 2 4.0999999999999998e-01 -1.0518320447683383e+01 -9.7960425397863524e+00 6.9988745779487918e+00 4 1 -1
1011 337 2 4.0999999999999998e-01 -1.3305830757374686e+01 -7.7764120868726812e+00 4.5453579505096169e+00 3 -1 -2
1774 592 1 -8.1999999999999995e-01 -1.0196104719859338e+01 -1.3477485339291951e+01 1.1483826579349437e+00 -1 0 2