2611
Atoms. Timestep: 8000000
O -2.28295 -5.38886 3.95592
H -2.44362 -5.31505 2.97172
H -1.43728 -4.91047 4.19239
O 5.01181 -3.90463 -3.96208
H 5.58533 -4.10693 -4.75585
H 5.10567 -2.93883 -3.72054
O -7.41361 -4.13796 -1.17451
H -8.05642 -4.8905 -1.03167
H -6.77004 -4.09971 -0.410128
O -7.27447 -9.76366 2.58953
H -6.96476 -8.93543 3.05647
H -8.26385 -9.71839 2.45169
O -9.95811 -4.08316 -2.68478
H -10.2639 -4.474 -3.55292
H -8.96375 -4.16285 -2.61522
O -3.6323 -0.918403 -5.53813
H -3.99402 -0.282511 -6.21984
H -3.93854 -0.640632 -4.62765
O -4.97523 5.58574 -12.5323
H -4.63766 6.14867 -13.2866
H -4.20895 5.31479 -11.9498
O 3.54057 -11.5182 12.2591
H 3.26331 -12.2513 11.638
H 3.91927 -11.9151 13.0951
O -7.17492 6.95781 3.4009
H -7.49878 7.35259 4.26066
H -7.22691 5.96049 3.45161
O -7.8678 -14.3868 -11.5125
H -7.2882 -14.9608 -10.9341
H -7.60074 -13.4291 -11.4059
O 2.65531 6.04218 11.7339
H 2.97564 6.45961 12.5842
H 1.76915 5.60594 11.8899
O -8.14468 -10.1941 -1.38691
H -7.37034 -10.7945 -1.18737
H -8.91955 -10.7427 -1.70087
O 10.4266 8.0619 13.9645
H 11.4204 7.97227 14.0299
H 10.1846 8.44834 13.0745
O 10.9826 -4.7662 -12.3737
H 11.5424 -3.98163 -12.1071
H 10.1083 -4.44394 -12.7364
O -13.316 -2.34094 -14.4831
H -12.5192 -1.74476 -14.3852
H -14.0984 -1.93149 -14.0139
O 1.70874 -4.69208 -9.86419
H 2.47178 -5.00106 -9.29654
H 1.05951 -4.18137 -9.30063
O 11.383 -7.83556 -2.52281
H 11.7334 -7.18826 -3.19968
H 10.8157 -8.52081 -2.97942
O -8.51869 10.3017 -8.59923
H -7.89576 10.4307 -9.37075
H -9.20115 9.60956 -8.834
O 9.57188 0.300485 -10.762
H 8.84946 0.928088 -10.4719
H 9.5977 0.260794 -11.7608
O -12.9135 -7.74509 -9.31982
H -13.5776 -7.2787 -9.90403
H -13.349 -7.9977 -8.45586
O -3.63733 6.13028 -8.56953
H -4.06561 5.8448 -7.71221
H -3.77127 5.42086 -9.26142
O -8.14005 -13.2509 9.13448
H -7.28064 -12.7701 9.30807
H -8.25936 -13.9757 9.81294
O 1.66261 -10.4865 8.02573
H 2.06641 -9.82979 7.38887
H 0.692565 -10.6037 7.81315
O 3.39604 0.0201566 8.05424
H 4.18179 -0.316918 7.53569
H 2.5574 -0.150265 7.53698
O 12.0373 -10.9098 10.7931
H 12.3314 -11.3315 9.93536
H 12.8015 -10.4062 11.196
O -2.10419 1.51691 6.41939
H -1.31297 1.9514 6.84964
H -1.80365 0.717319 5.89953
O 12.984 12.7262 9.9681
H 12.2039 12.5266 9.37522
H 13.2736 13.6733 9.83027
O -10.0981 10.751 3.58695
H -9.8943 10.2025 2.77601
H -9.35848 11.4061 3.74072
O -12.0442 7.98817 9.11385
H -13.0255 8.15149 9.21545
H -11.8973 7.20844 8.50528
O 0.969342 -2.75354 9.08571
H 0.0708961 -2.52644 9.46141
H 1.68265 -2.40377 9.69298
O -11.0066 -12.8575 12.4145
H -10.8851 -13.8476 12.4833
H -11.4498 -12.6356 11.546
O -1.70081 -12.0811 -4.62026
H -1.22382 -11.2324 -4.84849
H -2.65538 -11.8786 -4.40183
O 10.8284 14.8104 -1.82973
H 11.2017 14.1134 -1.21753
H 11.4542 -14.4138 -1.86876
O 3.78104 -8.79397 -14.4027
H 4.74891 -8.94256 -14.2001
H 3.4017 -9.61182 -14.8354
O -10.4279 7.71968 6.07597
H -9.47091 7.51564 6.28187
H -11.0049 6.96708 6.3932
O -12.6885 5.99426 -11.2679
H -12.5436 5.81899 -10.2941
H -12.0835 6.73188 -11.5674
O 11.8516 -1.96582 1.51794
H 10.8695 -1.90976 1.69728
H 12.0154 -1.89486 0.534029
O -14.2254 7.99728 -0.451224
H 14.9406 8.22691 -0.947573
H -13.676 7.36591 -0.998464
O 3.83193 -3.39255 4.5803
H 4.26977 -2.63013 5.05668
H 3.18672 -3.84417 5.19647
O -0.880761 1.41592 10.5791
H -0.811015 2.32407 10.1664
H -1.56569 0.87816 10.0876
O 13.3267 12.1627 -13.3279
H 12.4221 12.454 -13.0168
H 13.8604 11.8409 -12.5459
O -8.13391 -14.7767 13.3178
H -8.04034 14.8492 14.2392
H -8.11664 -13.7779 13.3633
O -0.197129 10.8166 5.45444
H -0.726893 10.5686 4.64341
H 0.768577 10.6097 5.29786
O -12.8613 13.0893 1.35376
H -13.4418 12.634 0.678745
H -12.0225 13.4071 0.911772
O 4.40319 7.02841 13.7745
H 4.45314 6.802 14.7472
H 5.32628 7.05671 13.3911
O 12.4402 0.855979 1.75215
H 12.3996 -0.138792 1.84545
H 13.355 1.12546 1.45136
O -1.72032 11.1597 2.88411
H -1.47372 10.8342 1.97136
H -2.51729 11.7603 2.81973
O -2.55384 -2.76932 -3.36357
H -2.33657 -1.89224 -3.79187
H -3.48287 -3.04151 -3.61407
O 8.40267 2.99091 10.5629
H 8.12649 3.81753 10.0727
H 8.60577 2.26553 9.90527
O -4.43173 -9.55316 -1.23866
H -5.05213 -8.85947 -1.60447
H -3.51715 -9.41628 -1.61911
O 10.3549 2.64731 0.339007
H 10.9186 2.82722 -0.467096
H 10.8524 2.04862 0.966718
O -10.037 -2.57867 13.8894
H -9.06921 -2.45532 14.1089
H -10.2011 -2.30586 12.9415
O -10.6502 13.581 -6.84341
H -9.97715 13.9171 -6.18467
H -10.1988 13.3961 -7.71629
O -9.18184 -3.75379 5.4639
H -9.42026 -4.45076 6.14014
H -9.78914 -3.83465 4.6736
O -3.18288 -0.835351 -13.5817
H -3.34876 -1.58064 -12.936
H -2.83753 -0.0372809 -13.088
O 2.74021 -4.47488 1.89603
H 3.27388 -5.06714 1.29243
H 3.34987 -4.03427 2.5549
O -8.78383 14.3146 -5.0255
H -8.08297 13.6079 -4.9292
H -9.20329 14.4916 -4.13518
O -10.1315 0.158162 -4.57861
H -9.63837 0.213246 -3.71042
H -10.7928 -0.590885 -4.53939
O -9.2713 0.205763 -7.22312
H -9.19299 0.215694 -6.22628
H -9.53723 -0.708888 -7.52746
O 4.48401 -8.49862 -8.74921
H 3.49307 -8.52507 -8.61784
H 4.71734 -7.75575 -9.37661
O -0.313947 14.477 -10.3514
H -0.610862 -14.575 -10.436
H -0.323091 14.0436 -11.2525
O -0.138718 -7.12229 -2.10594
H -0.425003 -6.28318 -2.56841
H 0.857982 -7.13556 -2.02634
O 7.63103 -2.74616 -5.41322
H 8.09986 -2.45659 -4.57879
H 7.1642 -1.96222 -5.8224
O 12.8039 -1.97805 7.94099
H 13.7805 -1.89673 7.74254
H 12.6535 -1.87157 8.92383
O 4.73837 12.1263 3.50488
H 4.13208 12.2995 2.72877
H 4.97929 12.9939 3.93971
O -1.03566 3.90111 -14.1649
H -1.64465 3.59149 -14.8951
H -0.167455 4.20137 -14.5598
O 5.61819 -6.16572 -9.89109
H 5.49928 -5.58818 -10.6987
H 6.59007 -6.3627 -9.76237
O 9.81472 -12.3423 10.3016
H 10.5462 -11.7067 10.5484
H 9.00219 -11.8262 10.0306
O -12.2685 1.38681 -9.97272
H -12.6742 1.67362 -10.8405
H -11.297 1.62346 -9.96461
O -11.6341 -7.3652 1.75265
H -11.6774 -7.10118 0.789142
H -12.4413 -7.01799 2.22997
O 12.4687 2.00691 -12.8353
H 12.6107 2.23867 -13.7976
H 12.3909 1.01461 -12.7394
O 6.27582 -14.7311 -1.61926
H 5.884 -14.762 -0.69978
H 5.95578 14.4838 -2.14465
O 0.121494 -9.10214 0.863716
H -0.414762 -8.63487 1.56658
H -0.471483 -9.33786 0.0938213
O 13.4965 -8.81484 -9.02701
H 14.2171 -9.39859 -8.65297
H 13.9085 -8.08459 -9.57197
O -3.27668 12.7709 -7.66141
H -2.54563 13.0815 -7.05396
H -4.04409 13.4102 -7.61346
O 12.7994 -8.30607 7.9085
H 13.0058 -7.61262 8.59874
H 13.0347 -9.21061 8.26403
O -3.53151 -8.30591 5.93047
H -3.19972 -7.43175 5.57595
H -3.9521 -8.82833 5.18878
O 11.7316 0.269442 12.0058
H 12.1825 -0.185679 12.7736
H 11.9642 -0.202492 11.1554
O 2.7892 6.08536 -12.9934
H 2.46686 5.58177 -12.1919
H 3.78825 6.05687 -13.0253
O 0.585401 -13.7716 2.83919
H 0.786618 -13.7128 1.86145
H 0.217296 -12.8978 3.1569
O 1.3921 8.24876 -11.6173
H 1.99495 9.0032 -11.3578
H 1.82675 7.7071 -12.3367
O 4.42922 -11.6972 -6.16956
H 4.33188 -12.1235 -5.27028
H 5.35335 -11.8576 -6.51621
O -6.76837 2.31418 8.1421
H -7.28133 3.1207 7.84832
H -7.37221 1.51713 8.14277
O 14.371 -3.81278 4.44588
H -14.7592 -4.26003 4.64031
H 14.3623 -3.49697 3.49714
O 13.2076 3.66316 -7.35556
H 14.1945 3.60976 -7.50767
H 12.727 3.42962 -8.20077
O 2.82686 14.4514 -4.04729
H 2.48669 14.4546 -4.98761
H 2.0795 14.2234 -3.42325
O -11.0124 -6.9813 -1.2605
H -10.0219 -7.07148 -1.36473
H -11.2642 -6.01412 -1.29308
O -5.99067 -1.18535 9.84878
H -5.72274 -0.788186 10.7265
H -5.19691 -1.21786 9.24147
O -0.231315 7.42272 13.4624
H -1.22053 7.29438 13.3923
H -0.0234471 8.40033 13.4938
O -13.6272 9.85826 2.80579
H -12.9508 9.66144 3.51551
H -13.2207 10.4555 2.11443
O -12.9001 -3.24081 11.0175
H -13.3858 -4.07866 10.7684
H -13.4102 -2.44812 10.6838
O -5.7123 2.46223 11.3889
H -5.62765 3.37785 11.7819
H -5.4108 2.47947 10.4357
O 5.47122 5.85977 -12.8174
H 6.28265 5.33735 -13.0792
H 5.49941 6.04957 -11.836
O -0.925581 10.5363 -7.96168
H -0.604201 10.3624 -7.03086
H -1.04737 11.5199 -8.094
O -9.4566 7.87823 12.7379
H -8.99245 7.54381 13.558
H -8.93847 7.60576 11.9272
O 11.6593 -0.408684 -9.15434
H 11.4133 -0.373333 -8.18576
H 10.8503 -0.219866 -9.71084
O 2.67678 9.23537 -6.28424
H 2.62186 10.1282 -6.73115
H 2.86123 8.53058 -6.9692
O 13.0643 -9.05538 -13.6258
H 13.577 -9.49902 -12.8908
H 12.2112 -9.55245 -13.7842
O -11.9333 0.0674329 2.41001
H -12.3658 -0.630022 1.83863
H -12.2199 0.974802 2.10259
O -4.82039 14.4904 -4.04439
H -5.37288 14.9591 -3.35519
H -3.86383 14.4787 -3.75322
O 4.30603 9.16803 -3.67585
H 4.15035 9.49712 -4.60719
H 3.73028 9.68209 -3.0401
O -14.476 12.2904 -6.20509
H -14.2876 13.2635 -6.07293
H -13.6136 11.7851 -6.23585
O -11.7629 5.511 6.88456
H -12.3074 4.81708 7.35561
H -11.7633 5.32474 5.9021
O 0.355209 1.28015 -9.77616
H 0.536417 0.421857 -9.29614
H 0.594711 1.17901 -10.7417
O 8.11545 -9.50406 -7.68877
H 7.55607 -10.3304 -7.62367
H 8.37633 -9.205 -6.77093
O -8.49478 5.94032 7.71552
H -8.78876 5.21445 7.09374
H -8.81463 5.73646 8.64075
O -11.549 5.1526 1.5562
H -12.5389 5.011 1.55846
H -11.3154 5.86279 0.89213
O 4.82925 7.19751 5.51998
H 3.85296 7.14745 5.73041
H 5.07635 8.14286 5.30741
O -1.4236 7.57234 -11.8151
H -0.430001 7.68447 -11.8257
H -1.6486 6.60344 -11.7125
O 1.95033 6.63034 5.54112
H 1.07535 6.7911 5.99772
H 1.78926 6.41784 4.57736
O -7.1481 11.1388 -10.6373
H -7.81508 11.5131 -11.2814
H -6.23514 11.1761 -11.0435
O 0.604198 -13.1644 -7.10587
H 1.02595 -12.3878 -6.63795
H -0.259597 -12.8757 -7.51871
O -10.5995 -1.71474 11.204
H -10.5575 -1.23694 10.3266
H -11.2422 -2.4779 11.1376
O -5.07478 -7.21872 13.614
H -6.06299 -7.25743 13.4661
H -4.88359 -6.72058 14.4597
O -5.94089 -13.5524 -2.19258
H -5.40732 -13.1086 -1.47267
H -6.56818 -14.2144 -1.78252
O 2.8133 -8.83148 5.66252
H 3.76922 -9.08282 5.51096
H 2.43324 -8.44437 4.8225
O -10.7046 -1.80085 -8.13992
H -10.884 -2.4737 -8.85759
H -11.5432 -1.29353 -7.94161
O -4.81396 -0.323895 -3.0885
H -4.68554 0.633311 -2.8293
H -5.2526 -0.816719 -2.33707
O -11.2255 13.9668 4.1503
H -11.5942 13.5971 3.29744
H -11.7563 13.6169 4.92217
O 8.35968 -4.25635 1.72515
H 7.82841 -4.0294 2.54135
H 8.90558 -5.07571 1.89998
O 12.6498 2.59464 14.4622
H 12.1013 3.0583 13.7664
H 12.7604 1.63258 14.2129
O 2.13564 -3.77966 -6.24925
H 2.7219 -4.34243 -6.83194
H 1.2078 -3.76812 -6.62194
O -9.2618 0.322784 -1.95284
H -9.52074 0.243457 -0.990246
H -8.41112 -0.178293 -2.11154
O 9.00461 -5.30769 9.17821
H 9.68018 -5.86549 9.66027
H 8.09402 -5.49446 9.54682
O -13.3726 6.56932 -3.45506
H -13.3113 5.68161 -2.99884
H -12.5673 7.11701 -3.22816
O 14.9474 -4.41853 9.02291
H -14.3421 -4.80306 8.4374
H 14.5016 -3.65871 8.54979
O -4.40229 -5.65993 -6.18156
H -5.27321 -6.02659 -5.85449
H -4.53029 -4.71474 -6.48181
O 11.6149 1.7763 6.7448
H 11.1971 0.873507 6.84628
H 11.2323 2.39924 7.42708
O 12.1358 -2.31616 4.59464
H 12.9643 -2.80175 4.87357
H 12.2281 -2.01809 3.64461
O 1.25735 -12.6447 -2.18528
H 0.430407 -12.606 -2.74616
H 1.59423 -11.7172 -2.02369
O 14.2871 -2.21246 -4.35468
H 13.3167 -2.30443 -4.13154
H 14.6696 -1.43043 -3.86267
O -7.00422 -11.7253 -11.3873
H -6.42715 -11.151 -11.9678
H -7.39832 -11.1697 -10.6552
O 13.6307 -13.8152 -8.82359
H 12.9513 -13.3933 -9.42384
H 14.5209 -13.385 -8.97363
O 14.6364 12.1908 -10.8639
H 14.1256 12.7118 -10.1802
H 14.5239 11.2125 -10.69
O 7.57884 3.55467 -13.0385
H 7.37107 2.60586 -13.2762
H 8.34285 3.5771 -12.3938
O -8.48562 12.8402 3.9215
H -8.06007 12.4931 4.75718
H -9.03646 13.6462 4.13795
O 12.901 13.4357 -4.07761
H 13.5855 13.7187 -4.74944
H 11.9879 13.6633 -4.41585
O 8.69826 -2.1565 -2.89308
H 8.27856 -2.91539 -2.39521
H 8.87474 -1.40102 -2.26219
O -0.659608 10.9738 8.01989
H -0.423107 11.9069 8.29071
H -0.389306 10.8241 7.06886
O -7.11244 13.0142 1.47961
H -7.55618 12.8293 2.35644
H -7.3774 12.3132 0.817586
O -14.3039 7.84408 13.9264
H -14.2958 7.63516 14.9043
H -13.5499 7.36499 13.477
O 14.0616 14.7401 -6.27843
H 13.8827 14.9862 -7.23098
H 14.3872 -14.4584 -5.78188
O -8.02337 -6.48684 -14.8799
H -7.74677 -6.85278 -13.9913
H -8.63211 -7.13766 14.6696
O 4.20384 -13.0953 -3.87946
H 4.09935 -12.7669 -2.94075
H 3.66634 -13.9295 -4.00254
O -10.1439 -13.2077 7.28638
H -9.73123 -13.3373 8.18794
H -9.47761 -13.441 6.57817
O 5.64205 6.96417 1.72009
H 6.62839 7.00685 1.87895
H 5.45339 7.12248 0.750932
O -14.304 3.22085 -8.29548
H -13.7237 3.85849 -7.78894
H -13.7334 2.63928 -8.87516
O 2.84338 0.0685764 -11.095
H 2.2957 -0.733133 -11.3343
H 2.99811 0.622672 -11.9129
O -14.5884 10.0889 5.75371
H -13.635 9.9201 5.50401
H -14.849 11.0116 5.46983
O -4.29664 -9.83483 3.72268
H -4.68076 -10.686 3.36506
H -4.17216 -9.18457 2.97328
O -4.06657 -9.70479 12.3971
H -4.4779 -8.88823 12.802
H -3.41975 -9.43366 11.6843
O 9.56878 -6.62955 1.98841
H 9.50506 -7.61553 2.14241
H 10.4401 -6.29221 2.34455
O -12.9216 10.3277 0.181877
H -12.6649 10.6158 -0.740667
H -13.4449 9.47706 0.131964
O -9.07898 7.01529 -8.16724
H -8.14608 6.70652 -8.35239
H -9.71362 6.2529 -8.29344
O -2.28422 -8.80399 10.3533
H -1.30388 -8.99694 10.313
H -2.4272 -7.8163 10.4162
O -12.9729 12.7289 6.64444
H -12.894 11.9044 7.20475
H -13.2891 13.4888 7.21232
O 10.1598 13.1325 9.43295
H 9.81962 14.0385 9.68502
H 9.94167 12.9494 8.4744
O -5.31716 -3.4224 1.60141
H -4.75526 -3.50814 0.778708
H -4.93246 -3.99094 2.32852
O 6.51029 -0.853175 -6.96079
H 7.32773 -0.810803 -7.53518
H 5.72344 -0.512368 -7.47522
O 5.08972 -6.01094 -2.22475
H 5.21071 -6.83813 -2.77343
H 5.08256 -5.21105 -2.82479
O 11.2332 -13.4285 8.26472
H 10.6378 -13.4734 7.46253
H 10.7909 -12.8847 8.97794
O -14.1338 4.91821 1.19032
H -14.4015 5.75526 1.66736
H -14.8589 4.64928 0.556511
O -1.88739 1.88511 12.9445
H -1.44965 1.80746 12.0488
H -2.15377 0.976208 13.2652
O -13.9508 12.7999 -1.13672
H -13.7194 12.0204 -1.71882
H -14.8989 12.717 -0.829881
O 13.09 12.3208 -0.396978
H 13.2595 11.6339 0.309624
H 12.1307 12.2818 -0.676494
O -9.52023 -8.12052 -8.94681
H -9.39145 -7.40051 -9.62866
H -10.3504 -7.93661 -8.42061
O 10.4233 12.1137 -1.02918
H 9.5862 12.6037 -0.785943
H 10.3423 11.1568 -0.750599
O -14.763 7.62188 10.7663
H -14.8144 8.15313 9.92066
H -14.6632 8.24231 11.5441
O 9.2152 -8.5087 -11.9307
H 9.85941 -9.04704 -11.3874
H 8.28872 -8.85854 -11.7922
O 8.49174 3.56542 4.79729
H 9.10949 2.922 4.34528
H 7.61287 3.57464 4.32039
O -10.461 -4.77956 -5.33869
H -10.1362 -4.13684 -6.03248
H -10.2744 -5.71531 -5.63782
O -9.95674 -8.29017 5.60208
H -10.1475 -8.74087 4.73007
H -10.2333 -8.8885 6.35404
O -5.97875 7.89212 -1.38286
H -6.01332 8.08925 -2.36259
H -5.98589 8.75037 -0.869742
O 6.19113 4.30771 14.8108
H 6.52095 3.88734 -14.3471
H 5.20909 4.14361 14.7181
O 12.3785 6.55379 1.5612
H 12.7976 5.93519 0.896659
H 11.7173 6.04874 2.11585
O 11.8392 14.2125 1.66654
H 12.6901 13.8075 1.33208
H 11.3807 13.5674 2.27784
O 7.54495 10.9238 -8.43235
H 8.14282 10.6599 -7.6755
H 7.63285 10.2589 -9.174
O -3.63961 -3.1611 12.0056
H -3.3649 -4.09187 12.2466
H -4.05389 -3.16103 11.0954
O -3.7265 -4.16356 -0.616759
H -3.08162 -4.78045 -0.165653
H -3.33147 -3.83867 -1.47602
O 5.02155 -1.13816 6.28268
H 5.87978 -1.61753 6.46588
H 5.21618 -0.265788 5.83434
O -6.82684 -6.63107 -5.73076
H -7.20066 -5.89874 -6.29987
H -7.57662 -7.1466 -5.31604
O -6.52006 -3.85995 6.19671
H -7.49056 -3.92974 5.96611
H -6.31247 -4.47752 6.95529
O 0.723305 -1.05677 -8.47386
H 0.0769416 -1.06306 -7.71091
H 1.39987 -1.78147 -8.3435
O -5.52549 5.28914 7.38571
H -5.28658 5.88608 8.15155
H -6.48002 5.44142 7.1296
O -3.29503 -2.81702 -11.8097
H -2.37666 -3.08154 -12.1038
H -3.84308 -3.63794 -11.6495
O 9.59938 5.92172 -7.71408
H 10.0368 6.717 -8.13373
H 10.2206 5.51406 -7.04488
O 5.87326 2.79498 -3.30693
H 6.51123 2.13979 -3.71146
H 4.9687 2.37565 -3.2304
O -12.0502 0.743928 11.6671
H -11.7055 1.48915 12.2379
H -11.3214 0.0763703 11.5148
O -7.90972 12.0186 13.8525
H -7.76131 11.3568 14.5872
H -8.05565 12.9263 14.2459
O 5.50321 -8.11681 -3.82616
H 5.4007 -8.34341 -4.7947
H 5.68765 -8.95094 -3.30641
O 1.1298 5.13127 14.9516
H 0.764072 5.90061 14.4279
H 1.45326 5.45666 -14.163
O -10.2438 14.3704 -2.61693
H -11.146 14.8016 -2.60216
H -10.3474 13.3853 -2.75342
O 11.0854 -6.80105 -14.1256
H 11.318 -7.72164 -13.812
H 11.0897 -6.17289 -13.3476
O -8.07203 -12.645 -14.2863
H -7.91724 -12.4118 -13.3263
H -8.90015 -12.1881 -14.6109
O 10.2944 9.0461 8.7998
H 11.0091 9.57488 8.3421
H 9.5831 8.80565 8.13941
O 2.15328 -5.1469 -12.3846
H 1.92239 -4.93414 -11.4352
H 2.13419 -6.13771 -12.5182
O 6.90239 14.8884 -10.1081
H 7.5977 14.5933 -10.7634
H 7.19547 14.6515 -9.1819
O 13.8864 -13.3661 2.80859
H 13.8706 -12.6862 2.07557
H 13.1383 -14.0163 2.67628
O 0.543773 -0.230932 12.4582
H 0.707759 -1.21154 12.3512
H -0.0491287 0.0903581 11.7198
O 3.34824 11.3058 -8.08815
H 4.18693 11.077 -8.58229
H 2.98336 12.1705 -8.43337
O -6.72755 5.73242 10.0895
H -7.67264 5.4325 10.219
H -6.71405 6.55659 9.52336
O 14.1657 -14.6843 -2.50674
H 13.5989 14.5396 -2.77433
H -14.8831 -14.9746 -2.43741
O -12.8557 -8.40816 7.87691
H -12.7862 -8.44353 8.87383
H -12.2984 -9.13624 7.47791
O -10.2581 10.969 13.0635
H -10.0698 9.9971 12.9227
H -9.40751 11.4441 13.2889
O 12.3468 -2.91392 -14.8738
H 13.0857 -3.56737 -14.7095
H 11.5634 -3.39006 14.7299
O -0.314864 2.44763 -6.54722
H -0.403611 2.9959 -7.37876
H 0.640519 2.44209 -6.25203
O -1.49956 -4.14457 -14.2609
H -2.33854 -4.45636 -14.7068
H -1.19572 -4.83379 -13.6032
O -12.4334 -1.23937 -11.5792
H -11.7221 -1.14446 -12.2757
H -12.5865 -0.355856 -11.1367
O 11.5821 0.33013 -6.26804
H 11.2099 -0.425661 -5.72938
H 10.884 1.03785 -6.3762
O -4.27716 10.608 10.2473
H -3.3013 10.5227 10.0464
H -4.77687 10.7916 9.40085
O 3.53959 13.1616 6.34781
H 2.93046 13.9185 6.11115
H 3.27284 12.7838 7.23439
O 5.3296 10.2288 5.59948
H 5.3786 10.6316 6.51343
H 5.29405 10.9575 4.91561
O 11.5642 3.89578 8.50047
H 10.9781 4.51916 9.01793
H 12.4057 3.72646 9.0135
O 8.27964 4.73707 -9.66554
H 8.65786 5.18516 -8.85554
H 9.00944 4.25699 -10.1522
O 1.91001 -14.3306 5.55541
H 1.76541 -13.9462 4.64369
H 1.27746 14.9118 5.7005
O -5.06723 4.84612 2.35954
H -5.90028 4.51048 2.79918
H -5.13898 4.72108 1.37002
O 2.45352 -14.5838 -12.0085
H 2.5438 14.7892 -11.2373
H 1.63165 -14.0268 -11.8893
O -7.74847 -3.67033 -14.5881
H -6.88607 -3.43667 14.966
H -7.89761 -4.65742 -14.646
O 1.76715 2.58559 12.1521
H 1.2469 3.2888 11.6676
H 1.14484 1.87042 12.4702
O -2.91245 -7.38509 -7.4453
H -2.67603 -8.1318 -6.82364
H -3.58293 -6.78634 -7.00725
O -2.61996 -14.3477 10.7126
H -3.11201 -14.3361 9.84218
H -2.62779 14.7286 11.0877
O 12.4585 0.0924669 -3.01675
H 11.6976 -0.276961 -3.55018
H 12.8731 0.855781 -3.51206
O 11.0001 8.64792 -0.105757
H 10.0502 8.5457 -0.400926
H 11.2481 7.88404 0.490005
O 3.64402 5.39395 -8.07243
H 3.46454 4.47861 -8.43281
H 3.49342 5.39839 -7.08389
O -6.26143 10.0831 12.1264
H -5.63621 10.5867 11.5303
H -6.9209 10.7173 12.5298
O -7.27008 3.90802 3.68301
H -7.8131 4.27056 2.92563
H -7.33267 2.91004 3.69022
O 2.76889 2.52336 -8.78237
H 3.56961 2.5955 -9.37699
H 2.02381 2.07841 -9.27917
O -11.5146 12.967 -10.6589
H -11.2236 13.8398 -10.2672
H -12.0527 12.4617 -9.98435
O -7.86421 14.1765 -14.1922
H -8.12682 14.8094 -13.4639
H -6.88221 13.9956 -14.1386
O -13.8766 7.92052 -5.87255
H -14.6872 8.50291 -5.81238
H -13.7804 7.39474 -5.02742
O -0.784924 7.17149 7.29132
H -1.4189 6.40148 7.36253
H -0.140214 7.14417 8.05521
O 11.5188 5.14555 -5.72388
H 12.2854 4.55141 -5.96711
H 11.7471 5.66371 -4.89968
O 13.6104 -10.0052 -2.45238
H 14.0019 -10.4904 -1.67061
H 12.8793 -9.40014 -2.13705
O 10.8646 12.2666 3.41283
H 10.9496 12.1737 4.40484
H 11.1793 11.4264 2.97122
O -6.63967 -9.56945 7.89135
H -5.75602 -9.80256 8.29724
H -6.51043 -8.8652 7.19332
O 2.3952 12.6507 -14.7625
H 1.59269 12.564 14.6504
H 3.14425 12.1035 14.8672
O 11.7159 3.62054 -2.11352
H 10.7258 3.74436 -2.1798
H 12.0593 3.22029 -2.96309
O 10.0253 -14.1053 2.89575
H 9.64434 -13.4754 2.21894
H 10.7151 -14.6843 2.46113
O 11.4223 -8.63673 5.64676
H 12.0446 -8.5116 6.41942
H 10.7651 -7.88344 5.6227
O -5.46524 0.0263839 12.2545
H -5.11434 -0.127274 13.1782
H -5.45346 1.00558 12.0521
O 13.4477 -5.84311 -6.78113
H 14.1582 -5.21539 -7.09894
H 12.5483 -5.43472 -6.93667
O -14.4164 -7.63629 -6.95557
H 14.7778 -7.055 -7.0428
H -14.6066 -8.37778 -6.31218
O 8.96228 6.33161 -14.2986
H 9.32752 6.93207 14.9932
H 8.5686 5.51533 -14.7213
O -10.8145 -3.27315 -10.8308
H -10.4499 -3.64178 -11.6858
H -11.5093 -2.58353 -11.0346
O 13.2377 -11.7956 -7.16976
H 13.1945 -12.6616 -7.66783
H 12.4602 -11.7317 -6.54422
O -14.3677 -6.26809 -2.64899
H -13.6292 -6.90993 -2.85529
H 14.8001 -6.5604 -3.11443
O -2.15251 -8.78342 -5.28345
H -2.59772 -8.07232 -4.73934
H -1.19899 -8.87476 -4.99641
O -2.15888 9.52673 -13.7729
H -2.21434 8.79939 -13.0889
H -2.70394 9.27462 -14.5724
O 5.89121 -12.6556 7.81575
H 6.22466 -13.5429 8.1342
H 4.97489 -12.7628 7.43
O 12.4564 -12.2182 13.9673
H 12.242 -12.7858 13.1724
H 13.1118 -12.6969 14.5515
O -0.0420052 13.3253 -13.2537
H -0.401051 14.0322 -13.863
H 0.885904 13.0819 -13.5359
O -8.53946 0.914503 12.433
H -8.5366 0.376065 13.2756
H -7.70077 0.733972 11.9192
O -9.83541 -14.3023 2.4942
H -10.1853 -14.7634 3.3096
H -10.3888 -13.4908 2.30689
O 6.97439 14.8881 8.32846
H 7.35513 14.5822 7.45589
H 6.34836 14.1926 8.68107
O 10.0818 8.62228 11.3138
H 9.9986 7.63483 11.4477
H 10.3244 8.81029 10.362
O 5.07472 5.90136 7.75954
H 4.2119 5.93718 8.26371
H 4.93348 6.24768 6.83216
O -12.2832 4.37668 -2.06029
H -12.0911 4.88352 -1.21998
H -11.7067 3.5605 -2.09645
O 0.312335 -10.3186 -4.83019
H 0.848438 -10.3576 -3.98698
H 0.902402 -10.5266 -5.61023
O -0.808508 -8.00589 3.31018
H -1.13872 -8.54157 4.08732
H -1.32674 -7.15288 3.2491
O 11.9629 7.756 -10.7187
H 12.2508 6.85804 -10.386
H 12.7664 8.33715 -10.8472
O 6.11229 -5.11398 9.21901
H 5.31815 -5.72166 9.21847
H 5.85252 -4.22638 9.59929
O 2.44884 -7.12199 -1.7033
H 2.26561 -6.24628 -2.14994
H 3.39794 -7.1438 -1.3892
O -10.6106 -7.75111 10.1662
H -10.6406 -8.48918 10.8402
H -9.7235 -7.75694 9.70471
O 11.0169 -10.7164 -14.4296
H 10.1467 -10.501 -14.8727
H 11.5765 -11.2705 14.9572
O 8.49959 -14.5683 10.3934
H 8.87832 -13.6538 10.5354
H 7.79618 -14.5312 9.68361
O -11.2565 8.02437 -2.7121
H -10.9066 8.29631 -3.60849
H -11.683 8.81218 -2.26779
O 8.50645 -7.46449 14.812
H 8.6203 -8.39288 14.4584
H 9.34164 -7.18303 -14.7187
O -1.56247 -2.49747 10.0666
H -1.37154 -2.72063 11.0225
H -2.47551 -2.82511 9.82383
O 9.8419 -13.4918 5.58523
H 9.29636 -14.2556 5.93026
H 10.3221 -13.7737 4.75466
O -5.17395 -13.0655 -14.5903
H -6.16088 -12.9297 -14.5039
H -4.98145 -13.5955 14.587
O 14.7095 1.62526 0.643769
H 14.6125 2.25527 -0.126681
H -14.4893 1.87777 1.18154
O -4.48168 11.4867 -10.9807
H -3.69063 11.8928 -11.4381
H -4.24142 11.2616 -10.0365
O -12.8676 -14.9148 -2.13392
H -13.2863 14.2998 -1.68363
H -12.821 -14.15 -1.4914
O 11.5659 -7.02569 13.2378
H 12.0923 -7.85116 13.4412
H 11.1522 -6.67841 14.0794
O 12.1532 -9.75525 0.859053
H 11.2384 -10.0174 0.551849
H 12.1631 -8.78068 1.08275
O -5.69758 -7.84976 -2.80594
H -6.12051 -8.37284 -3.54583
H -5.07809 -7.16662 -3.19255
O 12.5256 10.6753 -3.54577
H 11.5453 10.5158 -3.42959
H 12.6752 11.6097 -3.8689
O 8.05359 3.00938 7.3105
H 7.22997 3.52239 7.55218
H 8.35892 3.27999 6.39756
O -12.1016 10.613 -12.4713
H -11.9277 11.3888 -11.8647
H -12.4289 10.9476 -13.3549
O 11.2738 12.6729 6.53468
H 12.0647 13.1472 6.14826
H 11.5306 11.7363 6.7732
O 2.87434 10.2683 -10.9585
H 2.19777 10.9943 -10.8353
H 3.79227 10.6422 -10.8261
O 12.2396 -6.68821 -0.0423257
H 11.6154 -6.02509 0.370739
H 11.7899 -7.13094 -0.817997
O 13.6251 9.04795 -5.6595
H 13.633 9.65108 -6.45705
H 13.1525 9.50108 -4.90366
O -13.6311 -5.63451 4.72675
H -13.8719 -6.23371 3.96328
H -13.6753 -6.15047 5.58218
O -8.56109 -14.1045 -7.3919
H -8.33109 -14.4878 -6.49741
H -8.57993 -14.8363 -8.0732
O 9.53265 6.96413 -3.72109
H 8.79945 6.42271 -3.30973
H 9.42522 6.96985 -4.71525
O -5.31314 0.401619 -14.5235
H -5.10369 1.36912 -14.6649
H -4.47585 -0.0888092 -14.2819
O 3.27708 1.31425 -6.30254
H 2.85337 1.7303 -7.10709
H 3.3498 0.326122 -6.43757
O 11.2175 4.94321 -13.4394
H 10.3965 5.3934 -13.7903
H 11.695 4.48797 -14.1908
O 7.61873 9.21838 -10.4442
H 7.26014 9.57317 -11.3076
H 7.90009 8.2666 -10.5661
O 5.85737 6.11611 -9.93392
H 6.51923 5.36806 -9.98168
H 4.95953 5.7515 -9.68718
O -14.2736 -11.5149 7.55501
H -13.7923 -11.5923 8.42807
H -13.8272 -12.0971 6.87551
O -9.10186 11.876 -0.311443
H -9.75075 12.6103 -0.112234
H -9.44115 11.0178 0.0736507
O 0.025707 8.23557 -9.11204
H -0.249482 9.17069 -8.88902
H 0.441452 8.21836 -10.0213
O 1.87164 10.9092 10.5918
H 2.47651 10.8845 11.3877
H 1.02618 11.3869 10.8304
O 7.43324 14.6456 13.019
H 7.59722 14.9078 12.068
H 8.25972 14.2285 13.397
O -2.82558 -5.89785 12.3736
H -2.55627 -6.01495 11.4177
H -3.56043 -6.53927 12.5938
O 5.78707 3.18501 3.19314
H 5.09731 3.90777 3.1512
H 6.31322 3.17665 2.34283
O -8.16334 12.0704 9.37565
H -8.46629 11.2902 8.82836
H -8.70815 12.8749 9.13938
O -9.9622 -10.1981 -12.6115
H -10.3476 -10.3708 -13.5179
H -10.6917 -10.2267 -11.9282
O -5.73313 -8.17553 -8.49149
H -5.17897 -8.43543 -7.70074
H -6.54164 -8.76202 -8.53913
O 9.6361 -13.2651 -5.93183
H 9.76193 -13.6198 -6.85827
H 10.248 -12.4876 -5.78665
O -9.80454 -5.80528 6.91676
H -9.70129 -6.67245 6.42965
H -10.7756 -5.57836 6.99119
O -0.286691 13.2543 -8.04225
H 0.3501 13.816 -7.51413
H -0.217009 13.4926 -9.01088
O 2.44571 -11.3191 3.89483
H 1.52668 -11.2658 3.50438
H 2.50166 -10.7257 4.69776
O 13.811 -6.58016 10.0697
H 14.0868 -5.63389 9.90108
H 14.6228 -7.13853 10.2404
O 13.4856 -14.589 8.93932
H 13.6895 -13.9728 9.69998
H 12.5658 -14.4007 8.59525
O -3.06981 14.8693 6.95576
H -3.06356 13.8715 7.02189
H -3.64658 -14.7554 7.67968
O 3.71178 10.7729 12.4627
H 3.79637 10.4524 13.4061
H 4.57411 11.1882 12.1731
O 10.3672 -0.659906 7.26183
H 9.95193 -0.99881 6.41766
H 11.1854 -1.19597 7.46936
O 11.405 -3.25195 -8.48139
H 12.368 -3.14299 -8.72784
H 10.8404 -2.69142 -9.08718
O 12.0596 10.292 7.02459
H 12.9034 10.1851 7.55037
H 12.0703 9.66475 6.24592
O 5.188 -14.1972 -12.1986
H 4.20069 -14.3521 -12.2326
H 5.56704 -14.6403 -11.3862
O -14.3338 0.450655 10.2669
H -13.4246 0.381918 10.6775
H -14.834 1.20644 10.6893
O -0.279907 12.911 10.8414
H -1.27342 12.9822 10.9297
H -0.00716902 13.181 9.918
O -2.45934 -6.00016 1.32753
H -2.86585 -6.90834 1.42698
H -1.48098 -6.09141 1.14204
O -14.9434 7.19908 2.62779
H -14.4856 8.06562 2.42917
H 14.1765 7.1738 2.15966
O -1.934 9.59729 9.85356
H -1.70634 10.2814 9.16068
H -1.32664 8.80896 9.75578
O 10.0361 11.4226 11.8236
H 9.82491 11.9804 11.021
H 9.95429 10.4543 11.5875
O -10.8954 -10.436 8.0151
H -10.1153 -10.1698 8.58126
H -10.6822 -11.2852 7.53204
O 2.1644 -11.2299 -9.60871
H 2.36198 -11.4918 -10.5533
H 1.1819 -11.0761 -9.50401
O -2.54862 -6.05008 9.46758
H -2.96138 -5.15829 9.28247
H -1.56637 -6.00704 9.28521
O 1.27942 -10.3549 14.5945
H 0.940912 -11.1768 14.1364
H 0.687714 -10.1384 -14.6321
O -5.72386 -3.13899 13.7383
H -4.75719 -3.06535 13.4933
H -6.28384 -2.75236 13.0056
O -1.11305 -9.24412 -14.1132
H -1.13318 -8.36719 -14.5934
H -1.84061 -9.83327 -14.4646
O -12.2072 10.6061 -2.34926
H -13.0086 10.7906 -2.9181
H -11.4085 11.0633 -2.74033
O -2.84779 -3.48159 -8.71459
H -3.5816 -3.72133 -8.079
H -2.81236 -4.15569 -9.45232
O -4.30055 2.23031 9.14925
H -3.82347 1.35236 9.11018
H -5.09838 2.20319 8.54703
O -8.13596 -5.87889 1.12711
H -8.87424 -5.23974 1.3424
H -8.43875 -6.50937 0.412454
O 3.73497 9.67533 -14.9654
H 4.08884 8.86927 14.5635
H 4.16651 9.74924 -14.0663
O -7.97705 7.54728 14.9438
H -8.00901 7.03367 -14.202
H -7.92259 8.52564 -14.86
O 0.45109 7.48909 2.32186
H -0.353493 7.78104 2.8389
H 0.502316 6.49045 2.32086
O -11.6828 -7.04461 -12.3679
H -12.151 -6.65258 -11.5761
H -10.7008 -7.09103 -12.1851
O -8.11626 10.051 -14.0754
H -8.82191 10.444 -13.4859
H -7.3222 9.79909 -13.5224
O 10.7279 -4.11049 -0.29192
H 11.0407 -3.38993 -0.910707
H 9.86391 -4.48598 -0.627237
O 9.93927 2.2397 -5.86163
H 9.1371 1.88771 -6.34387
H 10.0233 3.22225 -6.02738
O -14.9715 -7.5653 6.21709
H 14.2147 -7.53149 6.79265
H -14.2543 -8.0805 6.6863
O -5.94304 2.32239 -3.15933
H -5.32607 3.09175 -3.32472
H -6.36289 2.41985 -2.25703
O -13.4981 -1.74856 1.04643
H -13.967 -1.51672 0.194185
H -14.1341 -2.21653 1.66006
O -11.9729 4.98012 11.1733
H -12.8749 4.97203 10.7418
H -11.9159 4.23763 11.8406
O -3.14319 3.97691 13.8216
H -2.63061 3.21939 13.4174
H -3.68301 3.64006 14.593
O -3.99427 -9.67014 8.37125
H -3.88945 -9.28209 7.45564
H -3.49169 -9.11038 9.03003
O -3.83508 13.0888 -0.867618
H -4.787 13.3627 -0.730658
H -3.23482 13.8679 -0.687019
O -12.865 11.513 -8.77533
H -13.3502 10.6463 -8.89108
H -12.581 11.6112 -7.82159
O 14.2183 -3.3061 1.78905
H 14.4136 -4.02342 1.12027
H 13.2996 -2.94437 1.63119
O -4.92308 0.60053 -7.20325
H -5.26433 0.0973313 -7.99714
H -5.59908 1.28301 -6.92544
O 4.31474 -14.1684 -7.99327
H 5.31369 -14.1559 -8.03633
H 3.97004 -13.2298 -7.97947
O -5.99723 -5.37952 8.41725
H -5.74551 -6.25291 8.00041
H -6.85658 -5.48443 8.91768
O 10.3292 -4.01742 13.7263
H 11.0726 -4.16039 13.0729
H 9.59117 -4.6654 13.5384
O 6.34434 8.57438 -13.8937
H 6.11552 7.68283 -13.5029
H 6.93444 8.44733 -14.6909
O -9.8407 4.64096 -12.0094
H -9.03119 5.13352 -12.3288
H -10.6527 5.00095 -12.4687
O -12.8778 2.03983 8.28937
H -13.0843 1.21171 8.8104
H -13.6979 2.60864 8.22862
O 0.058183 4.79544 11.7014
H -0.213805 5.59555 12.236
H -0.567192 4.6821 10.9294
O -2.10012 14.8274 -6.0891
H -2.14025 -14.9006 -7.04962
H -2.64774 -14.5455 -5.53871
O 5.01289 -12.5418 14.2124
H 4.78249 -13.3546 14.7473
H 5.84318 -12.1242 14.5814
O 13.8659 9.56432 -10.1004
H 14.8321 9.32098 -10.1848
H 13.7027 9.97486 -9.2033
O -13.8711 -8.2828 10.8928
H -14.3536 -9.15694 10.8383
H -12.9796 -8.42055 11.3244
O 13.1337 -11.1897 8.33192
H 12.6109 -11.9138 7.88206
H 14.0983 -11.2698 8.08066
O 9.8722 -2.81044 10.6773
H 9.10366 -2.21716 10.4379
H 9.60048 -3.76693 10.5713
O 11.3641 12.9005 -11.5473
H 11.9826 13.2887 -10.8642
H 10.9324 12.0781 -11.1769
O -12.2337 -12.8275 -0.793873
H -11.4827 -12.282 -1.16579
H -12.2848 -12.6933 0.195732
O -8.70626 -11.3015 12.1358
H -9.21869 -12.1028 12.4444
H -8.38542 -10.785 12.9297
O 4.85 -14.7397 0.93031
H 4.91054 -14.0956 1.69276
H 4.43353 14.411 1.24639
O 13.3725 2.61432 -10.0757
H 14.1316 3.26394 -10.1159
H 13.0643 2.40415 -11.0035
O 6.33758 -10.147 -2.24407
H 7.33443 -10.1608 -2.16647