2611
Atoms. Timestep: 23000000
O -1.40758 2.46487 5.46326
H -0.722024 3.14294 5.72825
H -0.988078 1.55736 5.44233
O 1.89636 14.0513 -2.57174
H 2.26151 13.1237 -2.49257
H 1.23211 14.0854 -3.31847
O -7.75561 -9.45464 2.95778
H -7.65286 -9.34048 3.94591
H -8.525 -10.0655 2.77104
O 8.98721 -4.61577 -5.24226
H 8.37371 -3.83962 -5.09665
H 8.87006 -4.96327 -6.17259
O -4.24013 1.62429 5.08733
H -3.30581 1.51668 5.42712
H -4.60241 0.731448 4.8198
O 2.07465 1.63771 -6.88479
H 1.27226 2.16882 -6.6126
H 2.02246 1.43211 -7.86203
O 7.28187 -13.8055 4.57095
H 7.79669 -13.2119 3.95247
H 6.94662 -14.6014 4.06684
O 1.83255 -9.11427 -11.7155
H 1.4338 -8.96552 -10.8106
H 1.44122 -8.46101 -12.3637
O 3.39033 4.55903 3.92511
H 4.34023 4.40186 3.65495
H 3.20332 5.54138 3.92987
O -15.0355 4.5572 10.5222
H -14.7058 4.49944 11.4645
H 14.1808 5.05871 10.5019
O -9.90851 8.64966 6.99822
H -9.80856 7.6809 6.77126
H -10.6684 8.76546 7.63787
O -6.28052 -7.48816 10.4877
H -7.19472 -7.78047 10.7684
H -5.67257 -8.28143 10.4542
O -12.1258 6.21303 -14.4827
H -12.7361 6.12846 -13.6951
H -12.6139 6.6522 14.8442
O -5.67224 0.937263 -0.790305
H -5.63347 -0.0232105 -1.06595
H -5.36522 1.02471 0.15737
O -5.99873 -12.6725 -12.6566
H -5.30891 -13.0036 -12.0127
H -5.59007 -11.9877 -13.2599
O -2.5471 -11.438 9.50414
H -2.49806 -11.6 10.4897
H -2.25908 -12.262 9.01619
O -13.0362 -11.3865 1.89106
H -12.5249 -11.4538 1.03425
H -13.5771 -10.5455 1.89127
O -10.6257 9.20415 -3.07196
H -10.7865 8.63407 -3.87765
H -11.1045 10.0755 -3.17923
O -7.91249 -3.76197 7.85057
H -8.19222 -3.59475 8.79598
H -8.50203 -3.24284 7.23176
O -1.15399 -13.385 -6.76629
H -0.236623 -13.7753 -6.68805
H -1.24831 -12.624 -6.12444
O 4.21765 -8.50414 8.64639
H 3.76104 -8.95311 9.41445
H 5.02108 -9.03617 8.37907
O 11.5671 11.4904 -8.73295
H 12.1108 10.6535 -8.79577
H 10.775 11.4196 -9.33921
O -1.75624 5.11918 0.410875
H -2.29348 4.82579 -0.379876
H -1.70096 4.37125 1.07234
O -2.74303 13.5539 -10.1241
H -2.26381 14.058 -10.8426
H -2.37496 13.8147 -9.23167
O -4.98555 -2.60538 11.0427
H -5.19008 -3.53734 11.3421
H -4.22135 -2.62256 10.398
O -14.4631 8.43381 -3.41292
H -14.0243 7.54074 -3.51214
H -15.0399 8.43288 -2.596
O -14.912 9.63188 -6.62765
H -14.7299 10.3132 -5.91863
H 14.1828 9.48734 -6.70564
O -10.8318 -1.81525 3.42631
H -10.4532 -0.915221 3.21036
H -11.7674 -1.8755 3.07848
O -6.32512 -11.3595 10.5625
H -5.90784 -12.0406 9.96083
H -5.73752 -10.5517 10.6096
O -4.37643 13.4002 -6.86317
H -4.68884 13.4604 -5.91514
H -4.96835 12.7735 -7.37003
O 11.5292 -5.94834 1.01155
H 10.8455 -5.26814 1.27594
H 11.1986 -6.46308 0.220474
O 12.2822 4.12148 -7.4281
H 11.2975 3.98579 -7.31833
H 12.6887 4.34426 -6.54206
O -7.74067 7.69201 -1.53072
H -7.2803 6.82281 -1.71112
H -8.44773 7.84432 -2.22127
O -8.23204 -4.42567 13.0102
H -7.37179 -4.55371 13.5037
H -8.74639 -3.67561 13.4259
O -8.98515 14.1478 -3.40497
H -8.35515 13.8968 -4.13991
H -8.85863 -14.9692 -3.17223
O 11.9886 -8.48209 -10.3413
H 11.3236 -8.2339 -9.63693
H 11.5548 -9.08374 -11.012
O 7.64869 14.602 6.98341
H 7.91763 -14.7317 6.37603
H 6.8476 14.1376 6.60587
O 7.99618 7.04786 -4.28347
H 7.18529 7.39449 -4.75495
H 7.98964 7.3622 -3.33418
O -6.50726 -0.942661 -8.35321
H -6.28556 -0.23618 -9.02532
H -7.27962 -0.640532 -7.79448
O 7.48738 9.98923 4.20298
H 6.85245 10.0372 4.97406
H 7.00536 10.2249 3.35913
O -5.13817 10.2617 10.5032
H -4.92158 10.8558 9.72846
H -5.89581 9.65692 10.2579
O 14.656 2.10181 12.7176
H -14.6034 1.98043 12.1609
H 13.9147 1.54437 12.3436
O 7.85525 -7.10217 7.5599
H 7.39216 -7.92217 7.89628
H 7.65728 -6.33408 8.16886
O -12.7537 -8.09407 -6.09013
H -11.8756 -8.04986 -5.61369
H -12.5954 -8.15853 -7.07542
O 8.11837 -8.47515 -4.36615
H 8.54208 -9.31118 -4.01756
H 7.48428 -8.70559 -5.10427
O 11.132 6.03582 4.2694
H 11.0124 6.9382 4.6834
H 12.1078 5.82911 4.19684
O 7.91146 1.12456 13.0654
H 8.883 0.908014 12.9694
H 7.73836 2.04382 12.7118
O 3.17549 -9.25249 14.8574
H 3.22612 -8.60049 -14.4673
H 3.83735 -9.98728 15.0058
O 14.0597 5.89284 1.00289
H 13.4633 6.66308 0.776888
H 14.0914 5.25813 0.230794
O -14.9621 -14.4869 12.7387
H 14.3666 -13.9955 13.1771
H -14.7845 -14.0898 11.8383
O -11.916 1.2779 -8.73602
H -12.5805 1.06711 -9.45303
H -11.0759 0.760023 -8.8974
O 10.264 0.969543 1.50241
H 9.99033 1.70489 0.882425
H 11.2204 1.09459 1.76618
O 12.5057 -9.78644 -6.33799
H 12.1259 -10.3966 -5.64266
H 13.3197 -9.33309 -5.9749
O -1.88408 -0.345636 -11.2525
H -1.84811 0.387454 -10.5733
H -1.84041 -1.23109 -10.7898
O -13.5723 -4.96075 -8.83572
H -14.436 -5.43604 -9.00341
H -13.5424 -4.64891 -7.88605
O -0.0221711 4.33109 -11.814
H 0.908403 3.96499 -11.8129
H -0.182746 4.83088 -12.6651
O 13.5676 -3.42113 10.4226
H 13.866 -3.8454 11.2776
H 13.3338 -4.13346 9.76087
O -12.1724 -11.8936 14.8637
H -13.1019 -11.6413 14.5946
H -12.2068 -12.6677 -14.5854
O -2.53487 -9.45774 -2.09939
H -3.04606 -8.64363 -2.37489
H -2.58484 -10.1441 -2.82496
O 3.95944 -3.29834 1.73473
H 3.57618 -2.87457 2.55542
H 4.77272 -2.79247 1.44719
O -0.844334 -7.70841 -11.1714
H -1.47573 -8.46134 -10.9858
H -0.0739173 -7.75507 -10.5356
O -5.43694 -5.25882 -6.22155
H -5.457 -4.25912 -6.23537
H -5.70252 -5.60997 -7.11941
O 7.86612 7.17693 9.51665
H 8.73719 7.5642 9.21457
H 7.68437 7.45969 10.4585
O 13.3356 -7.7328 5.31256
H 13.4654 -7.81306 4.32428
H 12.7164 -6.97191 5.50669
O -9.9111 -4.21486 -1.32793
H -10.8899 -4.03572 -1.42698
H -9.55397 -3.69503 -0.551899
O -4.21152 3.2282 12.3516
H -4.29542 2.767 11.4683
H -3.36151 2.94526 12.7959
O -3.66984 4.5089 -7.7706
H -4.21642 3.94709 -8.39159
H -4.27656 5.01392 -7.15673
O 13.5754 -0.914068 12.3127
H 13.5394 -1.11272 13.2921
H 12.897 -1.47164 11.8344
O 8.90955 -14.7238 -9.99127
H 9.01334 -13.7293 -10.0059
H 9.77955 14.9352 -9.73664
O -8.17259 -7.70619 0.353762
H -8.59118 -8.36016 -0.276401
H -7.98433 -8.15753 1.22603
O 11.3049 -8.95714 9.02114
H 11.7514 -8.54279 9.81424
H 10.7127 -9.70368 9.32429
O -13.1781 14.3791 14.8185
H -14.1608 14.3524 14.6354
H -12.8633 13.4672 -14.9991
O -7.98217 -9.9065 5.9872
H -8.92268 -9.59668 5.84773
H -7.41248 -9.13076 6.25861
O 14.6445 11.8623 -15.0172
H 13.7545 12.2129 14.7725
H 14.6448 11.7375 -14.025
O -11.7215 -10.3426 12.4071
H -11.5029 -11.1806 12.9072
H -10.9848 -9.67807 12.5322
O 12.9675 4.77444 -4.79234
H 13.0951 5.74784 -4.98262
H 12.027 4.61385 -4.49288
O -12.329 14.4228 5.77447
H -12.3476 14.2205 4.79533
H -13.1919 14.1361 6.19055
O -5.66008 -13.3569 8.07233
H -6.3519 -14.0564 8.25145
H -6.01581 -12.6984 7.40914
O -7.64239 11.14 -13.4578
H -7.61971 10.329 -14.0424
H -7.24641 10.9196 -12.5664
O 14.9679 -9.01387 -10.8971
H 14.8166 -9.11088 -9.91336
H 14.2573 -8.42861 -11.2875
O 4.01447 -0.913323 -8.99475
H 4.25804 -0.786131 -9.95626
H 3.24356 -0.319338 -8.76481
O -8.87623 13.3024 3.93393
H -8.53846 13.279 4.87486
H -9.23554 12.4026 3.6863
O 3.83066 -13.3875 -7.46335
H 4.42584 -14.183 -7.34918
H 4.1936 -12.6209 -6.93365
O 9.42907 -6.72599 -11.383
H 10.036 -7.46271 -11.6812
H 8.55048 -7.11145 -11.101
O 10.0871 -7.68234 -8.71885
H 9.19084 -7.88386 -9.11392
H 10.0986 -6.7411 -8.38131
O 1.30223 -0.888236 -12.2836
H 1.36402 -0.338251 -13.1165
H 0.34527 -0.96151 -12.0028
O 2.01889 13.4967 5.26357
H 1.49944 14.0708 5.89655
H 2.83781 13.1516 5.72206
O 11.1944 12.5376 -6.22946
H 11.9889 12.2868 -5.67639
H 11.1456 11.9428 -7.03182
O 13.6288 5.2283 15.0207
H 14.4389 4.94046 14.51
H 12.8758 4.5971 14.8348
O 4.85043 14.3284 6.49213
H 4.9853 13.7263 7.27914
H 4.46723 -14.8821 6.80034
O 3.89672 3.34586 -14.7926
H 4.75729 3.58854 -14.3448
H 4.03136 2.52844 14.7286
O -13.5558 -10.9446 10.3899
H -12.8634 -10.6699 11.0571
H -13.7744 -10.1688 9.79789
O 1.88013 -4.72966 -10.3211
H 2.05162 -4.28914 -11.2023
H 1.81519 -4.03261 -9.60701
O -5.31074 2.56087 -13.3561
H -4.44478 2.34656 -13.808
H -5.12926 3.0467 -12.5011
O 5.38658 14.475 -7.25542
H 4.89991 13.6408 -6.996
H 6.00714 14.2766 -8.01406
O -0.598974 -5.47587 -7.31609
H -0.112037 -5.35388 -6.45122
H -0.131139 -4.96457 -8.03699
O 10.536 -11.8555 -0.512001
H 9.81682 -12.132 0.125414
H 11.2214 -11.313 -0.0262462
O 5.91641 6.43087 2.89731
H 5.73859 6.06725 1.9829
H 6.86288 6.7491 2.95122
O 1.95172 0.885783 -9.45318
H 1.16174 1.36941 -9.83006
H 2.66332 0.814285 -10.1521
O 0.00838887 14.8821 14.0907
H -0.900554 14.4654 14.0794
H 0.614605 14.3439 14.6762
O 10.6745 -4.91298 12.1461
H 9.92059 -4.75864 11.5075
H 10.3647 -5.50424 12.8908
O -4.44883 14.8252 2.65404
H -4.61731 -14.3065 2.91871
H -5.31505 14.326 2.6344
O 2.38899 11.2984 -3.51832
H 1.76627 10.68 -3.03902
H 1.95729 11.6185 -4.36165
O 6.19193 -4.36977 -8.78167
H 5.87554 -4.64898 -9.68827
H 6.80101 -3.58152 -8.86934
O -4.04798 -7.0651 -2.21602
H -4.26681 -6.42675 -2.95401
H -3.21136 -6.76823 -1.75566
O 3.01281 3.73643 11.1477
H 3.38283 2.80809 11.1121
H 2.12652 3.72444 11.6107
O -5.36614 -0.508443 13.1569
H -5.27611 -1.3385 12.6066
H -6.21004 -0.552908 13.6916
O -13.5807 -8.8615 -0.983228
H -13.1177 -8.83406 -0.0973054
H -14.1391 -9.68902 -1.04201
O 10.9794 6.3144 -2.24272
H 10.6675 5.98766 -3.13488
H 11.7741 5.78164 -1.95183
O 5.05772 11.0216 -3.37846
H 5.32908 11.4572 -2.5202
H 4.09832 11.2295 -3.56902
O -5.90504 4.52129 -5.93575
H -5.60628 3.60302 -5.67593
H -6.56777 4.45753 -6.68189
O -9.30507 7.58845 3.29527
H -9.00099 8.45998 3.67992
H -10.2937 7.61608 3.14769
O 2.13687 -13.1799 2.785
H 2.12163 -14.0784 3.22375
H 1.90966 -12.4763 3.45828
O 8.74685 0.714516 -2.70351
H 8.79336 0.468856 -3.67175
H 8.39186 -0.0599086 -2.17983
O 13.0242 7.31843 10.77
H 12.9421 6.51629 11.3615
H 13.444 8.06816 11.2815
O 1.6862 -11.4706 -5.8843
H 0.790145 -11.7097 -5.51028
H 2.40296 -11.8082 -5.27415
O 1.39366 -12.0663 -8.80815
H 0.816786 -11.2701 -8.99049
H 1.84269 -11.9565 -7.9214
O -14.3324 -4.362 -5.95264
H -14.7425 -4.60965 -5.07484
H -14.3142 -3.36625 -6.04292
O -11.1252 -2.27069 -8.91181
H -10.935 -2.04528 -7.9563
H -11.9931 -1.85621 -9.18565
O -12.5097 -5.08928 1.71775
H -11.5179 -5.0221 1.82662
H -12.7197 -5.57904 0.871566
O 7.88249 -4.38517 0.217846
H 8.61472 -4.10248 0.837469
H 7.20229 -4.9143 0.725137
O 11.4262 -8.74516 -3.3449
H 11.2467 -7.95839 -3.93545
H 12.3226 -8.64082 -2.91404
O 13.8219 -7.74461 -2.27001
H 13.8381 -8.57968 -1.72011
H 14.5018 -7.10096 -1.9188
O 6.90832 -12.3075 10.0795
H 6.44517 -13.157 9.82693
H 6.49513 -11.9373 10.9115
O -3.9577 -0.933025 3.84954
H -4.61026 -1.60498 4.19975
H -3.98674 -0.929742 2.84997
O -0.847084 10.727 -13.3399
H -1.7749 10.466 -13.0734
H -0.186476 10.1727 -12.8337
O 10.9305 -12.8683 -8.04245
H 10.6602 -13.7229 -7.59907
H 10.1131 -12.3487 -8.29109
O 12.8531 11.9509 -1.78247
H 13.7053 12.0816 -1.27597
H 13.0353 12.0148 -2.76365
O 13.5559 12.3143 -4.594
H 13.6794 13.3063 -4.5647
H 14.45 11.8682 -4.63427
O 9.23137 10.2244 14.5601
H 9.66708 10.1718 -14.6225
H 9.91023 10.4898 13.8755
O 1.90769 -5.59619 -5.62282
H 2.21525 -5.84535 -4.70449
H 2.67998 -5.23744 -6.14709
O 8.08456 -2.49274 -9.11261
H 8.39957 -2.16417 -10.003
H 7.65667 -1.74023 -8.61196
O -3.81482 -14.4032 -13.917
H -4.45411 14.9825 -14.2451
H -3.87328 -14.3402 -12.9207
O 8.65082 7.65373 2.98252
H 9.41078 7.24294 3.4862
H 8.44008 8.55098 3.37051
O -3.18475 0.960692 -7.2052
H -2.47673 1.5764 -6.85937
H -3.32472 1.12841 -8.18105
O 4.64782 -11.5863 -5.43394
H 5.26611 -10.8473 -5.70154
H 4.27872 -11.3989 -4.52365
O -12.3711 11.8924 -14.4796
H -11.91 11.2114 -13.9107
H -13.228 11.5114 -14.8269
O 1.2882 14.318 -9.68335
H 0.466192 14.5794 -10.1893
H 2.08363 14.776 -10.0802
O -3.96696 -9.25697 14.9836
H -3.65533 -10.0263 -14.5399
H -3.27753 -9.04696 14.2904
O -6.59255 9.54338 -5.86922
H -6.52836 8.5513 -5.76122
H -6.92597 9.95035 -5.01881
O 6.20511 3.39272 9.06834
H 6.62567 4.07 8.46466
H 6.77398 2.57071 9.09454
O -0.807347 -13.0503 -14.4362
H -0.292621 -13.4347 14.8786
H -1.51426 -13.6977 -14.1514
O -13.1374 3.89853 3.18827
H -13.9459 4.08299 3.74706
H -12.5304 4.69303 3.20773
O 4.51009 11.9928 11.7169
H 5.10229 12.0573 12.5201
H 3.8673 12.7588 11.7143
O -3.7517 -11.0919 -7.78448
H -3.21276 -11.783 -8.26605
H -4.05217 -10.3922 -8.43269
O 7.00302 -5.95585 2.76645
H 7.72902 -6.60803 2.98457
H 7.09874 -5.14509 3.34395
O 6.26433 8.53085 14.4984
H 6.32159 7.599 14.1401
H 5.95012 8.50434 -14.6338
O 5.98712 10.708 1.86462
H 5.92411 9.84966 1.35545
H 5.06861 11.0717 2.01979
O 10.9125 -0.999047 9.71783
H 10.19 -0.34717 9.48751
H 10.7042 -1.43119 10.5953
O 5.31436 6.93726 -9.83526
H 4.71272 6.3387 -9.30633
H 5.02377 7.88725 -9.72092
O -11.6001 1.54726 -1.88066
H -11.0085 2.35343 -1.86764
H -11.3726 0.954446 -1.10811
O 7.79116 -11.0882 -6.38754
H 8.58646 -10.6024 -6.75015
H 7.94635 -11.3098 -5.42483
O -9.67836 -9.09807 -8.63251
H -9.17137 -8.5071 -9.25997
H -10.6095 -8.74949 -8.52535
O 0.511188 4.8571 12.0243
H -0.356371 5.34294 12.1306
H 1.18665 5.46767 11.6109
O -14.6763 -11.1122 14.2969
H 14.6243 -11.7335 14.3642
H -14.7898 -10.5195 13.4995
O 5.60116 -7.15316 -12.5549
H 5.88986 -6.23641 -12.2788
H 5.41303 -7.70264 -11.7408
O -8.99161 1.23007 -14.8278
H -8.42728 1.65027 14.5427
H -8.71381 0.27781 -14.7013
O 12.3487 1.98201 -9.60912
H 12.0728 2.93431 -9.47871
H 12.7718 1.63971 -8.77021
O 1.64316 -7.03264 2.68593
H 0.900982 -6.4023 2.9136
H 2.52192 -6.59779 2.88265
O 6.12978 8.00556 -6.26233
H 6.51439 8.88884 -6.53043
H 5.46077 7.71222 -6.94525
O 3.74239 4.00232 -7.1053
H 3.04837 3.35154 -7.41321
H 3.8585 3.92225 -6.1153
O 13.1746 4.56815 -1.5457
H 13.8177 4.63406 -2.30857
H 12.8256 3.63307 -1.4838
O 0.724523 -8.30257 -0.395669
H 1.63825 -8.03439 -0.0903977
H 0.262915 -8.80493 0.335455
O -10.1101 14.6943 -7.39459
H -10.1797 14.9429 -6.4285
H -10.9363 14.2044 -7.67302
O 7.97095 -1.89294 -12.3598
H 8.53569 -2.69679 -12.173
H 8.30875 -1.43164 -13.1802
O 4.08688 -13.0363 -12.2169
H 4.09397 -13.7799 -11.5482
H 3.1737 -12.6305 -12.2544
O -13.7277 -0.00440035 -10.4921
H -14.3041 0.284696 -11.2564
H -14.3032 -0.366367 -9.75879
O -12.4164 -0.422512 -3.8433
H -11.8497 0.178776 -3.28003
H -12.4782 -0.0508679 -4.76962
O -3.30869 -14.2546 6.98696
H -4.20636 -14.0422 7.37306
H -3.32232 -14.0889 6.00087
O -9.59009 -1.22661 -2.94355
H -10.5634 -1.07973 -3.1197
H -9.16818 -0.364273 -2.66361
O 7.24487 -3.33001 3.74979
H 6.99878 -2.92652 2.86853
H 6.82748 -2.7994 4.48751
O 4.44658 15.0228 -1.25964
H 3.58721 14.7657 -1.70166
H 5.04935 -14.625 -1.92956
O 14.232 -12.8171 -5.83607
H 13.9375 -13.6802 -5.42582
H 13.9548 -12.7928 -6.79657
O -4.99215 -5.09922 11.5953
H -5.52743 -5.79261 11.1129
H -4.50195 -5.52573 12.3554
O 4.33026 11.6332 -6.72808
H 4.80822 11.32 -5.90742
H 3.34626 11.4972 -6.61304
O -2.57211 4.52761 7.25062
H -2.65028 3.6336 6.80943
H -1.6795 4.60303 7.6951
O -9.81359 -12.7234 13.7437
H -9.77507 -12.3497 12.8169
H -10.6745 -12.4548 14.1759
O 8.79656 4.29121 10.6458
H 8.10865 3.94457 10.0081
H 9.64817 3.7806 10.5273
O 6.28807 -7.95558 -2.15542
H 7.08836 -8.20095 -2.70254
H 6.23118 -8.55797 -1.35926
O 1.85921 7.40055 -5.6031
H 2.50987 7.698 -4.90442
H 1.05641 7.99655 -5.58628
O -6.447 2.0121 14.2334
H -5.96122 2.45062 14.9896
H -5.82332 1.40051 13.7466
O 7.9228 -2.35573 8.07456
H 8.05026 -2.24176 7.08929
H 7.1263 -2.93654 8.24264
O 11.6719 1.0916 4.67867
H 11.1895 1.64846 4.00246
H 12.1641 1.68863 5.31212
O 13.9463 10.7622 2.68005
H 13.62 11.2918 1.89707
H 14.6236 11.2971 3.18525
O -12.3197 -5.38273 9.93492
H -12.0183 -4.47289 9.64976
H -13.282 -5.5063 9.69232
O 1.03556 -2.66312 -8.06498
H 0.254895 -2.50358 -7.46074
H 1.64371 -1.86968 -8.04039
O 13.8516 7.27873 4.70075
H 14.2822 6.95602 5.54362
H 13.4555 8.18402 4.85428
O -8.28869 9.7012 4.62738
H -8.62218 9.29881 5.47995
H -7.44519 10.2079 4.80554
O -4.1043 -13.0394 -2.9748
H -4.07435 -12.4462 -2.17035
H -3.40395 -13.7484 -2.89233
O -9.30141 11.8562 10.2205
H -9.84645 12.5882 9.81161
H -9.85991 11.3536 10.8804
O -0.855832 8.64494 -8.1558
H -1.54007 8.02455 -8.5391
H -1.03901 9.57713 -8.46802
O 4.4023 -13.1131 13.0364
H 4.47474 -13.3509 14.0051
H 3.44302 -13.1462 12.756
O -10.8363 8.20085 -0.536197
H -10.3914 7.35592 -0.832979
H -10.8105 8.86985 -1.27901
O 12.2704 -7.67025 11.365
H 11.7013 -7.56303 12.1803
H 13.2293 -7.7532 11.6364
O -2.28695 -2.61764 -6.55002
H -2.62725 -3.39449 -6.02022
H -2.74231 -1.78117 -6.24512
O -4.1043 -7.2912 -10.0382
H -3.5608 -7.18427 -9.20561
H -5.02113 -6.92145 -9.8875
O -0.22231 4.72909 8.45738
H 0.753819 4.9456 8.47438
H -0.406033 3.96899 9.08067
O 11.8572 13.9358 10.7551
H 10.9663 13.6772 11.1286
H 12.0897 14.8602 11.0574
O 9.82784 11.5035 -2.7043
H 10.7193 11.8728 -2.96681
H 9.53594 11.9183 -1.84246
O -7.84346 -1.64205 -14.3587
H -8.55676 -1.87465 -15.0198
H -7.21899 -2.41631 -14.2559
O -7.96599 0.88259 11.3403
H -7.40183 1.67118 11.5849
H -7.54294 0.39399 10.5772
O -5.3813 -2.93926 -12.8223
H -5.37917 -1.94226 -12.745
H -4.96268 -3.33776 -12.0063
O 5.25501 8.57181 0.374695
H 4.29687 8.6643 0.103768
H 5.65244 7.77128 -0.0738669
O -9.39967 -2.22405 5.99041
H -10.2779 -2.12188 6.45759
H -9.55625 -2.51118 5.0454
O -14.1029 11.0106 -4.31617
H -14.1088 10.0672 -3.98458
H -13.2792 11.4738 -3.98897
O 8.67404 -11.8154 -9.76822
H 7.75463 -11.66 -9.40689
H 9.06629 -10.9452 -10.0666
O 5.24074 9.66844 -9.20427
H 5.88463 10.1025 -8.57422
H 4.62455 10.3605 -9.58035
O 9.95394 7.65211 7.88873
H 10.0198 7.97276 6.94382
H 10.8677 7.43267 8.23072
O 2.33872 3.18396 -11.9597
H 2.83976 3.04092 -12.8132
H 2.86527 2.8082 -11.1971
O 9.64711 -2.9375 5.47736
H 8.91052 -3.13338 4.83001
H 10.4605 -2.64095 4.97695
O 10.7429 3.61793 -12.5967
H 10.1127 2.84203 -12.6235
H 10.8285 3.94556 -11.6558
O 5.84294 9.58682 6.43562
H 5.98895 8.59765 6.4211
H 4.92047 9.78273 6.76828
O -1.50141 -6.651 -1.21921
H -1.25916 -6.05974 -0.449976
H -1.08495 -7.55117 -1.09176
O 14.6101 -1.17412 -8.63897
H 14.1086 -2.03301 -8.53527
H 14.0669 -0.423432 -8.26297
O 11.3738 -2.62018 -5.46095
H 10.7186 -3.37291 -5.39684
H 10.9029 -1.75345 -5.29667
O 0.863805 1.7726 4.13604
H 0.774457 2.21133 3.24187
H 0.815724 2.46679 4.85422
O -5.72108 11.1801 5.457
H -5.39379 10.2354 5.43834
H -4.96165 11.7916 5.67906
O -0.893485 10.7265 11.8308
H -0.686165 10.3332 10.9351
H -0.428401 11.6069 11.924
O 4.23248 -11.2443 1.45894
H 3.48068 -11.5069 2.06378
H 4.7658 -12.0553 1.21864
O 11.9026 -1.12577 -14.0565
H 12.7292 -1.47757 -14.4957
H 12.0453 -1.07699 -13.0679
O -9.46606 5.07416 13.1676
H -8.84312 4.33938 12.8992
H -9.76016 5.57565 12.3539
O 15.0349 -0.939617 3.69151
H 14.6487 -1.4789 4.43988
H -14.3538 -1.48027 3.21383
O 6.09492 -0.769318 -3.4015
H 5.16829 -1.02783 -3.67449
H 6.49348 -1.49746 -2.84387
O -0.79408 -13.0903 7.1924
H -1.68591 -13.5309 7.29501
H -0.765445 -12.5938 6.32485
O -4.95152 -4.29137 -0.178901
H -5.6875 -4.85396 -0.5555
H -4.44526 -4.81823 0.503832
O 14.099 -6.37545 -11.4319
H 13.4774 -6.40978 -10.6493
H 14.1395 -5.44061 -11.7846
O -14.9234 -5.82534 8.6679
H -14.7499 -5.41716 7.77164
H 14.1804 -6.01336 8.76498
O -8.87053 -0.518392 -6.77801
H -9.14183 0.387172 -6.45191
H -9.38139 -1.21894 -6.27976
O -2.98662 -11.5552 -13.4347
H -2.00549 -11.7463 -13.405
H -3.46268 -12.3224 -13.8646
O -12.5839 -10.0057 -4.30373
H -12.7462 -9.16821 -4.82553
H -11.6663 -10.3497 -4.50251
O -6.19701 -14.7911 11.0555
H -6.79248 14.6684 11.5643
H -6.59058 -14.6167 10.1529
O 11.5575 13.8355 -9.96391
H 12.4416 14.3022 -9.98873
H 11.5966 13.0821 -9.30745
O 8.88717 1.11511 9.10149
H 8.86819 0.850147 8.13742
H 8.05012 0.801575 9.54987
O -3.98866 1.96793 -9.58726
H -3.59168 2.47395 -10.353
H -4.81582 1.49614 -9.89257
O 8.83984 4.23298 13.352
H 9.74287 4.09623 13.7593
H 8.88842 4.06115 12.3681
O 6.88692 14.3261 2.71413
H 7.16792 13.4356 2.35625
H 5.90659 14.3119 2.91101
O -1.48253 -9.65242 -6.87544
H -2.29958 -10.199 -6.69189
H -1.07867 -9.3557 -6.01008
O -7.11847 14.5444 -10.5284
H -7.76391 -14.9257 -10.0703
H -7.33 14.5078 -11.5051
O -3.84032 7.27317 -8.22457
H -3.3458 6.79667 -8.95148
H -4.05235 8.20447 -8.52076
O -10.8209 6.54826 10.8234
H -9.8832 6.65133 10.4917
H -11.3767 6.10588 10.1195
O -13.8964 -2.34708 -11.7852
H -13.5403 -1.48688 -11.4202
H -13.2582 -3.08781 -11.5754
O 14.1306 -4.92061 -3.80739
H 13.6565 -5.79108 -3.93972
H 14.0232 -4.62346 -2.85861
O 4.06066 -10.2123 -0.921256
H 4.16688 -9.21805 -0.910707
H 4.08457 -10.5601 0.016034
O -11.3314 2.21263 4.895
H -12.077 2.7585 4.51271
H -11.7102 1.42522 5.38129
O 0.616452 6.58769 -0.161726
H 0.512531 6.71419 -1.14823
H -0.236623 6.23246 0.220461
O 13.5418 -4.30541 13.2225
H 12.8565 -4.96287 12.9093
H 14.1642 -4.75307 13.8646
O -12.3795 13.6459 -8.5693
H -12.7675 12.7488 -8.7802
H -13.1103 14.3281 -8.546
O -0.969489 0.416656 8.06511
H 0.0220579 0.485815 7.95534
H -1.37997 0.115916 7.20426
O 1.63786 -9.15086 12.4661
H 1.92209 -9.20068 13.4235
H 0.643537 -9.2403 12.4085
O -11.8518 14.9344 10.5046
H -11.682 14.6903 11.4593
H -11.9661 14.1016 9.96292
O -11.0454 5.19173 -5.43244
H -11.2287 6.13569 -5.70694
H -11.1888 4.58372 -6.2133
O 9.83236 -9.92097 -7.33791
H 9.88418 -8.96608 -7.63031
H 10.756 -10.2963 -7.25998
O -1.87535 5.95088 -9.6339
H -2.02485 5.07158 -9.18172
H -1.02438 5.91578 -10.1579
O -13.9454 2.21335 9.89767
H -13.0258 2.52504 9.65847
H -14.5182 3.00294 10.1176
O -10.5248 2.21642 -5.96968
H -9.8093 2.32842 -5.28011
H -10.5194 3.00352 -6.58648
O -2.4261 12.4293 8.13595
H -3.11273 12.2307 8.83532
H -1.98601 13.3038 8.3397
O 3.98792 -0.995888 -11.854
H 4.53235 -1.38636 -12.5963
H 3.01691 -1.15201 -12.035
O 9.13995 14.1287 14.601
H 9.01149 13.8979 -14.5158
H 8.34131 14.6308 14.2692
O -4.47667 10.1148 0.6306
H -4.37367 9.24597 1.11482
H -3.5732 10.4894 0.422177
O 14.5421 0.542202 -12.3567
H 14.4651 1.43124 -12.808
H 13.6329 0.137072 -12.261
O 2.80939 6.45033 -7.94093
H 3.21791 5.56799 -7.70729
H 2.44811 6.87997 -7.11336
O -14.6805 12.7029 12.1576
H -14.4843 12.141 12.9612
H -14.5826 13.6694 12.3948
O -9.32792 -8.74675 13.6422
H -8.5053 -9.30093 13.7694
H -9.63005 -8.39079 14.5265
O 6.3689 4.20923 -14.7826
H 7.01896 4.91924 -14.5119
H 6.23217 4.24248 14.3085
O 5.93618 3.15195 11.9896
H 5.12575 2.56823 11.94
H 5.89434 3.84245 11.2675
O 9.08556 -5.59299 -2.62247
H 9.0546 -4.80318 -3.23503
H 8.41133 -6.27011 -2.9173
O -11.405 12.9114 8.64163
H -11.9406 12.1083 8.38053
H -10.9967 13.3196 7.82513
O -1.93119 10.5167 -9.70273
H -2.41365 9.99808 -10.4086
H -2.10946 11.4929 -9.82588
O 12.8613 1.74838 1.92209
H 13.4909 2.02579 2.6478
H 13.3064 1.86069 1.03369
O -2.01344 6.24628 12.3468
H -2.04164 6.85467 13.1399
H -2.75098 6.48684 11.7158
O -8.3373 0.934731 -1.6835
H -8.84274 1.77719 -1.49698
H -7.39854 1.02891 -1.35206
O -5.26235 5.42475 11.5225
H -4.8147 4.62675 11.926
H -5.06258 5.45935 10.5433
O 1.1978 3.11564 14.2633
H 1.95048 2.85332 14.8672
H 1.26613 4.09012 14.0495
O 5.19449 1.06348 -15.015
H 5.06762 0.120207 -14.7081
H 6.07138 1.1448 14.5925
O 10.082 -14.4418 2.07945
H 9.50382 -13.8505 2.64164
H 9.57274 -14.7337 1.26985
O 13.2091 2.76726 6.52248
H 12.643 3.53739 6.81653
H 13.2737 2.09901 7.2636
O 10.1669 -9.60363 -12.0037
H 9.28182 -9.2808 -12.3388
H 10.3169 -10.5435 -12.3105
O 6.76161 14.5779 12.9334
H 6.70666 14.4906 11.9387
H 6.01147 -14.928 13.2595
O 2.92574 14.3825 10.9415
H 2.18231 13.779 10.6532
H 2.54297 -14.8662 11.342
O -6.98358 13.7348 2.09281
H -7.57199 13.4238 2.83918
H -7.51717 13.7908 1.24893
O 5.65568 -4.61579 -11.5499
H 4.68361 -4.56254 -11.7785
H 6.11914 -3.78959 -11.8702
O 0.718837 4.5204 -6.19696
H 0.914539 5.47739 -6.41114
H 0.69911 4.39823 -5.20465
O -1.77594 -4.56392 7.71852
H -0.95247 -4.39169 7.17794
H -1.61076 -4.30331 8.66973
O 10.0229 -11.3384 6.88315
H 11.0099 -11.4683 6.78811
H 9.66038 -10.9182 6.05129
O 7.14972 4.73911 -5.62878
H 6.38096 4.29365 -5.16991
H 7.18935 5.70028 -5.35569
O 1.86011 -6.42541 -2.48638
H 2.3481 -5.72295 -1.9683
H 1.49064 -7.10814 -1.85602
O 5.83261 -2.16482 6.05526
H 5.24153 -1.86075 6.80237
H 6.325 -1.37987 5.67922
O 7.61468 -10.0389 13.7834
H 8.49968 -9.75132 13.4173
H 7.6237 -11.0266 13.9398
O -14.8287 -8.78921 -13.9376
H -14.9789 -9.70198 -14.3174
H -14.4079 -8.86933 -13.034
O 3.93724 7.34772 8.45641
H 4.35743 8.03489 9.04907
H 4.5976 7.05547 7.76467
O 14.8904 -13.0933 5.52501
H 14.8737 -13.4313 6.46601
H -14.2466 -12.9044 5.25543
O 9.81213 -6.61821 14.3702
H 10.2482 -7.51132 14.2599
H 9.74385 -6.3986 -14.7378
O -2.38042 6.4732 3.20557
H -2.91239 7.08206 2.61711
H -1.41105 6.71012 3.1408
O -9.84704 -5.30913 2.21579
H -9.64882 -6.24793 2.49749
H -9.00119 -4.86342 1.92276
O -8.99312 -0.665074 -12.0061
H -9.45123 0.181815 -12.2761
H -8.5812 -1.09243 -12.8109
O -10.1044 1.88849 -12.3619
H -9.82169 1.90612 -13.3209
H -10.778 2.60958 -12.1996
O 7.41018 -6.57974 -6.85122
H 6.6937 -7.27218 -6.76645
H 8.08758 -6.71068 -6.12736
O -6.51349 -3.27965 -9.77565
H -6.39462 -2.38586 -9.34321
H -7.36146 -3.28335 -10.3057
O 3.54243 -2.56534 4.44861
H 4.3518 -2.4623 5.02681
H 2.84617 -1.9046 4.72903
O -2.44951 -11.3396 12.1576
H -3.06025 -11.6722 12.8761
H -1.91885 -10.5656 12.503
O -0.883582 7.35263 8.56845
H -0.603391 6.40472 8.41695
H -1.47742 7.40037 9.37161
O 13.6197 -11.4097 9.76734
H 13.5233 -11.6585 8.80359
H 14.5902 -11.345 9.99946
O -14.2092 -14.5736 -8.14748
H -13.7465 -13.8106 -7.69602
H 14.9695 -14.2778 -8.46067
O -14.0375 -13.6026 10.2475
H -13.2339 -14.1966 10.2089
H -13.7444 -12.6508 10.3378
O -13.9011 -9.36502 6.11007
H -14.3585 -9.49858 6.98924
H -14.4528 -8.76017 5.53581
O 1.66636 -0.335173 7.90476
H 2.44966 0.240294 8.13989
H 1.62961 -1.1181 8.52578
O 13.4887 3.37219 -12.7601
H 13.724 4.12226 -13.3782
H 12.4943 3.27465 -12.7179
O -11.5623 -2.32207 10.4345
H -12.5154 -2.11432 10.6543
H -10.962 -1.6872 10.921
O -1.6518 -2.78126 -9.65394
H -2.15429 -2.66564 -8.79713
H -0.722655 -3.09345 -9.45592
O 1.52618 -11.9 -12.5373
H 0.985993 -11.7354 -13.3626
H 1.76678 -11.0253 -12.1165
O 9.95691 -3.71025 1.78235
H 10.2735 -2.9305 1.24219
H 10.6049 -3.88765 2.52308
O -9.98958 -14.5431 -12.2358
H -9.24833 -14.7233 -12.8824
H -9.77248 -13.7281 -11.6986
O -11.3886 9.3365 14.496
H -12.0796 9.35565 -14.8625
H -10.9543 8.43599 14.4739
O -5.99761 0.0078069 -12.9016
H -5.62506 0.877055 -13.2265
H -6.82036 -0.21803 -13.4232
O -11.1467 13.7718 0.386545
H -12.0246 14.0917 0.742844
H -10.4817 14.5179 0.419772
O 7.77163 -11.0963 0.84191
H 7.954 -10.1136 0.872658
H 7.36226 -11.3319 -0.0395094
O 4.38687 -4.47995 -6.82012
H 5.03846 -4.63368 -7.56294
H 3.82066 -3.68361 -7.03288
O 7.85929 -0.768197 -14.9119
H 7.77156 0.0668632 14.6262
H 7.90494 -1.55928 14.5593
O 5.74457 2.33022 -8.00234
H 5.45799 1.83535 -8.82269
H 4.9616 2.81869 -7.61717
O 11.8324 -13.373 11.1963
H 12.5271 -12.8011 10.76
H 11.0406 -13.4557 10.5911
O 2.01893 -11.6823 9.07927
H 2.4889 -10.9997 9.63886
H 1.23637 -12.046 9.58456
O -13.4557 0.25794 -14.4957
H -13.374 -0.49353 -13.841
H -14.412 0.543593 -14.5576
O -6.57122 10.4355 -0.914776
H -6.86633 9.56052 -1.29862
H -5.84351 10.2781 -0.24719
O -3.3132 -6.73008 7.9756
H -4.29678 -6.55415 7.93562
H -2.82196 -5.862 8.04721
O -9.77203 10.054 -6.57499
H -10.2315 10.9231 -6.39169
H -8.88726 10.0401 -6.10917
O 6.21202 12.3817 9.27032
H 5.73408 11.659 9.76958
H 6.81765 11.9714 8.58852
O 10.616 4.88489 -10.0553
H 10.6767 5.55886 -10.7915
H 10.8846 5.31028 -9.19102
O 3.07188 10.2158 -14.3626
H 3.14033 9.98503 14.748
H 2.24677 9.80115 -13.9788
O 1.60342 -2.56869 9.64303
H 2.36802 -2.54595 10.2871
H 1.84598 -3.1383 8.85773
O 6.28296 -2.13416 1.00554
H 6.82959 -1.30971 1.1521
H 6.76182 -2.74361 0.373666
O -2.61731 -9.80649 -10.6509
H -3.14615 -10.2945 -11.3453
H -3.13684 -9.01361 -10.3324
O 13.5732 -10.395 0.91598
H 13.1185 -11.1098 1.4473
H 14.3735 -10.7797 0.455997
O -8.41601 6.1274 -5.00079
H -9.21227 5.52401 -5.04418
H -8.49081 6.82944 -5.70898
O 8.57821 1.97855 -9.35675
H 8.8402 2.55805 -10.1285
H 7.73108 2.32403 -8.953
O 10.7491 -7.18345 6.90913
H 9.76884 -7.37895 6.88025
H 11.1311 -7.5208 7.76953
O 10.344 10.4504 1.74071
H 9.53825 10.6785 1.19421
H 10.179 10.6953 2.69612
O 10.8024 -11.6712 -3.74901
H 11.1399 -12.5031 -3.30859
H 11.3254 -10.8846 -3.42087
O 14.8659 -7.81457 11.7059
H -14.7597 -8.40928 11.0435
H -14.5841 -7.09611 11.9981
O -2.39398 -1.26398 11.9342
H -2.91757 -1.08075 11.1021
H -2.97516 -1.11284 12.7338
O -0.272492 6.8314 -2.75147
H -1.16302 6.76189 -3.20106
H 0.0214891 7.78714 -2.74018
O 11.1469 14.6908 4.37931
H 10.5653 14.8936 3.59149
H 10.6571 14.9154 5.22174
O -1.99015 8.23349 -0.395441
H -1.74491 8.7781 0.406583
H -1.5481 7.33832 -0.338337
O 10.9989 -1.54261 0.369186
H 10.4978 -0.710466 0.606822
H 11.9802 -1.3827 0.475829
O 3.35643 -4.89172 -0.696623
H 3.39444 -4.29309 0.103501
H 4.20147 -4.79846 -1.22312
O -14.2657 -5.04126 14.9073
H -13.7818 -5.24843 14.057
H -14.2194 -5.83159 -14.563
O 4.95599 -10.9462 -14.3734
H 4.63794 -11.842 -14.0627
H 5.92314 -10.8378 -14.1435
O -2.21911 -9.56846 7.61763
H -2.36356 -10.2408 8.34365
H -2.59483 -8.68609 7.90092
O -13.1302 6.03956 9.12209
H -13.2288 5.59666 8.23096
H -13.7765 5.63465 9.76889
O -2.84822 1.44665 -14.0941
H -2.68864 0.469704 -14.236
H -2.22045 1.78887 -13.395
O -10.4956 0.194868 0.265083
H -9.69262 0.173685 -0.330544
H -10.2036 0.313691 1.21409
O -12.8158 -12.4902 -6.74923
H -12.308 -11.7538 -6.30211
H -13.6962 -12.6137 -6.29145
O 3.1326 -11.113 -3.20337
H 3.52803 -11.2892 -2.30193
H 3.11843 -10.1279 -3.3744
O 14.6434 -8.08791 -5.20838
H -14.4718 -8.32609 -5.30837
H 14.3551 -8.25381 -4.26533
O 3.02587 5.62617 -2.53293
H 2.26801 5.02696 -2.79098
H 2.67718 6.54599 -2.35312
O 14.6166 -1.58718 8.82397
H -14.6556 -1.34583 9.36001
H 14.0684 -2.2535 9.32945
O -6.12065 -2.50641 6.27767
H -6.66212 -3.14079 6.82937
H -6.57353 -1.61516 6.25385
O -11.2399 -12.0179 -0.23759
H -11.5303 -12.5845 -1.00866
H -10.6182 -12.5413 0.345186
O 8.24009 -0.69641 2.29407
H 8.76277 -1.54201 2.40248
H 8.84937 0.0351461 1.98813
O -8.53097 -6.97256 -9.82064
H -8.93251 -6.2957 -9.20368
H -8.92066 -6.86273 -10.735
O -8.68475 10.9598 7.76967
H -9.10158 10.0833 7.52902
H -8.94946 11.2103 8.7009
O 3.85862 12.4139 -9.35584
H 2.86141 12.3417 -9.37455
H 4.19202 12.1884 -8.44042
O -8.28962 8.95958 -14.841
H -8.50075 9.29895 14.3236
H -7.99493 8.00571 -14.8984
O -3.22346 9.55655 -12.4996
H -3.7103 8.78863 -12.9159
H -3.87137 10.2901 -12.2943
O 9.25361 3.05361 -6.79234
H 9.0789 2.45417 -7.57347
H 8.46164 3.04492 -6.18184
O 1.17123 -14.9509 7.504
H 2.0224 -14.4265 7.48102
H 0.403379 -14.3498 7.28228
O 6.20684 -10.3056 -8.61016