LAMMPS data file via write_data, version 15 May 2015, timestep = 1009000

2593 atoms
6 atom types
1728 bonds
4 bond types
864 angles
3 angle types
0 dihedrals
3 dihedral types
0 impropers
1 improper types

-1.4955121117142639e+01 1.4955121117142639e+01 xlo xhi
-1.4955121117142639e+01 1.4955121117142639e+01 ylo yhi
-1.4955121117142639e+01 1.4955121117142639e+01 zlo zhi

Masses

1 15.9994
2 1.00794
3 12.0107
4 1.00794
5 12.0107
6 12.0107

Bond Coeffs # harmonic

1 1000 1
2 469 1.4
3 367 1.08
4 469 0.7

Angle Coeffs # harmonic

1 100 109.47
2 35 120
3 63 120

Dihedral Coeffs # opls

1 0 7.25 0 0
2 0 7.25 0 0
3 0 7.25 0 0

Improper Coeffs # cvff

1 2.5 -1 2

Atoms # full

1052 351 2 4.0999999999999998e-01 -1.0948454809578806e+01 -5.0450590938121600e+00 -9.1787419543173456e+00 1 0 -2
1142 381 2 4.0999999999999998e-01 -1.3961659078270115e+01 -1.1503948328881188e+01 -1.3336211948783728e+01 1 -3 0
421 141 1 -8.1999999999999995e-01 -1.1890790310968253e+01 -1.1090102553399882e+01 -1.0624601395218484e+01 -1 2 2
35 12 2 4.0999999999999998e-01 -1.0637945774236421e+01 -1.1090240879368434e+01 -1.1665363650482792e+01 0 1 1
36 12 2 4.0999999999999998e-01 -9.2825501816487659e+00 -1.1949615741142589e+01 -1.1967024802051236e+01 0 1 1
34 12 1 -8.1999999999999995e-01 -9.7055449999005567e+00 -1.1045276306247636e+01 -1.2023979409331693e+01 0 1 1
896 299 2 4.0999999999999998e-01 -5.8149619691075607e+00 -8.6215146480416216e+00 -1.4455111802643989e+01 0 1 1
422 141 2 4.0999999999999998e-01 -1.2801304572652370e+01 -1.1500887601956933e+01 -1.0577509395711377e+01 -1 2 2
484 162 1 -8.1999999999999995e-01 -2.9969351133223476e-01 -5.2423915530720535e+00 -1.1863584196485547e+01 -2 -1 2
1561 521 1 -8.1999999999999995e-01 -1.1075210856099520e+01 -1.4666121125366701e+01 -1.3180942406082064e+01 -2 1 0
1628 543 2 4.0999999999999998e-01 -1.1400938692768872e+01 -7.5076753395477605e+00 -1.2640496898511969e+01 1 1 -3
1627 543 1 -8.1999999999999995e-01 -1.1484600335441810e+01 -6.6418772106657080e+00 -1.2147148721714524e+01 1 1 -3
2471 824 2 4.0999999999999998e-01 -8.2771626850756146e+00 -8.5116033719387332e+00 -1.1852090396955148e+01 0 2 0
2470 824 1 -8.1999999999999995e-01 -8.4212352026339747e+00 -7.8203468246766805e+00 -1.2560190377042780e+01 0 2 0
892 298 1 -8.1999999999999995e-01 -7.2455002012150738e+00 -5.2980389323454631e+00 -1.3071929535575514e+01 -1 0 -2
1629 543 2 4.0999999999999998e-01 -1.0966256331403295e+01 -6.6932261016705272e+00 -1.1293520640476341e+01 1 1 -3
705 235 2 4.0999999999999998e-01 -5.2857862631399577e-01 -8.4093551204921511e+00 -1.4951591442754115e+01 1 1 0
2213 738 2 4.0999999999999998e-01 -1.4185242961056504e+01 -9.8719422607393561e+00 -1.4558544185692545e+01 0 1 1
423 141 2 4.0999999999999998e-01 -1.1713272919013791e+01 -1.0575971651865643e+01 -9.7854618140498850e+00 -1 2 2
1552 518 1 -8.1999999999999995e-01 -1.4183834637935433e+01 -1.3640800398574026e+01 -9.6116849289259711e+00 2 0 0
1554 518 2 4.0999999999999998e-01 -1.3772627265781651e+01 -1.3541796538752173e+01 -8.7055365021228948e+00 2 0 0
1891 631 1 -8.1999999999999995e-01 -8.9860907904214020e+00 -1.3822057568696209e+01 -1.1692774014641172e+01 1 3 -2
1892 631 2 4.0999999999999998e-01 -9.7424323359265692e+00 -1.4197104569292014e+01 -1.2228764137059935e+01 1 3 -2
894 298 2 4.0999999999999998e-01 -7.7848703179834384e+00 -6.1106421446801704e+00 -1.2851126374025874e+01 -1 0 -2
2121 707 2 4.0999999999999998e-01 -1.0626234902806946e+01 -9.8517230396799143e+00 -1.3360534347609425e+01 -1 2 -1
2228 743 2 4.0999999999999998e-01 -1.4758780034764330e+01 -6.5845727703423993e+00 -1.1682187929048549e+01 -1 -2 -1
2229 743 2 4.0999999999999998e-01 -1.3178643951124590e+01 -6.4263705679090997e+00 -1.2062666242900548e+01 -1 -2 -1
426 142 2 4.0999999999999998e-01 -5.3093080898672529e+00 -5.1372522697446357e+00 -1.4247731228566536e+01 -1 3 -1
2472 824 2 4.0999999999999998e-01 -8.9660250571237423e+00 -8.2115249321773796e+00 -1.3301932877186998e+01 0 2 0
848 283 2 4.0999999999999998e-01 -1.3198609299143818e+01 -6.0591665180497678e+00 -8.6660283041797506e+00 0 2 -1
467 156 2 4.0999999999999998e-01 -8.7826929983145021e+00 -1.0166026024221072e+01 -1.0880184688229775e+01 2 1 0
1143 381 2 4.0999999999999998e-01 -1.2565942524319082e+01 -1.0822944717064454e+01 -1.2831404572550717e+01 1 -3 0
1893 631 2 4.0999999999999998e-01 -9.2230964790162524e+00 -1.3843447479368695e+01 -1.0721502215186771e+01 1 3 -2
1053 351 2 4.0999999999999998e-01 -1.0900534224561547e+01 -6.3547344220003961e+00 -8.2045368883325356e+00 1 0 -2
1740 580 2 4.0999999999999998e-01 -1.3943641040783348e+00 -1.2555254418282040e+01 -8.8747798277717216e+00 -2 1 -3
1553 518 2 4.0999999999999998e-01 -1.3859675332404100e+01 -1.4487233268344099e+01 -1.0034142459934586e+01 2 0 0
678 226 2 4.0999999999999998e-01 -7.9148320137592139e+00 -1.4612199012145446e+01 -1.2696548946544537e+01 0 1 0
1141 381 1 -8.1999999999999995e-01 -1.2979024044791151e+01 -1.1432931870136292e+01 -1.3507627247036206e+01 1 -3 0
1051 351 1 -8.1999999999999995e-01 -1.1460782090702063e+01 -5.8398261842303807e+00 -8.8533742764931240e+00 1 0 -2
2119 707 1 -8.1999999999999995e-01 -1.1137248962651086e+01 -9.0149782455409238e+00 -1.3557310517066881e+01 -1 2 -1
794 265 2 4.0999999999999998e-01 -8.7546562976078697e+00 -8.5038032911352843e+00 -7.5106830723082210e+00 -1 3 0
826 276 1 -8.1999999999999995e-01 -4.6566509699139793e+00 -1.1405349519906103e+01 -8.9466002287149919e+00 0 1 -1
880 294 1 -8.1999999999999995e-01 -3.4143414466442721e+00 -1.3696508183299802e+01 -1.2568824400814259e+01 0 -2 -1
2120 707 2 4.0999999999999998e-01 -1.1270052039485673e+01 -8.9299654467590415e+00 -1.4544799416949964e+01 -1 2 -1
468 156 2 4.0999999999999998e-01 -7.8385022347119104e+00 -1.0548756519149759e+01 -9.6040017929451480e+00 2 1 0
849 283 2 4.0999999999999998e-01 -1.4497515872296429e+01 -6.6495483933187423e+00 -9.4603284617511498e+00 0 2 -1
2227 743 1 -8.1999999999999995e-01 -1.3984370777772948e+01 -5.9523953790994462e+00 -1.1707490145408446e+01 -1 -2 -1
847 283 1 -8.1999999999999995e-01 -1.4195646537681480e+01 -6.1355884206280660e+00 -8.6573849520288881e+00 0 2 -1
2562 854 2 4.0999999999999998e-01 -6.7491705677453702e+00 -5.0278585789024319e+00 -7.6344701963780732e+00 1 0 1
2259 753 2 4.0999999999999998e-01 -1.5097652012660649e+00 -9.7082753004370019e+00 -7.9724561181251383e+00 1 0 1
881 294 2 4.0999999999999998e-01 -4.2038459835093729e+00 -1.3336862232125391e+01 -1.2071496044072202e+01 0 -2 -1
452 151 2 4.0999999999999998e-01 -6.0712075614076362e+00 -1.2784031347639374e+01 -1.3645562253993404e+01 0 -1 0
2192 731 2 4.0999999999999998e-01 -2.5383199664404259e+00 -5.4258068173052951e+00 -1.3906251041851041e+01 0 -1 2
494 165 2 4.0999999999999998e-01 -4.6854301023652809e+00 -1.4031052169009362e+01 -1.4136626948986631e+01 -2 -1 0
453 151 2 4.0999999999999998e-01 -6.7913852226667970e+00 -1.1328254779009743e+01 -1.3476211123836055e+01 0 -1 0
330 110 2 4.0999999999999998e-01 -1.1772806368481611e+01 -1.1563540411671841e+01 -7.6864744180503939e+00 0 0 -2
827 276 2 4.0999999999999998e-01 -5.4019568273553027e+00 -1.1872549739200640e+01 -9.4222480454495265e+00 0 1 -1
618 206 2 4.0999999999999998e-01 -2.2798588232113897e+00 -8.3440715790103148e+00 -1.1257542349557237e+01 -3 2 1
1024 342 1 -8.1999999999999995e-01 -4.9597928215701241e+00 -8.1900167875583350e+00 -1.2939427715750261e+01 0 2 0
378 126 2 4.0999999999999998e-01 -6.5660504645581597e+00 -7.1600060085192725e+00 -9.3879142293059541e+00 1 1 -1
390 130 2 4.0999999999999998e-01 -3.3212031405572215e+00 -8.2777688191959609e+00 -8.4948496743675754e+00 -2 1 0
485 162 2 4.0999999999999998e-01 -8.1786048852322502e-01 -5.5700921895628728e+00 -1.2653592667690020e+01 -2 -1 2
389 130 2 4.0999999999999998e-01 -4.3895988488873350e+00 -8.2839916923726413e+00 -9.7298045632258976e+00 -2 1 0
704 235 2 4.0999999999999998e-01 -1.8824184036946985e+00 -8.6343532128793576e+00 -1.4066653669806099e+01 1 1 0
1562 521 2 4.0999999999999998e-01 -1.1676135479457750e+01 -1.3876135268329771e+01 -1.3302639400952822e+01 -2 1 0
466 156 1 -8.1999999999999995e-01 -8.0297557962884625e+00 -9.8562261019966115e+00 -1.0299574821585271e+01 2 1 0
376 126 1 -8.1999999999999995e-01 -6.2331293161615395e+00 -7.6846593213169712e+00 -1.0171432313156807e+01 1 1 -1
2193 731 2 4.0999999999999998e-01 -1.8184566260317876e+00 -6.7635321987335537e+00 -1.4505341472944018e+01 0 -1 2
1605 535 2 4.0999999999999998e-01 -6.7796919414662327e-01 -5.4937310235186398e+00 -7.5879066988128878e+00 -2 1 -2
1316 439 2 4.0999999999999998e-01 -1.4551434440890885e+01 -1.0556290742409757e+01 -8.6132220306088172e+00 -2 2 -1
328 110 1 -8.1999999999999995e-01 -1.1971612917219460e+01 -1.0601803217877833e+01 -7.8749835710088956e+00 0 0 -2
2191 731 1 -8.1999999999999995e-01 -1.6628589358357058e+00 -5.8876645214456040e+00 -1.4048566467980695e+01 0 -1 2
1738 580 1 -8.1999999999999995e-01 -1.9994369030462220e+00 -1.3146521137042816e+01 -9.4079670672519349e+00 -2 1 -3
828 276 2 4.0999999999999998e-01 -4.3712176302794727e+00 -1.0607169199013452e+01 -9.4771037627376877e+00 0 1 -1
539 180 2 4.0999999999999998e-01 -1.0420389103126467e+01 -5.4882112402252847e+00 -1.3326197640191673e+01 -1 1 0
714 238 2 4.0999999999999998e-01 -6.7680106565484000e+00 -1.2641874162211350e+01 -1.1185984060749327e+01 -2 4 -2
493 165 1 -8.1999999999999995e-01 -5.5301645299565738e+00 -1.3967787337923822e+01 -1.4668058131082065e+01 -2 -1 0
2257 753 1 -8.1999999999999995e-01 -8.6649214256383189e-01 -1.0468988771847570e+01 -7.8857802112422215e+00 1 0 1
616 206 1 -8.1999999999999995e-01 -2.0779024819841485e+00 -8.8709186551653723e+00 -1.2083159701702911e+01 -3 2 1
451 151 1 -8.1999999999999995e-01 -6.6694413376981156e+00 -1.2231632663638489e+01 -1.3065071176773273e+01 0 -1 0
713 238 2 4.0999999999999998e-01 -7.0153458925292433e+00 -1.3620803316234962e+01 -9.9025726721266647e+00 -2 4 -2
1025 342 2 4.0999999999999998e-01 -5.3247892328719679e+00 -7.6566837287637650e+00 -1.2176321267706436e+01 0 2 0
2510 837 2 4.0999999999999998e-01 -6.6260721806932388e-01 -1.1487402807429284e+01 -1.1921995656660053e+01 3 2 2
2511 837 2 4.0999999999999998e-01 -1.2554970862898447e+00 -1.2755253131366194e+01 -1.1080771040785002e+01 3 2 2
377 126 2 4.0999999999999998e-01 -6.9596901446110273e+00 -8.2868307556220628e+00 -1.0502335783250473e+01 1 1 -1
71 24 2 4.0999999999999998e-01 -2.4170387590558242e+00 -1.4658205286891597e+01 -9.1983052591959602e+00 0 0 0
617 206 2 4.0999999999999998e-01 -1.3911287480935304e+00 -9.5672124020100515e+00 -1.1874557072300865e+01 -3 2 1
388 130 1 -8.1999999999999995e-01 -3.4689701755170894e+00 -8.5513585295947081e+00 -9.4452768470095698e+00 -2 1 0
1026 342 2 4.0999999999999998e-01 -3.9731538734292702e+00 -8.3049555496158760e+00 -1.2823968568727965e+01 0 2 0
1371 457 2 4.0999999999999998e-01 -6.8753174288320906e-01 -1.2467803086999556e+01 -1.4394545733193530e+01 1 0 -1
2509 837 1 -8.1999999999999995e-01 -1.2664372376165804e+00 -1.2283488752178581e+01 -1.1962426714615845e+01 3 2 2
1739 580 2 4.0999999999999998e-01 -2.8183073078238685e+00 -1.2635888925447881e+01 -9.6700818242952593e+00 -2 1 -3
712 238 1 -8.1999999999999995e-01 -6.5237042449591005e+00 -1.2814642752309416e+01 -1.0231801880557711e+01 -2 4 -2
882 294 2 4.0999999999999998e-01 -2.6312214767516906e+00 -1.3089207217412984e+01 -1.2435007725456998e+01 0 -2 -1
793 265 1 -8.1999999999999995e-01 -9.6211601787163499e+00 -8.1422383875416422e+00 -7.8548343211353586e+00 -1 3 0
795 265 2 4.0999999999999998e-01 -1.0232587869645752e+01 -8.9006311227343886e+00 -8.0806547090740306e+00 -1 3 0
1456 486 1 -8.1999999999999995e-01 -8.9540630766131848e+00 -4.9927472640241728e+00 -9.7603723289376809e+00 0 1 0
233 78 2 4.0999999999999998e-01 -1.0139265798427445e+01 -1.1282615899502073e+01 -3.0835282920116871e+00 0 1 -4
232 78 1 -8.1999999999999995e-01 -1.0040386309950026e+01 -1.2277610031188463e+01 -3.0979386521732071e+00 0 1 -4
234 78 2 4.0999999999999998e-01 -9.1882074117042212e+00 -1.2534514546245708e+01 -2.6420994046830710e+00 0 1 -4
664 222 1 -8.1999999999999995e-01 -1.1944570238047808e+01 -5.0929347513904428e+00 -4.3594437550770486e+00 1 2 0
2503 835 1 -8.1999999999999995e-01 -1.3564888905160910e+01 -9.1233495482696156e+00 -2.3303679546515692e+00 -1 2 1
2505 835 2 4.0999999999999998e-01 -1.3686859127442666e+01 -9.5425247156026813e+00 -3.2300421293665771e+00 -1 2 1
1770 590 2 4.0999999999999998e-01 -1.3641517737035443e+01 -5.1461200066597517e+00 -5.6122892626608287e+00 0 1 0
665 222 2 4.0999999999999998e-01 -1.1867772335778049e+01 -5.4665644239023319e+00 -3.4350514978576943e+00 1 2 0
1673 558 2 4.0999999999999998e-01 -5.5547650852360899e+00 -9.8668386169220170e+00 -1.8846289838534780e-01 -1 0 1
2353 785 1 -8.1999999999999995e-01 -9.9998200224725053e+00 -9.5095669768337636e+00 -3.1756672146286018e+00 2 0 1
2513 838 2 4.0999999999999998e-01 -1.3818959980524287e+01 -9.0196997594635420e+00 -5.5190676099113638e+00 -1 1 -1
1818 606 2 4.0999999999999998e-01 -1.5932058556729345e-01 -9.0151192015717534e+00 -2.0006374753585323e+00 -1 2 0
2504 835 2 4.0999999999999998e-01 -1.2775226580020817e+01 -9.5347987240838030e+00 -1.8752402944267690e+00 -1 2 1
2512 838 1 -8.1999999999999995e-01 -1.3020079126304584e+01 -9.6194745952957827e+00 -5.4737082168182809e+00 -1 1 -1
2514 838 2 4.0999999999999998e-01 -1.2218821794642517e+01 -9.0872779242710937e+00 -5.2003008218919824e+00 -1 1 -1
2355 785 2 4.0999999999999998e-01 -9.0696683512966541e+00 -9.1935612769725896e+00 -2.9887011117916966e+00 2 0 1
492 164 2 4.0999999999999998e-01 -1.0658314587366400e+01 -1.2701262788544602e+01 -4.7557321689255367e+00 -1 0 -2
210 70 2 4.0999999999999998e-01 -1.2763078957699276e+01 -1.1772301489270742e+01 -1.9007324311939051e+00 -1 1 0
2187 729 2 4.0999999999999998e-01 -5.3346021455584847e+00 -1.1830281276249432e+01 -7.2348463856658389e+00 -1 2 2
58 20 1 -8.1999999999999995e-01 -1.1360701276740031e+01 -7.5972254135793076e+00 -5.0104394724420498e+00 -1 3 0
1747 583 1 -8.1999999999999995e-01 -1.4028766553130506e+01 -1.2489049226599446e+01 -4.9988783691279242e+00 1 0 -3
1749 583 2 4.0999999999999998e-01 -1.3565660416426539e+01 -1.1624310227522827e+01 -5.1931908890239082e+00 1 0 -3
1748 583 2 4.0999999999999998e-01 -1.3588402259792575e+01 -1.2935268178174407e+01 -4.2197981374712494e+00 1 0 -3
1626 542 2 4.0999999999999998e-01 -6.9687252262637811e+00 -1.2958476360320724e+01 -6.1770781602333340e+00 1 1 -2
1526 509 2 4.0999999999999998e-01 -1.1003212204867905e+01 -9.6860657343498247e+00 -5.3018686104238810e-01 1 2 0
2354 785 2 4.0999999999999998e-01 -1.0446673778244271e+01 -8.8755920353769007e+00 -3.8068528935892516e+00 2 0 1
1211 404 2 4.0999999999999998e-01 -1.1181355029552829e+01 -6.9176272143058846e+00 -1.0611876972537324e+00 1 2 1
1210 404 1 -8.1999999999999995e-01 -1.1501386704593989e+01 -6.6791615300622045e+00 -1.9780911832074626e+00 1 2 1
966 322 2 4.0999999999999998e-01 -1.1469390729818128e+01 -1.3798336030742313e+01 -6.9807435306003702e+00 -2 0 1
60 20 2 4.0999999999999998e-01 -1.1827116128040920e+01 -6.7742779796894101e+00 -4.6860740303877382e+00 -1 3 0
964 322 1 -8.1999999999999995e-01 -1.2270022089392237e+01 -1.4167487465185102e+01 -7.4526701600082221e+00 -2 0 1
1624 542 1 -8.1999999999999995e-01 -7.6760005004729503e+00 -1.3652139493027681e+01 -6.0407281229892309e+00 1 1 -2
59 20 2 4.0999999999999998e-01 -1.0554136828095526e+01 -7.3360857404112174e+00 -5.5407770446271645e+00 -1 3 0
1212 404 2 4.0999999999999998e-01 -1.2207027713042367e+01 -7.3275132686359514e+00 -2.2639389579703710e+00 1 2 1
1467 489 2 4.0999999999999998e-01 -9.0393225011051275e+00 -5.1955860956720112e+00 -8.1641088321554633e-01 2 2 -1
209 70 2 4.0999999999999998e-01 -1.1903704395870413e+01 -1.2758128037355073e+01 -2.8786091562143188e+00 -1 1 0
491 164 2 4.0999999999999998e-01 -9.5945297931637086e+00 -1.3456524331444335e+01 -5.7378540569259968e+00 -1 0 -2
490 164 1 -8.1999999999999995e-01 -1.0514689342976412e+01 -1.3070222918775585e+01 -5.6740122798119277e+00 -1 0 -2
208 70 1 -8.1999999999999995e-01 -1.2785846715926757e+01 -1.2621830520162407e+01 -2.4277811019422906e+00 -1 1 0
2011 671 1 -8.1999999999999995e-01 -1.4351760851683595e+01 -7.1370633454616739e+00 -3.9731048583311157e-01 1 0 -2
2554 852 1 -8.1999999999999995e-01 -7.3569034722110498e+00 -9.1865950102474017e+00 -6.6223686571309859e+00 1 2 1
2013 671 2 4.0999999999999998e-01 -1.4105641657239497e+01 -7.9261714659077800e+00 -9.6009977028717763e-01 1 0 -2
1625 542 2 4.0999999999999998e-01 -7.4537241146300541e+00 -1.4465088512235472e+01 -6.5789707663540025e+00 1 1 -2
329 110 2 4.0999999999999998e-01 -1.2452893889202880e+01 -1.0201832337971819e+01 -7.0949899639000202e+00 0 0 -2
1719 573 2 4.0999999999999998e-01 -7.8038958357220842e+00 -1.4191706794842629e+01 -1.4638744634826093e+00 0 2 1
2549 850 2 4.0999999999999998e-01 -6.9918955870813058e+00 -7.5290124562775169e+00 -6.8482087411185866e+00 -1 1 1
62 21 2 4.0999999999999998e-01 -1.3761477510692115e+01 -1.3724753870342639e+01 -1.3864159795481665e+00 1 -1 0
1525 509 1 -8.1999999999999995e-01 -1.1719344676329913e+01 -1.0365014246905126e+01 -6.9199366472063240e-01 1 2 0
1736 579 2 4.0999999999999998e-01 -5.0349654832351192e+00 -1.4573094217993553e+01 -7.3448326566014677e+00 1 0 0
2548 850 1 -8.1999999999999995e-01 -6.6938127729944625e+00 -6.5744737012626508e+00 -6.8476473457778333e+00 -1 1 1
1769 590 2 4.0999999999999998e-01 -1.4466782930199455e+01 -5.3378817643351031e+00 -7.0082785260165368e+00 0 1 0
2195 732 2 4.0999999999999998e-01 -4.1837676337245284e+00 -1.3937067304619530e+01 -6.0796544920223994e-01 0 1 1
1690 564 1 -8.1999999999999995e-01 -5.0784814440114356e+00 -5.7944407158307403e+00 -2.2933037121330457e-01 1 3 0
1042 348 1 -8.1999999999999995e-01 -7.5089388536443309e+00 -1.2320690456172041e+01 -1.9637589223585525e+00 -1 2 -1
1481 494 2 4.0999999999999998e-01 -3.3763490310466100e+00 -1.4545752096794507e+01 -3.7729135806031806e+00 -1 -1 2
1492 498 1 -8.1999999999999995e-01 -1.7029106599715949e+00 -8.6202013968121012e+00 -4.9043423227828615e+00 2 1 1
1672 558 1 -8.1999999999999995e-01 -6.2836712863241697e+00 -1.0109597541763820e+01 -8.2858949023155049e-01 -1 0 1
2186 729 2 4.0999999999999998e-01 -5.1666689499673559e+00 -1.0986723649253431e+01 -5.8467431697873611e+00 -1 2 2
2194 732 1 -8.1999999999999995e-01 -4.2946253729457009e+00 -1.2945954755737635e+01 -5.3444961124807833e-01 0 1 1
1591 531 1 -8.1999999999999995e-01 -1.1579642352494712e+00 -1.2173039637193567e+01 -2.0007961404526373e+00 0 1 -1
1592 531 2 4.0999999999999998e-01 -2.4921522562692289e-01 -1.2383000524128025e+01 -2.3614758937897999e+00 0 1 -1
2556 852 2 4.0999999999999998e-01 -7.7981282185390874e+00 -9.0529620720414208e+00 -5.7349785984416197e+00 1 2 1
1708 570 1 -8.1999999999999995e-01 -7.2233051062520985e+00 -8.3582233408260276e+00 -3.8364103460243726e+00 0 2 -1
1768 590 1 -8.1999999999999995e-01 -1.4514099439064838e+01 -5.4251449188722916e+00 -6.0132185640846867e+00 0 1 0
1366 456 1 -8.1999999999999995e-01 -1.0882546585860435e+00 -9.7025650407396444e+00 -4.7283081803115401e-01 1 0 2
1593 531 2 4.0999999999999998e-01 -1.6787701836674689e+00 -1.3020219971252640e+01 -1.8957015914109157e+00 0 1 -1
1735 579 1 -8.1999999999999995e-01 -4.1676640505829017e+00 -1.4561311531699072e+01 -6.8471907137716741e+00 1 0 0
2550 850 2 4.0999999999999998e-01 -6.2393995940946887e+00 -6.3677001087991147e+00 -5.9811881490379193e+00 -1 1 1
2058 686 2 4.0999999999999998e-01 -2.3079266760257759e+00 -8.5718082245747063e+00 -1.5945544581235769e+00 -1 2 2
1368 456 2 4.0999999999999998e-01 -1.2296876342324623e+00 -1.0660657997208428e+01 -7.2193443791786294e-01 1 0 2
12 4 2 4.0999999999999998e-01 -2.4120780677060729e+00 -1.0169016486292840e+01 -4.7688476508786639e+00 1 2 -1
1044 348 2 4.0999999999999998e-01 -7.1815758708580661e+00 -1.1502430349108632e+01 -1.4912316235284635e+00 -1 2 -1
2555 852 2 4.0999999999999998e-01 -6.7731892071126811e+00 -9.9977200468513843e+00 -6.5855984068628359e+00 1 2 1
337 113 1 -8.1999999999999995e-01 -5.5398353039450186e+00 -5.9033492784369308e+00 -4.6338964673000511e+00 0 3 2
1709 570 2 4.0999999999999998e-01 -6.3305247299802030e+00 -8.7909376873868954e+00 -3.7111117345431239e+00 0 2 -1
1391 464 2 4.0999999999999998e-01 -1.6668290868014779e+00 -6.5900097330733161e+00 -1.6115868721172237e+00 0 0 0
462 154 2 4.0999999999999998e-01 -5.6946925079563133e+00 -1.2818005284137728e+01 -4.6730431725351664e+00 0 -2 0
1493 498 2 4.0999999999999998e-01 -1.8989842849925900e+00 -8.3950523989979260e+00 -3.9499518387070509e+00 2 1 1
2196 732 2 4.0999999999999998e-01 -5.2207727592737427e+00 -1.2692525580908587e+01 -8.1377516318357301e-01 0 1 1
2056 686 1 -8.1999999999999995e-01 -2.6937870760395253e+00 -8.0281069069495494e+00 -2.3398724107156585e+00 -1 2 2
1086 362 2 4.0999999999999998e-01 -2.7866503751369329e+00 -1.4076074684837955e+01 -5.8331867064238132e+00 1 2 -2
11 4 2 4.0999999999999998e-01 -2.2195444885658180e+00 -1.1613012998991303e+01 -4.0309949728404320e+00 1 2 -1
10 4 1 -8.1999999999999995e-01 -2.8857135523319464e+00 -1.0979959449895789e+01 -4.4252793328037114e+00 1 2 -1
1393 465 1 -8.1999999999999995e-01 -4.9470795263737397e+00 -9.5536831943606497e+00 -3.2829838319463214e+00 1 0 1
2057 686 2 4.0999999999999998e-01 -3.5673027444485275e+00 -8.4237565655357720e+00 -2.6234732192267707e+00 -1 2 2
1084 362 1 -8.1999999999999995e-01 -1.9660236259948665e+00 -1.4221377382866979e+01 -5.2805050764129451e+00 1 2 -2
1043 348 2 4.0999999999999998e-01 -6.8465982033777220e+00 -1.2589085094063195e+01 -2.6632354059070469e+00 -1 2 -1
1494 498 2 4.0999999999999998e-01 -7.1634397718131027e-01 -8.7304349382568347e+00 -5.0248947460325848e+00 2 1 1
461 154 2 4.0999999999999998e-01 -4.8009548912436237e+00 -1.3481905878160550e+01 -3.4784344937183267e+00 0 -2 0
1085 362 2 4.0999999999999998e-01 -1.4284037668593914e+00 -1.3378604170400077e+01 -5.2541162471906162e+00 1 2 -2
1394 465 2 4.0999999999999998e-01 -4.2296234503303989e+00 -1.0135639868398961e+01 -3.6658433600033078e+00 1 0 1
2185 729 1 -8.1999999999999995e-01 -5.7608492539168825e+00 -1.1607598240844450e+01 -6.3580774034002445e+00 -1 2 2
460 154 1 -8.1999999999999995e-01 -5.6870642127137465e+00 -1.3079151974933085e+01 -3.7077751492687181e+00 0 -2 0
1395 465 2 4.0999999999999998e-01 -5.3238621916166764e+00 -9.9848158834977170e+00 -2.4631316500278029e+00 1 0 1
1710 570 2 4.0999999999999998e-01 -7.1319434410401454e+00 -7.3682498043661671e+00 -3.7286902891992213e+00 0 2 -1
1390 464 1 -8.1999999999999995e-01 -1.1738079958255678e+00 -5.7509813360863582e+00 -1.8417162311640354e+00 0 0 0
1527 509 2 4.0999999999999998e-01 -1.1491669426477429e+01 -1.1210992698152776e+01 -2.0982908592127103e-01 1 2 0
1311 437 2 4.0999999999999998e-01 -2.3974420471935698e+00 -7.7666408732473897e+00 -6.2494846837844076e+00 1 -1 0
965 322 2 4.0999999999999998e-01 -1.2683098762844642e+01 -1.4887454819639563e+01 -6.8949850070241414e+00 -2 0 1
1160 387 2 4.0999999999999998e-01 -1.2929421853795514e+01 -5.3720808057957647e+00 -1.0965984147554266e+00 0 2 1
338 113 2 4.0999999999999998e-01 -4.5431070312775041e+00 -5.9357439138434014e+00 -4.7079341262557026e+00 0 3 2
1310 437 2 4.0999999999999998e-01 -2.1056889013727620e+00 -6.3303732299154589e+00 -6.9696492926034948e+00 1 -1 0
1392 464 2 4.0999999999999998e-01 -2.9036458383935759e-01 -5.9842862636197989e+00 -2.2480346137342071e+00 0 0 0
61 21 1 -8.1999999999999995e-01 -1.4300241611567436e+01 -1.4150566203639276e+01 -6.5949421235005268e-01 1 -1 0
1163 388 2 4.0999999999999998e-01 -2.2040825759489913e+00 -5.7996603331794478e+00 -3.5087520153677918e+00 -2 1 -2
1162 388 1 -8.1999999999999995e-01 -2.6348771203017982e+00 -5.4031744063108462e+00 -4.3194388790481835e+00 -2 1 -2
1674 558 2 4.0999999999999998e-01 -7.1660129822225525e+00 -9.8284486939448676e+00 -4.5119492981551801e-01 -1 0 1
339 113 2 4.0999999999999998e-01 -5.7959556549814604e+00 -5.5584771622949809e+00 -3.7308661107066659e+00 0 3 2
1309 437 1 -8.1999999999999995e-01 -2.5532363497632602e+00 -7.2188196580548967e+00 -7.0714446680051610e+00 1 -1 0
2367 789 2 4.0999999999999998e-01 -1.1249210917828778e+01 -1.3063208809727495e+01 4.2895336389227126e+00 1 1 -2
30 10 2 4.0999999999999998e-01 -9.4646234152819524e+00 -1.1636778450205908e+01 4.9468917918967996e+00 1 0 -1
2366 789 2 4.0999999999999998e-01 -1.0587814509870434e+01 -1.3219335709037898e+01 2.8046766058932668e+00 1 1 -2
2365 789 1 -8.1999999999999995e-01 -1.0400750240579130e+01 -1.3005396361612897e+01 3.7634439765544805e+00 1 1 -2
1138 380 1 -8.1999999999999995e-01 -1.4158656183778211e+01 -1.1414837522557910e+01 3.4302865347122768e+00 -1 1 -1
2376 792 2 4.0999999999999998e-01 -1.3783433207338581e+01 -6.9401099811391926e+00 1.2054909523531379e+00 1 2 -1
1652 551 2 4.0999999999999998e-01 -1.3881132901354128e+01 -1.3995134315787515e+01 2.4948688097412166e+00 1 3 0
1196 399 2 4.0999999999999998e-01 -9.2067119520274616e+00 -8.6894206516245269e+00 6.5682606271760413e-01 -1 2 0
1691 564 2 4.0999999999999998e-01 -5.9209816757288287e+00 -6.0175262308345374e+00 2.6100034842348308e-01 1 3 0
1261 421 1 -8.1999999999999995e-01 -9.3728862952065697e+00 -8.8556222098899209e+00 4.5962324576408697e+00 1 -1 -1
1139 380 2 4.0999999999999998e-01 -1.3518314535338456e+01 -1.1375080043135126e+01 4.1973459322282096e+00 -1 1 -1
22 8 1 -8.1999999999999995e-01 -7.9449636732662352e+00 -6.2237370496715005e+00 6.8610516639228116e+00 -2 -1 -1
28 10 1 -8.1999999999999995e-01 -9.1258920558327610e+00 -1.1701236974166635e+01 5.8855633458608878e+00 1 0 -1
23 8 2 4.0999999999999998e-01 -7.2969722365569627e+00 -6.9391450963740926e+00 6.5997156370288046e+00 -2 -1 -1
728 243 2 4.0999999999999998e-01 -1.1893411456272499e+01 -7.1217419262477986e+00 4.5646365572409202e+00 0 -1 -1
428 143 2 4.0999999999999998e-01 -1.4312371675237523e+01 -5.4008549186371475e+00 6.8942509549053170e+00 1 -1 1
306 102 2 4.0999999999999998e-01 -7.8521632144476534e+00 -8.4656476118611756e+00 3.7422636109776803e+00 0 1 -1
229 77 1 -8.1999999999999995e-01 -1.1737376094818133e+01 -9.2246118791510678e+00 3.4232635308411012e+00 1 -1 -2
1262 421 2 4.0999999999999998e-01 -9.5364868942852610e+00 -9.0378460492832140e+00 5.5657823169191794e+00 1 -1 -1
1263 421 2 4.0999999999999998e-01 -1.0223120361066318e+01 -8.9820165349273253e+00 4.0852287688115325e+00 1 -1 -1
231 77 2 4.0999999999999998e-01 -1.2311208000193927e+01 -9.2366911932445319e+00 2.6043805846740860e+00 1 -1 -2
1880 627 2 4.0999999999999998e-01 -1.2844124988287412e+01 -9.9862753376678324e+00 6.0862017048571282e-01 1 1 -2
1229 410 2 4.0999999999999998e-01 -1.1817681386733746e+01 -1.3468536215983294e+01 1.0103790456316375e+00 2 1 -1
1513 505 1 -8.1999999999999995e-01 -2.3932953594938269e+00 -8.7564875655615406e+00 7.2956378347123376e+00 1 2 -2
1653 551 2 4.0999999999999998e-01 -1.3599357342585851e+01 -1.4186552459496157e+01 8.9781432954730533e-01 1 3 0
1230 410 2 4.0999999999999998e-01 -1.0270991281873446e+01 -1.3875235604367212e+01 6.8027766579824878e-01 2 1 -1
230 77 2 4.0999999999999998e-01 -1.2261497763112001e+01 -9.5679313364882468e+00 4.2026392207726744e+00 1 -1 -2
1228 410 1 -8.1999999999999995e-01 -1.0938237189770149e+01 -1.3130415665879324e+01 6.7534118441949076e-01 2 1 -1
1571 524 2 4.0999999999999998e-01 -1.2296942569298050e+01 -1.2221259162995526e+01 6.3789452872851946e+00 1 1 -1
790 264 1 -8.1999999999999995e-01 -4.1030472320076434e+00 -5.5373725258791779e+00 7.2337867577752455e+00 0 2 0
1197 399 2 4.0999999999999998e-01 -8.1927654138144295e+00 -9.4925411533459787e+00 1.6535863575422027e+00 -1 2 0
1195 399 1 -8.1999999999999995e-01 -8.7279391125355339e+00 -9.5537040703538842e+00 8.1106265975612324e-01 -1 2 0
727 243 1 -8.1999999999999995e-01 -1.2164927712996283e+01 -6.3506008986262845e+00 5.1404999808091816e+00 0 -1 -1
1934 645 2 4.0999999999999998e-01 -1.3947765157529776e+01 -8.6193071012496194e+00 5.6746227332405148e+00 1 0 1
1933 645 1 -8.1999999999999995e-01 -1.4179630481524235e+01 -8.3762769986047019e+00 4.7327240709697200e+00 1 0 1
2364 788 2 4.0999999999999998e-01 -9.0511626219231491e+00 -1.3467346683683873e+01 6.5178619173109347e+00 1 1 -1
1879 627 1 -8.1999999999999995e-01 -1.3396038770771815e+01 -9.5851088828139570e+00 1.3396843441614372e+00 1 1 -2
1130 377 2 4.0999999999999998e-01 -5.1184375970703897e+00 -7.0275179946085080e+00 6.8716183169756100e+00 1 3 -1
2081 694 2 4.0999999999999998e-01 -4.8451182395659398e+00 -1.0480607001392723e+01 4.2841358174100215e+00 -2 1 0
427 143 1 -8.1999999999999995e-01 -1.4740387765899843e+01 -5.6095491028848095e+00 6.0149064502943084e+00 1 -1 1
1881 627 2 4.0999999999999998e-01 -1.4364926300748719e+01 -9.6540364056470480e+00 1.1019783385947832e+00 1 1 -2
1651 551 1 -8.1999999999999995e-01 -1.3205764156545429e+01 -1.4275545515922717e+01 1.8127803752736611e+00 1 3 0
729 243 2 4.0999999999999998e-01 -1.3137320319921889e+01 -6.4257221108502414e+00 5.3614226887841561e+00 0 -1 -1
1570 524 1 -8.1999999999999995e-01 -1.2840175834975087e+01 -1.1735043591028836e+01 5.6944818654929215e+00 1 1 -1
620 207 2 4.0999999999999998e-01 -1.7109602660252925e+00 -1.2966586322942169e+01 7.4320181492123538e+00 0 2 0
2538 846 2 4.0999999999999998e-01 -3.8236721129029636e+00 -1.2198611008021961e+01 2.5494993934489116e+00 3 1 -1
2362 788 1 -8.1999999999999995e-01 -9.1640277459624961e+00 -1.4411233555232824e+01 6.8282442093938158e+00 1 1 -1
1318 440 1 -8.1999999999999995e-01 -1.3397245373340978e+01 -8.8665594157621257e+00 7.3482418820869384e+00 1 -1 0
2375 792 2 4.0999999999999998e-01 -1.3689491679233317e+01 -7.2664734174950460e+00 2.8027646621467817e+00 1 2 -1
983 328 2 4.0999999999999998e-01 -9.9031211237462671e+00 -6.4565064843749216e+00 3.6882868738207009e-01 1 1 -1
2038 680 1 -8.1999999999999995e-01 -2.5185851124141401e+00 -1.1845088430294011e+01 1.2769421006357788e+00 1 1 -2
1572 524 2 4.0999999999999998e-01 -1.3748874437144192e+01 -1.1542997940151789e+01 6.0651347122861097e+00 1 1 -1
791 264 2 4.0999999999999998e-01 -3.8262819520491824e+00 -5.4445022681147552e+00 6.2773483996646355e+00 0 2 0
994 332 1 -8.1999999999999995e-01 -7.0207999730457304e+00 -1.2105330314327794e+01 2.1539979175196322e+00 -1 -1 0