LAMMPS data file via write_data, version 15 May 2015, timestep = 18500000

2593 atoms
6 atom types
1728 bonds
4 bond types
864 angles
3 angle types
0 dihedrals
3 dihedral types
0 impropers
1 improper types

-1.4885044477405755e+01 1.4885044477405755e+01 xlo xhi
-1.4885044477405755e+01 1.4885044477405755e+01 ylo yhi
-1.4885044477405755e+01 1.4885044477405755e+01 zlo zhi

Masses

1 15.9994
2 1.00794
3 12.0107
4 1.00794
5 12.0107
6 12.0107

Bond Coeffs # harmonic

1 1000 1
2 469 1.4
3 367 1.08
4 469 0.7

Angle Coeffs # harmonic

1 100 109.47
2 35 120
3 63 120

Dihedral Coeffs # opls

1 0 7.25 0 0
2 0 7.25 0 0
3 0 7.25 0 0

Improper Coeffs # cvff

1 2.5 -1 2

Atoms # full

1991 664 2 4.0999999999999998e-01 -1.0166498824300678e+01 -1.2111571941275919e+01 -1.1530392847521407e+01 -4 0 -2
1990 664 1 -8.1999999999999995e-01 -1.0768789720904049e+01 -1.2865119435195201e+01 -1.1793878002232802e+01 -4 0 -2
1992 664 2 4.0999999999999998e-01 -1.0643510411254976e+01 -1.3068007046791704e+01 -1.2765039287152703e+01 -4 0 -2
964 322 1 -8.1999999999999995e-01 -1.2957940195732588e+01 -1.1523885404693182e+01 -1.0603902472364425e+01 -3 1 2
965 322 2 4.0999999999999998e-01 -1.2160777153924432e+01 -1.1859203204232530e+01 -1.1106003715831763e+01 -3 1 2
1682 561 2 4.0999999999999998e-01 -1.4770557646932463e+01 -1.4014072764786023e+01 -1.2429421599080410e+01 -2 -3 -2
966 322 2 4.0999999999999998e-01 -1.3788861112992302e+01 -1.1919724992715727e+01 -1.0994919143379663e+01 -3 1 2
519 173 2 4.0999999999999998e-01 -7.7969840300576019e+00 -1.1043273019578050e+01 -1.0455704942862134e+01 4 0 -3
517 173 1 -8.1999999999999995e-01 -8.0105381694354989e+00 -1.0361744913990865e+01 -9.7557573597133960e+00 4 0 -3
773 258 2 4.0999999999999998e-01 -1.1122183791624327e+01 -1.2848643312092914e+01 -8.0284521780537830e+00 -3 -1 1
2175 725 2 4.0999999999999998e-01 -1.1247119930562910e+01 -8.6112783710034400e+00 -1.1840477117491515e+01 2 -1 -1
807 269 2 4.0999999999999998e-01 -1.4371552506562361e+01 -5.1552450609727707e+00 -1.0951991894402154e+01 -1 3 0
2173 725 1 -8.1999999999999995e-01 -1.0992449416285748e+01 -7.8799162203721469e+00 -1.2473142014311259e+01 2 -1 -1
914 305 2 4.0999999999999998e-01 -1.3333878920320615e+01 -9.1931832803446873e+00 -1.0537584561519820e+01 -3 -6 -7
535 179 1 -8.1999999999999995e-01 -1.1092661166182070e+01 -1.3507287238771031e+01 -1.4655957857923601e+01 3 0 0
2018 673 2 4.0999999999999998e-01 -1.0620504003220784e+01 -9.1707563462340680e+00 -8.8196899022017128e+00 1 -5 -8
772 258 1 -8.1999999999999995e-01 -1.0254957380494989e+01 -1.3325195552430854e+01 -7.8841301381526740e+00 -3 -1 1
913 305 1 -8.1999999999999995e-01 -1.3289705194644551e+01 -8.2863350132357567e+00 -1.0118433710462174e+01 -3 -6 -7
915 305 2 4.0999999999999998e-01 -1.2377318912523808e+01 -8.1399051911673510e+00 -9.7361744687236431e+00 -3 -6 -7
1275 425 2 4.0999999999999998e-01 -1.2313501171013968e+01 -8.6807425602251378e+00 -1.3484837330286638e+01 -1 1 -2
2019 673 2 4.0999999999999998e-01 -1.0166842737573450e+01 -7.6031462779238943e+00 -8.7609526894905478e+00 1 -5 -8
2017 673 1 -8.1999999999999995e-01 -1.0741146722110997e+01 -8.2696847686708850e+00 -9.2362567109347999e+00 1 -5 -8
2174 725 2 4.0999999999999998e-01 -1.1187607018342261e+01 -6.9933598328728426e+00 -1.2053685326333440e+01 2 -1 -1
2061 687 2 4.0999999999999998e-01 -1.2990844793458859e+01 -1.1687140121559771e+01 -8.5660134726333865e+00 -3 1 -3
844 282 1 -8.1999999999999995e-01 -1.1074628162887425e+01 -5.2984533026102199e+00 -1.0837514655501938e+01 3 3 2
2444 815 2 4.0999999999999998e-01 -7.8259052447929225e+00 -1.0978598324532513e+01 -8.0354809143215853e+00 4 -4 -1
2379 793 2 4.0999999999999998e-01 -9.2830348670761964e+00 -8.5366445650262293e+00 -1.2561691104686361e+01 6 -3 0
1273 425 1 -8.1999999999999995e-01 -1.3036728325678542e+01 -9.0795746449771926e+00 -1.4048653007695060e+01 -1 1 -2
845 282 2 4.0999999999999998e-01 -1.0966352374419152e+01 -5.6862020369409230e+00 -9.9221241183914479e+00 3 3 2
1252 418 1 -8.1999999999999995e-01 -9.3640535937247122e+00 -6.5067562716538863e+00 -7.6622551026476113e+00 -9 -3 1
2489 830 2 4.0999999999999998e-01 -1.0421874040180104e+01 -7.5681693631333795e+00 -1.4187560407843456e+01 0 3 -1
1253 418 2 4.0999999999999998e-01 -8.8554626475193210e+00 -5.8185192119218243e+00 -8.1796309756376999e+00 -9 -3 1
1058 353 2 4.0999999999999998e-01 -7.9187629117264775e+00 -9.6310821504910766e+00 -1.3859588938320002e+01 5 2 -5
518 173 2 4.0999999999999998e-01 -7.8265912230273544e+00 -9.4466024706296778e+00 -1.0114491731501955e+01 4 0 -3
783 261 2 4.0999999999999998e-01 -1.0748696026288020e+01 -1.4757949310132151e+01 -1.0670789175283016e+01 -4 -2 1
1919 640 2 4.0999999999999998e-01 -7.4502217867193838e+00 -1.2302549889605281e+01 -1.2700077636369485e+01 1 -2 0
2377 793 1 -8.1999999999999995e-01 -8.4110726862748972e+00 -8.9709006486417486e+00 -1.2335602249626129e+01 6 -3 0
1854 618 2 4.0999999999999998e-01 -7.5334017999956933e+00 -1.4347232934821413e+01 -1.4055053460512367e+01 6 -2 -7
1227 409 2 4.0999999999999998e-01 -1.4769321318440486e+01 -9.5096608043686324e+00 -1.3935049796097589e+01 6 0 -1
1683 561 2 4.0999999999999998e-01 -1.3747080162319534e+01 -1.4406693828252662e+01 -1.1219048689799347e+01 -2 -3 -2
774 258 2 4.0999999999999998e-01 -9.5172855845811881e+00 -1.2655721013454508e+01 -7.7966276166911594e+00 -3 -1 1
305 102 2 4.0999999999999998e-01 -1.4604631528163219e+01 -8.0760829418173223e+00 -8.8142495639780698e+00 1 -6 -1
2378 793 2 4.0999999999999998e-01 -7.8482537541647179e+00 -8.3340231123023276e+00 -1.1808692005199436e+01 6 -3 0
873 291 2 4.0999999999999998e-01 -7.8807700994378012e+00 -7.4933861531233674e+00 -9.1449592957636199e+00 3 1 -7
1057 353 1 -8.1999999999999995e-01 -7.7335573303442713e+00 -1.0083693276410040e+01 -1.4731858747616249e+01 5 2 -5
1681 561 1 -8.1999999999999995e-01 -1.4371738546359296e+01 -1.3706796155174835e+01 -1.1565397881051728e+01 -2 -3 -2
1274 425 2 4.0999999999999998e-01 -1.2657172441013017e+01 -9.8206927441856280e+00 -1.4602452466573478e+01 -1 1 -2
2059 687 1 -8.1999999999999995e-01 -1.2555571741185627e+01 -1.1771167854384492e+01 -7.6696378282931486e+00 -3 1 -3
311 104 2 4.0999999999999998e-01 -1.4754310616217211e+01 -7.5328336337205606e+00 -1.1342877029960905e+01 -2 1 0
537 179 2 4.0999999999999998e-01 -1.1345545747345229e+01 -1.2553433542209179e+01 -1.4817899320757107e+01 3 0 0
1905 635 2 4.0999999999999998e-01 -1.3002074066186484e+00 -5.5846395351905844e+00 -1.4591732461529755e+01 4 -1 -5
1492 498 1 -8.1999999999999995e-01 -1.0918570607535241e+00 -1.4337536783812778e+01 -1.0596445847956847e+01 1 2 1
92 31 2 4.0999999999999998e-01 -3.8988688391091113e+00 -9.4667610735905683e+00 -8.7858932154541343e+00 -3 -2 -2
1918 640 1 -8.1999999999999995e-01 -7.3489887339460491e+00 -1.2244146200008350e+01 -1.1706924341550598e+01 1 -2 0
1920 640 2 4.0999999999999998e-01 -7.0860865121243570e+00 -1.3138722922670381e+01 -1.1345500174198847e+01 1 -2 0
1000 334 1 -8.1999999999999995e-01 -6.7493026856477307e+00 -1.4361290338071131e+01 -9.7518258646808800e+00 5 3 5
707 236 2 4.0999999999999998e-01 -7.3692394556222025e+00 -1.1709574425195187e+01 -1.4760757101738660e+01 5 1 -1
1211 404 2 4.0999999999999998e-01 -1.8690143053210644e+00 -9.0948859737802650e+00 -7.9013506489193297e+00 -2 -1 -3
1904 635 2 4.0999999999999998e-01 -2.3978048494996909e+00 -5.4611186194088255e+00 -1.3388951378865441e+01 4 -1 -5
2394 798 2 4.0999999999999998e-01 -4.4927757363530763e+00 -1.0191403950933351e+01 -1.4767467652351986e+01 0 1 0
1901 634 2 4.0999999999999998e-01 -4.5701544587698564e+00 -7.0419911589361774e+00 -1.2947505573685653e+01 2 -2 1
1494 498 2 4.0999999999999998e-01 -5.2988014989001719e-01 -1.3741469925597503e+01 -1.1169942855593568e+01 1 2 1
1425 475 2 4.0999999999999998e-01 -4.3246682318940923e+00 -7.9600216163687767e+00 -1.0252539610875065e+01 -3 0 -3
527 176 2 4.0999999999999998e-01 -5.2786799246307581e-01 -1.1485274457308753e+01 -1.2554918732947380e+01 2 0 -6
2404 802 1 -8.1999999999999995e-01 -2.8222789537226820e+00 -1.4864956533482099e+01 -1.3510019105592399e+01 3 1 -6
2087 696 2 4.0999999999999998e-01 -3.9866910485369065e+00 -1.3615375558543729e+01 -1.4382709227710894e+01 -3 0 -6
91 31 1 -8.1999999999999995e-01 -3.4655141608035471e+00 -9.9332008842255810e+00 -8.0147575605356440e+00 -3 -2 -2
1773 591 2 4.0999999999999998e-01 -2.2324856779935587e-01 -8.1139478961508864e+00 -1.3449394944969413e+01 -1 -2 -6
708 236 2 4.0999999999999998e-01 -6.1812384786667174e+00 -1.2825291708592889e+01 -1.4658343257761059e+01 5 1 -1
706 236 1 -8.1999999999999995e-01 -7.1273591751904197e+00 -1.2615056239971803e+01 -1.4412032017242304e+01 5 1 -1
2229 743 2 4.0999999999999998e-01 -5.4422455711060707e+00 -5.5199987885749309e+00 -1.1177063752398691e+01 1 -6 1
871 291 1 -8.1999999999999995e-01 -7.4082838808667750e+00 -7.5799843658508488e+00 -1.0022039706234182e+01 3 1 -7
1696 566 1 -8.1999999999999995e-01 -1.7551727653259466e+00 -1.2771145139766887e+01 -8.2108168074120691e+00 -1 2 -6
1485 495 2 4.0999999999999998e-01 -2.5425127460653343e+00 -5.2369337126967199e+00 -8.6097634099592213e+00 -1 0 0
1493 498 2 4.0999999999999998e-01 -1.1216163018412875e+00 -1.3973141931993911e+01 -9.6656701733838020e+00 1 2 1
1772 591 2 4.0999999999999998e-01 -1.0645210891201753e+00 -9.1383827468364078e+00 -1.4403047781332919e+01 -1 -2 -6
741 247 2 4.0999999999999998e-01 -3.5333583468808065e+00 -1.2594387442835842e+01 -1.0855092493616457e+01 3 0 1
1902 634 2 4.0999999999999998e-01 -3.4780551596684415e+00 -6.8227638739710450e+00 -1.1753387307299636e+01 2 -2 1
426 142 2 4.0999999999999998e-01 -5.6035284895084967e+00 -1.2811299037113677e+01 -9.4647673764848506e+00 -3 -1 -5
2054 685 2 4.0999999999999998e-01 -5.9317158929860092e+00 -1.0825195883335077e+01 -1.2654611461819943e+01 0 0 -7
1903 635 1 -8.1999999999999995e-01 -1.5453265491679637e+00 -5.0904798632910566e+00 -1.3757624944685809e+01 4 -1 -5
1483 495 1 -8.1999999999999995e-01 -1.7186859913627242e+00 -5.4863967496524086e+00 -9.1187724527012559e+00 -1 0 0
2109 703 2 4.0999999999999998e-01 -5.4361029337276943e+00 -9.0108751783477672e+00 -1.3754838695181668e+01 2 -5 -1
2107 703 1 -8.1999999999999995e-01 -5.1241438241127941e+00 -8.2435209041245834e+00 -1.4315072174699875e+01 2 -5 -1
2053 685 1 -8.1999999999999995e-01 -4.9791476938587600e+00 -1.0532226520118016e+01 -1.2572177818018703e+01 0 0 -7
2055 685 2 4.0999999999999998e-01 -4.4217927057426607e+00 -1.1297394299268843e+01 -1.2249863851891368e+01 0 0 -7
1424 475 2 4.0999999999999998e-01 -4.8621656689009267e+00 -9.3878221973402241e+00 -1.0834898527834842e+01 -3 0 -3
424 142 1 -8.1999999999999995e-01 -5.0751072463123315e+00 -1.1962315619761384e+01 -9.4680355426887441e+00 -3 -1 -5
1423 475 1 -8.1999999999999995e-01 -5.0230960612099835e+00 -8.6694523257209930e+00 -1.0158098206046361e+01 -3 0 -3
1697 566 2 4.0999999999999998e-01 -2.5209647557979480e+00 -1.2128415001203702e+01 -8.1890649604907146e+00 -1 2 -6
1900 634 1 -8.1999999999999995e-01 -4.2673234378202380e+00 -6.4249541497506826e+00 -1.2221164544529008e+01 2 -2 1
1475 492 2 4.0999999999999998e-01 -1.9858587876843785e+00 -8.6723135661272863e+00 -1.0621173856821500e+01 -7 -2 -3
300 100 2 4.0999999999999998e-01 -9.1547985297385459e-01 -9.8895341455816954e+00 -1.2002207957419799e+01 0 5 2
740 247 2 4.0999999999999998e-01 -2.5214962496017908e+00 -1.2853905663776210e+01 -1.2110259933108892e+01 3 0 1
299 100 2 4.0999999999999998e-01 -1.8184319065245997e+00 -1.0909060731139080e+01 -1.1101151334336670e+01 0 5 2
298 100 1 -8.1999999999999995e-01 -1.0916933106205029e+00 -1.0222601379150110e+01 -1.1075910176012369e+01 0 5 2
1474 492 1 -8.1999999999999995e-01 -2.5148661852036334e+00 -7.8296228374823720e+00 -1.0520993786288894e+01 -7 -2 -3
739 247 1 -8.1999999999999995e-01 -3.0835565950169332e+00 -1.2172068816250171e+01 -1.1642072769570554e+01 3 0 1
425 142 2 4.0999999999999998e-01 -5.6937076967667011e+00 -1.1184259561162726e+01 -9.3586060897159609e+00 -3 -1 -5
1771 591 1 -8.1999999999999995e-01 -7.7984593781901346e-01 -8.9446058045900330e+00 -1.3464206433779372e+01 -1 -2 -6
872 291 2 4.0999999999999998e-01 -6.4761775335444955e+00 -7.9076072409137561e+00 -9.8675937320707554e+00 3 1 -7
1476 492 2 4.0999999999999998e-01 -2.1010180826657621e+00 -7.2585695442082727e+00 -9.8120224147384256e+00 -7 -2 -3
575 192 2 4.0999999999999998e-01 -1.1796145097864574e+00 -1.2675433426867883e+01 -1.4763413725905361e+01 -2 -5 -6
526 176 1 -8.1999999999999995e-01 -5.2423332714714910e-01 -1.2378925880645163e+01 -1.3003679742534958e+01 2 0 -6
1946 649 2 4.0999999999999998e-01 -5.8064289976602215e+00 -5.2129979005883609e+00 -1.3727907765650336e+01 -3 -3 -2
1945 649 1 -8.1999999999999995e-01 -6.3648301788732109e+00 -4.9818778568744957e+00 -1.4524641221186601e+01 -3 -3 -2
1484 495 2 4.0999999999999998e-01 -9.2919658290256990e-01 -5.0133846758293750e+00 -8.7276476033798165e+00 -1 0 0
2406 802 2 4.0999999999999998e-01 -1.8256069542216231e+00 -1.4784252328129577e+01 -1.3498006890778964e+01 3 1 -6
1980 660 2 4.0999999999999998e-01 -9.0701701100807561e+00 -9.2716864106939934e+00 -2.8363614304771136e+00 -3 -6 1
1996 666 1 -8.1999999999999995e-01 -1.0863101372146643e+01 -8.3696109130647116e+00 -1.3296079990560621e+00 -1 -4 -1
1997 666 2 4.0999999999999998e-01 -1.0984927056599918e+01 -8.4139788384718788e+00 -3.3804228742291187e-01 -1 -4 -1
1998 666 2 4.0999999999999998e-01 -1.1678930618248621e+01 -8.7297202415772546e+00 -1.7821082004795414e+00 -1 -4 -1
2577 859 2 4.0999999999999998e-01 -1.1854370769099040e+01 -1.0497047423013727e+01 -3.3160675082959923e+00 0 -2 1
1686 562 2 4.0999999999999998e-01 -9.6802392866296785e+00 -1.1606221077436619e+01 -4.4075935620293851e+00 0 -2 -6
1684 562 1 -8.1999999999999995e-01 -9.5842641427631357e+00 -1.2577853688541630e+01 -4.1914191544315038e+00 0 -2 -6
1879 627 1 -8.1999999999999995e-01 -1.4127525365808671e+01 -7.5366602998624783e+00 -3.5785567221898464e+00 5 1 -2
1931 644 2 4.0999999999999998e-01 -7.5795986185840860e+00 -1.2346744152476470e+01 -1.7841392425459546e-01 2 -3 0
2576 859 2 4.0999999999999998e-01 -1.2877910313403177e+01 -1.0594545371077825e+01 -4.5847366100308555e+00 0 -2 1
2307 769 2 4.0999999999999998e-01 -7.9619948830530003e+00 -1.2995669827306513e+01 -6.0223008560100446e+00 -5 1 -3
1685 562 2 4.0999999999999998e-01 -8.7809434747530837e+00 -1.2712479492942975e+01 -3.6112774631527973e+00 0 -2 -6
2575 859 1 -8.1999999999999995e-01 -1.2058463102815505e+01 -1.0144778992079750e+01 -4.2294490782044889e+00 0 -2 1
2271 757 2 4.0999999999999998e-01 -1.3849527805917250e+01 -1.0555808360813593e+01 -1.2629112151364090e+00 -1 6 -9
494 165 2 4.0999999999999998e-01 -9.3316182509058248e+00 -6.6841915127956408e+00 -4.6693746875368287e+00 -4 -2 -5
1196 399 2 4.0999999999999998e-01 -1.2821626308858653e+01 -5.7274555567300247e+00 -7.1084681316202181e+00 1 6 2
1407 469 2 4.0999999999999998e-01 -1.1084548204756523e+01 -1.4303844682681726e+01 -6.5901352885667652e+00 0 -3 -4
820 274 1 -8.1999999999999995e-01 -1.0723330903291902e+01 -9.9328299035401013e+00 -6.4955740137736910e+00 -2 -2 -1
1978 660 1 -8.1999999999999995e-01 -8.8624236876006321e+00 -9.7196431763208331e+00 -3.7059525362791916e+00 -3 -6 1
822 274 2 4.0999999999999998e-01 -1.1056921396346567e+01 -9.8306839703072466e+00 -5.5583994032338584e+00 -2 -2 -1
2568 856 2 4.0999999999999998e-01 -9.5651672009998343e+00 -7.2548884281213919e+00 -1.9736759508945134e+00 -5 4 -6
2305 769 1 -8.1999999999999995e-01 -7.6867322303672427e+00 -1.3937556055158614e+01 -6.2148972432591467e+00 -5 1 -3
1197 399 2 4.0999999999999998e-01 -1.4337709003317244e+01 -5.1473732454296446e+00 -6.9305414279676993e+00 1 6 2
1880 627 2 4.0999999999999998e-01 -1.3820968444249672e+01 -8.2892599503388986e+00 -2.9957796269754464e+00 5 1 -2
1979 660 2 4.0999999999999998e-01 -8.3698856463906175e+00 -9.0831315753402162e+00 -4.2994775058580590e+00 -3 -6 1
1521 507 2 4.0999999999999998e-01 -1.1550257999359074e+01 -7.0631487502984811e+00 -3.4818742894377621e+00 1 0 -7
493 165 1 -8.1999999999999995e-01 -8.4290946358038745e+00 -6.6913495026967649e+00 -5.0999701348005679e+00 -4 -2 -5
495 165 2 4.0999999999999998e-01 -7.9576295601212417e+00 -5.8323940941380279e+00 -4.9001478891265489e+00 -4 -2 -5
1519 507 1 -8.1999999999999995e-01 -1.1025775941719701e+01 -6.6024620882836835e+00 -4.1979042519413756e+00 1 0 -7
184 62 1 -8.1999999999999995e-01 -1.3873112574125187e+01 -1.2206786283252571e+01 -5.2709224611256484e+00 0 2 -11
2189 730 2 4.0999999999999998e-01 -1.1617475536470508e+01 -1.4415915257729507e+01 -1.0787590740914954e+00 5 1 -10
1405 469 1 -8.1999999999999995e-01 -1.1150845748260467e+01 -1.4789436981282833e+01 -5.7184602962349569e+00 0 -3 -4
2445 815 2 4.0999999999999998e-01 -8.8041311792874080e+00 -1.0472914093131195e+01 -6.8296544670378232e+00 4 -4 -1
1520 507 2 4.0999999999999998e-01 -1.1384394665739681e+01 -6.8636177689245361e+00 -5.0941201240707699e+00 1 0 -7
1406 469 2 4.0999999999999998e-01 -1.0498283516195933e+01 -1.4399098010277564e+01 -5.0689908583424597e+00 0 -3 -4
2566 856 1 -8.1999999999999995e-01 -8.6416203852356990e+00 -6.8714850743570395e+00 -1.9649751592823446e+00 -5 4 -6
2567 856 2 4.0999999999999998e-01 -8.6931898567143264e+00 -5.8760692974368300e+00 -2.0456011812211177e+00 -5 4 -6
1374 458 2 4.0999999999999998e-01 -1.3513327114437239e+01 -7.7014560815728350e+00 -6.2827947378216642e+00 4 5 -6
1200 400 2 4.0999999999999998e-01 -1.0649136439017582e+01 -1.1573784100932212e+01 -1.2506382959205151e+00 -1 0 -4
1373 458 2 4.0999999999999998e-01 -1.2022588628281500e+01 -8.2065510723434585e+00 -6.7178094872970036e+00 4 5 -6
1199 400 2 4.0999999999999998e-01 -1.2252342620812527e+01 -1.1846419361293353e+01 -1.3991639738072248e+00 -1 0 -4
1198 400 1 -8.1999999999999995e-01 -1.1492589619606552e+01 -1.1264982929108553e+01 -1.6902302746997329e+00 -1 0 -4
1195 399 1 -8.1999999999999995e-01 -1.3443208374805184e+01 -4.9807986888155842e+00 -7.3454319461723268e+00 1 6 2
185 62 2 4.0999999999999998e-01 -1.3476511805620468e+01 -1.2814920899876467e+01 -4.5832505661762823e+00 0 2 -11
2269 757 1 -8.1999999999999995e-01 -1.4015856154068043e+01 -9.5781421964780389e+00 -1.3914269246164235e+00 -1 6 -9
314 105 2 4.0999999999999998e-01 -1.3675800564926822e+01 -5.9298845210483524e+00 -2.8976110868521214e+00 -2 0 -3
2188 730 1 -8.1999999999999995e-01 -1.0734063127488639e+01 -1.4255340935120453e+01 -6.3851938449898960e-01 5 1 -10
1645 549 1 -8.1999999999999995e-01 -1.3923896116143689e+01 -1.2473337193868350e+01 -9.3865356044159221e-01 4 0 -2
1254 418 2 4.0999999999999998e-01 -8.9410015860854806e+00 -6.6287254784960155e+00 -6.7643892794228027e+00 -9 -3 1
1372 458 1 -8.1999999999999995e-01 -1.2558422379752217e+01 -7.4264530685115924e+00 -6.3947894342966674e+00 4 5 -6
2306 769 2 4.0999999999999998e-01 -8.0193578900570408e+00 -1.4537441931276371e+01 -5.4872231164799921e+00 -5 1 -3
2270 757 2 4.0999999999999998e-01 -1.4024250987890060e+01 -9.1216845716515529e+00 -5.0171432627044865e-01 -1 6 -9
849 283 2 4.0999999999999998e-01 -1.4305517187852836e+01 -1.4667978585613426e+01 -3.2122293912278970e+00 -3 3 -2
2443 815 1 -8.1999999999999995e-01 -8.0935122234229553e+00 -1.1129011874075582e+01 -7.0837588934326705e+00 4 -4 -1
1647 549 2 4.0999999999999998e-01 -1.4307890636950038e+01 -1.2949774605117137e+01 -1.7295822342715415e+00 4 0 -2
821 274 2 4.0999999999999998e-01 -1.1310515897541880e+01 -1.0573412996298668e+01 -6.9904271214834282e+00 -2 -2 -1
932 311 2 4.0999999999999998e-01 -8.3667718379530065e+00 -8.0844729641142585e+00 -6.2618375220721489e-01 0 -3 0
1646 549 2 4.0999999999999998e-01 -1.4286888175950621e+01 -1.2876085426773979e+01 -9.8389790748351302e-02 4 0 -2
2060 687 2 4.0999999999999998e-01 -1.3255999749253995e+01 -1.1920174454267354e+01 -6.9716334113118954e+00 -3 1 -3
186 62 2 4.0999999999999998e-01 -1.4856414541892491e+01 -1.2375943873385268e+01 -5.3381197403728180e+00 0 2 -11
2190 730 2 4.0999999999999998e-01 -1.0018505564039337e+01 -1.4741838004989996e+01 -1.1398282403605027e+00 5 1 -10
189 63 2 4.0999999999999998e-01 -1.0944486761260935e+01 -5.4778415397934594e+00 -2.4017909265767301e-02 3 -4 -3
1961 654 2 4.0999999999999998e-01 -9.9755125312981541e-01 -8.7945253652947208e+00 -1.1754895832808003e+00 2 0 -3
2370 790 2 4.0999999999999998e-01 -6.7737859248743000e+00 -7.5616113524530855e+00 -2.5904331119347095e+00 -4 -2 -7
201 67 2 4.0999999999999998e-01 -6.8004200433075042e+00 -7.3937408101233570e+00 -5.8610869468362612e+00 4 -1 0
439 147 1 -8.1999999999999995e-01 -4.4825928144604514e+00 -1.3949897677927581e+01 -8.7042225636680470e-01 0 -3 -2
2142 714 2 4.0999999999999998e-01 -5.1290121755236893e+00 -9.0977432081469232e+00 -1.7385189828327654e+00 0 -1 1
289 97 1 -8.1999999999999995e-01 -7.1796832948232243e+00 -1.2487968527935479e+01 -3.1267883300195720e+00 2 5 -8
1212 404 2 4.0999999999999998e-01 -1.1482533399801369e+00 -9.2894844482787597e+00 -6.4490093973103750e+00 -2 -1 -3
2166 722 2 4.0999999999999998e-01 -4.2434721482521560e+00 -5.6067212836387448e+00 -3.7552787738521864e-01 -1 -3 -1
61 21 1 -8.1999999999999995e-01 -5.3439028580153369e-01 -5.5849158027039199e+00 -3.8027972314418079e-01 4 -4 -2
2141 714 2 4.0999999999999998e-01 -4.5256521270040970e+00 -9.8161106204390229e+00 -4.0189456099909826e-01 0 -1 1
1850 617 2 4.0999999999999998e-01 -8.0058723268518150e-02 -5.6881967697254616e+00 -6.6246987304455782e+00 -3 -3 -3
93 31 2 4.0999999999999998e-01 -4.1692487410691044e+00 -1.0347941744115161e+01 -7.4379038633154924e+00 -3 -2 -2
1917 639 2 4.0999999999999998e-01 -6.4998915659616987e+00 -1.0478851421671763e+01 -6.2921804250262685e+00 -3 -1 2
723 241 2 4.0999999999999998e-01 -1.6084060106175055e+00 -1.3701994319948739e+01 -5.1679529989564443e+00 -2 0 -4
200 67 2 4.0999999999999998e-01 -5.8502356936580302e+00 -8.4715349449106121e+00 -6.6370827200755045e+00 4 -1 0
462 154 2 4.0999999999999998e-01 -1.2562419870936097e+00 -1.0388730148419903e+01 -4.0990228135663997e+00 4 0 1
291 97 2 4.0999999999999998e-01 -7.3062516370123847e+00 -1.1544643709183203e+01 -3.4335966718486066e+00 2 5 -8
1851 617 2 4.0999999999999998e-01 -3.5176946030069978e-01 -7.2639898994304595e+00 -6.9559224708898615e+00 -3 -3 -3
1698 566 2 4.0999999999999998e-01 -1.7831115073104087e+00 -1.3350595645686655e+01 -7.3962806027017383e+00 -1 2 -6
1745 582 2 4.0999999999999998e-01 -8.1105357723143534e-01 -1.1212523038037091e+01 -1.1274644347587763e+00 3 -2 -4
1523 508 2 4.0999999999999998e-01 -3.4119604356660691e+00 -5.8858151518227579e+00 -5.3501884086994682e+00 -4 -3 -4
62 21 2 4.0999999999999998e-01 -1.1044850677853226e+00 -5.0914710909038750e+00 -1.0371791111117261e+00 4 -4 -2
2319 773 2 4.0999999999999998e-01 -4.8243732480403754e+00 -1.3657435616297226e+01 -4.7530880652997158e+00 1 1 -2
1744 582 1 -8.1999999999999995e-01 -6.3880759463728332e-01 -1.0780432485683260e+01 -2.0126998151575108e+00 3 -2 -4
2318 773 2 4.0999999999999998e-01 -4.1268826451373890e+00 -1.2366766274832594e+01 -4.0359134843747722e+00 1 1 -2
906 302 2 4.0999999999999998e-01 -3.4898993619701422e+00 -5.9193520213425295e+00 -3.0854170331043722e+00 10 1 -2
290 97 2 4.0999999999999998e-01 -6.2787729322370822e+00 -1.2813717228274115e+01 -3.4136000351109743e+00 2 5 -8
1915 639 1 -8.1999999999999995e-01 -5.5644193201493017e+00 -1.0420256329031780e+01 -5.9436538013253841e+00 -3 -1 2
460 154 1 -8.1999999999999995e-01 -1.5755341089023318e+00 -1.0210674718060629e+01 -5.0298081579936262e+00 4 0 1
904 302 1 -8.1999999999999995e-01 -2.6061750692257917e+00 -5.9987168965669930e+00 -3.5466601680003098e+00 10 1 -2
2140 714 1 -8.1999999999999995e-01 -4.6182184854411545e+00 -9.8859091612224397e+00 -1.3951579554748488e+00 0 -1 1
199 67 1 -8.1999999999999995e-01 -6.0203368812031073e+00 -7.4990525930337109e+00 -6.4778464084334821e+00 4 -1 0
90 30 2 4.0999999999999998e-01 -4.0400610770911509e+00 -7.8785071699067197e+00 -3.7662300150420940e+00 0 -1 -3
440 147 2 4.0999999999999998e-01 -4.1927177383263867e+00 -1.3192297870058404e+01 -1.4552534227894913e+00 0 -3 -2
89 30 2 4.0999999999999998e-01 -4.3691870674624518e+00 -9.1452639460730829e+00 -4.7427868318253328e+00 0 -1 -3
88 30 1 -8.1999999999999995e-01 -3.6400984946105375e+00 -8.6247206179846234e+00 -4.2984029006431719e+00 0 -1 -3
2368 790 1 -8.1999999999999995e-01 -5.7742300809108382e+00 -7.5557055593017983e+00 -2.6198598581107824e+00 -4 -2 -7
905 302 2 4.0999999999999998e-01 -2.3406627423102879e+00 -6.9616225940658065e+00 -3.5949144266873994e+00 10 1 -2
2369 790 2 4.0999999999999998e-01 -5.4255763169130002e+00 -6.8816139346308685e+00 -1.9686659007412999e+00 -4 -2 -7
721 241 1 -8.1999999999999995e-01 -1.7904092202396402e+00 -1.4185652133017564e+01 -6.0240853115357815e+00 -2 0 -4
1524 508 2 4.0999999999999998e-01 -4.7417654338805786e+00 -6.2212384866446602e+00 -6.2366249757584740e+00 -4 -3 -4
1522 508 1 -8.1999999999999995e-01 -4.0600199728661934e+00 -5.5225765643424527e+00 -6.0195829990581515e+00 -4 -3 -4
461 154 2 4.0999999999999998e-01 -2.2465703355063802e+00 -9.4693718902987527e+00 -5.0159143408600677e+00 4 0 1
2317 773 1 -8.1999999999999995e-01 -4.7268815821579615e+00 -1.2662536626146887e+01 -4.7792395950702016e+00 1 1 -2
1213 405 1 -8.1999999999999995e-01 -3.4571196511648363e+00 -1.2052686739490564e+01 -2.3807123350318680e+00 -3 -7 -3
1916 639 2 4.0999999999999998e-01 -5.3411975221243981e+00 -1.1258166040529858e+01 -5.4455655414543394e+00 -3 -1 2
713 238 2 4.0999999999999998e-01 -4.3266085647087262e+00 -1.4186480142127332e+01 -6.7712960086499869e+00 3 5 -4
1215 405 2 4.0999999999999998e-01 -3.9134395582456989e+00 -1.1241368786894290e+01 -2.0152703081024921e+00 -3 -7 -3
1960 654 1 -8.1999999999999995e-01 -1.0397577486978555e+00 -8.4204574089764517e+00 -2.4904240338596395e-01 2 0 -3
2164 722 1 -8.1999999999999995e-01 -4.4268827535411610e+00 -5.5371030007253470e+00 -1.3561023975988995e+00 -1 -3 -1
1214 405 2 4.0999999999999998e-01 -2.4904545372531430e+00 -1.1849583319577366e+01 -2.5366613228843455e+00 -3 -7 -3
63 21 2 4.0999999999999998e-01 -5.9493800306012901e-01 -6.5671162424266107e+00 -5.5812465287652202e-01 4 -4 -2
1210 404 1 -8.1999999999999995e-01 -1.1146566237729694e+00 -8.7948368043856782e+00 -7.3174606056779083e+00 -2 -1 -3
441 147 2 4.0999999999999998e-01 -3.9981019247992293e+00 -1.4782486745761322e+01 -1.1388930080332660e+00 0 -3 -2
1602 534 2 4.0999999999999998e-01 -1.0885988840381721e+01 -1.4483254941984384e+01 1.1615043804908094e+00 3 0 -2
507 169 2 4.0999999999999998e-01 -1.4068836633660750e+01 -1.0687493625177101e+01 1.6132402715769576e+00 0 -3 -4
202 68 1 -8.1999999999999995e-01 -8.2766898760564516e+00 -1.4117147326552896e+01 2.7287863489890274e+00 3 0 -9
1600 534 1 -8.1999999999999995e-01 -1.1183551701389870e+01 -1.4205381443585559e+01 2.0748801245284110e+00 3 0 -2
203 68 2 4.0999999999999998e-01 -7.7250797320784654e+00 -1.4344746484465539e+01 1.9263292438541750e+00 3 0 -9
1601 534 2 4.0999999999999998e-01 -1.1513600771101832e+01 -1.3261876329242229e+01 2.0452449922095308e+00 3 0 -2
2437 813 1 -8.1999999999999995e-01 -8.3414837361969063e+00 -1.1020554411762880e+01 2.5044789949845612e+00 5 -1 -4
2439 813 2 4.0999999999999998e-01 -8.5271876378376863e+00 -1.1317761724132009e+01 1.5678924119297637e+00 5 -1 -4
1933 645 1 -8.1999999999999995e-01 -1.2869423294481699e+01 -8.3652186153241495e+00 6.8041608314869624e+00 -1 -4 4
1308 436 2 4.0999999999999998e-01 -7.7780719589594014e+00 -7.7188619134973928e+00 3.4947376369886864e+00 3 0 -6
1420 474 1 -8.1999999999999995e-01 -1.1338129153844740e+01 -9.1451560704333819e+00 1.5823802555125877e+00 -4 5 -3
1882 628 1 -8.1999999999999995e-01 -1.2582338214176129e+01 -1.2275155318014448e+01 4.3677894700966444e+00 4 -4 -6
1306 436 1 -8.1999999999999995e-01 -8.6189025202294438e+00 -8.1553523028515702e+00 3.1745927556398552e+00 3 0 -6
1884 628 2 4.0999999999999998e-01 -1.2419488560045391e+01 -1.1794621536220411e+01 5.2295202009699135e+00 4 -4 -6
1307 436 2 4.0999999999999998e-01 -8.4480764630856928e+00 -9.1266595016857934e+00 3.0090835234619586e+00 3 0 -6
1883 628 2 4.0999999999999998e-01 -1.2254505958263648e+01 -1.3216807908112603e+01 4.4441371018269056e+00 4 -4 -6
1100 367 2 4.0999999999999998e-01 -1.1125184183083471e+01 -7.8329510883996312e+00 5.3081823802932835e+00 2 1 -4
1099 367 1 -8.1999999999999995e-01 -1.0928591857125188e+01 -8.2755388534054930e+00 4.4332651960928029e+00 2 1 -4
235 79 1 -8.1999999999999995e-01 -1.3007880260405024e+01 -6.7287189744663500e+00 3.8292706984520333e+00 1 1 -2
116 39 2 4.0999999999999998e-01 -7.9472160248224117e+00 -1.3896941757651089e+01 5.9775198989743732e+00 4 -4 -2
2438 813 2 4.0999999999999998e-01 -8.3550698731218063e+00 -1.1812848716600735e+01 3.1144771034381034e+00 5 -1 -4
1421 474 2 4.0999999999999998e-01 -1.1496359404287913e+01 -8.6163903189922948e+00 2.4162762376913580e+00 -4 5 -3
1101 367 2 4.0999999999999998e-01 -9.9434535921575993e+00 -8.2540994644238239e+00 4.2628083482172610e+00 2 1 -4
1666 556 1 -8.1999999999999995e-01 -7.9378388173772585e+00 -8.5247602700940668e+00 6.7602199707763564e+00 2 5 -1
237 79 2 4.0999999999999998e-01 -1.2278013866803873e+01 -7.4102164987353314e+00 3.8828309938442143e+00 1 1 -2
474 158 2 4.0999999999999998e-01 -7.9653394467731191e+00 -1.0375481728123344e+01 6.3338319651652331e+00 -1 -1 -2
472 158 1 -8.1999999999999995e-01 -7.7691986458370152e+00 -1.1355789705137337e+01 6.3106437266776521e+00 -1 -1 -2
1732 578 1 -8.1999999999999995e-01 -1.4478258225966707e+01 -1.0320268516459384e+01 6.6093998996228169e+00 1 -2 -2
1667 556 2 4.0999999999999998e-01 -7.7754515171030274e+00 -7.6634799439700378e+00 6.2787232565297568e+00 2 5 -1
2181 727 2 4.0999999999999998e-01 -1.0975389167431276e+01 -6.2844395223757097e+00 6.8687937196093163e+00 3 0 -4
1334 445 2 4.0999999999999998e-01 -1.4048974441306878e+01 -1.1839018573100429e+01 4.0553920348886461e+00 2 -5 -5
506 169 2 4.0999999999999998e-01 -1.2912877695026989e+01 -9.5624096436151476e+00 1.3590652952239690e+00 0 -3 -4
1668 556 2 4.0999999999999998e-01 -8.9032620685475514e+00 -8.5883984791074450e+00 7.0130454126941846e+00 2 5 -1
505 169 1 -8.1999999999999995e-01 -1.3887804128211712e+01 -9.7077446658296935e+00 1.5276146178405785e+00 0 -3 -4