2593
Atoms. Timestep: 18495000
O -7.81365 -12.0463 3.50887
H -8.25258 -12.6443 2.8382
H -7.66676 -11.1435 3.10475
O 14.1064 -2.39593 4.28103
H 14.0565 -2.14019 3.31556
H 13.2386 -2.1797 4.72846
O 6.1614 12.7664 0.580898
H 6.59925 12.2822 1.33845
H 6.72371 13.55 0.316725
O 4.8098 6.56368 -3.56969
H 4.59292 5.71829 -3.08152
H 5.6197 6.42155 -4.13879
O -2.96097 10.8658 -3.90624
H -2.22876 10.6922 -4.56483
H -2.57421 10.926 -2.98601
O 2.53076 3.68224 6.94384
H 2.44158 2.75863 7.31668
H 1.62284 4.0485 6.73999
O 13.7177 -5.87786 -13.8324
H 14.2862 -6.55168 -13.3605
H 13.8753 -5.94046 -14.818
O -6.50245 11.0191 -6.80322
H -6.75748 10.061 -6.93381
H -5.77895 11.2625 -7.44924
O -5.01655 9.1761 -8.11026
H -4.96243 8.42499 -7.4523
H -4.96858 8.80943 -9.03938
O -7.54536 3.30932 -14.0989
H -6.9162 3.67441 -13.4127
H -8.47983 3.58645 -13.8753
O -9.83446 4.63565 13.3598
H -10.0367 4.81407 14.3227
H -8.93656 5.01261 13.1324
O -2.70957 -10.8288 8.63829
H -2.88156 -10.0064 8.09604
H -3.38747 -10.893 9.37065
O 3.29603 -6.03308 8.15786
H 2.77984 -5.18287 8.05434
H 2.67408 -6.81225 8.07972
O 11.1092 9.63263 -0.930755
H 11.5306 9.67831 -1.83648
H 10.6206 10.4856 -0.747024
O 8.0553 -2.73562 -9.26607
H 8.26488 -2.3136 -10.1481
H 7.32301 -2.22352 -8.81716
O -4.1727 -13.5099 9.95523
H -4.85433 -12.9632 10.4415
H -4.51133 -13.7276 9.03982
O 14.742 10.1706 8.42368
H 14.894 11.157 8.487
H 14.5957 9.91661 7.46759
O -10.8159 13.3999 14.1548
H -10.0168 12.8031 14.0823
H -10.8685 13.7756 -14.7195
O 3.13585 7.3577 4.57846
H 3.85768 6.75145 4.24463
H 3.32659 8.29509 4.28702
O -12.5298 9.87112 -5.72464
H -12.2957 9.72365 -6.6856
H -12.5493 8.9924 -5.24767
O -0.856704 -5.06323 1.29241
H -0.72699 -4.56369 0.435873
H -0.522269 -5.99964 1.18608
O 3.92369 -7.95386 14.5658
H 4.07843 -8.68276 -14.5668
H 4.7994 -7.66408 14.1795
O 4.18134 8.52045 -11.6005
H 3.31147 8.06782 -11.4043
H 4.74719 8.52676 -10.776
O 4.10559 -14.459 -13.1126
H 4.30504 -13.5673 -13.519
H 4.78903 -14.6667 -12.4128
O -13.7081 -13.9001 -5.43223
H -14.4015 -13.9519 -6.15092
H -12.8232 -13.6723 -5.83859
O -13.8266 9.18501 10.6614
H -13.6894 9.96607 11.2706
H -13.8846 9.50584 9.71601
O -10.6027 8.23301 14.3208
H -10.6351 8.27384 -14.4801
H -11.422 7.77246 13.9792
O 6.10354 1.19314 9.05306
H 5.34014 1.32543 8.4208
H 5.8406 0.53702 9.76044
O 0.781813 -4.48441 7.15456
H 1.06714 -5.02272 6.36157
H 1.21654 -3.58449 7.12041
O -6.75843 -10.2186 -2.85783
H -6.27048 -10.0663 -3.71733
H -6.43868 -9.56419 -2.17257
O -4.01868 -10.4125 -5.19048
H -4.53525 -9.88987 -5.86876
H -4.22073 -11.3862 -5.29544
O -14.1377 0.973156 -1.05176
H -13.3288 0.385702 -1.02693
H -14.8552 0.529867 -1.58906
O -11.3298 -1.61208 1.64056
H -12.0525 -0.948003 1.44906
H -11.7133 -2.53553 1.6261
O 0.873837 1.21345 14.0938
H 1.82135 1.15664 14.4085
H 0.461453 0.302607 14.1118
O 1.57515 -7.90048 12.5037
H 2.36525 -7.81151 13.1102
H 0.747442 -8.02563 13.0507
O -12.4428 -0.575625 -14.1328
H -13.2792 -0.515626 -14.6776
H -12.6098 -1.14405 -13.3272
O -12.8626 14.8958 -2.89361
H -13.3973 14.0761 -3.09872
H -12.877 -14.2901 -3.68314
O -14.0073 -2.55937 -0.937823
H -13.7367 -3.06156 -0.116481
H -13.2159 -2.07126 -1.30592
O -9.56194 -14.5761 4.0452
H -9.57244 -14.0091 4.86891
H -9.66996 -13.9945 3.23889
O -12.1804 13.5807 -12.5005
H -12.813 13.7829 -11.7529
H -11.3116 14.0483 -12.3376
O 4.53478 13.8089 11.9438
H 4.63397 13.0042 12.5292
H 3.89135 14.4491 12.3635
O -13.8425 -10.9942 8.70514
H -13.8245 -11.0128 9.70482
H -14.4391 -10.2534 8.39634
O 3.91725 -7.03567 -5.56156
H 4.158 -7.05531 -6.53196
H 3.81004 -7.97149 -5.22574
O 7.14165 3.68195 0.146935
H 7.75183 3.68581 0.939196
H 6.70837 4.57857 0.0555461
O -8.33438 4.219 0.718248
H -8.90959 4.07763 -0.08746
H -8.50934 5.12764 1.09743
O 14.6229 -14.7575 10.3698
H -14.2232 -14.4688 10.4576
H 14.0581 -14.2432 11.0152
O 9.93906 2.57975 -10.8772
H 9.51774 1.90529 -11.4835
H 9.24312 2.96246 -10.2696
O -13.6744 -2.27031 -12.2841
H -13.0618 -3.02843 -12.0603
H -13.7853 -1.68353 -11.482
O 11.4594 -4.94271 3.73908
H 11.7948 -5.6255 4.38816
H 12.2164 -4.62583 3.16765
O -1.47575 -5.76028 7.62327
H -0.791851 -5.22113 7.13172
H -1.11903 -6.01037 8.52339
O -11.7173 2.75048 1.24742
H -11.1411 3.56303 1.15925
H -11.7752 2.48574 2.21002
O 10.2864 14.4664 10.114
H 10.762 -14.4782 9.90657
H 9.30519 14.6419 10.1942
O -1.19728 5.76209 -1.26645
H -1.35061 6.56595 -0.691713
H -1.8119 5.02651 -0.98154
O 13.3392 11.7831 -5.08132
H 13.9789 12.1203 -4.39055
H 12.48 12.2905 -5.01589
O -4.21684 14.074 14.6211
H -3.33147 13.6595 14.8317
H -4.56842 13.6928 13.7661
O 2.44657 -12.3645 -2.30872
H 1.70512 -11.746 -2.56905
H 2.58729 -13.0396 -3.03294
O 4.87953 10.4754 8.83217
H 4.29029 10.5746 8.03032
H 5.67094 11.0799 8.74109
O -3.40356 9.04769 0.0141212
H -3.36831 8.58728 -0.872899
H -4.31737 8.94472 0.407027
O 4.72046 -7.91119 1.06815
H 5.57215 -8.05843 0.565188
H 4.63447 -8.60087 1.78716
O 6.42463 12.9078 7.79068
H 6.83894 12.1102 7.35222
H 5.82884 13.3753 7.13758
O 10.4219 13.9395 4.67575
H 11.2432 14.2314 4.18563
H 10.6464 13.7802 5.63713
O -14.5121 -11.1224 -5.26544
H -14.6621 -12.1013 -5.40404
H 14.5241 -10.7385 -4.74588
O -12.6333 -3.9849 1.16
H -13.448 -4.30919 1.64068
H -12.4196 -4.60848 0.407984
O -10.2757 9.63965 -3.15713
H -10.0308 8.7176 -3.45693
H -9.69432 9.90552 -2.38812
O 11.781 -12.5241 12.3342
H 11.9345 -12.7968 11.3845
H 10.881 -12.8432 12.6313
O -11.519 0.339248 6.10898
H -11.6494 0.747079 7.0127
H -12.2323 -0.342136 5.94473
O -6.8586 -6.78529 -6.7415
H -6.49076 -7.59213 -7.20381
H -7.09163 -7.01926 -5.79759
O -9.336 -13.3022 1.68124
H -9.14959 -14.0045 0.994188
H -10.0722 -12.7072 1.35851
O 6.23514 0.252772 14.0806
H 7.16561 0.608751 14.1674
H 5.90455 -0.0383975 -14.8212
O -11.1301 -2.49644 11.6493
H -11.0461 -2.63219 12.6365
H -10.2253 -2.32956 11.2576
O 3.25796 -11.4518 6.92118
H 3.14851 -12.3931 7.24054
H 2.4516 -11.1826 6.39456
O -13.4144 -10.4603 11.8127
H -13.7776 -11.2943 12.228
H -12.7961 -10.0094 12.4565
O -7.11984 -4.73649 10.6927
H -7.93128 -4.86163 11.2636
H -7.33681 -4.97938 9.74719
O -11.5845 -0.990576 -1.6079
H -11.3872 -0.85555 -2.57891
H -10.8313 -0.625319 -1.0608
O -3.78139 1.90798 -2.60028
H -2.90694 1.67268 -3.02452
H -3.62823 2.56846 -1.86521
O 3.40956 1.69136 10.5506
H 2.6504 1.20975 10.1127
H 3.05044 2.33532 11.2262
O -12.4986 11.1083 0.376677
H -12.6185 11.0111 -0.611344
H -11.7385 11.7316 0.560443
O 12.1527 3.1323 8.62568
H 11.6934 2.30529 8.30144
H 13.1334 2.95672 8.71235
O -14.3671 -5.1782 6.35288
H -14.6706 -4.37019 6.85788
H -14.711 -5.13373 5.41495
O -8.76363 -0.487719 5.82409
H -9.70977 -0.199973 5.67556
H -8.18966 0.317652 5.97224
O -14.7142 -0.141161 11.0416
H -14.3037 0.453688 11.7328
H -14.0107 -0.435494 10.3948
O 8.72121 5.10169 5.43213
H 9.05429 5.47613 6.2975
H 8.54091 4.12393 5.53943
O -11.3335 9.82344 12.0239
H -11.1331 9.47242 12.9386
H -11.665 9.07773 11.4459
O -6.48064 12.5438 -10.9751
H -6.80693 11.6266 -11.204
H -5.75609 12.4782 -10.289
O 3.86917 5.91084 8.48104
H 3.23136 6.55339 8.05635
H 3.85553 5.04639 7.97849
O -5.86016 -1.93552 8.40909
H -6.37869 -2.20876 7.59885
H -5.03333 -1.44879 8.12717
O -1.09261 -10.8904 -0.235736
H -0.271595 -11.2386 0.216772
H -1.58786 -10.2877 0.389927
O 8.67952 11.189 1.36834
H 9.49256 11.5585 0.9184
H 8.74361 11.3459 2.35387
O 10.7781 -8.20807 0.0588664
H 10.8547 -8.94288 -0.615078
H 10.6812 -8.60262 0.972624
O -0.223271 1.72347 9.18434
H 0.519307 1.05567 9.13301
H -0.681438 1.78131 8.29735
O 2.4029 4.3869 -6.74326
H 2.20513 3.50531 -7.17187
H 2.89405 4.96961 -7.39075
O 0.247611 14.1551 13.8096
H 1.16932 13.9204 14.1184
H 0.160829 -14.6502 13.745
O -2.57194 -0.344457 -10.3043
H -2.78168 -0.861549 -11.1342
H -2.73179 -0.920982 -9.50302
O 14.5499 2.05121 8.87245
H 14.0406 1.19161 8.83096
H -14.2827 1.87507 8.68737
O 12.8265 9.15355 -6.18696
H 11.9307 8.9782 -6.59545
H 12.747 9.88642 -5.51123
O 9.0194 5.54401 8.28922
H 8.53021 4.75346 8.65766
H 8.43973 6.35603 8.35721
O -8.757 -11.5429 -1.38977
H -7.77472 -11.6891 -1.50705
H -9.04023 -10.7424 -1.91807
O 14.389 -12.4767 1.5426
H 14.4384 -13.1503 0.805127
H -14.8977 -12.8103 2.33363
O 3.65048 11.3781 -5.47124
H 3.73949 11.8594 -6.3433
H 4.46352 10.8171 -5.31568
O -2.44491 -11.3888 -9.57701
H -2.92091 -12.2607 -9.46199
H -2.74691 -10.9535 -10.4252
O -13.1601 6.82452 -5.22214
H -12.4941 6.07902 -5.2487
H -13.3495 7.13563 -6.15346
O 13.8337 -8.66035 -7.90877
H 14.6027 -9.29119 -8.01224
H 13.9674 -8.10346 -7.089
O 2.8428 -14.6193 -4.25726
H 2.72331 -14.7225 -5.24473
H 1.99139 -14.8606 -3.79149
O 14.7136 -8.61264 -11.8337
H 14.7949 -9.44448 -11.2846
H 14.0256 -8.74963 -12.5464
O 14.7533 -4.29118 -2.78431
H -14.6645 -5.12475 -2.38498
H -14.7871 -3.50433 -2.22416
O 0.00236863 5.36006 -13.31
H 0.0764652 4.71978 -14.0746
H -0.933424 5.35145 -12.9575
O 7.51978 -10.5012 2.01538
H 8.43088 -10.6936 2.37996
H 7.4871 -10.7553 1.04873
O -0.138799 -14.0424 10.6054
H -0.951258 -14.5029 10.2479
H -0.119054 -14.1269 11.6017
O -12.3086 -4.21959 9.50295
H -11.899 -3.78864 10.307
H -11.8245 -3.91949 8.68099
O 0.695212 13.0254 6.84897
H 0.706466 12.0485 6.63561
H 1.2688 13.1984 7.64967
O -7.2124 -14.7823 12.4391
H -7.45394 14.0587 12.2876
H -7.52374 -14.4995 13.3463
O -5.3121 3.18969 2.48751
H -5.60174 4.08835 2.81696
H -5.37558 2.52531 3.23221
O 3.40219 6.21772 -8.4791
H 3.25587 6.89971 -7.7625
H 2.636 6.23945 -9.12136
O 7.55292 -10.6608 8.43456
H 8.27321 -10.274 9.01038
H 7.01226 -9.92065 8.03475
O 6.42813 -12.8792 7.26748
H 6.42773 -13.6387 7.91797
H 6.4434 -12.0128 7.76667
O 14.3055 -9.12674 12.5348
H -14.8241 -9.58049 11.9471
H 14.7676 -8.44602 13.1032
O -6.41268 -4.06192 -2.06299
H -6.23825 -4.28013 -3.02319
H -6.43217 -3.06908 -1.94502
O 8.15755 1.26899 -12.7442
H 7.56683 2.01345 -13.0554
H 7.62195 0.42791 -12.6685
O 9.92967 -3.45592 6.6889
H 9.17907 -2.798 6.62754
H 9.56676 -4.38418 6.60729
O 7.51683 2.33016 12.2266
H 7.44475 1.65868 11.4891
H 8.05455 1.94502 12.9766
O 12.0715 11.4506 3.8397
H 11.5233 12.2862 3.87632
H 11.5049 10.6686 4.09934
O 2.21697 -6.82333 3.36983
H 2.10352 -5.83125 3.31572
H 3.05669 -7.03604 3.86947
O 1.85123 -1.56738 6.38854
H 2.66223 -2.00723 6.00274
H 1.39984 -1.02222 5.68209
O -5.49018 -7.42745 11.4204
H -6.12186 -7.4575 10.6457
H -4.54898 -7.4153 11.0827
O 13.9489 -1.75663 1.51344
H 14.7162 -1.14787 1.31175
H 13.121 -1.21381 1.65511
O 7.32433 12.7612 -13.2541
H 7.34577 12.1432 -14.04
H 7.33632 13.7084 -13.5745
O -8.48991 9.17481 5.08486
H -7.68777 8.6163 4.87354
H -8.41622 9.52401 6.01901
O -4.5036 -6.78923 3.60594
H -4.26434 -5.96426 4.118
H -3.92859 -7.54878 3.91003
O -7.8986 7.84977 13.5215
H -8.86113 7.96749 13.7659
H -7.76465 6.94291 13.122
O -11.841 6.0825 4.97184
H -12.3562 5.23115 5.07085
H -12.4694 6.82866 4.75173
O 11.7241 7.80983 -13.7463
H 11.304 8.62754 -14.1398
H 11.0412 7.08215 -13.6822
O -1.27875 7.24684 -8.05833
H -0.579853 7.3889 -8.75932
H -1.55631 8.13016 -7.68056
O -8.24681 10.5268 1.84364
H -9.16832 10.2548 2.12083
H -7.85856 11.1389 2.53255
O -0.644509 2.23629 -6.13966
H -1.44759 1.87067 -5.66913
H -0.529107 3.2007 -5.90172
O -9.11883 12.6406 4.42866
H -8.15527 12.4413 4.60724
H -9.26372 13.6298 4.44773
O 4.33255 12.6954 -7.70962
H 4.89541 12.1373 -8.31935
H 4.76299 13.5892 -7.58369
O 6.44802 0.543151 -9.68383
H 7.26906 0.873622 -10.1493
H 6.67738 0.287743 -8.74459
O 8.06703 13.0109 -10.5862
H 7.30927 12.5882 -10.0891
H 7.96799 12.8268 -11.5642
O 12.3368 -0.851356 11.4386
H 12.0162 -0.79077 12.3838
H 13.257 -0.465278 11.3733
O 4.23296 -10.536 -1.53005
H 5.13848 -10.9275 -1.69365
H 3.53293 -11.2245 -1.7196
O 2.90864 -11.6794 3.29475
H 2.64156 -11.6202 4.25661
H 3.59502 -10.9799 3.0957
O -5.60131 -14.6331 -7.42812
H -5.22619 -14.0715 -6.69065
H -6.52302 14.8661 -7.18255
O 12.2287 -14.0752 3.32775
H 12.6809 -13.3119 3.78923
H 11.6578 -13.7247 2.58526
O 0.0343649 -12.8275 13.4899
H -0.476835 -12.1416 12.9721
H 0.724038 -12.3736 14.0541
O 14.6284 -2.91551 12.0723
H 14.1529 -2.17612 11.5955
H -14.7388 -2.5553 12.8989
O 5.38543 0.119009 2.31526
H 5.4286 1.04626 1.94328
H 6.2437 -0.357198 2.12388
O -5.59141 -12.1174 -0.734287
H -5.1116 -11.6652 -1.48612
H -5.52625 -11.5542 0.0894563
O 0.158931 10.5165 -14.6932
H 0.0240498 9.79918 -14.0095
H 0.479695 11.3498 -14.243
O 6.77382 5.67364 -12.1529
H 7.53802 5.49105 -11.5343
H 5.91474 5.43144 -11.7019
O -3.12507 -4.88969 10.488
H -2.22389 -4.65023 10.1266
H -3.68962 -4.06646 10.548
O 5.01567 8.96569 11.6163
H 4.97185 9.63202 10.8719
H 5.36899 8.098 11.2666
O 0.641549 14.7818 -2.71638
H 1.04239 14.5939 -1.8197
H -0.131544 -14.3921 -2.61142
O -3.25928 5.80799 12.8559
H -3.45989 6.78742 12.8333
H -2.27072 5.67164 12.9205
O -4.16046 -6.13264 -3.80641
H -3.42948 -6.02532 -4.48034
H -4.19479 -5.32324 -3.22015
O 10.1852 -12.8261 6.71484
H 10.5859 -13.7383 6.62941
H 9.3222 -12.7926 6.21074
O -2.87284 12.2995 -11.6784
H -2.72054 11.3537 -11.3915
H -2.69038 12.9141 -10.9109
O 11.3446 -12.0182 -6.52816
H 10.8475 -12.1211 -7.38973
H 11.3233 -11.0599 -6.24337
O -7.72097 -12.601 6.22978
H -8.67808 -12.7066 6.49962
H -7.66537 -12.4816 5.23848
O 11.0089 -5.96121 -4.036
H 10.903 -6.93582 -3.83867
H 10.1067 -5.53738 -4.11611
O 11.1445 -14.4925 -14.656
H 10.4719 -13.9348 -14.1696
H 10.6723 14.6062 14.6087
O -6.06458 -12.2222 11.6417
H -6.69898 -12.98 11.7942
H -5.63397 -11.9686 12.5079
O 4.73291 -6.68282 10.4862
H 4.86366 -5.90613 11.1023
H 4.25541 -6.37785 9.66213
O 9.77576 -3.99836 0.465675
H 10.7266 -4.24857 0.283057
H 9.17863 -4.76636 0.234099
O 11.7738 -3.84233 -13.8666
H 12.1766 -4.73608 -14.0642
H 10.7818 -3.89068 -13.9829
O -9.89746 -5.00869 -5.28842
H -10.8742 -4.84255 -5.153
H -9.60753 -5.77631 -4.71683
O 4.77239 -12.0598 -14.6674
H 5.15861 -11.1497 -14.5175
H 5.00356 -12.3724 14.2107
O -11.2025 -7.52288 10.563
H -10.8853 -8.44385 10.7893
H -12.1778 -7.55075 10.3438
O 4.40082 14.1667 6.42107
H 3.87156 -14.8815 6.81528
H 3.9623 13.8567 5.57747
O 10.1497 -10.3391 2.59317
H 10.643 -11.0306 2.0654
H 10.5533 -10.2652 3.50514
O 10.7617 -13.1879 -9.06344
H 11.3847 -12.6179 -9.59916
H 11.2101 -14.0535 -8.84066
O 6.10306 -14.4849 -11.2404
H 5.91579 14.884 -10.3575
H 6.96632 -13.9826 -11.1899
O 2.50473 3.74746 0.118531
H 2.76594 4.54439 -0.426161
H 3.01428 2.94679 -0.196611
O -9.13077 -10.8352 -9.69833
H -9.15136 -10.1163 -10.3931
H -8.41895 -11.4994 -9.92694
O 11.2037 -2.05365 -4.03297
H 12.0019 -1.4875 -4.23891
H 11.4194 -2.67135 -3.27669
O 12.437 5.91335 2.04402
H 12.6216 6.75067 1.52941
H 11.5307 5.56651 1.80224
O -0.932792 -13.6338 -13.4454
H -0.0896094 -13.7447 -12.9193
H -1.06312 -12.6673 -13.6664
O -10.526 7.22454 -6.38187
H -10.2328 7.21734 -5.42582
H -9.97196 7.87978 -6.89545
O 13.2352 12.5196 -14.5439
H 14.1122 12.9717 -14.3813
H 13.2791 12.0052 14.3991
O -11.4059 -11.9482 14.3685
H -11.4818 -12.5766 13.5943
H -11.638 -11.0223 14.0702
O -1.48883 -9.37548 -7.65917
H -1.26117 -9.43252 -6.68709
H -2.19122 -10.053 -7.87732
O -4.89214 -2.73212 10.8965
H -5.08783 -2.35061 9.99311
H -5.46885 -3.53421 11.0517
O 2.34589 -0.817243 -9.12239
H 1.41629 -0.884106 -8.7599
H 2.9687 -1.34125 -8.5414
O -13.3025 13.5918 1.75089
H -12.434 13.184 1.46902
H -13.7432 13.0025 2.42805
O 13.2451 6.03871 -7.3239
H 12.4343 5.46118 -7.22897
H 13.3026 6.66323 -6.54499
O -9.66953 9.30927 9.65678
H -10.1644 10.1639 9.8141
H -10.3206 8.55213 9.60286
O 7.47589 9.17297 -11.6577
H 7.27541 9.98992 -12.1985
H 7.13306 8.36434 -12.1359
O -5.98029 8.646 1.0867
H -6.20246 7.67123 1.06452
H -6.825 9.17948 1.13001
O -1.74169 -11.186 -14.3835
H -2.31467 -11.9594 -14.6547
H -1.71704 -10.5137 14.6761
O -9.2247 -2.43142 -4.4636
H -8.31853 -2.84989 -4.40238
H -9.91226 -3.14413 -4.60264
O 13.8835 1.82196 5.50138
H 14.8388 2.09944 5.39885
H 13.8093 1.14783 6.23626
O 6.14836 5.29788 -8.56503
H 6.87902 5.93194 -8.81824
H 5.29452 5.58191 -9.00126
O -3.16095 -13.3767 14.5203
H -3.40716 -14.1628 -14.7123
H -2.96667 -13.6851 13.5891
O -4.32954 7.35415 -10.0797
H -3.82813 6.64905 -9.57828
H -3.90158 7.49646 -10.9723
O 10.7377 -8.81581 -3.37464
H 10.4542 -9.32745 -4.18575
H 10.639 -9.39383 -2.56459
O -11.5086 -5.46789 6.59141
H -11.2736 -4.51857 6.80019
H -12.4963 -5.54453 6.45504
O -1.15401 -5.32377 -4.16144
H -1.75466 -5.11678 -4.93371
H -0.207346 -5.12072 -4.4117
O 3.42372 1.07825 14.7634
H 4.27923 1.20123 14.2604
H 3.29608 1.84233 -14.4037
O -11.9233 11.0088 -14.0827
H -11.746 11.6343 -13.3229
H -11.354 11.2639 -14.8643
O -5.25317 6.01003 10.1482
H -4.29237 5.9161 10.4091
H -5.58562 6.91313 10.42
O 5.92661 -14.8847 -1.47339
H 4.95958 -14.7769 -1.24261
H 6.48887 -14.5714 -0.708077
O 3.97504 0.520055 -10.8231
H 3.35675 0.0778241 -10.1734
H 4.88763 0.589831 -10.4202
O 13.6764 -12.1038 -13.2062
H 14.5025 -11.5412 -13.1737
H 13.7457 -12.7543 -13.9626
O -9.50373 -0.588648 -6.57724
H -8.6794 -0.20826 -6.99652
H -9.25735 -1.37616 -6.01232
O 11.0433 5.09576 9.90529
H 10.2981 5.48914 9.3669
H 11.3473 4.24296 9.48058
O -2.90722 -1.51161 -12.6812
H -1.93297 -1.61933 -12.8793
H -3.37258 -1.14455 -13.4866
O -1.85878 12.9362 -14.4111
H -1.47418 12.6811 -13.524
H -1.16618 13.4171 14.8507
O 9.82564 8.55802 -5.03671
H 9.35974 9.42238 -5.22601
H 10.1524 8.16073 -5.89426
O 7.09508 -7.33629 -3.37309
H 6.61317 -6.8361 -4.09254
H 7.97861 -7.65076 -3.72024
O -1.98739 -12.8827 6.84655
H -2.34136 -12.1494 7.42713
H -1.11297 -13.2034 7.21063
O -2.04596 9.94855 -10.6589
H -2.30132 9.35778 -11.4243
H -1.14775 9.67684 -10.3133
O 14.3695 4.68269 -11.6401
H -14.7937 4.26917 -12.2913
H 14.8842 5.11367 -10.8989
O 6.80154 5.7139 -5.1121
H 6.84968 4.94151 -5.74543
H 7.59707 5.69835 -4.50637
O 14.6044 11.6611 -7.74069
H 13.7201 11.5998 -7.27779
H -14.5177 12.0482 -7.11528
O -11.1023 -13.3845 11.7308
H -11.8087 -12.6961 11.5661
H -11.5326 -14.2755 11.8759
O 2.61394 8.49509 -0.314082
H 3.30693 9.21605 -0.315083
H 1.74597 8.86661 -0.643661
O -5.41966 -11.5422 14.3361
H -4.51557 -11.9467 14.4738
H -5.98602 -11.7092 -14.6564
O -6.31772 12.4459 4.63839
H -5.8333 13.1521 4.12202
H -5.66306 11.9263 5.18743
O 3.96248 -1.72259 -14.6878
H 3.71223 -2.36679 -13.965
H 3.57786 -0.823096 -14.4804
O -14.1059 4.8086 8.08935
H -14.7755 4.18969 8.49997
H -14.1202 5.68365 8.57318
O -12.5892 10.7754 3.08455
H -12.4203 10.42 2.16518
H -13.5528 11.0279 3.17251
O -1.95711 11.6869 3.28001
H -2.67836 12.3562 3.4587
H -2.36972 10.8104 3.03226
O 8.43373 10.687 -6.15484
H 9.00171 11.4641 -5.88355
H 8.33073 10.6806 -7.14951
O 12.7807 7.98501 0.0606861
H 12.0947 8.67472 -0.170856
H 13.6659 8.42901 0.200147
O 14.1889 14.3812 5.08307
H 13.6966 14.5812 4.23593
H 13.9961 -14.705 5.75697
O -7.53852 -8.33613 -13.99
H -8.28391 -7.66948 -13.9905
H -7.10556 -8.35279 -14.8912
O 10.6871 -1.21482 9.51949
H 11.0885 -1.96336 8.99164
H 11.2896 -0.985602 10.284
O 13.9256 -13.8443 14.4424
H 14.0933 -14.7164 -14.8974
H 12.9775 -13.811 14.1263
O 10.5985 -0.462979 -0.926177
H 10.311 0.44871 -1.21981
H 9.95077 -1.14329 -1.26926
O 12.4918 -2.43111 -11.7167
H 13.1251 -2.88188 -11.0875
H 12.1733 -3.09014 -12.398
O 2.66385 11.9134 -1.67062
H 2.27494 11.5421 -2.51378
H 3.57852 11.5343 -1.53027
O -14.3266 8.06222 -7.47649
H -14.7346 8.84639 -7.00892
H 14.7585 7.54923 -7.9524
O -6.5088 -4.06361 -10.4782
H -7.14717 -3.31405 -10.6533
H -5.5841 -3.78013 -10.7324
O -1.94382 -14.142 -2.34847
H -2.32179 14.7946 -2.01307
H -2.26519 -13.3908 -1.77183
O 5.05739 -9.95307 2.81358
H 5.23173 -9.92831 3.79796
H 5.82024 -10.4051 2.35124
O -5.88143 -14.7252 -1.4197
H -6.15908 -14.6212 -2.37475
H -5.56458 -13.8447 -1.06693
O -6.85753 -11.9662 -13.2761
H -7.20413 -12.7373 -13.8102
H -6.07236 -12.2633 -12.7327
O -2.99416 4.93333 -9.00861
H -3.69343 4.41504 -9.50096
H -3.34016 5.18453 -8.10462
O -7.56534 13.3615 -6.0843
H -8.32758 13.0675 -5.50759
H -7.02469 12.5646 -6.35388
O 11.4903 6.56695 12.3029
H 11.1715 6.14252 11.4554
H 12.3709 6.17095 12.5633
O 14.2027 11.781 12.5436
H 14.8949 12.5015 12.5019
H 13.5464 11.9058 11.7995
O 0.265341 -12.0122 -5.5978
H -0.549513 -12.5904 -5.55699
H 0.379064 -11.5345 -4.72663
O -9.39538 -6.2617 -14.8215
H -10.3549 -6.24888 -14.5401
H -9.23781 -5.54556 14.2981
O -1.17587 8.62687 5.22196
H -1.70296 9.176 4.57338
H -0.213483 8.89551 5.18121
O 8.4564 14.0713 12.9556
H 7.70506 14.4129 13.5202
H 9.07728 13.5276 13.5203
O 12.539 -11.8605 -10.745
H 12.1486 -12.153 -11.6179
H 13.4939 -11.5956 -10.879
O -6.46997 -9.11702 13.3385
H -5.96025 -8.63491 12.626
H -5.90193 -9.84692 13.7188
O -3.4209 -14.0591 -9.36725
H -3.53131 -14.5392 -10.2375
H -4.26871 -14.1239 -8.8409
O 7.11599 -2.62788 6.44396
H 7.06383 -1.72004 6.86004
H 7.10116 -3.3246 7.16117
O -9.80307 -0.836111 8.5101
H -9.24433 -0.391702 7.80986
H -9.21347 -1.16507 9.24778
O -3.61149 11.0516 13.8691
H -4.21569 11.6275 13.3184
H -3.07826 11.6261 14.4901
O -5.87652 3.11811 -0.23801
H -5.18131 3.13586 0.480593
H -6.77989 3.25409 0.168746
O -3.40255 -0.441115 14.4273
H -2.93603 -0.818602 13.6273
H -4.32106 -0.831131 14.4923
O 1.939 13.9435 -9.0342
H 2.09439 13.9394 -10.0221
H 2.7007 13.4863 -8.57508
O -7.06658 5.44083 12.5729
H -6.80493 4.59633 13.0402
H -6.30059 5.76597 12.0183
O 0.356315 12.5259 -12.5606
H 1.03506 13.2537 -12.4624
H -0.187056 12.4617 -11.7236
O -9.45376 -9.80576 6.90951
H -9.49406 -10.0687 7.8735
H -8.54923 -9.43246 6.70336
O 0.594612 7.83556 13.352
H 1.55749 7.60068 13.4851
H 0.420189 8.74857 13.7208
O -11.8251 -11.2962 -9.09888
H -12.1732 -11.9038 -9.81277
H -10.8849 -11.0328 -9.31473
O 13.6134 -0.783335 -1.70639
H 12.7664 -0.750652 -1.17575
H 14.1085 -1.62546 -1.49248
O -1.5735 -5.60325 3.94327
H -2.41724 -5.26614 4.36099
H -1.52538 -5.29449 2.99334
O -9.83288 14.8966 -12.2886
H -8.90672 14.872 -11.9122
H -10.1391 -13.9536 -12.3585
O 8.99474 -4.00298 -14.0497
H 8.47705 -3.34385 -14.5952
H 8.47889 -4.23022 -13.2237
O -2.45883 3.12113 -0.242809
H -2.61192 3.48897 0.674405
H -1.48958 2.90311 -0.357009
O -6.32431 3.20213 -8.72429
H -7.26552 2.88242 -8.83348
H -6.32568 4.09469 -8.27333
O -13.7902 7.56739 4.18499
H -13.8948 6.93635 3.41631
H -14.6919 7.87669 4.48737
O -0.491972 1.32322 5.46928
H 0.408631 1.15851 5.06703
H -0.676305 0.632143 6.16818
O -3.84942 -14.276 5.50196
H -3.04505 -14.0131 6.03477
H -3.58578 14.8513 4.81005
O 14.0399 -7.23932 -5.62588
H 13.5957 -6.39669 -5.3214
H 14.0174 -7.91348 -4.88762
O -12.212 -4.40801 -11.5205
H -11.254 -4.3352 -11.2429
H -12.5372 -5.33904 -11.3548
O 12.7199 2.74432 -14.2408
H 12.9521 3.70802 -14.1092
H 12.5733 2.31222 -13.351
O -10.2379 9.09089 3.0523
H -9.72657 9.05685 3.91102
H -11.1681 9.41171 3.23074
O 1.80055 4.33921 -4.07402
H 2.39295 4.33518 -4.87966
H 1.01606 4.93671 -4.24013
O -9.01343 -8.52464 12.612
H -8.75487 -7.61168 12.2963
H -8.21183 -8.98472 12.9938
O -11.2679 -7.58786 -6.19081
H -11.8258 -8.10937 -5.54527
H -10.346 -7.47581 -5.81981
O -14.8156 -3.18028 8.33851
H 14.0759 -3.53906 8.55457
H -14.1602 -3.49684 9.02434
O 10.6128 12.8877 -5.12319
H 10.666 12.4329 -4.23421
H 10.0218 13.6912 -5.05165
O 8.50697 11.9905 4.0004
H 8.8409 12.9007 4.24575
H 7.51122 12.0137 3.91114
O -9.40785 -4.2101 -1.92129
H -8.52327 -4.67306 -1.86471
H -9.30219 -3.34903 -2.4187
O -13.8359 5.31408 -9.35737
H -14.2969 5.20247 -8.47697
H -12.8645 5.4955 -9.20439
O 13.2495 -4.64275 -4.93552
H 13.8396 -4.59443 -4.1296
H 12.3231 -4.8948 -4.65573
O 0.255999 9.52557 -1.56699
H -0.568644 10.0891 -1.51783
H 0.811536 9.81504 -2.34648
O -9.63993 -4.68082 -10.6109
H -9.41964 -4.86867 -9.65368
H -8.95803 -4.05756 -10.9937
O 13.2744 -14.5858 -3.82132
H 13.5176 -14.406 -4.77448
H 14.1074 -14.7143 -3.28323
O -2.53003 5.89701 9.63084
H -2.04292 5.85799 8.75836
H -2.04259 6.5047 10.2578
O 5.98043 9.81578 -5.22023
H 6.73829 10.3458 -5.60061
H 6.17979 9.58546 -4.26774
O -11.8182 2.16082 3.7937
H -11.367 1.48655 4.37834
H -12.3297 2.80547 4.36184
O 10.3533 12.4784 -2.32467
H 9.83796 13.3051 -2.09886
H 11.207 12.4651 -1.80396
O 9.08452 -13.7457 3.03771
H 9.68732 -14.401 3.49288
H 8.83436 -13.0211 3.67992
O -0.124456 6.23989 -3.8744
H 0.796379 6.62624 -3.92747
H -0.427632 6.23063 -2.9215
O -3.88516 -4.71284 5.28437
H -4.62013 -4.23103 4.80719
H -4.23702 -5.09518 6.13879
O -5.07265 -4.87006 -7.51841
H -5.73997 -5.61063 -7.59757
H -5.48274 -4.01619 -7.83896
O 13.5578 -13.3299 6.99187
H 14.4814 -12.9858 7.16051
H 13.0579 -12.6776 6.42205
O 11.4983 -12.9124 -2.7655
H 10.5388 -13.0802 -2.99188
H 12.0749 -13.5717 -3.24805
O 8.75146 -2.04585 13.4644
H 9.51285 -2.5604 13.07
H 8.93494 -1.066 13.3854
O -7.35161 -2.82545 6.262
H -7.99152 -2.06284 6.35661
H -7.68325 -3.60646 6.79121
O 11.6162 -13.0358 9.47378
H 11.1218 -12.6173 8.71193
H 12.5816 -13.1325 9.23167
O -11.4076 2.56605 -8.49066
H -12.29 2.70841 -8.93913
H -11.1694 3.37835 -7.95826
O 5.01609 11.9525 -11.8422
H 4.32492 11.6102 -12.4787
H 5.73785 12.4192 -12.3533
O 4.5371 3.45076 2.32187
H 5.07796 3.23909 1.50781
H 3.57323 3.53481 2.06907
O -11.2001 8.32588 -12.5681
H -11.469 9.26923 -12.3736
H -11.9917 7.72453 -12.4594
O 11.8738 12.3281 1.13103
H 12.2842 12.2317 0.224214
H 12.2878 11.6666 1.7563
O -2.85924 -6.91972 -0.708954
H -2.90345 -6.11827 -1.3054
H -3.6921 -6.97144 -0.157876
O 5.63573 -9.67397 -13.5119
H 6.51558 -10.1116 -13.3263
H 5.44374 -8.99701 -12.8013
O -5.26436 3.29849 -4.42308
H -6.00132 2.65254 -4.62221
H -4.79477 3.02043 -3.58511
O -14.6464 -11.0263 -10.4872
H -13.8532 -11.4024 -10.9661
H -14.5178 -11.1252 -9.50044
O -11.2243 13.0039 8.7084
H -11.3126 12.1006 8.28857
H -11.7781 13.6634 8.20003
O -13.2161 -4.57786 14.7187
H -12.4227 -3.96917 14.7083
H -14.0381 -4.05803 14.4861
O 1.7995 -3.13562 -3.25622
H 2.18065 -3.86063 -3.82989
H 2.26136 -3.13488 -2.36925
O 1.6134 -1.4314 -5.41872
H 1.47335 -2.12787 -4.71492
H 2.5652 -1.45341 -5.7247
O -9.49301 -13.4426 9.5041
H -8.52182 -13.2285 9.6089
H -9.98063 -13.1977 10.3421
O -7.7742 -9.49449 2.44641
H -8.6012 -9.19543 1.97033
H -7.3074 -8.69995 2.83477
O -5.56189 -0.668944 2.77057
H -5.21049 -0.468686 1.856
H -6.4986 -0.327881 2.8498
O -9.4651 -0.250346 -0.0119126
H -9.79569 0.647783 -0.301906
H -10.0924 -0.633472 0.666086
O -6.69506 8.91683 -3.64018
H -6.53227 9.89042 -3.8003
H -5.87353 8.50133 -3.24971
O -6.95002 -2.78802 13.2272
H -6.29487 -2.49077 13.9218
H -7.17636 -2.01764 12.6312
O 0.0709476 3.25212 -1.20168
H 0.996181 3.17245 -0.830708
H -0.102786 4.20163 -1.46295
O -13.4176 13.6461 6.69771
H -14.1094 13.8934 6.01936
H -12.6449 13.2057 6.24048
O -6.75866 9.3101 -12.0579
H -6.14155 9.94596 -12.5215
H -6.42341 8.37525 -12.1749
O 4.42727 -12.3706 -9.03307
H 4.29503 -12.0929 -9.9846
H 3.67856 -12.0136 -8.47451
O -2.6844 -1.34054 3.00864
H -2.62639 -1.66377 3.95319
H -3.47664 -0.738256 2.9105
O -5.12575 5.57312 7.38579
H -6.05481 5.59232 7.01632
H -5.11254 6.02422 8.27818
O -12.5763 -12.9749 -10.9462
H -11.78 -12.9126 -11.5479
H -12.9669 -13.8937 -11.0043
O -2.58403 -1.49155 11.7702
H -2.39691 -0.782575 11.0902
H -3.47068 -1.91212 11.5779
O 0.25266 -7.915 10.1311
H 0.79158 -7.68516 10.9415
H 0.350571 -8.88991 9.9312
O 13.6548 -0.245903 7.45383
H 14.2221 -1.01135 7.75759
H 12.8444 -0.597159 6.98485
O 7.92811 -12.2931 5.15901
H 7.32121 -12.6066 5.88936
H 7.61224 -11.4067 4.82062
O 1.26334 -5.0634 11.8195
H 1.71281 -5.94174 11.9823
H 1.18106 -4.56589 12.683
O -0.418971 11.4914 12.5366
H -0.364984 12.4742 12.7134
H -0.255176 10.9904 13.3864
O 2.96652 -11.8132 -6.43347
H 2.37373 -12.5912 -6.64173
H 2.53809 -11.2468 -5.72946
O 12.3114 8.67671 -10.2653
H 11.5395 9.09965 -10.74
H 13.0454 9.34752 -10.159
O -11.7123 7.2017 9.65274
H -12.5589 7.54397 10.0605
H -11.5704 6.25088 9.92808
O 8.96364 2.38748 -6.18535
H 8.8449 1.40133 -6.06945
H 9.04274 2.82144 -5.28789
O 7.57455 2.46861 5.588
H 7.7208 1.6564 6.15275
H 6.59504 2.59178 5.42859
O -8.19202 14.4083 -9.61287
H -7.56781 13.872 -10.1811
H -8.44461 13.8781 -8.80342
O -3.40401 2.0976 -14.0624
H -3.49186 1.23891 -14.5673
H -2.55066 2.55042 -14.3208
O 1.58861 4.89384 4.10591
H 2.00242 5.70862 4.51201
H 0.776869 4.63586 4.62988
O 2.08786 7.73392 -3.784
H 3.05526 7.5695 -3.59133
H 1.90013 8.71489 -3.73425
O 3.95768 -5.3974 0.8473
H 3.13988 -5.23934 1.40069
H 4.12039 -6.38076 0.766307
O -9.54673 -5.75208 11.6955
H -10.2422 -6.39706 11.3787
H -9.98178 -4.88442 11.9362
O 8.1663 -12.8533 -10.1992
H 9.00833 -13.2002 -9.7861
H 7.66231 -12.3132 -9.52509
O 6.28491 -0.441705 -12.5934
H 5.48476 0.0388561 -12.2345
H 6.4623 -1.25446 -12.0384
O 2.72006 9.96784 -9.19485
H 3.59428 10.4188 -9.37487
H 2.4414 10.1457 -8.25105
O 3.69365 -2.74483 -7.68714
H 3.25995 -3.23829 -6.93321
H 3.80366 -3.35946 -8.46826
O -5.87086 -4.27814 0.881102
H -6.42539 -4.17799 1.70723
H -6.36262 -3.8919 0.100714
O -2.12288 13.4482 -6.36279
H -1.79504 13.8139 -7.23389
H -2.98933 12.9702 -6.50691
O -11.5487 6.87079 -1.64823
H -11.4156 7.68875 -2.20791
H -11.8854 6.12486 -2.22289
O 0.048262 -3.06631 2.762
H -0.505168 -2.38095 2.2887
H -0.207542 -3.97911 2.44359
O -9.98236 3.70276 5.5189
H -9.82041 3.52079 6.48878
H -10.4347 4.58879 5.417
O 13.1672 9.91119 -2.90317
H 13.099 10.6991 -3.51523
H 14.0574 9.47172 -3.02347
O 10.5231 9.20862 4.98348
H 10.2342 8.34252 4.57549
H 10.4694 9.14205 5.97982
O -6.67081 -3.71375 -5.15741
H -6.5739 -3.06995 -5.91646
H -6.51227 -4.64436 -5.48734
O 2.92744 13.0013 9.19526
H 3.49524 13.3373 8.44381
H 3.29141 13.3371 10.064
O -9.48203 -9.71878 -12.5851
H -9.88969 -8.84969 -12.3049
H -8.73754 -9.54524 -13.2298
O -14.8973 8.81172 -12.9888
H 13.9263 8.60737 -12.9124
H -14.6723 9.01143 -13.9425
O 4.07414 14.5609 1.23132
H 4.32313 -14.645 1.99667
H 4.82731 13.932 1.03855
O 2.06335 11.6718 1.66701
H 1.44506 11.014 1.23675
H 2.24631 12.4221 1.03177
O 0.515747 11.9733 -7.51872
H 0.438288 12.1999 -6.5478
H 1.07116 12.6657 -7.9793
O 2.66328 -13.6869 10.4214
H 1.69136 -13.9222 10.424
H 2.81019 -12.8711 10.9809
O 9.04319 -13.0375 12.8303
H 8.67461 -13.9617 12.9302
H 8.55855 -12.563 12.0955
O 10.9988 4.27586 -7.11002
H 11.457 3.76086 -7.83452
H 10.3612 3.67596 -6.62677
O 11.509 12.3601 -7.6992
H 10.8121 11.7513 -8.07835
H 11.1509 12.8069 -6.87934
O 7.27381 -11.5749 -0.419795
H 7.29834 -11.6601 -1.41587
H 6.62207 -12.2342 -0.044861
O 9.03676 -14.0002 -12.7544
H 9.71447 -14.7239 -12.6242
H 8.91278 -13.5014 -11.8965
O -14.3964 9.83499 14.3632
H -14.8566 10.4571 13.7298
H -13.6185 10.3024 14.7833
O 6.91205 -5.0713 -8.26472
H 5.99842 -5.1034 -8.67004