2593
Atoms. Timestep: 1000000
O -3.64123 7.29605 -3.991
H -4.17888 8.10902 -3.76738
H -3.47592 6.76652 -3.15897
O 11.2657 11.1842 -9.75524
H 11.5851 12.1 -9.99881
H 11.0006 11.1692 -8.79115
O -6.07981 1.12702 12.2243
H -5.42083 1.32372 12.9502
H -5.84737 0.256762 11.79
O -4.41153 -6.11976 -5.87409
H -4.71597 -6.41106 -4.96719
H -4.89074 -5.28116 -6.13313
O -6.7854 0.362435 -13.0335
H -6.06399 1.05376 -12.9929
H -7.01117 0.0614712 -12.107
O -12.9573 0.564738 4.36032
H -13.6255 -0.161641 4.52133
H -12.0449 0.239209 4.60818
O 8.74991 13.3466 10.503
H 9.28288 12.5646 10.1798
H 9.03142 14.169 10.0086
O -9.20262 -5.87348 4.92246
H -8.61448 -6.52052 5.40767
H -10.0338 -5.71434 5.45523
O 5.75616 11.0775 -8.92721
H 6.61199 10.561 -8.89936
H 5.90077 11.9838 -8.53013
O -11.7657 -12.3095 5.88469
H -11.513 -11.4071 6.23386
H -11.4987 -12.3817 4.92371
O -13.1329 -6.97675 7.11003
H -12.1377 -6.89718 7.16709
H -13.4729 -7.48231 7.90302
O -9.53401 -12.4197 -10.2071
H -9.76369 -12.9538 -9.3935
H -8.5544 -12.4984 -10.3919
O -2.1746 13.1638 1.3773
H -2.84432 13.468 0.699843
H -2.31837 12.1943 1.57614
O 6.42486 11.534 9.32113
H 6.6235 12.5136 9.3541
H 5.5539 11.3862 8.85255
O -6.39878 14.9055 5.95105
H -6.43584 13.9554 6.26085
H -6.57859 14.9428 4.96806
O -3.18768 0.936629 -2.97368
H -3.63393 1.109 -2.09553
H -3.88107 0.74121 -3.66724
O 5.84158 -3.51287 -14.1043
H 5.69361 -2.86729 -13.355
H 6.19781 -3.02365 -14.9004
O -3.51104 4.42255 2.96367
H -4.38553 4.83372 3.22096
H -2.90857 5.12748 2.58938
O 14.5939 -6.16529 1.55168
H -14.7332 -5.41421 1.24069
H 13.6693 -5.82302 1.71854
O -10.1106 -9.60055 -6.66967
H -10.131 -10.3264 -5.98212
H -11.0452 -9.377 -6.94621
O -14.0921 -9.16129 -0.98925
H -13.854 -9.81861 -1.70426
H -13.6281 -9.41071 -0.13926
O 11.1457 11.7655 -6.93238
H 11.9997 12.2851 -6.90793
H 10.4535 12.2361 -6.38517
O -0.821654 -2.41063 -9.10699
H -0.495568 -3.33485 -8.90825
H -0.983972 -2.31852 -10.0894
O -5.10034 -13.1513 -5.53598
H -4.4635 -12.4014 -5.71525
H -5.08258 -13.794 -6.3019
O 10.737 6.79957 -4.78328
H 10.3819 5.91104 -4.49279
H 11.6542 6.93104 -4.4072
O -5.54011 -6.52205 2.42113
H -4.61656 -6.80251 2.1596
H -6.04412 -7.31423 2.76526
O 2.64085 -14.2517 7.08384
H 2.60371 -13.52 7.76443
H 1.71131 -14.5361 6.84911
O 0.573223 5.59998 6.15519
H 0.549393 6.47648 5.67438
H -0.0698175 4.96631 5.72513
O -2.76958 -4.25325 14.6614
H -3.27601 -4.97411 -14.7749
H -3.10275 -3.35956 -14.9476
O 3.27283 -2.42618 5.80479
H 3.01108 -3.09932 5.11314
H 3.72811 -1.65351 5.36241
O 1.92477 5.09923 13.8147
H 2.79532 5.41517 13.4374
H 1.87174 4.10331 13.7418
O 6.87375 6.06721 9.55936
H 6.42526 6.63552 10.2492
H 7.68776 6.53727 9.21814
O 14.5175 14.3253 1.46334
H 14.3902 13.5617 0.830303
H 13.73 14.3844 2.07686
O 1.11527 2.81547 3.8334
H 0.458559 3.43699 4.26053
H 0.773257 1.8776 3.8919
O -11.1234 -0.502782 6.32486
H -10.2942 -0.928974 5.96343
H -10.8739 0.199982 6.99106
O -7.18118 2.01369 -10.416
H -7.18542 1.42133 -9.61037
H -6.25058 2.08018 -10.776
O -8.73826 9.6695 4.04795
H -9.65606 9.46636 3.7068
H -8.15975 9.97003 3.28965
O 0.779432 9.8201 0.714758
H 0.225373 10.0853 -0.0743332
H 1.02835 8.85463 0.637853
O -10.7608 3.03525 4.34986
H -11.2503 3.44016 3.57757
H -10.4657 2.11049 4.10956
O 3.65917 13.118 -7.01225
H 3.79615 12.1344 -6.89462
H 2.94271 13.4316 -6.38909
O 1.32767 -13.4736 2.32575
H 1.38653 -12.7205 1.67047
H 2.15274 -13.4892 2.89057
O 5.31089 -1.03178 -0.989001
H 6.13931 -1.45724 -0.624734
H 4.51141 -1.55976 -0.702506
O -1.15454 3.8264 4.70998
H -1.42384 3.77058 5.67141
H -1.97128 3.91328 4.13956
O 8.91507 -14.2778 -12.9329
H 9.72089 -14.5132 -13.4762
H 8.87759 -14.8617 -12.122
O 2.1096 -6.36774 7.80363
H 2.64262 -5.55703 7.56148
H 1.66702 -6.73256 6.98446
O 4.76054 -4.20363 -0.367665
H 5.7536 -4.10266 -0.307391
H 4.46665 -4.96177 0.214453
O 5.00212 -2.52275 1.9639
H 4.72805 -1.63363 1.59736
H 4.83248 -3.232 1.27966
O 5.82042 11.456 5.64014
H 6.14922 12.3373 5.97974
H 5.4046 11.5802 4.7392
O -7.94079 -1.36856 2.29054
H -8.86575 -1.16594 1.969
H -7.8508 -2.35188 2.44864
O 11.1329 -14.3236 -14.5637
H 11.9442 -14.6589 -14.0847
H 11.2451 -14.4636 14.362
O -2.34771 -3.33243 -3.70877
H -1.98597 -4.23139 -3.46176
H -2.66285 -2.86199 -2.88452
O -12.6611 -8.62829 -7.53949
H -13.6346 -8.50021 -7.72847
H -12.1817 -7.75835 -7.6555
O 11.8112 -12.1885 -1.04862
H 12.8106 -12.1581 -1.03018
H 11.4689 -11.5063 -1.69471
O 8.05463 -2.38441 -11.0504
H 7.87933 -3.14271 -10.4225
H 8.60059 -2.7102 -11.8223
O 13.0465 1.95264 6.08307
H 13.1884 2.45655 6.93508
H 12.8873 0.987195 6.28939
O -14.3038 8.42317 10.7283
H -14.7031 9.04241 10.0523
H -14.3354 7.4858 10.3814
O 5.21416 -10.499 -14.519
H 4.60221 -9.71497 -14.415
H 5.01445 -10.9657 14.5289
O -5.4509 -1.27323 0.325408
H -6.28413 -0.99322 0.802186
H -5.67602 -1.96469 -0.361031
O -8.66941 -1.34987 10.6043
H -8.41921 -2.29829 10.4096
H -8.80689 -0.858199 9.74442
O 0.620932 8.24036 11.5441
H -0.190612 7.66491 11.6454
H 0.417522 8.99714 10.9229
O 8.70039 0.65846 2.5579
H 9.39501 0.908722 3.23234
H 8.67691 1.34648 1.83258
O -7.48911 -8.54169 13.9245
H -7.07206 -8.68492 13.027
H -6.97812 -9.05363 14.615
O -0.182201 14.041 -6.23285
H -1.17545 14.0245 -6.34768
H 0.258143 13.9517 -7.12622
O -5.94069 11.0758 -14.4708
H -6.81244 11.2558 -14.9265
H -5.22752 11.6461 -14.8784
O 11.8151 -6.73517 -1.64656
H 12.3111 -7.4766 -1.19461
H 12.1931 -6.59013 -2.56094
O 13.9041 -7.71067 -7.68613
H 12.9433 -7.79091 -7.42086
H 14.4742 -7.67067 -6.86554
O -2.98305 14.2005 -6.49347
H -3.55232 14.2404 -5.67229
H -3.50314 14.5416 -7.27648
O 3.70685 -6.27724 1.81045
H 2.74752 -6.16454 2.06925
H 4.2637 -6.38577 2.63394
O 4.50758 10.8418 14.5075
H 4.55918 9.94639 14.9498
H 4.04437 10.7518 13.6258
O -11.1465 -14.2437 0.452986
H -10.7055 14.7751 0.342898
H -10.5136 -13.6113 0.899566
O -13.9599 -13.8332 -0.0213057
H -14.415 -14.462 0.609113
H -12.9859 -14.055 -0.0682072
O -5.68553 7.37721 5.09202
H -5.14604 8.18022 5.34526
H -6.65919 7.59573 5.15718
O -1.9757 10.8683 -4.82775
H -1.41801 11.651 -4.55132
H -1.43467 10.2632 -5.41184
O -3.09699 -14.1976 13.7695
H -2.12196 -14.3285 13.9489
H -3.48938 14.86 13.4228
O 0.183487 -1.33952 -6.95178
H -0.11963 -1.87344 -7.74111
H -0.335109 -0.485624 -6.90795
O 7.99579 -10.7472 -3.55532
H 7.6855 -11.3725 -2.83928
H 8.19647 -9.85374 -3.15358
O -12.655 -7.37205 2.48364
H -13.4081 -7.97653 2.74333
H -13.0235 -6.5376 2.07388
O -10.5296 -12.2943 -2.28902
H -9.98834 -12.0548 -1.48297
H -11.4239 -11.8503 -2.23391
O -14.4733 6.4551 3.36773
H -13.8457 6.06361 4.04075
H 14.8179 7.09636 3.82206
O -11.4895 3.74908 -0.337891
H -11.8647 3.27431 -1.13403
H -10.4981 3.62122 -0.310175
O -11.5329 8.45281 8.20628
H -11.125 7.55354 8.36412
H -12.5287 8.3662 8.17464
O -0.850736 1.36423 -4.07827
H -0.0639066 1.09626 -3.52231
H -1.69478 1.14697 -3.58797
O -14.7687 12.2785 7.41446
H -14.8728 12.1692 6.42591
H 14.3678 12.8002 7.77536
O -5.8307 14.8975 -14.2199
H -5.25035 -14.2173 -14.0421
H -5.30619 14.2062 -14.717
O -3.83339 -6.58048 6.53037
H -3.12441 -6.08416 7.03139
H -4.28943 -5.95828 5.89406
O -9.78182 12.9138 -12.9997
H -9.30922 13.6944 -12.5907
H -10.4745 12.5731 -12.364
O -8.18658 10.7002 6.63555
H -8.08922 9.81352 7.08747
H -8.49049 10.5623 5.69289
O 13.0341 -6.14971 -4.5143
H 13.0923 -5.15619 -4.4166
H 13.9511 -6.52578 -4.64727
O 8.93121 13.5428 -11.0336
H 9.32133 13.1473 -11.8651
H 9.04322 12.901 -10.2749
O 3.97519 14.6702 -9.21535
H 4.66141 14.3156 -9.85047
H 3.8909 14.0501 -8.4354
O 8.26194 -14.4155 5.6283
H 9.18659 -14.7959 5.64621
H 7.74221 -14.7659 6.40746
O 5.43848 -13.404 2.33044
H 4.765 -13.4759 3.06614
H 5.89377 -14.2859 2.20795
O -7.59414 6.4474 -12.2129
H -7.46166 7.18263 -11.5482
H -7.03165 6.62314 -13.0209
O -4.09265 7.57918 -0.303885
H -3.53648 6.90122 -0.784544
H -3.9928 8.46875 -0.74963
O 9.35348 -14.3232 8.66726
H 9.17185 -13.3445 8.7629
H 10.1715 -14.4573 8.10798
O -4.45899 3.04294 9.71127
H -4.93543 2.74459 10.5383
H -4.01784 2.25663 9.27872
O -5.23948 -1.3755 11.2622
H -4.57417 -1.80576 10.6521
H -5.77371 -2.08298 11.7249
O -10.4654 4.43298 -7.77997
H -9.52724 4.33999 -7.44641
H -10.5223 5.21444 -8.40132
O -12.9312 13.2136 2.67288
H -13.3264 13.8683 2.02854
H -12.5352 12.4467 2.16796
O 6.3256 -6.50706 7.46949
H 5.62183 -7.1544 7.7622
H 6.91777 -6.94253 6.79149
O 10.5708 11.5008 14.2501
H 11.433 11.8555 13.8887
H 9.80912 12.0264 13.8711
O -7.50742 -8.59612 3.22588
H -7.3275 -8.65427 4.20784
H -8.28648 -7.99014 3.06507
O 7.2764 6.64668 1.87622
H 6.36232 6.4472 2.2293
H 7.45148 7.62913 1.94052
O 1.50718 5.38589 -10.2247
H 1.79768 4.50165 -9.85905
H 0.810165 5.24322 -10.9275
O 2.94427 -7.60428 4.44091
H 2.15283 -7.242 4.93322
H 3.72667 -6.99587 4.57394
O 12.465 -12.0143 8.09448
H 13.0957 -11.2507 8.23232
H 11.5232 -11.6864 8.16866
O 10.9159 -14.6346 12.4476
H 11.422 -14.2069 11.6986
H 9.9779 -14.2882 12.4566
O 7.62324 -6.99482 -9.32882
H 7.95577 -6.11827 -8.98085
H 8.25781 -7.34161 -10.0195
O 10.0311 -6.80229 2.611
H 10.0435 -7.55806 1.95629
H 10.5169 -7.07325 3.44203
O -10.2462 -11.7406 -4.96281
H -9.66468 -12.2761 -5.57527
H -10.0522 -11.9921 -4.01458
O 4.4294 0.0859594 13.7949
H 5.31606 0.244198 14.2294
H 3.97849 0.962893 13.6285
O 2.46927 -8.73149 -13.8514
H 2.83369 -8.78051 -12.9215
H 1.525 -8.40359 -13.8226
O -4.90645 -7.45888 -0.620155
H -5.79472 -7.11255 -0.921856
H -5.04315 -8.22716 0.00518134
O 10.0792 -1.60371 -4.71589
H 10.9172 -1.15191 -5.02184
H 9.96233 -2.46246 -5.21476
O 14.5419 3.36508 2.4177
H -14.9017 3.26858 3.29726
H -14.8787 2.83872 1.72204
O 9.8346 2.41525 7.68852
H 10.4977 2.94528 7.15995
H 9.51997 2.95717 8.46783
O 3.26285 -14.4937 13.127
H 2.29992 -14.3001 12.9392
H 3.78216 -13.6392 13.1201
O -14.6608 -12.6443 -4.48996
H -14.0925 -12.0591 -5.0684
H -14.2009 -13.5209 -4.34869
O 10.8869 5.028 0.266814
H 10.7152 5.93485 -0.118028
H 10.825 5.07187 1.26393
O 13.279 -14.1088 6.03874
H 13.2162 -13.4448 6.78384
H 14.2157 -14.1298 5.68921
O -8.48906 8.50896 -7.48164
H -8.92942 9.01158 -8.22558
H -7.8328 7.85745 -7.86224
O -1.53634 0.0721518 10.668
H -1.81276 0.298062 9.73387
H -2.06672 -0.711113 10.9923
O 3.45406 -3.02718 -2.53413
H 3.94406 -3.43676 -1.76462
H 2.47164 -3.03862 -2.34779
O -9.4376 -4.37916 -13.1072
H -9.83292 -4.49696 -14.0182
H -8.79852 -3.6101 -13.1181
O 13.3555 13.1413 -6.26309
H 14.1871 13.261 -6.80535
H 13.4743 13.5758 -5.3703
O -3.60559 -10.2411 -8.96847
H -2.65827 -10.5598 -8.93583
H -3.74003 -9.6783 -9.78404
O 7.24 -9.09937 -12.0044
H 6.72949 -8.24946 -11.8739
H 8.14676 -9.01015 -11.5923
O 1.74478 -1.54241 10.9892
H 2.18061 -2.44034 11.0507
H 1.04069 -1.46462 11.695
O -12.7196 -0.557344 -1.27186
H -12.362 -0.222143 -0.400197
H -11.9833 -0.578426 -1.94817
O -0.762193 -10.6441 -8.01647
H -0.752525 -11.5828 -7.67173
H -1.36134 -10.0848 -7.44361
O -4.95801 -13.1716 11.9982
H -5.2252 -13.8947 11.3613
H -4.25961 -13.5196 12.6236
O -7.14435 14.6991 -8.81925
H -7.93694 14.0901 -8.84941
H -7.13637 -14.633 -9.6357
O -0.0740722 -0.186861 12.9974
H -0.883128 -0.0328413 13.5646
H -0.288077 0.0313025 12.0452
O -13.9618 -11.1792 11.3395
H -13.5831 -11.5951 12.1663
H -13.8586 -11.811 10.5713
O -2.94938 -1.85346 1.17275
H -2.68917 -0.923479 1.43241
H -3.93631 -1.89205 1.01629
O 7.33397 0.75645 11.2599
H 6.47083 0.299901 11.0442
H 7.83301 0.942963 10.4137
O -4.83209 3.57757 -5.20954
H -5.30784 4.13431 -5.8905
H -4.87813 4.02928 -4.31857
O -14.9505 -9.53355 -14.0083
H 14.8334 -10.3266 -14.6044
H 14.7014 -9.77554 -13.0729
O 8.86996 -2.67629 14.2725
H 8.88364 -3.3612 13.544
H 8.01936 -2.1529 14.222
O 14.0845 -9.89053 -3.35386
H 13.1216 -9.64577 -3.46793
H 14.1666 -10.6062 -2.66022
O -13.9605 -12.3408 -12.5206
H -13.4391 -11.6863 -11.973
H -14.8884 -11.9946 -12.6594
O -2.8768 -6.74026 -12.8582
H -2.61669 -6.21315 -12.0492
H -3.87367 -6.76613 -12.9328
O 13.5125 -9.24871 7.72741
H 13.2132 -8.60563 7.02253
H 13.1545 -8.96024 8.61546
O -8.71995 -11.4582 9.40061
H -9.18308 -12.1161 8.80677
H -8.3317 -11.9361 10.1886
O -7.37415 0.729595 3.84472
H -7.21782 1.32112 3.05374
H -7.38533 -0.225756 3.54946
O 4.05909 6.54448 6.47264
H 3.19154 6.08782 6.27563
H 4.80623 5.88299 6.40772
O 2.08594 2.53838 -10.3689
H 2.36128 2.25967 -11.289
H 2.18479 1.76496 -9.74278
O -0.180878 -9.94774 3.59636
H -0.887447 -9.77282 4.28205
H -0.51294 -10.6263 2.9412
O 13.4783 -12.4869 -6.57118
H 12.5134 -12.4457 -6.31199
H 14.0436 -12.5235 -5.74706
O 12.6242 -0.703906 7.14739
H 12.2352 -0.664916 8.06782
H 13.6176 -0.80057 7.20914
O -4.37157 -14.6152 -10.9737
H -4.12632 14.6652 -11.7114
H -4.41971 -13.6831 -11.3327
O -7.40275 3.64742 -13.9122
H -7.8303 3.08136 -14.617
H -8.01113 3.71073 -13.121
O -8.89384 9.03022 -10.3705
H -9.35061 8.97459 -11.2584
H -7.93869 8.75094 -10.469
O -6.36431 -11.6775 -3.50619
H -5.81884 -12.0686 -4.24751
H -6.4426 -12.3424 -2.76342
O 0.748535 -3.63854 -1.73432
H 0.755524 -3.38873 -0.766045
H -0.120907 -4.07866 -1.95873
O -6.61576 -5.55937 -9.52629
H -6.78127 -4.97612 -8.73104
H -7.45517 -5.63527 -10.0645
O 12.4426 -1.05674 -5.91286
H 12.8401 -1.23469 -6.81305
H 13.1609 -0.7582 -5.28445
O -0.593598 3.12381 -9.12129
H -0.160973 3.97567 -8.82603
H -0.0825594 2.73948 -9.89013
O -6.6748 4.91098 -7.28188
H -7.02145 5.08412 -8.20376
H -6.64238 5.77011 -6.77116
O -11.4524 5.85886 8.68786
H -12.36 5.43916 8.69727
H -11.0142 5.72546 9.57681
O 0.0948742 11.5014 4.96153
H -0.137873 10.8725 4.2197
H 1.08447 11.6442 4.9793
O 0.222732 -6.92455 -10.5037
H 0.697352 -7.77477 -10.276
H 0.809188 -6.36096 -11.0855
O 14.7621 -1.96022 11.0829
H -14.4061 -1.35922 10.7842
H 14.6945 -1.93575 12.0803
O -9.35966 14.6246 -2.82805
H -8.65204 14.9499 -3.45532
H -9.76276 -14.5061 -2.34753
O -3.70593 -11.9399 -12.1135
H -2.71559 -11.9563 -11.9758
H -4.05203 -11.0189 -11.9347
O 4.16793 -12.625 -8.31991
H 5.03059 -12.6575 -8.82465
H 3.67717 -13.4876 -8.44278
O -14.4675 6.14264 9.39588
H -14.7964 5.54174 10.1244
H -14.3019 5.60462 8.56937
O 9.46317 12.6776 -13.4967
H 10.0597 11.9812 -13.8956
H 8.79326 12.9727 -14.178
O 12.3468 4.72401 13.2192
H 12.9302 4.52594 14.0068
H 11.5258 5.20597 13.5253
O 8.8756 -6.15161 -1.33763
H 9.86552 -6.26875 -1.25803
H 8.5923 -5.34637 -0.816732
O -12.4756 3.43205 12.7693
H -11.9396 2.58813 12.79
H -12.8265 3.62659 13.6853
O -11.1031 -1.8573 12.0255
H -10.2424 -1.60598 11.5827
H -11.0867 -2.82974 12.2581
O 3.87165 -0.850761 -6.92388
H 3.46525 -0.832133 -6.01038
H 4.86844 -0.864784 -6.84502
O 6.97417 14.3432 -14.5174
H 7.52125 -14.8763 -14.0434
H 6.64624 13.667 -13.8578
O 7.87676 7.08844 6.12098
H 8.83958 7.21612 5.88291
H 7.54312 7.89715 6.60542
O 12.0949 -6.54594 -13.5143
H 12.5655 -6.74433 -12.6546
H 12.5843 -6.98079 -14.2702
O 3.08863 -8.84657 -11.2083
H 2.5187 -8.88033 -10.3873
H 3.65017 -9.67249 -11.2584
O 2.26347 -10.4588 14.0904
H 2.33685 -9.75224 13.3865
H 2.11538 -10.0283 -14.9288
O -8.68683 2.09288 14.1076
H -8.49914 2.42823 13.1844
H -9.337 1.33452 14.061
O -11.0587 -5.77724 14.4221
H -10.8315 -6.62153 13.9368
H -11.795 -5.30313 13.9394
O -9.79126 11.724 -2.6756
H -9.56294 12.6643 -2.42332
H -10.0062 11.6835 -3.6514
O 4.15629 0.215064 8.05034
H 4.4537 1.14269 7.82438
H 4.36154 -0.396236 7.28602
O -3.72797 1.27244 -6.82345
H -4.06536 2.11941 -6.41259
H -2.73129 1.31076 -6.89525
O 4.11456 -11.7713 -3.89525
H 5.06632 -11.8632 -3.60248
H 3.53979 -11.5701 -3.10208
O 8.79706 3.99974 -10.5368
H 7.92666 3.50788 -10.5149
H 8.6329 4.95736 -10.7735
O 4.09406 10.4974 -6.3123
H 3.805 10.2345 -5.3918
H 5.07627 10.338 -6.41149
O 7.04698 -8.60248 12.3987
H 7.01651 -7.61686 12.5649
H 7.58736 -9.04467 13.1145
O 0.136982 12.6346 -3.66847
H 0.509096 11.7215 -3.83489
H 0.234942 13.19 -4.49424
O -4.49353 -3.01067 -5.21737
H -4.17732 -2.65927 -6.09858
H -3.70469 -3.22004 -4.63955
O -4.11139 5.87532 13.6493
H -4.31963 6.58033 12.9713
H -4.06907 6.28939 14.5585
O 12.875 -9.08239 2.97114
H 13.1426 -9.79925 2.32732
H 13.6596 -8.49065 3.15613
O -4.45475 1.07887 -0.735887
H -4.6594 0.110052 -0.596201
H -4.25392 1.5075 0.144992
O -10.8549 2.35413 -5.40818
H -10.8212 1.48642 -4.91227
H -10.7682 2.18096 -6.38924
O -1.79308 6.77889 2.24275
H -2.26228 7.42547 1.64126
H -1.62358 7.21056 3.12871
O 12.1167 -4.9399 13.7066
H 11.3292 -5.16872 14.2788
H 12.9375 -4.88632 14.2752
O -8.40218 1.75601 10.5425
H -8.55461 2.74274 10.5985
H -7.6713 1.4953 11.1732
O 4.91072 -6.39079 -3.28836
H 4.83256 -6.68094 -2.33457
H 5.11288 -7.18413 -3.86259
O -4.2647 -4.55348 4.6434
H -3.37976 -4.2477 4.29216
H -4.9181 -4.61889 3.88922
O -5.90425 8.39727 -14.5369
H -5.98515 9.36144 -14.2843
H -5.14566 7.98337 -14.0337
O -5.46885 -6.88742 -13.2667
H -6.20971 -7.40855 -12.843
H -5.80375 -5.981 -13.5241
O 13.4439 6.86648 -4.42443
H 14.0813 6.49136 -5.09749
H 13.9578 7.30114 -3.68483
O 12.3015 0.794703 -13.1656
H 12.2792 1.58491 -12.5531
H 11.3911 0.38358 -13.2125
O 0.192041 7.85841 8.18438
H -0.360375 7.03598 8.32019
H 0.528146 7.88245 7.24287
O 8.43395 7.99347 -13.1822
H 7.6887 7.34863 -13.0125
H 9.19754 7.78901 -12.5697
O 0.292115 10.1983 14.6364
H 1.03948 10.8599 14.5749
H -0.575499 10.6844 14.7412
O -1.09042 -11.5655 -11.9899
H -0.19407 -11.6081 -11.5486
H -0.985309 -11.2309 -12.9264
O -1.18922 -13.5473 6.59842
H -2.14423 -13.5286 6.30245
H -0.675136 -14.1857 6.02563
O 6.27226 -1.9566 13.4099
H 6.72236 -1.97026 12.517
H 5.45638 -1.38027 13.3631
O 4.64009 -12.1399 0.117975
H 3.91255 -12.6915 -0.289997
H 5.00331 -12.6098 0.922517
O 2.41977 -10.8329 4.86557
H 3.08772 -10.5228 4.18906
H 1.51876 -10.4636 4.63795
O 8.45449 -8.99133 -1.53456
H 8.30023 -9.25403 -0.582091
H 8.59107 -8.00223 -1.58958
O -4.22911 -5.34211 12.5194
H -3.58207 -4.75639 13.0076
H -4.32962 -6.20821 13.0091
O -9.43302 -10.35 12.2044
H -8.60369 -10.2346 12.7511
H -9.18934 -10.4013 11.2359
O -13.7892 -4.1197 0.87577
H -12.9213 -4.13408 1.37243
H -13.6189 -3.90886 -0.0868024
O 2.26476 -9.60232 7.58544
H 2.17479 -10.5704 7.81942
H 2.50582 -9.51403 6.61895
O -13.4233 9.5683 -3.91929
H -13.8155 8.70685 -3.59664
H -14.1158 10.2882 -3.87193
O -4.69117 3.17083 5.68004
H -4.92542 3.59508 4.80532
H -5.42068 2.5433 5.95209
O -3.08375 8.71915 8.69042
H -2.22765 8.26007 8.92776
H -3.80139 8.03628 8.55374
O -10.536 -5.16727 -2.36485
H -10.4618 -5.164 -1.36761
H -9.62073 -5.14854 -2.76722
O -6.79612 -9.17314 11.4485
H -6.22504 -9.80223 10.9211
H -7.3321 -8.60579 10.8233
O 2.41885 10.4989 12.505
H 1.7983 9.76038 12.2413
H 3.113 10.6203 11.7955
O -8.61141 -7.11229 -5.97309
H -9.05718 -6.28109 -6.30532
H -9.01955 -7.90978 -6.41743
O 4.81296 8.25039 4.27907
H 3.86373 8.41838 4.01311
H 4.83945 7.89556 5.21362
O -13.849 14.8466 -3.29601
H -13.8045 14.5438 -2.34398
H -12.994 14.6147 -3.75986
O -6.73073 7.53271 0.59391
H -6.91196 8.50213 0.759366
H -5.87333 7.43543 0.088548
O -8.01769 14.7639 -12.1383
H -7.72442 -14.4042 -11.5347
H -7.48838 14.7951 -12.9861
O 13.5473 6.24577 -10.0079
H 12.8857 5.77254 -9.42617
H 14.106 5.57295 -10.4928
O 8.44177 -11.6991 -6.45353
H 7.80753 -11.4923 -5.70855
H 8.13849 -11.2376 -7.28721
O -5.02438 5.32626 -11.6963
H -5.94735 5.58864 -11.4147
H -4.58974 4.80032 -10.9652
O -4.89459 2.52589 -12.535
H -3.99732 2.62235 -12.1042
H -5.18366 3.40907 -12.9044
O -6.32397 8.68965 12.3524
H -5.7289 8.18657 11.7256
H -6.09866 8.44411 13.2952
O 4.21874 -1.58929 -12.6424
H 3.80199 -1.60115 -13.5514
H 3.51082 -1.43521 -11.9532
O 7.53282 0.663237 7.94961
H 8.41602 1.12883 7.89336
H 6.89595 1.07686 7.29898
O 7.69085 -12.8859 0.448091
H 7.12954 -13.2342 1.19884
H 8.55415 -13.3895 0.415911
O -0.811782 -10.4774 -14.603
H -0.130289 -10.6664 14.5995
H -1.69686 -10.2983 14.8769
O 11.5772 -3.55198 -12.2131
H 11.664 -4.5479 -12.1885
H 10.6812 -3.3045 -12.5818
O -11.3595 12.6107 9.98919
H -12.0505 12.0035 10.3813
H -11.7705 13.5011 9.79382
O -4.74062 -14.3229 -7.99269
H -5.46137 14.9417 -8.24698
H -4.31441 -13.9563 -8.8197
O 9.71831 -8.28631 10.8958
H 9.64366 -8.7956 11.7532
H 8.86165 -8.36463 10.3859
O 2.16111 3.74942 -4.86137
H 1.66576 2.89452 -5.0156
H 3.14019 3.55904 -4.78955
O -2.37736 8.51348 11.4889
H -2.10496 8.26912 12.4196
H -2.06827 9.4422 11.2842
O -4.6864 6.88497 10.8289
H -4.00918 7.61733 10.8997
H -4.66719 6.50138 9.90556
O -8.63663 -4.11438 2.9755
H -8.13039 -4.64323 2.29429
H -8.88842 -4.70885 3.73918
O -0.960414 -14.8528 2.82036
H -1.41813 14.3278 2.31122
H -0.118575 -14.5935 2.34699
O 1.69324 -6.88265 -1.6866
H 2.62669 -6.99133 -1.34473
H 1.54338 -5.9295 -1.94938
O 3.94264 2.44831 12.2351
H 2.96207 2.61378 12.1298
H 4.22384 1.71011 11.622
O -14.2188 10.7566 -1.00917
H -14.782 10.0714 -0.547347
H -14.7806 11.2651 -1.66165
O -2.9344 6.17989 -8.4197
H -3.70411 6.40303 -7.82157
H -3.16384 5.3796 -8.97367
O 1.80041 -11.2649 -1.56699
H 1.6317 -10.2794 -1.55137
H 2.07754 -11.5701 -0.655924
O 14.3792 -0.280927 1.40716
H 14.0863 0.300626 2.16612
H 13.8945 -1.15453 1.45034
O -8.40841 -1.77765 -13.0635
H -9.29034 -1.3273 -12.9243
H -7.72361 -1.09656 -13.3227
O 10.905 -14.934 -6.60731
H 10.9431 -14.2092 -5.9194
H 11.7632 14.4624 -6.59868
O 3.51462 3.90929 2.61493
H 2.92224 3.31775 3.16188
H 4.46154 3.80597 2.91935
O 5.22032 -9.95127 11.175
H 4.63446 -9.26594 10.7424
H 6.01953 -9.50224 11.5745
O 5.98542 -1.81918 -8.57899
H 6.63062 -1.39945 -9.21738
H 5.22146 -2.21456 -9.08894
O 12.499 -4.46225 6.83741
H 13.0858 -3.96769 6.19628
H 11.666 -3.93413 7.00223
O 12.8015 -1.14341 -11.3293
H 12.4294 -2.06677 -11.4239
H 12.4707 -0.57215 -12.0805
O -0.595889 4.96028 -12.1935
H -1.09388 5.63118 -11.6441
H -0.586675 5.2533 -13.1496
O -0.148889 -7.17745 2.92505
H -0.498433 -7.60549 2.09162
H 0.27216 -7.87394 3.5061
O 3.68632 14.3409 -14.2358
H 4.65313 14.0994 -14.1524
H 3.56432 -14.9429 14.9033
O 10.2489 -1.1554 5.6349
H 9.67315 -0.349794 5.49507
H 11.123 -0.875563 6.03186
O 4.94722 1.48684 -8.72844
H 3.97855 1.23953 -8.70551
H 5.50377 0.656191 -8.71229
O 10.7176 13.2242 0.51481
H 10.8459 14.2084 0.393226
H 10.1584 12.8661 -0.232829
O -5.22165 -5.28744 9.50536
H -5.33402 -6.1146 8.95475
H -4.69457 -5.50324 10.3273
O -6.26697 -11.2999 -9.00991
H -5.32798 -11.0187 -8.81179
H -6.89334 -10.5547 -8.7811
O -6.36046 -3.59823 12.6378
H -7.27976 -3.98998 12.6
H -5.68735 -4.33409 12.7115
O -10.3436 -3.91797 7.1288
H -9.55473 -3.31081 7.03403
H -10.8397 -3.95771 6.26145
O 6.29721 -9.98869 4.47014
H 5.314 -10.0659 4.63543
H 6.48725 -10.1608 3.50357
O 0.460329 14.7243 5.26334
H -0.0179195 14.9511 4.41489
H 0.48136 13.7313 5.37894
O 13.4627 -5.02001 9.23255
H 12.9167 -4.41397 9.81095
H 13.1768 -4.91824 8.27972
O -14.6268 11.9917 4.62052
H 14.4699 11.7204 4.10506
H -14.0378 12.5556 4.0416
O 8.68015 -4.39912 2.9474
H 8.86501 -5.3726 3.08224
H 7.90732 -4.12425 3.51939
O 11.254 -1.19109 0.571765
H 11.9434 -1.75514 0.117319
H 10.9583 -1.64063 1.41468
O 14.1801 1.10239 14.697
H 13.4661 1.00435 -14.5192
H 14.4298 2.06678 14.6098
O 4.01701 9.75519 7.69702
H 3.57002 8.87301 7.54881
H 4.66059 9.93203 6.95235
O -1.78052 -14.1831 -9.02123
H -0.814504 -14.429 -9.10091
H -2.22258 -14.2751 -9.91349
O 2.10305 5.85345 10.1754
H 2.91176 5.91185 10.7607
H 1.64216 6.74066 10.1542
O 8.58553 9.49365 -5.40029
H 7.6411 9.17513 -5.48155
H 9.11646 9.16514 -6.18144
O -3.80625 0.661556 -9.69261
H -3.42611 0.784811 -8.77593
H -4.63055 0.0979793 -9.63861
O 4.0229 -3.76476 8.03558
H 3.77931 -3.05892 7.3704
H 4.90835 -4.1607 7.79227
O -11.4181 7.64055 12.8034
H -10.9822 7.23594 13.6074
H -12.3809 7.82296 13.0027
O 10.9197 -8.71209 4.55139
H 10.4674 -9.58422 4.73791
H 11.5981 -8.83661 3.82733
O -10.9748 -5.63525 -6.77683
H -11.1824 -5.83045 -5.81828
H -11.7161 -5.09495 -7.17504
O -12.0162 14.4598 -10.2805
H -12.8343 14.6607 -9.74168
H -12.0168 -14.8896 -11.1089
O 11.5202 -14.4655 -2.67509
H 11.0113 -14.2436 -3.50683
H 11.5723 -13.656 -2.09026
O 8.42275 -4.34351 -8.978
H 7.92963 -4.18964 -8.12176
H 9.40673 -4.27733 -8.81248
O 6.28801 -12.2746 -1.98901
H 7.06066 -12.7814 -1.60669
H 5.76411 -11.856 -1.24719
O 7.77929 -0.963912 0.614741
H 8.49067 -0.794523 -0.0673443
H 8.02752 -0.515833 1.47358
O -13.8898 -2.01266 5.05126
H -13.3776 -2.87056 5.0924
H -14.6298 -2.09793 4.38409
O -6.9874 -3.15329 -4.3055
H -7.04478 -4.15143 -4.28488
H -6.07898 -2.87808 -4.62019
O 7.25522 -11.9189 -11.9565
H 7.15185 -10.9243 -11.9672
H 8.0343 -12.1792 -12.5269
O 10.9369 -9.54498 0.584576
H 11.7786 -9.0151 0.688073
H 11.1183 -10.3525 0.0233702
O -10.1026 8.47476 -5.52923
H -11.0438 8.15017 -5.62241
H -9.61479 8.33449 -6.39085
O -3.4037 13.3172 -12.6071
H -2.56802 13.8658 -12.5803
H -3.59412 13.0459 -13.5506
O 1.16243 -3.20044 -5.27834
H 0.975247 -2.45712 -5.92057
H 0.70083 -3.01549 -4.41075
O 11.1756 -7.35177 8.71262
H 10.8995 -7.88454 9.51259
H 11.7242 -6.56906 9.00656
O -12.8735 -0.507636 -4.98093
H -12.0178 -0.339141 -4.49156
H -12.7997 -0.153178 -5.91309
O -8.33678 -8.32289 -13.2733
H -8.54722 -7.99771 -14.1952
H -7.96124 -9.24831 -13.3239
O -6.00862 -9.97561 -13.8778
H -5.26955 -9.75633 -13.2408
H -5.89004 -10.9086 -14.2175
O 5.16068 12.4719 3.1015
H 4.45388 13.1705 2.99038
H 5.91212 12.6542 2.46737
O -3.99368 12.936 14.4171
H -3.11536 12.458 14.4057
H -4.38253 12.9407 13.4958
O -9.83264 -8.85714 8.83265
H -9.03678 -9.44853 8.96251
H -10.6087 -9.22551 9.34456
O -14.3561 -4.97416 10.9777
H -13.4858 -4.64913 10.6078
H 14.8586 -4.95738 10.2587
O 14.4771 -14.4703 11.9939
H 14.7707 14.4857 11.9259
H -14.8974 -14.0063 12.6999
O 9.64823 -8.54606 -10.5851
H 10.371 -8.04265 -10.1116
H 10.001 -9.43229 -10.8853
O -1.55795 5.89394 8.85024
H -1.63957 5.17898 8.15586
H -2.05368 5.61722 9.67345
O -10.3187 -0.969396 1.01821
H -9.73951 -0.504103 0.348821
H -11.1392 -0.423046 1.18595
O 13.8943 -10.2674 -8.78718
H 13.6749 -10.8481 -8.00322
H 14.0136 -9.32337 -8.47967
O 11.433 12.2874 7.98983
H 10.8729 11.8894 8.71634
H 12.3492 12.4785 8.34207
O 0.564236 12.6536 1.26029
H -0.409833 12.7896 1.44112
H 0.707066 11.7438 0.870499
O 6.24955 2.72899 -11.357
H 5.51615 3.14476 -11.8948
H 5.85437 2.21567 -10.5952
O 3.85857 9.78955 -3.71532
H 4.59849 10.4297 -3.50874
H 3.9666 8.96488 -3.16013
O 0.23696 1.00579 -13.4435
H -0.496409 0.748788 -14.0728
H -0.0481736 0.815709 -12.504
O -12.142 11.6598 -7.26512
H -11.4322 11.5466 -7.96037
H -12.4588 10.7608 -6.96276
O -8.37182 -11.9359 3.17215
H -7.76545 -11.3259 3.68224
H -8.05346 -12.879 3.26811
O 12.5735 11.0178 -12.6374
H 12.2978 11.347 -11.7343
H 13.2135 11.6673 -13.0479
O -9.02421 -0.132755 -7.81124
H -9.7838 0.453334 -8.09323
H -8.25218 0.435805 -7.52712
O -14.8095 4.52276 11.4895
H 14.2678 4.3004 11.9976
H -14.0657 3.9261 11.7906
O 0.731112 -5.95236 14.2275
H 0.363654 -6.64823 14.8446
H 1.21072 -5.25471 14.7598
O 5.43129 -6.87436 -11.9906
H 4.45418 -7.04393 -11.8621
H 5.74987 -6.22286 -11.302
O -6.23421 7.07415 -5.41514
H -7.02686 7.13366 -4.80839
H -5.40028 7.00211 -4.86798
O -9.32284 13.679 -6.87292
H -9.65582 12.9435 -6.28292
H -8.59636 14.1803 -6.40289
O 8.54414 -13.6195 12.9431
H 7.59308 -13.7974 12.6904
H 8.57009 -13.0096 13.7351
O 10.0999 2.97737 -6.31395
H 10.5983 2.78056 -7.15826
H 9.55238 3.80534 -6.43536
O -13.0711 -4.18209 -7.74142
H -13.946 -4.47653 -8.12612
H -12.6738 -3.47168 -8.32231
O 0.91741 5.45694 -6.76212
H 1.25322 6.16359 -7.38491
H 1.68277 5.08358 -6.23788
O -5.32865 13.5551 12.1446
H -5.49157 12.8556 11.4488
H -6.19871 13.971 12.4092
O 13.5379 -8.09648 -0.0849976
H 14.2345 -8.70298 -0.468197
H 13.9591 -7.48794 0.587485
O -9.12918 11.3331 9.87294
H -9.37068 10.5955 9.24244
H -9.83904 12.0371 9.84985
O 6.99237 9.49058 3.33673
H 7.07908 10.2663 3.96185
H 6.25654 8.89041 3.65034
O -14.2238 7.3976 13.5543
H -14.2006 7.72013 12.6081
H 14.9342 7.8438 14.0403
O -4.4422 -13.391 0.92764
H -5.17148 -14.017 0.651645
H -3.72185 -13.3919 0.234037
O 2.74174 7.00701 -8.4135
H 2.42731 6.39969 -9.14308
H 2.54689 7.95573 -8.66241
O 5.96305 0.78755 3.27436
H 5.71465 1.74758 3.40333
H 6.92567 0.657517 3.51197
O -12.7523 9.03745 -6.59761
H -12.5921 9.05641 -5.6107
H -12.8458 8.0895 -6.90196
O 7.90831 -11.56 10.7577
H 8.71927 -11.8971 11.236
H 7.1302 -12.1542 10.9615
O 8.4908 12.3325 -5.59515
H 8.51212 11.3357 -5.51758
H 7.83442 12.5979 -6.30136
O -10.6022 -6.72819 7.32216
H -10.1575 -5.86009 7.54277
H -10.1966 -7.45933 7.8707
O 10.8885 -5.66622 11.2452
H 11.2613 -5.5818 12.1693
H 10.3233 -6.48919 11.1878
O -14.4922 -12.5269 8.80889
H -14.0532 -11.9836 8.09325
H -14.2346 -13.4873 8.70351
O -1.96093 -0.785369 3.851
H -2.09541 -1.76609 3.99275
H -2.8373 -0.312274 3.94133
O -4.13515 -9.30122 -11.7716
H -3.33575 -8.75384 -12.0193
H -4.80095 -8.72393 -11.2989
O 2.19967 4.29492 7.97178
H 2.33901 4.9516 8.71296
H 1.55802 4.67526 7.30573
O -2.09477 -5.74412 -10.0006
H -1.30171 -6.3093 -10.2279
H -2.45456 -6.01785 -9.10866
O 6.74437 14.4139 1.47379
H 6.39891 14.4421 0.535782
H 7.41549 13.6776 1.55981
O 14.6162 9.98296 14.6257
H -14.315 10.1827 14.5691
H 14.2433 10.3786 -14.4445
O -10.7632 1.30289 12.3811
H -10.7854 0.330944 12.6152
H -10.3173 1.42193 11.4939
O -3.49041 -13.1994 -1.59117
H -3.17114 -13.3946 -2.51851
H -3.88412 -12.2806 -1.56069
O 8.1336 9.90051 -2.63609
H 7.46659 9.20223 -2.37629
H 8.42922 9.74479 -3.57861
O 10.023 4.10182 4.61059
H 9.1756 4.28267 4.11142
H 10.3227 3.16501 4.43015
O -11.91 -8.31191 -10.369
H -11.259 -7.82007 -9.7907
H -12.2175 -7.71314 -11.1085
O 10.2959 2.14221 -2.44968
H 9.7019 1.44591 -2.04674
H 10.3233 2.02314 -3.44219
O 8.68593 -4.37487 11.9804
H 9.48721 -4.60216 11.4269
H 8.07875 -3.77639 11.4577
O 1.42878 0.775874 -2.55284
H 1.75711 1.14489 -1.68334
H 2.12411 0.915257 -3.25789
O 11.3354 8.46504 6.1782
H 11.5 8.13969 7.10936
H 10.7017 9.23822 6.2024
O 11.9389 -0.0464068 13.1071
H 12.669 0.316824 13.6858
H 12.1939 -0.956578 12.7807
O -12.7162 4.1155 -4.23879
H -12.8803 3.7702 -3.31475
H -11.9869 3.58333 -4.6689
O -4.47902 4.23851 -0.839393
H -4.11671 4.16715 0.0899264
H -3.99666 3.59656 -1.43541
O -0.529104 11.2008 -11.536
H -0.598978 11.1918 -10.5385
H 0.425304 11.0704 -11.8045
O -9.12118 5.23822 3.45866
H -8.97185 5.85076 4.23487
H -9.78137 4.53177 3.71375
O -13.7609 5.01998 14.8014
H -13.8793 5.83296 14.2313
H -14.5927 4.86191 -14.5761
O -4.89559 13.7319 -4.06282
H -4.255 14.3629 -3.62516
H -5.46797 13.3009 -3.36525
O -12.6724 7.11062 -13.0587
H -13.5417 6.84539 -13.4759
H -12.0483 6.32928 -13.0634
O 13.6051 4.66031 -14.1335
H 14.0006 5.36841 -13.5486
H 13.1639 3.96619 -13.5647
O 6.24829 -13.2699 -10.1416