LAMMPS data file via write_data, version 15 May 2015, timestep = 1009000

2593 atoms
6 atom types
1728 bonds
4 bond types
864 angles
3 angle types
0 dihedrals
3 dihedral types
0 impropers
1 improper types

-1.5068086507529129e+01 1.5068086507529129e+01 xlo xhi
-1.5068086507529129e+01 1.5068086507529129e+01 ylo yhi
-1.5068086507529129e+01 1.5068086507529129e+01 zlo zhi

Masses

1 15.9994
2 1.00794
3 12.0107
4 1.00794
5 12.0107
6 12.0107

Bond Coeffs # harmonic

1 1000 1
2 469 1.4
3 367 1.08
4 469 0.7

Angle Coeffs # harmonic

1 100 109.47
2 35 120
3 63 120

Dihedral Coeffs # opls

1 0 7.25 0 0
2 0 7.25 0 0
3 0 7.25 0 0

Improper Coeffs # cvff

1 2.5 -1 2

Atoms # full

1018 340 1 -8.1999999999999995e-01 -1.0608306453670522e+01 -1.1245427794148673e+01 -1.0296882568623936e+01 0 1 1
1019 340 2 4.0999999999999998e-01 -1.1270593904862221e+01 -1.0583432640158154e+01 -9.9459525800441462e+00 0 1 1
1020 340 2 4.0999999999999998e-01 -1.0194118678806994e+01 -1.0890298255681220e+01 -1.1134943194812974e+01 0 1 1
2069 690 2 4.0999999999999998e-01 -1.3565580740132537e+01 -9.0984082247720792e+00 -1.2075648747147829e+01 0 1 2
1861 621 1 -8.1999999999999995e-01 -8.9581349601751707e+00 -8.9058160287435708e+00 -8.1140267461737352e+00 -1 0 1
1905 635 2 4.0999999999999998e-01 -9.8922096086835989e+00 -1.1041502507086960e+01 -8.1816814484431397e+00 0 0 0
1863 621 2 4.0999999999999998e-01 -8.1832589664617537e+00 -8.4294799871081967e+00 -8.5295809259823834e+00 -1 0 1
599 200 2 4.0999999999999998e-01 -1.4592938881238474e+01 -1.2252549958271414e+01 -1.3105703693206429e+01 0 0 -2
950 317 2 4.0999999999999998e-01 -1.3668865429052456e+01 -1.4639351160516078e+01 -1.0968728684289420e+01 1 -1 -1
2348 783 2 4.0999999999999998e-01 -1.2886843390135521e+01 -1.2549321140331932e+01 -1.2063051335764628e+01 2 2 1
2349 783 2 4.0999999999999998e-01 -1.1905542945015704e+01 -1.2539655055116778e+01 -1.0757823334396114e+01 2 2 1
1628 543 2 4.0999999999999998e-01 -9.1758374867700461e+00 -9.9959210723570919e+00 -1.3020815513358656e+01 0 0 0
1331 444 2 4.0999999999999998e-01 -4.6784583124643291e+00 -1.5027363460368299e+01 -1.4769167369364329e+01 1 0 2
1611 537 2 4.0999999999999998e-01 -1.1050746997117255e+01 -5.3378413131442173e+00 -8.0569723855580690e+00 -1 1 -1
805 269 1 -8.1999999999999995e-01 -1.3997602627063831e+01 -1.4947474760710804e+01 -1.4549120506957479e+01 -1 3 1
2068 690 1 -8.1999999999999995e-01 -1.2646551195152846e+01 -8.8176451416988133e+00 -1.1798934275478285e+01 0 1 2
1564 522 1 -8.1999999999999995e-01 -1.2098198242964079e+01 -9.1126006394410393e+00 -9.0635853265580604e+00 0 -2 3
1627 543 1 -8.1999999999999995e-01 -9.8292330310459199e+00 -1.0750752710400072e+01 -1.3078413987110473e+01 0 0 0
1566 522 2 4.0999999999999998e-01 -1.2885290984114034e+01 -8.9230986562507528e+00 -8.4765690291601494e+00 0 -2 3
600 200 2 4.0999999999999998e-01 -1.3941598832730461e+01 -1.0755346954837595e+01 -1.3077359030410680e+01 0 0 -2
2347 783 1 -8.1999999999999995e-01 -1.2510070016047159e+01 -1.3103347993945807e+01 -1.1320683360741700e+01 2 2 1
1565 522 2 4.0999999999999998e-01 -1.1264342455751319e+01 -8.7855303484367475e+00 -8.6189240362789228e+00 0 -2 3
568 190 1 -8.1999999999999995e-01 -1.4795045868114114e+01 -5.8242656341480483e+00 -1.3818904889281049e+01 0 -1 2
807 269 2 4.0999999999999998e-01 -1.4576603850892681e+01 -1.4205683482811786e+01 -1.4210716332639789e+01 -1 3 1
657 219 2 4.0999999999999998e-01 -1.4819908484586694e+01 -6.4481239352054249e+00 -1.0515463106117684e+01 0 1 1
694 232 1 -8.1999999999999995e-01 -8.6296416514023022e-01 -1.1270330965569958e+01 -1.2680636955665520e+01 -1 2 1
783 261 2 4.0999999999999998e-01 -1.4444103751503130e+01 -7.1172003307721301e+00 -8.6262205154910880e+00 -1 2 2
2122 708 1 -8.1999999999999995e-01 -6.8961575770265817e+00 -6.4638562659524492e+00 -8.0024747465338120e+00 -1 -1 0
815 272 2 4.0999999999999998e-01 -7.5230737420648017e+00 -1.2634060793913429e+01 -8.4961266073667545e+00 -1 1 -2
2159 720 2 4.0999999999999998e-01 -1.1564640987068380e+01 -7.3538266966857311e+00 -1.1235253271863748e+01 -1 0 1
460 154 1 -8.1999999999999995e-01 -1.0143780826863603e+01 -1.4677602614808555e+01 -1.1923771033267666e+01 0 -3 1
613 205 1 -8.1999999999999995e-01 -1.1807305779166041e+01 -1.3143506788223169e+01 -1.4918224202723827e+01 0 -1 2
279 93 2 4.0999999999999998e-01 -4.4268722816432060e+00 -1.4825848934524366e+01 -8.1574490381384841e+00 -2 -1 -1
1300 434 1 -8.1999999999999995e-01 -1.4804410764631500e+01 -9.2131668801078064e+00 -1.3259546254509466e+01 -1 0 -1
1629 543 2 4.0999999999999998e-01 -9.4674443155409076e+00 -1.1459267596632493e+01 -1.3684326254488072e+01 0 0 0
781 261 1 -8.1999999999999995e-01 -1.4400998515319293e+01 -6.1521455238964489e+00 -8.8847263573581614e+00 -1 2 2
695 232 2 4.0999999999999998e-01 -8.1644503268759294e-01 -1.0492407455909726e+01 -1.3307282884535219e+01 -1 2 1
1578 526 2 4.0999999999999998e-01 -9.6712236249280750e+00 -5.4955838843483598e+00 -1.3283105904975750e+01 1 0 3
1038 346 2 4.0999999999999998e-01 -1.1141789780170596e+01 -9.0954410938736956e+00 -1.4399367577302257e+01 0 1 1
121 41 1 -8.1999999999999995e-01 -8.4057130760482206e+00 -6.3165523573084972e+00 -1.2352054130420175e+01 -1 1 1
2070 690 2 4.0999999999999998e-01 -1.2470220071660302e+01 -9.1282334917812609e+00 -1.0864880573608536e+01 0 1 2
2474 825 2 4.0999999999999998e-01 -8.6049546510325623e+00 -1.3756276218064313e+01 -1.0399327944514742e+01 1 0 3
2374 792 1 -8.1999999999999995e-01 -1.2239573598200725e+01 -6.0984966133514220e+00 -1.4864034259010408e+01 -1 2 2
122 41 2 4.0999999999999998e-01 -7.9498346438370797e+00 -7.1689270749182032e+00 -1.2608269485539701e+01 -1 1 1
598 200 1 -8.1999999999999995e-01 -1.3738921216993040e+01 -1.1733013132267185e+01 -1.3133079147978505e+01 0 0 -2
782 261 2 4.0999999999999998e-01 -1.3494068517748962e+01 -5.7897260336262413e+00 -8.6699143031044361e+00 -1 2 2
457 153 1 -8.1999999999999995e-01 -5.3724983074215462e+00 -5.7294410375963700e+00 -1.1234400237774615e+01 -1 -1 0
569 190 2 4.0999999999999998e-01 -1.3817938708550232e+01 -6.0258445306854664e+00 -1.3887034681328092e+01 0 -1 2
65 22 2 4.0999999999999998e-01 -2.5588580129661995e+00 -1.2215230518878087e+01 -7.7448223341081279e+00 -1 0 0
2473 825 1 -8.1999999999999995e-01 -8.4040532944977517e+00 -1.2822853564382356e+01 -1.0102048787450666e+01 1 0 3
458 153 2 4.0999999999999998e-01 -5.2944889423686377e+00 -6.7193969137748866e+00 -1.1116434075922951e+01 -1 -1 0
462 154 2 4.0999999999999998e-01 -9.9208534174212133e+00 -1.4133613976682845e+01 -1.2732717158703457e+01 0 -3 1
1609 537 1 -8.1999999999999995e-01 -1.1795923205808400e+01 -5.3665454918518485e+00 -8.7232325352471101e+00 -1 1 -1
123 41 2 4.0999999999999998e-01 -7.7216018044483308e+00 -5.6456222117420047e+00 -1.2065944715971614e+01 -1 1 1
66 22 2 4.0999999999999998e-01 -9.3979992991483208e-01 -1.2321489296306579e+01 -7.5603661629733274e+00 -1 0 0
2143 715 1 -8.1999999999999995e-01 -2.6704124095865858e+00 -5.4662036963032286e+00 -1.1296894734330884e+01 -1 0 0
64 22 1 -8.1999999999999995e-01 -1.7429438671951516e+00 -1.2742604390402175e+01 -7.9818350017491744e+00 -1 0 0
459 153 2 4.0999999999999998e-01 -5.8224743839440443e+00 -5.3328505564823310e+00 -1.0434242981044813e+01 -1 -1 0
2375 792 2 4.0999999999999998e-01 -1.1485917064245989e+01 -5.6575498616996995e+00 -1.4376610508188859e+01 -1 2 2
1036 346 1 -8.1999999999999995e-01 -1.2043038537795839e+01 -8.8378029051916194e+00 -1.4747774453879799e+01 0 1 1
1769 590 2 4.0999999999999998e-01 -1.0390377123122452e+00 -6.1398114294783817e+00 -1.4399322233143167e+01 -1 0 3
1768 590 1 -8.1999999999999995e-01 -9.4479397339224036e-01 -5.7294215235444472e+00 -1.3492287313406326e+01 -1 0 3
2145 715 2 4.0999999999999998e-01 -2.1938789366255236e+00 -5.2021924100201051e+00 -1.2135481627023376e+01 -1 0 0
461 154 2 4.0999999999999998e-01 -1.1054632049791724e+01 -1.4428104698880599e+01 -1.1594962653702636e+01 0 -3 1
696 232 2 4.0999999999999998e-01 -8.9656663800322889e-01 -1.0937623846590565e+01 -1.1738198117709096e+01 -1 2 1
2149 717 1 -8.1999999999999995e-01 -3.4722576145899531e-01 -7.1183878776261729e+00 -7.6858807517458212e+00 0 -2 3
514 172 1 -8.1999999999999995e-01 -6.9395565549340432e-01 -9.3256370430629225e+00 -1.4630727082583384e+01 -1 0 1
1906 636 1 -8.1999999999999995e-01 -5.2765026810274449e+00 -8.6112344339677875e+00 -7.6365393378783493e+00 -1 -1 -1
788 263 2 4.0999999999999998e-01 -1.9889631811222017e+00 -7.3599119901227956e+00 -8.8719748707626529e+00 -2 -1 0
772 258 1 -8.1999999999999995e-01 -1.8292353476919487e-01 -1.2896601009656118e+01 -1.4876342460098197e+01 -2 1 1
1895 632 2 4.0999999999999998e-01 -5.6255051480809932e+00 -7.0191657252535684e+00 -1.4867823036040823e+01 -1 1 2
2144 715 2 4.0999999999999998e-01 -3.6579992711982730e+00 -5.4028720675608692e+00 -1.1440684230858970e+01 -1 0 0
2160 720 2 4.0999999999999998e-01 -9.9871971978236296e+00 -6.9876084203423297e+00 -1.1445537226373297e+01 -1 0 1
148 50 1 -8.1999999999999995e-01 -9.4032369728586218e-01 -9.6732073636819624e+00 -1.0344262617846411e+01 -1 0 -1
149 50 2 4.0999999999999998e-01 -1.5293237050876076e+00 -8.9303033881286797e+00 -1.0026163860074774e+01 -1 0 -1
2117 706 2 4.0999999999999998e-01 -5.4936199007747355e+00 -9.4049688214824414e+00 -1.0561061319361340e+01 1 0 0
117 39 2 4.0999999999999998e-01 -2.9950468769718626e+00 -1.2630035573254712e+01 -9.4633858599283638e+00 -1 -2 0
2376 792 2 4.0999999999999998e-01 -1.2112578916843139e+01 -7.0902614087949214e+00 -1.4847032323833087e+01 -1 2 2
115 39 1 -8.1999999999999995e-01 -3.7546982923584320e+00 -1.2522540520651397e+01 -1.0104781718954106e+01 -1 -2 0
2475 825 2 4.0999999999999998e-01 -9.2277793161273323e+00 -1.2261984767215441e+01 -1.0185209790425546e+01 1 0 3
669 223 2 4.0999999999999998e-01 -2.4497934287442718e+00 -8.6596034505049513e+00 -1.3828791287949940e+01 -2 1 -1
667 223 1 -8.1999999999999995e-01 -3.2137464641220337e+00 -8.3938274523043717e+00 -1.3240783638209610e+01 -2 1 -1
1581 527 2 4.0999999999999998e-01 -7.1434261746926211e+00 -9.2433953302339162e+00 -1.1518068835860365e+01 -1 0 -1
1894 632 1 -8.1999999999999995e-01 -5.7829055804014313e+00 -7.9540485538733128e+00 -1.4549651192756086e+01 -1 1 2
668 223 2 4.0999999999999998e-01 -2.9051691214888411e+00 -7.7057435794870877e+00 -1.2584022860920207e+01 -2 1 -1
1579 527 1 -8.1999999999999995e-01 -7.5619567154617418e+00 -9.0972227445467162e+00 -1.2414439226361138e+01 -1 0 -1
1580 527 2 4.0999999999999998e-01 -6.8696229334967800e+00 -8.7660718641572650e+00 -1.3055553211657724e+01 -1 0 -1
2118 706 2 4.0999999999999998e-01 -5.7894063293262690e+00 -8.7024090842449766e+00 -9.1169060857908253e+00 1 0 0
789 263 2 4.0999999999999998e-01 -2.7455404973323692e+00 -6.9582641723030747e+00 -1.0262274804037903e+01 -2 -1 0
1913 638 2 4.0999999999999998e-01 -5.2329019658931841e+00 -1.3759880917144407e+01 -1.0750222382023203e+01 0 1 0
787 263 1 -8.1999999999999995e-01 -2.5215248672274608e+00 -7.7103392555082806e+00 -9.6424246702015601e+00 -2 -1 0
814 272 1 -8.1999999999999995e-01 -7.2608884318963298e+00 -1.2725747210981702e+01 -7.5354671618876852e+00 -1 1 -2
224 75 2 4.0999999999999998e-01 -4.2063764420724823e+00 -9.7836919054273999e+00 -1.2355284944411146e+01 -1 2 1
2116 706 1 -8.1999999999999995e-01 -6.0233077834616484e+00 -8.7001536324922704e+00 -1.0089171054704691e+01 1 0 0
1912 638 1 -8.1999999999999995e-01 -5.8655592914072816e+00 -1.4514039734398517e+01 -1.0574144795367941e+01 0 1 0
1770 590 2 4.0999999999999998e-01 -3.3617978767861345e-01 -6.2925326828332846e+00 -1.2933262528878712e+01 -1 0 3
150 50 2 4.0999999999999998e-01 -9.0748440255288898e-01 -1.0392828036278217e+01 -9.6506620413863082e+00 -1 0 -1
1666 556 1 -8.1999999999999995e-01 -5.5718706244020915e+00 -1.2238820341502237e+01 -1.3710148942548900e+01 0 3 0
1896 632 2 4.0999999999999998e-01 -4.9147697018417116e+00 -8.3591352586768650e+00 -1.4262842963212570e+01 -1 1 2
1667 556 2 4.0999999999999998e-01 -5.7591534021773114e+00 -1.1743191171691109e+01 -1.4558259194070637e+01 0 3 0
1668 556 2 4.0999999999999998e-01 -5.6056048550104371e+00 -1.3222885635412309e+01 -1.3884767371846344e+01 0 3 0
223 75 1 -8.1999999999999995e-01 -4.7032911439849823e+00 -1.0493429461137133e+01 -1.1855922860055420e+01 -1 2 1
1914 638 2 4.0999999999999998e-01 -6.6966180321967990e+00 -1.4158903746094365e+01 -1.0146086492591721e+01 0 1 0
116 39 2 4.0999999999999998e-01 -3.6655554254905116e+00 -1.1649192481954717e+01 -1.0583666717011571e+01 -1 -2 0
225 75 2 4.0999999999999998e-01 -5.0014798578835418e+00 -1.1203275184330545e+01 -1.2494058175225275e+01 -1 2 1
614 205 2 4.0999999999999998e-01 -1.2078167651414974e+01 -1.2490911686869637e+01 -1.4210574855398896e+01 0 -1 2
190 64 1 -8.1999999999999995e-01 -1.4614850266516793e+01 -8.6576160716126260e+00 -7.6676700348271245e+00 1 1 1
1610 537 2 4.0999999999999998e-01 -1.1545672870914569e+01 -5.9738848410204604e+00 -9.4772403543130466e+00 -1 1 -1
2158 720 1 -8.1999999999999995e-01 -1.0891932588978790e+01 -6.6139318135432585e+00 -1.1241004201339551e+01 -1 0 1
615 205 2 4.0999999999999998e-01 -1.2504813982370141e+01 -1.3855449789209827e+01 -1.4999671040266753e+01 0 -1 2
773 258 2 4.0999999999999998e-01 -3.7425371566459198e-01 -1.2285761670253461e+01 -1.4108044221319771e+01 -2 1 1
1037 346 2 4.0999999999999998e-01 -1.2744432667698831e+01 -9.1028089948044624e+00 -1.4086085585797235e+01 0 1 1
2123 708 2 4.0999999999999998e-01 -6.2509092350337347e+00 -7.2050104834464843e+00 -7.8171126079563420e+00 -1 -1 0
2015 672 2 4.0999999999999998e-01 -9.2619632148102422e+00 -5.2681286338464535e+00 -7.5290172013428425e-01 1 0 1
1509 503 2 4.0999999999999998e-01 -1.4107290709390204e+01 -5.3064861924390030e+00 -2.5904702048884669e+00 0 0 0
653 218 2 4.0999999999999998e-01 -1.0687707258117952e+01 -8.0063336761346839e+00 -2.1896577422041634e+00 -1 0 2
1248 416 2 4.0999999999999998e-01 -9.9721725164430364e+00 -8.5977709114850995e+00 -1.8808126288172033e-01 -1 0 -1
427 143 1 -8.1999999999999995e-01 -7.5958101238414750e+00 -1.1359160137451278e+01 -3.8055657192940071e+00 0 0 1
428 143 2 4.0999999999999998e-01 -7.2798098213497786e+00 -1.2304711891964292e+01 -3.7275285783841046e+00 0 0 1
429 143 2 4.0999999999999998e-01 -8.5658676137222578e+00 -1.1311186373773289e+01 -3.5674458201161308e+00 0 0 1
1262 421 2 4.0999999999999998e-01 -1.0864227523739064e+01 -1.3480900237169932e+01 -4.0045582882357991e+00 -1 0 1
1246 416 1 -8.1999999999999995e-01 -8.9887147368651021e+00 -8.4929962861650647e+00 -3.3588932307289276e-01 -1 0 -1
862 288 1 -8.1999999999999995e-01 -1.1795032805699293e+01 -1.3442518300624995e+01 -5.4847348818621047e+00 0 -1 1
978 326 2 4.0999999999999998e-01 -1.3723557094276604e+01 -9.7969511245145888e+00 -3.5297756748666789e+00 1 0 1
1480 494 1 -8.1999999999999995e-01 -7.1390759862172626e+00 -1.0935643930710956e+01 -1.0402791360396790e-01 -2 -1 3
977 326 2 4.0999999999999998e-01 -1.4354281127908074e+01 -8.3892040353634165e+00 -4.0655922280283061e+00 1 0 1
976 326 1 -8.1999999999999995e-01 -1.4095330018847367e+01 -8.9109271912472199e+00 -3.2527187043754235e+00 1 0 1
2533 845 1 -8.1999999999999995e-01 -1.4658652539436760e+01 -5.7833928618351269e+00 -1.0603439674817317e+00 0 1 0
975 325 2 4.0999999999999998e-01 -1.3480043407566988e+01 -1.0960640810767948e+01 -6.3807152629424930e+00 -1 1 2
1964 655 2 4.0999999999999998e-01 -5.1202406841160695e+00 -1.3618171993905243e+01 -2.4726611743319236e+00 -2 -1 -1
1261 421 1 -8.1999999999999995e-01 -1.0367271567739021e+01 -1.2950069193501877e+01 -3.3180691727627192e+00 -1 0 1
1263 421 2 4.0999999999999998e-01 -1.1012984229575999e+01 -1.2584915519715118e+01 -2.6474485126144067e+00 -1 0 1
654 218 2 4.0999999999999998e-01 -1.1761087768614985e+01 -8.0188097662078910e+00 -3.4202522074673798e+00 -1 0 2
652 218 1 -8.1999999999999995e-01 -1.0917008339533201e+01 -7.6066792500225704e+00 -3.0771888490906498e+00 -1 0 2
974 325 2 4.0999999999999998e-01 -1.2685625193378872e+01 -1.1505088877196169e+01 -5.0619506610266747e+00 -1 1 2
1926 642 2 4.0999999999999998e-01 -1.3584279023358928e+01 -1.2054023734077074e+01 -1.8432343664743378e+00 -2 3 -1
1045 349 1 -8.1999999999999995e-01 -8.3243616450039326e+00 -6.6302618474806820e+00 -4.0917665414455264e+00 0 -1 -1
1493 498 2 4.0999999999999998e-01 -9.0908549214136798e+00 -1.2907472374551318e+01 -1.3733217636416164e+00 0 1 1
2549 850 2 4.0999999999999998e-01 -6.9650054112119264e+00 -1.4691182493893177e+01 -3.1902428740900373e+00 -1 -1 1
1924 642 1 -8.1999999999999995e-01 -1.2643402791838286e+01 -1.1721772118826237e+01 -1.7770914148345867e+00 -2 3 -1
1925 642 2 4.0999999999999998e-01 -1.2298976409785656e+01 -1.1878198720577009e+01 -8.5139421981698149e-01 -2 3 -1
864 288 2 4.0999999999999998e-01 -1.2376437445150351e+01 -1.4080955592206937e+01 -5.9890964361310903e+00 0 -1 1
2422 808 1 -8.1999999999999995e-01 -2.9767004461000983e+00 -9.6634444677419431e+00 -2.7990945047070070e-01 2 0 1
1180 394 1 -8.1999999999999995e-01 -2.6194125966140724e-01 -6.5492485857660743e+00 -1.9913396802772034e+00 -1 2 0
1047 349 2 4.0999999999999998e-01 -9.1132184001380363e+00 -7.0718517630865048e+00 -3.6643118875125875e+00 0 -1 -1
1046 349 2 4.0999999999999998e-01 -7.5159117878072887e+00 -7.2072730276152823e+00 -3.9756586262298033e+00 0 -1 -1
191 64 2 4.0999999999999998e-01 -1.4694304273069863e+01 -8.3912150830793593e+00 -6.7070807973745374e+00 1 1 1
1904 635 2 4.0999999999999998e-01 -8.8501377560649743e+00 -1.1950262019776643e+01 -7.3128278866820331e+00 0 0 0
899 300 2 4.0999999999999998e-01 -4.0982045226260055e-01 -1.1984660961990659e+01 -1.2115250266637574e+00 -2 1 1
973 325 1 -8.1999999999999995e-01 -1.3416116058192976e+01 -1.0903080634718567e+01 -5.3844149997756983e+00 -1 1 2
2300 767 2 4.0999999999999998e-01 -7.3880033119190314e+00 -7.4981259055097249e+00 -3.4804202303505249e-01 1 1 1
898 300 1 -8.1999999999999995e-01 -1.4352857096528027e-01 -1.2575890391676436e+01 -1.9728071765169233e+00 -2 1 1
557 186 2 4.0999999999999998e-01 -8.2874302897645080e-02 -8.5103674618959708e+00 -2.9553051021577961e+00 -2 0 2
2535 845 2 4.0999999999999998e-01 -1.3934092110405064e+01 -5.5073947366387355e+00 -4.2879719845420361e-01 0 1 0
2534 845 2 4.0999999999999998e-01 -1.4630289079122496e+01 -6.7748951043909393e+00 -1.1873594412287716e+00 0 1 0
623 208 2 4.0999999999999998e-01 -8.8189516841087752e+00 -6.2220649979427289e+00 -7.3770003412027618e+00 0 0 1
2014 672 1 -8.1999999999999995e-01 -9.6549579349611641e+00 -5.8015623114424404e+00 -3.8905236287885003e-03 1 0 1
2442 814 2 4.0999999999999998e-01 -1.4138026527217217e+01 -6.3437644767015691e+00 -4.6131711198016330e+00 -1 0 0
1247 416 2 4.0999999999999998e-01 -8.5570173857962573e+00 -9.3947556904656970e+00 -3.5783208898484631e-01 -1 0 -1
624 208 2 4.0999999999999998e-01 -8.8793817843374647e+00 -6.2941994907122112e+00 -5.7467215549347266e+00 0 0 1
2270 757 2 4.0999999999999998e-01 -6.5962498855250331e+00 -1.0819841122997687e+01 -5.0500560008343847e+00 -1 0 1
136 46 1 -8.1999999999999995e-01 -1.5305446502685758e+00 -5.5117603449684385e+00 -4.1639953290782330e+00 0 1 1
622 208 1 -8.1999999999999995e-01 -9.3095284229283202e+00 -5.9096892959349798e+00 -6.5635078758642358e+00 0 0 1
1007 336 2 4.0999999999999998e-01 -8.3001123886879924e+00 -1.4876239698751988e+01 -6.3811950358925937e+00 0 -1 1
2531 844 2 4.0999999999999998e-01 -3.0922814299455474e+00 -8.1617049705578264e+00 -3.0615286167050755e+00 0 2 1
2423 808 2 4.0999999999999998e-01 -2.1237782596004653e+00 -1.0178477481929789e+01 -1.9459324117849164e-01 2 0 1
2550 850 2 4.0999999999999998e-01 -5.7188963331288285e+00 -1.4405189732058846e+01 -4.2061584364900995e+00 -1 -1 1
2548 850 1 -8.1999999999999995e-01 -6.2915505546719146e+00 -1.4013643084371694e+01 -3.4858998202424605e+00 -1 -1 1
2269 757 1 -8.1999999999999995e-01 -6.2259971485474921e+00 -1.0506413238482679e+01 -5.9245215288618649e+00 -1 0 1
759 253 2 4.0999999999999998e-01 -3.7730117400455043e+00 -1.2053720572245071e+01 -3.0052254762405628e+00 -1 0 2
2424 808 2 4.0999999999999998e-01 -2.7688674468431795e+00 -8.6958635243826379e+00 -4.2345979822965774e-01 2 0 1
757 253 1 -8.1999999999999995e-01 -3.2146517798066494e+00 -1.1678107519342351e+01 -3.7449302275252645e+00 -1 0 2
1908 636 2 4.0999999999999998e-01 -5.3513755814518387e+00 -9.3564332708655051e+00 -6.9739030389212999e+00 -1 -1 -1
1784 595 2 4.0999999999999998e-01 -3.1074891648268022e+00 -8.2947719770838546e+00 -5.1695819455285612e+00 0 0 1
1887 629 2 4.0999999999999998e-01 -2.7217552299119436e+00 -1.0012611263557869e+01 -6.7673441311619591e+00 -1 1 1
2326 776 1 -8.1999999999999995e-01 -5.2831976104616540e+00 -9.0779077404706108e+00 -1.6349394316586725e+00 0 -1 -1
758 253 2 4.0999999999999998e-01 -2.5549161622300680e+00 -1.2366245540908350e+01 -4.0469718098603895e+00 -1 0 2
1916 639 2 4.0999999999999998e-01 -1.1071306625798728e+01 -5.9964509816228002e+00 -2.7980377241890206e+00 -1 0 1
920 307 2 4.0999999999999998e-01 -1.5646840528508186e+00 -1.4726359928936841e+01 -4.0684887260824247e+00 -1 -1 1
1182 394 2 4.0999999999999998e-01 -6.8779380523053391e-01 -6.2889004501725996e+00 -2.8578744952739878e+00 -1 2 0
558 186 2 4.0999999999999998e-01 -1.1649567786380093e+00 -9.4520077466629928e+00 -3.7357377823480089e+00 -2 0 2
430 144 1 -8.1999999999999995e-01 -6.1211279941332375e+00 -8.3004780532064082e+00 -3.9799969764519290e+00 0 2 2
278 93 2 4.0999999999999998e-01 -4.7885637592899766e+00 -1.4815794098150649e+01 -6.5650476154969617e+00 -2 -1 -1
274 92 1 -8.1999999999999995e-01 -5.2764585999009359e+00 -6.1410043634840381e+00 -5.3862757963180830e+00 0 0 0
658 220 1 -8.1999999999999995e-01 -2.5657397524834931e+00 -7.0873877039023698e+00 -5.6741035079707025e-01 -1 0 -1
276 92 2 4.0999999999999998e-01 -4.3297159113105543e+00 -6.3088835694850367e+00 -5.6610647625827770e+00 0 0 0
432 144 2 4.0999999999999998e-01 -5.9574605759683905e+00 -8.9586907559435325e+00 -4.7148324065599727e+00 0 2 2
2530 844 1 -8.1999999999999995e-01 -2.9498700281334678e+00 -8.9095654370169601e+00 -3.7099403880898585e+00 0 2 1
863 288 2 4.0999999999999998e-01 -1.1098740042961706e+01 -1.3069891910048437e+01 -6.0982005054623780e+00 0 -1 1
2440 814 1 -8.1999999999999995e-01 -1.4649370309734215e+01 -6.9803302793302411e+00 -5.1905147182241684e+00 -1 0 0
2271 757 2 4.0999999999999998e-01 -6.2953538290340916e+00 -1.1241790960699257e+01 -6.5986308254249231e+00 -1 0 1
1963 655 1 -8.1999999999999995e-01 -4.3648945054727619e+00 -1.3424225630764040e+01 -1.8466810966414808e+00 -2 -1 -1
2016 672 2 4.0999999999999998e-01 -9.4081457317583848e+00 -6.7642436399555397e+00 -1.1498740100070037e-01 1 0 1
660 220 2 4.0999999999999998e-01 -1.6678880320947620e+00 -6.8006701727899976e+00 -9.0158014406719822e-01 -1 0 -1
1903 635 1 -8.1999999999999995e-01 -9.7558634923820904e+00 -1.1526410326391806e+01 -7.3178016849767822e+00 0 0 0
1885 629 1 -8.1999999999999995e-01 -3.1761397818518180e+00 -1.0902233412900515e+01 -6.7212875147669564e+00 -1 1 1
1785 595 2 4.0999999999999998e-01 -2.1253029473628136e+00 -7.4659092582754107e+00 -6.1770346391470845e+00 0 0 1
306 102 2 4.0999999999999998e-01 -3.4400493021931329e+00 -1.4756491101106214e+01 -4.5287691968858272e+00 -2 2 0
1482 494 2 4.0999999999999998e-01 -6.8441226953106842e+00 -1.0607322744245870e+01 -1.0013694703778722e+00 -2 -1 3
1492 498 1 -8.1999999999999995e-01 -8.8371865217087837e+00 -1.3093014637204893e+01 -4.2398488858910710e-01 0 1 1
1783 595 1 -8.1999999999999995e-01 -3.0674230621213194e+00 -7.7579759286761867e+00 -6.0123505054472659e+00 0 0 1
556 186 1 -8.1999999999999995e-01 -3.6154289281036789e-01 -9.4527754292830863e+00 -3.1403054671485364e+00 -2 0 2
431 144 2 4.0999999999999998e-01 -5.7675445137188746e+00 -8.6669704943527357e+00 -3.1193715680994156e+00 0 2 2
275 92 2 4.0999999999999998e-01 -5.6173576014710225e+00 -6.9256330376422497e+00 -4.8684342758940318e+00 0 0 0
921 307 2 4.0999999999999998e-01 -1.0291877490858479e+00 -1.3266056959669550e+01 -3.5710723858938938e+00 -1 -1 1
1886 629 2 4.0999999999999998e-01 -3.6399254272197243e+00 -1.0994405387762246e+01 -5.8401397940147532e+00 -1 1 1
1965 655 2 4.0999999999999998e-01 -4.0380237767701423e+00 -1.4279109388957131e+01 -1.4437625209689973e+00 -2 -1 -1
2328 776 2 4.0999999999999998e-01 -4.3948445114019705e+00 -9.2459153045140177e+00 -1.2076030758933101e+00 0 -1 -1
919 307 1 -8.1999999999999995e-01 -1.7151379281496979e+00 -1.3739285916585548e+01 -4.1238298327437892e+00 -1 -1 1
2327 776 2 4.0999999999999998e-01 -5.8391793001205450e+00 -8.5041136658805438e+00 -1.0335586445729401e+00 0 -1 -1
1862 621 2 4.0999999999999998e-01 -8.7394103859350434e+00 -9.1336218951867458e+00 -7.1651968619595872e+00 -1 0 1
2532 844 2 4.0999999999999998e-01 -3.5425622663316609e+00 -9.6778295218231047e+00 -3.4680720911872029e+00 0 2 1
1304 435 2 4.0999999999999998e-01 -1.6240297403782300e+00 -1.5051039790492926e+01 -8.5919238795177932e-03 0 -1 -4
2104 702 1 -8.1999999999999995e-01 -1.1527254982070822e+01 -8.5828240090713184e+00 -7.1971324575329731e-02 0 0 1
1767 589 2 4.0999999999999998e-01 -8.6123423276002864e+00 -1.4608134024973070e+01 -1.1762500098864237e-01 1 0 0
2124 708 2 4.0999999999999998e-01 -6.6680554670227963e+00 -5.6733760052481728e+00 -7.4340343394246666e+00 -1 -1 0
825 275 2 4.0999999999999998e-01 -2.1752707912417151e+00 -1.4723466093333739e+01 -7.4003918798784625e+00 -1 0 -1
277 93 1 -8.1999999999999995e-01 -5.0820075279042154e+00 -1.4510392735607809e+01 -7.4709366171802252e+00 -2 -1 -1
1508 503 2 4.0999999999999998e-01 -1.2613866510577402e+01 -5.0409700620253286e+00 -3.1953251293007678e+00 0 0 0
1479 493 2 4.0999999999999998e-01 -1.4789371832295961e+01 -1.4991953888397605e+01 -6.9069679521662195e+00 1 -2 1
1494 498 2 4.0999999999999998e-01 -8.3189628539372613e+00 -1.2319041989407054e+01 -6.0082875797260016e-02 0 1 1
2256 752 2 4.0999999999999998e-01 -4.7580226465240667e+00 -1.2410098748858331e+01 -2.9796909521255799e-03 2 0 0
816 272 2 4.0999999999999998e-01 -6.3665386194578737e+00 -1.3169011572527047e+01 -7.4748929104744715e+00 -1 1 -2
1907 636 2 4.0999999999999998e-01 -4.3984692457351944e+00 -8.1473602228351929e+00 -7.5186745493991056e+00 -1 -1 -1
912 304 2 4.0999999999999998e-01 -1.1122244502336876e+01 -1.0749457962594246e+01 4.5517007463787298e+00 -2 0 -1
295 99 1 -8.1999999999999995e-01 -9.6284704106027803e+00 -6.2111809340943740e+00 4.5116860455226355e+00 -2 2 -3
910 304 1 -8.1999999999999995e-01 -1.0629436380685757e+01 -1.0312876247382533e+01 3.7990051458228589e+00 -2 0 -1
911 304 2 4.0999999999999998e-01 -1.0076920222817282e+01 -1.0996131471640968e+01 3.3216140000593857e+00 -2 0 -1
1144 382 1 -8.1999999999999995e-01 -8.1103889539564769e+00 -9.4941532478868496e+00 4.6220442049180459e+00 0 -1 3
158 53 2 4.0999999999999998e-01 -2.6578578041175120e+00 -1.3665769934998377e+01 4.9309896326131071e+00 -3 0 -1
856 286 1 -8.1999999999999995e-01 -1.1521790767806950e+01 -7.8211605590549977e+00 3.1622439898060239e+00 0 3 0
837 279 2 4.0999999999999998e-01 -1.4081658558941077e+01 -1.2880896875296020e+01 4.6143701219977675e+00 -1 2 2
1898 633 2 4.0999999999999998e-01 -8.0441853573007407e+00 -1.4702431873741688e+01 7.0486112763117763e+00 0 1 1
857 286 2 4.0999999999999998e-01 -1.1092749339436494e+01 -8.7220812987616831e+00 3.0968271006845232e+00 0 3 0
858 286 2 4.0999999999999998e-01 -1.0947675020275934e+01 -7.2179818472904200e+00 3.7159412605881297e+00 0 3 0
1762 588 1 -8.1999999999999995e-01 -1.2277039363954888e+01 -8.9206919665705975e+00 5.6554141899347901e+00 1 1 0
1145 382 2 4.0999999999999998e-01 -9.0882436739061063e+00 -9.5675250205277820e+00 4.4260064007131685e+00 0 -1 3
1012 338 1 -8.1999999999999995e-01 -1.1567044298602740e+01 -1.2555299320984865e+01 6.3472281639718275e-01 0 2 1
846 282 2 4.0999999999999998e-01 -1.4880511240374888e+01 -8.5133174937863192e+00 3.3880081904162775e+00 0 0 0
845 282 2 4.0999999999999998e-01 -1.3357410538907816e+01 -8.1817701543695520e+00 2.9012796165996253e+00 0 0 0
844 282 1 -8.1999999999999995e-01 -1.4301179742775457e+01 -7.8513322353269270e+00 2.9124404975511933e+00 0 0 0
962 321 2 4.0999999999999998e-01 -1.0892336122443613e+01 -5.6711996955668074e+00 5.6894902134814860e+00 -1 -1 0
2444 815 2 4.0999999999999998e-01 -1.2532561816292379e+01 -1.1229475278955370e+01 1.4649111333029499e+00 -1 0 2
1859 620 2 4.0999999999999998e-01 -8.6899005547098760e+00 -1.3045364070077479e+01 3.1594803446400821e+00 -2 0 1
2077 693 1 -8.1999999999999995e-01 -1.1781172370313861e+01 -1.3154995557171873e+01 4.5463201879148105e+00 1 0 1
1013 338 2 4.0999999999999998e-01 -1.0598097187798583e+01 -1.2784007840963016e+01 7.2878670023877490e-01 0 2 1
2079 693 2 4.0999999999999998e-01 -1.2100643851539978e+01 -1.4083821953657351e+01 4.3586140376216296e+00 1 0 1
1014 338 2 4.0999999999999998e-01 -1.2121720681868183e+01 -1.3278896534394844e+01 1.0455211739394112e+00 0 2 1
2078 693 2 4.0999999999999998e-01 -1.1052369739016857e+01 -1.2917054970934213e+01 3.9042570158215018e+00 1 0 1
1763 588 2 4.0999999999999998e-01 -1.1875420947375321e+01 -8.5940060748618077e+00 4.7998482468417709e+00 1 1 0
2443 815 1 -8.1999999999999995e-01 -1.2991404225414549e+01 -1.0422323400174049e+01 1.8363725872767578e+00 -1 0 2
1764 588 2 4.0999999999999998e-01 -1.3272735375465967e+01 -8.9485867315569152e+00 5.5669525753584015e+00 1 1 0
765 255 2 4.0999999999999998e-01 -7.2750957230274169e+00 -8.1184798546014747e+00 3.3659256985487378e+00 0 -1 1
2445 815 2 4.0999999999999998e-01 -1.2556477955814044e+01 -1.0158324156633569e+01 2.6972777221266053e+00 -1 0 2
963 321 2 4.0999999999999998e-01 -1.2326431367322433e+01 -5.4184516471253694e+00 4.9504683695290250e+00 -1 -1 0
481 161 1 -8.1999999999999995e-01 -1.4915668080268690e+01 -9.3777051700892216e+00 5.2197956176451772e+00 -2 1 0
861 287 2 4.0999999999999998e-01 -1.4056839397240772e+01 -9.3741911954753085e+00 5.1905476793491445e-01 -1 1 1
835 279 1 -8.1999999999999995e-01 -1.5066743680124551e+01 -1.3038065872818864e+01 4.6845079285984550e+00 -1 2 2
1691 564 2 4.0999999999999998e-01 -9.4423194334107308e+00 -8.2751406600375645e+00 7.3662041798460880e+00 1 4 -1
2305 769 1 -8.1999999999999995e-01 -1.3118630282080828e+01 -1.4825513693436607e+01 8.9815913321668361e-01 -1 1 0