LAMMPS data file via write_data, version 15 May 2015, timestep = 18500000

2593 atoms
6 atom types
1728 bonds
4 bond types
864 angles
3 angle types
0 dihedrals
3 dihedral types
0 impropers
1 improper types

-1.4946953578558725e+01 1.4946953578558725e+01 xlo xhi
-1.4946953578558725e+01 1.4946953578558725e+01 ylo yhi
-1.4946953578558725e+01 1.4946953578558725e+01 zlo zhi

Masses

1 15.9994
2 1.00794
3 12.0107
4 1.00794
5 12.0107
6 12.0107

Bond Coeffs # harmonic

1 1000 1
2 469 1.4
3 367 1.08
4 469 0.7

Angle Coeffs # harmonic

1 100 109.47
2 35 120
3 63 120

Dihedral Coeffs # opls

1 0 7.25 0 0
2 0 7.25 0 0
3 0 7.25 0 0

Improper Coeffs # cvff

1 2.5 -1 2

Atoms # full

1604 535 2 4.0999999999999998e-01 -8.9391346410720303e+00 -1.0696047937606208e+01 -1.2046829403207358e+01 -6 4 -6
1603 535 1 -8.1999999999999995e-01 -8.8435229812450835e+00 -1.1688380066900319e+01 -1.2125205332355769e+01 -6 4 -6
196 66 1 -8.1999999999999995e-01 -1.2460121611575953e+01 -9.8109207837047379e+00 -1.2837525764697407e+01 -3 6 0
21 7 2 4.0999999999999998e-01 -1.3767422808167193e+01 -9.1608482650471892e+00 -1.3665396075476174e+01 -6 8 4
828 276 2 4.0999999999999998e-01 -1.4777629465415270e+01 -9.5298441233084930e+00 -7.5594932299751729e+00 -5 0 -3
1299 433 2 4.0999999999999998e-01 -8.6354372994664601e+00 -8.9967541442668661e+00 -1.0734103022826599e+01 -4 3 5
1297 433 1 -8.1999999999999995e-01 -8.6286174685904538e+00 -8.8898270086496716e+00 -1.1728350219441751e+01 -4 3 5
405 135 2 4.0999999999999998e-01 -1.2558519054269382e+01 -8.2064396973030611e+00 -1.1550626031339444e+01 -2 1 0
2555 852 2 4.0999999999999998e-01 -9.9782323144794631e+00 -8.8568869551311700e+00 -1.4636584216007398e+01 -5 7 -1
1806 602 2 4.0999999999999998e-01 -1.1221002896714598e+01 -1.1691503491886236e+01 -1.1318828555376477e+01 -3 3 -5
2554 852 1 -8.1999999999999995e-01 -1.0316536654674616e+01 -8.5832559458828310e+00 -1.3736204459912891e+01 -5 7 -1
1804 602 1 -8.1999999999999995e-01 -1.1666821534436375e+01 -1.1542035057778874e+01 -1.0436268450926349e+01 -3 3 -5
2556 852 2 4.0999999999999998e-01 -9.5562969597889538e+00 -8.5616935652467063e+00 -1.3086914008886616e+01 -5 7 -1
1605 535 2 4.0999999999999998e-01 -8.6329081402785839e+00 -1.1929146643223625e+01 -1.3072665239565751e+01 -6 4 -6
1054 352 1 -8.1999999999999995e-01 -1.1709958911902888e+01 -1.3910013941543241e+01 -8.6690787638392806e+00 -6 0 3
198 66 2 4.0999999999999998e-01 -1.2646607217554326e+01 -1.0784138301361116e+01 -1.2971981105169821e+01 -3 6 0
861 287 2 4.0999999999999998e-01 -1.2337556964601990e+01 -7.2249128254168564e+00 -1.3649987355261711e+01 -9 -4 3
19 7 1 -8.1999999999999995e-01 -1.4346961564716825e+01 -8.6306914059569912e+00 -1.4284327389811535e+01 -6 8 4
614 205 2 4.0999999999999998e-01 -1.4171697931142266e+01 -6.5092995167148047e+00 -9.5861391293145459e+00 -6 1 0
403 135 1 -8.1999999999999995e-01 -1.2811644309276922e+01 -7.9227448811924308e+00 -1.0625719399682788e+01 -2 1 0
197 66 2 4.0999999999999998e-01 -1.1540436927358250e+01 -9.5989907985114442e+00 -1.3168090876662218e+01 -3 6 0
22 8 1 -8.1999999999999995e-01 -1.2857706953104969e+01 -1.2853244445532663e+01 -1.3086494225529922e+01 -8 -2 0
747 249 2 4.0999999999999998e-01 -9.4408952281441429e+00 -6.7858889955972952e+00 -7.8322615535595377e+00 -7 2 -3
1805 602 2 4.0999999999999998e-01 -1.1641916896360440e+01 -1.2387512142552051e+01 -9.9028308009569841e+00 -3 3 -5
2174 725 2 4.0999999999999998e-01 -7.9873378623683307e+00 -1.0788727700958372e+01 -1.0103201944538187e+01 0 3 2
859 287 1 -8.1999999999999995e-01 -1.2404407146166424e+01 -6.2297389376095431e+00 -1.3578102772158342e+01 -9 -4 3
404 135 2 4.0999999999999998e-01 -1.2201503548142163e+01 -8.3592117236950472e+00 -9.9644838848406145e+00 -2 1 0
24 8 2 4.0999999999999998e-01 -1.2616455204377161e+01 -1.3710602653701365e+01 -1.2631805368516055e+01 -8 -2 0
745 249 1 -8.1999999999999995e-01 -1.0407677038218679e+01 -6.8627586745895321e+00 -8.0760471438068464e+00 -7 2 -3
860 287 2 4.0999999999999998e-01 -1.2757158745339252e+01 -5.8565216004684988e+00 -1.4436171855287355e+01 -9 -4 3
23 8 2 4.0999999999999998e-01 -1.3531152504405746e+01 -1.3034107073274747e+01 -1.3803269820453512e+01 -8 -2 0
2173 725 1 -8.1999999999999995e-01 -8.1053554540587172e+00 -1.0340711509945962e+01 -9.2169960839519298e+00 0 3 2
2151 717 2 4.0999999999999998e-01 -9.4167371347033466e+00 -1.4495827749668280e+01 -1.0588920811479481e+01 2 5 4
1867 623 1 -8.1999999999999995e-01 -1.4918119956379556e+01 -1.0925104568028786e+01 -1.2007576845088371e+01 -2 3 -1
1869 623 2 4.0999999999999998e-01 -1.4066143853618980e+01 -1.0408966958831710e+01 -1.1919564664902005e+01 -2 3 -1
1226 409 2 4.0999999999999998e-01 -1.0106426475962063e+01 -1.3045579644520801e+01 -8.2687967783850205e+00 -1 7 1
1225 409 1 -8.1999999999999995e-01 -9.2129144575591866e+00 -1.2867324505847199e+01 -7.8566453174373434e+00 -1 7 1
1429 477 1 -8.1999999999999995e-01 -1.0595313343772634e+01 -9.2925091913855145e+00 -9.3515680779865420e+00 -2 0 -3
746 249 2 4.0999999999999998e-01 -1.0551028657696811e+01 -7.6943754037128489e+00 -8.6125836016419548e+00 -7 2 -3
1430 477 2 4.0999999999999998e-01 -1.1076424069629864e+01 -1.0087551834817491e+01 -9.7209555475795355e+00 -2 0 -3
613 205 1 -8.1999999999999995e-01 -1.4841425065260603e+01 -5.7992448604344791e+00 -9.8036141292970065e+00 -6 1 0
1411 471 1 -8.1999999999999995e-01 -1.2927063259890115e+01 -1.0158368425535585e+01 -7.5184442979944555e+00 -2 0 -3
1298 433 2 4.0999999999999998e-01 -8.1425177705152763e+00 -8.0499758379461213e+00 -1.1969937728238918e+01 -4 3 5
452 151 2 4.0999999999999998e-01 -7.9147305740640066e+00 -1.3199639125492183e+01 -9.3986799601806261e+00 -4 7 -2
1981 661 1 -8.1999999999999995e-01 -9.2726122957447483e+00 -5.3677908901240325e+00 -1.4075780238323361e+01 -4 4 0
453 151 2 4.0999999999999998e-01 -7.9513035796150975e+00 -1.2760241357596968e+01 -1.0971015248976219e+01 -4 7 -2
20 7 2 4.0999999999999998e-01 -1.4675626840730756e+01 -7.8118438253966325e+00 -1.3813715850903256e+01 -6 8 4
942 314 2 4.0999999999999998e-01 -1.2132038443373485e+01 -1.2365770047947031e+01 -1.4546488356904494e+01 3 5 4
1055 352 2 4.0999999999999998e-01 -1.1261979476079453e+01 -1.4413547635144010e+01 -9.4078451075193819e+00 -6 0 3
345 115 2 4.0999999999999998e-01 -1.0528929699883449e+01 -5.9213250074473560e+00 -1.1632432380590304e+01 -4 -1 0
2175 725 2 4.0999999999999998e-01 -8.1462564611084129e+00 -1.1032873770543766e+01 -8.4964088331598315e+00 0 3 2
451 151 1 -8.1999999999999995e-01 -7.9033232253110342e+00 -1.3535081466894166e+01 -1.0340675567962712e+01 -4 7 -2
1340 447 2 4.0999999999999998e-01 -8.0785177648757216e+00 -6.0254186059371104e+00 -1.3091440002351366e+01 -7 -2 0
1056 352 2 4.0999999999999998e-01 -1.2400209043378860e+01 -1.4492321044410202e+01 -8.2395666597124517e+00 -6 0 3
1431 477 2 4.0999999999999998e-01 -9.6329154743395051e+00 -9.5226850550250237e+00 -9.2072876579088057e+00 -2 0 -3
343 115 1 -8.1999999999999995e-01 -1.0169107933928501e+01 -5.3693599171042710e+00 -1.0880188886272911e+01 -4 -1 0
1413 471 2 4.0999999999999998e-01 -1.2644230851159090e+01 -1.0498614447540220e+01 -8.4152419232285620e+00 -2 0 -3
1982 661 2 4.0999999999999998e-01 -9.8240551159776661e+00 -5.7911308308456118e+00 -1.4794599778035833e+01 -4 4 0
344 115 2 4.0999999999999998e-01 -1.0439438975843309e+01 -5.7775840671839429e+00 -1.0008247570909141e+01 -4 -1 0
1632 544 2 4.0999999999999998e-01 -5.6206424595790061e+00 -1.3390942541176662e+01 -8.3560791608020253e+00 -6 -2 2
1617 539 2 4.0999999999999998e-01 -4.3748031540480543e+00 -5.0495973955867068e+00 -1.1426277611494861e+01 -7 -2 2
1666 556 1 -8.1999999999999995e-01 -5.4634092137732129e+00 -7.2734850254537697e+00 -8.5215509456281762e+00 -2 8 -4
1616 539 2 4.0999999999999998e-01 -2.7488211170968313e+00 -5.0717413144741155e+00 -1.1276817512733231e+01 -7 -2 2
1040 347 2 4.0999999999999998e-01 -3.7031358648752466e-01 -1.3497605546598125e+01 -9.9132153831116305e+00 -6 -1 -1
485 162 2 4.0999999999999998e-01 -2.5812331395574262e-02 -1.0951814622666268e+01 -1.4390683722615485e+01 -4 -5 2
1014 338 2 4.0999999999999998e-01 -7.1409833950762618e+00 -7.1540543729880453e+00 -7.6543153616886883e+00 -1 -1 -4
1560 520 2 4.0999999999999998e-01 -4.1157811734129410e+00 -1.4034064563763241e+01 -1.4787063770090130e+01 1 4 0
1448 483 2 4.0999999999999998e-01 -5.9921769844366928e+00 -5.9577807410013612e+00 -1.0128385000119959e+01 -1 -1 -4
1559 520 2 4.0999999999999998e-01 -2.5490375152824747e+00 -1.4492653838077029e+01 -1.4746363750651946e+01 1 4 0
1934 645 2 4.0999999999999998e-01 -5.2990251449962855e+00 -1.0912058891293125e+01 -8.4181271122987837e+00 0 4 3
1987 663 1 -8.1999999999999995e-01 -1.3945808656692016e+00 -5.7889610201151989e+00 -8.5032022547597599e+00 -1 2 0
111 37 2 4.0999999999999998e-01 -6.2188699426449965e+00 -1.4477659177074012e+01 -1.0484096064088096e+01 -1 6 0
1667 556 2 4.0999999999999998e-01 -4.7514665838577290e+00 -7.1878462212455965e+00 -7.8245494238550322e+00 -2 8 -4
672 224 2 4.0999999999999998e-01 -8.8262730842635229e-01 -7.2369601990435823e+00 -1.3449792745835483e+01 0 2 0
667 223 1 -8.1999999999999995e-01 -1.5182201674828164e+00 -8.6954080569645704e+00 -1.2877994039780422e+01 -2 0 -5
671 224 2 4.0999999999999998e-01 -1.0424355365031257e+00 -5.6272488238928524e+00 -1.3673258474889373e+01 0 2 0
1468 490 1 -8.1999999999999995e-01 -1.7081871134622872e+00 -1.1534837618930876e+01 -1.1639484356071783e+01 -1 1 7
670 224 1 -8.1999999999999995e-01 -4.0917903631674513e-01 -6.3995923307026281e+00 -1.3723049428972852e+01 0 2 0
1668 556 2 4.0999999999999998e-01 -5.4364414055269332e+00 -8.1927103199929370e+00 -8.9143677125948209e+00 -2 8 -4
2264 755 2 4.0999999999999998e-01 -2.1967898246922264e+00 -1.2589064651202694e+01 -1.0025658081669231e+01 -6 -2 -2
1670 557 2 4.0999999999999998e-01 -1.8283705074234486e+00 -7.1861801830617509e+00 -9.5362110118781658e+00 -6 -1 1
2138 713 2 4.0999999999999998e-01 -5.1386209902510842e+00 -1.2305666226655456e+01 -1.1137042414674100e+01 0 8 -6
1469 490 2 4.0999999999999998e-01 -9.5617933124230525e-01 -1.0917006833778149e+01 -1.1409752197960694e+01 -1 1 7
1341 447 2 4.0999999999999998e-01 -6.8938293565583475e+00 -6.1151547240013286e+00 -1.1971124394544677e+01 -7 -2 0
1671 557 2 4.0999999999999998e-01 -2.7767727577793924e+00 -8.5151618140811038e+00 -9.5047903299681344e+00 -6 -1 1
1669 557 1 -8.1999999999999995e-01 -2.0192327173521853e+00 -8.0636454892560643e+00 -9.9762492866074375e+00 -6 -1 1
109 37 1 -8.1999999999999995e-01 -5.2943801268942323e+00 -1.4752239179748441e+01 -1.0748542462925803e+01 -1 6 0
1933 645 1 -8.1999999999999995e-01 -4.8126556050778735e+00 -1.0127526578408741e+01 -8.8027843818727138e+00 0 4 3
1988 663 2 4.0999999999999998e-01 -4.8032298745713220e-01 -5.4886643539600524e+00 -8.2312429443809716e+00 -1 2 0
668 223 2 4.0999999999999998e-01 -2.4761960794794220e+00 -8.6315733880499170e+00 -1.3157662952395855e+01 -2 0 -5
2139 713 2 4.0999999999999998e-01 -4.8628195329103221e+00 -1.0829500649337106e+01 -1.0495548061641536e+01 0 8 -6
1743 581 2 4.0999999999999998e-01 -4.9495254494255363e+00 -1.4343920839813801e+01 -1.2655280813291469e+01 -8 1 -2
1319 440 2 4.0999999999999998e-01 -7.4550999655311045e-01 -9.0312092248928906e+00 -7.6906973660837119e+00 -1 3 -3
2137 713 1 -8.1999999999999995e-01 -5.1702737670676804e+00 -1.1321274894109772e+01 -1.1310187496232324e+01 0 8 -6
904 302 1 -8.1999999999999995e-01 -5.5487343150042783e+00 -9.1719684387269549e+00 -1.3659548655843551e+01 -6 0 2
87 29 2 4.0999999999999998e-01 -8.9846734880652512e-01 -1.3267782832792943e+01 -1.4133722482589341e+01 -5 3 -2
669 223 2 4.0999999999999998e-01 -1.4564472409022411e+00 -8.6273143296804236e+00 -1.1882225608273696e+01 -2 0 -5
886 296 1 -8.1999999999999995e-01 -7.0918625548914882e+00 -1.2068784464807647e+01 -1.4669029932126646e+01 -1 -2 0
1935 645 2 4.0999999999999998e-01 -3.9899480265744529e+00 -9.9482109405679253e+00 -8.2633350498898928e+00 0 4 3
1470 490 2 4.0999999999999998e-01 -2.0778234802005660e+00 -1.1291022372006655e+01 -1.2536106076519259e+01 -1 1 7
905 302 2 4.0999999999999998e-01 -5.8070948114964889e+00 -1.0013468692205601e+01 -1.3185065070512579e+01 -6 0 2
1447 483 1 -8.1999999999999995e-01 -6.1219233825157815e+00 -5.1906466342593554e+00 -1.0756619487196438e+01 -1 -1 -4
888 296 2 4.0999999999999998e-01 -6.6296894756913467e+00 -1.2828452497779359e+01 -1.4211528032969399e+01 -1 -2 0
389 130 2 4.0999999999999998e-01 -4.2125910401033781e+00 -1.1447921274368863e+01 -1.2923015097241187e+01 -1 3 0
390 130 2 4.0999999999999998e-01 -4.0339898338130986e+00 -1.1558289359089835e+01 -1.4542449194108118e+01 -1 3 0
388 130 1 -8.1999999999999995e-01 -3.5921637954866590e+00 -1.1717337848153786e+01 -1.3659555773268382e+01 -1 3 0
86 29 2 4.0999999999999998e-01 -1.9967583125980983e+00 -1.2060430204095082e+01 -1.4185711471082801e+01 -5 3 -2
906 302 2 4.0999999999999998e-01 -6.1655346541620712e+00 -8.4332537647955021e+00 -1.3387766721949705e+01 -6 0 2
1741 581 1 -8.1999999999999995e-01 -5.4017523701667098e+00 -1.4124725798141743e+01 -1.3519833745660806e+01 -8 1 -2
1339 447 1 -8.1999999999999995e-01 -7.3853329882326051e+00 -6.6184777282844234e+00 -1.2681826544231720e+01 -7 -2 0
85 29 1 -8.1999999999999995e-01 -1.0490329625878836e+00 -1.2311149960563245e+01 -1.4383103692098672e+01 -5 3 -2
1615 539 1 -8.1999999999999995e-01 -3.5088794451866967e+00 -5.0541628072291438e+00 -1.1926440297785222e+01 -7 -2 2
2263 755 1 -8.1999999999999995e-01 -1.9493391983970643e+00 -1.2724954090611837e+01 -9.0663303705215306e+00 -6 -2 -2
1630 544 1 -8.1999999999999995e-01 -5.9209980818887491e+00 -1.2505012878192836e+01 -8.0026352133749050e+00 -6 -2 2
2265 755 2 4.0999999999999998e-01 -1.5011621152578858e+00 -1.1901714697086611e+01 -8.7178743139214063e+00 -6 -2 -2
1167 389 2 4.0999999999999998e-01 -2.2565630300156592e-01 -9.3698580048619711e+00 -1.0293167602905580e+01 -3 3 -2
163 55 1 -8.1999999999999995e-01 -1.2263452482253925e+00 -1.4905337616746449e+01 -1.3784462969198508e+01 -9 -1 -1
1989 663 2 4.0999999999999998e-01 -1.9319179394322656e+00 -4.9979798083391209e+00 -8.7958198401088303e+00 -1 2 0
1507 503 1 -8.1999999999999995e-01 -1.2310019132539111e+01 -7.5870193428082491e+00 -6.1358305859857598e+00 -6 3 -2
1509 503 2 4.0999999999999998e-01 -1.1564632962473045e+01 -7.1137383403027989e+00 -6.6053111318686764e+00 -6 3 -2
1508 503 2 4.0999999999999998e-01 -1.2444663461249927e+01 -8.4881149277165839e+00 -6.5480260311627490e+00 -6 3 -2
1711 571 1 -8.1999999999999995e-01 -1.3349763196963741e+01 -1.2119846132846378e+01 -2.9381070529738089e+00 -10 -1 5
90 30 2 4.0999999999999998e-01 -7.6844670030845617e+00 -5.5872248116163803e+00 -9.6171260119112034e-01 -2 6 6
650 217 2 4.0999999999999998e-01 -1.3514089911036354e+01 -1.3063627271755339e+01 -5.7594769317506316e+00 -1 -1 -5
1997 666 2 4.0999999999999998e-01 -1.2028488409034942e+01 -1.0375920412362664e+01 -3.7416285578305857e+00 -4 5 0
1713 571 2 4.0999999999999998e-01 -1.2442977138336293e+01 -1.2308390535239845e+01 -2.5610162620502930e+00 -10 -1 5
1712 571 2 4.0999999999999998e-01 -1.4048518115491488e+01 -1.2379213832429244e+01 -2.2714156865614559e+00 -10 -1 5
1012 338 1 -8.1999999999999995e-01 -7.9157531811810742e+00 -7.0221012234653806e+00 -7.0359889190033922e+00 -1 -1 -4
449 150 2 4.0999999999999998e-01 -1.4357066363494161e+01 -7.1683522506786392e+00 -4.0433681423364884e+00 0 -3 -1
851 284 2 4.0999999999999998e-01 -1.2152879748834350e+01 -8.8205763070709864e+00 -5.3618062337388039e-01 1 -4 -3
2240 747 2 4.0999999999999998e-01 -1.4500292531907171e+01 -1.4279410461613912e+01 -1.8563703868679191e+00 -1 -3 -6
2079 693 2 4.0999999999999998e-01 -1.2056676309836501e+01 -5.0420154661975012e+00 -2.9404437935627463e+00 -7 2 -1
2036 679 2 4.0999999999999998e-01 -1.0367769569166105e+01 -1.3026409017164802e+01 -4.1146158612142454e+00 -3 2 -7
1996 666 1 -8.1999999999999995e-01 -1.1118855504093903e+01 -1.0047308406061941e+01 -3.4874837508721122e+00 -4 5 0
1687 563 1 -8.1999999999999995e-01 -1.0519815000217683e+01 -7.1725894584631664e+00 -3.6589869095820440e+00 -4 2 1
2037 679 2 4.0999999999999998e-01 -1.0186334524569226e+01 -1.1417049187572056e+01 -3.9055976925574427e+00 -3 2 -7
2035 679 1 -8.1999999999999995e-01 -9.8260843300643632e+00 -1.2225749954219156e+01 -4.3706033887470692e+00 -3 2 -7
1689 563 2 4.0999999999999998e-01 -1.1276815609961373e+01 -6.9583723600714684e+00 -4.2762944738193358e+00 -4 2 1
227 76 2 4.0999999999999998e-01 -1.3568300903341346e+01 -1.2562662718628566e+01 -2.0918535120324400e-01 -7 0 -5
1688 563 2 4.0999999999999998e-01 -9.6783387941008456e+00 -6.7599067075626920e+00 -4.0077249162261932e+00 -4 2 1
1564 522 1 -8.1999999999999995e-01 -8.2719422281914952e+00 -9.2522251744250870e+00 -1.7253602001576844e+00 -5 -1 11
1566 522 2 4.0999999999999998e-01 -8.7422539691667751e+00 -8.7525771518207680e+00 -9.9792211838747136e-01 -5 -1 11
1565 522 2 4.0999999999999998e-01 -8.9471472069806204e+00 -9.6801196396284670e+00 -2.3262029372367863e+00 -5 -1 11
2444 815 2 4.0999999999999998e-01 -8.9409983325924536e+00 -1.3822200221915478e+01 -2.9086428393799046e+00 -5 2 4
1636 546 1 -8.1999999999999995e-01 -1.3932382938952021e+01 -8.2035759306934715e+00 -6.8434139853442844e-01 -2 1 -3
1731 577 2 4.0999999999999998e-01 -8.3351196765747133e+00 -7.2901774956133405e+00 -2.3380756740511455e+00 -1 2 1
1998 666 2 4.0999999999999998e-01 -1.1178807272354405e+01 -9.0926988810173235e+00 -3.1957066060964756e+00 -4 5 0
2445 815 2 4.0999999999999998e-01 -8.8431065400233244e+00 -1.3983233015994450e+01 -1.2865664314512077e+00 -5 2 4
448 150 1 -8.1999999999999995e-01 -1.4748617321769258e+01 -7.8248387176066130e+00 -3.3986039952752076e+00 0 -3 -1
1730 577 2 4.0999999999999998e-01 -7.8863343979632754e+00 -6.0413905419290899e+00 -3.2897947677318697e+00 -1 2 1
651 217 2 4.0999999999999998e-01 -1.3058949098660618e+01 -1.1865874592906732e+01 -4.7471124300210352e+00 -1 -1 -5
649 217 1 -8.1999999999999995e-01 -1.3384887673682540e+01 -1.2076157581180833e+01 -5.6688241977235876e+00 -1 -1 -5
2077 693 1 -8.1999999999999995e-01 -1.1532640297430696e+01 -5.4390852286987759e+00 -2.1869656704453639e+00 -7 2 -1
2443 815 1 -8.1999999999999995e-01 -8.4340280194430370e+00 -1.4248717464907411e+01 -2.1595957451262340e+00 -5 2 4
1637 546 2 4.0999999999999998e-01 -1.3815024338809735e+01 -7.9432293866674168e+00 -1.6427015130693068e+00 -2 1 -3
1412 471 2 4.0999999999999998e-01 -1.3073104642408422e+01 -1.0930436897927937e+01 -6.8999059945804984e+00 -2 0 -3
1729 577 1 -8.1999999999999995e-01 -7.9015046242549714e+00 -6.3891881307713607e+00 -2.3523438961136023e+00 -1 2 1
25 9 1 -8.1999999999999995e-01 -8.3545384743347846e+00 -5.5469990143005266e+00 -4.9316751006682740e+00 -5 2 -2
2115 705 2 4.0999999999999998e-01 -8.1547046436891115e+00 -1.2726392641401377e+01 -5.0451217665170915e+00 -6 -8 -1
1364 455 2 4.0999999999999998e-01 -9.3833476909172724e+00 -9.3370362874220838e+00 -4.9334212626128302e+00 0 4 0
2078 693 2 4.0999999999999998e-01 -1.1072894633651527e+01 -6.2694157996023705e+00 -2.5019140917085760e+00 -7 2 -1
226 76 1 -8.1999999999999995e-01 -1.4403180287323993e+01 -1.3020749009041173e+01 -5.1437517062298710e-01 -7 0 -5
710 237 2 4.0999999999999998e-01 -1.4255515620808811e+01 -7.0689946948329672e+00 -5.9339028400168026e+00 1 6 3
1365 455 2 4.0999999999999998e-01 -8.8589060483057303e+00 -1.0221374356318002e+01 -6.2021030093427960e+00 0 4 0
26 9 2 4.0999999999999998e-01 -8.0695025445391586e+00 -6.0608892148572320e+00 -5.7407973784622417e+00 -5 2 -2
1013 338 2 4.0999999999999998e-01 -8.1770902783332975e+00 -7.9009565626251037e+00 -6.6368350913386838e+00 -1 -1 -4
850 284 1 -8.1999999999999995e-01 -1.1335524795171276e+01 -9.3132239636135878e+00 -2.3745560823388168e-01 1 -4 -3
1363 455 1 -8.1999999999999995e-01 -8.8546278079222915e+00 -9.3139465779737272e+00 -5.7819078926194916e+00 0 4 0
1638 546 2 4.0999999999999998e-01 -1.4685146966921200e+01 -8.8572291966478716e+00 -6.0629557567534675e-01 -2 1 -3
315 105 2 4.0999999999999998e-01 -1.4793898937617671e+01 -5.1063489643850524e+00 -6.6271841873735546e+00 -3 1 -6
88 30 1 -8.1999999999999995e-01 -7.9118366199837933e+00 -5.1917706238098802e+00 -7.1810068736210653e-02 -2 6 6
1277 426 2 4.0999999999999998e-01 -1.1291468531454347e+01 -1.2481881639429087e+01 -9.1283033877623154e-02 -7 3 0
1227 409 2 4.0999999999999998e-01 -9.1957452403368940e+00 -1.3234130311222476e+01 -6.9265022163383225e+00 -1 7 1
1716 572 2 4.0999999999999998e-01 -1.4779009348611092e+01 -1.0823421479963198e+01 -5.1479574899081424e+00 -2 1 3
2074 692 1 -8.1999999999999995e-01 -1.0710281315322348e+01 -1.4937893062686667e+01 -3.7619607654484657e+00 -2 1 1
1966 656 1 -8.1999999999999995e-01 -4.7719924261354532e+00 -5.0337152497833380e+00 -5.3603338102631675e+00 0 0 5
716 239 2 4.0999999999999998e-01 -2.3397090283169852e-01 -6.5638358907309975e+00 -4.8149586108706082e+00 -5 3 2
1909 637 1 -8.1999999999999995e-01 -1.2081182232453838e+00 -7.5177546208864374e+00 -7.4468615967866469e-03 1 5 -2
1911 637 2 4.0999999999999998e-01 -3.7329788251163265e-01 -6.9716787835849567e+00 -7.7329634440367556e-02 1 5 -2
715 239 1 -8.1999999999999995e-01 -5.7917523687477157e-01 -5.6259274398934540e+00 -4.7807663806648666e+00 -5 3 2
2168 723 2 4.0999999999999998e-01 -6.6371376531753157e-01 -1.1020250344382282e+01 -3.9668165077445874e+00 -7 3 2
1677 559 2 4.0999999999999998e-01 -6.5285057993438294e+00 -1.2002256892294682e+01 -2.5273329070555501e+00 -6 5 -2
1608 536 2 4.0999999999999998e-01 -6.4874062410837521e+00 -9.7551292812882711e+00 -2.4447143494414547e-01 -3 4 -1
1520 507 2 4.0999999999999998e-01 -2.5718892699503986e+00 -6.7212767661587769e+00 -7.0793848547246174e+00 -1 -4 0
185 62 2 4.0999999999999998e-01 -2.0750904575509015e+00 -7.5891459040205147e+00 -1.7268265694272369e+00 0 0 -1
152 51 2 4.0999999999999998e-01 -4.6053871095099232e+00 -1.4763103877713506e+01 -3.1714915320539792e+00 -8 -1 1
2562 854 2 4.0999999999999998e-01 -2.8372924320146851e+00 -1.3662679415123021e+01 -7.3725835357473031e+00 -3 -1 2
1004 335 2 4.0999999999999998e-01 -1.8692237534570211e-01 -1.3787151901398447e+01 -7.2847752687715444e+00 0 5 2
504 168 2 4.0999999999999998e-01 -7.5884427043922464e-01 -1.4272350176413754e+01 -3.4286556033631932e-01 -1 6 -1
502 168 1 -8.1999999999999995e-01 -1.2270297883233461e+00 -1.3494300076299266e+01 -7.6173042964457238e-01 -1 6 -1
2001 667 2 4.0999999999999998e-01 -4.1067206438122597e+00 -5.7211601328816180e+00 -3.6931612527884106e+00 1 3 3
792 264 2 4.0999999999999998e-01 -2.2255858157850561e+00 -1.2631791416331623e+01 -3.7242252268329814e+00 -3 2 -5
184 62 1 -8.1999999999999995e-01 -2.8892126899175370e+00 -7.8321606583832581e+00 -2.2542317575353419e+00 0 0 -1
1999 667 1 -8.1999999999999995e-01 -4.5198551039777399e+00 -5.7349623939655263e+00 -2.7825917469047621e+00 1 3 3
2557 853 1 -8.1999999999999995e-01 -2.8099776956335294e+00 -9.7173816623529987e+00 -7.0161550677982163e+00 -1 0 1
981 327 2 4.0999999999999998e-01 -5.9362632102143760e+00 -8.3778239316751595e+00 -3.1412189306334266e+00 2 8 1
1675 559 1 -8.1999999999999995e-01 -5.9456278441595405e+00 -1.1656529410956116e+01 -3.2626785516571228e+00 -6 5 -2
1521 507 2 4.0999999999999998e-01 -3.8463471972319816e+00 -6.3833747296883860e+00 -6.1159402705681156e+00 -1 -4 0
791 264 2 4.0999999999999998e-01 -1.8757752867317627e+00 -1.3396582304671698e+01 -2.3244488995101875e+00 -3 2 -5
2088 696 2 4.0999999999999998e-01 -3.1696594459342329e+00 -1.0596505876150170e+01 -3.8273580098573010e+00 -4 0 -1
132 44 2 4.0999999999999998e-01 -5.1252429628452738e+00 -1.4318524058496918e+01 -4.9686469743096495e-01 -5 -2 4
790 264 1 -8.1999999999999995e-01 -1.9718343557184657e+00 -1.3507588345302258e+01 -3.3136191446905769e+00 -3 2 -5
1484 495 2 4.0999999999999998e-01 -4.6433719886099709e+00 -1.1376137184942166e+01 -4.5124947170195941e+00 -4 4 2
1631 544 2 4.0999999999999998e-01 -6.6335500047402647e+00 -1.2644669669517571e+01 -7.3150501732393725e+00 -6 -2 2
2114 705 2 4.0999999999999998e-01 -6.5710519544212040e+00 -1.2630052328244590e+01 -4.6585871884650789e+00 -6 -8 -1
296 99 2 4.0999999999999998e-01 -3.0933372841243827e+00 -1.1150510283391073e+01 -1.1583863336011238e+00 -3 5 -3
2087 696 2 4.0999999999999998e-01 -2.3669406995121509e+00 -9.4101485020705322e+00 -3.0432374461581091e+00 -4 0 -1
297 99 2 4.0999999999999998e-01 -4.1964091780850303e+00 -1.1918390434678251e+01 -2.3089576968971848e-01 -3 5 -3
295 99 1 -8.1999999999999995e-01 -3.2803606437063770e+00 -1.1517645707083359e+01 -2.4721057935833279e-01 -3 5 -3
2086 696 1 -8.1999999999999995e-01 -2.4149210959833525e+00 -1.0396196832654226e+01 -3.2026550979285151e+00 -4 0 -1
1485 495 2 4.0999999999999998e-01 -3.8177925576308329e+00 -1.2254140265530292e+01 -5.6143910199358569e+00 -4 4 2
2558 853 2 4.0999999999999998e-01 -3.1036346511969857e+00 -1.0433547671268457e+01 -6.3830047657106466e+00 -1 0 1
186 62 2 4.0999999999999998e-01 -3.4578862219706910e+00 -7.0196963806054233e+00 -2.3827605430601402e+00 0 0 -1
979 327 1 -8.1999999999999995e-01 -5.2546822224904108e+00 -9.0640165961730510e+00 -2.8870644950076549e+00 2 8 1
2113 705 1 -8.1999999999999995e-01 -7.2400376169517244e+00 -1.3070385736577524e+01 -5.2573960997364519e+00 -6 -8 -1
1519 507 1 -8.1999999999999995e-01 -3.3555172396898350e+00 -7.1108132503570065e+00 -6.5954468933519568e+00 -1 -4 0
2560 854 1 -8.1999999999999995e-01 -3.0839438693803167e+00 -1.3893390871002525e+01 -6.4313382356188988e+00 -3 -1 2
2559 853 2 4.0999999999999998e-01 -2.9499625703153622e+00 -8.8215944505462947e+00 -6.5942819270838058e+00 -1 0 1
980 327 2 4.0999999999999998e-01 -4.3609282451378029e+00 -8.6260733443095639e+00 -2.7900231985663400e+00 2 8 1
1483 495 1 -8.1999999999999995e-01 -3.9362620236451189e+00 -1.1343363289764456e+01 -5.2188436468832684e+00 -4 4 2
1676 559 2 4.0999999999999998e-01 -5.8075445122681035e+00 -1.0673217853014808e+01 -3.1441929490927922e+00 -6 5 -2
2561 854 2 4.0999999999999998e-01 -2.6196146334439412e+00 -1.4737230249118484e+01 -6.1623756509868528e+00 -3 -1 2
503 168 2 4.0999999999999998e-01 -1.6298930053117040e+00 -1.2923252960538946e+01 -4.6458551891737088e-02 -1 6 -1
2000 667 2 4.0999999999999998e-01 -5.3166508246053663e+00 -5.1308626944987044e+00 -2.7688971528439694e+00 1 3 3
2169 723 2 4.0999999999999998e-01 -7.9756479990017226e-02 -1.2125654438644709e+01 -5.0173982127959125e+00 -7 3 2
1931 644 2 4.0999999999999998e-01 -1.4241940832848865e+01 -1.4728337790701268e+01 4.2160126964095692e+00 -1 -4 -2
1932 644 2 4.0999999999999998e-01 -1.3907511835851029e+01 -1.3270241562747616e+01 4.8708095742848609e+00 -1 -4 -2
986 329 2 4.0999999999999998e-01 -1.1089912700898115e+01 -7.0684070760587590e+00 6.4040037032232124e+00 0 -2 3
1930 644 1 -8.1999999999999995e-01 -1.4638881437108699e+01 -1.3877767906184674e+01 4.5609423406239937e+00 -1 -4 -2
1327 443 1 -8.1999999999999995e-01 -1.2424681653365354e+01 -9.5414277680304096e+00 4.9095250013865002e+00 -5 2 1
1329 443 2 4.0999999999999998e-01 -1.2045473344267819e+01 -8.6678617916961667e+00 5.2146331738694816e+00 -5 2 1
2548 850 1 -8.1999999999999995e-01 -1.1103755791911089e+01 -1.0823402965325620e+01 3.0318915232234414e+00 -6 -5 0
2549 850 2 4.0999999999999998e-01 -1.1518246763302432e+01 -1.1668282030181215e+01 3.3700987241676064e+00 -6 -5 0
2396 799 2 4.0999999999999998e-01 -1.2939228019356003e+01 -6.0339041849260404e+00 6.3196325321772662e-03 -7 1 -1
2550 850 2 4.0999999999999998e-01 -1.1384474824415658e+01 -1.0670470787368753e+01 2.0843599799493031e+00 -6 -5 0
994 332 1 -8.1999999999999995e-01 -1.4437142921060934e+01 -7.0209479150328615e+00 2.9448567833756680e+00 -4 0 -1
1093 365 1 -8.1999999999999995e-01 -1.1788293778450399e+01 -1.3422158618523854e+01 3.6440025079573299e+00 -2 -2 5
2395 799 1 -8.1999999999999995e-01 -1.2773874815366046e+01 -5.9819506141084418e+00 9.9118845038430514e-01 -7 1 -1
319 107 1 -8.1999999999999995e-01 -9.2214160057596324e+00 -7.7444086350903536e+00 3.5864474413413738e-01 -5 5 2
12 4 2 4.0999999999999998e-01 -8.6226777561047392e+00 -9.2760228123773274e+00 3.2543228049384947e+00 -3 1 0
2340 780 2 4.0999999999999998e-01 -1.3649140179260847e+01 -5.2023637977627359e+00 4.9665257343404416e+00 -6 7 -5
321 107 2 4.0999999999999998e-01 -9.4368112643548425e+00 -8.0109180334068721e+00 1.2981047420767862e+00 -5 5 2
985 329 1 -8.1999999999999995e-01 -1.1039074785734016e+01 -7.1866888728674496e+00 5.4123221196474471e+00 0 -2 3
996 332 2 4.0999999999999998e-01 -1.3894035076664226e+01 -6.8179501467067283e+00 2.1300970787988032e+00 -4 0 -1
1328 443 2 4.0999999999999998e-01 -1.1804431432767132e+01 -9.9606780391655203e+00 4.2465571189090969e+00 -5 2 1
11 4 2 4.0999999999999998e-01 -9.3872160254875432e+00 -1.0686063341202972e+01 2.9478698021177205e+00 -3 1 0
244 82 1 -8.1999999999999995e-01 -1.3281026817899679e+01 -1.1880955169975600e+01 6.2268375313886022e+00 -5 -1 -2
1094 365 2 4.0999999999999998e-01 -1.1835650399037057e+01 -1.3655872086211739e+01 2.6728471168075760e+00 -2 -2 5
1778 593 2 4.0999999999999998e-01 -1.0895570226626315e+01 -1.4087207666750180e+01 6.6756929488223147e+00 -3 3 -3
245 82 2 4.0999999999999998e-01 -1.2787728388853111e+01 -1.1070646411417917e+01 5.9105088278700340e+00 -5 -1 -2
10 4 1 -8.1999999999999995e-01 -8.5276871525423967e+00 -1.0184816360035114e+01 2.8480242392231983e+00 -3 1 0
917 306 2 4.0999999999999998e-01 -8.5827833727052045e+00 -1.0999882068570329e+01 4.7662132042317236e+00 -2 1 -7
2397 799 2 4.0999999999999998e-01 -1.2138242032887007e+01 -5.2342823094450459e+00 1.1834656081650063e+00 -7 1 -1
1095 365 2 4.0999999999999998e-01 -1.1108407531838839e+01 -1.4001565564160797e+01 4.0935019399738746e+00 -2 -2 5
246 82 2 4.0999999999999998e-01 -1.2645692837935421e+01 -1.2497598484703527e+01 6.6917131149614182e+00 -5 -1 -2
836 279 2 4.0999999999999998e-01 -1.4203422312068593e+01 -1.0257187446415191e+01 3.9577763371032066e+00 -8 2 0
1607 536 2 4.0999999999999998e-01 -7.7777896071633004e+00 -1.0129698518822373e+01 6.8356678060413323e-01 -3 4 -1
656 219 2 4.0999999999999998e-01 -9.5505011299084366e+00 -7.6461392084282114e+00 4.3856941224581920e+00 -2 -1 0
655 219 1 -8.1999999999999995e-01 -8.7476866535733766e+00 -7.7198267755093699e+00 3.7940299605830727e+00 -2 -1 0