2593
Atoms. Timestep: 18495000
O 4.37342 -13.4178 14.012
H 3.89049 -14.0461 13.402
H 3.75186 -12.6894 14.3002
O -4.68993 6.55841 -3.1759
H -4.43161 6.69694 -2.21981
H -4.47158 5.62115 -3.44774
O -3.99608 4.49986 -6.94283
H -4.45402 5.33475 -6.6374
H -3.46524 4.69362 -7.76788
O -7.37981 -12.1024 1.7234
H -8.11113 -12.4764 1.15303
H -7.75624 -11.4047 2.33303
O 4.33981 7.87895 -7.53456
H 5.05914 7.55562 -8.14943
H 3.49597 8.01809 -8.05283
O -13.2988 10.5785 14.1537
H -13.9141 10.7239 13.3789
H -12.5154 11.1955 14.0776
O -14.5913 -9.35219 -12.9782
H 14.7761 -9.0227 -12.382
H -14.2475 -10.2253 -12.6325
O 13.3381 -11.8705 -11.4176
H 13.3163 -11.2213 -10.6573
H 14.1899 -12.3934 -11.3851
O -6.73181 -3.89074 -3.35858
H -7.20579 -3.24837 -3.96085
H -6.25996 -3.38459 -2.63663
O -10.6653 -0.345327 -12.4125
H -9.71966 -0.254907 -12.7249
H -10.6741 -0.644589 -11.4584
O -8.31816 6.11198 7.39431
H -7.87414 6.992 7.22567
H -9.06257 6.2346 8.05072
O -6.20875 13.365 -4.47315
H -6.69101 13.4254 -3.59919
H -5.36727 12.8381 -4.3538
O 12.1989 7.99836 1.95409
H 11.4367 8.64572 1.95444
H 12.8189 8.2131 2.70872
O 3.65888 -10.6088 7.5458
H 3.17254 -11.0848 6.81304
H 3.05614 -10.5121 8.33787
O -6.28763 10.814 -10.4327
H -5.35071 11.0996 -10.2311
H -6.37043 9.8261 -10.3017
O -14.929 11.5872 -13.7706
H -14.4911 11.5811 -14.6696
H 14.2128 11.3152 -13.8645
O -3.90378 -4.4729 12.3961
H -4.25539 -4.34933 13.3241
H -3.43822 -5.35553 12.3308
O -6.15637 -11.8443 7.19769
H -6.24345 -11.6711 6.21666
H -5.78102 -12.7599 7.34244
O 9.2589 -10.0252 -13.2078
H 8.27073 -10.1783 -13.1956
H 9.45345 -9.13638 -13.6227
O 1.99401 6.51496 -3.29434
H 1.44222 7.34158 -3.40509
H 2.49885 6.33558 -4.13874
O 7.90142 14.2864 9.5583
H 8.81128 14.0031 9.25505
H 7.92773 14.5028 10.5343
O -2.65308 3.55355 8.47078
H -3.35817 3.51947 9.1791
H -2.28253 4.48063 8.41367
O 3.07241 -14.595 -9.88226
H 2.56812 -14.0689 -9.19743
H 3.98737 -14.2069 -9.99329
O 12.2907 -5.90321 -6.69458
H 11.5912 -5.22115 -6.90799
H 12.1081 -6.29729 -5.7938
O 4.14523 4.76835 -11.2862
H 4.78746 5.45664 -11.6237
H 4.61936 4.14795 -10.6615
O -12.0755 10.2441 11.2986
H -11.0813 10.2834 11.1987
H -12.3312 9.39237 11.756
O -12.7844 3.35175 3.47436
H -12.0836 3.67205 4.11181
H -13.1686 4.13249 2.98157
O 0.789824 14.2066 -10.8004
H 0.0144784 14.7555 -10.488
H 1.64241 14.6269 -10.4898
O -1.13642 -11.3176 -13.0574
H -1.77441 -11.2608 -13.8253
H -0.927574 -12.277 -12.8678
O -7.94313 -7.42629 2.97914
H -8.29198 -6.60362 3.42809
H -8.09125 -7.35593 1.99266
O 8.72066 12.4011 4.21051
H 8.33691 12.0096 3.37417
H 9.52784 12.9461 3.98356
O -9.78379 8.36815 -2.51045
H -8.8657 8.00622 -2.3487
H -9.72153 9.2018 -3.05925
O -6.99631 12.707 -12.6186
H -6.70893 11.7952 -12.3253
H -6.23737 13.1619 -13.0845
O 10.1778 5.10603 5.17593
H 10.4342 4.22425 5.57189
H 9.62224 4.95531 4.35823
O -2.01647 3.15845 -3.12485
H -1.86924 2.23026 -3.46666
H -2.94179 3.45693 -3.35878
O 11.4162 5.20242 -3.90139
H 10.9562 5.41624 -3.0396
H 11.8453 4.30151 -3.83561
O -1.51818 -14.545 -9.85437
H -1.54992 14.9973 -9.02457
H -2.16216 -13.7846 -9.7701
O 13.7426 10.6997 9.90994
H 13.987 10.6455 8.94178
H 12.7473 10.6744 10.0044
O -8.72775 9.37294 -4.86239
H -9.49159 8.84528 -5.23409
H -8.10463 8.76019 -4.37629
O -6.12739 -5.85844 11.22
H -5.1729 -5.70188 11.4739
H -6.16503 -6.32461 10.336
O 9.34159 11.877 12.3783
H 9.33482 12.8543 12.1663
H 8.47051 11.4702 12.1031
O -7.26852 -2.12064 13.4148
H -8.02844 -1.5402 13.7074
H -7.58662 -3.06407 13.321
O 7.65462 14.5087 -13.5124
H 6.68738 14.7328 -13.6317
H 8.21521 -14.8201 -13.8153
O -4.84422 14.6366 -0.90343
H -4.7991 -14.7877 -0.167108
H -5.78906 14.5508 -1.21959
O -5.54258 -0.975018 5.83561
H -4.89768 -1.50993 5.28971
H -5.12427 -0.744071 6.71408
O -9.81869 8.38093 -10.1852
H -9.8227 9.37548 -10.0808
H -10.0593 8.1436 -11.1264
O -6.33764 6.17802 14.3853
H -6.50474 7.0496 14.8462
H -6.87988 5.46044 14.8224
O -1.73369 -4.71757 3.7157
H -1.40101 -5.65276 3.59417
H -1.65674 -4.22138 2.85088
O 13.2756 -1.05523 12.3999
H 12.9987 -1.99927 12.5791
H 14.0025 -1.04574 11.7131
O 2.30177 13.0979 -1.75685
H 2.0854 13.9376 -2.25509
H 1.6614 12.9869 -0.996825
O -3.25386 13.3912 -3.00417
H -2.36015 13.7269 -2.70645
H -3.97169 13.8298 -2.46339
O 8.6931 7.77307 12.7367
H 8.18218 7.2607 13.4269
H 9.62944 7.42523 12.6886
O 5.75763 1.39748 13.2886
H 5.44714 1.40771 12.3381
H 6.74968 1.27411 13.3139
O 0.620791 11.6781 7.04947
H 1.15845 11.8619 6.22655
H 0.852735 10.7721 7.40375
O -1.06176 -14.105 -12.7732
H -1.22376 -14.4204 -11.8381
H -0.177498 -14.4466 -13.0917
O 9.36501 5.62737 -5.89915
H 10.0148 5.48845 -5.15179
H 8.93312 6.52418 -5.80297
O 12.5324 -6.53978 8.43721
H 13.4408 -6.19595 8.67524
H 11.9697 -5.78666 8.09623
O 2.66646 -8.83042 11.5014
H 3.46707 -9.25234 11.9269
H 2.79833 -7.84038 11.4517
O -7.09369 10.0524 10.1869
H -6.61717 10.9184 10.3387
H -6.46702 9.29245 10.3593
O 4.12994 2.56984 4.67186
H 4.88282 3.21358 4.80898
H 3.4984 2.9362 3.9885
O 7.44333 3.2215 7.85295
H 7.9373 3.90108 8.39535
H 6.5886 2.98391 8.31449
O -0.578506 -5.5149 -0.937602
H 0.297243 -5.38094 -0.473755
H -0.49289 -5.24344 -1.89626
O -12.4809 1.24416 11.3478
H -13.1092 1.37532 12.1147
H -12.4749 0.279861 11.083
O -5.04157 13.324 3.39574
H -5.7445 13.902 3.81035
H -4.37052 13.065 4.09048
O 2.84129 0.691351 6.13991
H 3.50285 1.22908 5.61721
H 2.97767 -0.280946 5.94997
O -13.4111 -11.4945 -11.8857
H -13.6756 -12.3665 -11.4737
H -12.4181 -11.4681 -12.0014
O -10.6287 -4.88233 13.2196
H -10.1842 -4.95019 14.1128
H -9.94884 -4.6436 12.5262
O 5.73804 -1.71198 4.39437
H 6.44243 -2.38321 4.16346
H 5.05661 -2.13576 4.99112
O 8.3576 8.18781 -12.2497
H 8.19725 7.30365 -11.8109
H 8.16712 8.11351 -13.2286
O 1.33396 -10.6569 9.12404
H 1.06472 -10.1669 8.2949
H 1.37786 -10.0161 9.89049
O -2.92956 4.06643 -10.1966
H -2.99521 5.02483 -9.91879
H -2.21427 3.61337 -9.66453
O -12.2478 11.4576 -5.81255
H -12.6202 10.6761 -6.31307
H -12.957 12.1549 -5.70782
O -9.10313 3.83531 3.92294
H -8.95904 3.01631 3.36748
H -9.32386 4.60754 3.32715
O 14.2321 6.4899 1.02782
H 14.7744 7.19265 0.567298
H 13.3449 6.87091 1.28838
O -5.33894 14.5927 -8.07515
H -6.29132 14.2879 -8.08581
H -4.86823 14.188 -7.29111
O -13.5022 -13.508 -1.23741
H -12.8084 -14.0195 -1.74441
H -13.2153 -13.412 -0.284256
O 9.5046 -6.7363 4.50055
H 9.85695 -7.61406 4.82524
H 10.2183 -6.04044 4.5806
O 2.511 -1.83767 -10.3194
H 2.44087 -1.10416 -9.64337
H 3.06133 -1.52564 -11.0939
O -2.29555 1.56155 -5.37596
H -1.51888 2.05107 -5.77242
H -3.14243 1.8783 -5.80315
O -5.25622 9.55886 4.43898
H -5.9528 9.5742 5.15633
H -5.54764 10.1397 3.67891
O 13.8459 -11.0706 -8.12682
H 12.928 -11.0871 -7.73034
H 14.2564 -11.9797 -8.05509
O -11.5518 -10.6566 6.90826
H -12.0534 -10.1954 7.64018
H -10.6558 -10.9431 7.24749
O -8.60622 -4.8282 4.03097
H -7.62208 -4.7036 4.15741
H -9.10159 -4.20889 4.64016
O 4.90424 0.532906 -7.96373
H 5.89737 0.455925 -8.05203
H 4.52838 -0.340687 -7.65453
O 7.50527 4.12702 11.9511
H 7.73636 3.20919 11.6283
H 7.99151 4.80606 11.4011
O 6.46954 3.84559 5.21293
H 7.09558 4.01318 4.45134
H 6.99415 3.73025 6.05645
O 10.3446 9.56286 -3.78628
H 9.35468 9.42726 -3.74581
H 10.6518 10.0267 -2.95529
O 6.18581 -10.352 -13.0389
H 5.3796 -10.5523 -12.4822
H 6.45843 -11.1742 -13.5387
O 4.0544 -14.4468 2.1267
H 4.47538 -14.988 2.85463
H 4.76188 -13.9321 1.64231
O -7.48465 12.3261 6.51479
H -7.25637 13.2985 6.5634
H -6.65093 11.7827 6.61294
O -7.52176 11.386 -6.32446
H -8.09694 10.7261 -5.84096
H -6.89278 11.8169 -5.67741
O 9.84442 -2.54244 -11.6078
H 9.22466 -2.72632 -12.3708
H 9.47989 -2.9583 -10.7746
O -6.12728 4.6513 9.50681
H -5.3599 4.22182 9.98296
H -6.71804 3.94314 9.1201
O -3.18385 -12.3167 4.47104
H -4.14872 -12.0687 4.55792
H -2.89993 -12.2219 3.51687
O -9.28335 -11.3708 8.14037
H -9.46245 -10.7925 8.93637
H -8.34961 -11.2145 7.81823
O 1.62745 10.0688 -13.899
H 1.04388 10.7087 -14.399
H 2.37578 9.76831 -14.4904
O 8.09688 -12.1083 11.3763
H 7.30063 -11.581 11.0798
H 8.91314 -11.5322 11.3331
O 13.0176 -3.89787 -11.8411
H 12.8431 -4.75579 -11.3579
H 12.7225 -3.12944 -11.2733
O -1.27652 -7.8919 -0.0600146
H -0.983832 -7.15483 -0.669194
H -2.12246 -8.29593 -0.408139
O 7.71816 10.273 9.13915
H 7.40291 10.2119 10.0862
H 7.3696 11.1141 8.72546
O 6.92199 -13.2848 8.36689
H 7.06035 -13.7841 9.22224
H 6.6275 -12.351 8.56993
O -9.1055 13.7375 -5.75686
H -8.20094 13.3724 -5.53667
H -9.79184 13.0193 -5.64198
O 3.05657 13.0891 2.14702
H 2.37446 12.7443 1.50216
H 3.36143 13.9961 1.85643
O 6.84947 -8.876 14.929
H 7.707 -9.09437 14.4632
H 6.6762 -9.55395 -14.4561
O -12.735 -4.88777 -6.07024
H -12.0798 -4.76797 -6.81614
H -13.4877 -5.46979 -6.37804
O 14.1164 -0.310183 -12.3936
H 14.8537 -0.957211 -12.1991
H 14.1387 -0.0605794 -13.3617
O -8.86717 -9.9746 2.76667
H -8.71764 -9.00573 2.96405
H -9.72917 -10.2696 3.17895
O -10.7231 -0.264167 4.54
H -10.0941 0.211356 5.15501
H -10.8063 0.249385 3.68596
O -14.6954 -3.56359 0.0452064
H -14.1456 -3.19712 0.795811
H 14.4386 -3.36158 0.209753
O 7.15081 -12.4642 -14.3888
H 7.05576 -12.8364 14.7874
H 8.04294 -12.7202 -14.0165
O -12.0102 11.4867 8.44745
H -11.0143 11.4404 8.3689
H -12.2893 11.1539 9.3482
O -5.04908 6.33452 6.92175
H -5.00632 5.65473 6.18957
H -5.06237 5.87018 7.80733
O -8.12711 0.831443 2.92856
H -8.83413 1.11925 2.28255
H -7.22684 1.07527 2.56786
O -5.10596 1.57659 8.21009
H -4.30959 2.1214 8.47279
H -4.80691 0.667432 7.92017
O -10.5097 -3.35041 -10.8891
H -10.1482 -4.27813 -10.7957
H -11.2228 -3.20006 -10.2043
O 3.31269 -10.9088 -11.9435
H 2.34766 -10.8232 -11.6956
H 3.88024 -10.5507 -11.202
O 12.3747 -14.8354 12.6384
H 12.1757 -14.4173 11.752
H 13.3555 -15.0178 12.7082
O 4.6184 0.618979 10.9352
H 3.75513 0.114587 10.9551
H 4.46808 1.5211 10.5307
O -3.77554 -9.31839 -14.4032
H -4.19716 -8.57946 -14.9288
H -4.44568 -9.69826 -13.7656
O -1.83151 -2.52699 -2.9059
H -1.46977 -3.09792 -2.16886
H -1.34949 -2.73615 -3.75675
O 7.59413 9.16846 4.78414
H 6.85335 9.56945 5.32312
H 7.80774 9.76829 4.01303
O -15.0407 10.391 4.5206
H -14.1223 10.1161 4.23574
H -15 10.7901 5.43664
O 7.50819 -8.1591 0.0785472
H 8.08961 -8.96533 -0.030884
H 7.77554 -7.66516 0.905942
O -13.1571 -0.0630789 -0.412313
H -12.2964 -0.173091 -0.909463
H -13.1988 -0.728367 0.333131
O 7.9757 6.82924 -3.02501
H 8.69998 6.61534 -2.36949
H 8.37052 6.92367 -3.93892
O -14.0904 6.48561 -4.74715
H -14.6784 7.28374 -4.87849
H -14.4796 5.70163 -5.23082
O -0.354954 11.8028 -3.53867
H -0.915468 12.2783 -2.86057
H -0.9403 11.4588 -4.27288
O -0.741358 -0.859022 -14.1562
H -1.02243 -1.53769 -13.4777
H -1.35751 -0.899197 -14.9429
O -0.358583 -11.1592 13.6337
H -0.136231 -12.0029 13.145
H -1.30644 -11.1973 13.9502
O -2.44219 -8.94002 -10.9912
H -2.1194 -9.77499 -10.5454
H -1.94891 -8.8092 -11.8512
O 2.22247 -0.827063 -13.9832
H 2.54017 -0.273701 -14.7532
H 1.22897 -0.929325 -14.0337
O 1.052 0.746614 -9.3251
H 1.45214 1.2321 -10.1024
H 0.222165 0.272563 -9.61954
O 5.18614 -7.05936 -4.26256
H 5.07746 -6.93673 -5.24906
H 4.76419 -6.29019 -3.78258
O 12.9957 13.8531 9.68119
H 12.3354 14.5923 9.81429
H 12.9108 13.1921 10.4268
O -11.7186 -8.73778 -8.00861
H -12.0494 -9.63546 -7.71751
H -10.9667 -8.85404 -8.65767
O 0.885438 11.6733 1.00426
H 0.568791 11.2513 0.15475
H 0.48017 11.1967 1.78444
O -9.10232 -0.579492 14.4021
H -9.72216 0.0481153 13.931
H -8.62187 -0.0898767 -14.9697
O 10.4479 13.1742 -3.04693
H 10.5161 13.9468 -2.41568
H 9.49742 13.0639 -3.33737
O 3.38863 12.8985 8.09729
H 4.20142 12.5473 8.56206
H 2.58535 12.3826 8.39488
O -9.57292 1.86 -0.0229078
H -9.31005 2.82403 0.0167927
H -8.78315 1.31007 -0.294718
O 8.51638 -14.3906 6.59568
H 9.1442 -15.0245 7.0474
H 7.8026 -14.1133 7.23887
O -14.5697 11.5088 11.6997
H -13.6358 11.3555 11.3768
H 14.8853 11.3139 10.9603
O -11.9986 14.8934 11.9988
H -12.9655 -14.9792 11.8814
H -11.5995 14.6658 11.1106
O -9.36293 13.6193 -0.288016
H -10.0058 12.8856 -0.0676702
H -9.76542 14.5006 -0.0405012
O -9.41728 -4.65781 -7.01761
H -8.7426 -5.32365 -6.69899
H -10.0953 -5.11836 -7.59057
O 5.17113 4.74357 1.05908
H 5.60699 5.52242 1.51015
H 5.83989 4.00942 0.941536
O -13.4481 1.75385 13.882
H -14.0952 2.51029 13.9769
H -13.3883 1.25579 14.7471
O 5.72456 -10.7604 -1.01387
H 6.01115 -9.87242 -0.654205
H 5.84572 -10.7729 -2.00644
O 0.00705265 3.78124 6.07887
H 0.487389 4.15951 5.28753
H -0.978768 3.80378 5.91248
O -12.8403 -5.72541 -2.67956
H -12.0245 -5.7437 -2.10151
H -13.2586 -6.63363 -2.69459
O -4.48089 -12.0507 -11.1624
H -4.45926 -13.0499 -11.1973
H -4.64533 -11.7535 -10.2218
O -14.6426 -1.85083 -2.68332
H -14.6593 -1.7433 -1.68924
H -15.0021 -2.75158 -2.9272
O 8.57688 0.895014 6.84726
H 8.26762 0.763532 5.9054
H 7.96606 1.53587 7.31227
O 12.5352 -1.972 -9.4891
H 11.7399 -1.47203 -9.83211
H 13.2351 -1.32211 -9.19295
O 9.98894 -2.55618 -3.79727
H 10.6762 -3.26178 -3.97001
H 9.52956 -2.74378 -2.92905
O -5.70755 -14.386 1.61178
H -6.33417 -13.6101 1.68477
H -6.18173 14.8756 1.88206
O 1.50316 -14.0588 11.6014
H 2.3999 -14.496 11.6705
H 1.43434 -13.5756 10.7286
O -13.3928 -5.65691 11.5632
H -13.0871 -4.97366 12.2263
H -14.3355 -5.4609 11.2931
O -5.57251 -2.18811 -1.32166
H -6.26018 -2.21102 -0.595979
H -5.66357 -1.33805 -1.84045
O 0.611475 -2.63777 12.1025
H 0.441059 -3.01037 13.0147
H -0.243948 -2.61925 11.5849
O 8.6544 8.50355 1.63776
H 9.34256 9.17143 1.3542
H 7.8208 8.63567 1.10139
O 0.679623 -7.53252 -11.8044
H 0.680111 -8.42062 -11.3447
H 0.0717507 -7.56815 -12.5976
O 9.25812 14.6182 12.5283
H 8.48204 -15.026 12.9647
H 10.1112 15.0113 12.8714
O 0.784098 14.6969 4.73798
H 1.65097 14.9997 5.13406
H 0.562642 13.7834 5.07946
O -14.8885 -1.33894 10.4971
H 14.6754 -1.44866 9.65978
H -13.9265 -1.53325 10.3052
O 7.37995 -14.318 -7.5438
H 6.71322 -13.9583 -6.89103
H 6.91239 -14.8934 -8.21492
O -1.57639 -0.276973 -10.9431
H -2.00336 0.330808 -11.6127
H -0.839516 -0.791231 -11.382
O -1.5095 -12.7057 -0.660063
H -2.07619 -12.0486 -0.162937
H -1.40685 -13.5374 -0.114304
O -0.259123 12.9094 10.983
H -1.2379 12.9271 11.1873
H -0.102516 13.2841 10.0692
O 11.3094 -4.70073 4.86701
H 10.8108 -3.87779 4.59465
H 12.2927 -4.53522 4.79084
O -2.81693 0.945596 11.0686
H -2.55424 0.93555 10.1038
H -3.167 0.0455235 11.3282
O -2.71631 8.16921 5.72811
H -3.13898 7.68222 6.49245
H -3.41284 8.69949 5.2447
O 8.75842 4.18155 -13.6995
H 9.27314 4.2286 -14.5556
H 7.9345 3.63144 -13.8358
O 9.30439 -9.24908 13.5477
H 9.9277 -10.025 13.4501
H 9.70719 -8.57362 14.1654
O 9.79586 2.95048 -0.309959
H 9.57622 2.54814 -1.19873
H 10.5847 2.47853 0.083791
O 1.01155 -6.30757 13.0229
H 0.686257 -7.14807 13.4562
H 0.740639 -5.52044 13.577
O 4.72444 -3.92724 -3.88714
H 4.94912 -3.20993 -3.22758
H 5.37985 -3.90309 -4.64205
O -6.23766 5.34858 0.356357
H -5.53882 4.92287 0.931191
H -6.02964 6.32015 0.243127
O 3.6568 -6.93558 -8.4794
H 3.5634 -6.00076 -8.82205
H 3.67475 -7.57278 -9.24991
O 6.1908 12.4324 5.39589
H 7.12289 12.2564 5.07928
H 5.55157 11.8551 4.88787
O 8.51238 5.06379 9.73269
H 9.49288 5.12257 9.92032
H 8.30722 5.54175 8.87858
O -11.9242 -2.03472 -4.32225
H -11.4765 -2.92877 -4.306
H -12.3027 -1.83498 -3.41841
O 12.9262 -7.04388 1.96054
H 12.7362 -6.09754 2.22204
H 13.0221 -7.10227 0.966842
O 12.9406 -2.9716 0.139628
H 12.8085 -3.44159 -0.733119
H 12.2561 -2.24897 0.236046
O 7.07949 -13.9254 13.409
H 6.11827 -13.7799 13.6434
H 7.3609 -13.2534 12.724
O 14.2565 11.0826 -3.72855
H 13.8642 11.2544 -4.63218
H 14.9772 11.7514 -3.54547
O 12.5759 14.1398 -10.9312
H 12.2798 13.3324 -11.4416
H 11.8867 14.8594 -11.0166
O 1.58933 -2.34865 -6.96884
H 2.57871 -2.30149 -6.83116
H 1.24889 -1.4516 -7.25067
O 13.8608 4.12092 -8.90222
H 12.9636 4.20095 -9.33646
H 14.4619 3.56739 -9.47869
O -0.0166815 11.997 -11.968
H 0.799644 11.4302 -11.8564
H 0.151182 12.9033 -11.5802
O 9.10453 -11.9615 5.56906
H 9.92046 -11.4224 5.77809
H 9.14445 -12.8311 6.06125
O 7.15602 -8.72481 -2.59362
H 6.59809 -7.98837 -2.97625
H 7.63743 -8.39151 -1.78295
O 11.7097 -6.83332 -3.97762
H 12.043 -7.77542 -4.01445
H 10.7735 -6.8245 -3.6262
O -6.06858 -11.8367 4.20534
H -6.2618 -12.0589 3.24965
H -6.32788 -10.8879 4.38599
O -9.73102 6.23435 2.62763
H -9.30914 6.83855 3.30364
H -10.6271 6.59617 2.37037
O 15.0091 1.43203 1.06082
H -14.1352 1.47758 0.76853
H 14.5677 2.31414 0.896148
O -3.67847 12.2965 11.5829
H -3.15739 11.7671 10.9134
H -3.68305 11.8139 12.4587
O -7.59037 13.8272 1.82798
H -7.88868 13.1758 2.52569
H -8.15375 13.7194 1.00881
O -9.33584 11.0467 8.36472
H -8.99154 11.6446 7.64082
H -8.58007 10.5124 8.74335
O -7.05189 13.4253 -1.86228
H -6.40803 12.7317 -1.53915
H -7.89581 13.3711 -1.32852
O -2.66524 14.7831 12.428
H -2.66767 15.0241 13.3986
H -3.1466 13.9162 12.2987
O -9.44291 4.52848 -10.9279
H -8.67085 3.9089 -11.0697
H -9.90437 4.69098 -11.8001
O 12.6468 -3.57794 13.2642
H 11.9071 -4.19303 13.5374
H 13.3231 -3.52311 13.9988
O 2.33943 10.1578 -6.63716
H 2.3975 9.39599 -7.28236
H 2.30712 11.0204 -7.142
O -13.7891 -7.39629 -9.09477
H -13.0373 -8.04234 -8.96256
H -14.1457 -7.11316 -8.20444
O 9.93804 5.74921 -1.01657
H 9.83202 4.82585 -0.647516
H 10.3381 6.34322 -0.318613
O 0.813569 -9.89776 1.08788
H 0.327238 -9.11781 0.693916
H 1.17924 -10.4685 0.352641
O 14.045 9.31483 12.4166
H 14.9725 8.94606 12.3548
H 14.0516 10.2795 12.1532
O -6.58895 8.45778 6.83766
H -6.16637 9.26177 7.25607
H -6.00056 7.66131 6.9772
O 11.1142 -0.86078 0.25233
H 10.3711 -1.32434 0.7349
H 11.2993 0.018506 0.691245
O 4.16257 -11.974 -6.95007
H 4.09763 -12.6176 -6.18746
H 4.96701 -11.3926 -6.82799
O 8.37295 0.778853 13.4168
H 8.39491 1.20713 12.5134
H 8.85586 -0.0961746 13.3827
O 6.28736 9.07152 0.178897
H 5.6281 9.81907 0.259988
H 6.86304 9.22053 -0.625115
O -11.0532 -0.975068 -8.22587
H -10.9914 -0.662942 -7.27782
H -11.8037 -1.63028 -8.31284
O 9.13225 1.40313 -8.45372
H 9.11778 0.978569 -9.35903
H 9.52737 2.31928 -8.5215
O 11.7891 7.72695 -5.24635
H 11.2882 8.33118 -4.62659
H 11.8452 6.81197 -4.84674
O -14.9882 -13.701 -7.96737
H 14.528 -14.5072 -7.86841
H -14.6522 -13.4202 -7.06829
O -1.90632 10.2219 -5.23687
H -1.31793 10.0521 -6.02743
H -2.5829 9.48941 -5.16145
O -6.17529 -9.09794 4.53982
H -6.45652 -8.47855 3.80681
H -5.30653 -8.78619 4.92467
O 0.908187 9.17628 8.11163
H 0.915182 9.1091 9.10936
H 0.869076 8.25866 7.71603
O 3.93165 4.96634 -2.06886
H 3.18106 5.501 -2.45719
H 4.64296 5.58451 -1.73427
O 3.31158 -3.31464 11.887
H 3.57661 -3.06558 10.9555
H 2.31413 -3.33638 11.9553
O -0.257315 -4.76562 -10.6775
H 0.11943 -5.5008 -11.2411
H -0.0603918 -4.94954 -9.71447
O -2.21516 -5.38241 -13.0988
H -2.66433 -4.51312 -13.3052
H -2.32604 -5.59248 -12.1274
O -1.73459 13.2045 -8.17997
H -2.28133 12.7085 -8.85464
H -2.07571 13.0034 -7.26168
O -14.5079 -13.1877 11.1354
H -14.374 -13.4134 12.1004
H 15.0078 -12.3793 11.0601
O 3.93815 -12.7637 -0.625758
H 4.30042 -11.8617 -0.860525
H 3.15908 -12.6595 -0.00752969
O 10.8123 -8.64007 10.1702
H 11.4701 -8.01628 9.74802
H 10.0061 -8.72105 9.58402
O 12.8784 3.31001 11.7387
H 13.2263 4.04721 12.3179
H 13.5658 3.07287 11.0522
O 8.69815 -4.18381 8.75506
H 7.74071 -4.47249 8.7516
H 8.82622 -3.44596 8.09234
O 2.7498 3.87363 2.30588
H 3.62869 3.81746 1.83212
H 2.02824 4.08324 1.646
O 2.82871 13.0995 -14.3896
H 3.0365 12.3586 -15.0283
H 2.6543 12.718 -13.4819
O 9.61792 -1.6542 13.2699
H 9.61187 -2.54499 13.7243
H 10.5137 -1.49851 12.8535
O 4.86542 -13.8225 -5.10484
H 5.38828 -13.8192 -4.25241
H 4.44163 -14.7192 -5.23249
O -14.3477 3.52162 -3.44287
H -14.7191 3.53001 -4.37134
H -14.9245 2.95089 -2.85833
O -12.0134 12.9919 1.0822
H -12.1311 12.692 2.02889
H -11.8386 12.1977 0.500222
O -14.8742 -6.46871 -6.69119
H -14.8154 -7.42027 -6.38936
H 14.2644 -6.2034 -6.7717
O 12.8632 11.5659 2.81463
H 13.8372 11.3779 2.94143
H 12.3634 11.3067 3.64107
O 2.28011 -4.37469 -2.68895
H 3.18657 -4.28497 -3.10164
H 2.35241 -4.26196 -1.69794
O 9.43561 -10.0451 -0.6958
H 9.47377 -10.1531 -1.68924
H 10.1883 -10.5525 -0.276237
O -1.22469 -11.4182 2.49189
H -0.767458 -12.3021 2.59082
H -0.629681 -10.7893 1.99142
O 4.68445 -9.77816 13.2289
H 5.54854 -9.62797 13.7094
H 3.92984 -9.42482 13.7819
O 13.6736 3.75004 0.0699669
H 13.7419 4.1589 -0.840093
H 13.7743 4.4629 0.764047
O -1.24504 8.30371 1.33431
H -1.98349 8.97272 1.24973
H -1.21374 7.95861 2.27237
O -6.73095 4.0008 -8.41431
H -7.70825 4.09863 -8.6023
H -6.41558 4.78131 -7.87451
O -7.25141 -5.26576 7.02158
H -8.211 -5.52184 6.90475
H -6.86968 -5.7529 7.80708
O 10.1577 13.8951 8.06384
H 11.1262 13.9649 8.30309
H 9.97181 12.9871 7.68817
O 14.5491 -0.376833 -8.64778
H 14.3879 0.287384 -7.9178
H -14.6663 -0.821546 -8.50449
O -9.61342 -8.79379 -5.88889
H -10.0754 -8.95978 -6.76013
H -8.76217 -8.29519 -6.05267
O 5.5256 -6.18172 9.46437
H 5.27673 -6.59944 10.3382
H 4.88525 -6.48159 8.75721
O 6.9338 11.4918 2.23084
H 6.25011 10.9284 1.76699
H 7.06028 12.3457 1.72589
O -14.5349 7.91069 7.61009
H -14.5506 7.59576 6.66109
H -13.8665 7.37632 8.12759
O 10.6218 7.50085 -10.8277
H 10.9214 7.85247 -9.94075
H 9.95591 8.13039 -11.2281
O 1.72928 5.66202 11.9246
H 2.72306 5.75808 11.9814
H 1.44372 4.84778 12.4301
O -14.8171 14.406 12.7705
H -14.6843 13.4578 12.4819
H -14.5314 14.5076 13.7234
O 3.63158 -4.10848 -13.9161
H 3.91382 -4.94898 -13.4536
H 3.27406 -3.46137 -13.2427
O 9.93197 8.24401 6.0425
H 10.4908 7.62521 5.49043
H 9.17704 8.59508 5.48854
O 10.4042 3.1174 -11.8764
H 10.0016 2.21868 -11.7025
H 9.72604 3.7072 -12.3149
O 7.71247 -9.54428 -9.63823
H 8.69266 -9.68819 -9.77446
H 7.19897 -10.1539 -10.2421
O 11.3058 -1.88909 8.26023
H 10.556 -1.49124 7.73144
H 11.4044 -2.85568 8.02355
O 8.35498 -12.9082 -2.6154
H 8.56596 -13.0456 -1.64759
H 7.4492 -13.2819 -2.8154
O 4.12155 -5.97272 1.76871
H 4.24257 -6.11421 2.75125
H 4.8396 -5.36555 1.42845
O -8.33514 -7.72882 12.8939
H -8.11658 -7.19058 13.7078
H -7.91052 -7.30812 12.0922
O -0.495622 -13.1689 -3.01148
H -0.886298 -12.9777 -2.111
H 0.0453528 -12.384 -3.31358
O 12.1782 2.43123 -6.00166
H 11.8637 2.73556 -6.9008
H 11.5625 1.7236 -5.65503
O -2.2941 9.29023 -13.4713
H -2.98101 8.69295 -13.8853
H -1.70013 8.75118 -12.8741
O -15.0468 5.64658 -12.217
H -14.846 6.12698 -11.3633
H 14.2616 6.06928 -12.6593
O 5.74933 9.71131 -5.75488
H 5.41428 9.41673 -4.85989
H 5.21847 9.26251 -6.47377
O -7.27543 4.45592 5.67393
H -7.65183 4.99936 6.42429
H -8.01953 4.14004 5.08522
O -0.819514 10.9825 14.8971
H -1.45914 10.2614 -14.9359
H -1.22216 11.8758 -15.0027
O -14.0582 -8.51352 11.1065
H -13.5674 -7.64571 11.1844
H -14.9628 -8.42339 11.5232
O 0.658444 7.58555 -0.365932
H -0.171383 7.89831 0.0962442
H 1.08167 8.35341 -0.846875
O -2.08727 0.875819 8.44026
H -2.27805 1.82563 8.19226
H -1.09917 0.721984 8.43503
O 9.43114 -6.25986 -2.72386
H 9.26754 -6.14956 -3.70422
H 8.60601 -6.00847 -2.21788
O 10.8682 -6.85408 12.4706
H 10.6236 -7.6057 11.858
H 10.5161 -5.99439 12.1005
O -14.7838 -9.47802 -5.85268
H 14.6554 -10.1872 -5.60541
H -13.9897 -9.89992 -6.29015
O -9.70208 -7.1175 -14.5718
H -9.02579 -7.64331 -14.0559
H -10.045 -7.67006 14.768
O -5.9692 5.3871 -12.1295
H -6.51551 6.18791 -11.8839
H -5.39434 5.12532 -11.3542
O 14.4825 -9.11708 1.95833
H 14.3606 -9.64607 2.79817
H 13.8979 -8.30631 1.98721
O -3.5406 7.07145 -14.4817
H -3.11342 6.49631 -13.784
H -4.53387 6.96289 -14.4408
O 14.5276 -0.105451 14.7922
H -14.5739 -0.116609 14.7291
H 14.1347 -0.32819 13.9
O 5.80711 -14.8175 -10.1178
H 5.10859 14.5777 -10.2444
H 6.48997 -14.8908 -10.8447
O 5.77148 -13.6968 -2.54503
H 5.07039 -13.1381 -2.10189
H 5.72692 -14.6307 -2.19028
O -10.2422 -9.55003 0.201388
H -10.5646 -8.61435 0.344811
H -9.76977 -9.86939 1.02289
O 1.23316 -8.50444 6.8223
H 1.63677 -8.8178 5.96268
H 0.374338 -8.02829 6.63325
O -11.5317 4.43128 5.90562
H -11.7651 3.97577 6.76474
H -10.6103 4.16206 5.6252
O -12.7505 -5.56471 -13.956
H -11.839 -5.20009 -13.7655
H -13.251 -4.92363 -14.5379
O 4.30458 -0.803131 -12.2883
H 4.89897 -0.00420963 -12.3803
H 3.53784 -0.723264 -12.9253
O -9.19533 9.39083 11.8425
H -8.37562 9.7224 11.3754
H -9.13312 9.60502 12.8173
O 11.55 4.79509 -10.1273
H 11.7397 5.63404 -10.6374
H 11.0359 4.16208 -10.7061
O -2.15007 -2.58932 11.6788
H -1.78371 -2.70868 10.756
H -2.90584 -3.2282 11.8226
O 13.6328 14.8244 -3.20366
H 13.003 14.8863 -3.978
H 13.2421 -14.7965 -2.41725
O 8.65272 -13.3123 -0.131471
H 8.70383 -12.548 0.511385
H 9.50785 -13.8299 -0.102533
O 8.93881 -12.9359 2.76966
H 8.9722 -12.6212 3.71828
H 8.9563 -13.9356 2.74931
O -0.0377817 6.6435 -8.32747
H -0.894774 6.368 -8.76302
H 0.309964 5.88985 -7.76969
O -5.76434 -10.7634 -13.1263
H -6.02498 -11.4299 -13.8248
H -5.19884 -11.2106 -12.4333
O -12.2464 -9.3027 12.9104
H -12.6419 -8.74374 13.6392
H -12.927 -9.44303 12.1913
O -10.1997 10.7919 2.37529
H -11.0503 10.8844 2.89302
H -9.42352 11.0052 2.96863
O -11.0727 1.45982 2.42532
H -11.6642 2.10322 2.91128
H -10.7449 1.88161 1.57991
O 2.75455 11.2401 13.6956
H 3.60431 10.8076 13.3941
H 2.06692 10.5361 13.8732
O -3.26499 13.0132 5.44661
H -2.64009 13.7181 5.11103
H -2.74481 12.31 5.93129
O -7.14893 -8.0326 -13.3758
H -6.93814 -8.98556 -13.1579
H -6.40862 -7.44456 -13.0499
O -7.19528 3.77999 -13.9905
H -6.64631 3.04897 -14.3958
H -6.62452 4.32316 -13.3747
O -11.022 11.2156 -0.709745
H -11.065 11.3044 -1.70489
H -10.363 10.5038 -0.466771
O -13.0953 0.792666 -13.2506
H -12.1043 0.682971 -13.1738
H -13.3614 1.68433 -12.8843
O -6.86694 -9.56717 8.59383
H -7.23807 -9.06549 7.81242
H -6.44195 -10.4143 8.27469
O -8.74248 12.3931 4.04777
H -8.18991 12.2555 4.86983
H -9.04977 13.3439 4.00793
O -13.124 -3.07962 -9.02757
H -13.6217 -3.80808 -9.49832
H -13.5656 -2.88645 -8.15141
O 6.57699 -4.9229 5.89371
H 6.62297 -5.81149 6.35014
H 5.68776 -4.50185 6.0727
O -2.83852 8.68786 13.6181
H -2.96708 7.91089 14.2344
H -2.06121 8.50964 13.0147
O -4.59678 -0.506722 -9.30152
H -3.87562 -0.856986 -8.70379
H -5.47825 -0.883051 -9.01619
O 13.2187 -13.2655 3.42439
H 13.941 -13.8272 3.02098
H 13.6078 -12.6862 4.14076
O 7.45601 4.43 -8.64852
H 6.94464 4.01999 -7.89325
H 8.43559 4.38026 -8.45361
O -11.0237 -10.4378 -14.6049
H -11.5668 -11.2706 -14.7125
H -11.6317 -9.64432 -14.5791
O 11.0115 0.985427 4.56341
H 10.8585 1.64376 5.30045
H 11.9391 1.09485 4.20602
O 13.7638 11.4313 -6.33098
H 13.7687 11.9614 -7.17888
H 12.8196 11.2732 -6.04211
O 8.14182 0.0170712 -6.09161
H 8.25861 0.673351 -6.83706
H 8.87967 0.133149 -5.42667
O 13.7651 -11.0404 10.7552
H 13.936 -11.6108 9.95178
H 12.8654 -10.6116 10.6742
O 6.0642 -8.02677 4.68217
H 6.31236 -7.76831 5.6158
H 6.40072 -8.94885 4.49096
O 5.7233 0.143949 -4.6603
H 6.6 0.251592 -5.12917
H 5.47996 1.00171 -4.20745
O 4.65794 8.97267 -3.3074
H 3.66137 8.9734 -3.3904
H 4.94015 8.24151 -2.68628
O 1.89494 -5.35317 0.0405346
H 2.46052 -5.37212 0.865029
H 2.28596 -5.96613 -0.646064
O -3.49383 -3.11349 -13.9107
H -3.47593 -2.54721 -14.7347
H -4.32072 -2.91194 -13.3856
O -5.33296 -14.792 9.88503
H -5.85852 -14.1269 10.4155
H -4.39774 -14.8346 10.2366
O -1.92453 -14.8881 5.19381
H -2.27016 -13.9863 4.93411
H -0.989918 -14.8002 5.5385
O 8.59718 -9.16817 8.04994
H 9.19634 -9.4267 7.29218
H 7.89913 -9.87265 8.17822
O -4.08914 -8.85298 -0.859784
H -4.69047 -8.11454 -1.16496
H -4.60954 -9.49586 -0.297708
O 3.62554 7.86636 14.0281
H 2.73728 7.41252 14.0992
H 4.17281 7.65664 14.8384
O -8.61346 -8.79286 6.15039
H -9.39352 -9.26814 5.74337
H -7.8539 -8.78123 5.50003
O -2.52214 6.79838 -9.61971
H -3.03556 7.60829 -9.33603
H -1.90811 7.03933 -10.3713
O -13.3013 -7.50686 6.62937
H -12.6954 -7.90534 7.31801
H -12.8631 -6.7044 6.22424
O 14.1366 -4.78418 4.48448
H 14.8431 -4.36635 5.05572
H 14.5684 -5.31842 3.75772
O -9.07976 7.29295 -12.9809
H -9.79544 7.95733 -12.7654
H -9.4994 6.43897 -13.2886
O -5.35214 1.50897 -6.69055
H -5.54208 2.11452 -7.46338
H -6.12468 1.52629 -6.0558
O 1.58075 -11.3944 -3.90787
H 1.76028 -10.4173 -3.79399
H 2.18473 -11.7642 -4.61391
O -13.056 3.90917 11.1459
H -13.0526 2.9352 10.9192
H -12.3518 4.09427 11.8315
O -11.2427 2.91909 8.21623
H -11.604 2.0207 8.4661
H -10.7106 3.28809 8.9783
O -7.73454 -6.70107 -6.38043
H -6.75978 -6.85554 -6.54174
H -7.89149 -6.55339 -5.4039
O -6.86681 -11.5016 -6.58897
H -7.5907 -11.6935 -7.2517
H -6.57155 -12.356 -6.16117
O 7.45886 5.54354 -11.3886
H 7.63302 4.85662 -10.683
H 7.86695 5.24577 -12.2516
O -12.5571 -3.11018 13.3101
H -12.7195 -2.63698 14.176
H -11.7485 -3.69237 13.3949
O 7.86276 -4.43094 -9.58612
H 7.29744 -5.23483 -9.77109
H 7.49595 -3.64413 -10.0825
O 1.8082 6.04586 -12.1517
H 2.59624 5.64047 -11.6883
H 1.55217 5.47704 -12.9333
O 8.12649 10.5635 -1.38372
H 8.80495 10.9645 -0.768108
H 7.79256 11.2647 -2.01378
O 4.52368 2.72892 -3.84173
H 4.50515 3.55263 -3.275
H 3.75685 2.74842 -4.48331
O -3.74052 9.09008 -9.02643
H -4.47544 9.08097 -8.34831
H -3.36063 10.0127 -9.09387
O 1.89682 -12.8718 -8.11972
H 1.24065 -12.1178 -8.15135
H 2.76172 -12.5452 -7.73852
O 6.2882 6.66664 5.70412
H 7.18599 6.56035 6.13158
H 5.91466 5.76531 5.48477
O -5.18566 -0.706667 12.1479
H -5.78261 -0.0439029 11.6957
H -5.70914 -1.2142 12.8323
O -9.84796 3.25484 -15.0384
H -9.75073 3.0622 14.0847
H -8.94857 3.44596 -14.6452
O -6.69828 11.3678 14.9298
H -7.64452 11.0797 -15.0225
H -6.68177 12.1568 14.3156
O -8.6321 -12.481 -8.55654
H -8.99965 -12.4564 -9.48624
H -8.75317 -13.3972 -8.17441
O 8.28014 -3.40904 4.51168
H 8.50769 -3.53777 3.54644
H 7.71467 -4.17183 4.82543
O 11.5048 -10.8805 13.7265
H 11.9119 -10.4202 14.5154
H 11.5003 -11.8683 13.8827
O 11.2559 -0.345387 -11.8451
H 12.2132 -0.178123 -12.0811
H 11.0487 -1.31677 -11.9614
O -6.11112 -4.71561 4.74591
H -6.44688 -5.03795 5.63101
H -5.38513 -4.04307 4.88966
O 6.37882 12.5661 -6.64728
H 6.14631 11.7053 -6.19449
H 6.44252 12.4171 -7.63407
O 9.28507 2.29193 -2.88679
H 8.67809 2.61883 -3.61119
H 9.85113 1.54592 -3.2376
O 14.3884 -6.12317 -15.045
H 14.0419 -5.20656 -14.8456
H -14.7595 -6.19234 -14.7453
O 6.99951 -2.34526 12.3823
H 6.39452 -2.82095 13.0208
H 7.74659 -1.91474 12.8888
O 2.33986 -11.8131 -14.5409
H 1.79537 -10.9921 -14.7132
H 3.03831 -11.6117 -13.8541
O 0.558446 -4.10143 14.6205
H 0.0251091 -4.37568 -14.6788
H 1.51099 -3.95676 14.8884
O -3.49556 6.97065 -0.652649
H -2.84156 6.25519 -0.406814
H -3.92067 7.33296 0.176837
O 13.5185 -9.5194 8.06716
H 14.5086 -9.64591 8.00516
H 13.3167 -8.77799 8.70716
O -11.6113 -14.2452 0.931213
H -11.816 14.8789 1.01352