2593
Atoms. Timestep: 1000000
O 0.84067 5.86957 3.67863
H -0.0971146 5.84144 3.33265
H 1.40321 6.43077 3.07156
O 2.76975 -14.6772 -12.3308
H 2.14286 -13.9982 -11.9488
H 2.37668 15.0536 -13.1664
O -1.07704 -11.0427 8.99606
H -1.77851 -11.755 9.01747
H -1.17016 -10.5083 8.15598
O 5.20705 -4.96715 -0.469574
H 5.81963 -5.72398 -0.241778
H 4.58283 -5.25107 -1.19735
O -11.7064 11.7727 -6.4264
H -11.8457 12.0552 -7.37548
H -12.5493 11.9179 -5.90832
O 0.0682758 10.629 12.4124
H -0.162089 9.73693 12.801
H 0.828328 10.5268 11.7706
O 3.92416 -0.980776 -4.2757
H 4.46985 -0.580494 -3.53954
H 3.26593 -0.305241 -4.60783
O 9.42092 11.5196 9.84007
H 8.45154 11.7247 9.70525
H 9.73025 11.9228 10.7013
O 11.2259 8.19472 2.6195
H 11.9053 7.99527 1.91348
H 11.4953 7.75365 3.47552
O -11.3379 0.466309 11.0879
H -11.4946 -0.478831 11.3745
H -10.361 0.608771 10.9287
O 11.3194 6.95562 11.2544
H 11.4615 7.0619 10.2703
H 12.1442 6.57345 11.6709
O 4.40915 9.95658 -9.51982
H 3.98063 10.0542 -8.62162
H 3.75739 9.5455 -10.1571
O 11.444 -11.001 13.8402
H 10.4773 -10.754 13.9078
H 12.0044 -10.1756 13.9082
O 3.86154 -10.1922 0.795606
H 4.63966 -9.85009 0.268868
H 3.01109 -9.8602 0.387616
O 13.2379 -2.34213 -13.4654
H 12.7768 -3.22682 -13.5333
H 14.0396 -2.33742 -14.0631
O 11.4421 7.9591 -8.91257
H 11.9272 8.7857 -9.19768
H 11.0084 8.11646 -8.0254
O 14.7195 -0.187425 -12.0194
H 14.3977 -1.08496 -12.3208
H 13.9417 0.4358 -11.939
O -0.643448 3.77826 -5.60605
H -0.429252 3.41564 -6.513
H -1.52289 3.41345 -5.3004
O 3.71452 13.8048 -3.78432
H 3.81642 13.3203 -2.91552
H 4.61607 13.9546 -4.19016
O 3.40023 2.73481 -14.8109
H 3.9107 2.07907 14.7473
H 3.63338 3.66499 15.0201
O 1.38161 -7.03531 -9.8142
H 0.816788 -7.17618 -10.6273
H 2.34783 -7.07117 -10.0693
O -3.45795 -12.011 -7.91474
H -4.10924 -11.2542 -7.9697
H -2.59586 -11.6816 -7.52979
O -0.802059 2.04384 14.0624
H -0.308705 2.10983 14.9296
H -0.882991 2.95343 13.6549
O 2.21844 10.2423 10.5058
H 1.98997 9.41206 9.99752
H 2.06891 11.0414 9.92355
O -3.94178 -14.1737 -4.41174
H -3.79048 -14.7966 -5.17922
H -3.77804 -14.6579 -3.55224
O -11.6632 12.3025 -1.93699
H -12.2388 12.8033 -1.29065
H -11.4433 12.8924 -2.71392
O 12.3865 3.46389 6.98563
H 11.8275 4.27941 6.83624
H 13.3159 3.73764 7.23299
O -2.03372 4.19104 -9.07361
H -2.60823 3.40358 -9.29673
H -1.17675 3.87397 -8.6674
O -14.6311 -2.56802 14.9454
H -14.7627 -2.61253 13.9552
H -13.8804 -1.94131 -14.9603
O -11.2135 10.8136 5.23549
H -10.2979 10.4756 5.45334
H -11.7157 10.9855 6.08294
O -13.9897 12.2301 -4.86425
H -14.0194 13.1686 -4.52038
H -14.9219 11.8832 -4.96721
O 10.0561 -14.5378 -9.72969
H 10.8722 -14.5215 -10.3073
H 10.2106 -13.974 -8.91839
O 0.917893 2.14572 -13.6775
H 1.10342 1.24124 -13.2936
H 1.74583 2.49924 -14.1128
O 4.56512 -2.69786 -7.1859
H 4.78547 -1.76493 -7.47055
H 3.60911 -2.89542 -7.40258
O 5.67913 7.6105 6.02937
H 6.37434 8.1737 6.47595
H 5.63916 7.83928 5.05675
O -10.3948 7.56849 2.93454
H -10.1317 8.34651 2.36408
H -10.68 7.89677 3.83499
O 0.545233 10.826 -4.1242
H -0.322906 10.467 -3.78161
H 0.445495 11.7995 -4.32952
O 4.92655 2.56721 -1.22838
H 5.02971 1.59322 -1.42994
H 4.21074 2.69139 -0.541258
O -3.90046 -12.098 -11.4198
H -3.4436 -11.4251 -12.0016
H -3.51367 -12.0593 -10.4984
O -4.89292 0.3326 2.7991
H -5.18769 1.26999 2.61377
H -4.95932 -0.209453 1.96143
O -8.05653 -6.11342 -13.1555
H -9.00843 -5.87208 -12.9669
H -7.98515 -7.1004 -13.2995
O -15.0276 5.44636 -2.62386
H 14.9156 4.74692 -3.31771
H 14.7115 6.32047 -2.93208
O 10.5804 6.11826 -13.5591
H 11.2031 6.39261 -14.2917
H 10.5773 5.12142 -13.48
O -14.4863 7.17018 -9.40463
H -14.0825 7.85868 -8.80225
H -13.91 6.35305 -9.41034
O -12.9695 -2.62389 6.67494
H -13.9494 -2.4498 6.77182
H -12.7744 -3.57452 6.91617
O -2.80117 -3.64148 -4.86554
H -3.37612 -4.36866 -4.49061
H -1.86288 -3.97395 -4.96046
O 8.81132 9.8574 3.12157
H 9.41614 10.1213 2.37024
H 9.18155 9.04912 3.57933
O -7.00077 -11.2184 4.17789
H -6.33758 -10.6638 4.68042
H -7.16716 -12.0703 4.67441
O -4.92323 10.1471 -9.90675
H -5.05465 10.1478 -8.91546
H -4.15209 10.739 -10.1412
O -0.778528 -9.07622 -9.43539
H -1.721 -8.79573 -9.25373
H -0.171093 -8.28821 -9.33534
O 12.743 14.3215 11.6131
H 13.0196 14.1726 10.6638
H 12.9104 -14.8393 11.8635
O -13.3207 -4.01112 -8.7375
H -13.615 -3.31922 -9.39676
H -12.6358 -3.61743 -8.12448
O -3.60717 -12.5733 5.80325
H -3.92392 -13.2725 6.44421
H -2.61111 -12.5012 5.85419
O 11.5421 -3.77951 6.98716
H 11.0422 -3.30505 6.26262
H 10.9612 -3.85665 7.79742
O -10.3075 -8.37361 14.7166
H -10.9357 -8.17465 -14.6456
H -10.5092 -9.27969 14.3447
O 1.57927 12.8261 13.8489
H 1.15942 12.1528 13.2403
H 0.907605 13.1289 14.525
O 9.80227 -3.9863 8.92518
H 9.85972 -3.05538 9.28577
H 9.08755 -4.02984 8.22717
O 7.86405 -0.993696 11.0189
H 8.11698 -1.22886 11.9573
H 7.4585 -0.0798131 11.002
O 5.75552 -14.4348 2.74406
H 6.32029 -13.7167 3.15061
H 5.49495 -14.1686 1.81606
O -3.62262 4.30241 3.27653
H -2.97578 4.81494 2.71186
H -3.6101 4.66357 4.20891
O -7.77831 -7.74682 10.5216
H -7.43127 -7.8086 11.4573
H -7.31841 -6.99807 10.0443
O -5.13687 9.15681 3.50664
H -5.82743 8.51266 3.1778
H -4.47117 9.33096 2.78107
O 10.4434 -13.9468 -6.86886
H 10.949 -13.4888 -6.13769
H 10.8119 -14.8666 -7.00337
O 13.5895 -9.0054 -10.1659
H 13.2211 -9.64934 -9.49538
H 12.8528 -8.68848 -10.7633
O 3.27913 2.31179 -7.4429
H 3.51046 2.0211 -8.37129
H 4.01933 2.87508 -7.07583
O -9.65706 -6.64703 7.52627
H -10.2611 -6.44803 8.29794
H -9.30946 -7.58113 7.60735
O -0.862089 -12.2337 6.34789
H 0.112935 -12.4317 6.24745
H -0.992059 -11.2491 6.46418
O -1.78004 -14.6642 12.9751
H -2.37843 -13.9276 12.6601
H -2.31633 14.7832 13.4924
O -3.68473 13.5982 14.4279
H -4.24074 13.5068 -14.8604
H -3.35405 12.6971 14.1474
O -2.40453 5.00897 -14.0271
H -2.78621 4.49459 -14.795
H -2.32034 4.40796 -13.2324
O -0.423753 -11.4005 -8.12052
H 0.000806937 -11.2068 -7.23611
H -0.432923 -10.5685 -8.67517
O -8.51032 -0.932138 -8.64617
H -7.78754 -0.36584 -9.04218
H -8.35138 -1.03707 -7.66451
O -8.56951 13.7977 14.436
H -8.95724 12.9693 14.8403
H -7.86331 14.1649 15.0413
O -8.76195 8.1251 -11.9442
H -8.0624 8.65345 -11.4631
H -9.65608 8.30474 -11.5341
O -2.8574 -9.46418 -12.2158
H -2.56424 -8.80571 -11.5227
H -2.34484 -9.30954 -13.0604
O 3.91982 -4.78351 8.99514
H 4.6626 -5.03531 9.61548
H 4.25951 -4.13434 8.31462
O 10.5147 -4.88932 -7.43427
H 10.5314 -4.12559 -6.789
H 9.75107 -5.49589 -7.21311
O -0.568786 13.0628 -14.6678
H -1.3395 12.6602 14.9528
H -0.743347 13.0184 -13.6842
O -13.3635 4.15537 -9.78686
H -13.1869 4.57517 -10.6771
H -13.7366 3.23711 -9.9195
O 12.5685 -13.3308 -4.9847
H 13.1753 -13.932 -4.46471
H 11.9922 -12.8119 -4.35335
O -11.5871 -11.0968 14.5837
H -11.3715 -12.0476 14.8063
H -12.3705 -11.0693 13.9628
O -7.9415 2.72048 4.83416
H -7.84969 1.72478 4.84314
H -8.71764 2.97846 4.25885
O -15.0299 -5.23951 8.13746
H 14.4738 -5.37716 7.35763
H 15.0466 -6.03981 8.7358
O -3.33257 3.35545 -5.40627
H -4.08749 3.88095 -5.79854
H -3.69585 2.55437 -4.93064
O 7.35809 1.37654 -3.92476
H 7.56168 2.30281 -4.24181
H 7.93749 0.722794 -4.41142
O 5.07234 8.05144 3.08516
H 4.19503 7.63772 2.84206
H 4.99066 9.04763 3.05554
O -5.76138 -5.26481 -13.6021
H -6.63294 -5.63333 -13.2789
H -5.89604 -4.81756 -14.4863
O 3.23235 -3.54724 -11.6124
H 2.95239 -3.79966 -12.5386
H 4.13354 -3.93516 -11.4193
O 2.13228 5.76843 -9.32696
H 2.00376 5.11366 -10.0717
H 1.25403 5.94396 -8.88222
O -3.57035 5.27322 -0.906416
H -3.35963 5.31278 0.0702968
H -4.40592 4.74189 -1.04586
O 9.66829 12.7992 -9.11397
H 9.69579 13.7424 -9.4449
H 8.93539 12.3037 -9.58007
O -6.40699 -4.87061 -7.3572
H -6.86975 -4.86344 -6.47079
H -6.17674 -3.93384 -7.62058
O -7.69292 -13.9159 -7.52395
H -7.44249 -13.4959 -6.65173
H -8.06476 -13.2176 -8.13559
O -7.8482 6.42747 -9.06739
H -8.82381 6.43394 -8.84813
H -7.72702 6.55327 -10.052
O 10.1076 11.2283 0.85771
H 10.714 10.9405 0.116517
H 9.26725 11.6091 0.471994
O 10.4942 -14.4625 -13.9664
H 9.86321 -13.8433 -14.4337
H 10.1294 14.7213 -13.9936
O 8.02554 11.0878 -14.7656
H 8.88164 10.5997 -14.5958
H 7.25348 10.5026 -14.5177
O 9.89186 0.587446 14.8264
H 8.89213 0.569124 14.8382
H 10.2286 0.957476 -14.4222
O -8.61317 -7.09824 2.67457
H -9.27964 -6.81625 3.36467
H -8.26946 -6.29154 2.19391
O -0.844077 -1.019 -13.6622
H 0.0807581 -1.07778 -13.2865
H -1.44685 -1.64133 -13.1629
O 1.5798 -0.121558 13.8258
H 0.652205 -0.125691 14.1993
H 1.78047 0.779659 13.4418
O -6.37665 -13.1654 -5.19268
H -5.53443 -13.7044 -5.1951
H -6.17817 -12.2384 -4.87442
O 13.1802 10.9037 4.00888
H 13.4304 10.4217 3.16922
H 12.4263 11.533 3.82004
O -12.5415 12.2255 -9.07089
H -12.851 13.1734 -8.99631
H -11.8421 12.1583 -9.78242
O -12.7755 4.67139 -1.06316
H -13.515 4.76385 -1.7299
H -12.5663 5.56719 -0.671118
O 6.04681 -3.82113 -13.9429
H 5.40387 -3.60568 -14.6778
H 6.21701 -3.00033 -13.3976
O 13.9146 3.43749 2.94441
H 14.6955 3.44983 3.56893
H 14.2345 3.58096 2.00792
O 2.17694 -4.34083 -9.09193
H 2.16261 -5.32008 -9.29392
H 2.69173 -3.86142 -9.80263
O -1.93158 14.0599 -2.55372
H -1.40013 13.4812 -3.17222
H -1.38914 14.8599 -2.2973
O -11.5268 12.0929 9.67684
H -12.2145 12.005 8.95617
H -11.3698 13.0611 9.8714
O -7.87043 3.00311 -10.6696
H -7.40454 2.91074 -9.78963
H -7.38269 3.66657 -11.2369
O 13.6417 -10.4697 -5.46881
H 14.3242 -11.193 -5.36423
H 13.1035 -10.6362 -6.29499
O 13.4367 12.786 13.9625
H 13.9899 13.1524 14.7106
H 13.6618 13.2667 13.115
O 3.00203 -7.93043 12.1102
H 2.871 -8.9143 11.9887
H 2.3327 -7.43427 11.5572
O 3.73617 6.43609 -5.22386
H 3.53666 5.71616 -4.55915
H 4.66873 6.7691 -5.0847
O -11.8677 -2.11294 11.8076
H -12.7868 -2.50412 11.8532
H -11.3013 -2.66328 11.1942
O 14.493 -2.45773 -1.16912
H -14.9423 -2.1569 -1.83862
H 14.0169 -3.26531 -1.5171
O 10.8887 -2.54663 -5.63575
H 11.6579 -1.91656 -5.52915
H 10.0302 -2.03726 -5.57821
O -6.57398 7.68065 -2.44003
H -5.94357 7.22787 -3.0705
H -6.05684 8.09078 -1.68884
O 6.13189 -2.79922 9.63801
H 6.73055 -2.29479 10.2602
H 5.23102 -2.90877 10.058
O 5.72587 -4.49234 -11.448
H 5.7953 -4.32075 -12.4307
H 6.15829 -3.74248 -10.9474
O -0.172887 -5.40105 3.9979
H 0.725798 -5.20121 3.60756
H -0.304404 -4.85781 4.82708
O 14.2769 0.435201 6.87319
H 13.6332 0.854173 7.51353
H -14.94 0.864407 6.97409
O -11.1959 6.9644 -3.29203
H -11.3368 6.20753 -3.93016
H -11.5607 7.80687 -3.68837
O 5.39869 -11.5508 -13.434
H 5.52109 -12.0535 -12.5784
H 4.56356 -11.0032 -13.3823
O -0.773458 3.42598 8.77737
H -1.75496 3.4047 8.58726
H -0.452551 4.37301 8.76774
O -7.74533 9.43279 14.6155
H -7.39 10.017 -14.7692
H -7.23523 9.6046 13.7728
O -6.50338 12.0337 -1.27616
H -6.11969 12.8769 -1.65276
H -7.37156 11.8312 -1.72913
O -4.06894 -12.5309 3.08994
H -3.67005 -12.4032 3.99796
H -4.76525 -13.2475 3.1296
O 7.88025 -7.11664 7.67765
H 8.76567 -7.41221 8.03627
H 7.69221 -6.1829 7.98213
O 5.76571 -7.45404 -13.307
H 6.12359 -8.02092 -14.049
H 4.97933 -6.93149 -13.6363
O 8.42538 -14.6632 7.95679
H 8.50101 -14.4297 8.92617
H 9.06572 -14.1055 7.42869
O -5.33653 14.6568 12.5036
H -4.66351 14.5724 11.7688
H -4.9407 14.3212 13.3583
O -4.03994 12.3601 -13.0499
H -3.4092 11.587 -12.984
H -3.76462 13.071 -12.4028
O 13.021 -8.84413 7.04955
H 13.303 -7.9392 6.73092
H 12.9754 -9.47184 6.27248
O -10.3472 3.06886 3.4132
H -10.5542 3.4556 2.51459
H -10.8218 2.19483 3.51725
O 1.02401 -12.7628 -11.2227
H 1.42736 -11.8637 -11.3921
H 0.956983 -12.9178 -10.2371
O -0.155259 2.44424 -8.0813
H 0.797218 2.69574 -8.25296
H -0.363846 1.58732 -8.55258
O 1.26467 -8.84086 14.2276
H 1.77478 -8.25477 13.5981
H 1.84025 -9.6088 14.5085
O 4.5535 -4.01462 2.12823
H 4.73358 -4.40528 1.22552
H 4.59914 -4.73633 2.81888
O -8.14524 9.833 8.00553
H -8.19073 9.38904 7.11067
H -8.94126 10.4265 8.12398
O -3.04324 -2.33589 -13.0042
H -3.7451 -2.409 -12.2957
H -3.47418 -2.37614 -13.9057
O -9.19546 -9.91597 -4.10233
H -9.19312 -10.8076 -3.64967
H -9.20244 -10.0456 -5.09384
O -6.99758 -6.85121 -4.56925
H -7.32508 -7.18085 -3.6838
H -7.04233 -5.85247 -4.59038
O 10.6867 -2.93267 -2.43369
H 11.4271 -3.59322 -2.30997
H 10.6338 -2.66768 -3.39646
O -13.8237 14.7169 -3.73704
H -13.0366 14.1435 -3.51013
H -13.7065 -14.493 -3.32708
O 2.18655 0.611489 6.16771
H 3.00064 1.10381 5.8598
H 1.44672 1.26293 6.3357
O 10.7071 -0.186522 3.25796
H 11.5363 0.281943 3.56283
H 10.233 0.379846 2.58386
O -12.5232 5.22372 -11.9376
H -12.9369 4.88168 -12.7813
H -11.6466 4.76663 -11.7872
O 13.3076 5.24904 -11.7721
H 14.1471 4.82706 -11.43
H 12.8012 5.65018 -11.0088
O -7.39058 7.16205 4.34316
H -7.78913 6.76351 3.51717
H -7.94548 7.93943 4.63932
O -2.72316 11.156 13.7318
H -1.8784 11.0345 13.2107
H -3.50507 11.1347 13.1088
O -11.1733 -4.38307 -14.1125
H -10.9902 -3.88268 -14.9587
H -10.3989 -4.27771 -13.4887
O -11.678 14.1344 -12.8737
H -12.5043 13.8229 -12.4046
H -11.7921 14.0208 -13.8606
O 11.0067 10.8131 -12.5001
H 11.0583 10.0901 -13.1889
H 10.0501 10.9756 -12.2584
O -4.81189 8.21086 -0.411745
H -4.15872 8.60446 0.235079
H -4.4694 7.32925 -0.736405
O -9.42131 11.4596 -14.3563
H -9.48469 10.7019 -15.0058
H -8.74931 11.2376 -13.6498
O 8.18941 6.3013 -7.36195
H 7.9915 5.40688 -7.76292
H 7.35738 6.85595 -7.35729
O 2.54446 12.8508 -11.2625
H 2.56697 13.7629 -11.6718
H 2.09128 12.8961 -10.3723
O -9.8698 -13.8189 -12.7467
H -10.4701 -14.5433 -12.4078
H -9.83589 -13.8542 -13.7454
O -14.4706 -10.1744 3.77902
H -14.8015 -11.0341 4.16806
H 14.9608 -9.81024 3.14597
O -10.5429 5.32831 1.34437
H -9.69652 5.4883 0.836452
H -10.5419 5.88246 2.17675
O -12.5395 -4.49858 -3.19469
H -11.9356 -4.17936 -3.92505
H -13.1261 -3.74643 -2.89462
O -7.52405 4.47274 12.0121
H -7.55125 3.6953 11.3838
H -7.97842 5.25769 11.591
O 12.3598 -10.8241 -8.08149
H 12.9012 -11.6333 -8.30953
H 11.4615 -10.891 -8.51555
O -10.2242 5.55423 14.1202
H -9.50938 5.84511 14.7561
H -11.0329 6.12967 14.2419
O 0.377276 -4.09128 6.534
H 0.253333 -4.52824 7.42487
H 0.367062 -3.09764 6.64583
O -6.23339 7.32469 -7.22738
H -6.7692 6.80987 -7.89657
H -6.81424 7.56623 -6.45008
O 8.12209 -14.6481 11.0926
H 7.22382 -14.6331 10.6534
H 8.22297 -13.8399 11.6727
O 12.934 7.61275 -13.2072
H 13.1666 6.82637 -12.635
H 11.9505 7.61397 -13.3882
O -3.43196 -0.965601 -5.23019
H -2.90869 -0.502345 -5.94539
H -3.01167 -1.85057 -5.02989
O -0.618536 -8.59726 -13.8164
H -0.742246 -7.6393 -13.5577
H 0.113135 -8.66756 -14.4944
O 1.43406 7.95545 9.01998
H 2.04067 7.99368 8.22595
H 0.600438 8.47321 8.8278
O -11.6992 -7.85277 10.248
H -11.4475 -7.69442 11.2028
H -10.9864 -8.39268 9.80055
O 8.007 -1.97924 2.05462
H 8.06256 -0.992703 1.90105
H 8.18383 -2.46067 1.1962
O -2.79785 -7.70479 1.96901
H -3.15604 -7.81627 2.89595
H -2.43645 -6.77875 1.86047
O -11.2125 5.09613 -5.38484
H -11.3983 4.97906 -6.36038
H -11.5436 4.29641 -4.88412
O 2.30558 6.00411 -1.84563
H 1.40182 5.63448 -1.62989
H 2.20336 6.85544 -2.36014
O 6.29165 -2.4238 -1.10849
H 7.21872 -2.73432 -0.89859
H 5.6345 -3.12416 -0.829982
O -14.0193 2.6372 -6.64346
H -14.7422 2.85445 -7.29933
H -13.553 1.79915 -6.92675
O -14.2369 -12.3529 -5.54882
H -13.9863 -12.8771 -4.73496
H -13.4316 -12.2336 -6.12948
O -9.01096 6.71916 -1.66308
H -8.1165 7.09812 -1.9003
H -9.65976 6.90992 -2.39969
O 12.5783 1.45598 -0.331128
H 12.4355 1.97094 -1.17633
H 12.2492 0.519452 -0.451798
O -7.19453 7.01856 1.09488
H -7.36691 6.0904 0.765113
H -6.52583 7.46475 0.50016
O 9.94639 -11.5736 -9.52367
H 9.44967 -12.4128 -9.74498
H 9.97485 -10.981 -10.3286
O 3.00415 -8.60637 -7.4526
H 3.91587 -8.19791 -7.40946
H 2.36883 -7.95967 -7.8746
O 10.7807 10.9827 13.1682
H 11.6483 11.4692 13.2713
H 10.0339 11.6441 13.0993
O -5.04701 1.17981 9.60341
H -4.32644 0.966141 10.263
H -5.29498 0.351686 9.10075
O 7.36218 -2.04774 -12.4868
H 8.3342 -2.23991 -12.6217
H 7.20042 -1.06546 -12.5811
O 11.3291 -6.2058 -14.5942
H 11.3542 -5.49633 14.816
H 12.1899 -6.71461 -14.6028
O 1.85547 8.21586 -3.60718
H 1.58322 7.49276 -4.24196
H 1.30398 9.03271 -3.77609
O -9.57551 2.54445 -7.61725
H -8.62694 2.66201 -7.91106
H -10.1159 3.33239 -7.91227
O -8.35702 9.77048 5.15653
H -8.48283 9.46989 4.21115
H -8.19031 10.7563 5.17345
O 5.76354 -10.54 -1.30034
H 6.30438 -11.2687 -1.72035
H 6.14821 -9.65198 -1.55214
O 12.3772 6.82607 7.56075
H 11.4617 6.46744 7.74311
H 12.3911 7.26245 6.66113
O 14.5393 8.31832 12.024
H 14.7207 9.11943 12.5943
H 14.3648 8.61105 11.0839
O -1.36276 -9.72266 13.2829
H -0.398533 -9.48168 13.1727
H -1.79695 -9.07994 13.914
O 3.8255 13.5514 0.983047
H 2.8396 13.6022 0.823808
H 4.03602 13.9175 1.88947
O 9.04266 3.91224 -1.24105
H 9.63142 4.05889 -2.03591
H 9.40306 4.423 -0.460558
O -14.0345 -10.3412 13.4277
H -14.4952 -10.8909 12.731
H -14.3887 -9.40639 13.4029
O -7.41802 -0.10194 5.45059
H -6.46947 -0.144222 5.76428
H -7.6877 -0.992168 5.08357
O -7.16167 14.676 -11.0311
H -6.51423 14.581 -10.275
H -7.30518 -14.4684 -11.2272
O 1.46906 10.2799 -0.210321
H 2.15074 10.0106 -0.890575
H 0.883818 9.4976 0.00282939
O -1.00018 4.28965 -11.6677
H -1.01524 5.17915 -11.2111
H -0.0525036 4.00849 -11.8187
O -12.4539 -13.5145 12.784
H -12.4179 -12.7216 12.1759
H -13.3922 -13.6475 13.1032
O 8.26897 3.9445 9.17143
H 7.82245 3.98634 10.0652
H 7.85092 3.2199 8.62358
O -6.40055 -4.50571 4.47857
H -7.33298 -4.86383 4.52608
H -6.19582 -4.23278 3.53861
O -11.2516 -5.91141 -6.94293
H -10.3063 -6.2105 -7.07309
H -11.8647 -6.51072 -7.45762
O -5.32956 0.470828 -8.37987
H -4.87491 -0.387859 -8.14348
H -4.70559 1.04277 -8.91229
O -4.09007 14.4089 4.47089
H -4.63456 14.7421 5.24058
H -3.86812 13.4442 4.61253
O 4.901 -6.4805 13.4656
H 4.2089 -6.97311 12.9381
H 5.32287 -7.10273 14.125
O -5.2108 3.67582 -12.9808
H -4.55009 4.12465 -13.5824
H -5.74025 4.36869 -12.4913
O -6.74186 4.58371 -4.16798
H -7.48116 5.25677 -4.18695
H -6.64253 4.17208 -5.07386
O -8.66288 13.0076 2.9933
H -9.1987 12.358 2.45394
H -9.2046 13.3195 3.77381
O -5.64606 8.35177 8.4993
H -6.55569 8.62041 8.18253
H -5.60633 7.35708 8.59383
O -2.64631 -2.03939 12.0444
H -2.05431 -2.23406 12.8264
H -3.5404 -2.46302 12.1895
O 2.00942 -6.56116 9.77436
H 2.7318 -5.96376 9.42622
H 1.2632 -6.60383 9.11008
O -9.58783 -5.04286 -3.57563
H -9.93743 -5.94014 -3.84506
H -10.2131 -4.33147 -3.89649
O 11.7107 -4.60175 -12.3617
H 11.8495 -4.74826 -11.3823
H 11.6843 -5.48471 -12.8304
O -1.84677 -8.31797 -4.5964
H -0.986603 -7.90572 -4.89655
H -2.47954 -7.59825 -4.31083
O 1.18284 14.8287 5.17116
H 2.08747 -15.0015 4.85368
H 0.987863 -14.8541 6.05184
O -4.37565 -13.5142 -14.1127
H -4.21788 -13.1716 -13.1866
H -3.57983 -13.3114 -14.6832
O 2.96447 -7.2871 -12.9429
H 3.30525 -7.13266 -12.0156
H 3.00976 -8.26295 -13.1565
O 2.4121 7.38741 1.88143
H 1.72551 8.09441 1.71214
H 2.7352 7.02085 1.00897
O 4.61408 2.05376 -12.2331
H 4.68525 2.98964 -11.8882
H 4.08497 2.05063 -13.0816
O 14.0349 -0.193307 13.1556
H 14.1504 0.224145 14.0569
H 14.6932 0.205076 12.5169
O 8.30157 -10.5532 -14.1911
H 7.31986 -10.3973 -14.3002
H 8.51421 -11.5054 -14.4103
O 6.51046 4.76913 -0.469088
H 5.91792 3.98187 -0.639542
H 7.3139 4.71615 -1.06205
O -12.3673 -1.49209 -1.21992
H -11.5711 -2.0969 -1.20263
H -12.5851 -1.20114 -0.288349
O 14.4776 3.60534 -0.00958057
H 13.8179 2.92692 -0.332824
H 14.4472 4.40916 -0.603619
O 9.57087 -8.20705 14.8391
H 9.17858 -8.86995 -14.6376
H 10.082 -7.51563 -14.7647
O 0.669848 -9.90186 -11.7273
H 0.0485163 -10.1117 -12.4822
H 0.139211 -9.62885 -10.9249
O -8.7673 13.8874 9.57214
H -8.79291 14.8779 9.43761
H -8.5966 13.6863 10.5367
O -1.17436 -13.815 -12.6915
H -0.490451 -13.4364 -12.0678
H -0.775156 -13.9153 -13.6028
O 8.38127 -6.35234 -12.6001
H 8.35888 -5.68083 -11.8595
H 7.46942 -6.74413 -12.7225
O -9.77976 -2.28662 -0.88358
H -8.92272 -1.78321 -0.774115
H -9.6443 -3.23882 -0.609896
O -3.81644 -3.31137 6.15909
H -3.22841 -3.60306 6.91345
H -4.74466 -3.16064 6.49912
O -10.0571 0.552033 -12.7265
H -9.24985 0.383306 -12.161
H -9.77145 0.896239 -13.6209
O -11.8325 2.30083 -14.2153
H -11.5395 1.90804 -13.3437
H -12.4142 3.09594 -14.0439
O -5.40055 -3.51634 1.98641
H -4.51233 -3.69824 2.40821
H -5.43418 -2.56609 1.67684
O -1.66022 -5.45435 1.61373
H -2.12826 -4.60438 1.85546
H -0.907432 -5.61357 2.25239
O -3.66239 2.36308 5.58404
H -3.4207 2.79938 4.71735
H -3.70759 1.37222 5.45718
O 10.2153 -1.32555 9.39387
H 9.41621 -1.17905 9.97686
H 10.2518 -0.613076 8.69316
O -4.71859 -3.16441 14.6375
H -5.30937 -3.79475 14.1339
H -5.26299 -2.39832 14.9791
O -1.10618 -9.72669 2.40562
H -1.54986 -8.99401 1.88961
H -1.52978 -10.6021 2.17279
O -11.7238 0.760456 3.61303
H -12.1185 0.0597545 3.01878
H -11.4929 0.355701 4.4978
O 14.3824 3.96614 -4.89988
H 13.6778 3.32159 -4.60321
H 15.0361 3.49577 -5.49261
O -2.51201 7.49882 -12.225
H -2.17259 6.64773 -12.6254
H -2.60936 8.18898 -12.942
O -12.779 10.1617 -12.5222
H -12.7908 10.655 -13.392
H -13.7069 9.86757 -12.2932
O 1.44895 7.30462 -6.45752
H 1.45822 8.1837 -6.93405
H 2.38093 7.06119 -6.18905
O 9.38739 -10.8006 11.6388
H 10.001 -10.0163 11.7292
H 8.8936 -10.7393 10.7715
O -14.0518 0.811038 11.563
H -14.1092 1.76262 11.8649
H -13.1318 0.62581 11.2177
O -5.44312 -10.2595 -3.93282
H -6.07582 -10.3686 -3.16619
H -4.50221 -10.2959 -3.59623
O 10.7694 5.42474 -6.15706
H 10.0215 5.93685 -6.57933
H 11.6428 5.84112 -6.40967
O -5.74003 -8.24134 2.50152
H -4.95657 -8.13692 3.11408
H -6.47573 -7.63062 2.79427
O -7.42824 2.61234 10.0879
H -7.51991 3.19789 9.28249
H -6.60048 2.05759 10.0042
O 5.32533 -13.1612 -4.97875
H 5.36408 -12.8986 -5.94284
H 5.61447 -14.1134 -4.88079
O 0.63266 -14.0189 11.6864
H -0.192862 -14.3415 12.1494
H 1.42557 -14.5224 12.0295
O -2.21776 12.2229 10.3292
H -1.78657 11.8367 9.51383
H -2.83564 11.5472 10.7313
O 5.55519 -14.1058 -12.4902
H 4.63288 -13.9821 -12.1242
H 5.67912 15.0556 -12.7665
O 12.0814 -4.55852 -9.55953
H 11.5286 -4.64322 -8.73057
H 12.9836 -4.95971 -9.40098
O 9.76243 3.90228 13.5207
H 10.746 3.91179 13.701
H 9.60323 3.71953 12.5505
O -3.29326 -8.04258 -9.52451
H -3.29065 -7.27776 -8.88032
H -3.9149 -7.83915 -10.2809
O 10.0315 -4.80263 2.44493
H 10.5945 -4.06583 2.07069
H 9.42424 -4.43359 3.14847
O 6.36877 14.4529 -5.0107
H 7.33574 14.4603 -4.75604
H 6.28655 14.4531 -6.00728
O 6.19442 4.46393 11.2203
H 6.40879 4.90221 12.0931
H 5.22797 4.60427 11.0053
O -14.4276 -2.3436 -3.62592
H -14.9807 -2.70623 -4.37599
H -13.5931 -1.93448 -3.99471
O 1.32237 -7.19912 -1.04146
H 2.23842 -6.88026 -0.798343
H 1.043 -6.78229 -1.90641
O 14.9277 -14.1876 13.099
H 14.3336 -14.0259 13.8869
H 14.7839 -13.468 12.4198
O -7.65665 -0.195547 -3.29122
H -8.31698 0.540122 -3.14057
H -7.40535 -0.602815 -2.4132
O 11.285 2.89997 -9.59699
H 11.5438 3.78043 -9.19979
H 10.4333 3.00345 -10.1106
O -7.55581 -11.271 -8.71479
H -6.68207 -11.0164 -8.30043
H -7.40136 -11.5862 -9.65112
O -0.56645 6.58703 -8.8033
H -1.22797 5.88336 -8.54413
H -0.102895 6.92634 -7.98481
O -0.661353 -6.36647 8.34273
H -1.19646 -6.94017 8.96278
H -0.462517 -6.87584 7.50551
O -3.17736 -14.4747 -8.62031
H -2.22208 -14.4495 -8.91484
H -3.48407 -13.5477 -8.40436
O 11.0639 13.4641 -6.60541
H 11.8705 12.8847 -6.48933
H 10.6669 13.3057 -7.50944
O -13.4573 4.43229 1.91311
H -12.4779 4.48848 1.71904
H -13.9612 4.32406 1.0562
O 5.60193 -1.66492 3.25618
H 6.56334 -1.70853 2.98467
H 5.13142 -2.49267 2.9506
O -14.4849 -14.6368 3.10573
H -15.0419 15.0303 2.40605
H -13.6902 14.9074 3.31406
O -7.67109 4.12864 1.00488
H -7.0045 3.69787 1.61318
H -8.40513 3.48049 0.802353
O 8.67393 13.5996 14.9457
H 8.17319 12.7347 14.979
H 9.1267 13.6887 14.0585
O -12.9879 -8.96756 1.63267
H -12.001 -9.11011 1.70834
H -13.4591 -9.53206 2.31033
O 13.6709 -14.8988 -3.12908
H 13.6814 14.6663 -2.29359
H 14.554 -14.9782 -3.5914
O 6.54841 9.2927 0.746257
H 6.08693 9.66256 1.55259
H 7.31805 8.72313 1.03466
O 9.64683 2.22269 -12.9564
H 10.4405 2.66996 -13.3687
H 9.31778 2.77042 -12.1872
O -10.2821 -9.07956 1.93817
H -9.74273 -9.81375 1.52585
H -9.71148 -8.26502 2.04248
O 11.2712 -8.07356 -0.607737
H 11.6995 -7.23184 -0.279111
H 10.9478 -7.93929 -1.5444
O -9.82738 -9.8432 -7.16354
H -9.25446 -10.2848 -7.85398
H -9.76535 -8.85027 -7.26439
O -7.832 -1.15508 -6.01508
H -7.67357 -0.573186 -5.21744
H -8.02541 -2.08865 -5.71345
O -5.46449 11.1962 6.98746
H -6.04599 10.3844 7.0398
H -5.36386 11.4731 6.03187
O 0.659239 -7.29111 -4.88021
H 1.03454 -8.15185 -4.53638
H 0.651795 -6.61344 -4.14493
O -5.02169 -6.16902 7.07098
H -5.84482 -5.94091 7.59094
H -4.88687 -5.49282 6.34675
O 8.80896 7.43488 1.22751
H 9.38096 7.83519 1.9434
H 8.08627 6.88536 1.64666
O 0.630409 8.40726 5.34317
H 1.27032 8.99558 5.83747
H 1.05054 7.51295 5.18942
O 7.52239 11.1283 12.2933
H 7.70085 10.2793 11.7961
H 7.74702 11.0023 13.2595
O -11.1993 4.45789 10.8009
H -10.2646 4.78084 10.6524
H -11.3654 4.3578 11.7819
O 1.41116 -14.5973 -4.1531
H 2.17939 14.9255 -3.90842
H 1.75836 -13.7419 -4.53729
O 9.48748 -2.09396 5.17583
H 9.93492 -1.50542 4.50252
H 9.00819 -1.52827 5.8468
O -10.0267 7.65415 6.10542
H -10.5598 6.9164 5.69142
H -9.22303 7.27008 6.55997
O -0.0472999 -13.6721 -2.11349
H 0.693729 -13.3905 -1.50394
H 0.338306 -14.0902 -2.93595
O 4.50647 -13.4079 14.476
H 4.7326 -12.8879 -14.8148
H 5.26142 -14.0248 14.2535
O 7.21474 2.03697 7.79263
H 7.05815 2.52922 6.93641
H 7.29061 1.0577 7.60502
O 12.4513 -14.0739 2.9897
H 13.1831 -14.2925 3.63514
H 12.8342 -13.9808 2.07066
O -12.4634 -12.1917 3.73524
H -12.3438 -12.5194 2.7981
H -12.9073 -11.2958 3.72093
O 2.28051 6.23355 -14.1853
H 1.6406 6.99764 -14.2666
H 2.7482 6.09613 15.056
O 11.2295 -5.80865 10.9148
H 10.7833 -5.40841 10.1144
H 11.4094 -5.09246 11.5891
O -2.46229 -12.6824 -1.38243
H -1.54748 -13.0677 -1.50346
H -2.65006 -12.032 -2.11835
O 9.78231 2.99238 -6.57067
H 10.4267 2.33115 -6.18667
H 10.2053 3.8983 -6.58852
O 2.57048 12.3852 5.18132
H 2.22596 13.2967 5.4061
H 2.18018 12.0868 4.31037
O -14.4484 6.50781 5.32672
H -14.616 6.33141 4.3568
H -13.8611 7.31139 5.42274
O -0.961682 9.87165 3.37496
H -0.440202 9.33991 4.04223
H -0.341161 10.4679 2.86567
O -8.90946 -12.1525 6.94243
H -8.70118 -11.1767 6.8754
H -8.13681 -12.6829 6.59377
O 4.52862 -3.93713 13.9665
H 4.76329 -4.89971 13.8312
H 4.46003 -3.48278 13.0784
O -11.3875 8.11048 -11.2854
H -11.8386 7.27951 -11.6108
H -11.7283 8.89777 -11.7992
O 2.249 -11.618 -15.0335
H 3.00039 -12.0232 14.5602
H 1.37863 -11.9783 14.7454
O 1.7082 11.1478 2.57454
H 1.76531 10.6117 1.7324
H 1.63965 12.1192 2.34721
O -14.2756 -13.0775 -10.6535
H 14.8796 -13.3086 -10.4905
H -14.2096 -12.1302 -10.9669
O -12.6071 -0.0453404 -5.85801
H -11.6879 0.23725 -5.58366
H -12.6882 0.00560488 -6.85338
O -1.91879 -8.26443 10.2508
H -2.04599 -9.23547 10.4529
H -2.22169 -7.7189 11.0322
O 4.57611 6.82989 -0.223061
H 3.96739 6.47927 -0.934721
H 5.42955 6.30879 -0.227999
O -11.7038 -6.12088 4.39037
H -10.9426 -5.52102 4.63669
H -12.4241 -5.58273 3.95283
O 6.46932 -0.386728 14.4117
H 6.85601 -1.11044 13.8401
H 6.67644 -0.573839 -14.7425
O -4.6141 6.63964 -10.6834
H -4.95012 7.20648 -9.93129
H -4.00126 7.17997 -11.26
O 3.08615 -10.9705 8.50682
H 2.44373 -11.3157 9.19094
H 2.78472 -11.2503 7.59536
O -12.7132 -8.3902 -8.50181
H -12.6951 -7.75133 -9.27087
H -12.2129 -9.22068 -8.74655
O -13.084 -9.03139 -4.82327
H -13.4203 -9.67242 -5.51318
H -12.6416 -9.53909 -4.08405
O 2.33283 6.7417 11.195
H 2.38008 7.47409 11.8742
H 2.23012 7.13894 10.2831
O 8.9398 8.46778 -1.60709
H 9.85201 8.81121 -1.8304
H 8.92403 8.15717 -0.656719
O 3.52261 -2.55418 11.6677
H 2.78253 -3.1408 11.3389
H 3.23147 -1.59823 11.6311
O -6.7088 2.74517 -8.27469
H -6.13966 1.92319 -8.25571
H -6.13222 3.55273 -8.15087
O -5.76804 14.3884 -2.12404
H -6.01112 14.9311 -2.928
H -5.2806 14.9645 -1.46797
O -10.8474 8.7134 13.4863
H -11.0601 9.13716 12.6059
H -9.85562 8.68251 13.6103
O -10.4561 -13.9033 14.6636
H -11.1983 -13.9794 13.9978
H -9.79658 -14.6397 14.5132
O -2.71263 -0.0951007 14.7138
H -2.37114 0.78289 14.3785
H -2.11216 -0.431143 -14.675
O -14.7124 8.3485 -14.2641
H 14.5537 7.92674 -13.9441
H -14.9253 9.1891 -14.7621
O -12.0792 14.7883 -7.94922
H -11.2154 14.5889 -7.48671
H -12.0606 -14.3902 -8.3011
O -14.2259 -9.71845 7.57869
H 14.9516 -9.66859 7.23282
H -13.595 -9.37611 6.88253
O -12.4938 -12.2976 0.435707
H -11.9819 -11.5625 -0.00872105
H -13.1393 -12.6956 -0.216117
O 11.3787 -1.61821 13.7719
H 12.301 -1.34046 13.5033
H 10.9239 -0.85847 14.2365
O -11.7243 -10.4883 -10.2532
H -12.4995 -10.1946 -10.8124
H -10.9149 -9.955 -10.4991
O -10.6781 -3.03147 5.11534
H -10.4579 -2.58041 4.25047
H -11.3951 -2.51756 5.58619
O 6.04703 14.483 13.8581
H 5.4524 13.6923 13.7131
H 6.97632 14.1698 14.0538
O -13.3984 9.80758 10.073
H -13.0621 8.89927 9.8244
H -12.6229 10.4222 10.2173
O -0.57355 11.9977 -0.0299967
H -1.34544 11.9188 -0.660786
H 0.174355 11.4127 -0.343675
O 8.0215 -13.2621 -7.75209
H 8.81398 -13.5571 -7.21832
H 8.19131 -12.3497 -8.12438
O -14.3047 -9.23584 -14.0544
H -14.0989 -9.86608 -14.8029
H -13.5489 -8.59034 -13.9448
O 13.0059 1.8216 -11.6014
H 12.7826 2.32897 -12.4337
H 12.4393 2.15295 -10.847
O -7.71209 -7.25094 -10.1294
H -7.58212 -8.22154 -10.3318
H -6.89052 -6.74341 -10.389
O -7.95032 -3.78949 -5.24071
H -7.38397 -3.75449 -4.41733
H -8.86089 -4.12879 -5.00475
O -4.70505 0.992108 -3.83955
H -4.25723 0.323898 -4.4336
H -5.67448 0.763128 -3.75174
O -5.12097 -10.0602 5.7451
H -4.63036 -10.9235 5.86327
H -5.68497 -9.88425 6.55186
O 3.61692 -2.23703 6.25966
H 3.07557 -1.81387 5.53316
H 4.53454 -1.8397 6.26608
O -5.89797 -5.47687 13.7048
H -5.20358 -5.61826 12.9993
H -6.36932 -6.33992 13.8863
O 8.42498 -14.154 -1.0483
H 8.28106 -13.6279 -0.210195
H 7.58017 -14.6302 -1.29211
O 8.57132 -6.77137 -6.81998
H 7.86568 -6.26578 -7.31635
H 8.19443 -7.11035 -5.95802
O 9.25392 14.513 -4.5422
H 9.91584 -15.0192 -4.07003
H 9.66415 14.154 -5.38047
O 1.1813 13.7767 1.38601
H 0.895603 14.7305 1.479
H 0.471502 13.2615 0.905743
O 4.60326 -8.73061 4.4118
H 4.48857 -9.6133 3.95614
H 5.17777 -8.84595 5.22209
O -13.2209 1.67551 6.94156
H -12.9382 2.07932 7.81161
H -12.5521 0.987216 6.66067
O 1.37644 -10.5546 -6.18675
H 1.98584 -9.79264 -6.40588
H 1.17097 -10.5462 -5.20816
O -9.38537 -10.1305 10.4567
H -8.92649 -9.24378 10.5122
H -9.22673 -10.6414 11.3016
O -11.6848 5.69633 5.21202
H -11.4423 5.00853 4.52785
H -12.5866 5.48705 5.59001
O -8.2657 9.69038 2.00459
H -8.76312 10.407 1.51573
H -7.92403 9.01596 1.35009
O 6.12606 8.92989 -14.1804
H 5.61672 9.57297 -13.6085
H 6.85381 8.50757 -13.64