LAMMPS data file via write_data, version 15 May 2015, timestep = 4999000

2611 atoms
6 atom types
1749 bonds
4 bond types
894 angles
3 angle types
44 dihedrals
3 dihedral types
10 impropers
1 improper types

-1.5083471162850753e+01 1.5083471162850753e+01 xlo xhi
-1.5083471162850753e+01 1.5083471162850753e+01 ylo yhi
-1.5083471162850753e+01 1.5083471162850753e+01 zlo zhi

Masses

1 15.9994
2 1.00794
3 12.0107
4 1.00794
5 12.0107
6 12.0107

Bond Coeffs # harmonic

1 1000 1
2 469 1.4
3 367 1.08
4 469 0.7

Angle Coeffs # harmonic

1 100 109.47
2 35 120
3 63 120

Dihedral Coeffs # opls

1 0 7.25 0 0
2 0 7.25 0 0
3 0 7.25 0 0

Improper Coeffs # cvff

1 2.5 -1 2

Atoms # full

317 106 2 4.0999999999999998e-01 -1.0516519385870673e+01 -1.2462396602992719e+01 -1.0018773696175312e+01 -1 -1 0
318 106 2 4.0999999999999998e-01 -9.1499950855652745e+00 -1.1635126823510229e+01 -9.6800393530966140e+00 -1 -1 0
316 106 1 -8.1999999999999995e-01 -9.5200426631166657e+00 -1.2521147137543757e+01 -9.9593012461272625e+00 -1 -1 0
1014 338 2 4.0999999999999998e-01 -8.6523959778114889e+00 -1.4260292278163247e+01 -1.3891470660981913e+01 2 -1 1
113 38 2 4.0999999999999998e-01 -1.2415362827121230e+01 -1.2071256784023923e+01 -8.8909526704479820e+00 -2 0 2
1012 338 1 -8.1999999999999995e-01 -9.6507255129900500e+00 -1.4206020791897542e+01 -1.3910101224230417e+01 2 -1 1
1267 423 1 -8.1999999999999995e-01 -8.6430678087735568e+00 -9.9182509740462610e+00 -9.2817497535997227e+00 0 -1 3
1416 472 2 4.0999999999999998e-01 -1.2493825549317942e+01 -1.4110867950680770e+01 -7.8883851533662881e+00 0 1 -1
112 38 1 -8.1999999999999995e-01 -1.2090163953827592e+01 -1.2142141465076344e+01 -9.8339137006003909e+00 -2 0 2
1756 586 1 -8.1999999999999995e-01 -1.0938115456505994e+01 -1.1769132201750885e+01 -1.4205956888813718e+01 2 -1 1
1958 653 2 4.0999999999999998e-01 -1.1813439833398460e+01 -8.7200331015860488e+00 -1.3241745520673948e+01 3 -2 2
114 38 2 4.0999999999999998e-01 -1.2868881323278426e+01 -1.2094960635936156e+01 -1.0459475579007446e+01 -2 0 2
1269 423 2 4.0999999999999998e-01 -8.5051847005456018e+00 -1.0405173909277487e+01 -8.4192830894811443e+00 0 -1 3
927 309 2 4.0999999999999998e-01 -9.8575411119176461e+00 -1.0835628680125311e+01 -1.3023297272310952e+01 -1 1 2
833 278 2 4.0999999999999998e-01 -1.3868362143543479e+01 -1.1432335736498931e+01 -7.9403014063820869e+00 4 4 2
2058 686 2 4.0999999999999998e-01 -1.2246943427232347e+01 -9.4111363534187280e+00 -1.0549608232898112e+01 1 0 1
926 309 2 4.0999999999999998e-01 -8.9550289673378778e+00 -1.0214235552816266e+01 -1.1812575397360524e+01 -1 1 2
151 51 1 -8.1999999999999995e-01 -1.4555875403067791e+01 -6.0962803345958392e+00 -8.4230274040532684e+00 1 -1 0
1532 511 2 4.0999999999999998e-01 -1.2402236948169101e+01 -1.2766927885122429e+01 -1.3676102965980425e+01 2 0 1
2057 686 2 4.0999999999999998e-01 -1.1281624110696857e+01 -9.3897932818559333e+00 -1.1866501592536235e+01 1 0 1
2056 686 1 -8.1999999999999995e-01 -1.2070800506033127e+01 -8.9622487505495556e+00 -1.1425637939709155e+01 1 0 1
1533 511 2 4.0999999999999998e-01 -1.3613096009276632e+01 -1.3475526879549925e+01 -1.4511694276090829e+01 2 0 1
925 309 1 -8.1999999999999995e-01 -9.7312211841592280e+00 -1.0047713769880755e+01 -1.2420646604742052e+01 -1 1 2
1531 511 1 -8.1999999999999995e-01 -1.3309889586831687e+01 -1.3180626758377080e+01 -1.3605573860490420e+01 2 0 1
1013 338 2 4.0999999999999998e-01 -1.0033932717843639e+01 -1.4907632095519798e+01 -1.3309394740553104e+01 2 -1 1
12 4 2 4.0999999999999998e-01 -8.2962123509713699e+00 -1.3729030319689000e+01 -1.0797822722969961e+01 0 1 -2
1414 472 1 -8.1999999999999995e-01 -1.2118182640689815e+01 -1.5037479487952847e+01 -7.8729620900468094e+00 0 1 -1
1957 653 1 -8.1999999999999995e-01 -1.2267176264603487e+01 -8.5396874446159394e+00 -1.4114415635864249e+01 3 -2 2
834 278 2 4.0999999999999998e-01 -1.4884777431586198e+01 -1.0351907603042893e+01 -8.6230019223117296e+00 4 4 2
1959 653 2 4.0999999999999998e-01 -1.3258356151394317e+01 -8.5867596428886657e+00 -1.3990718170851332e+01 3 -2 2
819 273 2 4.0999999999999998e-01 -1.4774392610670610e+01 -6.8183059737295952e+00 -1.3345426928000723e+01 4 -1 1
820 274 1 -8.1999999999999995e-01 -8.0228653416367699e+00 -5.5064971803163658e+00 -1.0000346121034651e+01 0 -3 0
982 328 1 -8.1999999999999995e-01 -1.1924873593373427e+01 -6.2365253894674648e+00 -1.1953488621586148e+01 2 -1 1
1188 396 2 4.0999999999999998e-01 -9.2442610789836195e+00 -8.2230767027910723e+00 -1.2485023526066113e+01 1 -2 2
1055 352 2 4.0999999999999998e-01 -1.0707430190684974e+01 -5.7870367632104145e+00 -8.8859879336170344e+00 1 3 0
1054 352 1 -8.1999999999999995e-01 -1.1609181288917188e+01 -5.9528316293805350e+00 -9.2851261196207933e+00 1 3 0
984 328 2 4.0999999999999998e-01 -1.2084535340142018e+01 -7.1900629492776824e+00 -1.1698089588233987e+01 2 -1 1
1186 396 1 -8.1999999999999995e-01 -9.2376726830073750e+00 -7.2476500031709747e+00 -1.2264901473611229e+01 1 -2 2
1187 396 2 4.0999999999999998e-01 -1.0150591217127612e+01 -6.8667430325947691e+00 -1.2411338737604044e+01 1 -2 2
1056 352 2 4.0999999999999998e-01 -1.1507900994346569e+01 -6.1853315803218614e+00 -1.0252411183255248e+01 1 3 0
456 152 2 4.0999999999999998e-01 -1.1942801435139645e+01 -7.1195237898480208e+00 -8.0589980233484049e+00 0 -1 -1
1268 423 2 4.0999999999999998e-01 -7.8727087840679832e+00 -9.3014355860850220e+00 -9.4431194567987138e+00 0 -1 3
983 328 2 4.0999999999999998e-01 -1.2599178167416184e+01 -5.9571616078904679e+00 -1.2637026207805484e+01 2 -1 1
1758 586 2 4.0999999999999998e-01 -1.0316966037036423e+01 -1.2524928818825995e+01 -1.3998835420069035e+01 2 -1 1
821 274 2 4.0999999999999998e-01 -8.1671413890050939e+00 -6.4562722366700438e+00 -1.0277954143062672e+01 0 -3 0
1448 483 2 4.0999999999999998e-01 -1.4250810659779301e+01 -8.1419681509708006e+00 -8.8966174151773068e+00 2 -1 1
2451 817 2 4.0999999999999998e-01 -1.4761547496021493e+01 -1.2675982961127943e+01 -1.2860745936239161e+01 -1 0 -4
832 278 1 -8.1999999999999995e-01 -1.4652083473161865e+01 -1.1321799342720517e+01 -8.5514617886895881e+00 4 4 2
1447 483 1 -8.1999999999999995e-01 -1.4893412119555881e+01 -8.8328799877251143e+00 -9.2277648647272947e+00 2 -1 1
153 51 2 4.0999999999999998e-01 -1.4020733871275350e+01 -5.4137371519580899e+00 -8.9207348320331707e+00 1 -1 0
169 57 1 -8.1999999999999995e-01 -1.3806454146244496e+01 -5.1012807569857532e+00 -1.4061154140405328e+01 1 2 1
1427 476 2 4.0999999999999998e-01 -7.5496000391749405e+00 -1.2139757108030279e+01 -7.6059423249234506e+00 0 -1 1
1985 662 2 4.0999999999999998e-01 -7.6237545497006201e+00 -9.8680502704744111e+00 -1.4769508718399424e+01 2 1 2
546 182 2 4.0999999999999998e-01 -1.5043775670092330e+01 -9.6207243655625270e+00 -1.0921326249200300e+01 0 -3 1
1757 586 2 4.0999999999999998e-01 -1.1495547019119448e+01 -1.2004446343875427e+01 -1.5002104952482277e+01 2 -1 1
2414 805 2 4.0999999999999998e-01 -1.4946637245371763e+01 -1.4130418813852454e+01 -1.1282432775369003e+01 -1 1 1
1415 472 2 4.0999999999999998e-01 -1.1167430103457392e+01 -1.5006613362295782e+01 -7.5646256937964793e+00 0 1 -1
1374 458 2 4.0999999999999998e-01 -7.2158199234486649e+00 -1.1009222585486143e+01 -1.3265869873005034e+01 1 -1 0
493 165 1 -8.1999999999999995e-01 -6.9062444545469841e+00 -1.2753961944274584e+01 -1.3465175513101920e+01 1 -3 2
494 165 2 4.0999999999999998e-01 -5.9697174009909695e+00 -1.2945685615655181e+01 -1.3758626580785288e+01 1 -3 2
1509 503 2 4.0999999999999998e-01 -5.5731784739455925e+00 -8.3431138479653768e+00 -1.4869737916645033e+01 1 -1 4
10 4 1 -8.1999999999999995e-01 -7.3703215622760210e+00 -1.4072165283419425e+01 -1.0955743896984782e+01 0 1 -2
495 165 2 4.0999999999999998e-01 -7.0551940630329479e+00 -1.3137874318273115e+01 -1.2553923766993666e+01 1 -3 2
2395 799 1 -8.1999999999999995e-01 -2.7457918993548631e+00 -1.4940295310765126e+01 -8.4104008933874219e+00 -1 -1 2
2397 799 2 4.0999999999999998e-01 -3.1305758039555194e+00 -1.4049514212765414e+01 -8.6520717350987066e+00 -1 -1 2
680 227 2 4.0999999999999998e-01 -2.5768821410287401e-01 -7.4858462193503614e+00 -1.3619649975255626e+01 1 -2 2
403 135 1 -8.1999999999999995e-01 -7.1157923546937774e-01 -6.8055523741786939e+00 -9.0130318462692998e+00 -2 -2 2
1814 605 2 4.0999999999999998e-01 -5.7244957724671490e+00 -1.4577984427763543e+01 -1.4787673462682383e+01 0 -3 1
1081 361 1 -8.1999999999999995e-01 -4.4783200952439000e+00 -1.1939986640241960e+01 -7.8209338478939801e+00 2 -1 -1
1372 458 1 -8.1999999999999995e-01 -6.8191505031951714e+00 -1.0095894383242603e+01 -1.3174004499131842e+01 1 -1 0
435 145 2 4.0999999999999998e-01 -7.4165280621591618e+00 -7.2554500999130198e+00 -1.2540468553317471e+01 3 -2 4
1373 458 2 4.0999999999999998e-01 -5.8830282496164141e+00 -1.0172062817343482e+01 -1.2830743738720720e+01 1 -1 0
433 145 1 -8.1999999999999995e-01 -6.6189286493635429e+00 -7.2690199687964006e+00 -1.3143465637870843e+01 3 -2 4
2308 770 1 -8.1999999999999995e-01 -6.5904894317159410e+00 -1.3529565445931889e+01 -8.1293900158265782e+00 3 0 1
434 145 2 4.0999999999999998e-01 -6.3790331568449776e+00 -8.2158888852076224e+00 -1.3357577135907393e+01 3 -2 4
2309 770 2 4.0999999999999998e-01 -6.1048526305236006e+00 -1.4341465667897562e+01 -8.4533180076359713e+00 3 0 1
1925 642 2 4.0999999999999998e-01 -5.9527038024476280e+00 -1.3064866603049490e+01 -1.0591684957124041e+01 1 -1 0
1924 642 1 -8.1999999999999995e-01 -5.1150248955719952e+00 -1.2540183024306025e+01 -1.0743196044636399e+01 1 -1 0
2511 837 2 4.0999999999999998e-01 -5.9862650582588603e+00 -7.6714433557889006e+00 -1.0117284973771127e+01 0 1 -1
116 39 2 4.0999999999999998e-01 -5.1792804035879279e+00 -6.1753647204309807e+00 -1.2872050353822392e+01 0 1 3
2509 837 1 -8.1999999999999995e-01 -6.7086895013799168e+00 -8.1719802947361515e+00 -9.6402943089103026e+00 0 1 -1
2310 770 2 4.0999999999999998e-01 -5.9399071948061124e+00 -1.2781063177098087e+01 -8.0011653224935415e+00 3 0 1
2510 837 2 4.0999999999999998e-01 -6.9325833018982763e+00 -7.7014077573650654e+00 -8.7868381498565835e+00 0 1 -1
2115 705 2 4.0999999999999998e-01 -4.0933574091148905e+00 -1.3804656620803746e+01 -1.3436018120210630e+01 3 1 1
1971 657 2 4.0999999999999998e-01 -3.5407535245088102e+00 -1.0040767522294834e+01 -1.1763911845743561e+01 0 -1 -2
1935 645 2 4.0999999999999998e-01 -2.3143684288565503e+00 -1.0598630495647820e+01 -9.7985480279083497e+00 2 2 1
2214 738 2 4.0999999999999998e-01 -1.3669836660825307e+00 -9.6079690602718628e+00 -1.1389107155070102e+01 -2 -2 3
450 150 2 4.0999999999999998e-01 -3.3181512554070789e+00 -1.0865037245097856e+01 -1.3809947465116569e+01 2 0 3
2213 738 2 4.0999999999999998e-01 -2.4708401371692670e+00 -8.4176854488067185e+00 -1.1212384638385318e+01 -2 -2 3
2212 738 1 -8.1999999999999995e-01 -2.1855288599019183e+00 -9.3208274627593291e+00 -1.0891625565285993e+01 -2 -2 3
448 150 1 -8.1999999999999995e-01 -2.9844104556333217e+00 -1.0514158601620071e+01 -1.4684850723603367e+01 2 0 3
1933 645 1 -8.1999999999999995e-01 -2.2848573749788166e+00 -1.1403281006118100e+01 -9.2055716056452717e+00 2 2 1
1934 645 2 4.0999999999999998e-01 -1.3422129288991815e+00 -1.1569778990430603e+01 -8.9163410166086656e+00 2 2 1
2113 705 1 -8.1999999999999995e-01 -3.6370360694410273e+00 -1.3890463489862469e+01 -1.2550375809776563e+01 3 1 1
1969 657 1 -8.1999999999999995e-01 -4.3639524332751378e+00 -1.0326019208194683e+01 -1.2254757520695648e+01 0 -1 -2
1970 657 2 4.0999999999999998e-01 -4.7572923612414009e+00 -1.1129183965316455e+01 -1.1807360110656399e+01 0 -1 -2
2114 705 2 4.0999999999999998e-01 -4.1474903085753745e+00 -1.3376225085944281e+01 -1.1861209880454775e+01 3 1 1
2112 704 2 4.0999999999999998e-01 -2.0719776638156837e+00 -1.4754262973943813e+01 -1.3509596306031716e+01 -1 -2 0
1813 605 1 -8.1999999999999995e-01 -4.9549105307135655e+00 -1.3987615374156700e+01 -1.5030896365020819e+01 0 -3 1
1083 361 2 4.0999999999999998e-01 -3.7021116575370456e+00 -1.1615649771859118e+01 -8.3615450670435898e+00 2 -1 -1
1718 573 2 4.0999999999999998e-01 -4.8026085208766389e-02 -1.3279528156970175e+01 -8.5801479366058562e+00 1 -1 2
1926 642 2 4.0999999999999998e-01 -4.5936953085129986e+00 -1.2491263257848795e+01 -9.8912707510073901e+00 1 -1 0
405 135 2 4.0999999999999998e-01 -1.2035969455957698e+00 -6.9506529581342473e+00 -8.1546503236371581e+00 -2 -2 2
681 227 2 4.0999999999999998e-01 -4.4347479408789425e-01 -6.9291263403995060e+00 -1.2095822115026973e+01 1 -2 2
1389 463 2 4.0999999999999998e-01 -2.0021400726842700e+00 -6.1154630327726345e+00 -1.0779704489288392e+01 1 -1 -2
115 39 1 -8.1999999999999995e-01 -4.7029365356451613e+00 -5.3905589620265584e+00 -1.2475652992303150e+01 0 1 3
1387 463 1 -8.1999999999999995e-01 -2.4690123705694731e+00 -6.7012025975492051e+00 -1.1442195119683578e+01 1 -1 -2
404 135 2 4.0999999999999998e-01 -9.6500112397036730e-01 -5.9174537902896258e+00 -9.3964539767848336e+00 -2 -2 2
1388 463 2 4.0999999999999998e-01 -3.2395751266052226e+00 -6.2044444475823326e+00 -1.1841468003499891e+01 1 -1 -2
2383 795 1 -8.1999999999999995e-01 -2.8446185320358452e-01 -1.0500216108658025e+01 -1.2620226664337979e+01 -1 0 -1
2384 795 2 4.0999999999999998e-01 -3.8993695405679674e-01 -1.0979257936739920e+01 -1.3491632649150331e+01 -1 0 -1
1208 403 2 4.0999999999999998e-01 -1.2715860023577985e+00 -9.3195087214381047e+00 -1.4848835706565756e+01 4 2 4
11 4 2 4.0999999999999998e-01 -7.3494473486076393e+00 -1.5059496581688050e+01 -1.0798595517085584e+01 0 1 -2
449 150 2 4.0999999999999998e-01 -3.5331100310080590e+00 -9.7241456145068987e+00 -1.4958278436711819e+01 2 0 3
2536 846 1 -8.1999999999999995e-01 -4.8067676986988772e-02 -1.2596393781848203e+01 -1.4631191955497915e+01 0 0 1
1207 403 1 -8.1999999999999995e-01 -9.2737991767692662e-01 -8.3934157765300306e+00 -1.5003200099381003e+01 4 2 4
2466 822 2 4.0999999999999998e-01 -1.2388185109337011e+01 -1.1961791309962846e+01 -3.2072643462803256e+00 1 -2 0
1867 623 1 -8.1999999999999995e-01 -8.9921988086633071e+00 -1.3771114593804661e+01 -6.2895509867123724e+00 2 1 3
1868 623 2 4.0999999999999998e-01 -9.0014216447101294e+00 -1.3039136505682025e+01 -6.9707833033664084e+00 2 1 3
2464 822 1 -8.1999999999999995e-01 -1.3166640477114116e+01 -1.1353289221889371e+01 -3.3611697715284077e+00 1 -2 0
1431 477 2 4.0999999999999998e-01 -9.1938120398184253e+00 -1.2821810268059966e+01 -2.6211928000021096e+00 2 -1 3
2465 822 2 4.0999999999999998e-01 -1.3190714154985010e+01 -1.0655332118724216e+01 -2.6454667652282868e+00 1 -2 0
497 166 2 4.0999999999999998e-01 -1.0910760220129577e+01 -1.2124870363408590e+01 -4.6419012631802072e+00 0 0 3
496 166 1 -8.1999999999999995e-01 -1.0676157413766596e+01 -1.2964708119262029e+01 -4.1524234553889734e+00 0 0 3
498 166 2 4.0999999999999998e-01 -1.1453242334547516e+01 -1.3593547758267968e+01 -4.1779995025638677e+00 0 0 3
1429 477 1 -8.1999999999999995e-01 -8.6954461537276213e+00 -1.2782744556576485e+01 -1.7551329067087771e+00 2 -1 3
1430 477 2 4.0999999999999998e-01 -8.1234249412413551e+00 -1.1962746521190706e+01 -1.7364409151348958e+00 2 -1 3
1838 613 2 4.0999999999999998e-01 -1.3656061556272686e+01 -1.4862448585306147e+01 -5.3007963554475754e+00 2 -1 3
1794 598 2 4.0999999999999998e-01 -1.3728083147865947e+01 -7.7732983082627838e+00 -6.3093627848781715e+00 0 0 -1
1239 413 2 4.0999999999999998e-01 -1.0319405647453586e+01 -1.2000371633121908e+01 -9.5183846773572967e-01 1 1 0
1873 625 1 -8.1999999999999995e-01 -1.2473738389441229e+01 -6.0269535462707218e+00 -4.5221385252890762e+00 2 -3 -1
2478 826 2 4.0999999999999998e-01 -1.2688172345580261e+01 -1.3145272827680010e+01 -6.2667419615639375e+00 2 -1 -1
1837 613 1 -8.1999999999999995e-01 -1.2746116292986310e+01 -1.4520775037211912e+01 -5.0658213386863871e+00 2 -1 3
1661 554 2 4.0999999999999998e-01 -1.4885464567725698e+01 -8.3066611227654370e+00 -1.1445168799627456e+00 -1 2 1
1401 467 2 4.0999999999999998e-01 -1.0433006505761421e+01 -9.8100932949634281e+00 -5.8846729736074561e+00 1 0 1
2204 735 2 4.0999999999999998e-01 -7.8555791444946692e+00 -8.7763361656878054e+00 -1.0579583943877058e+00 2 -1 -1
1792 598 1 -8.1999999999999995e-01 -1.4235587113306606e+01 -7.8786607024185615e+00 -5.4542061113176334e+00 0 0 -1
1511 504 2 4.0999999999999998e-01 -1.0972305497660704e+01 -5.5621527275523786e+00 -3.9350363235661199e+00 0 1 1
407 136 2 4.0999999999999998e-01 -1.0008952768868777e+01 -8.3089325902558535e+00 -1.7790643003135322e+00 2 -2 -1
406 136 1 -8.1999999999999995e-01 -1.0865918623366881e+01 -8.5423083710168264e+00 -2.2385201597771278e+00 2 -2 -1
408 136 2 4.0999999999999998e-01 -1.1088258552632862e+01 -9.5011758143392484e+00 -2.0621895442009919e+00 2 -2 -1
455 152 2 4.0999999999999998e-01 -1.1424829845385190e+01 -7.8297520483157932e+00 -6.6828489386503840e+00 0 -1 -1
1426 476 1 -8.1999999999999995e-01 -8.0800874705809953e+00 -1.1400079211196946e+01 -7.1919205951288463e+00 0 -1 1
1400 467 2 4.0999999999999998e-01 -9.6485563647795534e+00 -1.0958944292700998e+01 -6.7398246552638330e+00 1 0 1
180 60 2 4.0999999999999998e-01 -1.4600959150785675e+01 -1.0710996366501551e+01 -4.2805769187282312e+00 -1 1 3
2205 735 2 4.0999999999999998e-01 -8.5816321789932370e+00 -7.4876904321713722e+00 -3.6604503857676640e-01 2 -1 -1
2203 735 1 -8.1999999999999995e-01 -8.5680637287811869e+00 -8.4861662640966369e+00 -4.1911448052750977e-01 2 -1 -1
2552 851 2 4.0999999999999998e-01 -8.3295558259751523e+00 -1.3812606141031624e+01 -1.4309003514645191e-01 -1 -1 2
402 134 2 4.0999999999999998e-01 -1.0760886389628302e+01 -7.9704385281871790e+00 -4.3230658830708908e+00 3 0 -1
400 134 1 -8.1999999999999995e-01 -1.0250387981974018e+01 -8.1136321397053202e+00 -5.1709110210554599e+00 3 0 -1
401 134 2 4.0999999999999998e-01 -9.3541335024198222e+00 -7.6761334894699393e+00 -5.0982663336237533e+00 3 0 -1
1399 467 1 -8.1999999999999995e-01 -1.0457622147463670e+01 -1.0763387312368984e+01 -6.1856365148340640e+00 1 0 1
1149 383 2 4.0999999999999998e-01 -1.4075592392843314e+01 -1.3883388956669087e+01 -1.6810060735028092e+00 0 -1 2
200 67 2 4.0999999999999998e-01 -9.1740571882618518e+00 -1.4736913549589735e+01 -2.0382014758379796e+00 2 3 0
1793 598 2 4.0999999999999998e-01 -1.4505888106248285e+01 -8.8349325637057490e+00 -5.3426895262716165e+00 0 0 -1
1148 383 2 4.0999999999999998e-01 -1.4086530625047807e+01 -1.4552412745448935e+01 -3.1705672747378806e+00 0 -1 2
1147 383 1 -8.1999999999999995e-01 -1.4517028206112425e+01 -1.4561965934154859e+01 -2.2680513515526375e+00 0 -1 2
454 152 1 -8.1999999999999995e-01 -1.2114262640829351e+01 -7.8577421757039208e+00 -7.4066261128611099e+00 0 -1 -1
2226 742 2 4.0999999999999998e-01 -1.2170981347043337e+01 -7.5694376343563530e+00 -1.7617290738602929e+00 2 -1 2
2224 742 1 -8.1999999999999995e-01 -1.2970942367632645e+01 -7.2181982079315228e+00 -1.2752646444274003e+00 2 -1 2
1558 520 1 -8.1999999999999995e-01 -8.1165236004915542e+00 -6.1280504178780912e+00 -5.2338550225402312e+00 1 -2 -1
2225 742 2 4.0999999999999998e-01 -1.2983162586442774e+01 -6.2198528230289494e+00 -1.3310465479837958e+00 2 -1 2
2359 787 1 -8.1999999999999995e-01 -9.0795266146236777e+00 -5.7675174911151164e+00 -6.7146282072430630e-01 2 0 0
1874 625 2 4.0999999999999998e-01 -1.3057573290476769e+01 -6.7399979923669591e+00 -4.9102865237921378e+00 2 -3 -1
1512 504 2 4.0999999999999998e-01 -1.0216465935037039e+01 -5.7476413818410066e+00 -2.4994857132683599e+00 0 1 1
1560 520 2 4.0999999999999998e-01 -8.0799653460926297e+00 -5.5510820854525296e+00 -4.4179350284460206e+00 1 -2 -1
1559 520 2 4.0999999999999998e-01 -8.3946369320995391e+00 -5.5762664442274232e+00 -6.0200750179374243e+00 1 -2 -1
1237 413 1 -8.1999999999999995e-01 -1.1020186196551032e+01 -1.1309375861885769e+01 -7.7467793283907938e-01 1 1 0
2476 826 1 -8.1999999999999995e-01 -1.2514887412050161e+01 -1.2451764654975269e+01 -6.9660081408668226e+00 2 -1 -1
1869 623 2 4.0999999999999998e-01 -9.4598218589962659e+00 -1.3461751656864909e+01 -5.4615548283929272e+00 2 1 3
1510 504 1 -8.1999999999999995e-01 -1.0222648093571868e+01 -5.2364818665276189e+00 -3.3589228435670542e+00 0 1 1
2477 826 2 4.0999999999999998e-01 -1.1961860500591570e+01 -1.1715742243165508e+01 -6.5756407549204621e+00 2 -1 -1
482 161 2 4.0999999999999998e-01 -1.2338426407533177e+01 -1.2510737228714925e+01 -4.4258189944878268e-01 -1 -3 0
481 161 1 -8.1999999999999995e-01 -1.2845085627724693e+01 -1.3364829599583013e+01 -5.5995782829589658e-01 -1 -3 0
1875 625 2 4.0999999999999998e-01 -1.2910065110885412e+01 -5.1355708696038480e+00 -4.6446553136064548e+00 2 -3 -1
792 264 2 4.0999999999999998e-01 -1.3361417870590426e+01 -8.5243835859531494e+00 -1.1708161008274409e-01 -1 2 1
1887 629 2 4.0999999999999998e-01 -3.9807620439260205e-01 -7.5152715411832069e+00 -3.6301700019863041e+00 -1 0 0
1929 643 2 4.0999999999999998e-01 -1.7624284811516784e+00 -7.7414545258998002e+00 -5.8249053952745946e+00 0 -3 3
1082 361 2 4.0999999999999998e-01 -4.7205708692740380e+00 -1.1250375611600303e+01 -7.1385076051869927e+00 2 -1 -1
1748 583 2 4.0999999999999998e-01 -7.8772760881173376e-01 -1.3604700504730097e+01 -7.4372050662387323e-01 -1 -2 1
2432 811 2 4.0999999999999998e-01 -4.7608056344275802e+00 -8.0238662128945357e+00 -6.6745175774469363e+00 1 3 0
1428 476 2 4.0999999999999998e-01 -7.4689414370918890e+00 -1.0800150632702092e+01 -6.6756448499367842e+00 0 -1 1
1488 496 2 4.0999999999999998e-01 -7.3277576378892197e+00 -1.4139832452616826e+01 -4.9679281484289319e+00 1 1 0
1927 643 1 -8.1999999999999995e-01 -1.9788941310479782e+00 -7.1900397565218350e+00 -6.6305347473448055e+00 0 -3 3
1073 358 2 4.0999999999999998e-01 -4.3163694052240498e+00 -5.9884731191159162e+00 -7.2663981683563250e-01 -1 1 -1
1886 629 2 4.0999999999999998e-01 -6.1223226374540474e-02 -8.6458169193339351e+00 -4.7592856982134677e+00 -1 0 0
1379 460 2 4.0999999999999998e-01 -5.8824699445873208e+00 -7.8976094748647743e+00 -2.5030448164842358e+00 2 2 1
1747 583 1 -8.1999999999999995e-01 -5.7658510228553261e-01 -1.4473187751485582e+01 -2.9527518607889647e-01 -1 -2 1
2433 811 2 4.0999999999999998e-01 -3.4062436873691251e+00 -8.6204728370361927e+00 -7.3642475491676498e+00 1 3 0
1945 649 1 -8.1999999999999995e-01 -5.6586808249425520e+00 -1.3474825870454676e+01 -2.0959393869478173e+00 4 -1 -2
2431 811 1 -8.1999999999999995e-01 -4.2799045523243056e+00 -8.8593186310348120e+00 -6.9404270457901251e+00 1 3 0
1378 460 1 -8.1999999999999995e-01 -6.1325213940515226e+00 -8.6152934098508638e+00 -1.8531536985927950e+00 2 2 1
1928 643 2 4.0999999999999998e-01 -1.9154452923134162e+00 -6.2197452282370893e+00 -6.3971740497874325e+00 0 -3 3
1486 496 1 -8.1999999999999995e-01 -6.9381030592422874e+00 -1.4553277016072158e+01 -4.1450142087500890e+00 1 1 0
2520 840 2 4.0999999999999998e-01 -2.5664561553249783e+00 -1.0483672612399225e+01 -2.4831271686630529e-01 -1 0 0
1946 649 2 4.0999999999999998e-01 -6.3811680872554852e+00 -1.3734642961360203e+01 -2.7366121186381882e+00 4 -1 -2
397 133 1 -8.1999999999999995e-01 -6.7712272139482934e+00 -1.1095347069033252e+01 -2.9996245824986065e+00 0 1 0
2108 703 2 4.0999999999999998e-01 -5.4523892014695878e+00 -1.2186926460619194e+01 -9.3670965295412323e-01 0 1 2
399 133 2 4.0999999999999998e-01 -6.5913666827775437e+00 -1.0217115003896279e+01 -2.5565523465598456e+00 0 1 0
398 133 2 4.0999999999999998e-01 -6.1735593035018930e+00 -1.1794867077215208e+01 -2.6079368828354959e+00 0 1 0
1380 460 2 4.0999999999999998e-01 -5.3183859915112137e+00 -8.9107069868957591e+00 -1.3532850160543486e+00 2 2 1
2457 819 2 4.0999999999999998e-01 -6.2763670406667291e+00 -1.0835451623819807e+01 -4.8932244229170436e+00 2 0 1
2455 819 1 -8.1999999999999995e-01 -6.1630271039519169e+00 -1.0350783382247196e+01 -5.7605220629323508e+00 2 0 1
2456 819 2 4.0999999999999998e-01 -5.5807570032052514e+00 -9.5498528347977398e+00 -5.6211442749145828e+00 2 0 1
2022 674 2 4.0999999999999998e-01 -4.9793529289307585e+00 -5.5990467066988643e+00 -5.8940918020966553e+00 0 1 -3
2020 674 1 -8.1999999999999995e-01 -5.3208882370064945e+00 -6.5365693010673755e+00 -5.9601180588933982e+00 0 1 -3
2021 674 2 4.0999999999999998e-01 -6.2942088286687152e+00 -6.5536098127034990e+00 -5.7314025794947359e+00 0 1 -3
1074 358 2 4.0999999999999998e-01 -4.6367278713298159e+00 -6.4497434717404687e+00 -2.2599711979395227e+00 -1 1 -1
2400 800 2 4.0999999999999998e-01 -4.5602708518027129e+00 -7.3576801599718546e+00 -4.4686381460064784e+00 7 0 0
1281 427 2 4.0999999999999998e-01 -2.5308868858219693e+00 -1.3656739307252533e+01 -4.5066783644412087e+00 1 2 0
2518 840 1 -8.1999999999999995e-01 -2.7523489884795076e+00 -1.0905707295566295e+01 -1.1356035504922684e+00 -1 0 0
1806 602 2 4.0999999999999998e-01 -4.3125638196999194e+00 -1.4308806699000591e+01 -5.8300724086718212e+00 2 0 3
1280 427 2 4.0999999999999998e-01 -2.6425877870823964e+00 -1.2095901193562927e+01 -4.0399748751935789e+00 1 2 0
1279 427 1 -8.1999999999999995e-01 -2.1777531621698945e+00 -1.2965917087386597e+01 -3.8757935760815574e+00 1 2 0
21 7 2 4.0999999999999998e-01 -3.2415706115365968e+00 -1.0330782266650159e+01 -2.9712965563794977e+00 -1 -1 2
325 109 1 -8.1999999999999995e-01 -6.5644188096150735e-01 -6.0953103783156646e+00 -8.1584788710710399e-02 1 1 3
566 189 2 4.0999999999999998e-01 -8.8114385856846411e-01 -1.2552074458386194e+01 -2.8415327191762252e+00 1 -3 1
1947 649 2 4.0999999999999998e-01 -5.0630327917577880e+00 -1.4260463966228913e+01 -1.9288147517910144e+00 4 -1 -2
565 189 1 -8.1999999999999995e-01 -3.2294595514521873e-01 -1.2271439355727484e+01 -2.0607552873825199e+00 1 -3 1
19 7 1 -8.1999999999999995e-01 -3.1826348774582733e+00 -1.0126361720977426e+01 -3.9483806286317034e+00 -1 -1 2
1885 629 1 -8.1999999999999995e-01 -6.9594243973936187e-01 -8.3804266994857759e+00 -4.0335763908210680e+00 -1 0 0
1072 358 1 -8.1999999999999995e-01 -4.8919260565823315e+00 -5.8195177325362675e+00 -1.5267291928890714e+00 -1 1 -1
2399 800 2 4.0999999999999998e-01 -3.9164921849161800e+00 -8.4872703460279624e+00 -3.4806705440921881e+00 7 0 0
1804 602 1 -8.1999999999999995e-01 -3.5581736366770755e+00 -1.4965064139410195e+01 -5.8168040893321624e+00 2 0 3
2519 840 2 4.0999999999999998e-01 -1.9652724178905583e+00 -1.1455903313961890e+01 -1.4144390373019302e+00 -1 0 0
20 7 2 4.0999999999999998e-01 -2.2950630444723927e+00 -9.7118401416281692e+00 -4.1492350276886238e+00 -1 -1 2
2398 800 1 -8.1999999999999995e-01 -4.4015338582698043e+00 -7.6134815862757712e+00 -3.5150540552403946e+00 7 0 0
2107 703 1 -8.1999999999999995e-01 -5.4693315407522807e+00 -1.1822994281597076e+01 -5.4627722121356470e-03 0 1 2
1625 542 2 4.0999999999999998e-01 -1.0283956967072776e+01 -1.2769805895244140e+01 3.9232912382432410e+00 3 1 1
1624 542 1 -8.1999999999999995e-01 -1.0854121651068946e+01 -1.2049049035124350e+01 4.3174691078669660e+00 3 1 1
1626 542 2 4.0999999999999998e-01 -1.1727475022294078e+01 -1.2437890373156257e+01 4.6107449126761857e+00 3 1 1
2278 760 1 -8.1999999999999995e-01 -1.1864740475569377e+01 -7.0461472170581469e+00 2.7199495647097507e+00 1 -2 0
2279 760 2 4.0999999999999998e-01 -1.1844437817129219e+01 -7.2252081711414062e+00 3.7035548895420938e+00 1 -2 0
361 121 1 -8.1999999999999995e-01 -1.1836219774086839e+01 -9.9808693577965997e+00 2.1873660266889203e+00 1 0 -2
362 121 2 4.0999999999999998e-01 -1.1900150711016998e+01 -1.0812510231814564e+01 2.7389462592041696e+00 1 0 -2
363 121 2 4.0999999999999998e-01 -1.0924181942222170e+01 -9.5833882935859958e+00 2.2881145567584262e+00 1 0 -2
1419 473 2 4.0999999999999998e-01 -8.5003703993758588e+00 -1.4017672249873570e+01 3.7287697658464118e+00 3 1 1
2272 758 1 -8.1999999999999995e-01 -1.3561550873486423e+01 -6.5201758188257273e+00 7.4945826752850415e+00 2 -1 0
386 129 2 4.0999999999999998e-01 -7.7564245626329926e+00 -1.1884263868047512e+01 3.1106279656459499e+00 -2 2 1
358 120 1 -8.1999999999999995e-01 -1.4438993169700838e+01 -9.6895433244429299e+00 5.3426031729846919e+00 3 0 1
360 120 2 4.0999999999999998e-01 -1.3634813035205948e+01 -9.3105077649923338e+00 4.8848034481797526e+00 3 0 1
2280 760 2 4.0999999999999998e-01 -1.2004324113294118e+01 -7.9052430985622433e+00 2.2275827116039615e+00 1 -2 0
2458 820 1 -8.1999999999999995e-01 -8.8803709692617208e+00 -1.1193384671705745e+01 5.9544728628405394e+00 1 2 3
387 129 2 4.0999999999999998e-01 -8.0770051120833184e+00 -1.0316170784721793e+01 2.7868730803129900e+00 -2 2 1
52 18 1 -8.1999999999999995e-01 -9.2777656631090473e+00 -8.9419595258700539e+00 2.3361106475317150e+00 0 -1 -1
54 18 2 4.0999999999999998e-01 -9.0832830421187758e+00 -8.7094292678838130e+00 1.3831884809358534e+00 0 -1 -1
2460 820 2 4.0999999999999998e-01 -8.0445778550021299e+00 -1.1616142577160804e+01 5.6042158777134858e+00 1 2 3
1417 473 1 -8.1999999999999995e-01 -8.8116408736105178e+00 -1.3322846049587163e+01 3.0804784528725868e+00 3 1 1
2459 820 2 4.0999999999999998e-01 -9.5871187467093542e+00 -1.1216435466233499e+01 5.2474151895173939e+00 1 2 3
790 264 1 -8.1999999999999995e-01 -1.3868000209237422e+01 -8.9435252557521068e+00 6.3634326391186491e-01 -1 2 1
1408 470 1 -8.1999999999999995e-01 -1.3780024904910745e+01 -1.2051245656375944e+01 6.6787232202580427e+00 -2 -2 1
53 18 2 4.0999999999999998e-01 -8.8625974477730498e+00 -8.2591362556093983e+00 2.9372280840893836e+00 0 -1 -1
1410 470 2 4.0999999999999998e-01 -1.4245862135272226e+01 -1.2901016953115771e+01 6.4320677985804124e+00 -2 -2 1
791 264 2 4.0999999999999998e-01 -1.3233972319645693e+01 -9.4413078383024480e+00 1.2280996327097888e+00 -1 2 1
1418 473 2 4.0999999999999998e-01 -8.8440961767591038e+00 -1.3715309905571633e+01 2.1613086373557167e+00 3 1 1
307 103 1 -8.1999999999999995e-01 -1.4915499201860028e+01 -1.4369664864116944e+01 6.0492839723123559e+00 2 1 2
1586 529 2 4.0999999999999998e-01 -1.4026291723601556e+01 -1.4515070415510920e+01 2.5686151728204010e+00 4 -1 0
1585 529 1 -8.1999999999999995e-01 -1.5025906753375367e+01 -1.4499874574747476e+01 2.5464041623323226e+00 4 -1 0
2361 787 2 4.0999999999999998e-01 -9.7242631473215475e+00 -5.5244974551646191e+00 5.3251272568129338e-02 2 0 0
376 126 1 -8.1999999999999995e-01 -1.1645053748774593e+01 -7.7070575868200626e+00 5.4510158912933697e+00 2 1 -1