LAMMPS data file via write_data, version 15 May 2015, timestep = 2000000

2611 atoms
6 atom types
1749 bonds
4 bond types
894 angles
3 angle types
44 dihedrals
3 dihedral types
10 impropers
1 improper types

-1.5101975195679685e+01 1.5101975195679685e+01 xlo xhi
-1.5101975195679685e+01 1.5101975195679685e+01 ylo yhi
-1.5101975195679685e+01 1.5101975195679685e+01 zlo zhi

Masses

1 15.9994
2 1.00794
3 12.0107
4 1.00794
5 12.0107
6 12.0107

Bond Coeffs # harmonic

1 1000 1
2 469 1.4
3 367 1.08
4 469 0.7

Angle Coeffs # harmonic

1 100 109.47
2 35 120
3 63 120

Dihedral Coeffs # opls

1 0 7.25 0 0
2 0 7.25 0 0
3 0 7.25 0 0

Improper Coeffs # cvff

1 2.5 -1 2

Atoms # full

1845 615 2 4.0999999999999998e-01 -1.3955059137345090e+01 -8.2620230553105340e+00 -9.1335250497358551e+00 1 0 0
1015 339 1 -8.1999999999999995e-01 -1.3213320889446038e+01 -1.4043476251276569e+01 -1.1181638828051106e+01 1 -2 1
698 233 2 4.0999999999999998e-01 -1.3272074404734743e+01 -9.4928784591780264e+00 -1.3658089861620194e+01 1 0 1
1016 339 2 4.0999999999999998e-01 -1.4079157190202073e+01 -1.4286612767955956e+01 -1.0744402480827288e+01 1 -2 1
1843 615 1 -8.1999999999999995e-01 -1.4859748881429091e+01 -8.2165451205083162e+00 -8.7099311884017521e+00 1 0 0
890 297 2 4.0999999999999998e-01 -1.0652271479701252e+01 -1.4343527412637032e+01 -9.3567572807574244e+00 1 0 1
37 13 1 -8.1999999999999995e-01 -8.6976664405387112e+00 -6.1983155681862065e+00 -1.3330112798138909e+01 -1 0 1
512 171 2 4.0999999999999998e-01 -1.1511856003011395e+01 -8.0196733714466681e+00 -1.1042677919890050e+01 1 0 0
511 171 1 -8.1999999999999995e-01 -1.2318898108221688e+01 -8.2557742569397874e+00 -1.0501472847844685e+01 1 0 0
513 171 2 4.0999999999999998e-01 -1.2372134332430603e+01 -9.2489937514939093e+00 -1.0398300918071225e+01 1 0 0
38 13 2 4.0999999999999998e-01 -8.8506463745277877e+00 -5.8132401685053452e+00 -1.2420015230291195e+01 -1 0 1
697 233 1 -8.1999999999999995e-01 -1.2295786329050745e+01 -9.6325113181147834e+00 -1.3823401048583271e+01 1 0 1
507 169 2 4.0999999999999998e-01 -1.0879397742889193e+01 -6.7377942438564435e+00 -8.1620423869608061e+00 1 1 -1
699 233 2 4.0999999999999998e-01 -1.2037341605878488e+01 -1.0554351663653968e+01 -1.3534644700379831e+01 1 0 1
39 13 2 4.0999999999999998e-01 -9.2831195707416043e+00 -5.7309338301127859e+00 -1.3992504262130320e+01 -1 0 1
1291 431 1 -8.1999999999999995e-01 -1.2259708862921221e+01 -5.8720431687061936e+00 -9.0673254554668183e+00 -1 1 1
1017 339 2 4.0999999999999998e-01 -1.2461406408305033e+01 -1.4506596504535731e+01 -1.0712482247781333e+01 1 -2 1
2113 705 1 -8.1999999999999995e-01 -1.0299574320641280e+01 -8.2091733340790345e+00 -1.2400301804086816e+01 1 1 0
2114 705 2 4.0999999999999998e-01 -9.5549683874692679e+00 -7.7440918961583938e+00 -1.2879076020103181e+01 1 1 0
2115 705 2 4.0999999999999998e-01 -1.0846899281406376e+01 -8.7266475667351706e+00 -1.3058039818115889e+01 1 1 0
2437 813 1 -8.1999999999999995e-01 -1.2000614470661164e+01 -1.2322776896134659e+01 -1.3384345121182982e+01 0 1 1
1185 395 2 4.0999999999999998e-01 -9.8880224622519712e+00 -1.0710302176730693e+01 -1.2028761733152088e+01 0 1 2
2439 813 2 4.0999999999999998e-01 -1.2549724248578933e+01 -1.2832465519378971e+01 -1.2722031297752856e+01 0 1 1
1184 395 2 4.0999999999999998e-01 -9.1049306923562945e+00 -1.0156632155390664e+01 -1.0707116583434019e+01 0 1 2
1183 395 1 -8.1999999999999995e-01 -9.2290302485830864e+00 -1.0942206919420947e+01 -1.1313280813920199e+01 0 1 2
1000 334 1 -8.1999999999999995e-01 -1.2141778786580486e+01 -1.1150176891874423e+01 -9.8708947882745672e+00 0 -1 3
1111 371 1 -8.1999999999999995e-01 -8.7874810873075742e+00 -5.2660894585688975e+00 -1.0668085120171458e+01 0 1 2
1407 469 2 4.0999999999999998e-01 -9.0280002774123727e+00 -1.2849327173664856e+01 -8.5984326589919853e+00 -2 0 0
1002 334 2 4.0999999999999998e-01 -1.2911929961508694e+01 -1.1659613473791392e+01 -1.0254698155498275e+01 0 -1 3
1406 469 2 4.0999999999999998e-01 -9.6965461219502984e+00 -1.2303514786609657e+01 -9.9846737933604395e+00 -2 0 0
281 94 2 4.0999999999999998e-01 -1.4830000586598292e+01 -1.1420492934765583e+01 -1.4339139788881701e+01 0 1 0
2198 733 2 4.0999999999999998e-01 -1.5048547339598922e+01 -7.1310640765365036e+00 -1.2279340882919405e+01 1 -1 1
2438 813 2 4.0999999999999998e-01 -1.2050441733888453e+01 -1.2773379371750664e+01 -1.4275657713908659e+01 0 1 1
506 169 2 4.0999999999999998e-01 -9.3846347203403191e+00 -7.1143371485137088e+00 -7.6231285701933578e+00 1 1 -1
1844 615 2 4.0999999999999998e-01 -1.5047823081943116e+01 -9.0748929560075347e+00 -8.2326151449369824e+00 1 0 0
1405 469 1 -8.1999999999999995e-01 -9.6934894585624392e+00 -1.3048588325770279e+01 -9.3177258387329154e+00 -2 0 0
280 94 1 -8.1999999999999995e-01 -1.4892462362385039e+01 -1.2228979661640334e+01 -1.4924298979897333e+01 0 1 0
2199 733 2 4.0999999999999998e-01 -1.4672469383239202e+01 -5.9544187010652738e+00 -1.3347329767278346e+01 1 -1 1
2340 780 2 4.0999999999999998e-01 -8.3416353780016763e+00 -1.4207119677796927e+01 -1.3899358179958616e+01 0 0 0
2335 779 1 -8.1999999999999995e-01 -8.0995040634927804e+00 -7.4117608370353949e+00 -9.1753649097173593e+00 2 0 2
2337 779 2 4.0999999999999998e-01 -8.4234242130839370e+00 -6.7898059961353461e+00 -9.8882544153936038e+00 2 0 2
1001 334 2 4.0999999999999998e-01 -1.1783122158624259e+01 -1.1637797176638704e+01 -9.0749328758014638e+00 0 -1 3
478 160 1 -8.1999999999999995e-01 -1.5045907949884846e+01 -1.0158514204381206e+01 -1.3179092387289572e+01 1 0 1
2127 709 2 4.0999999999999998e-01 -8.3241119513047561e+00 -1.2653960064260060e+01 -1.1886346833011812e+01 0 0 2
2126 709 2 4.0999999999999998e-01 -7.9645031280575544e+00 -1.4062963846893117e+01 -1.1143434344568480e+01 0 0 2
2336 779 2 4.0999999999999998e-01 -7.7483922337611189e+00 -8.2478609768705073e+00 -9.5968154489002622e+00 2 0 2
2125 709 1 -8.1999999999999995e-01 -8.0978403116743589e+00 -1.3617539987655544e+01 -1.2028749149729826e+01 0 0 2
1292 431 2 4.0999999999999998e-01 -1.2353023572531407e+01 -6.7520654264107556e+00 -9.5329612809535291e+00 -1 1 1
1293 431 2 4.0999999999999998e-01 -1.3158676912545850e+01 -5.4420720226211952e+00 -8.9839902787669743e+00 -1 1 1
600 200 2 4.0999999999999998e-01 -1.4977918035493550e+01 -6.6113520911528436e+00 -9.5281476662359452e+00 1 0 2
2150 717 2 4.0999999999999998e-01 -1.5037866991174511e+01 -1.3990614281797033e+01 -1.4237722639927867e+01 0 0 1
889 297 1 -8.1999999999999995e-01 -1.1193962698540421e+01 -1.5099117527541853e+01 -9.7250203436702662e+00 1 0 1
1736 579 2 4.0999999999999998e-01 -1.1532645265651922e+01 -8.7846396005534828e+00 -1.5059824125334998e+01 0 -2 1
2379 793 2 4.0999999999999998e-01 -2.7851629944385046e+00 -1.0490404694765333e+01 -1.1209747433633236e+01 0 2 1
1979 660 2 4.0999999999999998e-01 -4.3614239594077464e+00 -1.4667427326562272e+01 -9.7684025314909562e+00 1 1 1
190 64 1 -8.1999999999999995e-01 -1.8121199025509860e-01 -1.0291768137558616e+01 -1.2456138839930635e+01 -1 2 1
321 107 2 4.0999999999999998e-01 -1.5578336783490201e+00 -1.2845997936460332e+01 -1.0200544014396836e+01 -1 1 1
1616 539 2 4.0999999999999998e-01 -4.1406044854162900e+00 -1.2363645056659898e+01 -7.8920950791757543e+00 1 -2 1
2378 793 2 4.0999999999999998e-01 -3.1214612803207729e+00 -1.0917711255936307e+01 -1.2749501220212457e+01 0 2 1
2377 793 1 -8.1999999999999995e-01 -3.3245314808217614e+00 -1.0263787729317023e+01 -1.2020728249775804e+01 0 2 1
1980 660 2 4.0999999999999998e-01 -5.9482677627336482e+00 -1.5052661012143682e+01 -9.7755357264815217e+00 1 1 1
1503 501 2 4.0999999999999998e-01 -5.5750048269581747e+00 -1.1718365457021250e+01 -1.4856575406250171e+01 1 -1 1
116 39 2 4.0999999999999998e-01 -2.0932388327687903e+00 -1.4768689760467939e+01 -7.6119132325453451e+00 0 2 3
257 86 2 4.0999999999999998e-01 -1.9992367963790461e+00 -9.2879191868531894e+00 -8.8709927172752305e+00 -1 1 2
1421 474 2 4.0999999999999998e-01 -5.6298869908488260e+00 -5.1342847530026905e+00 -1.3185298881950109e+01 -2 1 1
51 17 2 4.0999999999999998e-01 -5.1854597607464061e+00 -5.1902173963978413e+00 -9.9566774549924482e+00 -3 1 1
258 86 2 4.0999999999999998e-01 -3.4824178363850997e+00 -9.1428828429928970e+00 -8.2034092539030912e+00 -1 1 2
2469 823 2 4.0999999999999998e-01 -2.7709031302258680e+00 -1.2092334056919707e+01 -1.4808151029499571e+01 2 0 2
489 163 2 4.0999999999999998e-01 -4.8956966899953258e-01 -1.2125463770289546e+01 -1.2172589270028553e+01 1 0 1
320 107 2 4.0999999999999998e-01 -1.7949561298301671e+00 -1.1857328350731116e+01 -8.9227198773123835e+00 -1 1 1
143 48 2 4.0999999999999998e-01 -7.4512086889347007e+00 -5.8011293841074654e+00 -8.4313144686176855e+00 -1 0 0
1331 444 2 4.0999999999999998e-01 -6.8825880630922800e+00 -6.5870473607144522e+00 -1.3255771758266206e+01 2 -1 2
2067 689 2 4.0999999999999998e-01 -6.4715836150662494e+00 -1.0112012039351816e+01 -9.9100779726676720e+00 -1 0 0
1512 504 2 4.0999999999999998e-01 -2.1383268285486956e-01 -5.7442891178351889e+00 -9.3538599283448196e+00 0 1 2
1800 600 2 4.0999999999999998e-01 -1.3121671631438527e+00 -6.5061738869410615e+00 -1.3955097198275480e+01 0 0 1
256 86 1 -8.1999999999999995e-01 -2.7783287003884229e+00 -9.7900318519976945e+00 -8.4956765876974778e+00 -1 1 2
735 245 2 4.0999999999999998e-01 -2.6701993680356075e+00 -5.8342507885369326e+00 -9.6241870908311782e+00 0 0 1
2065 689 1 -8.1999999999999995e-01 -7.0522420282327314e+00 -9.5444428381451729e+00 -1.0493742746722393e+01 -1 0 0
485 162 2 4.0999999999999998e-01 -4.2636709267632611e+00 -1.3011466944652458e+01 -1.3288253239409549e+01 0 0 1
484 162 1 -8.1999999999999995e-01 -5.2547709899185300e+00 -1.2914472136276343e+01 -1.3197279783228732e+01 0 0 1
486 162 2 4.0999999999999998e-01 -5.6178768458891017e+00 -1.3682789574256155e+01 -1.2670206787559142e+01 0 0 1
1451 484 2 4.0999999999999998e-01 -2.5712595939937248e+00 -1.4304296329194356e+01 -9.8149401125467719e+00 1 0 1
1595 532 2 4.0999999999999998e-01 -4.8512295182604070e+00 -9.7432870809452456e+00 -1.2778670791416104e+01 -2 1 0
2066 689 2 4.0999999999999998e-01 -6.9555237621930583e+00 -9.8366614759490290e+00 -1.1445171882181265e+01 -1 0 0
1511 504 2 4.0999999999999998e-01 -5.5994628209021435e-01 -6.8648584089028208e+00 -1.0490107707114703e+01 0 1 2
2468 823 2 4.0999999999999998e-01 -1.9730854717342474e+00 -1.2904819733014385e+01 -1.3637730923183367e+01 2 0 2
2193 731 2 4.0999999999999998e-01 -3.7525769344337441e+00 -7.0153726421832143e+00 -1.1494819562634220e+01 1 -3 2
1510 504 1 -8.1999999999999995e-01 -8.8437433518072872e-01 -6.0348664251781781e+00 -1.0036430233664671e+01 0 1 2
319 107 1 -8.1999999999999995e-01 -2.1239516478952289e+00 -1.2675605777733955e+01 -9.3940451276194139e+00 -1 1 1
2305 769 1 -8.1999999999999995e-01 -5.4538460783141058e+00 -1.1687830853545018e+01 -9.6474261130076862e+00 0 -1 1
1798 600 1 -8.1999999999999995e-01 -2.2107653785101995e+00 -6.3126959314747371e+00 -1.4348862398851162e+01 0 0 1
2441 814 2 4.0999999999999998e-01 -4.4526521691373890e+00 -7.2199224332952205e+00 -8.0990871329271918e+00 0 1 1
1596 532 2 4.0999999999999998e-01 -6.1380025077104872e+00 -1.0099887470571243e+01 -1.3718660478610385e+01 -2 1 0
2192 731 2 4.0999999999999998e-01 -2.9710410363789048e+00 -8.3899764692321064e+00 -1.1902489946875367e+01 1 -3 2
733 245 1 -8.1999999999999995e-01 -3.5463412181235565e+00 -6.0611447671339533e+00 -9.1989129752953431e+00 0 0 1
2191 731 1 -8.1999999999999995e-01 -2.9365696521531603e+00 -7.3910878401423634e+00 -1.1934061738614627e+01 1 -3 2
2306 769 2 4.0999999999999998e-01 -5.6621502714144736e+00 -1.2660166370940207e+01 -9.5418961646403844e+00 0 -1 1
1330 444 1 -8.1999999999999995e-01 -5.9409025765937926e+00 -6.9206727273327449e+00 -1.3212343006931244e+01 2 -1 2
2307 769 2 4.0999999999999998e-01 -4.5731441906103161e+00 -1.1583871236197808e+01 -1.0109508471218504e+01 0 -1 1
1799 600 2 4.0999999999999998e-01 -2.9235025832454422e+00 -6.5833224523961338e+00 -1.3701768529411289e+01 0 0 1
1332 444 2 4.0999999999999998e-01 -5.9440920911810728e+00 -7.9083515619804015e+00 -1.3055997789631565e+01 2 -1 2
487 163 1 -8.1999999999999995e-01 -5.4867583119722418e-01 -1.3075653343388126e+01 -1.1866632208064480e+01 1 0 1
1978 660 1 -8.1999999999999995e-01 -5.2757420128328363e+00 -1.4367149039766815e+01 -9.4967060894476951e+00 1 1 1
734 245 2 4.0999999999999998e-01 -3.8129921609892286e+00 -5.3279683562408024e+00 -8.5733627239452375e+00 0 0 1
1594 532 1 -8.1999999999999995e-01 -5.7288833976772686e+00 -9.4092487370464042e+00 -1.3122335740555126e+01 -2 1 0
2467 823 1 -8.1999999999999995e-01 -2.5899188156532009e+00 -1.2140565222571167e+01 -1.3825866979051781e+01 2 0 2
2440 814 1 -8.1999999999999995e-01 -4.7646747622594106e+00 -8.1079643860334834e+00 -7.7614676342302271e+00 0 1 1
192 64 2 4.0999999999999998e-01 -1.9544213992072379e-01 -1.0584976046014443e+01 -1.3412062541186142e+01 -1 2 1
142 48 1 -8.1999999999999995e-01 -7.4006106894551325e+00 -5.1166725954308827e+00 -7.7040440450599759e+00 -1 0 0
2219 740 2 4.0999999999999998e-01 -1.6132989938216191e-01 -1.1916559752831670e+01 -1.5071273801270465e+01 0 0 2
434 145 2 4.0999999999999998e-01 -1.0780175574395125e+01 -6.5902345912205735e+00 -1.9740044047016116e+00 1 0 1
775 259 1 -8.1999999999999995e-01 -1.1948666296719065e+01 -1.3186899619589511e+01 -4.0190280704516237e+00 0 0 0
999 333 2 4.0999999999999998e-01 -1.1522683560726565e+01 -1.1798719389966184e+01 -6.4326144863721577e+00 0 -2 1
962 321 2 4.0999999999999998e-01 -1.0104607257874495e+01 -9.9747925872593513e+00 -6.7184665366934073e+00 2 -1 0
998 333 2 4.0999999999999998e-01 -1.0212048381797832e+01 -1.2197884965722299e+01 -7.3211140145244240e+00 0 -2 1
884 295 2 4.0999999999999998e-01 -1.2969055762424338e+01 -9.4493233462046149e+00 -4.3279060926243336e+00 -1 0 2
1369 457 1 -8.1999999999999995e-01 -1.2978666172436263e+01 -9.6588678169787006e+00 -2.7607187338967094e+00 0 -1 1
885 295 2 4.0999999999999998e-01 -1.1945952599448891e+01 -9.0749530037578214e+00 -5.5443089432000576e+00 -1 0 2
883 295 1 -8.1999999999999995e-01 -1.2882028837499304e+01 -9.3447201570816212e+00 -5.3185866725519766e+00 -1 0 2
776 259 2 4.0999999999999998e-01 -1.1101438560326542e+01 -1.3705410716764048e+01 -3.9036377792704240e+00 0 0 0
2410 804 1 -8.1999999999999995e-01 -1.4020813228780074e+01 -1.2302429514772445e+01 -2.1168339682585664e+00 0 1 1
997 333 1 -8.1999999999999995e-01 -1.1012560463180364e+01 -1.1600815550934231e+01 -7.2696162718436872e+00 0 -2 1
671 224 2 4.0999999999999998e-01 -1.0898089816620672e+01 -1.2752955876779254e+01 -3.4794664941257913e-01 1 0 1
168 56 2 4.0999999999999998e-01 -9.8952751089121627e+00 -7.8259933669841617e+00 -3.5213788298509030e-01 0 1 1
961 321 1 -8.1999999999999995e-01 -9.8993570653511824e+00 -9.2361449515706120e+00 -6.0764108203409961e+00 2 -1 0
963 321 2 4.0999999999999998e-01 -9.9396049865199654e+00 -8.3585391945561902e+00 -6.5540631823988118e+00 2 -1 0
2411 804 2 4.0999999999999998e-01 -1.4908515934983114e+01 -1.2726246125167673e+01 -2.2966308046177417e+00 0 1 1
1370 457 2 4.0999999999999998e-01 -1.3276847205438358e+01 -1.0601971915288877e+01 -2.6137280846487734e+00 0 -1 1
777 259 2 4.0999999999999998e-01 -1.2362737088459395e+01 -1.3021481949439732e+01 -3.1239605384750266e+00 0 0 0
528 176 2 4.0999999999999998e-01 -1.3235584193073850e+01 -1.2611276149269033e+01 -5.0914477977575370e+00 1 1 1
527 176 2 4.0999999999999998e-01 -1.3585079667022022e+01 -1.1307840033244474e+01 -6.0109239248898536e+00 1 1 1
426 142 2 4.0999999999999998e-01 -7.8167533381713890e+00 -1.1467740473788016e+01 -6.5250457293731312e+00 0 1 2
433 145 1 -8.1999999999999995e-01 -1.1152030740000370e+01 -7.3547761759049592e+00 -1.4475412588637759e+00 1 0 1
526 176 1 -8.1999999999999995e-01 -1.3724960625706998e+01 -1.2292089070774939e+01 -5.9029857481509111e+00 1 1 1
435 145 2 4.0999999999999998e-01 -1.1479541197036761e+01 -8.0624822045416273e+00 -2.0735225429691084e+00 1 0 1
1371 457 2 4.0999999999999998e-01 -1.3612018228278673e+01 -9.0340552934304625e+00 -2.3041686181056917e+00 0 -1 1
1941 647 2 4.0999999999999998e-01 -9.1879700477132502e+00 -1.4238830290508727e+01 -1.3894942206097696e+00 -2 2 3
1490 497 2 4.0999999999999998e-01 -1.5023451980359074e+01 -5.1015108763859107e+00 -3.1263299927548918e+00 1 -1 2
819 273 2 4.0999999999999998e-01 -8.5179026067255101e+00 -9.8498973361481639e+00 -5.2684153345605225e+00 2 1 1
836 279 2 4.0999999999999998e-01 -1.1643940513142004e+01 -9.1567791591398766e+00 -5.3337913786961089e-01 0 1 1
817 273 1 -8.1999999999999995e-01 -7.6086751186542978e+00 -1.0168017915142443e+01 -4.9999601668549811e+00 2 1 1
672 224 2 4.0999999999999998e-01 -9.4747838604861023e+00 -1.2143798998569739e+01 -8.6723192785726155e-01 1 0 1
1969 657 1 -8.1999999999999995e-01 -1.0592512602739788e+01 -5.1565451154626896e+00 -3.3493461418164188e+00 1 1 -1
501 167 2 4.0999999999999998e-01 -1.4336695205008095e+01 -1.3885249980486762e+01 -6.4949619191959052e+00 1 0 1
29 10 2 4.0999999999999998e-01 -1.3322062596228591e+01 -5.8038349488101773e+00 -4.4360324642553497e+00 -1 1 2
670 224 1 -8.1999999999999995e-01 -1.0110016591170281e+01 -1.2912421130705193e+01 -9.4248421377599101e-01 1 0 1
505 169 1 -8.1999999999999995e-01 -1.0334145131969439e+01 -6.9555970194514281e+00 -7.3525826486718540e+00 1 1 -1
155 52 2 4.0999999999999998e-01 -1.1413602598316746e+01 -6.1208889409413931e+00 -6.3139287409717486e+00 1 -2 2
1150 384 1 -8.1999999999999995e-01 -1.4640443168731156e+01 -7.5803411391364035e+00 -2.2222661491400153e+00 0 -1 1
1157 386 2 4.0999999999999998e-01 -7.6937950587997719e+00 -1.0752641316016096e+01 -1.6686488285718735e+00 0 1 0
1152 384 2 4.0999999999999998e-01 -1.4576498809042439e+01 -6.8370776302497038e+00 -2.8881745298627752e+00 0 -1 1
1151 384 2 4.0999999999999998e-01 -1.4430985294673873e+01 -7.2291946361762189e+00 -1.3096944976728775e+00 0 -1 1
30 10 2 4.0999999999999998e-01 -1.4754570590869712e+01 -6.1553005291301961e+00 -5.1366906694668071e+00 -1 1 2
28 10 1 -8.1999999999999995e-01 -1.4286181402268696e+01 -6.0073391967423078e+00 -4.2656668333407097e+00 -1 1 2
424 142 1 -8.1999999999999995e-01 -8.2094327358474679e+00 -1.2283182379788034e+01 -6.9502761499017520e+00 0 1 2
2412 804 2 4.0999999999999998e-01 -1.3964046408905343e+01 -1.2044008807863204e+01 -1.1524896486069967e+00 0 1 1
2129 710 2 4.0999999999999998e-01 -1.5039104592602103e+01 -8.9902827336822888e+00 -4.8239910088088607e+00 1 -1 0
2324 775 2 4.0999999999999998e-01 -1.1124339495774532e+01 -1.4736353057695899e+01 -7.1890397717531478e+00 1 0 1
1970 657 2 4.0999999999999998e-01 -1.1010142424169370e+01 -5.2206891215525744e+00 -4.2556763361144299e+00 1 1 -1
2027 676 2 4.0999999999999998e-01 -1.4808656856739026e+01 -1.1390853589905760e+01 -7.2393215567634002e+00 1 1 2
499 167 1 -8.1999999999999995e-01 -1.5094856121964995e+01 -1.4507724505129143e+01 -6.6890778309778192e+00 1 0 1
425 142 2 4.0999999999999998e-01 -7.6965768393573253e+00 -1.3090738287635348e+01 -6.6590789487592534e+00 0 1 2
1939 647 1 -8.1999999999999995e-01 -8.5417624753418657e+00 -1.4995537442088438e+01 -1.4883559460523195e+00 -2 2 3
154 52 1 -8.1999999999999995e-01 -1.1844306982061877e+01 -5.4314302493386570e+00 -5.7316024116271720e+00 1 -2 2
270 90 2 4.0999999999999998e-01 -8.5148408446012489e+00 -9.8454878959105159e+00 -2.8223153249307131e-02 1 1 1
500 167 2 4.0999999999999998e-01 -1.4891245588145013e+01 -1.5033647595434317e+01 -7.5148570093172493e+00 1 0 1
2108 703 2 4.0999999999999998e-01 -9.9227631878436640e-01 -1.4503146637730669e+01 -5.5976869683480466e+00 1 1 1
1476 492 2 4.0999999999999998e-01 -3.5596335153854319e-01 -1.0776866011941980e+01 -7.2461930297411890e+00 0 0 2
294 98 2 4.0999999999999998e-01 -7.4382907865028480e+00 -5.4995847713939359e+00 -3.5333067166463952e+00 -2 2 0
2460 820 2 4.0999999999999998e-01 -1.6905093173666970e+00 -6.9050012996136090e+00 -6.5008728398484585e+00 0 1 1
951 317 2 4.0999999999999998e-01 -2.7117091370086577e-01 -8.8611814483924007e+00 -5.9068917163296426e+00 1 1 1
1154 385 2 4.0999999999999998e-01 -5.2423761037509244e+00 -9.8108114981308709e+00 -6.4601026502169905e+00 -2 -1 0
818 273 2 4.0999999999999998e-01 -7.4531296383413599e+00 -9.9568476453135588e+00 -4.0349854133772034e+00 2 1 1
2050 684 1 -8.1999999999999995e-01 -3.8584289236843929e+00 -1.3701163123081013e+01 -4.9638917478704236e-01 -1 1 -1
632 211 2 4.0999999999999998e-01 -4.0601049757697361e-01 -7.8726764134400256e+00 -1.1511989791678268e+00 0 1 0
2052 684 2 4.0999999999999998e-01 -4.3981349036985602e+00 -1.4509095341082151e+01 -7.3287703412143124e-01 -1 1 -1
2107 703 1 -8.1999999999999995e-01 -3.7660816141934284e-01 -1.4800906863038101e+01 -4.8681287712205670e+00 1 1 1
1155 385 2 4.0999999999999998e-01 -5.7005809741515971e+00 -1.0807909576676929e+01 -5.2508165558074822e+00 -2 -1 0
2109 703 2 4.0999999999999998e-01 -5.4784251843504705e-01 -1.4258757980720176e+01 -4.0455007274115040e+00 1 1 1
726 242 2 4.0999999999999998e-01 -7.2463948687517270e+00 -1.3731754196005818e+01 -2.5699363457641500e+00 0 1 1
2458 820 1 -8.1999999999999995e-01 -1.8597571378880513e+00 -5.9884950579767970e+00 -6.1384711556949476e+00 0 1 1
1806 602 2 4.0999999999999998e-01 -6.8414446968206004e+00 -7.9598264746022025e+00 -5.3450916714168635e+00 1 1 1
1615 539 1 -8.1999999999999995e-01 -4.1307990556851610e+00 -1.2481463795256422e+01 -6.8991267537091137e+00 1 -2 1
2442 814 2 4.0999999999999998e-01 -5.4466461018665875e+00 -7.9705695222527915e+00 -7.0431353623506450e+00 0 1 1
2155 719 1 -8.1999999999999995e-01 -6.4333277695804068e+00 -1.4030206731002904e+01 -5.5904278918857635e+00 0 0 2
84 28 2 4.0999999999999998e-01 -8.5746478690823125e-01 -1.4896241083026029e+01 -2.0864438931886564e+00 0 0 1
1158 386 2 4.0999999999999998e-01 -6.7676631920988708e+00 -1.1640112676106014e+01 -2.6791949808484787e+00 0 1 0
1156 386 1 -8.1999999999999995e-01 -6.9570990922428493e+00 -1.0717254163138048e+01 -2.3439193729301895e+00 0 1 0
115 39 1 -8.1999999999999995e-01 -2.3183202154459313e+00 -1.4503318110070426e+01 -6.6744273622427528e+00 0 2 3
2156 719 2 4.0999999999999998e-01 -6.7913295215137293e+00 -1.3743466168704916e+01 -4.7018458261435452e+00 0 0 2
2581 861 1 -8.1999999999999995e-01 -5.3727572055191839e+00 -8.9288031681258708e+00 -1.2354480235023839e+00 0 -1 2
1617 539 2 4.0999999999999998e-01 -4.1724917741787166e+00 -1.1585620005307574e+01 -6.4567591047282207e+00 1 -2 1
1804 602 1 -8.1999999999999995e-01 -6.3741759058205520e+00 -7.2358169371365992e+00 -5.8524708554791776e+00 1 1 1
82 28 1 -8.1999999999999995e-01 -1.4387179155385699e+00 -1.4146686814851515e+01 -2.4031089862721160e+00 0 0 1
1805 602 2 4.0999999999999998e-01 -7.0514587124164390e+00 -6.6150309052128335e+00 -6.2472824751171263e+00 1 1 1
1153 385 1 -8.1999999999999995e-01 -4.9310627841793071e+00 -1.0311295952219938e+01 -5.6522890475777974e+00 -2 -1 0
1462 488 1 -8.1999999999999995e-01 -3.2065186636273442e+00 -6.2948403329952729e+00 -3.8547007502555672e+00 -1 1 2
1464 488 2 4.0999999999999998e-01 -3.9157317287854578e+00 -5.7295792927048357e+00 -3.4334404079168017e+00 -1 1 2
1069 357 1 -8.1999999999999995e-01 -1.6083224638839866e+00 -1.1332899994930772e+01 -2.4771927465561987e+00 -1 1 1
631 211 1 -8.1999999999999995e-01 -1.4042050377317654e+00 -7.8217070288044539e+00 -1.1823966422634822e+00 0 1 0
52 18 1 -8.1999999999999995e-01 -6.7354738366864009e+00 -6.5915776028072948e+00 -2.2542628222265559e+00 -1 0 0
725 242 2 4.0999999999999998e-01 -5.6136772148288792e+00 -1.3721391254072181e+01 -2.5955256009969450e+00 0 1 1
724 242 1 -8.1999999999999995e-01 -6.4385370197663896e+00 -1.3274869429643953e+01 -2.9422071089311590e+00 0 1 1
1266 422 2 4.0999999999999998e-01 -2.1996988290102557e+00 -1.0948639050236373e+01 -8.5457011101348535e-01 -1 1 2
53 18 2 4.0999999999999998e-01 -6.8093248614308717e+00 -6.2037814109595875e+00 -1.3355008124071137e+00 -1 0 0
2459 820 2 4.0999999999999998e-01 -2.2672895548970775e+00 -6.0600599730635789e+00 -5.2281089360305106e+00 0 1 1
2583 861 2 4.0999999999999998e-01 -4.6394279495431192e+00 -8.8914292878306416e+00 -1.9142667850314048e+00 0 -1 2
83 28 2 4.0999999999999998e-01 -2.3506735316006981e+00 -1.4240485379641203e+01 -2.0037316221763906e+00 0 0 1
1070 357 2 4.0999999999999998e-01 -1.3777218464786571e+00 -1.2305810757019477e+01 -2.4619772554960324e+00 -1 1 1
633 211 2 4.0999999999999998e-01 -1.7405022156216337e+00 -8.3469986402615746e+00 -1.9640208597623197e+00 0 1 0
54 18 2 4.0999999999999998e-01 -6.2584776417088044e+00 -7.4692562793583486e+00 -2.2082377871168113e+00 -1 0 0
949 317 1 -8.1999999999999995e-01 -3.2546321948010970e-01 -8.5139135884550861e+00 -6.8430652477315856e+00 1 1 1
2444 815 2 4.0999999999999998e-01 -3.9116778321627912e+00 -9.6517468117818552e+00 -4.4132491136706644e+00 0 0 2
2582 861 2 4.0999999999999998e-01 -5.9032996619193838e+00 -9.7666776594284723e+00 -1.3637235817969948e+00 0 -1 2
2445 815 2 4.0999999999999998e-01 -2.9852857555643606e+00 -1.0038717308006195e+01 -3.1253900817641913e+00 0 0 2
1463 488 2 4.0999999999999998e-01 -3.4527845111651967e+00 -7.2599133946117531e+00 -3.7655345521276775e+00 -1 1 2
2443 815 1 -8.1999999999999995e-01 -3.4698853034575308e+00 -9.2971086398570524e+00 -3.5892256353985310e+00 0 0 2
1071 357 2 4.0999999999999998e-01 -1.0749869701808663e+00 -1.0875030033647107e+01 -3.1884394541691226e+00 -1 1 1
117 39 2 4.0999999999999998e-01 -2.7570468066839933e+00 -1.3604727473581370e+01 -6.6785965862456056e+00 0 2 3
2157 719 2 4.0999999999999998e-01 -5.5274541468982008e+00 -1.3630230212463244e+01 -5.7296229316041316e+00 0 0 2
1265 422 2 4.0999999999999998e-01 -3.0849684525293171e+00 -1.2133768339358054e+01 -1.6298106903420972e-01 -1 1 2
1453 485 1 -8.1999999999999995e-01 -9.4464103623790017e+00 -1.0105767494311817e+01 2.5888486812405560e+00 0 -1 2
1454 485 2 4.0999999999999998e-01 -9.4036420929296263e+00 -1.1041331681205412e+01 2.2383432645242181e+00 0 -1 2
2558 853 2 4.0999999999999998e-01 -1.4000382677916274e+01 -7.2638179368661691e+00 1.2791333348757163e+00 1 0 2
2557 853 1 -8.1999999999999995e-01 -1.3599255214299601e+01 -7.6578462222977493e+00 4.5221012963004803e-01 1 0 2
2559 853 2 4.0999999999999998e-01 -1.2654577092351889e+01 -7.9290309224324087e+00 6.3661624962540664e-01 1 0 2
1602 534 2 4.0999999999999998e-01 -1.1849598967020023e+01 -1.3426032418154879e+01 2.5192975671044842e+00 1 1 1
1995 665 2 4.0999999999999998e-01 -9.1751108727856590e+00 -1.3190377033483017e+01 1.2183130998985376e+00 0 1 0
763 255 1 -8.1999999999999995e-01 -1.4083182960212786e+01 -9.4533985730210013e+00 4.7054960564288528e+00 -1 1 0
1601 534 2 4.0999999999999998e-01 -1.2466993809834221e+01 -1.2752357795240123e+01 1.1659626929815268e+00 1 1 1
764 255 2 4.0999999999999998e-01 -1.4133231019697359e+01 -8.4566469209273372e+00 4.7683040954338658e+00 -1 1 0
835 279 1 -8.1999999999999995e-01 -1.1618999826301359e+01 -9.9133001367653666e+00 1.2008659880089034e-01 0 1 1
765 255 2 4.0999999999999998e-01 -1.3125948890523308e+01 -9.7414087983378774e+00 4.7322649371933885e+00 -1 1 0
166 56 1 -8.1999999999999995e-01 -9.1604253055694222e+00 -8.1182904100904842e+00 2.5984393345714629e-01 0 1 1
844 282 1 -8.1999999999999995e-01 -1.1342360940504246e+01 -1.2967759990689901e+01 6.2668565722608669e+00 0 3 2
1993 665 1 -8.1999999999999995e-01 -8.4715644324527339e+00 -1.2634531988388087e+01 1.6610570808927818e+00 0 1 0
2235 745 2 4.0999999999999998e-01 -1.3805457815295918e+01 -1.0871693999313937e+01 6.0809785756097732e+00 -1 0 2
1600 534 1 -8.1999999999999995e-01 -1.1660567457558150e+01 -1.3186984099251177e+01 1.5668866773298689e+00 1 1 1
1432 478 1 -8.1999999999999995e-01 -1.1241141289434363e+01 -7.4198740751813279e+00 2.1778098881447434e+00 0 -1 1
443 148 2 4.0999999999999998e-01 -8.1215034200616074e+00 -1.4951322647542529e+01 7.0327981905332990e+00 0 1 -1
1994 665 2 4.0999999999999998e-01 -8.2048677756639172e+00 -1.1887474702793142e+01 1.0521713328117279e+00 0 1 0
1285 429 1 -8.1999999999999995e-01 -1.3603850583310837e+01 -1.1745640419221461e+01 4.3886855689648741e-01 -1 0 2
1287 429 2 4.0999999999999998e-01 -1.4302212331760431e+01 -1.1449993930436960e+01 1.0906718408929486e+00 -1 0 2
1286 429 2 4.0999999999999998e-01 -1.2949622254772565e+01 -1.1003770017238951e+01 2.9197698427816654e-01 -1 0 2
1434 478 2 4.0999999999999998e-01 -1.0337023510137563e+01 -7.8349907506854155e+00 2.0767520302749567e+00 0 -1 1
846 282 2 4.0999999999999998e-01 -1.2221905486054474e+01 -1.2671504591860671e+01 6.6391436207100512e+00 0 3 2
1003 335 1 -8.1999999999999995e-01 -1.5046313714424075e+01 -6.8562085717888923e+00 5.8366911043856788e+00 -1 -2 0
2119 707 1 -8.1999999999999995e-01 -1.1422762654119015e+01 -1.0032239877268637e+01 4.7536518835625436e+00 1 0 3
1280 427 2 4.0999999999999998e-01 -1.2441134810242032e+01 -7.6803810575837126e+00 5.3155131585595790e+00 0 1 0
2120 707 2 4.0999999999999998e-01 -1.0805120857502750e+01 -9.8101902060946440e+00 3.9992143139440550e+00 1 0 3
837 279 2 4.0999999999999998e-01 -1.0832950355551409e+01 -9.8026505853368207e+00 7.2823657398975250e-01 0 1 1
1433 478 2 4.0999999999999998e-01 -1.1217077669853714e+01 -6.4809784348599706e+00 1.8345033108754727e+00 0 -1 1
2121 707 2 4.0999999999999998e-01 -1.1213987537861525e+01 -1.0947993788573966e+01 5.0968299830907071e+00 1 0 3
845 282 2 4.0999999999999998e-01 -1.1488054769847698e+01 -1.3418983540274620e+01 5.3864395599787436e+00 0 3 2
159 53 2 4.0999999999999998e-01 -1.2401706651742847e+01 -6.4868055275719900e+00 7.0733765627575700e+00 -1 1 -1
1294 432 1 -8.1999999999999995e-01 -7.7914428161870646e+00 -1.4531319281365507e+01 3.9025184442050325e+00 0 1 1
2269 757 1 -8.1999999999999995e-01 -1.2807544106455573e+01 -1.3950378231903695e+01 3.9176357992620368e+00 0 -1 1
1281 427 2 4.0999999999999998e-01 -1.1096455517231092e+01 -7.2357997908549869e+00 4.5026698020541609e+00 0 1 0
2209 737 1 -8.1999999999999995e-01 -1.4653818356277311e+01 -5.6138512968506937e+00 2.3560662976073310e+00 1 -2 3
228 76 2 4.0999999999999998e-01 -1.2195518186950672e+01 -1.5076527873646253e+01 9.5636346566692865e-01 0 1 0
2270 757 2 4.0999999999999998e-01 -1.3727185458761273e+01 -1.3572237826488053e+01 4.0236224988628670e+00 0 -1 1