2611
Atoms. Timestep: 0
O -14.5635 -14.8035 -14.8035
H -13.6063 -14.8035 -14.8035
H -14.8035 -13.8768 -14.8035
O -14.5635 -12.3362 -12.3362
H -13.6063 -12.3362 -12.3362
H -14.8035 -11.4096 -12.3362
O -12.0962 -14.8035 -12.3362
H -11.139 -14.8035 -12.3362
H -12.3362 -13.8768 -12.3362
O -12.0962 -12.3362 -14.8035
H -11.139 -12.3362 -14.8035
H -12.3362 -11.4096 -14.8035
O -14.5635 -14.8035 -9.86898
H -13.6063 -14.8035 -9.86898
H -14.8035 -13.8768 -9.86898
O -14.5635 -12.3362 -7.40174
H -13.6063 -12.3362 -7.40174
H -14.8035 -11.4096 -7.40174
O -12.0962 -14.8035 -7.40174
H -11.139 -14.8035 -7.40174
H -12.3362 -13.8768 -7.40174
O -12.0962 -12.3362 -9.86898
H -11.139 -12.3362 -9.86898
H -12.3362 -11.4096 -9.86898
O -14.5635 -14.8035 -4.93449
H -13.6063 -14.8035 -4.93449
H -14.8035 -13.8768 -4.93449
O -14.5635 -12.3362 -2.46725
H -13.6063 -12.3362 -2.46725
H -14.8035 -11.4096 -2.46725
O -12.0962 -14.8035 -2.46725
H -11.139 -14.8035 -2.46725
H -12.3362 -13.8768 -2.46725
O -12.0962 -12.3362 -4.93449
H -11.139 -12.3362 -4.93449
H -12.3362 -11.4096 -4.93449
O -14.5635 -14.8035 0
H -13.6063 -14.8035 0
H -14.8035 -13.8768 0
O -14.5635 -12.3362 2.46725
H -13.6063 -12.3362 2.46725
H -14.8035 -11.4096 2.46725
O -12.0962 -14.8035 2.46725
H -11.139 -14.8035 2.46725
H -12.3362 -13.8768 2.46725
O -12.0962 -12.3362 0
H -11.139 -12.3362 0
H -12.3362 -11.4096 0
O -14.5635 -14.8035 4.93449
H -13.6063 -14.8035 4.93449
H -14.8035 -13.8768 4.93449
O -14.5635 -12.3362 7.40174
H -13.6063 -12.3362 7.40174
H -14.8035 -11.4096 7.40174
O -12.0962 -14.8035 7.40174
H -11.139 -14.8035 7.40174
H -12.3362 -13.8768 7.40174
O -12.0962 -12.3362 4.93449
H -11.139 -12.3362 4.93449
H -12.3362 -11.4096 4.93449
O -14.5635 -14.8035 9.86898
H -13.6063 -14.8035 9.86898
H -14.8035 -13.8768 9.86898
O -14.5635 -12.3362 12.3362
H -13.6063 -12.3362 12.3362
H -14.8035 -11.4096 12.3362
O -12.0962 -14.8035 12.3362
H -11.139 -14.8035 12.3362
H -12.3362 -13.8768 12.3362
O -12.0962 -12.3362 9.86898
H -11.139 -12.3362 9.86898
H -12.3362 -11.4096 9.86898
O -14.5635 -9.86898 -14.8035
H -13.6063 -9.86898 -14.8035
H -14.8035 -8.94235 -14.8035
O -14.5635 -7.40174 -12.3362
H -13.6063 -7.40174 -12.3362
H -14.8035 -6.47511 -12.3362
O -12.0962 -9.86898 -12.3362
H -11.139 -9.86898 -12.3362
H -12.3362 -8.94235 -12.3362
O -12.0962 -7.40174 -14.8035
H -11.139 -7.40174 -14.8035
H -12.3362 -6.47511 -14.8035
O -14.5635 -9.86898 -9.86898
H -13.6063 -9.86898 -9.86898
H -14.8035 -8.94235 -9.86898
O -14.5635 -7.40174 -7.40174
H -13.6063 -7.40174 -7.40174
H -14.8035 -6.47511 -7.40174
O -12.0962 -9.86898 -7.40174
H -11.139 -9.86898 -7.40174
H -12.3362 -8.94235 -7.40174
O -12.0962 -7.40174 -9.86898
H -11.139 -7.40174 -9.86898
H -12.3362 -6.47511 -9.86898
O -14.5635 -9.86898 -4.93449
H -13.6063 -9.86898 -4.93449
H -14.8035 -8.94235 -4.93449
O -14.5635 -7.40174 -2.46725
H -13.6063 -7.40174 -2.46725
H -14.8035 -6.47511 -2.46725
O -12.0962 -9.86898 -2.46725
H -11.139 -9.86898 -2.46725
H -12.3362 -8.94235 -2.46725
O -12.0962 -7.40174 -4.93449
H -11.139 -7.40174 -4.93449
H -12.3362 -6.47511 -4.93449
O -14.5635 -9.86898 0
H -13.6063 -9.86898 0
H -14.8035 -8.94235 0
O -14.5635 -7.40174 2.46725
H -13.6063 -7.40174 2.46725
H -14.8035 -6.47511 2.46725
O -12.0962 -9.86898 2.46725
H -11.139 -9.86898 2.46725
H -12.3362 -8.94235 2.46725
O -12.0962 -7.40174 0
H -11.139 -7.40174 0
H -12.3362 -6.47511 0
O -14.5635 -9.86898 4.93449
H -13.6063 -9.86898 4.93449
H -14.8035 -8.94235 4.93449
O -14.5635 -7.40174 7.40174
H -13.6063 -7.40174 7.40174
H -14.8035 -6.47511 7.40174
O -12.0962 -9.86898 7.40174
H -11.139 -9.86898 7.40174
H -12.3362 -8.94235 7.40174
O -12.0962 -7.40174 4.93449
H -11.139 -7.40174 4.93449
H -12.3362 -6.47511 4.93449
O -14.5635 -9.86898 9.86898
H -13.6063 -9.86898 9.86898
H -14.8035 -8.94235 9.86898
O -14.5635 -7.40174 12.3362
H -13.6063 -7.40174 12.3362
H -14.8035 -6.47511 12.3362
O -12.0962 -9.86898 12.3362
H -11.139 -9.86898 12.3362
H -12.3362 -8.94235 12.3362
O -12.0962 -7.40174 9.86898
H -11.139 -7.40174 9.86898
H -12.3362 -6.47511 9.86898
O -14.5635 -4.93449 -14.8035
H -13.6063 -4.93449 -14.8035
H -14.8035 -4.00786 -14.8035
O -14.5635 -2.46725 -12.3362
H -13.6063 -2.46725 -12.3362
H -14.8035 -1.54062 -12.3362
O -12.0962 -4.93449 -12.3362
H -11.139 -4.93449 -12.3362
H -12.3362 -4.00786 -12.3362
O -12.0962 -2.46725 -14.8035
H -11.139 -2.46725 -14.8035
H -12.3362 -1.54062 -14.8035
O -14.5635 -4.93449 -9.86898
H -13.6063 -4.93449 -9.86898
H -14.8035 -4.00786 -9.86898
O -14.5635 -2.46725 -7.40174
H -13.6063 -2.46725 -7.40174
H -14.8035 -1.54062 -7.40174
O -12.0962 -4.93449 -7.40174
H -11.139 -4.93449 -7.40174
H -12.3362 -4.00786 -7.40174
O -12.0962 -2.46725 -9.86898
H -11.139 -2.46725 -9.86898
H -12.3362 -1.54062 -9.86898
O -14.5635 -4.93449 -4.93449
H -13.6063 -4.93449 -4.93449
H -14.8035 -4.00786 -4.93449
O -14.5635 -2.46725 -2.46725
H -13.6063 -2.46725 -2.46725
H -14.8035 -1.54062 -2.46725
O -12.0962 -4.93449 -2.46725
H -11.139 -4.93449 -2.46725
H -12.3362 -4.00786 -2.46725
O -12.0962 -2.46725 -4.93449
H -11.139 -2.46725 -4.93449
H -12.3362 -1.54062 -4.93449
O -14.5635 -4.93449 0
H -13.6063 -4.93449 0
H -14.8035 -4.00786 0
O -14.5635 -2.46725 2.46725
H -13.6063 -2.46725 2.46725
H -14.8035 -1.54062 2.46725
O -12.0962 -4.93449 2.46725
H -11.139 -4.93449 2.46725
H -12.3362 -4.00786 2.46725
O -12.0962 -2.46725 0
H -11.139 -2.46725 0
H -12.3362 -1.54062 0
O -14.5635 -4.93449 4.93449
H -13.6063 -4.93449 4.93449
H -14.8035 -4.00786 4.93449
O -14.5635 -2.46725 7.40174
H -13.6063 -2.46725 7.40174
H -14.8035 -1.54062 7.40174
O -12.0962 -4.93449 7.40174
H -11.139 -4.93449 7.40174
H -12.3362 -4.00786 7.40174
O -12.0962 -2.46725 4.93449
H -11.139 -2.46725 4.93449
H -12.3362 -1.54062 4.93449
O -14.5635 -4.93449 9.86898
H -13.6063 -4.93449 9.86898
H -14.8035 -4.00786 9.86898
O -14.5635 -2.46725 12.3362
H -13.6063 -2.46725 12.3362
H -14.8035 -1.54062 12.3362
O -12.0962 -4.93449 12.3362
H -11.139 -4.93449 12.3362
H -12.3362 -4.00786 12.3362
O -12.0962 -2.46725 9.86898
H -11.139 -2.46725 9.86898
H -12.3362 -1.54062 9.86898
O -14.5635 0 -14.8035
H -13.6063 0 -14.8035
H -14.8035 0.926627 -14.8035
O -14.5635 2.46725 -12.3362
H -13.6063 2.46725 -12.3362
H -14.8035 3.39387 -12.3362
O -12.0962 0 -12.3362
H -11.139 0 -12.3362
H -12.3362 0.926627 -12.3362
O -12.0962 2.46725 -14.8035
H -11.139 2.46725 -14.8035
H -12.3362 3.39387 -14.8035
O -14.5635 0 -9.86898
H -13.6063 0 -9.86898
H -14.8035 0.926627 -9.86898
O -14.5635 2.46725 -7.40174
H -13.6063 2.46725 -7.40174
H -14.8035 3.39387 -7.40174
O -12.0962 0 -7.40174
H -11.139 0 -7.40174
H -12.3362 0.926627 -7.40174
O -12.0962 2.46725 -9.86898
H -11.139 2.46725 -9.86898
H -12.3362 3.39387 -9.86898
O -14.5635 0 -4.93449
H -13.6063 0 -4.93449
H -14.8035 0.926627 -4.93449
O -14.5635 2.46725 -2.46725
H -13.6063 2.46725 -2.46725
H -14.8035 3.39387 -2.46725
O -12.0962 0 -2.46725
H -11.139 0 -2.46725
H -12.3362 0.926627 -2.46725
O -12.0962 2.46725 -4.93449
H -11.139 2.46725 -4.93449
H -12.3362 3.39387 -4.93449
O -14.5635 0 0
H -13.6063 0 0
H -14.8035 0.926627 0
O -14.5635 2.46725 2.46725
H -13.6063 2.46725 2.46725
H -14.8035 3.39387 2.46725
O -12.0962 0 2.46725
H -11.139 0 2.46725
H -12.3362 0.926627 2.46725
O -12.0962 2.46725 0
H -11.139 2.46725 0
H -12.3362 3.39387 0
O -14.5635 0 4.93449
H -13.6063 0 4.93449
H -14.8035 0.926627 4.93449
O -14.5635 2.46725 7.40174
H -13.6063 2.46725 7.40174
H -14.8035 3.39387 7.40174
O -12.0962 0 7.40174
H -11.139 0 7.40174
H -12.3362 0.926627 7.40174
O -12.0962 2.46725 4.93449
H -11.139 2.46725 4.93449
H -12.3362 3.39387 4.93449
O -14.5635 0 9.86898
H -13.6063 0 9.86898
H -14.8035 0.926627 9.86898
O -14.5635 2.46725 12.3362
H -13.6063 2.46725 12.3362
H -14.8035 3.39387 12.3362
O -12.0962 0 12.3362
H -11.139 0 12.3362
H -12.3362 0.926627 12.3362
O -12.0962 2.46725 9.86898
H -11.139 2.46725 9.86898
H -12.3362 3.39387 9.86898
O -14.5635 4.93449 -14.8035
H -13.6063 4.93449 -14.8035
H -14.8035 5.86112 -14.8035
O -14.5635 7.40174 -12.3362
H -13.6063 7.40174 -12.3362
H -14.8035 8.32836 -12.3362
O -12.0962 4.93449 -12.3362
H -11.139 4.93449 -12.3362
H -12.3362 5.86112 -12.3362
O -12.0962 7.40174 -14.8035
H -11.139 7.40174 -14.8035
H -12.3362 8.32836 -14.8035
O -14.5635 4.93449 -9.86898
H -13.6063 4.93449 -9.86898
H -14.8035 5.86112 -9.86898
O -14.5635 7.40174 -7.40174
H -13.6063 7.40174 -7.40174
H -14.8035 8.32836 -7.40174
O -12.0962 4.93449 -7.40174
H -11.139 4.93449 -7.40174
H -12.3362 5.86112 -7.40174
O -12.0962 7.40174 -9.86898
H -11.139 7.40174 -9.86898
H -12.3362 8.32836 -9.86898
O -14.5635 4.93449 -4.93449
H -13.6063 4.93449 -4.93449
H -14.8035 5.86112 -4.93449
O -14.5635 7.40174 -2.46725
H -13.6063 7.40174 -2.46725
H -14.8035 8.32836 -2.46725
O -12.0962 4.93449 -2.46725
H -11.139 4.93449 -2.46725
H -12.3362 5.86112 -2.46725
O -12.0962 7.40174 -4.93449
H -11.139 7.40174 -4.93449
H -12.3362 8.32836 -4.93449
O -14.5635 4.93449 0
H -13.6063 4.93449 0
H -14.8035 5.86112 0
O -14.5635 7.40174 2.46725
H -13.6063 7.40174 2.46725
H -14.8035 8.32836 2.46725
O -12.0962 4.93449 2.46725
H -11.139 4.93449 2.46725
H -12.3362 5.86112 2.46725
O -12.0962 7.40174 0
H -11.139 7.40174 0
H -12.3362 8.32836 0
O -14.5635 4.93449 4.93449
H -13.6063 4.93449 4.93449
H -14.8035 5.86112 4.93449
O -14.5635 7.40174 7.40174
H -13.6063 7.40174 7.40174
H -14.8035 8.32836 7.40174
O -12.0962 4.93449 7.40174
H -11.139 4.93449 7.40174
H -12.3362 5.86112 7.40174
O -12.0962 7.40174 4.93449
H -11.139 7.40174 4.93449
H -12.3362 8.32836 4.93449
O -14.5635 4.93449 9.86898
H -13.6063 4.93449 9.86898
H -14.8035 5.86112 9.86898
O -14.5635 7.40174 12.3362
H -13.6063 7.40174 12.3362
H -14.8035 8.32836 12.3362
O -12.0962 4.93449 12.3362
H -11.139 4.93449 12.3362
H -12.3362 5.86112 12.3362
O -12.0962 7.40174 9.86898
H -11.139 7.40174 9.86898
H -12.3362 8.32836 9.86898
O -14.5635 9.86898 -14.8035
H -13.6063 9.86898 -14.8035
H -14.8035 10.7956 -14.8035
O -14.5635 12.3362 -12.3362
H -13.6063 12.3362 -12.3362
H -14.8035 13.2629 -12.3362
O -12.0962 9.86898 -12.3362
H -11.139 9.86898 -12.3362
H -12.3362 10.7956 -12.3362
O -12.0962 12.3362 -14.8035
H -11.139 12.3362 -14.8035
H -12.3362 13.2629 -14.8035
O -14.5635 9.86898 -9.86898
H -13.6063 9.86898 -9.86898
H -14.8035 10.7956 -9.86898
O -14.5635 12.3362 -7.40174
H -13.6063 12.3362 -7.40174
H -14.8035 13.2629 -7.40174
O -12.0962 9.86898 -7.40174
H -11.139 9.86898 -7.40174
H -12.3362 10.7956 -7.40174
O -12.0962 12.3362 -9.86898
H -11.139 12.3362 -9.86898
H -12.3362 13.2629 -9.86898
O -14.5635 9.86898 -4.93449
H -13.6063 9.86898 -4.93449
H -14.8035 10.7956 -4.93449
O -14.5635 12.3362 -2.46725
H -13.6063 12.3362 -2.46725
H -14.8035 13.2629 -2.46725
O -12.0962 9.86898 -2.46725
H -11.139 9.86898 -2.46725
H -12.3362 10.7956 -2.46725
O -12.0962 12.3362 -4.93449
H -11.139 12.3362 -4.93449
H -12.3362 13.2629 -4.93449
O -14.5635 9.86898 0
H -13.6063 9.86898 0
H -14.8035 10.7956 0
O -14.5635 12.3362 2.46725
H -13.6063 12.3362 2.46725
H -14.8035 13.2629 2.46725
O -12.0962 9.86898 2.46725
H -11.139 9.86898 2.46725
H -12.3362 10.7956 2.46725
O -12.0962 12.3362 0
H -11.139 12.3362 0
H -12.3362 13.2629 0
O -14.5635 9.86898 4.93449
H -13.6063 9.86898 4.93449
H -14.8035 10.7956 4.93449
O -14.5635 12.3362 7.40174
H -13.6063 12.3362 7.40174
H -14.8035 13.2629 7.40174
O -12.0962 9.86898 7.40174
H -11.139 9.86898 7.40174
H -12.3362 10.7956 7.40174
O -12.0962 12.3362 4.93449
H -11.139 12.3362 4.93449
H -12.3362 13.2629 4.93449
O -14.5635 9.86898 9.86898
H -13.6063 9.86898 9.86898
H -14.8035 10.7956 9.86898
O -14.5635 12.3362 12.3362
H -13.6063 12.3362 12.3362
H -14.8035 13.2629 12.3362
O -12.0962 9.86898 12.3362
H -11.139 9.86898 12.3362
H -12.3362 10.7956 12.3362
O -12.0962 12.3362 9.86898
H -11.139 12.3362 9.86898
H -12.3362 13.2629 9.86898
O -9.62899 -14.8035 -14.8035
H -8.67179 -14.8035 -14.8035
H -9.86898 -13.8768 -14.8035
O -9.62899 -12.3362 -12.3362
H -8.67179 -12.3362 -12.3362
H -9.86898 -11.4096 -12.3362
O -7.16175 -14.8035 -12.3362
H -6.20455 -14.8035 -12.3362
H -7.40174 -13.8768 -12.3362
O -7.16175 -12.3362 -14.8035
H -6.20455 -12.3362 -14.8035
H -7.40174 -11.4096 -14.8035
O -9.62899 -14.8035 -9.86898
H -8.67179 -14.8035 -9.86898
H -9.86898 -13.8768 -9.86898
O -9.62899 -12.3362 -7.40174
H -8.67179 -12.3362 -7.40174
H -9.86898 -11.4096 -7.40174
O -7.16175 -14.8035 -7.40174
H -6.20455 -14.8035 -7.40174
H -7.40174 -13.8768 -7.40174
O -7.16175 -12.3362 -9.86898
H -6.20455 -12.3362 -9.86898
H -7.40174 -11.4096 -9.86898
O -9.62899 -14.8035 -4.93449
H -8.67179 -14.8035 -4.93449
H -9.86898 -13.8768 -4.93449
O -9.62899 -12.3362 -2.46725
H -8.67179 -12.3362 -2.46725
H -9.86898 -11.4096 -2.46725
O -7.16175 -14.8035 -2.46725
H -6.20455 -14.8035 -2.46725
H -7.40174 -13.8768 -2.46725
O -7.16175 -12.3362 -4.93449
H -6.20455 -12.3362 -4.93449
H -7.40174 -11.4096 -4.93449
O -9.62899 -14.8035 0
H -8.67179 -14.8035 0
H -9.86898 -13.8768 0
O -9.62899 -12.3362 2.46725
H -8.67179 -12.3362 2.46725
H -9.86898 -11.4096 2.46725
O -7.16175 -14.8035 2.46725
H -6.20455 -14.8035 2.46725
H -7.40174 -13.8768 2.46725
O -7.16175 -12.3362 0
H -6.20455 -12.3362 0
H -7.40174 -11.4096 0
O -9.62899 -14.8035 4.93449
H -8.67179 -14.8035 4.93449
H -9.86898 -13.8768 4.93449
O -9.62899 -12.3362 7.40174
H -8.67179 -12.3362 7.40174
H -9.86898 -11.4096 7.40174
O -7.16175 -14.8035 7.40174
H -6.20455 -14.8035 7.40174
H -7.40174 -13.8768 7.40174
O -7.16175 -12.3362 4.93449
H -6.20455 -12.3362 4.93449
H -7.40174 -11.4096 4.93449
O -9.62899 -14.8035 9.86898
H -8.67179 -14.8035 9.86898
H -9.86898 -13.8768 9.86898
O -9.62899 -12.3362 12.3362
H -8.67179 -12.3362 12.3362
H -9.86898 -11.4096 12.3362
O -7.16175 -14.8035 12.3362
H -6.20455 -14.8035 12.3362
H -7.40174 -13.8768 12.3362
O -7.16175 -12.3362 9.86898
H -6.20455 -12.3362 9.86898
H -7.40174 -11.4096 9.86898
O -9.62899 -9.86898 -14.8035
H -8.67179 -9.86898 -14.8035
H -9.86898 -8.94235 -14.8035
O -9.62899 -7.40174 -12.3362
H -8.67179 -7.40174 -12.3362
H -9.86898 -6.47511 -12.3362
O -7.16175 -9.86898 -12.3362
H -6.20455 -9.86898 -12.3362
H -7.40174 -8.94235 -12.3362
O -7.16175 -7.40174 -14.8035
H -6.20455 -7.40174 -14.8035
H -7.40174 -6.47511 -14.8035
O -9.62899 -9.86898 -9.86898
H -8.67179 -9.86898 -9.86898
H -9.86898 -8.94235 -9.86898
O -9.62899 -7.40174 -7.40174
H -8.67179 -7.40174 -7.40174
H -9.86898 -6.47511 -7.40174
O -7.16175 -9.86898 -7.40174
H -6.20455 -9.86898 -7.40174
H -7.40174 -8.94235 -7.40174
O -7.16175 -7.40174 -9.86898
H -6.20455 -7.40174 -9.86898
H -7.40174 -6.47511 -9.86898
O -9.62899 -9.86898 -4.93449
H -8.67179 -9.86898 -4.93449
H -9.86898 -8.94235 -4.93449
O -9.62899 -7.40174 -2.46725
H -8.67179 -7.40174 -2.46725
H -9.86898 -6.47511 -2.46725
O -7.16175 -9.86898 -2.46725
H -6.20455 -9.86898 -2.46725
H -7.40174 -8.94235 -2.46725
O -7.16175 -7.40174 -4.93449
H -6.20455 -7.40174 -4.93449
H -7.40174 -6.47511 -4.93449
O -9.62899 -9.86898 0
H -8.67179 -9.86898 0
H -9.86898 -8.94235 0
O -9.62899 -7.40174 2.46725
H -8.67179 -7.40174 2.46725
H -9.86898 -6.47511 2.46725
O -7.16175 -9.86898 2.46725
H -6.20455 -9.86898 2.46725
H -7.40174 -8.94235 2.46725
O -7.16175 -7.40174 0
H -6.20455 -7.40174 0
H -7.40174 -6.47511 0
O -9.62899 -9.86898 4.93449
H -8.67179 -9.86898 4.93449
H -9.86898 -8.94235 4.93449
O -9.62899 -7.40174 7.40174
H -8.67179 -7.40174 7.40174
H -9.86898 -6.47511 7.40174
O -7.16175 -9.86898 7.40174
H -6.20455 -9.86898 7.40174
H -7.40174 -8.94235 7.40174
O -7.16175 -7.40174 4.93449
H -6.20455 -7.40174 4.93449
H -7.40174 -6.47511 4.93449
O -9.62899 -9.86898 9.86898
H -8.67179 -9.86898 9.86898
H -9.86898 -8.94235 9.86898
O -9.62899 -7.40174 12.3362
H -8.67179 -7.40174 12.3362
H -9.86898 -6.47511 12.3362
O -7.16175 -9.86898 12.3362
H -6.20455 -9.86898 12.3362
H -7.40174 -8.94235 12.3362
O -7.16175 -7.40174 9.86898
H -6.20455 -7.40174 9.86898
H -7.40174 -6.47511 9.86898
O -9.62899 -4.93449 -14.8035
H -8.67179 -4.93449 -14.8035
H -9.86898 -4.00786 -14.8035
O -9.62899 -2.46725 -12.3362
H -8.67179 -2.46725 -12.3362
H -9.86898 -1.54062 -12.3362
O -7.16175 -4.93449 -12.3362
H -6.20455 -4.93449 -12.3362
H -7.40174 -4.00786 -12.3362
O -7.16175 -2.46725 -14.8035
H -6.20455 -2.46725 -14.8035
H -7.40174 -1.54062 -14.8035
O -9.62899 -4.93449 -9.86898
H -8.67179 -4.93449 -9.86898
H -9.86898 -4.00786 -9.86898
O -9.62899 -2.46725 -7.40174
H -8.67179 -2.46725 -7.40174
H -9.86898 -1.54062 -7.40174
O -7.16175 -4.93449 -7.40174
H -6.20455 -4.93449 -7.40174
H -7.40174 -4.00786 -7.40174
O -7.16175 -2.46725 -9.86898
H -6.20455 -2.46725 -9.86898
H -7.40174 -1.54062 -9.86898
O -9.62899 -4.93449 -4.93449
H -8.67179 -4.93449 -4.93449
H -9.86898 -4.00786 -4.93449
O -9.62899 -2.46725 -2.46725
H -8.67179 -2.46725 -2.46725
H -9.86898 -1.54062 -2.46725
O -7.16175 -4.93449 -2.46725
H -6.20455 -4.93449 -2.46725
H -7.40174 -4.00786 -2.46725
O -7.16175 -2.46725 -4.93449
H -6.20455 -2.46725 -4.93449
H -7.40174 -1.54062 -4.93449
O -9.62899 -4.93449 0
H -8.67179 -4.93449 0
H -9.86898 -4.00786 0
O -9.62899 -2.46725 2.46725
H -8.67179 -2.46725 2.46725
H -9.86898 -1.54062 2.46725
O -7.16175 -4.93449 2.46725
H -6.20455 -4.93449 2.46725
H -7.40174 -4.00786 2.46725
O -7.16175 -2.46725 0
H -6.20455 -2.46725 0
H -7.40174 -1.54062 0
O -9.62899 -4.93449 4.93449
H -8.67179 -4.93449 4.93449
H -9.86898 -4.00786 4.93449
O -9.62899 -2.46725 7.40174
H -8.67179 -2.46725 7.40174
H -9.86898 -1.54062 7.40174
O -7.16175 -4.93449 7.40174
H -6.20455 -4.93449 7.40174
H -7.40174 -4.00786 7.40174
O -7.16175 -2.46725 4.93449
H -6.20455 -2.46725 4.93449
H -7.40174 -1.54062 4.93449
O -9.62899 -4.93449 9.86898
H -8.67179 -4.93449 9.86898
H -9.86898 -4.00786 9.86898
O -9.62899 -2.46725 12.3362
H -8.67179 -2.46725 12.3362
H -9.86898 -1.54062 12.3362
O -7.16175 -4.93449 12.3362
H -6.20455 -4.93449 12.3362
H -7.40174 -4.00786 12.3362
O -7.16175 -2.46725 9.86898
H -6.20455 -2.46725 9.86898
H -7.40174 -1.54062 9.86898
O -9.62899 0 -14.8035
H -8.67179 0 -14.8035
H -9.86898 0.926627 -14.8035
O -9.62899 2.46725 -12.3362
H -8.67179 2.46725 -12.3362
H -9.86898 3.39387 -12.3362
O -7.16175 0 -12.3362
H -6.20455 0 -12.3362
H -7.40174 0.926627 -12.3362
O -7.16175 2.46725 -14.8035
H -6.20455 2.46725 -14.8035
H -7.40174 3.39387 -14.8035
O -9.62899 0 -9.86898
H -8.67179 0 -9.86898
H -9.86898 0.926627 -9.86898
O -9.62899 2.46725 -7.40174
H -8.67179 2.46725 -7.40174
H -9.86898 3.39387 -7.40174
O -7.16175 0 -7.40174
H -6.20455 0 -7.40174
H -7.40174 0.926627 -7.40174
O -7.16175 2.46725 -9.86898
H -6.20455 2.46725 -9.86898
H -7.40174 3.39387 -9.86898
O -9.62899 0 -4.93449
H -8.67179 0 -4.93449
H -9.86898 0.926627 -4.93449
O -9.62899 2.46725 -2.46725
H -8.67179 2.46725 -2.46725
H -9.86898 3.39387 -2.46725
O -7.16175 0 -2.46725
H -6.20455 0 -2.46725
H -7.40174 0.926627 -2.46725
O -7.16175 2.46725 -4.93449
H -6.20455 2.46725 -4.93449
H -7.40174 3.39387 -4.93449
O -9.62899 0 0
H -8.67179 0 0
H -9.86898 0.926627 0
O -9.62899 2.46725 2.46725
H -8.67179 2.46725 2.46725
H -9.86898 3.39387 2.46725
O -7.16175 0 2.46725
H -6.20455 0 2.46725
H -7.40174 0.926627 2.46725
O -7.16175 2.46725 0
H -6.20455 2.46725 0
H -7.40174 3.39387 0
O -9.62899 0 4.93449
H -8.67179 0 4.93449
H -9.86898 0.926627 4.93449
O -9.62899 2.46725 7.40174
H -8.67179 2.46725 7.40174
H -9.86898 3.39387 7.40174
O -7.16175 0 7.40174
H -6.20455 0 7.40174
H -7.40174 0.926627 7.40174
O -7.16175 2.46725 4.93449
H -6.20455 2.46725 4.93449
H -7.40174 3.39387 4.93449
O -9.62899 0 9.86898
H -8.67179 0 9.86898
H -9.86898 0.926627 9.86898
O -9.62899 2.46725 12.3362
H -8.67179 2.46725 12.3362
H -9.86898 3.39387 12.3362
O -7.16175 0 12.3362
H -6.20455 0 12.3362
H -7.40174 0.926627 12.3362
O -7.16175 2.46725 9.86898
H -6.20455 2.46725 9.86898
H -7.40174 3.39387 9.86898
O -9.62899 4.93449 -14.8035
H -8.67179 4.93449 -14.8035
H -9.86898 5.86112 -14.8035
O -9.62899 7.40174 -12.3362
H -8.67179 7.40174 -12.3362
H -9.86898 8.32836 -12.3362
O -7.16175 4.93449 -12.3362
H -6.20455 4.93449 -12.3362
H -7.40174 5.86112 -12.3362
O -7.16175 7.40174 -14.8035
H -6.20455 7.40174 -14.8035
H -7.40174 8.32836 -14.8035
O -9.62899 4.93449 -9.86898
H -8.67179 4.93449 -9.86898
H -9.86898 5.86112 -9.86898
O -9.62899 7.40174 -7.40174
H -8.67179 7.40174 -7.40174
H -9.86898 8.32836 -7.40174
O -7.16175 4.93449 -7.40174
H -6.20455 4.93449 -7.40174
H -7.40174 5.86112 -7.40174
O -7.16175 7.40174 -9.86898
H -6.20455 7.40174 -9.86898
H -7.40174 8.32836 -9.86898
O -9.62899 4.93449 -4.93449
H -8.67179 4.93449 -4.93449
H -9.86898 5.86112 -4.93449
O -9.62899 7.40174 -2.46725
H -8.67179 7.40174 -2.46725
H -9.86898 8.32836 -2.46725
O -7.16175 4.93449 -2.46725
H -6.20455 4.93449 -2.46725
H -7.40174 5.86112 -2.46725
O -7.16175 7.40174 -4.93449
H -6.20455 7.40174 -4.93449
H -7.40174 8.32836 -4.93449
O -9.62899 4.93449 0
H -8.67179 4.93449 0
H -9.86898 5.86112 0
O -9.62899 7.40174 2.46725
H -8.67179 7.40174 2.46725
H -9.86898 8.32836 2.46725
O -7.16175 4.93449 2.46725
H -6.20455 4.93449 2.46725
H -7.40174 5.86112 2.46725
O -7.16175 7.40174 0
H -6.20455 7.40174 0
H -7.40174 8.32836 0
O -9.62899 4.93449 4.93449
H -8.67179 4.93449 4.93449
H -9.86898 5.86112 4.93449
O -9.62899 7.40174 7.40174
H -8.67179 7.40174 7.40174
H -9.86898 8.32836 7.40174
O -7.16175 4.93449 7.40174
H -6.20455 4.93449 7.40174
H -7.40174 5.86112 7.40174
O -7.16175 7.40174 4.93449
H -6.20455 7.40174 4.93449
H -7.40174 8.32836 4.93449
O -9.62899 4.93449 9.86898
H -8.67179 4.93449 9.86898
H -9.86898 5.86112 9.86898
O -9.62899 7.40174 12.3362
H -8.67179 7.40174 12.3362
H -9.86898 8.32836 12.3362
O -7.16175 4.93449 12.3362
H -6.20455 4.93449 12.3362
H -7.40174 5.86112 12.3362
O -7.16175 7.40174 9.86898
H -6.20455 7.40174 9.86898
H -7.40174 8.32836 9.86898
O -9.62899 9.86898 -14.8035
H -8.67179 9.86898 -14.8035
H -9.86898 10.7956 -14.8035
O -9.62899 12.3362 -12.3362
H -8.67179 12.3362 -12.3362
H -9.86898 13.2629 -12.3362
O -7.16175 9.86898 -12.3362
H -6.20455 9.86898 -12.3362
H -7.40174 10.7956 -12.3362
O -7.16175 12.3362 -14.8035
H -6.20455 12.3362 -14.8035
H -7.40174 13.2629 -14.8035
O -9.62899 9.86898 -9.86898
H -8.67179 9.86898 -9.86898
H -9.86898 10.7956 -9.86898
O -9.62899 12.3362 -7.40174
H -8.67179 12.3362 -7.40174
H -9.86898 13.2629 -7.40174
O -7.16175 9.86898 -7.40174
H -6.20455 9.86898 -7.40174
H -7.40174 10.7956 -7.40174
O -7.16175 12.3362 -9.86898
H -6.20455 12.3362 -9.86898
H -7.40174 13.2629 -9.86898
O -9.62899 9.86898 -4.93449
H -8.67179 9.86898 -4.93449
H -9.86898 10.7956 -4.93449
O -9.62899 12.3362 -2.46725
H -8.67179 12.3362 -2.46725
H -9.86898 13.2629 -2.46725
O -7.16175 9.86898 -2.46725
H -6.20455 9.86898 -2.46725
H -7.40174 10.7956 -2.46725
O -7.16175 12.3362 -4.93449
H -6.20455 12.3362 -4.93449
H -7.40174 13.2629 -4.93449
O -9.62899 9.86898 0
H -8.67179 9.86898 0
H -9.86898 10.7956 0
O -9.62899 12.3362 2.46725
H -8.67179 12.3362 2.46725
H -9.86898 13.2629 2.46725
O -7.16175 9.86898 2.46725
H -6.20455 9.86898 2.46725
H -7.40174 10.7956 2.46725
O -7.16175 12.3362 0
H -6.20455 12.3362 0
H -7.40174 13.2629 0
O -9.62899 9.86898 4.93449
H -8.67179 9.86898 4.93449
H -9.86898 10.7956 4.93449
O -9.62899 12.3362 7.40174
H -8.67179 12.3362 7.40174
H -9.86898 13.2629 7.40174
O -7.16175 9.86898 7.40174
H -6.20455 9.86898 7.40174
H -7.40174 10.7956 7.40174
O -7.16175 12.3362 4.93449
H -6.20455 12.3362 4.93449
H -7.40174 13.2629 4.93449
O -9.62899 9.86898 9.86898
H -8.67179 9.86898 9.86898
H -9.86898 10.7956 9.86898
O -9.62899 12.3362 12.3362
H -8.67179 12.3362 12.3362
H -9.86898 13.2629 12.3362
O -7.16175 9.86898 12.3362
H -6.20455 9.86898 12.3362
H -7.40174 10.7956 12.3362
O -7.16175 12.3362 9.86898
H -6.20455 12.3362 9.86898
H -7.40174 13.2629 9.86898
O -4.6945 -14.8035 -14.8035
H -3.7373 -14.8035 -14.8035
H -4.93449 -13.8768 -14.8035
O -4.6945 -12.3362 -12.3362
H -3.7373 -12.3362 -12.3362
H -4.93449 -11.4096 -12.3362
O -2.22726 -14.8035 -12.3362
H -1.27006 -14.8035 -12.3362
H -2.46725 -13.8768 -12.3362
O -2.22726 -12.3362 -14.8035
H -1.27006 -12.3362 -14.8035
H -2.46725 -11.4096 -14.8035
O -4.6945 -14.8035 -9.86898
H -3.7373 -14.8035 -9.86898
H -4.93449 -13.8768 -9.86898
O -4.6945 -12.3362 -7.40174
H -3.7373 -12.3362 -7.40174
H -4.93449 -11.4096 -7.40174
O -2.22726 -14.8035 -7.40174
H -1.27006 -14.8035 -7.40174
H -2.46725 -13.8768 -7.40174
O -2.22726 -12.3362 -9.86898
H -1.27006 -12.3362 -9.86898
H -2.46725 -11.4096 -9.86898
O -4.6945 -14.8035 -4.93449
H -3.7373 -14.8035 -4.93449
H -4.93449 -13.8768 -4.93449
O -4.6945 -12.3362 -2.46725
H -3.7373 -12.3362 -2.46725
H -4.93449 -11.4096 -2.46725
O -2.22726 -14.8035 -2.46725
H -1.27006 -14.8035 -2.46725
H -2.46725 -13.8768 -2.46725
O -2.22726 -12.3362 -4.93449
H -1.27006 -12.3362 -4.93449
H -2.46725 -11.4096 -4.93449
O -4.6945 -14.8035 0
H -3.7373 -14.8035 0
H -4.93449 -13.8768 0
O -4.6945 -12.3362 2.46725
H -3.7373 -12.3362 2.46725
H -4.93449 -11.4096 2.46725
O -2.22726 -14.8035 2.46725
H -1.27006 -14.8035 2.46725
H -2.46725 -13.8768 2.46725
O -2.22726 -12.3362 0
H -1.27006 -12.3362 0
H -2.46725 -11.4096 0
O -4.6945 -14.8035 4.93449
H -3.7373 -14.8035 4.93449
H -4.93449 -13.8768 4.93449
O -4.6945 -12.3362 7.40174
H -3.7373 -12.3362 7.40174
H -4.93449 -11.4096 7.40174
O -2.22726 -14.8035 7.40174
H -1.27006 -14.8035 7.40174
H -2.46725 -13.8768 7.40174
O -2.22726 -12.3362 4.93449
H -1.27006 -12.3362 4.93449
H -2.46725 -11.4096 4.93449
O -4.6945 -14.8035 9.86898
H -3.7373 -14.8035 9.86898
H -4.93449 -13.8768 9.86898
O -4.6945 -12.3362 12.3362
H -3.7373 -12.3362 12.3362
H -4.93449 -11.4096 12.3362
O -2.22726 -14.8035 12.3362
H -1.27006 -14.8035 12.3362
H -2.46725 -13.8768 12.3362
O -2.22726 -12.3362 9.86898
H -1.27006 -12.3362 9.86898
H -2.46725 -11.4096 9.86898
O -4.6945 -9.86898 -14.8035
H -3.7373 -9.86898 -14.8035
H -4.93449 -8.94235 -14.8035
O -4.6945 -7.40174 -12.3362
H -3.7373 -7.40174 -12.3362
H -4.93449 -6.47511 -12.3362
O -2.22726 -9.86898 -12.3362
H -1.27006 -9.86898 -12.3362
H -2.46725 -8.94235 -12.3362
O -2.22726 -7.40174 -14.8035
H -1.27006 -7.40174 -14.8035
H -2.46725 -6.47511 -14.8035
O -4.6945 -9.86898 -9.86898
H -3.7373 -9.86898 -9.86898
H -4.93449 -8.94235 -9.86898
O -4.6945 -7.40174 -7.40174
H -3.7373 -7.40174 -7.40174
H -4.93449 -6.47511 -7.40174
O -2.22726 -9.86898 -7.40174
H -1.27006 -9.86898 -7.40174
H -2.46725 -8.94235 -7.40174
O -2.22726 -7.40174 -9.86898
H -1.27006 -7.40174 -9.86898
H -2.46725 -6.47511 -9.86898
O -4.6945 -9.86898 -4.93449
H -3.7373 -9.86898 -4.93449
H -4.93449 -8.94235 -4.93449
O -4.6945 -7.40174 -2.46725
H -3.7373 -7.40174 -2.46725
H -4.93449 -6.47511 -2.46725
O -2.22726 -9.86898 -2.46725
H -1.27006 -9.86898 -2.46725
H -2.46725 -8.94235 -2.46725
O -2.22726 -7.40174 -4.93449
H -1.27006 -7.40174 -4.93449
H -2.46725 -6.47511 -4.93449
O -4.6945 -9.86898 0
H -3.7373 -9.86898 0
H -4.93449 -8.94235 0
O -4.6945 -7.40174 2.46725
H -3.7373 -7.40174 2.46725
H -4.93449 -6.47511 2.46725
O -2.22726 -9.86898 2.46725
H -1.27006 -9.86898 2.46725
H -2.46725 -8.94235 2.46725
O -2.22726 -7.40174 0
H -1.27006 -7.40174 0
H -2.46725 -6.47511 0
O -4.6945 -9.86898 4.93449
H -3.7373 -9.86898 4.93449
H -4.93449 -8.94235 4.93449
O -4.6945 -7.40174 7.40174
H -3.7373 -7.40174 7.40174
H -4.93449 -6.47511 7.40174
O -2.22726 -9.86898 7.40174
H -1.27006 -9.86898 7.40174
H -2.46725 -8.94235 7.40174
O -2.22726 -7.40174 4.93449
H -1.27006 -7.40174 4.93449
H -2.46725 -6.47511 4.93449
O -4.6945 -9.86898 9.86898
H -3.7373 -9.86898 9.86898
H -4.93449 -8.94235 9.86898
O -4.6945 -7.40174 12.3362
H -3.7373 -7.40174 12.3362
H -4.93449 -6.47511 12.3362
O -2.22726 -9.86898 12.3362
H -1.27006 -9.86898 12.3362
H -2.46725 -8.94235 12.3362
O -2.22726 -7.40174 9.86898
H -1.27006 -7.40174 9.86898
H -2.46725 -6.47511 9.86898
O -4.6945 -4.93449 -14.8035
H -3.7373 -4.93449 -14.8035
H -4.93449 -4.00786 -14.8035
O -4.6945 -2.46725 -12.3362
H -3.7373 -2.46725 -12.3362
H -4.93449 -1.54062 -12.3362
O -2.22726 -4.93449 -12.3362
H -1.27006 -4.93449 -12.3362
H -2.46725 -4.00786 -12.3362
O -2.22726 -2.46725 -14.8035
H -1.27006 -2.46725 -14.8035
H -2.46725 -1.54062 -14.8035
O -4.6945 -4.93449 -9.86898
H -3.7373 -4.93449 -9.86898
H -4.93449 -4.00786 -9.86898
O -4.6945 -2.46725 -7.40174
H -3.7373 -2.46725 -7.40174
H -4.93449 -1.54062 -7.40174
O -2.22726 -4.93449 -7.40174
H -1.27006 -4.93449 -7.40174
H -2.46725 -4.00786 -7.40174
O -2.22726 -2.46725 -9.86898
H -1.27006 -2.46725 -9.86898
H -2.46725 -1.54062 -9.86898
O -4.6945 -4.93449 -4.93449
H -3.7373 -4.93449 -4.93449
H -4.93449 -4.00786 -4.93449
O -4.6945 -2.46725 -2.46725
H -3.7373 -2.46725 -2.46725
H -4.93449 -1.54062 -2.46725
O -2.22726 -4.93449 -2.46725
H -1.27006 -4.93449 -2.46725
H -2.46725 -4.00786 -2.46725
O -2.22726 -2.46725 -4.93449
H -1.27006 -2.46725 -4.93449
H -2.46725 -1.54062 -4.93449
O -4.6945 -4.93449 0
H -3.7373 -4.93449 0
H -4.93449 -4.00786 0
O -4.6945 -2.46725 2.46725
H -3.7373 -2.46725 2.46725
H -4.93449 -1.54062 2.46725
O -2.22726 -4.93449 2.46725
H -1.27006 -4.93449 2.46725
H -2.46725 -4.00786 2.46725
O -2.22726 -2.46725 0
H -1.27006 -2.46725 0
H -2.46725 -1.54062 0
O -4.6945 -4.93449 4.93449
H -3.7373 -4.93449 4.93449
H -4.93449 -4.00786 4.93449
O -4.6945 -2.46725 7.40174
H -3.7373 -2.46725 7.40174
H -4.93449 -1.54062 7.40174
O -2.22726 -4.93449 7.40174
H -1.27006 -4.93449 7.40174
H -2.46725 -4.00786 7.40174
O -2.22726 -2.46725 4.93449
H -1.27006 -2.46725 4.93449
H -2.46725 -1.54062 4.93449
O -4.6945 -4.93449 9.86898
H -3.7373 -4.93449 9.86898
H -4.93449 -4.00786 9.86898
O -4.6945 -2.46725 12.3362
H -3.7373 -2.46725 12.3362
H -4.93449 -1.54062 12.3362
O -2.22726 -4.93449 12.3362
H -1.27006 -4.93449 12.3362
H -2.46725 -4.00786 12.3362
O -2.22726 -2.46725 9.86898
H -1.27006 -2.46725 9.86898
H -2.46725 -1.54062 9.86898
O -4.6945 0 -14.8035
H -3.7373 0 -14.8035
H -4.93449 0.926627 -14.8035
O -4.6945 2.46725 -12.3362
H -3.7373 2.46725 -12.3362
H -4.93449 3.39387 -12.3362
O -2.22726 0 -12.3362
H -1.27006 0 -12.3362
H -2.46725 0.926627 -12.3362
O -2.22726 2.46725 -14.8035
H -1.27006 2.46725 -14.8035
H -2.46725 3.39387 -14.8035
O -4.6945 0 -9.86898
H -3.7373 0 -9.86898
H -4.93449 0.926627 -9.86898
O -4.6945 2.46725 -7.40174
H -3.7373 2.46725 -7.40174
H -4.93449 3.39387 -7.40174
O -2.22726 0 -7.40174
H -1.27006 0 -7.40174
H -2.46725 0.926627 -7.40174
O -2.22726 2.46725 -9.86898