2611
Atoms. Timestep: 4998000
O 12.9776 -3.5876 -11.4606
H 13.4958 -4.42595 -11.2911
H 11.9987 -3.7826 -11.3991
O -11.1464 14.839 6.74541
H -11.8296 14.4282 7.34919
H -11.3082 -14.4511 6.6802
O 10.4543 -8.28751 -3.93646
H 10.843 -9.08237 -3.4704
H 9.56923 -8.53286 -4.33201
O -7.79942 -13.5362 -10.8358
H -8.26986 -14.2254 -10.2846
H -8.4266 -12.7829 -11.034
O 1.20437 12.4618 13.6988
H 1.63097 13.3196 13.9855
H 1.73469 11.6912 14.0525
O -9.86822 6.77265 0.28249
H -9.86424 6.89228 1.27534
H -8.97111 7.01623 -0.0862
O -2.05421 -11.3701 -3.94403
H -2.04489 -11.1025 -4.90754
H -1.36751 -10.8418 -3.44466
O 12.7688 -12.0168 -14.5999
H 13.1086 -12.954 -14.6782
H 13.3684 -11.4944 -13.9935
O -0.667099 14.9043 -8.48334
H -0.767126 14.5544 -9.4148
H -1.5545 14.8844 -8.02268
O -4.13853 8.93054 -11.3388
H -3.46235 8.33021 -10.9116
H -4.57579 9.49279 -10.6368
O -1.04723 1.79001 -6.48811
H -0.815689 1.07294 -5.83063
H -0.668716 1.55595 -7.38367
O 0.970976 -5.37175 -4.32389
H 0.743047 -5.92027 -3.51937
H 1.61112 -5.87787 -4.90193
O -6.10542 4.45753 -5.1872
H -6.88419 4.31284 -4.57674
H -5.47307 3.68673 -5.10924
O 10.6823 11.5748 12.7237
H 11.5033 11.8096 13.2443
H 9.93308 11.3749 13.3551
O -14.5085 3.80329 7.05181
H -13.6648 4.05543 6.57778
H 14.9814 4.1734 6.55484
O 12.0861 -4.44908 14.4793
H 12.8153 -4.91973 13.9826
H 11.775 -3.66141 13.9475
O 3.21384 13.3194 10.2416
H 2.60342 12.7641 9.67665
H 3.57627 12.7615 10.9883
O -9.09943 -8.89286 2.32667
H -8.51976 -8.11939 2.58322
H -9.27455 -8.86613 1.34245
O 6.04177 -3.52815 5.16801
H 5.14188 -3.66951 5.58067
H 6.25279 -2.55071 5.15523
O -7.44288 10.2192 -3.76157
H -7.53911 9.45717 -3.12112
H -7.42533 11.0808 -3.25426
O 7.62303 3.94247 12.9298
H 7.13941 4.65521 13.438
H 8.58779 3.94171 13.1931
O 8.87904 -12.4022 -11.3396
H 8.67314 -11.6478 -10.7163
H 9.86285 -12.429 -11.517
O 6.25556 10.8039 1.37675
H 6.27604 11.8037 1.3736
H 6.15675 10.4755 2.31614
O -12.3766 14.8177 -12.9124
H -12.2852 14.5452 -11.9545
H -12.751 14.0561 -13.4414
O -9.85644 4.56823 -12.7348
H -10.0897 4.22987 -13.6465
H -10.474 5.31522 -12.4884
O -4.53913 -3.00063 -2.72791
H -5.18127 -3.53876 -2.18188
H -3.99525 -2.41766 -2.12424
O -14.6345 -1.71691 -13.4206
H -14.6796 -1.22271 -14.2889
H -14.2082 -1.1353 -12.7278
O 1.23528 -6.82603 12.2853
H 1.0477 -6.03287 11.7058
H 0.395201 -7.35413 12.4096
O 9.06415 0.00719112 -9.8579
H 8.96028 -0.843912 -9.3432
H 10.0103 0.0948918 -10.1696
O 4.35734 -8.26917 2.97069
H 5.30163 -7.97638 3.12126
H 3.78083 -7.46735 2.81319
O 9.99673 10.2854 10.2899
H 10.1793 10.6558 11.2007
H 10.4438 9.39582 10.1961
O 2.52612 -12.7509 2.34636
H 2.15117 -12.8424 1.4238
H 2.62632 -11.7815 2.57074
O 0.928139 -14.516 -13.0658
H 1.32217 15.0498 -12.4809
H 1.13041 -13.6156 -12.6805
O 3.65472 -9.03348 -12.5337
H 3.4746 -9.80414 -11.9224
H 3.15622 -8.22871 -12.2114
O -9.96975 9.07602 14.7202
H -8.98434 9.17471 14.8591
H -10.1883 8.11442 14.5538
O 11.3252 -2.03079 -0.64252
H 11.1671 -2.72201 0.0626939
H 11.8183 -1.2565 -0.245791
O -5.3414 -0.401349 13.6362
H -5.97856 0.0875914 13.0404
H -5.49543 -1.3859 13.5525
O -11.7998 -10.5643 -11.2027
H -11.7826 -10.6603 -10.2074
H -12.568 -11.0854 -11.5746
O -4.71002 -6.2506 -12.8517
H -5.16184 -7.07063 -13.2031
H -5.07711 -5.44359 -13.3143
O -1.62883 -8.21028 6.94956
H -2.04641 -8.73987 6.21115
H -2.24302 -7.46717 7.21535
O -13.2592 -2.76896 -3.79081
H -12.9685 -2.07505 -4.44968
H -14.1942 -3.05575 -3.99938
O 4.30234 11.4951 12.0431
H 4.14994 11.4353 13.0297
H 5.10384 10.9505 11.796
O 9.49778 -11.0759 11.3615
H 9.32923 -11.8554 11.9649
H 10.438 -11.1137 11.0229
O 2.89572 -12.0371 -3.82465
H 2.17412 -12.2863 -4.47061
H 2.72855 -12.4881 -2.94787
O 4.15648 14.3634 -1.26979
H 4.44362 -14.9877 -1.01608
H 4.71981 14.0358 -2.02834
O 4.61493 -14.9052 -12.8976
H 4.7925 14.7165 -13.6338
H 4.35135 14.8749 -12.0695
O 1.46901 -0.402214 -13.4906
H 0.480032 -0.406502 -13.3423
H 1.68056 0.127153 -14.3122
O -10.7438 3.38602 -14.995
H -10.1006 2.96984 14.6371
H -11.1619 2.67247 -14.4327
O 3.45573 7.53409 9.81338
H 2.93763 6.69054 9.95508
H 3.79673 7.56196 8.87368
O -3.99537 -13.9618 12.384
H -4.53937 -13.3682 11.791
H -3.6176 -13.4241 13.1378
O 14.5704 -5.37499 -9.66664
H 14.164 -4.91779 -8.87551
H -14.9193 -4.84666 -9.99001
O 6.24375 -7.54241 -12.2688
H 6.52386 -7.19909 -13.1653
H 5.50817 -8.21029 -12.3826
O 5.33391 7.42275 7.65828
H 4.93881 7.45216 6.74007
H 6.23884 7.84821 7.64555
O 11.1754 -2.39563 3.35578
H 11.3253 -3.24705 3.85847
H 10.4899 -1.84415 3.83113
O -12.0426 12.2835 4.62103
H -11.9361 11.6881 3.8246
H -12.9986 12.28 4.91439
O 14.8942 -4.71442 -2.95612
H 15.1133 -5.40572 -2.26751
H 13.9726 -4.87591 -3.30911
O -14.0642 -4.21313 -14.104
H -14.6797 -3.47326 -13.8322
H -13.4549 -3.89062 -14.8284
O 9.27626 -0.479558 3.8527
H 8.43287 -0.0458092 3.53546
H 9.7096 0.099587 4.54327
O -9.0294 5.34758 -3.53821
H -9.0837 4.46069 -3.07932
H -9.76968 5.42307 -4.20632
O 14.3599 -10.4599 -4.75005
H 15.0619 -10.915 -4.20221
H 13.5266 -10.3584 -4.20646
O -7.37669 9.65715 -14.0445
H -6.3807 9.57166 -14.0724
H -7.79142 8.75069 -14.1245
O 5.64465 -2.38882 8.68554
H 4.82544 -2.75632 8.24519
H 5.43731 -2.15902 9.63648
O -2.45 6.19401 -5.14026
H -1.47966 6.1772 -4.89893
H -2.58513 5.72131 -6.01112
O 7.29831 13.4695 11.8518
H 6.66362 14.2242 11.685
H 8.1696 13.8334 12.1812
O 5.07621 -5.02829 -4.75537
H 4.11885 -5.31511 -4.79113
H 5.52965 -5.27277 -5.61252
O -5.91271 -7.63329 6.24869
H -5.56115 -8.08836 7.06686
H -5.37012 -6.81382 6.06392
O -10.4257 14.9817 -0.707834
H -10.5672 -14.3038 -0.743452
H -11.2496 14.5153 -1.02983
O -7.89245 -6.87229 3.87791
H -8.6748 -6.29159 4.10331
H -7.28639 -6.93751 4.6707
O 9.25604 14.8447 12.9609
H 9.56269 14.8314 13.9126
H 10.0487 14.7816 12.3544
O 13.7692 0.644068 -4.33649
H 13.4621 -0.300967 -4.44933
H 13.8285 0.861189 -3.36211
O 1.58654 13.3462 -4.85906
H 1.94167 14.1382 -5.3558
H 1.21552 13.6435 -3.97927
O -9.90391 -4.06555 2.63167
H -9.66542 -3.22196 2.15045
H -9.85602 -4.83653 1.99655
O 1.90682 2.77756 11.1457
H 2.24896 1.90935 10.7862
H 2.11118 3.51064 10.4969
O 1.29052 -13.0245 13.053
H 2.02795 -13.1539 12.39
H 0.478163 -13.5225 12.7494
O -2.95327 7.01397 4.65213
H -2.39081 7.79153 4.37084
H -2.46406 6.48123 5.34274
O -11.1503 6.79599 -12.2058
H -11.8528 7.46168 -12.4575
H -10.5121 7.21343 -11.5588
O -10.8216 7.75015 -4.26481
H -11.0665 7.08779 -4.9729
H -10.1456 8.39153 -4.62778
O 8.83898 -2.26924 -8.48781
H 8.32842 -1.88426 -7.71892
H 9.69099 -2.67242 -8.15373
O -2.56842 -1.11297 13.3829
H -3.486 -0.722976 13.4605
H -2.424 -1.77434 14.119
O -7.98385 9.44084 12.332
H -7.20557 8.93579 12.7053
H -7.70307 10.377 12.1202
O 2.10986 10.9438 -11.5201
H 2.09594 10.2566 -10.7937
H 2.06928 10.4891 -12.4099
O 11.0429 -5.91909 -10.0575
H 11.5476 -6.49585 -10.6999
H 10.3375 -5.40963 -10.5502
O 10.7175 -4.29069 -7.9185
H 10.2458 -4.84296 -7.23103
H 11.0721 -4.88676 -8.63897
O 14.6238 6.92049 -8.37788
H 13.7237 7.27948 -8.13095
H 14.797 6.07676 -7.86974
O 3.7799 1.76177 -10.7545
H 4.11458 2.68625 -10.5718
H 2.88353 1.81279 -11.195
O 11.5557 1.58328 2.90188
H 12.3251 1.02838 2.58531
H 10.699 1.10149 2.71733
O -10.6571 -6.95918 11.5119
H -10.3291 -6.38722 10.7599
H -9.96232 -7.64169 11.7391
O -12.7537 -3.38312 -8.2855
H -13.1858 -3.02932 -9.1151
H -12.3956 -4.30014 -8.46129
O -13.0115 -5.45242 11.8338
H -12.1931 -5.98792 12.0426
H -12.8863 -4.97857 10.9621
O 2.25616 14.1079 -8.5915
H 2.69525 14.9643 -8.86338
H 1.26601 14.2407 -8.5463
O 1.0416 -9.58278 -6.44388
H 0.914162 -8.92069 -7.18244
H 1.96604 -9.4944 -6.07283
O 4.38099 7.00806 -10.8202
H 5.18708 7.39848 -10.3753
H 4.08516 7.6101 -11.5619
O 10.5292 14.9828 -7.92456
H 9.58544 14.6547 -7.96792
H 10.96 14.8779 -8.82093
O 1.7495 -14.62 5.30324
H 0.864962 -15.0808 5.37656
H 1.60816 -13.6306 5.26964
O -9.25411 -5.16208 10.1817
H -9.37126 -4.41345 9.52912
H -8.63866 -4.8721 10.9147
O -8.68957 15.1205 -9.01077
H -9.21126 14.7624 -8.23639
H -7.86606 14.5685 -9.14175
O -2.30057 11.4322 5.38767
H -2.25101 12.3497 5.78248
H -3.24108 11.0966 5.44133
O -9.15506 9.19649 -5.95024
H -8.38103 9.39754 -5.34979
H -8.8402 8.65541 -6.7301
O 5.30416 15.0334 10.7236
H 5.86679 14.9019 9.90737
H 4.50353 14.436 10.6764
O -2.9533 1.42946 12.5073
H -2.708 0.468213 12.6334
H -3.43908 1.53847 11.64
O -7.25128 2.16445 4.62074
H -6.7306 1.99898 5.45835
H -8.201 2.37308 4.85436
O -14.9967 8.71941 -3.84016
H -14.6591 7.88596 -4.27779
H -14.2538 9.38563 -3.77429
O -13.755 -10.9333 4.31212
H -14.1511 -10.0155 4.28263
H -14.4666 -11.6098 4.12245
O 1.07405 7.58797 1.37567
H 0.173264 7.19216 1.19678
H 0.976017 8.56291 1.57556
O -10.1813 5.72441 -6.15237
H -9.5201 6.23543 -6.70166
H -11.0427 5.64694 -6.65448
O -9.15952 -11.4073 -11.5649
H -10.0926 -11.3166 -11.9129
H -8.91556 -10.5871 -11.0474
O 11.5356 0.577618 -10.7411
H 12.4491 0.764074 -10.3794
H 11.5892 0.447888 -11.7312
O -5.79277 7.43017 8.24726
H -5.97776 6.57009 8.72279
H -5.87483 7.28983 7.26052
O -0.313012 -7.46093 0.455997
H -1.28678 -7.48435 0.682491
H 0.174766 -6.91563 1.13775
O -3.35076 -0.146141 -10.4618
H -2.94608 0.726657 -10.7348
H -2.95617 -0.438507 -9.59062
O -4.10518 2.52704 -5.34995
H -3.13774 2.64893 -5.57198
H -4.57395 2.10213 -6.1244
O 11.0908 -2.63338 12.709
H 10.7634 -2.87545 11.7956
H 10.8567 -1.68118 12.9055
O 1.40256 -0.476844 12.6766
H 0.898466 -0.658625 11.8323
H 1.64543 -1.34328 13.1129
O 5.14813 -14.4104 1.94164
H 4.74767 14.9486 1.91071
H 4.44644 -13.7485 2.20548
O 2.65533 -13.5154 9.21632
H 2.06688 -14.2915 9.44349
H 3.2587 -13.3173 9.98882
O 7.79971 8.9145 8.53617
H 8.45961 8.60063 9.21888
H 7.9151 9.89674 8.38796
O -11.5661 -3.71364 6.77777
H -12.2004 -4.40368 7.12651
H -12.0435 -2.84013 6.68205
O -0.753837 12.6471 -1.29627
H 0.236269 12.5875 -1.42362
H -0.966783 13.4169 -0.694516
O 0.56054 -0.968204 9.40698
H 1.15268 -0.162575 9.38678
H 1.12294 -1.79464 9.43507
O -14.4225 -8.37931 6.92392
H 14.997 -8.52138 6.42574
H -13.8426 -7.74241 6.41577
O -10.5366 -11.3664 2.02051
H -10.4618 -11.9441 2.83335
H -9.84915 -10.6413 2.06244
O -6.2868 12.4895 -11.6846
H -5.89877 11.7855 -11.0896
H -5.63058 12.7165 -12.4042
O 2.61591 5.25317 -5.73302
H 3.42818 5.80721 -5.55042
H 2.14671 5.0557 -4.87225
O 12.4859 -1.58928 9.38051
H 12.1536 -2.5285 9.46705
H 13.4547 -1.55456 9.6261
O -14.8889 2.43738 -2.69893
H -14.5804 2.20853 -3.62227
H -15.1315 3.40673 -2.65922
O -12.4655 -6.86138 5.64279
H -11.6318 -6.99421 6.17876
H -12.3656 -6.05035 5.06633
O 13.9733 3.31709 -5.58824
H 13.2509 3.52289 -4.92811
H 14.3172 2.39176 -5.42835
O -9.3805 2.14489 -11.6304
H -8.49857 1.88224 -12.0219
H -9.58703 3.09124 -11.8791
O -7.60082 -10.8665 3.59319
H -7.96095 -11.7393 3.26366
H -8.18227 -10.1214 3.26651
O 11.7089 3.70418 7.55059
H 11.6775 3.52897 6.56652
H 12.4104 3.1276 7.96963
O 6.41859 -10.756 -1.02054
H 5.91354 -10.0309 -1.4887
H 7.3802 -10.4937 -0.93954
O 1.64178 11.4491 8.9419
H 1.74645 10.9775 9.81751
H 0.704716 11.335 8.61177
O -7.03855 -10.4454 -3.87797
H -6.34326 -11.1048 -3.59184
H -6.98969 -9.63499 -3.29411
O -10.3831 -8.22837 -5.16841
H -9.64613 -7.71992 -5.61392
H -10.6555 -7.75506 -4.33064
O -0.102299 -6.91425 -7.8946
H -0.491268 -6.19823 -8.47435
H -0.80678 -7.2611 -7.27535
O -11.6939 -8.4782 -2.45286
H -11.2237 -8.78986 -1.62707
H -11.9109 -9.26546 -3.0301
O 7.77716 13.804 -4.68081
H 7.7849 14.0785 -3.71919
H 8.62986 13.3292 -4.89882
O 2.09422 -6.36808 7.2835
H 2.75769 -6.37416 6.53527
H 1.91237 -7.30713 7.57539
O 13.9863 -14.7466 0.57124
H 14.8092 -15.002 1.07889
H 13.9149 -13.7499 0.531749
O -1.55188 12.3683 -6.22153
H -1.60544 11.3948 -5.99876
H -0.770709 12.5297 -6.82469
O -14.5069 -14.7869 -6.29209
H -14.526 14.8405 -7.05398
H -15.0785 -13.9964 -6.51202
O 13.9786 2.16985 8.45816
H 14.7713 2.71345 8.1821
H 14.2138 1.19834 8.42814
O -5.26027 -0.660667 9.43733
H -4.77657 0.205169 9.56556
H -4.65149 -1.32051 8.99678
O -0.514269 -0.172369 6.94273
H 0.145931 -0.291429 6.20108
H -0.117513 -0.504162 7.79863
O -6.53768 -8.25415 -13.1749
H -6.50687 -9.16512 -12.7635
H -7.26079 -7.7167 -12.7409
O -6.17517 13.8058 -9.1972
H -5.8297 13.224 -8.46087
H -6.18294 13.29 -10.0539
O -13.9445 11.0012 0.770579
H -13.8083 10.6156 1.68321
H -14.9211 11.147 0.612603
O 0.169543 14.326 7.56951
H 0.525796 14.4843 8.49044
H 0.856925 13.8463 7.02408
O -4.44995 9.50775 -14.2318
H -3.6705 9.61338 -14.8493
H -4.12693 9.199 -13.3371
O -2.72824 -9.6229 -14.4966
H -3.70689 -9.46528 -14.6288
H -2.5503 -9.82518 -13.5335
O 13.13 -8.79382 2.21961
H 13.7089 -8.94332 1.41794
H 12.1689 -8.88338 1.95818
O -12.4216 -7.28938 -6.90388
H -11.8284 -7.66067 -6.18952
H -11.8604 -6.89102 -7.62947
O -10.1821 -14.8744 13.8275
H -10.3384 -14.668 14.7935
H -9.39345 -14.3547 13.4989
O -5.61602 4.34631 -14.9336
H -4.68809 4.45147 14.9836
H -5.90491 3.39389 -15.0311
O -13.8861 6.31754 3.58971
H -13.8055 6.62595 4.53758
H -13.7792 7.09884 2.97472
O -11.2071 -1.23475 0.398843
H -10.3514 -1.39481 0.89112
H -11.2125 -1.77307 -0.443926
O 8.00131 -4.15091 -10.5728
H 8.40721 -3.90283 -11.4525
H 8.20738 -3.44155 -9.89871
O -5.03207 -5.50794 3.14294
H -5.98068 -5.7705 2.96609
H -4.8608 -5.52076 4.12812
O 2.95214 -3.70773 -8.3162
H 3.95022 -3.75671 -8.27733
H 2.58675 -3.61263 -7.39017
O 11.7475 8.85378 7.56875
H 12.6854 9.20003 7.59205
H 11.5272 8.42868 8.44673
O -13.8036 -13.4121 -0.863794
H -13.5111 -12.6649 -0.266862
H -13.5714 -14.2876 -0.440043
O -11.8593 5.17248 7.43501
H -11.0162 5.14704 6.89776
H -11.6463 5.43063 8.3774
O 3.93878 13.5346 4.07661
H 3.618 14.3105 4.61993
H 3.54301 13.5836 3.15952
O -7.84969 11.6835 9.35666
H -8.17402 10.7585 9.1587
H -7.73776 11.7933 10.3443
O -8.25847 -14.0623 -13.8979
H -7.70434 -14.1281 -14.7278
H -7.66253 -13.9018 -13.111
O -12.0726 -10.6979 -4.26929
H -11.9989 -10.0943 -5.06325
H -12.305 -11.6218 -4.57336
O -3.42132 4.21392 13.4105
H -3.06047 3.28883 13.5291
H -2.7212 4.79393 12.9939
O -11.18 -1.52308 -7.24147
H -11.6724 -2.26834 -7.69119
H -10.5666 -1.89992 -6.54735
O -14.9078 5.41379 9.2729
H 14.3826 5.58723 9.30233
H -14.6717 4.97949 8.40357
O -14.4237 -2.55324 7.42838
H -15.0762 -2.78148 6.70571
H -14.8028 -2.81725 8.31532
O 14.049 0.834302 -1.24843
H 14.4242 -0.0918759 -1.20995
H 14.7243 1.45098 -1.65311
O 2.58572 -9.30633 -1.49896
H 3.53852 -9.22182 -1.79069
H 2.55379 -9.64735 -0.559405
O -10.072 -0.737088 9.31703
H -10.9733 -0.753637 9.74993
H -9.47346 -0.111197 9.81714
O 8.56176 -5.06951 8.35695
H 8.56208 -4.08382 8.52575
H 7.93014 -5.51603 8.99079
O -7.95129 -6.47645 8.14504
H -8.54093 -6.09858 8.85893
H -7.87029 -5.81818 7.39658
O 12.8692 12.324 -10.0961
H 12.8466 13.2252 -10.529
H 12.0004 12.156 -9.63031
O 0.239352 -7.85969 4.55391
H -0.2825 -8.56152 5.03887
H 0.963385 -7.51158 5.14945
O 12.1096 7.20645 4.21601
H 12.4669 7.44777 3.31366
H 12.7386 6.5714 4.66458
O 7.40403 -12.3696 1.3578
H 6.48406 -12.6521 1.62968
H 7.40391 -11.3919 1.14728
O 3.78162 10.9358 -2.08613
H 4.63601 11.3849 -2.3477
H 3.97603 10.0063 -1.77267
O 3.36005 2.06198 -7.24712
H 2.77114 2.55292 -7.88917
H 4.0543 2.68568 -6.88782
O 14.2802 -8.30525 -11.7229
H 14.9542 -7.75101 -12.2115
H 14.4051 -8.18998 -10.7374
O -7.58504 4.71889 -11.3599
H -8.41959 4.84942 -11.8952
H -7.79888 4.20489 -10.5292
O 12.5287 7.29522 13.7821
H 12.2916 7.2078 14.7497
H 11.9111 7.94944 13.3454
O 11.4273 15.0727 11.3516
H 11.5773 -14.4284 10.7361
H 12.1134 15.0875 12.079
O -15.1268 -3.02351 12.6896
H -14.4719 -2.97246 13.4437
H 15.0914 -3.96617 12.3606
O -7.96591 -13.3263 12.8296
H -7.96812 -12.3264 12.8084
H -7.15566 -13.6475 13.3199
O 4.19872 -0.196707 12.8041
H 4.67758 0.556459 13.2553
H 3.21975 0.00437455 12.7687
O -0.316769 -13.5502 -1.8821
H -0.842151 -13.7167 -2.71656
H -0.444117 -12.6017 -1.59174
O -4.81531 13.3939 11.8564
H -4.64635 14.376 11.7725
H -3.94245 12.9092 11.9134
O -14.879 13.049 3.78335
H -14.4263 13.8552 3.40217
H 14.4955 12.9418 3.36162
O 4.35317 11.6759 7.87812
H 3.65543 11.1505 8.36509
H 4.4773 12.5611 8.32656
O -13.0767 0.281093 10.571
H -13.0718 1.12837 10.0398
H -12.883 0.487833 11.5301
O 9.76329 -0.166939 13.7564
H 8.99848 -0.10098 13.1154
H 9.5473 0.346343 14.587
O -5.10664 10.8889 -9.70686
H -5.61419 10.8274 -8.84739
H -4.15292 11.1206 -9.51492
O -5.85084 -3.23252 1.63656
H -5.7329 -2.34048 2.07296
H -5.44359 -3.94165 2.21218
O -12.0971 5.42263 -0.529527
H -11.9982 4.42789 -0.557383
H -11.1979 5.84386 -0.411333
O -5.35973 10.682 -5.23083
H -6.12491 10.6204 -4.5899
H -4.54758 10.2663 -4.82127
O 7.78696 0.0604061 11.8945
H 8.48675 0.197039 11.1933
H 7.1996 -0.706028 11.6343
O -6.09717 -12.1418 5.56928
H -7.0118 -12.4669 5.32877
H -5.78242 -11.4909 4.87841
O 10.5237 7.89362 -0.662845
H 9.95581 8.70361 -0.809413
H 11.4571 8.08108 -0.969013
O 11.1816 3.56357 -7.44484
H 10.8935 2.62696 -7.24521
H 10.8719 4.1707 -6.71301
O 6.50982 8.04404 -8.80706
H 6.01214 8.46028 -8.04605
H 7.1562 7.36823 -8.45273
O 2.23864 -3.23854 -5.70969
H 1.73318 -3.82296 -5.07483
H 2.40934 -2.35095 -5.28176
O -8.7768 0.399469 14.6978
H -7.93299 0.924917 14.8072
H -9.00316 0.330927 13.7261
O -4.93334 -13.3996 1.14225
H -4.5083 -14.1313 0.609214
H -4.81179 -13.584 2.1176
O -1.51484 9.67832 -5.60878
H -0.981689 8.92147 -5.98694
H -2.29899 9.31496 -5.10563
O 5.10742 -2.78177 -11.7915
H 5.6512 -2.26515 -11.1301
H 5.29739 -3.75823 -11.689
O 3.53984 -13.2374 11.6807
H 4.22436 -13.9511 11.5319
H 3.90089 -12.557 12.3185
O 0.364563 -10.2127 2.23324
H 0.403171 -10.1602 1.23533
H -0.164106 -9.44128 2.58743
O -13.5148 13.2721 -3.92332
H -14.1968 12.9091 -4.55829
H -13.6617 14.2538 -3.80183
O -6.23774 11.6918 2.85295
H -6.64508 12.0525 2.01388
H -5.36652 11.2506 2.6376
O 5.96815 -4.97525 1.7405
H 6.43477 -5.83239 1.95882
H 5.28685 -4.77771 2.4454
O -3.29218 12.9859 -13.6233
H -2.76581 13.7886 -13.9037
H -3.8256 12.6493 -14.3994
O 1.47786 6.84279 13.8608
H 1.21614 5.91092 13.6095
H 2.47342 6.90072 13.9356
O 5.38181 4.58888 8.29278
H 5.47867 5.5786 8.18718
H 5.87981 4.29021 9.10695
O -7.42773 -1.35956 -7.43123
H -7.65664 -0.717232 -8.16273
H -7.54625 -0.911554 -6.54505
O 4.35724 3.64957 4.0422
H 4.43436 2.98348 4.78413
H 4.8669 3.32256 3.24634
O -13.7952 3.74685 11.6223
H -14.4497 3.79279 12.377
H -14.1497 4.26201 10.8419
O -11.4025 5.11426 3.53719
H -12.322 5.50526 3.57833
H -11.4275 4.25713 3.02261
O 2.83494 -4.48475 9.14155
H 2.13437 -4.43048 9.85313
H 2.61826 -5.23512 8.517
O 6.85793 13.5693 1.93242
H 6.47961 14.4893 1.83003
H 7.27917 13.4806 2.83508
O 0.799565 1.86879 -8.94917
H 1.15335 1.4735 -9.79691
H 1.12251 1.33093 -8.17039
O 13.0041 -0.641898 -13.7224
H 13.7985 -1.05455 -13.2766
H 12.9149 -1.00682 -14.6492
O 0.943218 -9.09437 -9.80754
H 0.817194 -8.29984 -9.21346
H 0.0626893 -9.35995 -10.2002
O 5.26935 6.20218 4.53997
H 4.74416 5.5636 3.97742
H 5.02632 7.14059 4.29419
O -0.568481 -6.27192 -13.4554
H -0.370442 -6.96505 -14.1485
H -1.24157 -6.63029 -12.8084
O -9.41477 12.7776 13.294
H -9.5067 12.4685 14.2406
H -9.66058 13.7451 13.2339
O 6.30143 -5.32007 6.95579
H 6.50377 -4.65854 6.23363
H 6.87372 -5.12851 7.7532
O 8.54231 -11.4202 -8.2062
H 8.76229 -10.6182 -8.7617
H 9.38616 -11.8172 -7.84517
O -13.1239 2.2817 -6.99586
H -12.7342 2.36478 -6.07863
H -13.9378 1.70163 -6.96096
O 0.211234 -10.572 -0.658426
H 0.691259 -9.82151 -1.11268
H -0.759059 -10.3449 -0.574655
O -11.8158 2.79349 1.91139
H -12.2848 2.66107 1.03814
H -12.0885 2.07285 2.54887
O 9.12408 -8.71404 12.8338
H 9.25861 -9.69269 12.9895
H 8.47829 -8.58179 12.0818
O -8.32939 3.27749 13.7627
H -8.06953 2.51313 13.1725
H -7.99742 4.13313 13.3655
O 13.277 14.4171 13.1238
H 13.4785 14.9804 13.9251
H 13.2179 13.4571 13.3976
O 4.65887 -4.21467 11.6828
H 4.19566 -4.79184 12.3554
H 4.23799 -4.34546 10.7851
O -4.312 1.8175 9.72176
H -4.99884 2.26262 10.2964
H -4.35378 2.19723 8.79756
O -11.4589 -2.74724 -1.91288
H -12.1312 -2.93393 -2.62937
H -10.542 -2.73316 -2.31164
O -7.85796 15.0665 4.84361
H -6.90808 14.7555 4.87666
H -8.40938 14.5212 5.475
O -14.8624 -3.02957 -6.25807
H -14.0138 -2.97183 -6.78396
H 14.7676 -3.63034 -6.7307
O 6.26537 1.57723 13.4107
H 6.93538 0.982221 12.9667
H 6.57406 2.52679 13.3548
O 11.619 -8.38326 -8.05232
H 11.1166 -7.6719 -8.54391
H 11.4789 -8.27093 -7.06853
O 13.2885 1.9549 -13.4279
H 14.2021 2.22057 -13.1198
H 13.2445 0.960247 -13.5218
O -1.90731 -2.99861 11.4046
H -2.57862 -3.73371 11.4998
H -2.12495 -2.26334 12.0466
O -9.04609 12.9447 7.04203
H -9.91817 13.434 7.03022
H -8.7841 12.7533 7.98796
O -14.8943 9.61468 3.36009
H 14.746 10.2447 3.80784
H -14.0253 9.6092 3.85495
O 11.9807 -6.00628 -2.8961
H 11.2742 -6.69894 -3.04199
H 11.5909 -5.09688 -3.04145
O 3.31012 -13.85 -9.43162
H 3.70319 -13.4929 -10.279
H 3.85139 -13.5319 -8.65318
O -15.0841 7.12987 -13.7317
H 14.624 6.31382 -13.6177
H -14.7326 7.41867 -12.8411
O 10.1866 -3.78535 -12.0969
H 10.0191 -4.30598 -12.9341
H 10.3398 -2.82428 -12.327
O -12.0422 9.07998 4.48101
H -11.3505 9.44806 5.1024
H -12.4856 8.29059 4.9057
O -12.4049 9.20915 10.1945
H -12.6563 10.0275 10.7113
H -12.2853 8.44116 10.8237
O 12.0498 12.8651 6.72855
H 11.5185 12.2636 6.13185
H 11.6445 12.8704 7.64276
O 9.13726 2.78133 5.56691
H 8.59304 3.58633 5.80329
H 8.75483 2.34841 4.75057
O 12.1122 4.02393 -3.4116
H 12.9755 4.36313 -3.03779
H 11.7839 3.2618 -2.85352
O 14.5826 4.09419 13.5675
H 14.6841 5.08763 13.6209
H 13.6707 3.8347 13.8855
O 2.81635 -0.818524 -9.79838
H 2.47834 -1.30556 -10.6038
H 3.36522 -0.0346672 -10.0889
O -4.35524 3.72506 -9.38895
H -4.95145 3.0258 -8.99443
H -4.58601 3.85441 -10.3534
O -14.5501 4.27033 -13.5452
H -13.8459 3.73689 -14.0139
H -14.2236 4.52694 -12.6355
O -7.20285 -4.04913 6.77636
H -7.85046 -3.53389 7.33779
H -7.13899 -3.62927 5.87098
O -1.23278 -11.6925 3.61387
H -0.551699 -11.3857 2.94895
H -1.4751 -12.6447 3.42771
O -7.72195 -9.85407 8.3236
H -7.55602 -8.89745 8.08396
H -8.00929 -10.3569 7.50833
O -13.4008 -11.2242 1.27763
H -12.5139 -11.2185 1.73957
H -13.5666 -10.3293 0.863186
O 4.03372 -10.3196 10.7226
H 4.53971 -11.1491 10.9592
H 3.16504 -10.3064 11.2179
O -4.77486 -14.473 3.91065
H -4.91678 -13.8088 4.64463
H -5.01032 14.887 4.23887
O -11.7031 11.0536 8.01196
H -11.5263 10.4142 8.76036
H -11.3523 10.6712 7.15708
O 13.0841 12.0211 14.5024
H 13.6098 12.0454 -14.9221
H 13.5895 11.5022 13.8128
O 15.1067 14.2237 -8.64546
H 14.3063 14.7928 -8.83418
H -15.0257 13.5871 -9.40342
O -13.3616 -0.45097 -11.339
H -13.5486 0.479145 -11.6552
H -12.373 -0.593013 -11.2873
O 4.28308 -14.3351 7.24655
H 3.69259 -14.0118 7.98609
H 3.755 -14.3925 6.39925
O 12.5333 11.5633 -2.34856
H 12.6705 12.4142 -2.85566
H 13.1148 11.5627 -1.53496
O -15.0063 -6.92708 -14.1404
H 14.3448 -7.24348 -14.3567
H -14.996 -5.92771 -14.1051
O -7.82584 -5.72009 -10.1606
H -6.84556 -5.84258 -10.0053
H -8.02293 -5.81367 -11.1366
O -12.8844 -0.543601 -5.56319
H -13.5932 -0.0542196 -6.07137
H -12.1768 -0.857419 -6.19635
O 13.7576 4.97209 -10.2076
H 14.4353 5.25535 -9.52893
H 12.8516 4.95012 -9.78478
O 8.33889 0.3495 -14.1774
H 8.13709 1.25841 -13.8124
H 7.48554 -0.157057 -14.301
O -15.0686 -10.8534 -8.7958
H -14.0883 -11.051 -8.80546
H 15.0608 -9.90154 -8.52566
O 12.7958 -7.37117 15.1063
H 12.176 -7.70266 14.395
H 12.2933 -6.78035 -14.5373
O -2.24715 -1.17538 -8.32566
H -3.01359 -1.67696 -7.92432
H -1.48007 -1.80007 -8.47205
O -12.3551 -3.03264 14.3883
H -11.5991 -2.56748 14.8488
H -12.1042 -3.21584 13.4377
O 9.03488 5.22942 -14.3299
H 9.54851 4.95378 15.1323
H 9.6092 5.81133 -13.7541
O 10.3168 4.3506 13.6444
H 11.121 3.85977 13.9797
H 10.3359 4.37809 12.6449
O 14.3135 4.5982 2.85609
H 14.5878 3.69813 2.51737
H 15.1217 5.17983 2.94911
O 9.7761 7.86906 12.81
H 9.74327 7.00434 13.3113
H 9.08732 8.49389 13.1778
O 1.88065 1.26231 14.6753
H 1.58666 0.722587 13.8864
H 2.40862 2.05141 14.3612
O 0.812098 -8.45324 8.60374
H 1.25963 -9.34505 8.53685
H -0.0282646 -8.46052 8.06169
O 14.4782 12.8931 -5.75864
H 14.6285 12.1624 -6.42465
H 13.8182 13.5485 -6.12616
O -6.02347 8.32792 13.9094
H -5.40202 9.03363 14.2498
H -6.14303 7.62343 14.609
O -2.68777 1.91951 -13.6735
H -2.37124 2.139 -12.7506
H -2.14267 2.42553 -14.342
O 13.2334 -6.91191 6.61036
H 12.4629 -6.66086 7.19633
H 12.8962 -7.14558 5.69831
O -4.74722 -2.59118 -7.6303
H -5.72711 -2.39481 -7.59382
H -4.43514 -2.89842 -6.73125
O -7.02842 4.56509 6.65983
H -6.29326 5.00386 6.14302
H -7.91183 4.90316 6.33521
O 0.918322 11.2286 -7.85387
H 1.03301 10.9039 -6.91499
H 1.75346 11.6917 -8.15077
O -11.6029 14.0336 -10.2775
H -11.8627 13.3973 -9.55106
H -10.731 14.4653 -10.0463
O 10.5207 -10.5236 -14.3084
H 11.3475 -11.0844 -14.3524
H 9.82335 -10.91 -14.9121
O -5.147 0.972221 6.27403
H -4.60638 0.227148 6.66476
H -4.53991 1.72198 6.01062
O -3.7073 5.20711 -7.23844
H -3.84389 4.76912 -8.12703
H -4.44415 4.93885 -6.61781
O 4.63328 -0.573915 -7.43624
H 4.23162 0.332621 -7.30607
H 3.96542 -1.17437 -7.87611
O -6.83858 0.963199 -12.1215
H -6.34858 1.25315 -12.9437
H -6.41638 0.133086 -11.7572
O 11.5248 -12.5944 -11.4892
H 11.8422 -11.9401 -10.8027
H 11.7587 -12.2596 -12.402
O 6.87744 9.61623 -10.9834
H 6.80647 9.04018 -10.169
H 7.67233 10.2171 -10.8984
O -8.99852 -0.552732 -3.42925
H -8.22478 0.0466016 -3.22383
H -8.83932 -1.4532 -3.02443
O 7.69548 6.79062 -11.5657
H 7.73652 6.36742 -12.4709
H 7.9127 7.76376 -11.6426
O 9.6375 -10.9638 -0.398977
H 9.94069 -10.9389 -1.35163
H 9.96221 -10.1457 0.0756439
O 8.97134 0.909671 7.47663
H 7.98355 0.771081 7.54847
H 9.15519 1.70507 6.89904
O 8.19765 12.9006 4.20958
H 8.85714 12.2316 3.86657
H 8.04349 12.7465 5.18557
O 3.00511 -4.69748 3.42505
H 2.28557 -4.22827 3.93708
H 3.65083 -5.11526 4.06426
O -9.28295 -8.44212 -13.9628
H -8.31511 -8.6225 -14.1384
H -9.82003 -9.25445 -14.1902
O 5.84263 6.20862 13.8434
H 5.48698 6.72302 13.063
H 5.08716 5.9546 14.4474
O 10.3571 -8.3665 0.748515
H 11.0332 -8.28832 0.0158096
H 10.1415 -7.45607 1.10168
O 14.4867 -6.41336 2.17265
H 13.6987 -7.00725 2.33513
H -14.9527 -6.963 2.16375
O 8.75737 -3.15051 -4.42001
H 8.03755 -3.29769 -3.74158
H 8.38042 -2.6579 -5.20444
O 3.52824 13.0316 -11.0895
H 3.1888 13.3896 -10.2196
H 2.93284 12.2906 -11.4
O 6.7391 -12.5464 6.48278
H 6.44068 -12.0815 5.64914
H 5.98734 -13.0981 6.84413
O 0.674865 -4.1963 11.0999
H -0.256648 -3.8346 11.0607
H 1.16503 -3.77287 11.8618
O -3.88812 -4.95504 11.971
H -3.59738 -5.42202 12.8061
H -4.80935 -5.25597 11.7243
O 14.0409 12.5437 -0.0383994
H 13.3517 12.5004 0.684948
H 14.1387 13.4891 -0.349437
O 10.5068 11.8952 -8.82822
H 9.63002 12.3675 -8.73741
H 10.6939 11.3763 -7.99408
O 5.80922 -1.80087 11.5798
H 5.26269 -1.18842 12.151
H 5.40184 -2.71415 11.5857
O 0.235911 7.97429 -7.11416
H 1.18431 7.66127 -7.06284
H -0.30636 7.31154 -7.63066
O -8.598 9.23069 8.17115
H -7.72622 8.79877 7.93976
H -8.93951 9.73728 7.37944
O 8.28279 9.58454 4.73078
H 7.44364 10.0108 5.06868
H 9.07389 10.0164 5.16408
O 2.18678 1.45955 6.75488
H 1.39667 2.07034 6.80733
H 2.97752 1.9662 6.41119
O 1.23907 1.66379 -11.5688
H 0.283713 1.95921 -11.5582
H 1.32425 0.830424 -12.1149
O 0.862944 -15.0406 2.48348
H 1.27784 -14.1391 2.60711
H 1.55909 14.5866 2.1737
O -0.4066 8.56751 12.7549
H 0.0140874 9.00075 11.9578
H 0.266626 7.98683 13.2128
O -12.9623 -5.22271 -11.7482
H -13.2804 -5.13508 -12.6923
H -12.8833 -6.19114 -11.5117
O 2.61292 7.00253 -7.92753
H 2.92747 6.7721 -8.84842
H 2.88047 6.27757 -7.29276
O 2.54826 -6.29805 -11.7215
H 2.8473 -5.77688 -12.5209
H 1.59068 -6.08698 -11.5251
O 8.41045 -6.98058 5.59087
H 8.7901 -7.77544 6.0643
H 7.69114 -6.57067 6.1518
O -10.911 -4.24541 -13.2363
H -11.5884 -4.44595 -12.5285
H -10.8007 -3.2551 -13.3211
O -14.8188 0.579569 3.88112
H 14.5969 0.265372 4.28522
H -14.9966 1.36636 3.29
O -4.6726 -10.074 1.21647
H -4.97684 -10.0243 2.16781
H -5.38891 -10.4937 0.65894
O 8.09473 5.57677 5.67513
H 8.63862 6.07281 4.99822
H 7.12337 5.75486 5.5176
O 2.2832 -2.45946 -12.1285
H 2.08133 -1.77752 -12.8315
H 3.2723 -2.59468 -12.0695
O 9.95312 -0.107234 10.0615
H 10.8645 -0.504641 9.95413
H 9.74432 0.466592 9.26949
O -10.8743 -13.1957 -13.8134
H -11.5571 -13.8434 -13.4751
H -9.96356 -13.6019 -13.7384
O -8.74278 -3.13478 -2.33949
H -9.14342 -3.84114 -2.92312
H -7.97307 -3.52008 -1.8304
O 11.0705 10.6442 5.29452
H 11.359 9.9781 5.98238
H 11.8175 10.8009 4.64838
O -1.13638 -8.26163 11.9588
H -1.203 -7.83475 11.0569
H -1.71641 -9.07583 11.9859
O 13.2095 5.19111 0.229964
H 13.2632 6.18971 0.22805
H 13.8237 4.8256 0.929356
O 6.37958 0.433998 8.10026
H 6.14778 0.918361 8.94391
H 6.02972 -0.501718 8.14624
O -12.3943 10.0838 -1.24203
H -12.9258 10.4782 -0.49243
H -12.6422 9.12172 -1.35628
O -13.4895 11.4033 11.3836
H -14.0465 12.195 11.1325
H -12.7332 11.6994 11.9671
O -9.0647 7.22882 -8.26057
H -9.44508 7.56036 -9.12397
H -8.08368 7.06757 -8.3686
O -7.59545 2.45509 9.36718
H -7.50254 1.77956 8.63568
H -8.56407 2.58696 9.57807
O -8.49902 14.4296 -3.51187
H -9.037 13.767 -4.03312
H -8.92572 14.5771 -2.61956
O -10.052 14.4295 2.05548
H -10.2061 14.6187 1.08566
H -9.07225 14.4709 2.2516
O 6.73776 12.1913 -13.7135
H 7.32952 11.7419 -14.3827
H 6.42374 11.5199 -13.0422
O 8.37434 -14.7132 4.78748
H 8.14659 14.6972 4.33914
H 7.54504 -14.1647 4.89476
O -11.1536 -5.73227 -9.19677
H -10.1711 -5.64887 -9.02988
H -11.3065 -6.27424 -10.0232
O -10.2215 -5.46829 14.6935
H -10.9303 -5.66002 14.0146
H -10.4614 -4.64086 -15.0735
O 14.3005 5.09195 -2.45216
H 14.0575 5.08126 -1.48216
H 14.3304 6.03698 -2.77789
O 6.38393 -14.8363 14.4547
H 6.52723 -13.8733 14.6831
H 7.21562 15.0664 14.0425
O -5.2588 6.11302 0.506921
H -5.27776 7.03585 0.891766
H -4.85917 6.14212 -0.409336
O -5.20136 3.55512 3.2332
H -6.01783 3.13895 3.63352
H -5.25038 3.49331 2.23628
O -4.27985 -5.95887 -0.955462
H -4.03086 -6.26837 -0.037697
H -3.64494 -6.34888 -1.62244
O 7.70398 11.5709 9.7324
H 7.44413 12.3649 10.282
H 8.60163 11.2418 10.0257
O -8.35115 10.1104 3.73066
H -7.71625 10.883 3.73986
H -7.91483 9.32567 3.29039
O -5.18791 -11.7738 -8.34038
H -5.5163 -11.0961 -7.68235
H -4.30472 -11.4815 -8.70725
O 13.6105 7.76912 -1.4305
H 13.0048 8.03351 -2.18105
H 14.5614 7.8198 -1.73588
O -1.38043 6.53038 0.944352
H -1.75518 5.81504 1.5342
H -1.49263 6.26542 -0.0133973
O 14.2753 8.67174 10.7189
H 14.8852 9.21151 10.1386
H 13.6162 8.18371 10.1467
O 6.80952 4.97642 2.17243
H 7.57741 5.53131 1.85224
H 6.55166 5.26469 3.09465
O -6.88127 7.36805 -2.79747
H -6.57306 7.71685 -3.68259