LAMMPS data file via write_data, version 15 May 2015, timestep = 1000000

4560 atoms
7 atom types
5040 bonds
3 bond types
7200 angles
2 angle types
10560 dihedrals
3 dihedral types
2400 impropers
1 improper types

-1.0763502675555259e-01 4.1387635026745990e+01 xlo xhi
-4.0433884491974936e-02 3.5938433884472119e+01 ylo yhi
-3.5711112484589691e-01 2.9555111124838550e+01 zlo zhi
-6.7234083837551181e-02 -1.7036217651000683e+01 -4.1707816797290791e-02 xy xz yz

Masses

1 12.0107
2 1.008
3 12.0107
4 12.0107
5 12.0107
6 12.0107
7 12.0107

Pair Coeffs # lj/cut/coul/long

1 0.07 3.55
2 0.03 2.42
3 0.07 3.55
4 0.07 3.55
5 0.07 3.55
6 0 0
7 0.07 3.55

Bond Coeffs # harmonic

1 469 1.4
2 367 1.08
3 469 0.7

Angle Coeffs # harmonic

1 35 120
2 63 120

Dihedral Coeffs # opls

1 0 7.25 0 0
2 0 7.25 0 0
3 0 7.25 0 0

Improper Coeffs # cvff

1 2.5 -1 2

Atoms # full

219 13 3 0.0000000000000000e+00 -5.3747980134936424e-01 3.0692398011401467e+00 3.0204130625428198e+00 1 0 0
220 13 4 -1.1500000000000000e-01 1.8967356154372639e-01 3.9874867202274125e+00 2.2368563141064812e+00 1 0 0
224 13 2 1.1500000000000000e-01 2.4134555989741524e-01 4.9942321731294745e+00 2.6086592743984629e+00 1 0 0
580 33 4 -1.1500000000000000e-01 2.4722116996505852e+00 6.7428459298114731e+00 3.7705855661726790e+00 1 0 0
228 13 3 0.0000000000000000e+00 -8.3644876684678471e-01 1.8135883375033288e+00 2.4968275394195629e+00 1 0 0
989 53 4 -1.1500000000000000e-01 -1.4505212472710081e+00 6.9409902877693987e+00 3.7928999773567504e+00 1 0 0
600 34 2 1.1500000000000000e-01 -9.6372551255598182e-02 5.6599132856834924e+00 6.9358485677450927e+00 1 0 0
591 33 2 1.1500000000000000e-01 2.3267581108310962e+00 5.4841826657259931e+00 6.9061486799994443e+00 1 0 0
1493 53 6 0.0000000000000000e+00 -4.6487913902900369e-01 8.4263345708785327e+00 3.0947897307054766e+00 1 0 0
987 53 4 -1.1500000000000000e-01 -8.1989157587875416e-01 7.5637773281695093e+00 1.5182454264935212e+00 1 0 0
733 13 6 0.0000000000000000e+00 -8.0739159562726959e-01 2.5324910016179913e+00 2.6336906405093159e+00 1 0 0
592 33 2 1.1500000000000000e-01 3.6395879675576501e+00 3.6742987412773660e+00 5.7169638052163885e+00 1 0 0
230 13 1 -1.1500000000000000e-01 5.2370731005458659e-01 3.6676705929828195e+00 9.0328411722544333e-01 1 0 0
217 13 7 -1.1500000000000000e-01 -1.5117174285159405e+00 2.5119901688345361e+00 5.1531718039042715e+00 1 0 0
218 13 5 -1.1500000000000000e-01 -9.2803229863583070e-01 3.4072515778515489e+00 4.3319457676345614e+00 1 0 0
221 13 1 -1.1500000000000000e-01 -1.7754423431075190e+00 1.1787619717690765e+00 4.7102636275195895e+00 1 0 0
222 13 2 1.1500000000000000e-01 -1.8051586409880267e+00 2.8140341916715230e+00 6.1873625222604902e+00 1 0 0
223 13 2 1.1500000000000000e-01 -6.5993373926335686e-01 4.3461727712974385e+00 4.7692245391834556e+00 1 0 0
248 14 1 -1.1500000000000000e-01 -3.6452531840635851e+00 3.7275031325737760e+00 8.2958711554637290e+00 1 0 0
4380 233 4 -1.1500000000000000e-01 2.5878868956777863e+00 9.9505603769214324e-01 3.8466054295314009e+00 1 1 0
977 53 7 -1.1500000000000000e-01 -9.4267170408170520e-01 8.4672467125739850e+00 5.5925531993576163e+00 1 0 0
603 34 2 1.1500000000000000e-01 8.3058605641638916e-01 3.3519163676540336e+00 7.7366023047319992e+00 1 0 0
986 53 1 -1.1500000000000000e-01 -2.7119126418312239e-01 8.5228804258251767e+00 6.1714642876185322e-01 1 0 0
4394 233 2 1.1500000000000000e-01 1.6719329825601466e+00 1.3109451839559310e+00 5.7880574932170683e+00 1 1 0
579 33 3 0.0000000000000000e+00 3.1641534305327141e+00 5.7657606890738613e+00 3.0346864335674164e+00 1 0 0
252 14 2 1.1500000000000000e-01 -3.1483378651109382e+00 4.3749258115690521e+00 7.5432943167680033e+00 1 0 0
581 33 1 -1.1500000000000000e-01 4.9055446738128659e+00 4.0842374892690305e+00 1.6679231698063077e+00 1 0 0
1064 57 2 1.1500000000000000e-01 7.1055513824860608e+00 6.2909638068459977e+00 1.2703588088990585e+00 1 0 0
577 33 7 -1.1500000000000000e-01 4.3461845453253405e+00 5.1634909172928545e+00 1.0605668411005997e+00 1 0 0
588 33 3 0.0000000000000000e+00 3.6995211852161076e+00 4.6785540994609951e+00 3.7106605581220329e+00 1 0 0
589 33 4 -1.1500000000000000e-01 4.5101053740587771e+00 3.7742037320494393e+00 3.0042496456589962e+00 1 0 0
593 33 2 1.1500000000000000e-01 4.8310347868664021e+00 2.8751387593356759e+00 3.5554723054895776e+00 1 0 0
753 33 6 0.0000000000000000e+00 3.3639607517573467e+00 5.1788382394749908e+00 3.4064460465827953e+00 1 0 0
4383 233 2 1.1500000000000000e-01 3.4965676123017309e+00 1.4929274075843317e+00 1.3564410894551684e+00 1 1 0
244 14 1 -1.1500000000000000e-01 -4.1390897763790813e+00 2.5212712527717338e+00 7.7874589747968024e+00 1 0 0
578 33 5 -1.1500000000000000e-01 3.4665821255107803e+00 6.0494642131959280e+00 1.6990313471232366e+00 1 0 0
1005 54 4 -1.1500000000000000e-01 -4.7282331516777916e+00 7.5769483293086113e+00 8.5338139520085949e+00 1 0 0
4384 233 2 1.1500000000000000e-01 2.2275964895355167e+00 1.9283362275938811e+00 3.5315480857439292e+00 1 1 0
586 33 1 -1.1500000000000000e-01 2.7070407974640536e+00 5.5425206797086997e+00 5.9008213625340380e+00 1 0 0
587 33 4 -1.1500000000000000e-01 3.4084710405448080e+00 4.5468946662358833e+00 5.1440239245117123e+00 1 0 0
1004 54 1 -1.1500000000000000e-01 -4.2396886425282476e+00 8.6130944848407296e+00 7.6517117303529467e+00 1 0 0
225 13 2 1.1500000000000000e-01 -2.1784025718016462e+00 4.4298606194289919e-01 5.3448078437145252e+00 1 0 0
585 33 2 1.1500000000000000e-01 5.6746751162558544e+00 3.5308922493023216e+00 1.2064701503183177e+00 1 0 0
590 33 1 -1.1500000000000000e-01 2.2288377369062693e+00 6.6504635628706534e+00 5.1701272471751087e+00 1 0 0
234 13 2 1.1500000000000000e-01 1.0093247880070628e+00 4.4688697157573962e+00 2.8672553417693591e-01 1 0 0
4396 234 5 -1.1500000000000000e-01 -8.0957803947777141e-01 3.3286545231573228e-01 9.4382810255866758e+00 1 1 0
229 13 4 -1.1500000000000000e-01 -1.3962472426437549e+00 8.2916042587304239e-01 3.3402111488016066e+00 1 0 0
988 53 3 0.0000000000000000e+00 -8.0639258444785256e-01 7.8307602672911951e+00 2.9000332691671127e+00 1 0 0
985 53 2 1.1500000000000000e-01 -2.0925094216515752e+00 6.6122809058520646e+00 5.8813364835122881e+00 1 0 0
599 34 1 -1.1500000000000000e-01 3.6675569703592537e-01 4.0730493263585501e+00 8.4426034703614139e+00 1 0 0
245 14 4 -1.1500000000000000e-01 -4.7534021345089759e+00 1.6377785727903691e+00 8.7418527913913522e+00 1 0 0
4390 233 1 -1.1500000000000000e-01 2.2414374417020944e+00 6.9124909025697168e-01 5.1431166729856344e+00 1 1 0
595 34 7 -1.1500000000000000e-01 -1.6277707013905118e-01 5.3281212199839674e+00 7.9978836815494674e+00 1 0 0
981 53 1 -1.1500000000000000e-01 -1.5986807320150884e+00 7.2756196277094549e+00 5.1576450928160424e+00 1 0 0
226 13 1 -1.1500000000000000e-01 2.0544267464192095e-01 2.3804884237437154e+00 3.5995705324049321e-01 1 0 0
4401 234 2 1.1500000000000000e-01 -1.2030640698244204e+00 1.3028504081043872e+00 9.2610469319911495e+00 1 1 0
583 33 2 1.1500000000000000e-01 3.0453538757795027e+00 6.8767730002112293e+00 1.0978212759319692e+00 1 0 0
584 33 2 1.1500000000000000e-01 2.0671464865774034e+00 7.6508495870741067e+00 3.2746266950682759e+00 1 0 0
4378 233 5 -1.1500000000000000e-01 3.7772555660418781e+00 5.1107833031649064e-01 1.7925624367017661e+00 1 1 0
601 34 2 1.1500000000000000e-01 -8.0478877539838400e-01 7.1777933403914274e+00 8.6990562035080181e+00 1 0 0
227 13 4 -1.1500000000000000e-01 -4.7882892417768147e-01 1.4741881663608110e+00 1.2061089671459388e+00 1 0 0
596 34 5 -1.1500000000000000e-01 -6.8340863959690079e-01 6.1974748739101972e+00 8.9525311156355887e+00 1 0 0
594 33 2 1.1500000000000000e-01 1.7344325839326640e+00 7.4081035245320512e+00 5.7117465245888104e+00 1 0 0
582 33 2 1.1500000000000000e-01 4.7036425610769514e+00 5.3827289376615912e+00 5.8962630050805043e-03 1 0 0
322 18 2 1.1500000000000000e-01 2.7159237527409879e+00 5.2225778622434715e-01 8.9913072840326507e+00 1 0 0
982 53 2 1.1500000000000000e-01 -1.0224386420725362e+00 8.6973258938281113e+00 6.5885758034673758e+00 1 0 0
993 53 2 1.1500000000000000e-01 -1.9790518258969110e+00 5.9985282644096731e+00 3.5302680837408622e+00 1 0 0
4379 233 3 0.0000000000000000e+00 3.2982085648625530e+00 9.3947490768391761e-02 3.0399678842571056e+00 1 1 0
1082 58 2 1.1500000000000000e-01 2.9336119907651073e+00 7.1267651641383889e+00 8.2258621350531786e+00 1 0 0
4382 233 2 1.1500000000000000e-01 4.9555050947278225e+00 4.4548933649148248e-02 7.7117829397325366e-02 1 1 0
235 14 7 -1.1500000000000000e-01 -4.9806351118386853e+00 2.5280748669247157e+00 1.2885406839373696e+01 1 0 0
236 14 5 -1.1500000000000000e-01 -4.4113235052495847e+00 3.4900446497765927e+00 1.1945598589262492e+01 1 0 0
597 34 3 0.0000000000000000e+00 -7.5039378724795736e-01 5.9238332327943413e+00 1.0310652704834537e+01 1 0 0
734 14 6 0.0000000000000000e+00 -4.6816204206580609e+00 2.5201006072410159e+00 1.0366216715385406e+01 1 0 0
239 14 1 -1.1500000000000000e-01 -5.4714525912204408e+00 1.2904171715831716e+00 1.2468935186252970e+01 1 0 0
240 14 2 1.1500000000000000e-01 -4.8998777955565682e+00 2.8444235354147329e+00 1.3897755751899551e+01 1 0 0
1389 75 2 1.1500000000000000e-01 -3.2814662552590059e+00 8.7812154405608194e+00 1.7710928185860666e+01 1 0 0
620 35 2 1.1500000000000000e-01 -6.0430170364001325e+00 7.6767177035012901e+00 1.8567901581755081e+01 1 0 0
4420 235 2 1.1500000000000000e-01 -6.4439869486206396e+00 1.6109642310595205e+00 1.8669724951724536e+01 1 1 0
237 14 3 0.0000000000000000e+00 -4.3432486644707078e+00 3.1336906682140167e+00 1.0537751479740979e+01 1 0 0
4402 234 2 1.1500000000000000e-01 -1.8645164971442210e+00 1.7409466501110273e+00 1.1611625563505431e+01 1 1 0
4414 235 5 -1.1500000000000000e-01 -4.7900873570469029e+00 2.3954036234147599e-01 1.6941395308028127e+01 1 1 0
238 14 4 -1.1500000000000000e-01 -3.8205913179435123e+00 4.1368006849313712e+00 9.6402529912423951e+00 1 0 0
255 15 3 0.0000000000000000e+00 -8.8807820769003918e+00 2.9535390976610061e+00 1.7999983304916235e+01 1 0 0
256 15 4 -1.1500000000000000e-01 -8.1272497956581429e+00 3.7706731871216852e+00 1.7175945385178512e+01 1 0 0
260 15 2 1.1500000000000000e-01 -7.8453113742954903e+00 4.7364007476308529e+00 1.7539526553422380e+01 1 0 0
263 15 4 -1.1500000000000000e-01 -9.1465380637619003e+00 1.3459747721516737e+00 1.6133663648630662e+01 1 0 0
4416 235 4 -1.1500000000000000e-01 -6.0797499924343725e+00 6.1338383817018693e-01 1.9035723815723813e+01 1 1 0
264 15 3 0.0000000000000000e+00 -9.3867099216878476e+00 1.7438229174343951e+00 1.7485339630748854e+01 1 0 0
1000 54 2 1.1500000000000000e-01 -5.3660629197661116e+00 8.7477039523542235e+00 1.3636418691458147e+01 1 0 0
266 15 1 -1.1500000000000000e-01 -7.8700392127127614e+00 3.4224570607961824e+00 1.5836630071602226e+01 1 0 0
251 14 2 1.1500000000000000e-01 -5.8325514280686059e+00 1.8324860943429347e-02 1.0850669502233693e+01 1 0 0
1024 55 3 0.0000000000000000e+00 -9.0334423906515280e+00 7.4250923386704848e+00 1.7516105291861237e+01 1 0 0
4412 234 2 1.1500000000000000e-01 -2.2202824513474706e+00 8.3736167990651966e-01 1.3723497444754537e+01 1 1 0
735 15 6 0.0000000000000000e+00 -9.0271243081892951e+00 2.3367728984766338e+00 1.7728480922370359e+01 1 0 0
246 14 3 0.0000000000000000e+00 -4.8777728879146860e+00 1.9111280247852331e+00 1.0100954860495399e+01 1 0 0
265 15 4 -1.1500000000000000e-01 -1.0075840583302682e+01 9.0625129612804289e-01 1.8350551128940321e+01 1 0 0
604 34 1 -1.1500000000000000e-01 -9.1113974434310308e-01 5.2392350639830987e+00 1.2994794161592267e+01 1 0 0
605 34 4 -1.1500000000000000e-01 -3.4047599992009037e-01 4.3272881672553432e+00 1.2081137827546771e+01 1 0 0
606 34 3 0.0000000000000000e+00 -3.0882542296715165e-01 4.6429580376680182e+00 1.0700328880123889e+01 1 0 0
262 15 1 -1.1500000000000000e-01 -8.3378928523482383e+00 2.1896346441078327e+00 1.5277438831430787e+01 1 0 0
1371 74 2 1.1500000000000000e-01 7.3634434856429110e-01 8.9085342610530205e+00 1.0284289863139769e+01 1 0 0
1022 55 1 -1.1500000000000000e-01 -8.1290134998158177e+00 7.9379066421817672e+00 1.5290719624523051e+01 1 0 0
610 34 2 1.1500000000000000e-01 -7.5244038479547193e-02 3.3693225103977693e+00 1.2368852625480599e+01 1 0 0
241 14 2 1.1500000000000000e-01 -3.9728492973758995e+00 4.3508882025846694e+00 1.2306472018334130e+01 1 0 0
1007 54 4 -1.1500000000000000e-01 -5.4666093028466163e+00 6.9200428576536499e+00 1.0826604629109372e+01 1 0 0
598 34 4 -1.1500000000000000e-01 -1.2163469477963051e+00 6.8862825506158698e+00 1.1230260143508238e+01 1 0 0
754 34 6 0.0000000000000000e+00 -4.0250185129246585e-01 5.3647383785855025e+00 1.0463558478511620e+01 1 0 0
609 34 2 1.1500000000000000e-01 -9.1801498691010419e-01 4.9005408098821626e+00 1.4047657476963346e+01 1 0 0
613 35 7 -1.1500000000000000e-01 -4.0511213879669921e+00 5.3648532625237886e+00 1.5824996098904229e+01 1 0 0
618 35 2 1.1500000000000000e-01 -3.9184672456002438e+00 5.6459387964578607e+00 1.4828430344744501e+01 1 0 0
615 35 3 0.0000000000000000e+00 -4.9444022531829930e+00 5.8443432893053755e+00 1.8009156958370021e+01 1 0 0
617 35 1 -1.1500000000000000e-01 -3.5556770955570016e+00 4.1614231922065983e+00 1.6328804302776248e+01 1 0 0
621 35 2 1.1500000000000000e-01 -2.8752686832134708e+00 3.5457494100059002e+00 1.5765259504920454e+01 1 0 0
624 35 3 0.0000000000000000e+00 -4.6094866116972870e+00 4.5491995825364331e+00 1.8484491006239143e+01 1 0 0
625 35 4 -1.1500000000000000e-01 -3.8795060669893102e+00 3.6956307217280138e+00 1.7610180500359359e+01 1 0 0
629 35 2 1.1500000000000000e-01 -3.5206744646132577e+00 2.7062958838197617e+00 1.7905733379788511e+01 1 0 0
755 35 6 0.0000000000000000e+00 -4.7937216709996342e+00 5.1401674125413042e+00 1.8111705126306951e+01 1 0 0
270 15 2 1.1500000000000000e-01 -7.3567681040392712e+00 4.0918353652390733e+00 1.5240117546768664e+01 1 0 0
4398 234 4 -1.1500000000000000e-01 -1.4755455742737844e+00 7.2942188128989571e-01 1.1768744897360589e+01 1 1 0
999 54 1 -1.1500000000000000e-01 -5.6080814213149903e+00 7.1544360672679490e+00 1.2216575291842652e+01 1 0 0
614 35 5 -1.1500000000000000e-01 -4.6916103685791786e+00 6.2468513569949113e+00 1.6699200355246102e+01 1 0 0
247 14 4 -1.1500000000000000e-01 -5.4097511741336755e+00 9.9006566008594799e-01 1.1111805550934974e+01 1 0 0
4419 235 2 1.1500000000000000e-01 -5.1765828029012813e+00 1.1295844344414490e+00 1.6488827255100947e+01 1 1 0
1025 55 4 -1.1500000000000000e-01 -9.6918344772312413e+00 6.5749897883155199e+00 1.8403081720840326e+01 1 0 0
608 34 1 -1.1500000000000000e-01 -1.3506028719564123e+00 6.5342671179695682e+00 1.2601844150618559e+01 1 0 0
616 35 4 -1.1500000000000000e-01 -5.6823893893339417e+00 6.7039924297789888e+00 1.8888335302075870e+01 1 0 0
612 34 2 1.1500000000000000e-01 -1.7978415404272567e+00 7.2181563116660197e+00 1.3312299798887031e+01 1 0 0
611 34 2 1.1500000000000000e-01 4.6488981945336327e-01 2.7417009808042363e+00 1.0179665405288967e+01 1 0 0
1006 54 3 0.0000000000000000e+00 -4.8437956616324529e+00 7.8127983507253997e+00 9.9311684589444535e+00 1 0 0
1023 55 4 -1.1500000000000000e-01 -8.9319263893390204e+00 7.0938212198460171e+00 1.6124274466891055e+01 1 0 0
242 14 2 1.1500000000000000e-01 -3.4466400630943972e+00 5.1220034389891680e+00 9.9352955720364662e+00 1 0 0
602 34 2 1.1500000000000000e-01 -1.4303830988780746e+00 7.9361383190005750e+00 1.0878165990753777e+01 1 0 0
619 35 2 1.1500000000000000e-01 -5.0107255899711989e+00 7.1824078768523867e+00 1.6296025838543663e+01 1 0 0
1011 54 2 1.1500000000000000e-01 -5.8937829685833476e+00 6.0905650304927779e+00 1.0332145398211363e+01 1 0 0
1494 54 6 0.0000000000000000e+00 -4.6501131361387271e+00 8.3343653275388121e+00 1.0374856594694425e+01 1 0 0
1003 54 2 1.1500000000000000e-01 -6.1472374557403819e+00 6.4307934393418060e+00 1.2869749615812061e+01 1 0 0
1495 55 6 0.0000000000000000e+00 -8.8596867364007199e+00 8.1168501389133532e+00 1.7638783213344119e+01 1 0 0
243 14 2 1.1500000000000000e-01 -5.9401458751869134e+00 5.0013886268352248e-01 1.3115688322025965e+01 1 0 0
4408 234 1 -1.1500000000000000e-01 -1.6669027752086576e+00 2.1242638662973634e-01 1.3004644939319441e+01 1 1 0
995 54 7 -1.1500000000000000e-01 -5.1084275740168987e+00 8.3855192963175789e+00 1.2676551578211722e+01 1 0 0
1015 55 3 0.0000000000000000e+00 -8.5632186189043882e+00 8.6853991266224853e+00 1.7963562144493572e+01 1 0 0
254 15 5 -1.1500000000000000e-01 -9.0679639389410713e+00 3.2875305256054017e+00 1.9334531071794050e+01 1 0 0
1029 55 2 1.1500000000000000e-01 -1.0079629294871911e+01 5.5598399962590364e+00 1.8074453621768779e+01 1 0 0
1027 55 2 1.1500000000000000e-01 -7.9589689585356416e+00 7.7088243725397740e+00 1.4220254647610268e+01 1 0 0
607 34 4 -1.1500000000000000e-01 1.5907204569122957e-01 3.7157650904319066e+00 9.7808123727744931e+00 1 0 0
267 15 2 1.1500000000000000e-01 -8.0326701835590963e+00 1.9495506694039264e+00 1.4249566175962681e+01 1 0 0
269 15 2 1.1500000000000000e-01 -1.0408242186190140e+01 -7.6819777093488119e-03 1.7901198453096121e+01 1 0 0
1047 56 2 1.1500000000000000e-01 -1.4258613542045612e+01 5.9473098651209328e+00 2.5651890656095347e+01 1 0 0
276 16 2 1.1500000000000000e-01 -1.4131837846341304e+01 2.6745470297184095e+00 2.9239029924012030e+01 1 0 0
258 15 2 1.1500000000000000e-01 -1.0006490065738008e+01 2.7254630777106001e+00 2.1161145967269142e+01 1 0 0
634 36 4 -1.1500000000000000e-01 -1.0367315681828201e+01 6.6637846360840527e+00 2.6026153925287602e+01 1 0 0
1496 56 6 0.0000000000000000e+00 -1.3453845646645311e+01 8.4930425674250447e+00 2.5340105177036101e+01 1 0 0
1017 55 1 -1.1500000000000000e-01 -9.9311339252664794e+00 7.0591356192495605e+00 1.9698220510442940e+01 1 0 0
284 16 1 -1.1500000000000000e-01 -1.2152411454605490e+01 3.5306878862413225e+00 2.3849164288586170e+01 1 0 0
280 16 1 -1.1500000000000000e-01 -1.2553104332909163e+01 2.2458927138792264e+00 2.3369711202176131e+01 1 0 0
285 16 2 1.1500000000000000e-01 -1.2224418448108347e+01 1.9799114970878853e+00 2.2376532963125996e+01 1 0 0
288 16 2 1.1500000000000000e-01 -1.1517603026609024e+01 4.2254366004025394e+00 2.3245321164677136e+01 1 0 0
271 16 7 -1.1500000000000000e-01 -1.4028656057575354e+01 2.4971944521822618e+00 2.8166494641023998e+01 1 0 0
272 16 5 -1.1500000000000000e-01 -1.3340321332046550e+01 3.4018154160669343e+00 2.7341005853158958e+01 1 0 0
273 16 3 0.0000000000000000e+00 -1.3108043878870372e+01 3.0227507347392222e+00 2.6029070032091727e+01 1 0 0
274 16 4 -1.1500000000000000e-01 -1.2502194800333021e+01 3.9255974632466133e+00 2.5179561372323096e+01 1 0 0
275 16 1 -1.1500000000000000e-01 -1.4466649134028309e+01 1.2858075675314344e+00 2.7700906223785054e+01 1 0 0
1018 55 2 1.1500000000000000e-01 -9.5759189441995840e+00 8.6538773861954823e+00 2.1140331015205970e+01 1 0 0
277 16 2 1.1500000000000000e-01 -1.3023367598404525e+01 4.3675291808050760e+00 2.7647306582765228e+01 1 0 0
278 16 2 1.1500000000000000e-01 -1.2322158672957311e+01 4.9394240453721672e+00 2.5566099568517533e+01 1 0 0
1013 55 7 -1.1500000000000000e-01 -9.4293948200318276e+00 8.2996623609231435e+00 2.0143591223561248e+01 1 0 0
282 16 3 0.0000000000000000e+00 -1.3488667344775784e+01 1.7527404072844399e+00 2.5579209297691044e+01 1 0 0
1043 56 4 -1.1500000000000000e-01 -1.4069316147835346e+01 6.8922951634737526e+00 2.6061680253288134e+01 1 0 0
736 16 6 0.0000000000000000e+00 -1.3294690424895196e+01 2.3903046901861349e+00 2.5801348445767250e+01 1 0 0
632 36 5 -1.1500000000000000e-01 -9.4192150075970673e+00 6.0487597015994288e+00 2.3819794614987615e+01 1 0 0
636 36 2 1.1500000000000000e-01 -8.6306612329756227e+00 5.2656334510108387e+00 2.1935832829878301e+01 1 0 0
4438 236 2 1.1500000000000000e-01 -1.0267388655666192e+01 1.6713980785862304e+00 2.6018740505944130e+01 1 1 0
253 15 7 -1.1500000000000000e-01 -9.8138023580296618e+00 2.4658504367603427e+00 2.0130702856527432e+01 1 0 0
1021 55 2 1.1500000000000000e-01 -1.0540548057396123e+01 6.4504131701747509e+00 2.0362655041400295e+01 1 0 0
646 36 2 1.1500000000000000e-01 -8.8193091326951638e+00 3.4759529622826082e+00 2.7585126924459257e+01 1 0 0
644 36 1 -1.1500000000000000e-01 -1.0588275319273819e+01 6.3593641115849229e+00 2.7393723374927742e+01 1 0 0
631 36 7 -1.1500000000000000e-01 -8.7562186857234980e+00 5.0621168732449675e+00 2.3021891936845606e+01 1 0 0
635 36 1 -1.1500000000000000e-01 -8.3252800665131161e+00 3.8643176237656376e+00 2.3501923151553225e+01 1 0 0
1040 56 1 -1.1500000000000000e-01 -1.2402742554318442e+01 8.2659557304023874e+00 2.3041985780891846e+01 1 0 0
639 36 2 1.1500000000000000e-01 -7.9581577475202705e+00 3.0962083171305563e+00 2.2780084690718237e+01 1 0 0
283 16 4 -1.1500000000000000e-01 -1.4193615402323237e+01 8.5452715267906176e-01 2.6394555245256718e+01 1 0 0
1045 56 2 1.1500000000000000e-01 -1.2190572958278349e+01 7.8316305697855935e+00 2.2075567303981110e+01 1 0 0
4426 235 1 -1.1500000000000000e-01 -6.2335285092529604e+00 3.2863271028760144e-01 2.0399927074265548e+01 1 1 0
1042 56 3 0.0000000000000000e+00 -1.3479783699606637e+01 7.8103999860394513e+00 2.5212513601807288e+01 1 0 0
633 36 3 0.0000000000000000e+00 -9.6259808268098066e+00 5.7932202373546131e+00 2.5173442242654527e+01 1 0 0
4437 236 2 1.1500000000000000e-01 -9.9271773278177307e+00 1.1595330232969372e+00 2.3758181260600992e+01 1 1 0
640 36 1 -1.1500000000000000e-01 -1.0048196623722179e+01 5.2236567072261959e+00 2.7911005031973016e+01 1 0 0
641 36 4 -1.1500000000000000e-01 -9.2779119950478357e+00 4.3697654049228554e+00 2.7110033407136672e+01 1 0 0
642 36 3 0.0000000000000000e+00 -9.1594516668861470e+00 4.5473844382996109e+00 2.5716824677286031e+01 1 0 0
643 36 4 -1.1500000000000000e-01 -8.4634312015046369e+00 3.6384630568372236e+00 2.4884269171354180e+01 1 0 0
622 35 1 -1.1500000000000000e-01 -5.7355491574935824e+00 4.9734291003489872e+00 2.0595756590273790e+01 1 0 0
1041 56 4 -1.1500000000000000e-01 -1.3074690991001178e+01 7.4008332906324430e+00 2.3922241025578160e+01 1 0 0
647 36 2 1.1500000000000000e-01 -8.1328743445321940e+00 2.7293080033208343e+00 2.5376917039802549e+01 1 0 0
756 36 6 0.0000000000000000e+00 -9.3828740990156554e+00 5.1378801340923719e+00 2.5415516128558924e+01 1 0 0
279 16 2 1.1500000000000000e-01 -1.5125805198391921e+01 6.4845344549735495e-01 2.8286034357562176e+01 1 0 0
4434 236 4 -1.1500000000000000e-01 -9.8218557109002482e+00 7.3182250205794119e-01 2.6381458121742551e+01 1 1 0
638 36 2 1.1500000000000000e-01 -1.0892500672185424e+01 7.5599805506342799e+00 2.5722241952873024e+01 1 0 0
645 36 2 1.1500000000000000e-01 -1.0173115973501769e+01 4.8997717196309303e+00 2.8951600601975326e+01 1 0 0
648 36 2 1.1500000000000000e-01 -1.1128193410840275e+01 7.1442510708357680e+00 2.8018769760177403e+01 1 0 0
1046 56 2 1.1500000000000000e-01 -1.3329400852672926e+01 6.4064038544806152e+00 2.3582735903325350e+01 1 0 0
1039 56 2 1.1500000000000000e-01 -1.4877578202295906e+01 6.6620764672643320e+00 2.8071386372100598e+01 1 0 0
4448 236 2 1.1500000000000000e-01 -1.0370806683785689e+01 1.0986547603581709e+00 2.8474187677041780e+01 1 1 0
628 35 2 1.1500000000000000e-01 -4.7321639421606490e+00 3.0839463642653855e+00 2.0102461055996752e+01 1 0 0
261 15 2 1.1500000000000000e-01 -1.1060889907132850e+01 6.4583371935441602e-01 2.0171060492548495e+01 1 0 0
281 16 4 -1.1500000000000000e-01 -1.3279490233533394e+01 1.3576034619206312e+00 2.4197709824719741e+01 1 0 0
630 35 2 1.1500000000000000e-01 -6.5663655714977152e+00 7.0546126619201273e+00 2.0879870064088870e+01 1 0 0
1031 56 7 -1.1500000000000000e-01 -1.4113367533623391e+01 8.5977490549734181e+00 2.7805771410327448e+01 1 0 0
637 36 2 1.1500000000000000e-01 -9.6864621295806774e+00 6.9807146312601791e+00 2.3431527273846637e+01 1 0 0
627 35 2 1.1500000000000000e-01 -6.0005646618982169e+00 4.5960483236647187e+00 2.1572445696909895e+01 1 0 0
4430 235 2 1.1500000000000000e-01 -6.9499273996757154e+00 9.8012985364207317e-01 2.0887569949930921e+01 1 1 0
257 15 1 -1.1500000000000000e-01 -1.0334852557988158e+01 1.2534823160265705e+00 1.9669731554258497e+01 1 0 0
1035 56 1 -1.1500000000000000e-01 -1.4380870559391793e+01 7.2859541572426236e+00 2.7325977174796158e+01 1 0 0
4444 236 1 -1.1500000000000000e-01 -9.8860679157421512e+00 4.2680432871834278e-01 2.7794285133348421e+01 1 1 0
626 35 1 -1.1500000000000000e-01 -6.0666794135603190e+00 6.2875219437839860e+00 2.0204667839711117e+01 1 0 0
259 15 2 1.1500000000000000e-01 -8.6925029027965408e+00 4.2115477155335368e+00 1.9684873477708834e+01 1 0 0
4432 236 5 -1.1500000000000000e-01 -9.3990747843679330e+00 2.3174248976336490e-01 2.4073346842345728e+01 1 1 0
286 16 2 1.1500000000000000e-01 -1.3688965776664368e+01 4.3933264467993205e-01 2.3870096575303997e+01 1 0 0
231 13 2 1.1500000000000000e-01 -1.6618364579872566e+01 2.0332257031044296e+00 2.9308145803319118e+01 1 0 -1
623 35 4 -1.1500000000000000e-01 -5.0042858362640894e+00 4.0728857610457485e+00 1.9801496470425359e+01 1 0 0
1036 56 2 1.1500000000000000e-01 -1.4545010479300885e+01 8.7478319088293190e+00 2.8760249926415909e+01 1 0 0
2105 113 2 1.1500000000000000e-01 4.9630108178309493e+00 1.5411020887775846e+01 5.6689606921523172e-01 1 0 0
980 53 4 -1.1500000000000000e-01 4.0957723000697999e-01 9.9691119723895163e+00 2.4607993991562167e+00 1 0 0
984 53 2 1.1500000000000000e-01 7.7996325014481083e-01 1.0875954675493393e+01 2.8190122114002576e+00 1 0 0
1361 74 2 1.1500000000000000e-01 -1.2304608464951579e+00 1.3171386352413814e+01 8.5505993018697524e+00 1 0 0
994 53 2 1.1500000000000000e-01 8.5208651307692618e-01 1.0347911228452277e+01 4.1601861751711500e-01 1 0 0
2253 93 6 0.0000000000000000e+00 -5.0975208762680513e-01 1.4455307142237848e+01 2.6859003079756301e+00 1 0 0
1012 54 2 1.1500000000000000e-01 -3.0547457073458908e+00 1.0395872974863181e+01 7.6968520029742216e+00 1 0 0
1741 93 1 -1.1500000000000000e-01 -1.5348269287373770e+00 1.3216790283354538e+01 4.7040034143998772e+00 1 0 0
2106 113 1 -1.1500000000000000e-01 3.1749912472656590e+00 1.7341887733382798e+01 5.7768591471527531e+00 1 0 0
983 53 2 1.1500000000000000e-01 2.6124371544039660e-01 1.0194470822580582e+01 5.1595488775519245e+00 1 0 0
978 53 5 -1.1500000000000000e-01 -1.4931513946318153e-01 9.2974795190489736e+00 4.7288791311150051e+00 1 0 0
1342 73 2 1.1500000000000000e-01 4.4759932358540864e+00 1.1979012916034106e+01 -3.0445669790845536e-01 1 0 0
1745 93 2 1.1500000000000000e-01 -2.2147206935526866e+00 1.2548623736602210e+01 5.1414459095368166e+00 1 0 0
1008 54 1 -1.1500000000000000e-01 -3.6267594301289754e+00 9.6998921218573422e+00 8.2651805383508545e+00 1 0 0
1338 73 5 -1.1500000000000000e-01 3.5789565421154950e+00 1.2569968975457723e+01 1.6643344070450588e+00 1 0 0
1339 73 3 0.0000000000000000e+00 3.2725544187711240e+00 1.2085981599717034e+01 2.9743300710822020e+00 1 0 0
1340 73 4 -1.1500000000000000e-01 2.6326924986161622e+00 1.2966641147391174e+01 3.8977505139067716e+00 1 0 0
1341 73 1 -1.1500000000000000e-01 4.5834449764960370e+00 1.0439853671498904e+01 1.1275909227876688e+00 1 0 0
1337 73 7 -1.1500000000000000e-01 4.2093686722516921e+00 1.1728286824259014e+01 7.2568312166175009e-01 1 0 0
1343 73 2 1.1500000000000000e-01 3.3739157530557540e+00 1.3609691921572027e+01 1.3594814087444336e+00 1 0 0
1348 73 3 0.0000000000000000e+00 3.7127781978996142e+00 1.0793190832834084e+01 3.4218275512836729e+00 1 0 0
1349 73 4 -1.1500000000000000e-01 4.2819971421348608e+00 9.9526128518031136e+00 2.4605274921760780e+00 1 0 0
1513 73 6 0.0000000000000000e+00 3.5118100498933034e+00 1.1456976608130654e+01 3.2081780532579525e+00 1 0 0
1356 74 5 -1.1500000000000000e-01 -7.5638016910129124e-01 1.2255306339491520e+01 8.9283242546025310e+00 1 0 0
1354 73 2 1.1500000000000000e-01 1.9172772250388581e+00 1.3273644970186902e+01 5.9670093960062287e+00 1 0 0
1346 73 1 -1.1500000000000000e-01 2.9007508793704164e+00 1.1299740031530609e+01 5.6636922488606345e+00 1 0 0
1347 73 4 -1.1500000000000000e-01 3.5735515053875226e+00 1.0467663618324750e+01 4.7793955559041770e+00 1 0 0
1350 73 1 -1.1500000000000000e-01 2.4344367872554122e+00 1.2591905771950731e+01 5.2626060517421420e+00 1 0 0
1351 73 2 1.1500000000000000e-01 2.8555735221255647e+00 1.0957026063558599e+01 6.6810661090153021e+00 1 0 0
2112 113 2 1.1500000000000000e-01 4.1599362522204792e+00 1.5502519221497611e+01 5.2832463388676860e+00 1 0 0
2115 114 7 -1.1500000000000000e-01 1.4684056625654396e-01 1.7192822346402853e+01 8.1603255997747652e+00 1 0 0
1355 74 7 -1.1500000000000000e-01 -1.3016216060605235e-01 1.1331522102063261e+01 8.1133042347915829e+00 1 0 0
1359 74 1 -1.1500000000000000e-01 3.6702592479919360e-01 1.0136501275222583e+01 8.6389945345962715e+00 1 0 0
1360 74 2 1.1500000000000000e-01 -4.8693613623568055e-02 1.1504463089834287e+01 7.0497547365840170e+00 1 0 0
1764 94 1 -1.1500000000000000e-01 -3.9955596376894276e+00 1.4006291384151654e+01 7.7545897564283521e+00 1 0 0
1748 93 3 0.0000000000000000e+00 -7.4521671271138645e-01 1.3822659933557482e+01 2.4844402328388773e+00 1 0 0
1747 93 4 -1.1500000000000000e-01 -6.0765952083316632e-01 1.3551316554451523e+01 1.1187088831908241e+00 1 0 0
2097 113 7 -1.1500000000000000e-01 4.0343016396539051e+00 1.7362389466173269e+01 7.6216510734206233e-01 1 0 0
1746 93 1 -1.1500000000000000e-01 1.6871733371862574e-01 1.4422810648774314e+01 3.2113662193515169e-01 1 0 0
1749 93 4 -1.1500000000000000e-01 -1.4443211319117557e+00 1.2957546997024897e+01 3.2989037459303003e+00 1 0 0
2111 113 2 1.1500000000000000e-01 3.1481367986955995e+00 1.7280645683390905e+01 6.8997146700513747e+00 1 0 0
1344 73 2 1.1500000000000000e-01 2.3900659565358682e+00 1.3995275063877022e+01 3.6784267001879449e+00 1 0 0
1737 93 7 -1.1500000000000000e-01 -8.6943374100139570e-01 1.4284430538030101e+01 5.3168290160158005e+00 1 0 0
1740 93 4 -1.1500000000000000e-01 4.2945482323085304e-01 1.5875152778184384e+01 2.2445923650995696e+00 1 0 0
1744 93 2 1.1500000000000000e-01 8.8616245175118591e-01 1.6787857484130416e+01 2.6735074232244704e+00 1 0 0
1768 94 1 -1.1500000000000000e-01 -3.3922276838308045e+00 1.5199454113996049e+01 8.2343859241582944e+00 1 0 0
1750 93 1 -1.1500000000000000e-01 6.7962999054831053e-01 1.5607272383306261e+01 8.9209609885586749e-01 1 0 0