LAMMPS (15 May 2015)
Reading data file ...
  triclinic box = (-0.107635 -0.0404339 -0.357111) to (41.3876 35.9384 29.5551) with tilt (-0.0672341 -17.0362 -0.0417078)
  5 by 4 by 3 MPI processor grid
  reading atoms ...
  4560 atoms
  reading velocities ...
  4560 velocities
  scanning bonds ...
  3 = max bonds/atom
  scanning angles ...
  3 = max angles/atom
  scanning dihedrals ...
  8 = max dihedrals/atom
  scanning impropers ...
  1 = max impropers/atom
  reading bonds ...
  5040 bonds
  reading angles ...
  7200 angles
  reading dihedrals ...
  10560 dihedrals
  reading impropers ...
  2400 impropers
Finding 1-2 1-3 1-4 neighbors ...
 Special bond factors lj:   0          0          0         
 Special bond factors coul: 0          0          0         
  4 = max # of 1-2 neighbors
  8 = max # of 1-3 neighbors
  20 = max # of 1-4 neighbors
  16 = max # of special neighbors
4560 atoms in group all
720 atoms in group C
480 atoms in group S
1920 atoms in group H
720 atoms in group Si
240 atoms in group Na
240 atoms in group Ba
240 atoms in group O
4560 atoms in group naphthalene
1200 atoms in group fixed
960 atoms in group CO
Setting atom values ...
  720 settings made for charge
Setting atom values ...
  720 settings made for charge
Setting atom values ...
  1920 settings made for charge
Setting atom values ...
  480 settings made for charge
Setting atom values ...
  240 settings made for charge
Setting atom values ...
  240 settings made for charge
Setting atom values ...
  240 settings made for charge
Finding 1-2 1-3 1-4 neighbors ...
 Special bond factors lj:   0          0          0.5       
 Special bond factors coul: 0          0          0.5       
  4 = max # of 1-2 neighbors
  8 = max # of 1-3 neighbors
  20 = max # of 1-4 neighbors
  16 = max # of special neighbors
PPPM initialization ...
  G vector (1/distance) = 0.246499
  grid = 16 16 20
  stencil order = 5
  estimated absolute RMS force accuracy = 0.00242397
  estimated relative force accuracy = 7.2997e-06
  using double precision FFTs
  3d grid and FFT values/proc = 1053 112
Neighbor list info ...
  4 neighbor list requests
  update every 1 steps, delay 0 steps, check yes
  master list distance cutoff = 12
Setting up run ...
Memory usage per processor = 13.288 Mbytes
Step Temp Density PotEng E_vdwl E_tail E_coul E_long Press Volume Xy Xz Yz E_mol E_bond E_angle E_dihed 14[1] 14[2] 14[3] msd[4] msd2[4] msd3[4] msd4[4] naphthal Cella Cellb Cellc CellAlpha CellBeta CellGamma 27[2] 27[3] 28[1] 28[2] 28[3] 
       0          298    1.2509986    2087.5869   -1173.1339   -211.49952    2070.8667    -2308.979    790.88859    44657.537 -0.067234084   -17.036218 -0.041707817     3498.833    1521.0094     935.4334    889.67826    28.379601    18.846571    14.337846 2.3535127e-29 2.3910021e-29 2.7538641e-29 3.294809e-29          298     41.49527    35.978931    34.423473    90.016431    119.66323    90.107069    18.846182    14.337739    28.379557    18.849013    14.339638 
    1000    295.34608    1.2509986    2071.7393   -1212.2271   -211.49952    2073.0993   -2309.8065    -140.5621    44657.537 -0.067234084   -17.036218 -0.041707817    3520.6736    1585.3021    941.42872    847.85576    28.379712    18.846266    14.337773   0.14672899   0.14672378   0.13275074    0.1326533    295.34608     41.49527    35.978931    34.423473    90.016431    119.66323    90.107069    18.844392    14.337745    28.373131    18.841611    14.340806 
    2000    297.47188    1.2509986    2140.0239   -1215.6106   -211.49952    2071.5676    -2310.001   -318.00289    44657.537 -0.067234084   -17.036218 -0.041707817    3594.0678    1626.4337    944.58251    872.33816    28.379887    18.846148    14.337861   0.18401545   0.18400978   0.15254129   0.15249219    297.47188     41.49527    35.978931    34.423473    90.016431    119.66323    90.107069    18.845802    14.338882    28.381355    18.846216    14.345806 
    3000    293.82824    1.2509986    2062.2242   -1231.2941   -211.49952    2069.1877   -2310.0765   -2036.3728    44657.537 -0.067234084   -17.036218 -0.041707817    3534.4071    1582.5417    954.14716    847.46456    28.379717    18.846227    14.337734   0.15602866   0.15602751   0.12522267   0.12521288    293.82824     41.49527    35.978931    34.423473    90.016431    119.66323    90.107069    18.847229     14.33758    28.377443    18.851197     14.34038 
    4000    297.37243    1.2509986    2055.1565   -1194.8973   -211.49952    2075.8694   -2309.6718    1780.3522    44657.537 -0.067234084   -17.036218 -0.041707817    3483.8562    1564.4825    932.25655     844.2074    28.379418    18.846093    14.337677   0.16784842   0.16784122   0.13963233   0.13956978    297.37243     41.49527    35.978931    34.423473    90.016431    119.66323    90.107069    18.847041    14.337152    28.374562    18.853953    14.336004 
    5000     305.0729    1.2509986    2016.3106   -1216.6383   -211.49952    2069.1247   -2310.4313   -346.06498    44657.537 -0.067234084   -17.036218 -0.041707817    3474.2555    1584.6542    895.34388    850.68159    28.379701    18.846138    14.337747   0.15745368   0.15745256   0.13609043   0.13595286     305.0729     41.49527    35.978931    34.423473    90.016431    119.66323    90.107069    18.846112    14.338747    28.379354    18.843838    14.350162 
    6000    293.78793    1.2509986     2075.251     -1232.42   -211.49952    2073.8896   -2309.9959   -2590.3283    44657.537 -0.067234084   -17.036218 -0.041707817    3543.7773     1556.901    946.59226    884.70475     28.37969    18.846133    14.337715   0.16697775   0.16697737   0.14025517    0.1402304    293.78793     41.49527    35.978931    34.423473    90.016431    119.66323    90.107069    18.845693    14.338097    28.379682    18.844793    14.342273 
    7000    302.61627    1.2509986    2004.5284    -1191.093   -211.49952    2075.1807    -2310.102    1936.2326    44657.537 -0.067234084   -17.036218 -0.041707817    3430.5427    1493.3304    922.46446    863.13892    28.379805    18.846179    14.337797    0.1735478   0.17354223   0.14389449   0.14384255    302.61627     41.49527    35.978931    34.423473    90.016431    119.66323    90.107069    18.848415     14.33801    28.374969    18.853832    14.336867 
    8000    297.74242    1.2509986    2179.4605   -1204.1344   -211.49952    2064.8741   -2310.1869   -273.56529    44657.537 -0.067234084   -17.036218 -0.041707817    3628.9077    1621.1296    944.54459    907.29602    28.379684    18.846095    14.337816   0.16486731   0.16486433   0.13677701   0.13671202    297.74242     41.49527    35.978931    34.423473    90.016431    119.66323    90.107069    18.846426    14.336917    28.377236    18.845745    14.332643 
    9000    296.29532    1.2509986    2103.2284   -1207.4094   -211.49952     2080.868   -2309.7434     558.8189    44657.537 -0.067234084   -17.036218 -0.041707817    3539.5131    1565.8563    953.19005    869.76907    28.379718    18.846076    14.337783   0.17439351   0.17439136   0.13444828   0.13431905    296.29532     41.49527    35.978931    34.423473    90.016431    119.66323    90.107069    18.846914    14.338137    28.390182    18.852227    14.337187 
   10000    296.61263    1.2509986    2107.5715    -1213.636   -211.49952    2081.2239   -2309.6036    1784.9566    44657.537 -0.067234084   -17.036218 -0.041707817    3549.5873    1567.6334     963.6844      870.639     28.37959    18.846019     14.33772   0.18303356   0.18303057   0.14888246   0.14878463    296.61263     41.49527    35.978931    34.423473    90.016431    119.66323    90.107069    18.847035    14.337219    28.376887    18.847431    14.330247 
   11000    296.99232    1.2509986    2108.7166    -1235.064   -211.49952    2076.1858   -2309.9855   -342.04334    44657.537 -0.067234084   -17.036218 -0.041707817    3577.5803    1591.1396    956.37396    873.91151    28.379825    18.845935    14.337794   0.17096748   0.17096313   0.14211868   0.14206447    296.99232     41.49527    35.978931    34.423473    90.016431    119.66323    90.107069    18.846386    14.336197    28.378351     18.84534    14.333373 
   12000    304.75702    1.2509986    2112.1775   -1215.8414   -211.49952    2077.6193   -2309.8166   -2235.8503    44657.537 -0.067234084   -17.036218 -0.041707817    3560.2161    1624.8261    941.81742    845.73803    28.379624    18.845981    14.337802   0.17670055   0.17669883   0.14774531   0.14772537    304.75702     41.49527    35.978931    34.423473    90.016431    119.66323    90.107069    18.846122    14.337566    28.376579     18.85018    14.336522 
   13000     298.1354    1.2509986    2029.8315    -1228.898   -211.49952    2074.8461   -2309.6968   -415.88479    44657.537 -0.067234084   -17.036218 -0.041707817    3493.5802    1543.0096     939.2559    864.10445    28.379827    18.846108    14.337883   0.17611033   0.17610748   0.13883579   0.13876387     298.1354     41.49527    35.978931    34.423473    90.016431    119.66323    90.107069    18.846315    14.336497    28.378157    18.849037    14.331274 
   14000    301.84465    1.2509986    2116.7159   -1210.5227   -211.49952    2074.7986   -2309.7942    587.36121    44657.537 -0.067234084   -17.036218 -0.041707817    3562.2343    1580.7023    968.17375    862.78505    28.379837    18.846054    14.337925   0.17249448   0.17249253   0.13614355   0.13613847    301.84465     41.49527    35.978931    34.423473    90.016431    119.66323    90.107069    18.847554    14.337899    28.380242    18.847033    14.338802 
   15000    299.91496    1.2509986    2039.6922   -1233.1081   -211.49952    2073.6483   -2309.3731     -2073.93    44657.537 -0.067234084   -17.036218 -0.041707817    3508.5251    1528.5312    962.51365     869.8255    28.379668    18.846137    14.337913   0.17220699   0.17220627   0.14606919    0.1460619    299.91496     41.49527    35.978931    34.423473    90.016431    119.66323    90.107069    18.846576    14.337995    28.377826    18.847487    14.338232 
   16000    298.56479    1.2509986    2140.1098   -1215.7931   -211.49952    2075.9556   -2309.3854    214.25738    44657.537 -0.067234084   -17.036218 -0.041707817    3589.3327    1599.4549     981.0919    856.84616    28.379567    18.846072    14.337703   0.18225544    0.1822548   0.15194812   0.15191476    298.56479     41.49527    35.978931    34.423473    90.016431    119.66323    90.107069    18.846724    14.337663    28.383631    18.849096    14.335544 
   17000    298.67028    1.2509986    2034.4747   -1220.1796   -211.49952    2071.9134   -2309.5045   -1601.9985    44657.537 -0.067234084   -17.036218 -0.041707817    3492.2454    1552.3671    912.50429     875.2002    28.379295    18.846117    14.337718    0.1699529   0.16995144   0.13466692   0.13465594    298.67028     41.49527    35.978931    34.423473    90.016431    119.66323    90.107069    18.847223    14.338278    28.377424    18.851056    14.341138 
   18000    299.79907    1.2509986     2089.869    -1233.225   -211.49952    2071.8751   -2309.7512   -814.70946    44657.537 -0.067234084   -17.036218 -0.041707817    3560.9701    1562.6709    969.52629     877.3697    28.379467    18.845996    14.337632   0.17839257    0.1783903   0.15324354   0.15310739    299.79907     41.49527    35.978931    34.423473    90.016431    119.66323    90.107069    18.844898     14.33762    28.372951    18.841218    14.334003 
   19000    301.79183    1.2509986    2105.2879   -1259.5616   -211.49952    2072.8881   -2310.2817   -2358.1623    44657.537 -0.067234084   -17.036218 -0.041707817     3602.243     1659.493    920.03859    873.83134    28.379698    18.845953    14.337649   0.16073096   0.16072513   0.12994164   0.12967768    301.79183     41.49527    35.978931    34.423473    90.016431    119.66323    90.107069    18.847063     14.33569    28.378715    18.847859    14.323454 
   20000    299.55382    1.2509986    2048.4238   -1249.3209   -211.49952     2071.112   -2310.0135   -2624.8474    44657.537 -0.067234084   -17.036218 -0.041707817    3536.6462    1608.8223    920.66249    857.25549    28.379972      18.8461    14.337759     0.180337   0.18033464   0.13603331   0.13587524    299.55382     41.49527    35.978931    34.423473    90.016431    119.66323    90.107069    18.845706    14.339113    28.375474    18.846098    14.351167 
   21000    305.82569    1.2509986    2082.8024   -1222.9084   -211.49952    2076.6406   -2309.6719    985.04433    44657.537 -0.067234084   -17.036218 -0.041707817     3538.742    1536.0632    982.53123    866.82918    28.379863    18.846016    14.337613   0.18676422   0.18676023   0.15330144   0.15304161    305.82569     41.49527    35.978931    34.423473    90.016431    119.66323    90.107069    18.845843    14.335821    28.382538    18.843087    14.324947 
   22000    300.77552    1.2509986    2109.5025   -1232.3033   -211.49952    2073.8019   -2309.1402   -1550.0824    44657.537 -0.067234084   -17.036218 -0.041707817    3577.1441    1587.9454    945.81564    889.34406    28.379819    18.846145    14.337616   0.18441019   0.18440596   0.15010838   0.15009038    300.77552     41.49527    35.978931    34.423473    90.016431    119.66323    90.107069    18.846721    14.337796    28.379623    18.849992    14.335511 
   23000    298.09252    1.2509986    2127.2558   -1217.7053   -211.49952    2075.6874   -2309.5916   -606.04615    44657.537 -0.067234084   -17.036218 -0.041707817    3578.8654    1567.3917    954.91968    902.39448    28.379757    18.846139    14.337661   0.17920801   0.17919382   0.14751474   0.14723565    298.09252     41.49527    35.978931    34.423473    90.016431    119.66323    90.107069    18.848045     14.33718    28.393349    18.855524    14.332821 
   24000    294.51111    1.2509986    2018.3713    -1236.988   -211.49952    2078.8631   -2309.8008   -2054.3711    44657.537 -0.067234084   -17.036218 -0.041707817     3486.297    1552.0522    931.54494    852.90598    28.379846     18.84619    14.337758   0.18746508    0.1874646   0.15493267   0.15491178    294.51111     41.49527    35.978931    34.423473    90.016431    119.66323    90.107069    18.845816    14.337843    28.375266    18.847498    14.339212 
   25000    298.42838    1.2509986    2046.9817   -1233.9587   -211.49952    2076.1777   -2309.8375    545.06093    44657.537 -0.067234084   -17.036218 -0.041707817    3514.6003    1545.2883    939.92117    876.60217    28.379812    18.846317    14.337861   0.16442509    0.1644175   0.13590643   0.13566124    298.42838     41.49527    35.978931    34.423473    90.016431    119.66323    90.107069    18.847008    14.337363    28.391703    18.850359    14.329849 
   26000    302.33528    1.2509986    2085.6745    -1214.637   -211.49952    2076.4117   -2309.8043    838.71371    44657.537 -0.067234084   -17.036218 -0.041707817    3533.7041    1539.4433    930.51423    911.67584     28.37954    18.845977    14.337698   0.17631565   0.17631105   0.14727567   0.14723025    302.33528     41.49527    35.978931    34.423473    90.016431    119.66323    90.107069    18.845395    14.338023    28.384019    18.846656    14.344105 
   27000    299.38731    1.2509986    2163.3983   -1233.4536   -211.49952    2075.4316   -2309.9083   -1777.7116    44657.537 -0.067234084   -17.036218 -0.041707817    3631.3285    1652.6358    950.33474    878.21092    28.379491    18.845931    14.337594   0.17522735   0.17522594   0.14507414   0.14497719    299.38731     41.49527    35.978931    34.423473    90.016431    119.66323    90.107069    18.845753     14.33868    28.373718    18.847773    14.347469 
   28000    297.39817    1.2509986    2071.0207   -1184.4054   -211.49952    2073.1943   -2309.9302     578.5884    44657.537 -0.067234084   -17.036218 -0.041707817    3492.1621    1548.2166    917.68593    877.14662    28.379627    18.846016    14.337564   0.17816494   0.17816355   0.14581684   0.14579747    297.39817     41.49527    35.978931    34.423473    90.016431    119.66323    90.107069    18.846969     14.33861    28.379426    18.845837    14.342683 
   29000    299.35876    1.2509986     2110.319   -1206.3627   -211.49952    2077.2975      -2309.7    353.57212    44657.537 -0.067234084   -17.036218 -0.041707817    3549.0841    1615.5863    927.92286    853.82464    28.379412    18.846149    14.337516   0.18016685   0.18015497   0.15276504   0.15259793    299.35876     41.49527    35.978931    34.423473    90.016431    119.66323    90.107069     18.84503    14.338899    28.373879    18.845952    14.350841 
   30000     302.3856    1.2509986     2135.236    -1223.339   -211.49952    2075.4562   -2309.8242   -695.09092    44657.537 -0.067234084   -17.036218 -0.041707817     3592.943    1562.0505    953.19057     920.3068    28.379761    18.846192    14.337614   0.17292023   0.17291679    0.1464718   0.14642665     302.3856     41.49527    35.978931    34.423473    90.016431    119.66323    90.107069    18.847167    14.336988     28.37334    18.849991    14.337282 
   31000    303.25428    1.2509986     2132.027   -1212.2254   -211.49952    2071.3955   -2310.0006    180.79804    44657.537 -0.067234084   -17.036218 -0.041707817    3582.8574    1618.9844     957.1192     859.4107    28.379469    18.846204    14.337703   0.17316951   0.17315989   0.14517871   0.14515521    303.25428     41.49527    35.978931    34.423473    90.016431    119.66323    90.107069    18.845576    14.336072    28.380912    18.849558    14.335015 
   32000    300.08816    1.2509986    2059.1985   -1226.5818   -211.49952    2069.5243   -2310.0653    -512.0496    44657.537 -0.067234084   -17.036218 -0.041707817    3526.3214    1554.7308    934.06981    877.65543    28.379622    18.846323    14.337724   0.19853363   0.19853242   0.16306973   0.16299007    300.08816     41.49527    35.978931    34.423473    90.016431    119.66323    90.107069    18.845112    14.337998    28.377106    18.840475    14.338765 
   33000    296.80749    1.2509986    2103.1002   -1191.9984   -211.49952    2069.9072   -2309.8656    981.07077    44657.537 -0.067234084   -17.036218 -0.041707817    3535.0571    1518.3753    954.68056    900.26961    28.379895    18.846127    14.337742   0.16936443   0.16936122   0.13581831   0.13566002    296.80749     41.49527    35.978931    34.423473    90.016431    119.66323    90.107069    18.844706    14.336748    28.377128    18.841776    14.329637 
   34000    298.25124    1.2509986    2072.5275   -1224.3425   -211.49952    2071.4643   -2309.9687   -790.39978    44657.537 -0.067234084   -17.036218 -0.041707817    3535.3744    1593.7452     974.6033     823.0954    28.380003    18.846202    14.337744    0.1759979   0.17598209   0.14577989   0.14564504    298.25124     41.49527    35.978931    34.423473    90.016431    119.66323    90.107069    18.845159    14.338049    28.389398    18.845185    14.334808 
   35000    297.12708    1.2509986    2043.0289   -1217.8691   -211.49952    2073.2554   -2309.9567   -422.91209    44657.537 -0.067234084   -17.036218 -0.041707817    3497.5993    1556.9113    927.12757     862.2317    28.379568    18.846238     14.33764   0.17224165   0.17223981   0.13738054   0.13733294    297.12708     41.49527    35.978931    34.423473    90.016431    119.66323    90.107069    18.845893    14.338404    28.373041    18.850058    14.341653 
   36000    301.84332    1.2509986    2120.0092   -1202.6988   -211.49952    2079.2742   -2309.2691    756.79285    44657.537 -0.067234084   -17.036218 -0.041707817    3552.7029    1555.7705    962.85557    885.24646    28.379818    18.846285    14.337613   0.17940588   0.17940242   0.14953262   0.14948054    301.84332     41.49527    35.978931    34.423473    90.016431    119.66323    90.107069    18.844421    14.337948    28.380437    18.841852    14.339478 
   37000    297.17563    1.2509986    2152.2907   -1216.5524   -211.49952    2072.6836    -2309.926   -495.48303    44657.537 -0.067234084   -17.036218 -0.041707817    3606.0855    1621.6405    956.25948    876.56454    28.379687    18.846277     14.33767   0.16798625   0.16797227   0.13807415   0.13785697    297.17563     41.49527    35.978931    34.423473    90.016431    119.66323    90.107069    18.844641    14.337488    28.370162    18.837671    14.340161 
   38000    297.20504    1.2509986    2078.8729   -1224.9474   -211.49952    2068.1379   -2310.0026   -1169.3557    44657.537 -0.067234084   -17.036218 -0.041707817    3545.6849    1571.7979    957.08771    874.73019     28.37967    18.846212    14.337606   0.16761402   0.16761191   0.13232393   0.13215392    297.20504     41.49527    35.978931    34.423473    90.016431    119.66323    90.107069    18.845637    14.338282    28.372938    18.840686    14.347179 
   39000    301.38197    1.2509986    2123.6846    -1226.854   -211.49952    2070.3629   -2309.9181   -1658.1585    44657.537 -0.067234084   -17.036218 -0.041707817    3590.0938    1607.5973    936.61337    895.73743    28.379899    18.846264    14.337645   0.17005275    0.1700495   0.14319922   0.14317346    301.38197     41.49527    35.978931    34.423473    90.016431    119.66323    90.107069    18.844617    14.336935     28.38175    18.844654    14.338239 
   40000    299.26954    1.2509986    2112.2618   -1223.9409   -211.49952    2072.9187    -2309.439   -1346.9576    44657.537 -0.067234084   -17.036218 -0.041707817    3572.7229    1575.1159    967.59236    878.92811    28.379861    18.846331    14.337587   0.17156267   0.17155735   0.15272819    0.1525244    299.26954     41.49527    35.978931    34.423473    90.016431    119.66323    90.107069    18.846988    14.335896    28.373919    18.849807    14.326547 
   41000    295.30823    1.2509986    2128.9351   -1221.3037   -211.49952    2076.1438   -2309.4421   -2753.2268    44657.537 -0.067234084   -17.036218 -0.041707817    3583.5371    1592.6566    972.65266    866.07985    28.379952    18.846275    14.337697   0.17264798   0.17264128   0.14719352   0.14710457    295.30823     41.49527    35.978931    34.423473    90.016431    119.66323    90.107069    18.847639    14.339313     28.38579    18.848515    14.346699 
   42000     303.0673    1.2509986    2130.6308   -1223.3387   -211.49952    2079.5541   -2308.9818   -1143.2675    44657.537 -0.067234084   -17.036218 -0.041707817    3583.3971    1570.3543    973.54623    886.59961    28.380085    18.846221    14.337712   0.16770768   0.16770714   0.13294496   0.13291273     303.0673     41.49527    35.978931    34.423473    90.016431    119.66323    90.107069    18.846441    14.338398    28.374927    18.845909    14.340712 
   43000    298.21261    1.2509986    2112.2254    -1236.227   -211.49952    2077.7783   -2309.5269    -1379.127    44657.537 -0.067234084   -17.036218 -0.041707817     3580.201     1578.413    952.05172    895.49555    28.379887    18.846269    14.337654    0.1742815   0.17427704   0.13826998   0.13825642    298.21261     41.49527    35.978931    34.423473    90.016431    119.66323    90.107069    18.845188    14.337647    28.380472    18.846594    14.342259 
   44000    298.16358    1.2509986    2112.9753   -1203.6925   -211.49952    2079.9538   -2309.5299    727.11239    44657.537 -0.067234084   -17.036218 -0.041707817    3546.2439    1550.9274    930.72768    907.11292    28.379751    18.846311    14.337637   0.17494518   0.17494245   0.13968257   0.13950182    298.16358     41.49527    35.978931    34.423473    90.016431    119.66323    90.107069    18.846261    14.336153    28.389144    18.846572    14.330534 
   45000    300.09563    1.2509986    2102.3915   -1208.8265   -211.49952     2081.577    -2309.865   -762.19751    44657.537 -0.067234084   -17.036218 -0.041707817    3539.5061     1573.777      935.951    878.45119    28.379658    18.846356    14.337725   0.17457877   0.17457845   0.13391642   0.13388025    300.09563     41.49527    35.978931    34.423473    90.016431    119.66323    90.107069     18.84587      14.3381    28.375971    18.844909    14.337093 
   46000    297.25806    1.2509986    2096.6018   -1206.6549   -211.49952    2075.8646     -2309.88   -1369.4767    44657.537 -0.067234084   -17.036218 -0.041707817    3537.2721    1495.7456    960.39719    922.20226    28.379768    18.846208    14.337636   0.17408239   0.17407998   0.14518484   0.14492434    297.25806     41.49527    35.978931    34.423473    90.016431    119.66323    90.107069    18.846349    14.339092    28.372345    18.841802    14.352149 
   47000    298.79297    1.2509986    2122.2001   -1199.3579   -211.49952    2072.9628   -2309.3825   -957.03947    44657.537 -0.067234084   -17.036218 -0.041707817    3557.9777    1523.6662    954.33387    922.11002    28.379741    18.846073     14.33754   0.17821908   0.17821473   0.15075828   0.15071744    298.79297     41.49527    35.978931    34.423473    90.016431    119.66323    90.107069    18.844682    14.338466    28.382534     18.84506     14.34368 
   48000    295.18753    1.2509986    2104.2839   -1206.1418   -211.49952    2074.1045   -2310.0491   -8.2848236    44657.537 -0.067234084   -17.036218 -0.041707817    3546.3702     1597.579    943.09601     855.5953    28.379643    18.846194    14.337677   0.17157363   0.17157312   0.13721068   0.13716123    295.18753     41.49527    35.978931    34.423473    90.016431    119.66323    90.107069    18.846624     14.33808    28.377348    18.842358    14.340165 
   49000    293.27935    1.2509986    1985.7499   -1214.6342   -211.49952    2070.2601   -2309.9084    12.907874    44657.537 -0.067234084   -17.036218 -0.041707817    3440.0325    1508.0311    916.38631    867.29363     28.37962     18.84617    14.337707   0.17043601   0.17043241   0.14581358   0.14576165    293.27935     41.49527    35.978931    34.423473    90.016431    119.66323    90.107069    18.845429    14.336648    28.373388    18.849161    14.335915 
   50000    294.55354    1.2509986    2053.1135   -1209.5561   -211.49952    2075.0909   -2309.6432    -1126.648    44657.537 -0.067234084   -17.036218 -0.041707817    3497.2219    1545.5003    934.52082    865.02861    28.379866     18.84613    14.337927   0.18285987   0.18285882    0.1521617   0.15213792    294.55354     41.49527    35.978931    34.423473    90.016431    119.66323    90.107069    18.845715    14.337801    28.375075    18.847943    14.338041 
   51000    294.75139    1.2509986    2067.7041   -1216.4921   -211.49952    2077.4932   -2309.3697   -1106.2276    44657.537 -0.067234084   -17.036218 -0.041707817    3516.0728    1569.2954    942.63903    853.49244    28.379727    18.846217    14.337885   0.18570129   0.18570122    0.1572174   0.15717373    294.75139     41.49527    35.978931    34.423473    90.016431    119.66323    90.107069    18.846372    14.337562    28.381128    18.849202    14.333222 
   52000     291.5386    1.2509986    2124.9013   -1221.2738   -211.49952    2076.4089   -2309.5531   -657.55596    44657.537 -0.067234084   -17.036218 -0.041707817    3579.3194    1578.3187    959.68878    885.56695    28.379562    18.846243     14.33768   0.17226631    0.1722542    0.1451219   0.14499077     291.5386     41.49527    35.978931    34.423473    90.016431    119.66323    90.107069    18.845606    14.337587    28.370961    18.841755    14.341774 
   53000    289.61391    1.2509986    1980.6659   -1245.1118   -211.49952    2075.2393   -2310.2329   -1923.2239    44657.537 -0.067234084   -17.036218 -0.041707817    3460.7712    1551.1912     904.4507    851.95172    28.379896    18.846078    14.337748    0.1699199   0.16991773   0.13860324   0.13848147    289.61391     41.49527    35.978931    34.423473    90.016431    119.66323    90.107069    18.846584     14.33785    28.373619    18.841451    14.334221 
   54000    299.49033    1.2509986    2070.6004   -1240.5328   -211.49952    2076.2814   -2309.8306   -358.11014    44657.537 -0.067234084   -17.036218 -0.041707817    3544.6824    1620.2408    940.86055    839.29632    28.380061    18.846074    14.337772   0.16495071   0.16494716   0.13280377   0.13267417    299.49033     41.49527    35.978931    34.423473    90.016431    119.66323    90.107069    18.845176    14.336439    28.374923    18.845228    14.329953 
   55000    292.69605    1.2509986     2046.938   -1212.7986   -211.49952    2072.4627   -2309.8861   -407.60467    44657.537 -0.067234084   -17.036218 -0.041707817      3497.16    1537.5461    942.33739     869.7325    28.380314    18.846196    14.337857   0.17099998   0.17099762   0.14050337   0.14046695    292.69605     41.49527    35.978931    34.423473    90.016431    119.66323    90.107069    18.845292    14.337481    28.374009     18.84702    14.340929 
   56000    299.38758    1.2509986    2128.9759   -1252.2974   -211.49952    2073.0488   -2310.3704   -3862.5397    44657.537 -0.067234084   -17.036218 -0.041707817    3618.5949    1628.2846    983.64451    860.60991    28.380058    18.846222    14.337808   0.15888688   0.15888494   0.13218317   0.13216683    299.38758     41.49527    35.978931    34.423473    90.016431    119.66323    90.107069    18.847477    14.337249    28.378682    18.851334    14.336446 
   57000    291.58483    1.2509986    2072.2852   -1229.4849   -211.49952    2080.2957   -2309.9285   -1198.9543    44657.537 -0.067234084   -17.036218 -0.041707817     3531.403     1554.717    943.93969    879.63067    28.379716    18.846174     14.33763   0.17220565   0.17220398   0.14816145   0.14809569    291.58483     41.49527    35.978931    34.423473    90.016431    119.66323    90.107069    18.845464     14.33722    28.376111    18.843812    14.334457 
   58000    299.81998    1.2509986    2166.3278   -1211.8793   -211.49952    2077.9904   -2309.7265   -1396.5556    44657.537 -0.067234084   -17.036218 -0.041707817    3609.9433    1553.4941    939.03455    952.39304    28.379861    18.846168    14.337756   0.18250023   0.18249713   0.14573226   0.14572302    299.81998     41.49527    35.978931    34.423473    90.016431    119.66323    90.107069    18.846289    14.339024    28.378504    18.846989    14.341647 
   59000    295.76581    1.2509986     2046.445   -1223.6359   -211.49952    2071.3562   -2309.9046    -1822.663    44657.537 -0.067234084   -17.036218 -0.041707817    3508.6292     1561.818    944.22848     852.8256    28.380085    18.846346    14.337856    0.1790062   0.17900505   0.14751826   0.14746632    295.76581     41.49527    35.978931    34.423473    90.016431    119.66323    90.107069    18.845863    14.338662    28.381399    18.845461    14.345633 
   60000     292.7848    1.2509986    2133.2642   -1223.2602   -211.49952    2071.3221   -2310.2556   -1184.3674    44657.537 -0.067234084   -17.036218 -0.041707817     3595.458    1600.6608    960.00395    880.96946     28.38007    18.846392    14.337806   0.17876959   0.17876315   0.14299479    0.1429086     292.7848     41.49527    35.978931    34.423473    90.016431    119.66323    90.107069    18.846209    14.335933    28.375107    18.846082    14.332036 
   61000    296.85669    1.2509986    2064.0132   -1238.8634   -211.49952    2075.6131    -2310.005   -545.87625    44657.537 -0.067234084   -17.036218 -0.041707817    3537.2685    1550.5042     959.3773    878.66213    28.380023    18.846397    14.337836   0.17613479   0.17612084   0.14716486   0.14714273    296.85669     41.49527    35.978931    34.423473    90.016431    119.66323    90.107069    18.847014    14.335876    28.375648    18.849425    14.337054 
   62000    300.42127    1.2509986    2027.1882   -1247.1538   -211.49952    2078.5215   -2309.7429   -270.26147    44657.537 -0.067234084   -17.036218 -0.041707817    3505.5634    1559.5764    933.10842      864.181    28.379824    18.846497    14.337857   0.16814691   0.16814307   0.13411322   0.13402209    300.42127     41.49527    35.978931    34.423473    90.016431    119.66323    90.107069    18.846903    14.338768    28.371435    18.847679    14.344474 
   63000    295.76281    1.2509986    2041.6669   -1212.1637   -211.49952     2072.037   -2309.6927    834.78187    44657.537 -0.067234084   -17.036218 -0.041707817    3491.4863    1547.8508    943.06334    854.56907    28.380016    18.846286      14.3379   0.17345646   0.17345626   0.14841759   0.14838157    295.76281     41.49527    35.978931    34.423473    90.016431    119.66323    90.107069    18.846103    14.337734    28.375984     18.84711    14.335207 
   64000    297.75439    1.2509986    2137.2489   -1241.1017   -211.49952    2077.8663   -2309.9307    288.17374    44657.537 -0.067234084   -17.036218 -0.041707817     3610.415    1582.6689    977.65385    898.24736    28.379841    18.846159    14.337896   0.17426321   0.17426267   0.13825791   0.13811942    297.75439     41.49527    35.978931    34.423473    90.016431    119.66323    90.107069    18.846736    14.337352    28.376274    18.844285    14.329373 
   65000    297.95525    1.2509986     2098.325   -1240.7303   -211.49952    2075.8349   -2309.9576   -1571.5112    44657.537 -0.067234084   -17.036218 -0.041707817     3573.178     1588.938    941.64582    886.75863    28.379757    18.846187    14.337777   0.18547621   0.18547577   0.15107113   0.15098746    297.95525     41.49527    35.978931    34.423473    90.016431    119.66323    90.107069    18.846497    14.337531    28.387104    18.844115    14.337986 
   66000    298.95088    1.2509986    2018.0153   -1205.9171   -211.49952    2075.5698   -2309.1023   -826.10725    44657.537 -0.067234084   -17.036218 -0.041707817    3457.4648    1544.2673    918.94204    850.85435    28.380039    18.846282    14.337853   0.18398016   0.18398007   0.15024921    0.1502096    298.95088     41.49527    35.978931    34.423473    90.016431    119.66323    90.107069    18.845993     14.33779    28.381911    18.843377     14.33812 
   67000    294.72828    1.2509986    2018.0809   -1257.9573   -211.49952    2077.2071   -2309.4083   -2334.1749    44657.537 -0.067234084   -17.036218 -0.041707817    3508.2393    1554.6308     936.0785    867.94613    28.380053    18.846261    14.337814   0.17414969   0.17414835   0.14966148    0.1495558    294.72828     41.49527    35.978931    34.423473    90.016431    119.66323    90.107069    18.845178    14.337599    28.386984     18.84366    14.334962 
   68000    293.59067    1.2509986    1997.4322   -1225.5387   -211.49952    2077.0813   -2309.7636     1439.687    44657.537 -0.067234084   -17.036218 -0.041707817    3455.6532    1546.9487    926.57599    839.63012    28.379853    18.846209    14.337769   0.17587689   0.17586464   0.15058033   0.15048212    293.59067     41.49527    35.978931    34.423473    90.016431    119.66323    90.107069    18.844216    14.338608     28.38636    18.844654    14.345375 
   69000    302.42972    1.2509986    2092.8191   -1221.0464   -211.49952    2075.0726   -2309.6919   -313.51431    44657.537 -0.067234084   -17.036218 -0.041707817    3548.4849    1579.1658    957.86583    863.30663    28.379719    18.846137    14.337599   0.16025467    0.1602504   0.13188417    0.1318143    302.42972     41.49527    35.978931    34.423473    90.016431    119.66323    90.107069    18.844585    14.337485    28.381732    18.842105    14.335464 
   70000     298.6823    1.2509986    1978.7903   -1233.8764   -211.49952     2073.576   -2309.6265   -520.98934    44657.537 -0.067234084   -17.036218 -0.041707817    3448.7171    1515.7669    927.71381    857.54603    28.380062    18.846323    14.337728   0.17182439   0.17182004   0.14742988   0.14721135     298.6823     41.49527    35.978931    34.423473    90.016431    119.66323    90.107069    18.846892     14.33948    28.377585    18.846786    14.354119 
   71000    302.46526    1.2509986    2078.3039   -1215.8681   -211.49952    2075.4838   -2309.9691   -166.53659    44657.537 -0.067234084   -17.036218 -0.041707817    3528.6572    1577.6286    940.41589    860.88392    28.379894    18.846196    14.337785   0.17869194   0.17868696   0.15512229    0.1549665    302.46526     41.49527    35.978931    34.423473    90.016431    119.66323    90.107069     18.84659    14.337786    28.367165    18.847984    14.340727 
   72000    301.19314    1.2509986    1988.4657    -1242.949   -211.49952    2071.0125   -2310.1847   -1922.4448    44657.537 -0.067234084   -17.036218 -0.041707817    3470.5869    1528.7529    926.97406    865.45032    28.380271    18.846032    14.337806   0.17429687   0.17429497    0.1405196   0.14047113    301.19314     41.49527    35.978931    34.423473    90.016431    119.66323    90.107069    18.847148    14.338144    28.380825    18.843401    14.343558 
   73000    296.88753    1.2509986    2182.2939   -1195.0956   -211.49952    2075.7138   -2309.1008     355.6232    44657.537 -0.067234084   -17.036218 -0.041707817    3610.7765    1571.2647    967.85367    915.07169    28.380231    18.846038     14.33774   0.16936773   0.16936047   0.14227035   0.14220884    296.88753     41.49527    35.978931    34.423473    90.016431    119.66323    90.107069    18.844295    14.338368    28.383993    18.843908    14.343609 
   74000    294.63271    1.2509986    2115.4788   -1205.2517   -211.49952    2071.1402    -2309.659   -199.82529    44657.537 -0.067234084   -17.036218 -0.041707817    3559.2493    1610.1004    936.59649    864.47763    28.379991    18.846139    14.337696   0.17734193    0.1773384   0.14277323   0.14274969    294.63271     41.49527    35.978931    34.423473    90.016431    119.66323    90.107069    18.846652    14.337496    28.375212    18.847179    14.338499 
   75000    295.71452    1.2509986    2044.9408   -1206.6005   -211.49952    2073.3787    -2309.995   -4.5967625    44657.537 -0.067234084   -17.036218 -0.041707817    3488.1576     1565.751     924.4803    847.40867    28.379946    18.845976    14.337673    0.1723951    0.1723932   0.14523842   0.14516817    295.71452     41.49527    35.978931    34.423473    90.016431    119.66323    90.107069    18.845286    14.336861    28.385837    18.843705    14.338015 
   76000    296.20874    1.2509986    2071.2023    -1204.557   -211.49952    2079.2848   -2309.7623    1219.4712    44657.537 -0.067234084   -17.036218 -0.041707817    3506.2368    1552.3304    945.63758    858.85521    28.379619    18.845977    14.337599    0.1746037   0.17460245   0.14420567   0.14407739    296.20874     41.49527    35.978931    34.423473    90.016431    119.66323    90.107069     18.84572    14.338313    28.374093    18.839511    14.342492 
   77000    304.11828    1.2509986    2115.6164   -1233.3647   -211.49952    2076.5245   -2309.8412    -2411.848    44657.537 -0.067234084   -17.036218 -0.041707817    3582.2978    1592.5396    941.19406    890.31598     28.37985    18.846181    14.337703   0.17715601   0.17715531   0.15211606   0.15207729    304.11828     41.49527    35.978931    34.423473    90.016431    119.66323    90.107069    18.846801    14.337658    28.385742    18.849557     14.33917 
   78000    295.42177    1.2509986    2188.0873   -1210.0056   -211.49952    2076.5389   -2309.1137    -793.1004    44657.537 -0.067234084   -17.036218 -0.041707817    3630.6677    1590.9975    973.91138        908.6    28.379838    18.846128    14.337626   0.16643201   0.16642811   0.13213873   0.13209063    295.42177     41.49527    35.978931    34.423473    90.016431    119.66323    90.107069    18.846495    14.337132    28.373256    18.848682    14.336758 
   79000    293.37337    1.2509986    2071.4879    -1236.439   -211.49952    2071.9041   -2309.7145   -2907.0746    44657.537 -0.067234084   -17.036218 -0.041707817    3545.7373    1590.4796    945.36939    864.45354    28.379711    18.846172    14.337546   0.17854516    0.1785394   0.14580832   0.14572159    293.37337     41.49527    35.978931    34.423473    90.016431    119.66323    90.107069    18.847726    14.338078     28.38674    18.843128    14.340341 
   80000    300.60044    1.2509986    2148.7328   -1235.5377   -211.49952    2074.9966   -2309.9195   -421.12324    44657.537 -0.067234084   -17.036218 -0.041707817    3619.1934    1590.5506    984.69914    887.62343    28.379592    18.846123    14.337617   0.17699041   0.17698771   0.15393645    0.1538575    300.60044     41.49527    35.978931    34.423473    90.016431    119.66323    90.107069    18.844619    14.337925    28.376791      18.8414    14.335985 
   81000    293.14748    1.2509986    2085.2681   -1219.7824   -211.49952    2076.2226   -2309.6868   -368.90473    44657.537 -0.067234084   -17.036218 -0.041707817    3538.5147    1567.3537    937.91117    883.84348    28.379468    18.846176    14.337759   0.17775635   0.17775601   0.14849379   0.14845835    293.14748     41.49527    35.978931    34.423473    90.016431    119.66323    90.107069    18.845827    14.337588    28.383906    18.844956    14.339385 
   82000    296.04296    1.2509986    2092.7916   -1222.7212   -211.49952    2070.4736   -2310.1951   -773.13576    44657.537 -0.067234084   -17.036218 -0.041707817    3555.2343    1559.0298    954.80099     882.8183    28.379528      18.8463    14.337803   0.17220548   0.17220435   0.14398982   0.14398298    296.04296     41.49527    35.978931    34.423473    90.016431    119.66323    90.107069      18.8452    14.337466    28.377073    18.849157    14.340447 
   83000    302.95055    1.2509986     1993.682   -1237.5299   -211.49952    2075.4083    -2310.005   -1343.7643    44657.537 -0.067234084   -17.036218 -0.041707817    3465.8086    1530.0753    913.01976    870.94841    28.379867    18.846273    14.337733   0.17554845   0.17554763   0.14655548   0.14655043    302.95055     41.49527    35.978931    34.423473    90.016431    119.66323    90.107069    18.846363    14.337558    28.379426    18.847653    14.337853 
   84000    298.11147    1.2509986    2045.6717   -1210.6019   -211.49952    2078.0781   -2309.9439     1288.244    44657.537 -0.067234084   -17.036218 -0.041707817    3488.1394    1545.6121    907.85767    888.20766    28.379896    18.846233    14.337789    0.1691245   0.16912364   0.13090125   0.13085677    298.11147     41.49527    35.978931    34.423473    90.016431    119.66323    90.107069    18.846022    14.337926    28.384336    18.844974     14.33733 
   85000    305.91657    1.2509986    2139.6253   -1214.7939   -211.49952     2073.219   -2309.8551   -494.13646    44657.537 -0.067234084   -17.036218 -0.041707817    3591.0553    1603.2947    903.15917    921.34179     28.37936     18.84617    14.337637    0.1796832   0.17968188   0.15498978   0.15492335    305.91657     41.49527    35.978931    34.423473    90.016431    119.66323    90.107069    18.846194    14.338876    28.378681     18.84105    14.341143 
   86000    291.98184    1.2509986    2003.6233   -1260.5547   -211.49952    2064.8623   -2310.2875    -2712.672    44657.537 -0.067234084   -17.036218 -0.041707817    3509.6031    1537.6584     947.1361     874.4199    28.379425    18.846309    14.337765   0.17401696   0.17401392   0.15321685   0.15315278    291.98184     41.49527    35.978931    34.423473    90.016431    119.66323    90.107069    18.846964    14.337973     28.37317    18.851745    14.343616 
   87000    301.81555    1.2509986    2104.9814   -1232.1108   -211.49952    2076.9575   -2309.6684   -457.35725    44657.537 -0.067234084   -17.036218 -0.041707817     3569.803    1599.7569    934.99275    879.80313    28.379598    18.846259    14.337751   0.17648309   0.17648292   0.14356274   0.14355487    301.81555     41.49527    35.978931    34.423473    90.016431    119.66323    90.107069    18.846532    14.337765    28.381326    18.848275    14.337589 
   88000    295.56277    1.2509986    2134.2574   -1239.7436   -211.49952    2073.2375   -2310.2059   -1969.9078    44657.537 -0.067234084   -17.036218 -0.041707817    3610.9695    1619.9685     968.7035    872.56815    28.379755    18.846165    14.337761   0.18008578   0.18008017   0.14819344   0.14810131    295.56277     41.49527    35.978931    34.423473    90.016431    119.66323    90.107069    18.845867    14.338511    28.388881    18.850176    14.341595 
   89000    293.45108    1.2509986    2044.5567   -1196.7565   -211.49952    2068.2813   -2309.9121    1078.6114    44657.537 -0.067234084   -17.036218 -0.041707817     3482.944    1530.5979    918.80223    878.34729    28.379406    18.846134    14.337598   0.18107475   0.18105617    0.1473756   0.14724307    293.45108     41.49527    35.978931    34.423473    90.016431    119.66323    90.107069    18.845917    14.337552    28.369096    18.845142    14.342489 
   90000    307.36569    1.2509986    2202.2414   -1208.5763   -211.49952    2069.9329   -2309.7108   -1824.8648    44657.537 -0.067234084   -17.036218 -0.041707817    3650.5956    1649.1088    963.30398    883.94639    28.379741    18.846126    14.337654   0.17821266   0.17821001   0.14462718   0.14448539    307.36569     41.49527    35.978931    34.423473    90.016431    119.66323    90.107069    18.844912    14.338624    28.377429    18.839242    14.346102 
   91000    294.56125    1.2509986    1988.9276   -1207.6553   -211.49952    2071.3973   -2310.0672    774.26664    44657.537 -0.067234084   -17.036218 -0.041707817    3435.2528      1522.13     903.6489    860.29028    28.379708     18.84617    14.337623   0.16322455   0.16322372   0.13090513   0.13089419    294.56125     41.49527    35.978931    34.423473    90.016431    119.66323    90.107069    18.846288    14.336979    28.380436    18.847252    14.336981 
   92000    295.82574    1.2509986    2174.5165   -1209.0054   -211.49952    2073.7593   -2309.5411   -162.97315    44657.537 -0.067234084   -17.036218 -0.041707817    3619.3036    1617.2805    932.37236    909.86115    28.379546    18.846075    14.337624   0.17637832   0.17637542   0.14825083   0.14815473    295.82574     41.49527    35.978931    34.423473    90.016431    119.66323    90.107069    18.845833    14.337244     28.38463    18.841844    14.335285 
   93000    299.29233    1.2509986    2078.8515   -1216.6621   -211.49952    2076.5778   -2309.5753    -1467.594    44657.537 -0.067234084   -17.036218 -0.041707817    3528.5111    1587.5063    917.55627    872.77531    28.379774    18.846274    14.337693   0.17076254   0.17075991   0.14916515   0.14901827    299.29233     41.49527    35.978931    34.423473    90.016431    119.66323    90.107069    18.844738    14.338401    28.385601     18.84097    14.346395 
   94000    295.31917    1.2509986    2079.1492   -1233.1828   -211.49952    2075.5382   -2309.8648    -737.2728    44657.537 -0.067234084   -17.036218 -0.041707817    3546.6587    1549.9233    965.12404    879.54246    28.379666    18.846194    14.337648   0.18326951   0.18326899   0.14891154   0.14884446    295.31917     41.49527    35.978931    34.423473    90.016431    119.66323    90.107069    18.846203    14.337624    28.383655    18.843393    14.335315 
   95000    295.88184    1.2509986    2064.3248   -1226.7623   -211.49952    2081.9774   -2309.3697    32.475455    44657.537 -0.067234084   -17.036218 -0.041707817    3518.4794    1583.9021    897.30689    887.27177    28.379345    18.846011    14.337506   0.17169266   0.17169034   0.13848912    0.1383347    295.88184     41.49527    35.978931    34.423473    90.016431    119.66323    90.107069     18.84511    14.336683    28.377736    18.843017    14.328907 
   96000    298.75701    1.2509986    2111.3131   -1220.6466   -211.49952    2072.0633   -2309.6726   -1705.1647    44657.537 -0.067234084   -17.036218 -0.041707817     3569.569    1600.2965    962.49201    861.63305    28.379642    18.846017    14.337693   0.17600107   0.17599594    0.1443734   0.14422963    298.75701     41.49527    35.978931    34.423473    90.016431    119.66323    90.107069    18.844969    14.337639    28.388957    18.842444    14.336138 
   97000    299.02583    1.2509986     2149.112   -1208.5273   -211.49952    2077.1772   -2310.1703    359.12419    44657.537 -0.067234084   -17.036218 -0.041707817    3590.6325    1593.2451    968.30675    876.20324    28.379687    18.846214     14.33771   0.16926102   0.16925947   0.14187917   0.14183396    299.02583     41.49527    35.978931    34.423473    90.016431    119.66323    90.107069    18.846522    14.336704    28.385222      18.8477    14.336262 
   98000    295.71052    1.2509986    1965.5014   -1221.6911   -211.49952    2073.5596   -2310.1254   -336.94907    44657.537 -0.067234084   -17.036218 -0.041707817    3423.7583    1504.2134     924.8695    849.74622    28.379766    18.846253    14.337734   0.18304118   0.18303792    0.1548535   0.15475537    295.71052     41.49527    35.978931    34.423473    90.016431    119.66323    90.107069    18.847217    14.339217    28.374431    18.849144    14.348114 
   99000    301.72369    1.2509986    2120.8492   -1240.2898   -211.49952    2073.5685     -2310.21   -1509.1164    44657.537 -0.067234084   -17.036218 -0.041707817    3597.7805    1622.5241    944.11109    875.28905    28.379885    18.846378    14.337726   0.17342993   0.17342562    0.1424834    0.1424247    301.72369     41.49527    35.978931    34.423473    90.016431    119.66323    90.107069    18.846229    14.336948    28.378206    18.846927    14.332391 
  100000    297.07613    1.2509986    2095.1858   -1219.5021   -211.49952    2072.3519   -2309.6571   -96.633526    44657.537 -0.067234084   -17.036218 -0.041707817    3551.9931    1562.7331    960.92226    879.96162    28.380235    18.846358    14.337898   0.16847856   0.16847539   0.13818941   0.13805131    297.07613     41.49527    35.978931    34.423473    90.016431    119.66323    90.107069    18.846113     14.33694    28.384852    18.848274    14.329174 
  101000    301.21834    1.2509986    2159.2825   -1253.0425   -211.49952    2070.7025   -2309.7599   -3343.3999    44657.537 -0.067234084   -17.036218 -0.041707817    3651.3823    1622.6262      963.973    912.12614    28.380034    18.846386    14.337881   0.17309742   0.17309398   0.14285313   0.14279718    301.21834     41.49527    35.978931    34.423473    90.016431    119.66323    90.107069    18.845251    14.337554     28.37786    18.843662    14.334695 
  102000    298.84877    1.2509986    2097.8942   -1195.6405   -211.49952    2072.8924   -2309.1334   -62.887589    44657.537 -0.067234084   -17.036218 -0.041707817    3529.7756    1531.7037    950.49467    888.80438    28.379694    18.846186    14.337775    0.1809753   0.18097368   0.14568435   0.14563855    298.84877     41.49527    35.978931    34.423473    90.016431    119.66323    90.107069     18.84713    14.338562    28.384877    18.846473    14.336313 
  103000    298.67302    1.2509986    2065.4749   -1188.0312   -211.49952    2069.5228   -2310.0077    273.89549    44657.537 -0.067234084   -17.036218 -0.041707817     3493.991    1534.0365    922.11886    884.38982    28.379739    18.846183    14.337744   0.17566611   0.17566399   0.15103464   0.15085513    298.67302     41.49527    35.978931    34.423473    90.016431    119.66323    90.107069     18.84675    14.337138    28.383847    18.843898    14.328022 
  104000    292.11507    1.2509986     2119.937   -1227.0268   -211.49952    2069.9368   -2310.3327   -1558.6182    44657.537 -0.067234084   -17.036218 -0.041707817    3587.3598    1637.0307    994.04336     818.2834    28.379474    18.846206    14.337676   0.16846706   0.16846564   0.14333141    0.1432702    292.11507     41.49527    35.978931    34.423473    90.016431    119.66323    90.107069    18.845564    14.337459    28.382973    18.843119    14.335792 
  105000    308.88876    1.2509986    2011.2998   -1213.3134   -211.49952    2075.4754   -2309.8842      67.6182    44657.537 -0.067234084   -17.036218 -0.041707817     3459.022    1524.2622    925.62748     855.3786    28.379617     18.84619    14.337704   0.16975022   0.16974499   0.14208237   0.14199815    308.88876     41.49527    35.978931    34.423473    90.016431    119.66323    90.107069    18.847921    14.339121    28.377158    18.853429    14.347317 
  106000    306.38249    1.2509986    2076.6125    -1219.603   -211.49952    2074.1393   -2309.6276    212.06078    44657.537 -0.067234084   -17.036218 -0.041707817    3531.7039    1569.6936    923.36604    888.32844    28.379748    18.846098    14.337696   0.18128068    0.1812782   0.14977658   0.14973551    306.38249     41.49527    35.978931    34.423473    90.016431    119.66323    90.107069     18.84712     14.33843    28.381751     18.85362    14.343514 
  107000    292.23014    1.2509986    2057.9159    -1192.151   -211.49952    2073.5497   -2309.8713    246.83677    44657.537 -0.067234084   -17.036218 -0.041707817    3486.3885    1531.4424    930.09191    876.52242    28.379781    18.846189    14.337712   0.17679963   0.17679947   0.15265284   0.15261753    292.23014     41.49527    35.978931    34.423473    90.016431    119.66323    90.107069    18.845979    14.337972    28.378829    18.844067    14.342849 
  108000    295.91089    1.2509986    2021.1437   -1230.0366   -211.49952    2071.3355    -2309.828   -1293.4957    44657.537 -0.067234084   -17.036218 -0.041707817    3489.6728     1565.018    895.28344    878.90884    28.379765    18.846203    14.337682   0.16985932   0.16985666   0.15214179   0.15202076    295.91089     41.49527    35.978931    34.423473    90.016431    119.66323    90.107069    18.845277     14.33722    28.379765    18.842226    14.330982 
  109000     295.9891    1.2509986    2004.7242    -1214.476   -211.49952    2070.7915   -2309.6815   -580.54972    44657.537 -0.067234084   -17.036218 -0.041707817    3458.0901    1512.5936     916.0703    880.47309    28.379687    18.846085     14.33774   0.17343259   0.17342688    0.1431146   0.14305047     295.9891     41.49527    35.978931    34.423473    90.016431    119.66323    90.107069    18.845167    14.337396    28.386496    18.845054    14.339086 
  110000    295.73768    1.2509986    2116.9296   -1223.3505   -211.49952    2070.8757     -2310.14    -1647.162    44657.537 -0.067234084   -17.036218 -0.041707817    3579.5443    1572.9824    941.56884    907.81427    28.379718    18.846072     14.33768   0.17823913   0.17823392   0.14133119   0.14114181    295.73768     41.49527    35.978931    34.423473    90.016431    119.66323    90.107069    18.846643    14.336947    28.389334    18.851065    14.330174 
  111000    294.27867    1.2509986    2076.0054   -1238.1023   -211.49952    2068.9221   -2310.0639   -2585.6732    44657.537 -0.067234084   -17.036218 -0.041707817    3555.2495    1582.4868     949.8148    869.09253    28.379601    18.846077    14.337786   0.16540687   0.16540457   0.14015391   0.14010487    294.27867     41.49527    35.978931    34.423473    90.016431    119.66323    90.107069    18.846688    14.339117    28.383694      18.8464    14.344648 
  112000     300.1366    1.2509986    2102.8084   -1207.7361   -211.49952    2079.5086   -2308.8529   -461.00282    44657.537 -0.067234084   -17.036218 -0.041707817    3539.8888    1570.5752     946.7848    873.07195    28.379575    18.846037    14.337825   0.17284476   0.17284157   0.13959607   0.13950069     300.1366     41.49527    35.978931    34.423473    90.016431    119.66323    90.107069    18.845251    14.338648    28.385975    18.841667     14.34012 
  113000    298.26021    1.2509986    2078.1567   -1210.4005   -211.49952    2077.9012   -2309.1728    1373.0528    44657.537 -0.067234084   -17.036218 -0.041707817    3519.8289    1536.8836    945.55651    879.92046    28.379839    18.846198    14.337832   0.17288603    0.1728846   0.14473051   0.14463262    298.26021     41.49527    35.978931    34.423473    90.016431    119.66323    90.107069    18.847057    14.338265    28.387309    18.853651    14.335603 
  114000    293.75018    1.2509986    2044.4887   -1213.0498   -211.49952    2071.6323   -2309.5818    740.80899    44657.537 -0.067234084   -17.036218 -0.041707817     3495.488     1515.726    941.46832    888.33042    28.379632    18.846165    14.337844   0.17334749   0.17334679   0.14513587   0.14503611    293.75018     41.49527    35.978931    34.423473    90.016431    119.66323    90.107069    18.846841    14.337232    28.387863    18.846593    14.334647 
  115000    304.63634    1.2509986    2087.5563   -1216.1811   -211.49952    2072.7368   -2309.6751    501.08724    44657.537 -0.067234084   -17.036218 -0.041707817    3540.6757    1555.6172    969.98318    863.30482    28.379656    18.846098    14.337988   0.16145521   0.16145301   0.13702374   0.13697438    304.63634     41.49527    35.978931    34.423473    90.016431    119.66323    90.107069    18.845435    14.338765     28.38379    18.843626    14.338083 
  116000    292.82797    1.2509986    2085.4911   -1253.0793   -211.49952    2071.4467   -2309.4723   -2076.4702    44657.537 -0.067234084   -17.036218 -0.041707817    3576.5959    1576.1876    946.11158     896.3834    28.379947    18.846226    14.337836   0.18089237   0.18088865   0.14759038   0.14748276    292.82797     41.49527    35.978931    34.423473    90.016431    119.66323    90.107069    18.846242    14.339063    28.377847    18.851061    14.349663 
  117000    301.46176    1.2509986    2082.7051   -1214.1823   -211.49952     2074.162   -2310.1358    1686.7974    44657.537 -0.067234084   -17.036218 -0.041707817    3532.8612    1553.1667    939.79277    885.44522    28.380092    18.846139    14.337743   0.17147104   0.17146905   0.14578491   0.14576284    301.46176     41.49527    35.978931    34.423473    90.016431    119.66323    90.107069    18.846741    14.338371    28.378429    18.845984    14.336228 
  118000    300.94518    1.2509986    2113.6985   -1234.3682   -211.49952    2079.8834   -2309.4524   -534.38721    44657.537 -0.067234084   -17.036218 -0.041707817    3577.6356    1575.7871    974.54467    872.39458    28.380275    18.846315    14.337799   0.17692523    0.1769248   0.13978673   0.13962287    300.94518     41.49527    35.978931    34.423473    90.016431    119.66323    90.107069    18.845539    14.337661    28.388332    18.840049     14.33709 
  119000    294.67749    1.2509986    2109.2922   -1241.5999   -211.49952    2083.2725   -2309.0197   -1975.5986    44657.537 -0.067234084   -17.036218 -0.041707817    3576.6393     1583.418     955.4534    887.85899    28.380087    18.846288    14.337721   0.18407123    0.1840663   0.15566951   0.15552794    294.67749     41.49527    35.978931    34.423473    90.016431    119.66323    90.107069    18.846727    14.336856    28.383868    18.845083    14.329268 
  120000    298.38377    1.2509986    2011.6665   -1256.7987   -211.49952    2073.9237   -2309.8908   -1496.7883    44657.537 -0.067234084   -17.036218 -0.041707817    3504.4323    1586.4372    890.50966    877.73759    28.380021    18.846313    14.337751   0.17342736    0.1734247   0.14283123   0.14273733    298.38377     41.49527    35.978931    34.423473    90.016431    119.66323    90.107069    18.845313    14.337612    28.376363     18.84081    14.335587 
  121000     298.9915    1.2509986    2106.6779    -1242.734   -211.49952    2066.1147   -2309.6749   -2134.9356    44657.537 -0.067234084   -17.036218 -0.041707817    3592.9721    1610.6304    953.92939    878.75143    28.379801    18.846254    14.337773   0.16250803    0.1625057   0.13137782   0.13129067     298.9915     41.49527    35.978931    34.423473    90.016431    119.66323    90.107069    18.846248    14.337047    28.375097    18.847961    14.331505 
  122000    302.70292    1.2509986    2033.1756   -1229.3712   -211.49952    2073.0472   -2309.7307   -1401.9667    44657.537 -0.067234084   -17.036218 -0.041707817    3499.2303    1537.7615    953.48377    858.47433    28.379664    18.846179    14.337756   0.17116755   0.17116317   0.14159161   0.14157521    302.70292     41.49527    35.978931    34.423473    90.016431    119.66323    90.107069    18.848195     14.33828    28.379564    18.851829    14.336729 
  123000    287.74284    1.2509986    2107.4523   -1222.1263   -211.49952     2075.008   -2309.8755    -1073.756    44657.537 -0.067234084   -17.036218 -0.041707817    3564.4461     1571.607    953.72459    889.28943    28.379632    18.846032    14.337742   0.16874504   0.16874473   0.13959876   0.13950087    287.74284     41.49527    35.978931    34.423473    90.016431    119.66323    90.107069    18.845839    14.338151    28.376788    18.839586    14.338477 
  124000    298.04514    1.2509986    2073.0852   -1246.5956   -211.49952    2077.2474   -2309.4417    -1649.685    44657.537 -0.067234084   -17.036218 -0.041707817    3551.8751    1567.5616    951.54596    876.83775    28.379653    18.846049    14.337769   0.17045508   0.17043934     0.140702   0.14056732    298.04514     41.49527    35.978931    34.423473    90.016431    119.66323    90.107069      18.8481     14.33896    28.389758    18.851369    14.344643 
  125000    296.25836    1.2509986    2118.1071   -1250.0963   -211.49952     2077.753   -2309.9458   -1995.1031    44657.537 -0.067234084   -17.036218 -0.041707817    3600.3962    1587.0043    937.75643    920.57151    28.379692    18.846011    14.337736   0.16249547   0.16249375   0.14330465   0.14321991    296.25836     41.49527    35.978931    34.423473    90.016431    119.66323    90.107069     18.84713    14.337563    28.377103     18.84974    14.330795 
  126000    300.13058    1.2509986    2205.2383   -1240.0426   -211.49952    2077.8773    -2309.927   -522.84397    44657.537 -0.067234084   -17.036218 -0.041707817    3677.3306     1650.319    967.40247     906.4136    28.379778    18.845949     14.33769    0.1615539   0.16154538   0.13945397   0.13922439    300.13058     41.49527    35.978931    34.423473    90.016431    119.66323    90.107069    18.845434    14.337784    28.389633    18.838482    14.335498 
  127000    299.07286    1.2509986    2034.2992   -1220.0283   -211.49952    2076.0027   -2309.8844   -585.77855    44657.537 -0.067234084   -17.036218 -0.041707817    3488.2093    1562.8267    938.98687      839.142    28.380022    18.846078     14.33787   0.16463395   0.16463172   0.12961706   0.12960314    299.07286     41.49527    35.978931    34.423473    90.016431    119.66323    90.107069    18.847565     14.33815    28.380743    18.847723    14.336345 
  128000    299.24412    1.2509986    2072.4752   -1236.8088   -211.49952    2080.4093   -2309.4028   -704.84314    44657.537 -0.067234084   -17.036218 -0.041707817    3538.2775    1544.8199    948.75697    890.93904    28.379762    18.845939    14.337748   0.17494277   0.17494023   0.13915263   0.13899172    299.24412     41.49527    35.978931    34.423473    90.016431    119.66323    90.107069    18.845633    14.336611    28.382309    18.844186    14.328235 
  129000    298.22795    1.2509986     2092.983   -1231.5081   -211.49952    2076.1709    -2309.725   -1075.8786    44657.537 -0.067234084   -17.036218 -0.041707817    3558.0452    1586.6615    948.57418    867.31454    28.380086     18.84606    14.337838   0.18290568   0.18290149   0.15738758   0.15733089    298.22795     41.49527    35.978931    34.423473    90.016431    119.66323    90.107069    18.847748    14.337747    28.385964    18.846666    14.336455 
  130000    300.14723    1.2509986    2100.1201   -1213.2948   -211.49952    2069.6046   -2309.8595   -483.27456    44657.537 -0.067234084   -17.036218 -0.041707817    3553.6697    1519.1058    1011.4488    872.50322    28.379823    18.845896    14.337704   0.17099797   0.17099674   0.14037073    0.1403579    300.14723     41.49527    35.978931    34.423473    90.016431    119.66323    90.107069    18.846704    14.337882     28.37664    18.848126    14.337759 
  131000    304.07368    1.2509986    2058.1796   -1225.2668   -211.49952    2075.1612   -2309.9765   -920.45222    44657.537 -0.067234084   -17.036218 -0.041707817    3518.2616    1539.4323    952.53757    871.07049    28.379667    18.845931    14.337666   0.17448069   0.17448023    0.1419199   0.14186978    304.07368     41.49527    35.978931    34.423473    90.016431    119.66323    90.107069    18.846533    14.338261    28.374325     18.84684    14.343884 
  132000     298.9317    1.2509986    2081.2299   -1206.7333   -211.49952    2073.3188   -2309.4672   -2384.0221    44657.537 -0.067234084   -17.036218 -0.041707817    3524.1115    1583.3421    908.62428    878.40321     28.37963     18.84602    14.337733   0.18285055    0.1828446   0.16160487   0.16157567     298.9317     41.49527    35.978931    34.423473    90.016431    119.66323    90.107069    18.845287    14.338107    28.383865    18.847298    14.336863 
  133000    311.32539    1.2509986     2054.079   -1223.7005   -211.49952    2076.1201   -2309.6703   -1197.8718    44657.537 -0.067234084   -17.036218 -0.041707817    3511.3297    1565.3974    930.33399     864.5025     28.37969    18.846132    14.337593    0.1666809   0.16668006   0.13543092   0.13535887    311.32539     41.49527    35.978931    34.423473    90.016431    119.66323    90.107069    18.846851    14.337117    28.384119    18.844497    14.334085 
  134000    301.78357    1.2509986    2109.5972   -1208.8087   -211.49952    2071.0009    -2310.192    992.06555    44657.537 -0.067234084   -17.036218 -0.041707817    3557.5969    1569.7618    934.45716    902.15907    28.379884    18.846076    14.337644   0.17344719   0.17344579   0.14729384   0.14720396    301.78357     41.49527    35.978931    34.423473    90.016431    119.66323    90.107069    18.845492     14.33705    28.380824    18.844865    14.331208 
  135000     303.0434    1.2509986    2086.0336   -1206.0295   -211.49952    2079.1655   -2310.2122    386.83812    44657.537 -0.067234084   -17.036218 -0.041707817    3523.1098     1553.942    944.70694     870.7057     28.38002    18.846193    14.337772    0.1688784    0.1688754    0.1438344   0.14355478     303.0434     41.49527    35.978931    34.423473    90.016431    119.66323    90.107069    18.845556    14.336536    28.385474    18.845813    14.324329 
  136000    303.23473    1.2509986    2065.4611   -1257.2268   -211.49952    2083.1482   -2309.1978   -17.364317    44657.537 -0.067234084   -17.036218 -0.041707817    3548.7375    1569.2552    952.34829    879.67671    28.379841    18.846166    14.337803   0.18022376   0.18021938   0.16365409   0.16362388    303.23473     41.49527    35.978931    34.423473    90.016431    119.66323    90.107069    18.847323    14.338405     28.37936    18.847777     14.34499 
  137000    299.51569    1.2509986     2049.276   -1220.5452   -211.49952    2075.9992   -2309.7155   -649.30043    44657.537 -0.067234084   -17.036218 -0.041707817    3503.5374    1537.2873    937.55341    877.72626    28.379793    18.845867    14.337717   0.17895894   0.17895436   0.15585189   0.15575358    299.51569     41.49527    35.978931    34.423473    90.016431    119.66323    90.107069    18.844739    14.337844    28.382251     18.83986    14.336941 
  138000    298.54621    1.2509986    2081.6622   -1224.4113   -211.49952    2076.9211   -2309.5829   -19.216132    44657.537 -0.067234084   -17.036218 -0.041707817    3538.7353    1585.8422    926.26767    874.03086    28.379445    18.846001    14.337632   0.18147996   0.18147852   0.15596407   0.15593224    298.54621     41.49527    35.978931    34.423473    90.016431    119.66323    90.107069    18.847089    14.337526    28.376247    18.853306    14.341202 
  139000    298.68721    1.2509986    2059.0294   -1236.0449   -211.49952    2074.2961   -2309.8913   -849.30538    44657.537 -0.067234084   -17.036218 -0.041707817    3530.6695    1560.2751    941.59147    877.61362    28.379744    18.846021    14.337701   0.17293008   0.17292566   0.14006095     0.139969    298.68721     41.49527    35.978931    34.423473    90.016431    119.66323    90.107069    18.844522    14.337988     28.37096    18.845617    14.342189 
  140000    308.37065    1.2509986    2009.8501   -1200.6621   -211.49952    2075.9713   -2309.3624    1047.9773    44657.537 -0.067234084   -17.036218 -0.041707817    3443.9033    1534.0061    910.49297    851.65916      28.3796    18.846054    14.337626   0.16769079   0.16768778   0.14645389    0.1464406    308.37065     41.49527    35.978931    34.423473    90.016431    119.66323    90.107069    18.847768    14.337316    28.376902    18.850977    14.338095 
  141000    295.17006    1.2509986    2051.8764   -1213.9998   -211.49952    2069.4371   -2310.4506    185.76633    44657.537 -0.067234084   -17.036218 -0.041707817    3506.8896    1558.4251    935.96975    862.53372    28.379725      18.8461     14.33781   0.16311141    0.1631103   0.13215882   0.13211083    295.17006     41.49527    35.978931    34.423473    90.016431    119.66323    90.107069    18.846307    14.338447    28.382642    18.844508    14.343901 
  142000    298.31241    1.2509986    2138.8339   -1224.8707   -211.49952    2077.5525   -2309.9551    186.97893    44657.537 -0.067234084   -17.036218 -0.041707817    3596.1073    1558.9314    951.56323    925.23087    28.379776    18.846202    14.337673   0.16750689   0.16750504   0.14156922   0.14151972    298.31241     41.49527    35.978931    34.423473    90.016431    119.66323    90.107069    18.845976    14.338987    28.383823    18.846465    14.344618 
  143000    298.61123    1.2509986    2101.8213   -1218.4607   -211.49952    2074.2226   -2309.5788   -433.90334    44657.537 -0.067234084   -17.036218 -0.041707817    3555.6381    1590.7388    925.07037    892.17237    28.379718    18.846095    14.337657   0.18168986   0.18168241   0.15777483   0.15758416    298.61123     41.49527    35.978931    34.423473    90.016431    119.66323    90.107069     18.84646    14.335452     28.38102    18.849039    14.325908 
  144000    293.20856    1.2509986     2139.831   -1209.9357   -211.49952    2075.8836    -2309.313     356.3596    44657.537 -0.067234084   -17.036218 -0.041707817    3583.1961     1557.339    963.92625    900.84473     28.37942    18.845956    14.337682   0.18889929    0.1888963   0.15115582   0.15104941    293.20856     41.49527    35.978931    34.423473    90.016431    119.66323    90.107069    18.847176    14.338635    28.377206    18.849022    14.349682 
  145000    307.88393    1.2509986    2067.0624   -1212.4072   -211.49952     2071.766   -2309.9564   -927.36641    44657.537 -0.067234084   -17.036218 -0.041707817    3517.6599    1594.7123    905.69292    865.41328    28.379859    18.845849    14.337776   0.16677561    0.1667727   0.14677566    0.1466417    307.88393     41.49527    35.978931    34.423473    90.016431    119.66323    90.107069    18.847498    14.336794    28.377456     18.84882    14.328258 
  146000    301.55917    1.2509986    2034.2779   -1238.9651   -211.49952    2078.1171   -2309.5098   -762.46301    44657.537 -0.067234084   -17.036218 -0.041707817    3504.6357    1535.4569     933.0873    884.91827    28.379385    18.845857    14.337655   0.16807759   0.16807613   0.13607189    0.1359954    301.55917     41.49527    35.978931    34.423473    90.016431    119.66323    90.107069    18.845142    14.337733    28.381724    18.840541    14.339549 
  147000     298.5421    1.2509986    2022.9836   -1231.9351   -211.49952    2070.0793   -2309.7881   -743.23914    44657.537 -0.067234084   -17.036218 -0.041707817    3494.6275     1534.143    910.86785    896.35989    28.379439    18.846115    14.337739   0.16047653   0.16047297   0.13747904   0.13740275     298.5421     41.49527    35.978931    34.423473    90.016431    119.66323    90.107069    18.847086    14.337271    28.376189    18.842951     14.34495 
  148000    296.00979    1.2509986    2012.5707   -1205.6095   -211.49952    2077.5337     -2309.54   -387.06667    44657.537 -0.067234084   -17.036218 -0.041707817    3450.1865    1489.6983    926.60129    878.82105    28.379639    18.846072    14.337837   0.18510511   0.18510273   0.14850603   0.14839195    296.00979     41.49527    35.978931    34.423473    90.016431    119.66323    90.107069    18.845881    14.338876    28.373905    18.842646    14.346088 
  149000    297.25804    1.2509986    2142.4491   -1200.9461   -211.49952    2069.9787   -2309.7571    259.93324    44657.537 -0.067234084   -17.036218 -0.041707817    3583.1736    1595.1829    975.48637    863.87289    28.379724    18.846281     14.33773   0.18470458   0.18469779   0.15126048   0.15116726    297.25804     41.49527    35.978931    34.423473    90.016431    119.66323    90.107069    18.847031    14.338494      28.3735    18.846746    14.346807 
  150000    298.06122    1.2509986    2146.6829   -1233.4019   -211.49952    2074.4532   -2309.6561   -1759.3759    44657.537 -0.067234084   -17.036218 -0.041707817    3615.2877    1600.2339    953.20047    899.28341    28.379782    18.846214    14.337885   0.17063738   0.17063591   0.14607246   0.14604991    298.06122     41.49527    35.978931    34.423473    90.016431    119.66323    90.107069    18.846649    14.337724    28.375852    18.846467     14.34117 
  151000    295.27143    1.2509986    2049.8349    -1200.981   -211.49952    2076.2544   -2309.3942    685.06944    44657.537 -0.067234084   -17.036218 -0.041707817    3483.9557    1529.3709    928.74805    875.47774    28.380166    18.845984    14.337936    0.1805296   0.18052765   0.14964285   0.14959863    295.27143     41.49527    35.978931    34.423473    90.016431    119.66323    90.107069    18.847334    14.338527    28.373562    18.848056    14.336924 
  152000    293.45197    1.2509986    2096.0092    -1235.612   -211.49952    2073.2083   -2309.9694   -1086.8939    44657.537 -0.067234084   -17.036218 -0.041707817    3568.3824    1597.0403    932.88577    889.22785    28.379812     18.84597    14.337722   0.17803412   0.17803235   0.14314626   0.14301931    293.45197     41.49527    35.978931    34.423473    90.016431    119.66323    90.107069    18.846587    14.337338    28.372443    18.846102      14.3314 
  153000    296.82235    1.2509986    1993.9143   -1233.2836   -211.49952    2075.9675   -2309.3042   -786.76684    44657.537 -0.067234084   -17.036218 -0.041707817    3460.5346    1558.1843    894.95675    857.40257    28.379795    18.845945    14.337738   0.17352769   0.17351187   0.14146796   0.14134325    296.82235     41.49527    35.978931    34.423473    90.016431    119.66323    90.107069    18.844746    14.336903    28.371834    18.841604    14.336447 
  154000    296.35549    1.2509986    2134.7523   -1196.1634   -211.49952    2072.1743   -2310.0614   -1514.0543    44657.537 -0.067234084   -17.036218 -0.041707817    3568.8027    1595.7881    961.13446    862.31228    28.380113    18.846075    14.337711   0.16577966   0.16577731    0.1405405   0.14039302    296.35549     41.49527    35.978931    34.423473    90.016431    119.66323    90.107069    18.846164    14.339087    28.374267    18.842388    14.348333 
  155000    297.14833    1.2509986    2111.7877   -1233.4784   -211.49952    2076.6868   -2309.5262    55.317781    44657.537 -0.067234084   -17.036218 -0.041707817    3578.1055    1604.4305    936.90651    879.88575    28.379936    18.845962    14.337728   0.16134466   0.16134348   0.12644656   0.12641889    297.14833     41.49527    35.978931    34.423473    90.016431    119.66323    90.107069    18.845551     14.33741     28.38043    18.843999    14.340967 
  156000    298.37503    1.2509986    2037.4228   -1223.8203   -211.49952    2074.4319   -2310.2748   -1600.2066    44657.537 -0.067234084   -17.036218 -0.041707817     3497.086    1551.0432    922.83553     867.6849    28.379894    18.845935    14.337734   0.17573883   0.17573246   0.15638849   0.15625525    298.37503     41.49527    35.978931    34.423473    90.016431    119.66323    90.107069    18.845706    14.336264     28.37505    18.844834    14.329868 
  157000    303.56736    1.2509986    2066.3938   -1215.0536   -211.49952    2072.6944   -2309.4055    -1101.294    44657.537 -0.067234084   -17.036218 -0.041707817    3518.1585    1551.1547    956.17093    860.28782    28.379909     18.84613    14.337819   0.18062531   0.18061033   0.15185043   0.15173657    303.56736     41.49527    35.978931    34.423473    90.016431    119.66323    90.107069    18.844969    14.339894    28.387643    18.845088    14.345389 
  158000     299.8488    1.2509986    2078.9273   -1245.6086   -211.49952    2070.8002   -2310.1952   -2986.3203    44657.537 -0.067234084   -17.036218 -0.041707817    3563.9309    1597.9921     958.1516    854.52753    28.379975      18.8463    14.337852   0.16670448   0.16670014   0.13799065   0.13794638     299.8488     41.49527    35.978931    34.423473    90.016431    119.66323    90.107069    18.845277    14.336113    28.381261    18.844549    14.335007 
  159000    295.88853    1.2509986    2099.6772   -1218.5612   -211.49952    2074.3462   -2309.5706   -1420.4811    44657.537 -0.067234084   -17.036218 -0.041707817    3553.4628    1565.1217    946.36047    890.22836    28.379999     18.84625    14.337811   0.17367091   0.17366631   0.14050872   0.14047087    295.88853     41.49527    35.978931    34.423473    90.016431    119.66323    90.107069    18.846191    14.338585    28.374512     18.85126    14.336927 
  160000    300.31387    1.2509986    2036.6978   -1198.5298   -211.49952    2072.1843   -2309.6307   -131.38792    44657.537 -0.067234084   -17.036218 -0.041707817    3472.6741    1538.6036    929.99493     856.0145    28.379945    18.846153    14.337743   0.16901232    0.1690065   0.14641864   0.14636247    300.31387     41.49527    35.978931    34.423473    90.016431    119.66323    90.107069    18.848215     14.33671     28.38352    18.853523    14.335153 
  161000    296.52505    1.2509986    2008.8908   -1201.5662   -211.49952    2072.6449   -2310.1683   -111.89243    44657.537 -0.067234084   -17.036218 -0.041707817    3447.9804    1505.3481    968.17326    827.34985    28.380264    18.846037    14.337753   0.16606974   0.16605691   0.13524769   0.13502098    296.52505     41.49527    35.978931    34.423473    90.016431    119.66323    90.107069    18.844241    14.337107    28.367713    18.839732    14.340202 
  162000    304.70328    1.2509986    2034.9849   -1244.9643   -211.49952     2072.299   -2310.0808   -3144.0848    44657.537 -0.067234084   -17.036218 -0.041707817     3517.731    1578.1093    928.50971    859.38643    28.379973    18.846036    14.337731   0.16440635    0.1644001   0.13805848   0.13802156    304.70328     41.49527    35.978931    34.423473    90.016431    119.66323    90.107069    18.846853    14.337676    28.380941    18.844414    14.335917 
  163000    295.72768    1.2509986    1990.2111   -1225.4298   -211.49952    2070.0759   -2310.0244   -2172.2115    44657.537 -0.067234084   -17.036218 -0.041707817    3455.5893    1572.1782    906.17016    835.90414    28.379995    18.846105    14.337748   0.16840607   0.16839778    0.1396592   0.13964266    295.72768     41.49527    35.978931    34.423473    90.016431    119.66323    90.107069    18.844417    14.338605    28.376205     18.84677    14.340158 
  164000    302.52646    1.2509986    2047.7944   -1241.9393   -211.49952    2076.7045   -2309.5173   -888.25642    44657.537 -0.067234084   -17.036218 -0.041707817    3522.5465    1586.7226    942.55736    844.33006    28.380097    18.846447    14.337763    0.1623288   0.16232567   0.13730583   0.13707022    302.52646     41.49527    35.978931    34.423473    90.016431    119.66323    90.107069    18.846487    14.336284    28.385385    18.842126     14.32722 
  165000    301.22086    1.2509986    2106.8337     -1218.95   -211.49952    2075.2137   -2309.5942   -524.00511    44657.537 -0.067234084   -17.036218 -0.041707817    3560.1642    1575.8775    937.00484    889.14385    28.380108    18.846392     14.33788   0.18156507   0.18156446   0.15052337   0.15044721    301.22086     41.49527    35.978931    34.423473    90.016431    119.66323    90.107069    18.845614    14.337374    28.388209    18.848583    14.338586 
[...]
  961000     296.6139    1.2509986    2094.3923   -1230.0259   -211.49952    2071.8336   -2310.1156   -166.09318    44657.537 -0.067234084   -17.036218 -0.041707817    3562.7001    1577.9923    913.58717    917.42722    28.380176    18.846075    14.337931    0.1651548   0.16515124   0.14033661   0.14031852     296.6139     41.49527    35.978931    34.423473    90.016431    119.66323    90.107069    18.845978    14.338951    28.378945    18.848868    14.343845 
  962000    300.21121    1.2509986    2060.9466    -1240.306   -211.49952     2071.393   -2310.0428   -2425.3948    44657.537 -0.067234084   -17.036218 -0.041707817    3539.9025    1574.0572    916.02922    892.25794    28.380205    18.846168    14.337985   0.17454351     0.174543   0.14348232   0.14344874    300.21121     41.49527    35.978931    34.423473    90.016431    119.66323    90.107069     18.84588    14.337253    28.376111    18.845096    14.337113 
  963000    299.56106    1.2509986    2070.4466   -1205.8362   -211.49952    2074.3096   -2309.9188   -406.78023    44657.537 -0.067234084   -17.036218 -0.041707817    3511.8921    1581.3065    946.64399    834.51072     28.38018    18.846175    14.338022   0.18758971   0.18758753   0.15220915   0.15208792    299.56106     41.49527    35.978931    34.423473    90.016431    119.66323    90.107069    18.847133    14.336856    28.377733      18.8446    14.329717 
  964000     293.1949    1.2509986    2175.0274    -1241.465   -211.49952    2078.9877   -2309.2759    -4434.024    44657.537 -0.067234084   -17.036218 -0.041707817    3646.7806    1636.6008     984.8612    873.37111    28.379936    18.846217    14.337901   0.18259905    0.1825961   0.14493172   0.14479493     293.1949     41.49527    35.978931    34.423473    90.016431    119.66323    90.107069    18.847076    14.339191     28.37458    18.844529    14.349225 
  965000    292.40652    1.2509986    2116.4132   -1234.0178   -211.49952    2070.6071   -2310.1428   -758.53405    44657.537 -0.067234084   -17.036218 -0.041707817    3589.9666    1579.7024    995.17293    870.71681    28.380148    18.845998    14.337955   0.16868661   0.16867452   0.14124611   0.14114679    292.40652     41.49527    35.978931    34.423473    90.016431    119.66323    90.107069    18.848358    14.338222    28.386787    18.853662    14.334595 
  966000    302.09229    1.2509986     2079.122   -1246.5413   -211.49952    2075.2269   -2309.9596     -2032.94    44657.537 -0.067234084   -17.036218 -0.041707817     3560.396    1594.1795    901.81053    905.34996    28.379832    18.846058    14.337825   0.18074209    0.1807346   0.14154126   0.14134785    302.09229     41.49527    35.978931    34.423473    90.016431    119.66323    90.107069     18.84412    14.339514    28.376521    18.839488    14.349306 
  967000    298.93576    1.2509986    2057.0317   -1240.1634   -211.49952    2067.2651   -2310.3488   -737.09885    44657.537 -0.067234084   -17.036218 -0.041707817    3540.2788    1579.3443    955.10913    856.31964    28.379403    18.846003    14.337625    0.1706955   0.17069482   0.13032441    0.1303005    298.93576     41.49527    35.978931    34.423473    90.016431    119.66323    90.107069    18.846001    14.336948    28.381649    18.844625    14.340161 
  968000    300.67296    1.2509986    2051.9365   -1211.9875   -211.49952    2075.8889   -2309.6862    497.56268    44657.537 -0.067234084   -17.036218 -0.041707817    3497.7213    1527.9098    948.02887    872.68767    28.379594    18.846098    14.337634   0.17579712   0.17579516   0.14733694   0.14725869    300.67296     41.49527    35.978931    34.423473    90.016431    119.66323    90.107069    18.846807    14.337948    28.388162    18.850615    14.340916 
  969000    300.33255    1.2509986    2083.1817    -1242.262   -211.49952    2071.9455   -2310.0838   -1544.5689    44657.537 -0.067234084   -17.036218 -0.041707817     3563.582    1583.8566    972.74297    862.44542    28.379558    18.846192    14.337647   0.17428089   0.17427025   0.13959454   0.13938235    300.33255     41.49527    35.978931    34.423473    90.016431    119.66323    90.107069    18.845882    14.335718    28.369534      18.8468    14.329301 
  970000    299.71456    1.2509986    2004.6495   -1202.9234   -211.49952    2075.5293    -2309.614    1233.2788    44657.537 -0.067234084   -17.036218 -0.041707817    3441.6576    1495.8165    925.05217    869.41137    28.379622    18.846147    14.337702   0.18604584   0.18604544   0.15000664   0.14995705    299.71456     41.49527    35.978931    34.423473    90.016431    119.66323    90.107069    18.846064    14.337159    28.377916    18.848069    14.332855 
  971000    296.58436    1.2509986    2028.8058   -1212.3312   -211.49952    2072.0929   -2309.7492   -876.35914    44657.537 -0.067234084   -17.036218 -0.041707817    3478.7933     1562.757    913.08783    858.19265    28.379899    18.846141    14.337891   0.17836547   0.17836245   0.14775667   0.14762138    296.58436     41.49527    35.978931    34.423473    90.016431    119.66323    90.107069    18.846162    14.339338    28.374001     18.84507    14.349066 
  972000     296.8574    1.2509986    2114.3913   -1225.8413   -211.49952    2079.5033   -2309.5936   -1161.3747    44657.537 -0.067234084   -17.036218 -0.041707817    3570.3229    1586.8495    946.18509    882.18051    28.379911    18.846092    14.337818   0.17725529   0.17725203   0.14905964   0.14901267     296.8574     41.49527    35.978931    34.423473    90.016431    119.66323    90.107069    18.846428    14.337098    28.376095    18.844389     14.33595 
  973000    299.92308    1.2509986    2057.0431   -1213.2234   -211.49952    2070.6372   -2309.9457   -1363.2993    44657.537 -0.067234084   -17.036218 -0.041707817    3509.5749    1577.9393    912.44956    872.93873    28.379546    18.846071     14.33783   0.17027942   0.17027461   0.14696422   0.14685392    299.92308     41.49527    35.978931    34.423473    90.016431    119.66323    90.107069    18.844753    14.337185     28.37863    18.840963    14.332957 
  974000    300.58097    1.2509986    2074.2098   -1208.1715   -211.49952    2068.6944   -2309.5857   -828.33662    44657.537 -0.067234084   -17.036218 -0.041707817    3523.2727    1542.9336    939.97518    885.48625    28.379862    18.846057    14.337842   0.18008094   0.18007129   0.15294409    0.1528074    300.58097     41.49527    35.978931    34.423473    90.016431    119.66323    90.107069    18.844655    14.337321    28.373284    18.839209    14.340747 
  975000    294.36101    1.2509986    2033.9743    -1215.273   -211.49952    2075.5931   -2310.1809   -71.208994    44657.537 -0.067234084   -17.036218 -0.041707817    3483.8351    1585.9899    913.02123     839.7908    28.379957    18.846057    14.337723   0.18595626   0.18595097   0.15802815   0.15781576    294.36101     41.49527    35.978931    34.423473    90.016431    119.66323    90.107069    18.844924    14.337562    28.386351    18.839122    14.331368 
  976000    299.13499    1.2509986    2064.8473   -1234.6287   -211.49952    2082.7788   -2309.1457   -2129.9116    44657.537 -0.067234084   -17.036218 -0.041707817    3525.8429    1549.2008    933.70524    891.52902    28.379935    18.846059    14.337696   0.18255524   0.18255428   0.15710385   0.15699023    299.13499     41.49527    35.978931    34.423473    90.016431    119.66323    90.107069    18.846774    14.338022     28.36929    18.846337    14.340672 
  977000    299.70359    1.2509986    2164.4429   -1231.7705   -211.49952    2080.2724   -2309.8518   -231.09558    44657.537 -0.067234084   -17.036218 -0.041707817    3625.7929    1571.2282    967.56479    924.57743    28.379839    18.846012     14.33775   0.16482176   0.16480826   0.12739299   0.12723968    299.70359     41.49527    35.978931    34.423473    90.016431    119.66323    90.107069    18.843927    14.338498    28.386469    18.839159    14.336737 
  978000    297.00828    1.2509986    2019.9669   -1248.5792   -211.49952    2071.6433   -2309.8725   -1479.0682    44657.537 -0.067234084   -17.036218 -0.041707817    3506.7754    1573.1059    921.51112    860.68352    28.379587    18.846152    14.337825   0.17893758   0.17893319   0.14838687    0.1482178    297.00828     41.49527    35.978931    34.423473    90.016431    119.66323    90.107069    18.844663    14.339179    28.373325    18.838819     14.34477 
  979000    303.16257    1.2509986    2036.4487   -1245.4744   -211.49952    2076.2084   -2309.7327   -1795.2991    44657.537 -0.067234084   -17.036218 -0.041707817    3515.4474    1591.8786    938.58147    834.67227    28.379782    18.846088    14.337903   0.17265782   0.17265691   0.14912486   0.14910737    303.16257     41.49527    35.978931    34.423473    90.016431    119.66323    90.107069    18.845692    14.337216    28.382113    18.850204     14.33655 
  980000    288.04448    1.2509986    2075.5473   -1218.4806   -211.49952    2076.4463   -2309.9865   -510.39419    44657.537 -0.067234084   -17.036218 -0.041707817    3527.5681    1593.4753    916.35979    864.16565    28.379694    18.846216    14.337848   0.17644479   0.17644286   0.14845199   0.14840786    288.04448     41.49527    35.978931    34.423473    90.016431    119.66323    90.107069     18.84609     14.33759    28.377037    18.843038    14.341081 
  981000    300.76381    1.2509986    2096.2279   -1243.1632   -211.49952    2072.7444   -2309.6739   -3041.6838    44657.537 -0.067234084   -17.036218 -0.041707817    3576.3206    1584.6133      956.071    884.32415    28.379921    18.846261    14.337802   0.17262575   0.17262477   0.14075994   0.14070332    300.76381     41.49527    35.978931    34.423473    90.016431    119.66323    90.107069    18.846201    14.336788    28.377963    18.845681    14.333083 
  982000    296.12918    1.2509986     2064.724   -1224.1551   -211.49952    2070.3966   -2310.3747   -805.16249    44657.537 -0.067234084   -17.036218 -0.041707817    3528.8571    1562.0135    976.60199    847.48298    28.379946     18.84627    14.337879   0.18080192   0.18080095   0.14937093   0.14935886    296.12918     41.49527    35.978931    34.423473    90.016431    119.66323    90.107069    18.846849    14.338435    28.378206    18.846384    14.341462 
  983000    296.90061    1.2509986     2037.586   -1238.1982   -211.49952    2071.5099   -2310.1081   -1193.4235    44657.537 -0.067234084   -17.036218 -0.041707817    3514.3823    1573.8207    920.39425    872.93997    28.380033    18.846005    14.337862   0.16864788   0.16863582   0.14229364   0.14212921    296.90061     41.49527    35.978931    34.423473    90.016431    119.66323    90.107069    18.846657    14.339174    28.392144    18.850892    14.341205 
  984000    296.94571    1.2509986    1971.2126    -1259.376   -211.49952    2077.1719   -2309.7174   -1426.7303    44657.537 -0.067234084   -17.036218 -0.041707817    3463.1342    1559.6732     913.8362    847.64779    28.380315    18.845839    14.337842   0.17905657   0.17905136    0.1429588   0.14284488    296.94571     41.49527    35.978931    34.423473    90.016431    119.66323    90.107069    18.845613    14.339006    28.386938    18.842049    14.342945 
  985000    301.07853    1.2509986    2103.3926   -1226.1985   -211.49952    2071.9676   -2309.8322   -705.74062    44657.537 -0.067234084   -17.036218 -0.041707817    3567.4557    1624.3718    945.92008    852.67623    28.380135    18.845931    14.337794   0.17352488   0.17351485   0.13653446   0.13633988    301.07853     41.49527    35.978931    34.423473    90.016431    119.66323    90.107069    18.845706     14.33937    28.389737     18.84122    14.345134 
  986000    294.23979    1.2509986     2193.916   -1184.5014   -211.49952    2069.4351   -2310.1178    969.70078    44657.537 -0.067234084   -17.036218 -0.041707817    3619.1001    1588.3276    983.05346    899.71468     28.37966    18.845944    14.337716   0.16967768   0.16967486    0.1353393   0.13532703    294.23979     41.49527    35.978931    34.423473    90.016431    119.66323    90.107069    18.846288    14.338048    28.378901    18.845721    14.340644 
  987000    309.11454    1.2509986    2086.6155   -1219.7641   -211.49952     2074.422   -2309.6923   -957.61978    44657.537 -0.067234084   -17.036218 -0.041707817    3541.6498    1596.5881    956.48151    843.30226    28.379965    18.845911    14.337778   0.17581013    0.1757917   0.14792833   0.14774947    309.11454     41.49527    35.978931    34.423473    90.016431    119.66323    90.107069     18.84531    14.337417    28.367466    18.843333    14.340286 
  988000    299.66782    1.2509986    2006.9357   -1234.7875   -211.49952    2076.1225    -2310.155   -575.43533    44657.537 -0.067234084   -17.036218 -0.041707817    3475.7557    1552.6709    900.35284    876.32426    28.379848    18.845847    14.337668   0.17062592   0.17062501   0.13395178   0.13384425    299.66782     41.49527    35.978931    34.423473    90.016431    119.66323    90.107069    18.846795    14.337044    28.386387    18.853142    14.333018 
  989000    298.99462    1.2509986    1985.7116   -1244.3161   -211.49952    2075.9773   -2309.8771    -411.6326    44657.537 -0.067234084   -17.036218 -0.041707817    3463.9275    1546.4056    932.82331    836.71647    28.379884     18.84591     14.33768   0.16396756   0.16396707   0.14450873   0.14441525    298.99462     41.49527    35.978931    34.423473    90.016431    119.66323    90.107069    18.846244    14.337093    28.373441    18.845534    14.333006 
  990000    293.61204    1.2509986    2113.4977   -1192.9211   -211.49952    2076.1068   -2309.7803     -156.743    44657.537 -0.067234084   -17.036218 -0.041707817    3540.0923    1559.1702     948.9912    882.35484    28.379798    18.846106    14.337775   0.17532748   0.17532193    0.1436875   0.14347527    293.61204     41.49527    35.978931    34.423473    90.016431    119.66323    90.107069     18.84431     14.33809    28.370961    18.837865     14.34339 
  991000    299.11705    1.2509986    2040.2646   -1259.1431   -211.49952    2075.3867   -2310.1886   -1999.6082    44657.537 -0.067234084   -17.036218 -0.041707817    3534.2095    1576.8191    912.03884    890.37622    28.379995    18.846211     14.33775   0.16513843   0.16513689   0.13845967   0.13841971    299.11705     41.49527    35.978931    34.423473    90.016431    119.66323    90.107069    18.845476    14.337323    28.382044     18.84326    14.338812 
  992000    301.53585    1.2509986    2142.4372   -1195.9859   -211.49952    2074.9737   -2309.5563   -231.30356    44657.537 -0.067234084   -17.036218 -0.041707817    3573.0058    1592.8614    955.08706     871.5778    28.379804    18.846325    14.337714   0.17290665   0.17288656   0.14807778   0.14801949    301.53585     41.49527    35.978931    34.423473    90.016431    119.66323    90.107069    18.846247    14.337252    28.372077    18.847991    14.338502 
  993000    300.00478    1.2509986    2119.4236   -1219.7353   -211.49952     2076.993   -2309.9246   -408.82774    44657.537 -0.067234084   -17.036218 -0.041707817    3572.0905    1597.5913    962.98261    865.14281    28.379981    18.846281    14.337737   0.16698428   0.16698239   0.13327101   0.13322139    300.00478     41.49527    35.978931    34.423473    90.016431    119.66323    90.107069    18.846881    14.338572    28.375879    18.849918    14.345577 
  994000    300.19043    1.2509986    2164.3135   -1254.8142   -211.49952    2074.4282   -2309.9115   -2618.7102    44657.537 -0.067234084   -17.036218 -0.041707817     3654.611    1620.2777    997.02186    886.27637     28.37999    18.846253     14.33782    0.1592095    0.1592092   0.13945018   0.13944377    300.19043     41.49527    35.978931    34.423473    90.016431    119.66323    90.107069    18.845951    14.338101    28.377582    18.848427    14.338167 
  995000    294.25853    1.2509986    2123.7006   -1216.1427   -211.49952    2075.5547   -2309.8297   -461.49455    44657.537 -0.067234084   -17.036218 -0.041707817    3574.1183    1571.2159    973.43437    875.94602    28.379757     18.84606    14.337794   0.17455937   0.17455675   0.14119478   0.14117289    294.25853     41.49527    35.978931    34.423473    90.016431    119.66323    90.107069    18.845935    14.337936    28.382135    18.847427     14.33607 
  996000    298.47593    1.2509986    2064.4742   -1212.2215   -211.49952    2072.3613   -2309.6861    50.883395    44657.537 -0.067234084   -17.036218 -0.041707817    3514.0206    1554.3827    955.20687    858.63191    28.379665    18.846067    14.337777   0.17841491   0.17840956   0.14917779    0.1490869    298.47593     41.49527    35.978931    34.423473    90.016431    119.66323    90.107069    18.845989    14.336802    28.375376    18.847217     14.33126 
  997000    294.11214    1.2509986     2043.694   -1208.5879   -211.49952    2080.2665   -2309.6277    679.97357    44657.537 -0.067234084   -17.036218 -0.041707817     3481.643     1536.761    947.04418    851.19789    28.379747    18.846051    14.337852   0.18306783   0.18305835   0.14915019   0.14900873    294.11214     41.49527    35.978931    34.423473    90.016431    119.66323    90.107069    18.847256    14.337975    28.389814     18.84912    14.333618 
  998000     294.6906    1.2509986    2094.1499   -1224.7555   -211.49952    2071.7798   -2309.5236   -1378.7644    44657.537 -0.067234084   -17.036218 -0.041707817    3556.6492    1569.2446    980.64862    854.78377    28.379541    18.846328    14.337803   0.17601663   0.17601452   0.13953094    0.1394852     294.6906     41.49527    35.978931    34.423473    90.016431    119.66323    90.107069    18.846304    14.338016    28.384775    18.844727    14.339265 
  999000    303.29944    1.2509986    1993.0109   -1237.8183   -211.49952    2075.7095    -2309.331    307.96872    44657.537 -0.067234084   -17.036218 -0.041707817    3464.4507    1538.5214    919.44546    857.94757    28.379473      18.8462    14.337681   0.17448815   0.17447233   0.14665573   0.14638592    303.29944     41.49527    35.978931    34.423473    90.016431    119.66323    90.107069    18.847932    14.338553    28.395823    18.850584    14.341288 
 1000000    291.95207    1.2509986     1992.572   -1219.0715   -211.49952    2074.1848   -2309.9358   -622.59636    44657.537 -0.067234084   -17.036218 -0.041707817    3447.3944    1529.2243    925.91597     846.0321     28.37953    18.845944     14.33762   0.18833959   0.18833404   0.15801871    0.1574752    291.95207     41.49527    35.978931    34.423473    90.016431    119.66323    90.107069    18.847384    14.336738    28.399353    18.846793    14.327527 
Loop time of 3088.47 on 60 procs for 1000000 steps with 4560 atoms

Pair  time (%) = 551.733 (17.8643)
Bond  time (%) = 59.1669 (1.91573)
Kspce time (%) = 1633.87 (52.9021)
Neigh time (%) = 14.7771 (0.478459)
Comm  time (%) = 570.829 (18.4826)
Outpt time (%) = 3.05747 (0.0989963)
Other time (%) = 255.043 (8.25791)

Nlocal:    76 ave 83 max 70 min
Histogram: 4 3 8 15 4 4 14 3 1 4
Nghost:    3988.17 ave 4049 max 3909 min
Histogram: 5 8 6 1 0 4 9 8 13 6
Neighs:    28093.1 ave 30794 max 25488 min
Histogram: 2 4 7 12 7 7 9 5 4 3

Total # of neighbors = 1685586
Ave neighs/atom = 369.646
Ave special neighs/atom = 10.6316
Neighbor list builds = 6625
Dangerous builds = 0
System init for write_data ...
PPPM initialization ...
  G vector (1/distance) = 0.246499
  grid = 16 16 20
  stencil order = 5
  estimated absolute RMS force accuracy = 0.00242397
  estimated relative force accuracy = 7.2997e-06
  using double precision FFTs
  3d grid and FFT values/proc = 1053 112
