LAMMPS data file via write_data, version 15 May 2015, timestep = 23005000

2611 atoms
6 atom types
1749 bonds
4 bond types
894 angles
3 angle types
44 dihedrals
3 dihedral types
10 impropers
1 improper types

-1.5030214307321298e+01 1.5030214307321298e+01 xlo xhi
-1.5030214307321298e+01 1.5030214307321298e+01 ylo yhi
-1.5030214307321298e+01 1.5030214307321298e+01 zlo zhi

Masses

1 15.9994
2 1.00794
3 12.0107
4 1.00794
5 12.0107
6 12.0107

Bond Coeffs # harmonic

1 1000 1
2 469 1.4
3 367 1.08
4 469 0.7

Angle Coeffs # harmonic

1 100 109.47
2 35 120
3 63 120

Dihedral Coeffs # opls

1 0 7.25 0 0
2 0 7.25 0 0
3 0 7.25 0 0

Improper Coeffs # cvff

1 2.5 -1 2

Atoms # full

2298 766 2 4.0999999999999998e-01 -1.2898623325082522e+01 -1.3019609545523476e+01 -7.0159348861157849e+00 1 -2 1
2296 766 1 -8.1999999999999995e-01 -1.2371739937448691e+01 -1.3847972461758644e+01 -7.2061567659843933e+00 1 -2 1
1761 587 2 4.0999999999999998e-01 -9.8984847068652559e+00 -1.1421128021514047e+01 -9.7112854642589888e+00 -7 4 2
2207 736 2 4.0999999999999998e-01 -1.4637250400547854e+01 -8.6316338269671302e+00 -9.3424488831130539e+00 4 -1 -3
916 306 1 -8.1999999999999995e-01 -1.4362458770469612e+01 -1.4023487481966900e+01 -1.0785505257755904e+01 -1 -2 -3
62 21 2 4.0999999999999998e-01 -1.2362659411280857e+01 -1.1093109612656766e+01 -8.6282746727619575e+00 -6 2 -2
61 21 1 -8.1999999999999995e-01 -1.1574564230232173e+01 -1.0651579948478176e+01 -9.0571488429045459e+00 -6 2 -2
1760 587 2 4.0999999999999998e-01 -9.1173338377296922e+00 -1.1011899231957081e+01 -1.1085656744977314e+01 -7 4 2
1759 587 1 -8.1999999999999995e-01 -9.2105836409583688e+00 -1.1710941292222838e+01 -1.0376699595239273e+01 -7 4 2
63 21 2 4.0999999999999998e-01 -1.1890639256279590e+01 -9.9244773577641645e+00 -9.6665698270344507e+00 -6 2 -2
1309 437 1 -8.1999999999999995e-01 -1.0100093676347418e+01 -7.6651962423828603e+00 -1.1825908308024484e+01 1 -2 0
1310 437 2 4.0999999999999998e-01 -9.7323095840606477e+00 -8.5912727697702671e+00 -1.1910126699081754e+01 1 -2 0
1259 420 2 4.0999999999999998e-01 -1.3336978028394142e+01 -1.4619641315588810e+01 -1.2136308653951561e+01 5 3 -6
1308 436 2 4.0999999999999998e-01 -1.1218008692768485e+01 -1.1985405741852457e+01 -1.2426080481392505e+01 -3 -2 -9
293 98 2 4.0999999999999998e-01 -1.2987459313335364e+01 -1.4917064271714223e+01 -5.7283849027041445e+00 5 0 -5
2450 817 2 4.0999999999999998e-01 -1.4268839000400721e+01 -1.0915070436646033e+01 -7.8445074928104743e+00 4 6 5
1408 470 1 -8.1999999999999995e-01 -1.1335931754129202e+01 -1.4324809244967097e+01 -9.7461536506848141e+00 5 2 1
1255 419 1 -8.1999999999999995e-01 -9.6146930816045195e+00 -1.2434427738197376e+01 -6.2290509179675926e+00 -2 -2 -4
1257 419 2 4.0999999999999998e-01 -1.0345063841769212e+01 -1.3095122986265910e+01 -6.4023017451712647e+00 -2 -2 -4
917 306 2 4.0999999999999998e-01 -1.4237682702427486e+01 -1.3068935374897231e+01 -1.0514882400693217e+01 -1 -2 -3
1306 436 1 -8.1999999999999995e-01 -1.1421887849289540e+01 -1.2130171853224414e+01 -1.3394301403709031e+01 -3 -2 -9
2479 827 1 -8.1999999999999995e-01 -9.6292108928745535e+00 -9.6035408247877037e+00 -6.5946147560061164e+00 5 4 -1
2481 827 2 4.0999999999999998e-01 -9.6872025192347273e+00 -8.9155949953341782e+00 -7.3180393226393043e+00 5 4 -1
2480 827 2 4.0999999999999998e-01 -8.6702974963536086e+00 -9.8354689024111774e+00 -6.4313051075329017e+00 5 4 -1
2297 766 2 4.0999999999999998e-01 -1.2070673142270589e+01 -1.3839873039053321e+01 -8.1597126616603326e+00 1 -2 1
2449 817 1 -8.1999999999999995e-01 -1.3620186777678708e+01 -1.1420712399694478e+01 -7.2756910634552616e+00 4 6 5
2451 817 2 4.0999999999999998e-01 -1.3286162522758096e+01 -1.0827453888087636e+01 -6.5432650451108518e+00 4 6 5
1584 528 2 4.0999999999999998e-01 -1.4257470258662973e+01 -1.0341640117201434e+01 -1.3550925313890982e+01 -1 -4 0
2213 738 2 4.0999999999999998e-01 -1.2880430882142605e+01 -1.2866865222423050e+01 -1.4360573733030440e+01 -6 -2 0
1409 470 2 4.0999999999999998e-01 -1.0741243254192957e+01 -1.3521344783955687e+01 -9.7738295131504742e+00 5 2 1
1583 528 2 4.0999999999999998e-01 -1.2734396376936223e+01 -1.0928601408572206e+01 -1.3598716658913474e+01 -1 -4 0
1307 436 2 4.0999999999999998e-01 -1.0567853800568331e+01 -1.2163168572326271e+01 -1.3913447401668323e+01 -3 -2 -9
1582 528 1 -8.1999999999999995e-01 -1.3287825965325288e+01 -1.0100167094788887e+01 -1.3512763258586380e+01 -1 -4 0
20 7 2 4.0999999999999998e-01 -1.1668707120425761e+01 -8.2367061561125539e+00 -1.1357594116230922e+01 5 -1 -6
19 7 1 -8.1999999999999995e-01 -1.2403787150527332e+01 -8.7654652323790607e+00 -1.0933274914598092e+01 5 -1 -6
1256 419 2 4.0999999999999998e-01 -9.9791318629452768e+00 -1.1506520093368348e+01 -6.3074555668352605e+00 -2 -2 -4
2055 685 2 4.0999999999999998e-01 -8.8590040982208862e+00 -1.0048942297378716e+01 -1.3638610147543499e+01 -3 3 -5
2469 823 2 4.0999999999999998e-01 -1.1232749219377991e+01 -9.8715871868620866e+00 -5.9491872419247542e+00 -1 6 -7
21 7 2 4.0999999999999998e-01 -1.2883377509431888e+01 -9.2922450054262704e+00 -1.1635038332319503e+01 5 -1 -6
2053 685 1 -8.1999999999999995e-01 -8.8449551817372338e+00 -9.9674298453661443e+00 -1.2642049070557597e+01 -3 3 -5
1086 362 2 4.0999999999999998e-01 -8.6645000861757371e+00 -1.3555582151562744e+01 -1.4792173596925783e+01 2 2 5
2250 750 2 4.0999999999999998e-01 -7.9570588187386937e+00 -1.2780505267711398e+01 -1.0604264672499763e+01 -6 0 -1
2467 823 1 -8.1999999999999995e-01 -1.2068534312044251e+01 -9.8482198705199586e+00 -5.4006502539479762e+00 -1 6 -7
2279 760 2 4.0999999999999998e-01 -1.2966850683850064e+01 -8.4219864399474638e+00 -1.4073093536485050e+01 2 1 -1
1305 435 2 4.0999999999999998e-01 -1.3012238488844794e+01 -8.5415087742984390e+00 -5.0619045250479093e+00 2 2 -1
2212 738 1 -8.1999999999999995e-01 -1.3868193903419169e+01 -1.2831524047467823e+01 -1.4512398519192455e+01 -6 -2 0
1878 626 2 4.0999999999999998e-01 -1.1012324453540842e+01 -7.7490084562685171e+00 -1.4834418951280213e+01 1 5 -1
2054 685 2 4.0999999999999998e-01 -7.8977204234694458e+00 -9.9240541703234584e+00 -1.2324495190897807e+01 -3 3 -5
2456 819 2 4.0999999999999998e-01 -7.8850419147758712e+00 -1.4899476226983181e+01 -1.1332101701652117e+01 0 4 4
1410 470 2 4.0999999999999998e-01 -1.1019157417902420e+01 -1.4997151215031440e+01 -1.0415172391836062e+01 5 2 1
1545 515 2 4.0999999999999998e-01 -1.0387005752661826e+01 -3.4971483461152033e+00 -1.5028344317080970e+01 -2 3 2
2280 760 2 4.0999999999999998e-01 -1.3285510078652385e+01 -6.8613169129427103e+00 -1.4432715509886831e+01 2 1 -1
931 311 1 -8.1999999999999995e-01 -1.4441134550952512e+01 -6.2729658571329949e-02 -1.1430726144311691e+01 -1 0 -1
1311 437 2 4.0999999999999998e-01 -9.5915862294832142e+00 -7.1672156203425299e+00 -1.1123476016505441e+01 1 -2 0
1772 591 2 4.0999999999999998e-01 -1.3624358811608127e+01 -7.1604111625041567e+00 -1.0440996070988641e+01 8 1 -2
2373 791 2 4.0999999999999998e-01 -1.3669189806911103e+01 -2.7248439650940917e+00 -1.1907450429249085e+01 1 2 -1
262 88 1 -8.1999999999999995e-01 -8.0274853125682366e+00 -6.4531064637066269e+00 -1.3772845266044834e+01 3 6 -3
2371 791 1 -8.1999999999999995e-01 -1.2678426831286787e+01 -2.6406485089950777e+00 -1.2013636305752874e+01 1 2 -1
632 211 2 4.0999999999999998e-01 -1.3413666708232808e+01 -2.3271369676204579e-01 -9.9922701274762815e+00 0 2 -4
1231 411 1 -8.1999999999999995e-01 -1.0075443001124077e+01 -7.2571069527045537e+00 -8.2055745851017257e+00 -3 1 1
1232 411 2 4.0999999999999998e-01 -9.7538702406986673e+00 -6.7942105544925173e+00 -9.0315851901831259e+00 -3 1 1
2372 791 2 4.0999999999999998e-01 -1.2266132863553494e+01 -3.5515742031332529e+00 -1.2027905745314346e+01 1 2 -1
1834 612 1 -8.1999999999999995e-01 -1.0586420857571309e+01 -5.3088901102802364e+00 -1.0061002542601400e+01 2 4 1
1249 417 1 -8.1999999999999995e-01 -1.4890130821247675e+01 -5.9262200012633155e+00 -1.4510112759187830e+01 -1 8 -8
1815 605 2 4.0999999999999998e-01 -1.4165703188105134e+01 -2.5731605603777652e+00 -1.4878971572697512e+01 3 0 -3
1835 612 2 4.0999999999999998e-01 -1.1298408234011998e+01 -5.3000557303453437e+00 -9.3588832906887198e+00 2 4 1
1771 591 1 -8.1999999999999995e-01 -1.4367619311816947e+01 -6.8311839106380852e+00 -9.8586312499519764e+00 8 1 -2
1271 424 2 4.0999999999999998e-01 -1.3334751750026522e+01 -6.1901603022239993e+00 -7.9657777457164576e+00 4 9 -5
1233 411 2 4.0999999999999998e-01 -1.0967591007286305e+01 -6.8893400021358762e+00 -7.9432867381050629e+00 -3 1 1
264 88 2 4.0999999999999998e-01 -8.3159931187151024e+00 -5.5766673950022430e+00 -1.4158323360246049e+01 3 6 -3
1010 337 2 4.0999999999999998e-01 -7.5174464647935304e+00 -6.5481825744287701e+00 -1.1895214847311390e+01 0 3 -4
631 211 1 -8.1999999999999995e-01 -1.3243989181757822e+01 -2.6647219031842617e-01 -9.0073612761512667e+00 0 2 -4
1483 495 1 -8.1999999999999995e-01 -1.1073192298755846e+01 -8.4010776694438505e-01 -1.3398086780364235e+01 2 4 2
1484 495 2 4.0999999999999998e-01 -1.0209174111258953e+01 -1.2120384198837844e+00 -1.3737373872666742e+01 2 4 2
964 322 1 -8.1999999999999995e-01 -1.3023081502533289e+01 -3.8257676450157234e+00 -5.3985306265312936e+00 0 4 -5
1939 647 1 -8.1999999999999995e-01 -8.6446022119279196e+00 -3.7208675156493154e+00 -8.9881721107357855e+00 -2 1 4
537 179 2 4.0999999999999998e-01 -8.8761922367835826e+00 -2.9498013812197001e+00 -6.1616132323552222e+00 -1 3 3
633 211 2 4.0999999999999998e-01 -1.2528108814920898e+01 -9.3773848111193381e-01 -8.8152873492728645e+00 0 2 -4
1836 612 2 4.0999999999999998e-01 -9.8080762471950678e+00 -4.7616379082461666e+00 -9.7533171902140126e+00 2 4 1
817 273 1 -8.1999999999999995e-01 -9.7040677731069849e+00 -6.1730064609759481e+00 -5.4465951814101068e+00 4 2 0
396 132 2 4.0999999999999998e-01 -1.3572182261548658e+01 -2.4136143138257058e+00 -7.9704691740243119e+00 2 -1 3
1241 414 2 4.0999999999999998e-01 -9.7112924843086184e+00 -4.3327094632917831e+00 -1.3143669400110738e+01 -1 5 -3
1897 633 1 -8.1999999999999995e-01 -1.1360973109370198e+01 -2.1802740489256944e+00 -8.4232107501511155e+00 3 6 -4
535 179 1 -8.1999999999999995e-01 -9.8173978198681340e+00 -3.2776801677208827e+00 -6.0803539940947111e+00 -1 3 3
536 179 2 4.0999999999999998e-01 -9.8151977196403948e+00 -4.2126284230804369e+00 -5.7256111236723655e+00 -1 3 3
2129 710 2 4.0999999999999998e-01 -1.1766495741780352e+01 -5.8909328004134718e+00 -1.2874063552442196e+01 3 -3 1
1485 495 2 4.0999999999999998e-01 -1.1501710819630837e+01 -1.5012291082959717e+00 -1.2782241034272944e+01 2 4 2
1941 647 2 4.0999999999999998e-01 -8.1233731661154351e+00 -2.9699456156981050e+00 -9.3936497111659349e+00 -2 1 4
263 88 2 4.0999999999999998e-01 -8.8335836178366343e+00 -7.0061048000213013e+00 -1.3562193968416080e+01 3 6 -3
819 273 2 4.0999999999999998e-01 -9.8423557056087532e+00 -6.6298361026162755e+00 -6.3253207761153583e+00 4 2 0
1940 647 2 4.0999999999999998e-01 -8.0137354197895032e+00 -4.4024531702183438e+00 -8.6174648386110277e+00 -2 1 4
2278 760 1 -8.1999999999999995e-01 -1.2566636830200277e+01 -7.5132670293715886e+00 -1.4191556198393966e+01 2 1 -1
2130 710 2 4.0999999999999998e-01 -1.1001596090062051e+01 -5.3025043912825538e+00 -1.1556777540805614e+01 3 -3 1
1240 414 1 -8.1999999999999995e-01 -9.2625986070403883e+00 -3.7000226686584394e+00 -1.3774824699767393e+01 -1 5 -3
394 132 1 -8.1999999999999995e-01 -1.4328008594530548e+01 -2.7935470109191236e+00 -7.4372212894053273e+00 2 -1 3
1272 424 2 4.0999999999999998e-01 -1.2646499592944622e+01 -5.2575226890577635e+00 -6.8155354029221424e+00 4 9 -5
1899 633 2 4.0999999999999998e-01 -1.0892729354691014e+01 -2.5775668753415637e+00 -7.6339821654409263e+00 3 6 -4
1242 414 2 4.0999999999999998e-01 -8.4723024066142649e+00 -3.2844979663451657e+00 -1.3324550589986911e+01 -1 5 -3
1898 633 2 4.0999999999999998e-01 -1.0718520912605806e+01 -2.0975360796118636e+00 -9.1850408777814447e+00 3 6 -4
2128 710 1 -8.1999999999999995e-01 -1.1447388322317154e+01 -5.0599528242604208e+00 -1.2418411833009550e+01 3 -3 1
1270 424 1 -8.1999999999999995e-01 -1.2503548438745359e+01 -5.7019308620526576e+00 -7.6998667967809089e+00 4 9 -5
965 322 2 4.0999999999999998e-01 -1.3499546271146150e+01 -3.3045590170420169e+00 -6.1065549629511082e+00 0 4 -5
1814 605 2 4.0999999999999998e-01 -1.4124199847202039e+01 -4.1617370898846602e+00 -1.4503121138528819e+01 3 0 -3
827 276 2 4.0999999999999998e-01 -1.1483524432584577e+01 -1.3460348145829593e+01 -1.5019186379695082e+00 1 1 -8
739 247 1 -8.1999999999999995e-01 -1.2207447737187747e+01 -1.0814524583768193e+01 -4.6516629045245139e-01 5 3 -1
826 276 1 -8.1999999999999995e-01 -1.1175989415817609e+01 -1.3858136530477305e+01 -2.3663040436381095e+00 1 1 -8
135 45 2 4.0999999999999998e-01 -1.3218562923741876e+01 -9.3625929923729956e+00 -1.8554285537413406e-01 -4 2 0
134 45 2 4.0999999999999998e-01 -1.4575280376090866e+01 -8.6578388967029341e+00 -7.5930298827493026e-01 -4 2 0
1031 344 2 4.0999999999999998e-01 -1.4484289081342697e+01 -1.2483773203878915e+01 -2.7598052707418894e+00 -5 0 -2
1093 365 1 -8.1999999999999995e-01 -1.1205381600815288e+01 -1.0608031027097834e+01 -3.0710698345433904e+00 -5 4 -8
1095 365 2 4.0999999999999998e-01 -1.0210760167147111e+01 -1.0516828527968237e+01 -3.1199165358660288e+00 -5 4 -8
1094 365 2 4.0999999999999998e-01 -1.1497755472989539e+01 -1.0562473519018837e+01 -2.1158641626008112e+00 -5 4 -8
741 247 2 4.0999999999999998e-01 -1.2786816318679627e+01 -1.1629523302508252e+01 -4.7436710962653805e-01 5 3 -1
2468 823 2 4.0999999999999998e-01 -1.1844347420122729e+01 -1.0032035385297156e+01 -4.4436091309913905e+00 -1 6 -7
1950 650 2 4.0999999999999998e-01 -1.2972537064063564e+01 -1.4356852926751978e+01 2.0684340906567300e-01 0 -1 -5
889 297 1 -8.1999999999999995e-01 -8.3133296132981407e+00 -9.6176393831871216e+00 -1.0914624018651331e+00 -3 4 0
2269 757 1 -8.1999999999999995e-01 -8.0233461354378619e+00 -1.4432381746180253e+01 3.3176113917580956e+00 -3 9 -5
2124 708 2 4.0999999999999998e-01 -9.1530955044756084e+00 -1.2242013635831274e+01 5.6208526227676003e-01 0 2 -10
2531 844 2 4.0999999999999998e-01 -1.1263103457168697e+01 -1.4680817663034651e+01 4.1577089942791154e+00 5 0 -9
525 175 2 4.0999999999999998e-01 -9.9394418924965979e+00 -1.0983605107659130e+01 2.6101115417301060e+00 -4 5 0
2122 708 1 -8.1999999999999995e-01 -8.4926000909445083e+00 -1.2337723946022583e+01 -1.8260317472835474e-01 0 2 -10
547 183 1 -8.1999999999999995e-01 -1.1533989952809989e+01 -9.4037994518288492e+00 4.6539383790716364e+00 2 3 -4
1047 349 2 4.0999999999999998e-01 -1.3788722073695284e+01 -1.2042725486546685e+01 3.7649857682670529e+00 4 0 1
549 183 2 4.0999999999999998e-01 -1.2325117072299204e+01 -1.0008274554265546e+01 4.7472301454709296e+00 2 3 -4
1045 349 1 -8.1999999999999995e-01 -1.3799406605611633e+01 -1.1260733038573791e+01 4.3881624386370639e+00 4 0 1
2271 757 2 4.0999999999999998e-01 -8.3344395677259904e+00 -1.3482864172547727e+01 3.3577703935116645e+00 -3 9 -5
18 6 2 4.0999999999999998e-01 -1.3395426198914413e+01 -1.4203432998446656e+01 3.1225338904934112e+00 7 0 -1
16 6 1 -8.1999999999999995e-01 -1.4085921261341635e+01 -1.3528551695859795e+01 2.8622890802619594e+00 7 0 -1
99 33 2 4.0999999999999998e-01 -1.1368870582538479e+01 -9.5482946317958479e+00 2.9609439170540064e+00 3 0 -2
1949 650 2 4.0999999999999998e-01 -1.2832809873072376e+01 -1.3212419500236832e+01 1.3632644344774434e+00 0 -1 -5
98 33 2 4.0999999999999998e-01 -1.0957701166561211e+01 -9.0067282743702819e+00 1.4762866615889898e+00 3 0 -2
97 33 1 -8.1999999999999995e-01 -1.1077799027367485e+01 -9.8211404952492209e+00 2.0439880417965242e+00 3 0 -2
1948 650 1 -8.1999999999999995e-01 -1.2563591194857649e+01 -1.3473626087042732e+01 4.3629738275336827e-01 0 -1 -5
740 247 2 4.0999999999999998e-01 -1.1630297314097486e+01 -1.0825065355211443e+01 3.5138853730619068e-01 5 3 -1
2037 679 2 4.0999999999999998e-01 -1.3688092017854462e+01 -8.5620485779902538e+00 2.0741861640582542e+00 6 -3 -3
2123 708 2 4.0999999999999998e-01 -8.3853143730024442e+00 -1.3305432626348352e+01 -4.1064971124420602e-01 0 2 -10
174 58 2 4.0999999999999998e-01 -1.4840031744235461e+01 -7.9056830010429158e+00 -3.0599423187714194e+00 -3 5 -4
1030 344 1 -8.1999999999999995e-01 -1.3861998988217362e+01 -1.3070670357286261e+01 -3.2777650173356818e+00 -5 0 -2
890 297 2 4.0999999999999998e-01 -8.4675425086770222e+00 -1.0600484146949313e+01 -1.1925073628799545e+00 -3 4 0
1832 611 2 4.0999999999999998e-01 -9.2829152675249329e+00 -1.3426988175241968e+01 -2.8861679729027170e+00 -7 0 -2
133 45 1 -8.1999999999999995e-01 -1.3888060045480437e+01 -8.6355822241766287e+00 -3.3211803905228265e-02 -4 2 0
1032 344 2 4.0999999999999998e-01 -1.2979618921938469e+01 -1.3116278149194105e+01 -2.8094692536275030e+00 -5 0 -2
294 98 2 4.0999999999999998e-01 -1.3605481921959443e+01 -1.4481758548730436e+01 -4.2809325447107902e+00 5 0 -5
523 175 1 -8.1999999999999995e-01 -9.1999635988428619e+00 -1.1505443835248254e+01 3.0353546622087606e+00 -4 5 0
1831 611 1 -8.1999999999999995e-01 -8.5550292782900232e+00 -1.3287658446928846e+01 -3.5575434066804679e+00 -7 0 -2
1833 611 2 4.0999999999999998e-01 -8.9445647219579243e+00 -1.2911628568614228e+01 -4.3982807640486499e+00 -7 0 -2
1048 350 1 -8.1999999999999995e-01 -1.0016211321154294e+01 -7.9737409691088645e+00 1.7627999692619056e-01 3 3 -6
1303 435 1 -8.1999999999999995e-01 -1.3538087848868123e+01 -7.6979071286463601e+00 -4.9533031549638711e+00 2 2 -1
1049 350 2 4.0999999999999998e-01 -9.3960647238790980e+00 -8.4731293171472153e+00 -4.2870362423327002e-01 3 3 -6
524 175 2 4.0999999999999998e-01 -8.4092024282632920e+00 -1.0909552916573457e+01 3.1753059356705755e+00 -4 5 0
2036 679 2 4.0999999999999998e-01 -1.3575627861086444e+01 -9.7092521565040641e+00 3.2308352011076842e+00 6 -3 -3
17 6 2 4.0999999999999998e-01 -1.4998007488632611e+01 -1.3908216726330444e+01 3.0169786031250574e+00 7 0 -1
510 170 2 4.0999999999999998e-01 -1.0738301732722316e+01 -1.2494551597713381e+01 4.5286958163119237e+00 3 3 -3
2277 759 2 4.0999999999999998e-01 -8.8861116350327585e+00 -7.6825031019583747e+00 4.1172061820943888e+00 3 0 -2
828 276 2 4.0999999999999998e-01 -1.1645732107404310e+01 -1.4727640013060428e+01 -2.5188853035393528e+00 1 1 -8
2035 679 1 -8.1999999999999995e-01 -1.3902951424982408e+01 -8.7871512920503179e+00 3.0245228116775635e+00 6 -3 -3
1811 604 2 4.0999999999999998e-01 -1.4998520637690838e+01 -8.4505845566916999e+00 4.3313557022617246e+00 5 1 -1
2398 800 1 -8.1999999999999995e-01 -9.7330252030867825e+00 -2.1225863572846215e+00 4.3015117771896172e+00 -6 4 -3
2399 800 2 4.0999999999999998e-01 -9.6095437958664576e+00 -1.1302556997745441e+00 4.2987360063067399e+00 -6 4 -3
2139 713 2 4.0999999999999998e-01 -7.7967218918899839e+00 -7.2748735777540210e+00 -2.3171318249686941e+00 -1 1 2
888 296 2 4.0999999999999998e-01 -1.0729466206935211e+01 -1.7685614263696667e+00 -4.9391284660651564e+00 1 2 -4
433 145 1 -8.1999999999999995e-01 -1.2936205192586586e+01 -3.9502852961059123e+00 -7.9612470916931244e-02 4 1 -1
2138 713 2 4.0999999999999998e-01 -9.0456354441036666e+00 -6.2292123511649340e+00 -2.4327547727865255e+00 -1 1 2
2137 713 1 -8.1999999999999995e-01 -8.4799216070633605e+00 -6.8840137707206157e+00 -2.9339318318877972e+00 -1 1 2
1551 517 2 4.0999999999999998e-01 -1.1883994144092282e+01 -2.5789589848619094e+00 3.1719683975207396e+00 -3 -1 6
743 248 2 4.0999999999999998e-01 -1.3230212775808811e+01 -5.0104010118067368e+00 3.3023460105823936e+00 -3 1 -9
570 190 2 4.0999999999999998e-01 -8.2690730463318207e+00 -6.0663612583976150e+00 2.5299797316645858e+00 2 2 -3
353 118 2 4.0999999999999998e-01 -1.1014496213276256e+01 -5.9730764224295854e+00 -4.3876424971064871e+00 -2 2 0
2522 841 2 4.0999999999999998e-01 -1.4616361594654895e+01 -7.0478302487892703e+00 5.6934166552460574e-01 3 7 -3
354 118 2 4.0999999999999998e-01 -1.2464666476781098e+01 -5.2373844529825853e+00 -4.5370569802675345e+00 -2 2 0
41 14 2 4.0999999999999998e-01 -1.0159761872116121e+01 -1.3547423634006961e-01 -2.5858922912130087e+00 -3 5 0
1197 399 2 4.0999999999999998e-01 -8.4801584677313375e+00 -2.6735152598222118e+00 3.0847590705546430e+00 -4 2 -3
1304 435 2 4.0999999999999998e-01 -1.2950008991852556e+01 -6.9855400442636473e+00 -4.5703254207235720e+00 2 2 -1
476 159 2 4.0999999999999998e-01 -1.3438168300788540e+01 -2.2946496982371052e+00 4.1450354457141501e+00 -5 5 -2
352 118 1 -8.1999999999999995e-01 -1.1948085853606608e+01 -5.9288408030857322e+00 -4.0320736526800758e+00 -2 2 0
818 273 2 4.0999999999999998e-01 -9.0510353609228584e+00 -6.6955228332874057e+00 -4.8984155633449458e+00 4 2 0
887 296 2 4.0999999999999998e-01 -1.1900366886626976e+01 -7.8055742996135002e-01 -4.3739728014616777e+00 1 2 -4
1050 350 2 4.0999999999999998e-01 -1.0577390248379395e+01 -7.3475335471237395e+00 -3.6493909182152962e-01 3 3 -6
1796 599 2 4.0999999999999998e-01 -9.0931523137773631e+00 -4.1289208278687273e+00 1.3150768513423472e+00 -1 -2 3
480 160 2 4.0999999999999998e-01 -1.2086240074130357e+01 -6.1846448307335056e+00 -1.0097129671904952e+00 2 5 1
478 160 1 -8.1999999999999995e-01 -1.1312563158191667e+01 -6.2858935913024361e+00 -1.6351314770367988e+00 2 5 1
2523 841 2 4.0999999999999998e-01 -1.4703041929996814e+01 -5.8174358535115456e+00 1.6394713118246216e+00 3 7 -3
31 11 1 -8.1999999999999995e-01 -7.7388552692100898e+00 -3.1502771077477458e+00 -1.4108213968063232e+00 -4 -2 0
479 160 2 4.0999999999999998e-01 -1.1580467307299269e+01 -5.9805686634883735e+00 -2.5489036632435180e+00 2 5 1
568 190 1 -8.1999999999999995e-01 -8.9559963699395375e+00 -6.7578162317244317e+00 2.7535908968868021e+00 2 2 -3
770 257 2 4.0999999999999998e-01 -1.1647555882774844e+01 -6.3280520929381172e+00 4.3423264600209457e+00 -6 -1 -4
1550 517 2 4.0999999999999998e-01 -1.1677793633134282e+01 -9.6033043654372463e-01 3.1080603943106411e+00 -3 -1 6
742 248 1 -8.1999999999999995e-01 -1.3781798068916524e+01 -4.7216778749094424e+00 2.5198064212637483e+00 -3 1 -9
1549 517 1 -8.1999999999999995e-01 -1.2342194836196761e+01 -1.7027785459354536e+00 3.0225178342606647e+00 -3 -1 6
769 257 1 -8.1999999999999995e-01 -1.1245090200607978e+01 -5.5647525841871666e+00 3.8369842407339370e+00 -6 -1 -4
886 296 1 -8.1999999999999995e-01 -1.1424631417219668e+01 -1.6483384883243062e+00 -4.2304202701099793e+00 1 2 -4
1195 399 1 -8.1999999999999995e-01 -7.8614628290369799e+00 -3.1352908724673636e+00 2.4491848699777243e+00 -4 2 -3
1795 599 1 -8.1999999999999995e-01 -9.2726154435687551e+00 -4.3810916958801283e+00 3.6419383693972129e-01 -1 -2 3
1797 599 2 4.0999999999999998e-01 -1.0234803823904333e+01 -4.6336284924956743e+00 2.6224088601252404e-01 -1 -2 3
771 257 2 4.0999999999999998e-01 -1.0382636870953842e+01 -5.8565913373639447e+00 3.4234870637695387e+00 -6 -1 -4
435 145 2 4.0999999999999998e-01 -1.3686053109596052e+01 -4.1736979483454881e+00 -7.0234067820410750e-01 4 1 -1
569 190 2 4.0999999999999998e-01 -9.1787799357742195e+00 -7.2839341196226464e+00 1.9328942371434792e+00 2 2 -3
526 176 1 -8.1999999999999995e-01 -1.1106673374820424e+01 -2.5586226105661627e+00 -1.5314666020857128e+00 0 0 4
744 248 2 4.0999999999999998e-01 -1.3209065089429643e+01 -4.2109796810383884e+00 1.8786044709065273e+00 -3 1 -9
33 11 2 4.0999999999999998e-01 -8.3139443814427949e+00 -3.5886766154643954e+00 -7.2013044921679104e-01 -4 -2 0
577 193 1 -8.1999999999999995e-01 -1.1994489212036115e+01 -8.4419429895814524e-01 3.6537276363476323e-01 -4 8 2
578 193 2 4.0999999999999998e-01 -1.1616127953586519e+01 -1.5822708495159095e+00 -1.9325170450930074e-01 -4 8 2
579 193 2 4.0999999999999998e-01 -1.2370191560713501e+01 -1.2247464639402992e+00 1.2103599622136691e+00 -4 8 2
528 176 2 4.0999999999999998e-01 -1.1381336053235799e+01 -2.3875972900977533e+00 -2.4776623763304322e+00 0 0 4
527 176 2 4.0999999999999998e-01 -1.0115992251615964e+01 -2.4515493648496403e+00 -1.4474309362474571e+00 0 0 4
434 145 2 4.0999999999999998e-01 -1.2166526308195179e+01 -3.5840859901144171e+00 -6.0255419146738909e-01 4 1 -1
2400 800 2 4.0999999999999998e-01 -1.0400961853690037e+01 -2.3733922896107806e+00 5.0021775440713121e+00 -6 4 -3
966 322 2 4.0999999999999998e-01 -1.2361649331451012e+01 -3.2342555404665401e+00 -4.9374488245358883e+00 0 4 -5
894 298 2 4.0999999999999998e-01 -9.6794333696217052e+00 -1.0994728958539957e+01 7.1162942060350751e+00 -3 0 2
1637 546 2 4.0999999999999998e-01 -1.1520309744750204e+01 -1.2023405381704574e+01 8.8262763945676674e+00 1 -1 -4
1638 546 2 4.0999999999999998e-01 -1.1344177684375124e+01 -1.3624673661692832e+01 9.0936313263000663e+00 1 -1 -4
509 170 2 4.0999999999999998e-01 -1.0062831090751335e+01 -1.3199628475729508e+01 5.8375760104828132e+00 3 3 -3
1636 546 1 -8.1999999999999995e-01 -1.1955446954034093e+01 -1.2840928089939293e+01 9.2034869673325588e+00 1 -1 -4
1844 615 2 4.0999999999999998e-01 -1.2114139591965918e+01 -1.0792109302469740e+01 1.1759296110226547e+01 -7 2 2
1266 422 2 4.0999999999999998e-01 -1.4374779392622562e+01 -1.3050288235463098e+01 8.1987912191176200e+00 -1 -3 -8
2099 700 2 4.0999999999999998e-01 -8.5536615430047416e+00 -1.1318166253840694e+01 1.0469667794970899e+01 -1 3 0
593 198 2 4.0999999999999998e-01 -8.3896724470232265e+00 -1.4573927374486276e+01 8.8893097129466518e+00 -1 -1 -5
1843 615 1 -8.1999999999999995e-01 -1.1566968148072926e+01 -1.1588895886234958e+01 1.1502956200500623e+01 -7 2 2
227 76 2 4.0999999999999998e-01 -1.1251195015209452e+01 -1.2825509937650533e+01 1.2591940748900981e+01 1 -4 -1
228 76 2 4.0999999999999998e-01 -1.0644344439867535e+01 -1.3531339317633661e+01 1.3933618233334165e+01 1 -4 -1
226 76 1 -8.1999999999999995e-01 -1.1214128356653884e+01 -1.3671469919344897e+01 1.3123874275457272e+01 1 -4 -1
1845 615 2 4.0999999999999998e-01 -1.2080615561278272e+01 -1.2151554188670378e+01 1.0855223626590519e+01 -7 2 2
151 51 1 -8.1999999999999995e-01 -1.4200971465943818e+01 -1.3558630064224060e+01 1.2889909637611058e+01 -1 3 -4
2098 700 1 -8.1999999999999995e-01 -8.9661421748224726e+00 -1.0599133400582215e+01 1.1028977169427609e+01 -1 3 0
2100 700 2 4.0999999999999998e-01 -9.9115849961680738e+00 -1.0844562079552359e+01 1.1243169010149860e+01 -1 3 0
893 298 2 4.0999999999999998e-01 -1.0844417613746367e+01 -1.1958862279015751e+01 6.4999990008807877e+00 -3 0 2
892 298 1 -8.1999999999999995e-01 -1.0618025152792605e+01 -1.1318915441204059e+01 7.2342946026740300e+00 -3 0 2
153 51 2 4.0999999999999998e-01 -1.3333996284712914e+01 -1.3060737051237727e+01 1.2869122281904904e+01 -1 3 -4
1084 362 1 -8.1999999999999995e-01 -9.4626552312745318e+00 -1.3007248128370096e+01 1.5018747822325786e+01 2 2 4
2463 821 2 4.0999999999999998e-01 -1.2934794894198507e+01 -1.3947147601961172e+01 8.0136536018532141e+00 1 1 -2
1559 520 2 4.0999999999999998e-01 -9.0333145629460567e+00 -9.4905364503191620e+00 1.4466670740124499e+01 -1 7 -5
1876 626 1 -8.1999999999999995e-01 -1.0096648825872549e+01 -7.8624144650200121e+00 1.4840454255178486e+01 1 5 -2
2040 680 2 4.0999999999999998e-01 -1.1149963973146985e+01 -9.4789023871449238e+00 7.5084892682160316e+00 4 0 -11
2461 821 1 -8.1999999999999995e-01 -1.3465186941124383e+01 -1.4596587994924137e+01 7.4687802733608919e+00 1 1 -2
1085 362 2 4.0999999999999998e-01 -9.1793261940754718e+00 -1.2062837968751527e+01 1.4852045582405221e+01 2 2 4
1558 520 1 -8.1999999999999995e-01 -8.5503790565688220e+00 -1.0316108537329026e+01 1.4758526161852323e+01 -1 7 -5
407 136 2 4.0999999999999998e-01 -1.2694648220704275e+01 -7.7307226816157240e+00 7.1268671006583801e+00 1 1 -3
2038 680 1 -8.1999999999999995e-01 -1.1195384369455802e+01 -8.5136956415876526e+00 7.2510238912722400e+00 4 0 -11
2039 680 2 4.0999999999999998e-01 -1.0594345847987327e+01 -7.9811356217256719e+00 7.8469333003255386e+00 4 0 -11
1586 529 2 4.0999999999999998e-01 -1.1093419567949983e+01 -8.0169613601020870e+00 1.1415116819359135e+01 -1 1 -4
1955 652 2 4.0999999999999998e-01 -7.7182308215729449e+00 -1.3407129792962381e+01 7.2067105449093312e+00 -3 1 -7
548 183 2 4.0999999999999998e-01 -1.1475014153472408e+01 -8.8061844296764153e+00 5.4535343891755481e+00 2 3 -4
986 329 2 4.0999999999999998e-01 -8.2483416897142661e+00 -8.6047420525318934e+00 1.0927678440039223e+01 -3 -6 -2
280 94 1 -8.1999999999999995e-01 -1.3021433543867497e+01 -9.4262250673136716e+00 1.1941440004443244e+01 -2 0 -3
282 94 2 4.0999999999999998e-01 -1.2558558276690638e+01 -8.9582155916257555e+00 1.2694227604192807e+01 -2 0 -3
1560 520 2 4.0999999999999998e-01 -7.6162961462106873e+00 -1.0299501062924570e+01 1.4401890587312366e+01 -1 7 -5
1954 652 1 -8.1999999999999995e-01 -8.1632356666455443e+00 -1.3304146560623137e+01 6.3171371119606974e+00 -3 1 -7
1956 652 2 4.0999999999999998e-01 -7.9902982028868337e+00 -1.2385361062680676e+01 5.9623113143734052e+00 -3 1 -7
1124 375 2 4.0999999999999998e-01 -8.0737291830272682e+00 -9.5669472213286877e+00 5.9010644031649555e+00 -2 2 -3
2214 738 2 4.0999999999999998e-01 -1.4086298606462019e+01 -1.3261011757231698e+01 1.4671704696319118e+01 -6 -2 -1
592 198 1 -8.1999999999999995e-01 -9.3374912519815432e+00 -1.4857714832203420e+01 9.0344983175875377e+00 -1 -1 -5
1812 604 2 4.0999999999999998e-01 -1.4789482115646083e+01 -7.8256048288805724e+00 5.8254324206118966e+00 5 1 -1
1123 375 1 -8.1999999999999995e-01 -7.8608420757450324e+00 -1.0301101854245033e+01 6.5457904670420675e+00 -2 2 -3
1877 626 2 4.0999999999999998e-01 -1.0131637525941898e+01 -7.7206615287010125e+00 1.3851183066101267e+01 1 5 -2
508 170 1 -8.1999999999999995e-01 -1.0910975987568992e+01 -1.3078549998802558e+01 5.3218572928416563e+00 3 3 -3
2276 759 2 4.0999999999999998e-01 -9.6873617221807642e+00 -8.5497948826481220e+00 5.2451975787489786e+00 3 0 -2
2275 759 1 -8.1999999999999995e-01 -8.8275799011944986e+00 -8.0867272483730979e+00 5.0299780443144471e+00 3 0 -2
985 329 1 -8.1999999999999995e-01 -8.0187081870274852e+00 -7.6383769862711679e+00 1.0811995561062091e+01 -3 -6 -2
281 94 2 4.0999999999999998e-01 -1.3727677326729278e+01 -8.8288386652683037e+00 1.1561539012337974e+01 -2 0 -3
1046 349 2 4.0999999999999998e-01 -1.4330042915479748e+01 -1.1491654371849743e+01 5.2036843249364786e+00 4 0 1