LAMMPS data file via write_data, version 15 May 2015, timestep = 8008000

2611 atoms
6 atom types
1749 bonds
4 bond types
894 angles
3 angle types
44 dihedrals
3 dihedral types
10 impropers
1 improper types

-1.4926767820158663e+01 1.4926767820158663e+01 xlo xhi
-1.4926767820158663e+01 1.4926767820158663e+01 ylo yhi
-1.4926767820158663e+01 1.4926767820158663e+01 zlo zhi

Masses

1 15.9994
2 1.00794
3 12.0107
4 1.00794
5 12.0107
6 12.0107

Bond Coeffs # harmonic

1 1000 1
2 469 1.4
3 367 1.08
4 469 0.7

Angle Coeffs # harmonic

1 100 109.47
2 35 120
3 63 120

Dihedral Coeffs # opls

1 0 7.25 0 0
2 0 7.25 0 0
3 0 7.25 0 0

Improper Coeffs # cvff

1 2.5 -1 2

Atoms # full

301 101 1 -8.1999999999999995e-01 -1.0460755039813806e+01 -1.0764987528648227e+01 -9.9502399686363283e+00 -1 4 1
303 101 2 4.0999999999999998e-01 -1.1249524826206182e+01 -1.0559333956390629e+01 -1.0529540549153678e+01 -1 4 1
833 278 2 4.0999999999999998e-01 -1.4384341498572107e+01 -1.0387587007377366e+01 -8.5332265258145412e+00 2 2 0
832 278 1 -8.1999999999999995e-01 -1.3474970305399760e+01 -9.9724604234631791e+00 -8.5606903822581124e+00 2 2 0
834 278 2 4.0999999999999998e-01 -1.3093158522860778e+01 -1.0066728970616339e+01 -9.4801323384774143e+00 2 2 0
302 101 2 4.0999999999999998e-01 -9.6184957778209927e+00 -1.0609177296807420e+01 -1.0466343495467019e+01 -1 4 1
357 119 2 4.0999999999999998e-01 -7.2832913289839016e+00 -7.5217959439425330e+00 -9.3495832181290304e+00 4 2 0
355 119 1 -8.1999999999999995e-01 -7.4278141772636150e+00 -8.4303014321505039e+00 -8.9574464523282380e+00 4 2 0
594 198 2 4.0999999999999998e-01 -1.1996045109599741e+01 -1.2655376497952876e+01 -1.3977762203756349e+01 3 4 -3
1523 508 2 4.0999999999999998e-01 -1.0223243684829036e+01 -9.8813204031261588e+00 -8.4588251459581834e+00 1 0 3
593 198 2 4.0999999999999998e-01 -1.1943697862286617e+01 -1.3004013566357191e+01 -1.2383257285294931e+01 3 4 -3
1282 428 1 -8.1999999999999995e-01 -1.3245165468478298e+01 -1.3178458636226077e+01 -8.0769599644784016e+00 2 0 -2
2493 831 2 4.0999999999999998e-01 -1.4122138552058601e+01 -1.2455535670644155e+01 -1.2442349836218444e+01 5 3 -1
108 36 2 4.0999999999999998e-01 -8.2493317252497071e+00 -1.0211211395914487e+01 -1.2223591578843138e+01 1 2 0
106 36 1 -8.1999999999999995e-01 -8.1501509515017592e+00 -1.0156622380903682e+01 -1.1230000353454493e+01 1 2 0
107 36 2 4.0999999999999998e-01 -7.1821501108146757e+00 -1.0221759721018561e+01 -1.0987571300204030e+01 1 2 0
320 107 2 4.0999999999999998e-01 -1.0957116984294849e+01 -1.2588940474309464e+01 -1.0335238862730751e+01 2 2 0
592 198 1 -8.1999999999999995e-01 -1.2512972107340739e+01 -1.2642740522522676e+01 -1.3121802434627554e+01 3 4 -3
740 247 2 4.0999999999999998e-01 -5.1370983877264411e+00 -1.2451854125370218e+01 -9.4780395280654552e+00 4 2 -2
356 119 2 4.0999999999999998e-01 -7.8519946247319359e+00 -9.0246421330943036e+00 -9.6407256089759237e+00 4 2 0
296 99 2 4.0999999999999998e-01 -1.2298727683956372e+01 -1.0594340464792200e+01 -1.2647807439538965e+01 1 4 -1
319 107 1 -8.1999999999999995e-01 -1.1178804008466788e+01 -1.3477070951002405e+01 -1.0737879440718784e+01 2 2 0
1283 428 2 4.0999999999999998e-01 -1.2392184063697934e+01 -1.3428108745506751e+01 -8.5353679161199274e+00 2 0 -2
1522 508 1 -8.1999999999999995e-01 -1.0197482656338007e+01 -9.5419797861266957e+00 -7.5184929536284235e+00 1 0 3
1524 508 2 4.0999999999999998e-01 -9.6305015959593483e+00 -8.7192990329507900e+00 -7.4764315748691823e+00 1 0 3
2200 734 1 -8.1999999999999995e-01 -5.5997618316733995e+00 -1.0305970230234788e+01 -1.0345739046449975e+01 2 -1 -1
2398 800 1 -8.1999999999999995e-01 -1.0082522064708904e+01 -9.8646187845492754e+00 -1.4198616943704026e+01 -1 5 -1
321 107 2 4.0999999999999998e-01 -1.0359854138076241e+01 -1.4050819399608688e+01 -1.0751076681411529e+01 2 2 0
295 99 1 -8.1999999999999995e-01 -1.2187086448568738e+01 -9.9122481333055799e+00 -1.1925085784098640e+01 1 4 -1
111 37 2 4.0999999999999998e-01 -6.3138906122549798e+00 -1.3180041729461204e+01 -1.2332208701510444e+01 -4 3 0
109 37 1 -8.1999999999999995e-01 -6.6226067106201008e+00 -1.2527590971768790e+01 -1.3024337797157688e+01 -4 3 0
110 37 2 4.0999999999999998e-01 -7.2120553409581065e+00 -1.2994748475063044e+01 -1.3683393551299993e+01 -4 3 0
796 266 1 -8.1999999999999995e-01 -7.8137621690178181e+00 -1.1994565796217138e+01 -7.6334146172847737e+00 2 1 -1
840 280 2 4.0999999999999998e-01 -1.2826095990380171e+01 -8.0670462616094092e+00 -7.9026871577141593e+00 1 1 5
741 247 2 4.0999999999999998e-01 -6.3922568647207019e+00 -1.2611597780013106e+01 -8.4456669507238882e+00 4 2 -2
739 247 1 -8.1999999999999995e-01 -5.6674102782204745e+00 -1.3100036216174768e+01 -8.9315328194938743e+00 4 2 -2
297 99 2 4.0999999999999998e-01 -1.2051176217498915e+01 -9.0106432406980588e+00 -1.2335789250500918e+01 1 4 -1
798 266 2 4.0999999999999998e-01 -8.7443409372173946e+00 -1.1825685577210880e+01 -7.9582883371485389e+00 2 1 -1
2202 734 2 4.0999999999999998e-01 -5.2056402445329066e+00 -1.0099982105114204e+01 -9.4500396606127204e+00 2 -1 -1
2298 766 2 4.0999999999999998e-01 -9.9934663185518193e+00 -1.1827731197161997e+01 -1.4452619835736096e+01 2 1 3
2399 800 2 4.0999999999999998e-01 -1.0492100737933642e+01 -9.1449226136637485e+00 -1.3637971736925401e+01 -1 5 -1
1337 446 2 4.0999999999999998e-01 -1.0175675000311074e+01 -1.4616124471365920e+01 -8.2232896354323994e+00 3 -1 2
1392 464 2 4.0999999999999998e-01 -5.0843660837412603e+00 -1.0947891492911694e+01 -1.3466146161813068e+01 -2 1 -1
1284 428 2 4.0999999999999998e-01 -1.3276319211139178e+01 -1.2187335673297135e+01 -7.9475574075241351e+00 2 0 -2
1697 566 2 4.0999999999999998e-01 -1.2692585491859367e+01 -1.4722341724509036e+01 -1.0904167824085665e+01 1 0 -2
2296 766 1 -8.1999999999999995e-01 -1.0210869967319784e+01 -1.2777887660662010e+01 -1.4676178910353581e+01 2 1 3
1358 453 2 4.0999999999999998e-01 -9.1764554294477154e+00 -8.5840841763894460e+00 -1.4791423781460583e+01 0 1 -1
2201 734 2 4.0999999999999998e-01 -5.1783860920984210e+00 -9.7201163151542609e+00 -1.1038023659428852e+01 2 -1 -1
2036 679 2 4.0999999999999998e-01 -1.1391133983811898e+01 -1.4373940274654203e+01 -1.4690553705600752e+01 3 2 -1
2400 800 2 4.0999999999999998e-01 -1.0725697413922749e+01 -1.0135998613853191e+01 -1.4914660789569353e+01 -1 5 -1
2281 761 1 -8.1999999999999995e-01 -9.1988923195688503e+00 -2.4563448770377896e+00 -1.1252182415441952e+01 3 2 -1
625 209 1 -8.1999999999999995e-01 -1.1564340219170749e+01 -7.2474786205064046e+00 -1.2967359355617155e+01 -1 -2 0
627 209 2 4.0999999999999998e-01 -1.2367103943974309e+01 -6.6521090256940525e+00 -1.3001208751803135e+01 -1 -2 0
626 209 2 4.0999999999999998e-01 -1.0789321072363450e+01 -6.7408706950766550e+00 -1.2589557744296492e+01 -1 -2 0
1668 556 2 4.0999999999999998e-01 -8.1752191682979571e+00 -3.9240772415910108e-01 -9.8327331361364507e+00 2 1 2
1179 393 2 4.0999999999999998e-01 -6.5893703052837918e+00 -5.8468438916834096e+00 -1.1071896878628301e+01 -1 1 0
2228 743 2 4.0999999999999998e-01 -1.4508545194845691e+01 -7.0085841980703911e-01 -1.4317380652181900e+01 4 -1 -2
838 280 1 -8.1999999999999995e-01 -1.2794535826881658e+01 -7.0920321354059146e+00 -8.1226683419780166e+00 1 1 5
977 326 2 4.0999999999999998e-01 -5.1962498256643066e+00 -7.2756766274940787e+00 -1.2432439053091215e+01 1 -1 1
159 53 2 4.0999999999999998e-01 -5.7255238335429421e+00 -2.0060169697581234e+00 -1.3549347385082559e+01 0 6 2
767 256 2 4.0999999999999998e-01 -9.4022395120110396e+00 -2.1872386984592627e+00 -1.4764177629260965e+01 3 2 1
762 254 2 4.0999999999999998e-01 -9.3771149433960197e+00 -4.5123507584125946e+00 -1.2177844763025879e+01 1 -1 -1
2260 754 1 -8.1999999999999995e-01 -1.3688240381821521e+01 -1.5092442768362417e+00 -1.2342093779620274e+01 3 -2 1
2587 863 1 -8.1999999999999995e-01 -1.4820056155613722e+01 -6.0167748810406128e+00 -9.5175067263026687e+00 1 3 -1
839 280 2 4.0999999999999998e-01 -1.1982060676411514e+01 -6.6827744521427270e+00 -7.7074183118210868e+00 1 1 5
2589 863 2 4.0999999999999998e-01 -1.4020508844562542e+01 -6.3002923108416518e+00 -8.9879953714905980e+00 1 3 -1
157 53 1 -8.1999999999999995e-01 -5.2319151899676033e+00 -1.9034233204139337e+00 -1.4412982360844435e+01 0 6 2
1352 451 2 4.0999999999999998e-01 -5.4023865933919719e+00 -5.6877508172598823e+00 -9.1039380031101551e+00 2 2 -1
760 254 1 -8.1999999999999995e-01 -9.4098447088441919e+00 -5.3687958200041859e+00 -1.2693083469933102e+01 1 -1 -1
399 133 2 4.0999999999999998e-01 -1.2083321273874219e+01 -1.3994964406615846e+00 -8.6398774829565177e+00 1 3 1
1178 393 2 4.0999999999999998e-01 -7.7512919208896953e+00 -5.5903720803288568e+00 -9.9534630005905456e+00 -1 1 0
1177 393 1 -8.1999999999999995e-01 -6.8095810707211992e+00 -5.8944276329644598e+00 -1.0097585167514460e+01 -1 1 0
761 254 2 4.0999999999999998e-01 -9.1035793195504908e+00 -5.2054832895025456e+00 -1.3630937861986441e+01 1 -1 -1
683 228 2 4.0999999999999998e-01 -8.8410541121798367e+00 -5.0560189928353658e+00 -8.0321248784899701e+00 -1 1 1
2070 690 2 4.0999999999999998e-01 -1.1967091773070660e+01 -4.8250416704742101e+00 -1.1300403283545437e+01 4 -3 3
397 133 1 -8.1999999999999995e-01 -1.2575749505183431e+01 -2.2505584223780204e+00 -8.4575364554028667e+00 1 3 1
2393 798 2 4.0999999999999998e-01 -9.1436998077849090e+00 -3.7468762407396099e+00 -1.0131571353112681e+01 3 1 2
2392 798 1 -8.1999999999999995e-01 -9.3816562842211741e+00 -4.5354271963153518e+00 -9.5644695531878341e+00 3 1 2
531 177 2 4.0999999999999998e-01 -1.2915364138179427e+01 -4.5668769758106134e+00 -1.3936574285890465e+01 0 -1 2
2262 754 2 4.0999999999999998e-01 -1.2904287710744679e+01 -1.0328550244875832e+00 -1.1943958320025635e+01 3 -2 1
2380 794 1 -8.1999999999999995e-01 -8.1429763107449933e+00 -7.6743323671346708e-01 -7.6408515798153029e+00 4 3 1
1217 406 2 4.0999999999999998e-01 -6.1449779957726900e+00 -5.4103901803871501e+00 -1.3383522679186793e+01 0 2 -2
1216 406 1 -8.1999999999999995e-01 -6.5207478747286238e+00 -5.9886518585399333e+00 -1.2659332951090420e+01 0 2 -2
1218 406 2 4.0999999999999998e-01 -7.3182247963335518e+00 -6.4819685178152096e+00 -1.3006765745718630e+01 0 2 -2
768 256 2 4.0999999999999998e-01 -9.8649291732311877e+00 -2.5922167874260023e+00 -1.3251350802634166e+01 3 2 1
2261 754 2 4.0999999999999998e-01 -1.3390719916438872e+01 -2.3894214824228293e+00 -1.2711972102025673e+01 3 -2 1
2069 690 2 4.0999999999999998e-01 -1.3044976944219805e+01 -4.9960949705600068e+00 -1.0085644747208150e+01 4 -3 3
185 62 2 4.0999999999999998e-01 -5.2265575869126568e+00 -2.1829950035799577e+00 -8.8985545970770534e+00 2 0 -1
1275 425 2 4.0999999999999998e-01 -6.0870241546144541e+00 -7.2674820378809635e-01 -1.2075849603545420e+01 1 2 2
2394 798 2 4.0999999999999998e-01 -1.0335869443056831e+01 -4.7868388947947480e+00 -9.7266723231129788e+00 3 1 2
1274 425 2 4.0999999999999998e-01 -5.8013210554070529e+00 -2.0507454134394187e+00 -1.1163633013006812e+01 1 2 2
1273 425 1 -8.1999999999999995e-01 -6.3399508041985229e+00 -1.6818031253308678e+00 -1.1921128829748010e+01 1 2 2
530 177 2 4.0999999999999998e-01 -1.4074756561025177e+01 -5.1447736738216374e+00 -1.2942301381307455e+01 0 -1 2
2282 761 2 4.0999999999999998e-01 -9.8283633721470238e+00 -1.7335715150227546e+00 -1.0966866496642330e+01 3 2 -1
780 260 2 4.0999999999999998e-01 -1.1347414326802198e+01 -1.1915483774368063e-01 -1.0480146435790207e+01 2 4 -1
2283 761 2 4.0999999999999998e-01 -8.3640744321520017e+00 -2.0457024222775093e+00 -1.1618914183247652e+01 3 2 -1
975 325 2 4.0999999999999998e-01 -1.4729453331436698e+01 -5.4680929111790988e-01 -1.1366949641339719e+01 2 -1 1
529 177 1 -8.1999999999999995e-01 -1.3089156294355220e+01 -5.0906993471408093e+00 -1.3102639803848694e+01 0 -1 2
2068 690 1 -8.1999999999999995e-01 -1.2114756940114258e+01 -4.7118187947541852e+00 -1.0317847488262968e+01 4 -3 3
778 260 1 -8.1999999999999995e-01 -1.1309705034650364e+01 -4.8355030626792050e-01 -1.1410648595635379e+01 2 4 -1
398 133 2 4.0999999999999998e-01 -1.2566004365405341e+01 -2.8234556528366515e+00 -9.2771303197842698e+00 1 3 1
587 196 2 4.0999999999999998e-01 -6.6002307393617201e+00 -1.5478864288325411e+00 -7.5113888696648861e+00 0 -1 0
766 256 1 -8.1999999999999995e-01 -1.0122225768474911e+01 -2.0900723353768100e+00 -1.4076995841738052e+01 3 2 1
812 271 2 4.0999999999999998e-01 -1.1436072720977560e+01 -2.9818927270755093e+00 -1.4849687506926681e+01 -1 2 -1
1593 531 2 4.0999999999999998e-01 -1.0975255072965846e+01 -1.0979101185916651e+01 -3.4343220104498275e+00 1 1 -3
1591 531 1 -8.1999999999999995e-01 -1.0772308822351564e+01 -1.0181631278317866e+01 -4.0025604077328296e+00 1 1 -3
1592 531 2 4.0999999999999998e-01 -1.1560225523196628e+01 -9.9770016027857089e+00 -4.5833824853215219e+00 1 1 -3
877 293 1 -8.1999999999999995e-01 -8.3981047239522972e+00 -9.0375399512443479e+00 -4.3908210992976269e+00 7 0 1
878 293 2 4.0999999999999998e-01 -9.3015945959741710e+00 -9.4647340487136447e+00 -4.3554433355109499e+00 7 0 1
879 293 2 4.0999999999999998e-01 -8.3583326559160458e+00 -8.2867775476142036e+00 -3.7314165857664499e+00 7 0 1
49 17 1 -8.1999999999999995e-01 -1.4243446300467204e+01 -1.1812322468248666e+01 -4.3132469296658229e+00 -2 4 1
1832 611 2 4.0999999999999998e-01 -1.2729174856193081e+01 -1.4871053034593460e+01 -1.3436002053718372e+00 -1 0 -1
1474 492 1 -8.1999999999999995e-01 -1.2356696369907114e+01 -1.0338570147356695e+01 -6.1311775540355260e+00 2 1 1
2321 774 2 4.0999999999999998e-01 -1.0713362702006766e+01 -1.3429952927728788e+01 -1.5252363199741037e+00 2 4 -2
143 48 2 4.0999999999999998e-01 -6.1956064929919865e+00 -9.4099141227236736e+00 -2.2330578570241393e+00 0 2 2
51 17 2 4.0999999999999998e-01 -1.3472694096388482e+01 -1.2004503260099664e+01 -4.9207400542479753e+00 -2 4 1
610 204 1 -8.1999999999999995e-01 -6.6557780918091414e+00 -9.2907740328986499e+00 -6.5579399365676831e+00 -1 0 -4
611 204 2 4.0999999999999998e-01 -7.4236118909652777e+00 -9.3568912360690124e+00 -5.9206801040075590e+00 -1 0 -4
646 216 1 -8.1999999999999995e-01 -5.2072700004799213e+00 -1.2912520104490390e+01 -5.4738080347560327e+00 1 4 2
53 18 2 4.0999999999999998e-01 -6.0102086674777109e+00 -1.2467438323134532e+01 -3.8334818006370721e+00 -1 1 -2
2320 774 1 -8.1999999999999995e-01 -9.8677507367402448e+00 -1.2914911616338687e+01 -1.3848327003559788e+00 2 4 -2
2140 714 1 -8.1999999999999995e-01 -1.2773103388803179e+01 -1.1374688770339670e+01 -1.6569330679997680e+00 4 5 1
696 232 2 4.0999999999999998e-01 -1.3518017389040407e+01 -8.3843422581244358e+00 -1.9615215083670829e+00 1 4 0
52 18 1 -8.1999999999999995e-01 -6.5510958389628815e+00 -1.2725130368321093e+01 -3.0328094539393327e+00 -1 1 -2
50 17 2 4.0999999999999998e-01 -1.3899619229485534e+01 -1.1531428826217210e+01 -3.4171877658961414e+00 -2 4 1
1258 420 1 -8.1999999999999995e-01 -8.0120486921297882e+00 -1.4657697943648033e+01 -1.2966005807808205e+00 3 6 -3
956 319 2 4.0999999999999998e-01 -1.3319051545087941e+01 -9.6736730951572660e+00 -4.6046069249426349e+00 0 2 0
1362 454 2 4.0999999999999998e-01 -5.3067689539764373e+00 -9.6631614779047954e+00 -5.3855287344025484e+00 2 2 2
54 18 2 4.0999999999999998e-01 -7.4399591426781537e+00 -1.3074424462803748e+01 -3.3293832195519553e+00 -1 1 -2
957 319 2 4.0999999999999998e-01 -1.4409181796116492e+01 -8.5439621875012861e+00 -4.1550479419210831e+00 0 2 0
955 319 1 -8.1999999999999995e-01 -1.3511082553691418e+01 -8.9365351433146287e+00 -3.9566933081432474e+00 0 2 0
919 307 1 -8.1999999999999995e-01 -1.1455857251100468e+01 -1.3379165965616076e+01 -4.7934294188662836e+00 4 -1 1
920 307 2 4.0999999999999998e-01 -1.0602900816919373e+01 -1.3237762394002363e+01 -4.2909250288269867e+00 4 -1 1
1476 492 2 4.0999999999999998e-01 -1.1414413193914937e+01 -1.0293538776269063e+01 -6.4630132069164627e+00 2 1 1
1139 380 2 4.0999999999999998e-01 -5.1162569998485647e+00 -1.2874672842628220e+01 -2.1228594219772194e+00 1 -1 3
1831 611 1 -8.1999999999999995e-01 -1.1978528239042522e+01 -1.4563797414540558e+01 -7.5865238707226368e-01 -1 0 -1
142 48 1 -8.1999999999999995e-01 -6.4286297040350320e+00 -1.0230161862376441e+01 -1.7106268684595936e+00 0 2 2
612 204 2 4.0999999999999998e-01 -6.9821892829136871e+00 -8.9475853719571123e+00 -7.4386882733969308e+00 -1 0 -4
836 279 2 4.0999999999999998e-01 -8.4055118639076376e+00 -1.4089059775401330e+01 -5.5976533111103777e+00 3 4 0
921 307 2 4.0999999999999998e-01 -1.1264827340296199e+01 -1.3872045652288090e+01 -5.6423213432869179e+00 4 -1 1
1336 446 1 -8.1999999999999995e-01 -1.0485870677935178e+01 -1.4522819091906147e+01 -7.2771854888055207e+00 3 -1 2
2559 853 2 4.0999999999999998e-01 -1.1994111328289975e+01 -7.9335755683474449e+00 -3.7397652330980105e+00 -1 5 -2
1475 492 2 4.0999999999999998e-01 -1.2982491215516795e+01 -1.0087234895394428e+01 -6.8695891654229495e+00 2 1 1
144 48 2 4.0999999999999998e-01 -6.6584020090904996e+00 -1.0972302041922362e+01 -2.3402878565120808e+00 0 2 2
1598 533 2 4.0999999999999998e-01 -1.3336530583055595e+01 -1.4729869793877274e+01 -3.3697628614743600e+00 -2 3 -3
2142 714 2 4.0999999999999998e-01 -1.3012329198839890e+01 -1.0489867033964966e+01 -1.2570558081818852e+00 4 5 1
648 216 2 4.0999999999999998e-01 -5.7513988135906846e+00 -1.2746947439827300e+01 -6.2963345295798163e+00 1 4 2
694 232 1 -8.1999999999999995e-01 -1.3293807004909610e+01 -8.6610988217146172e+00 -1.0270827372447400e+00 1 4 0
2322 774 2 4.0999999999999998e-01 -9.0836287845498269e+00 -1.3494900040022614e+01 -1.6057547134804295e+00 2 4 -2
835 279 1 -8.1999999999999995e-01 -8.4774941143421891e+00 -1.4016523101431062e+01 -4.6028682626148782e+00 3 4 0
2141 714 2 4.0999999999999998e-01 -1.2161910175611400e+01 -1.1866448568075192e+01 -1.0367270776459918e+00 4 5 1
2133 711 2 4.0999999999999998e-01 -7.9249255184660310e+00 -9.3940811371874702e+00 -5.9990328817697325e-01 0 3 -3
2558 853 2 4.0999999999999998e-01 -1.0395267235844939e+01 -7.8334256043371449e+00 -3.4229032313214560e+00 -1 5 -2
797 266 2 4.0999999999999998e-01 -7.6081717265705366e+00 -1.1376213109870136e+01 -6.8748549085106632e+00 2 1 -1
1659 553 2 4.0999999999999998e-01 -8.4365512787465455e+00 -7.7647580013448527e+00 -1.2716955450366267e+00 1 0 -6
695 232 2 4.0999999999999998e-01 -1.4086431494645701e+01 -8.5116772161790006e+00 -4.3593139705951955e-01 1 4 0
522 174 2 4.0999999999999998e-01 -1.4432218905130984e+01 -1.4596382828081744e+01 -7.2447577244390757e+00 2 1 0
1260 420 2 4.0999999999999998e-01 -7.0680963298717430e+00 -1.4860893141231667e+01 -1.0363968480474597e+00 3 6 -3
1223 408 2 4.0999999999999998e-01 -5.0150957066628639e+00 -1.4375269580144856e+01 -9.9230700327903421e-01 4 2 1
2438 813 2 4.0999999999999998e-01 -1.1667057428505689e+01 -7.7578335077686189e+00 -4.6568316618866845e-04 1 4 1
756 252 2 4.0999999999999998e-01 -5.1961864357000866e+00 -7.4960366516311971e-01 -4.9966515018516997e+00 0 0 -2
19 7 1 -8.1999999999999995e-01 -7.5934681675855700e+00 -2.7422566427070176e+00 -6.6083779639402707e-02 5 -1 0
682 228 1 -8.1999999999999995e-01 -8.7236943769891404e+00 -5.3659482354036090e+00 -7.0886149939095047e+00 -1 1 1
1234 412 1 -8.1999999999999995e-01 -1.4238994169756262e+01 -5.5843186841325263e+00 -6.0132447330172365e+00 2 0 -2
1662 554 2 4.0999999999999998e-01 -5.4032078263430847e+00 -6.1888135299092433e+00 -9.7022087452989147e-01 0 1 0
684 228 2 4.0999999999999998e-01 -7.8846655617800510e+00 -4.9741807634336421e+00 -6.7110051151203347e+00 -1 1 1
1660 554 1 -8.1999999999999995e-01 -5.0548463297107151e+00 -6.3700962325227817e+00 -1.8899062367702140e+00 0 1 0
316 106 1 -8.1999999999999995e-01 -6.7188889571102415e+00 -4.4022269096897659e-01 -4.1262123030541407e+00 3 2 -5
96 32 2 4.0999999999999998e-01 -9.6468919542504921e+00 -5.2796343196275508e-01 -4.3658285843753930e-01 2 1 -1
588 196 2 4.0999999999999998e-01 -5.1916825240535172e+00 -1.5460926867515834e+00 -6.6851185130108686e+00 0 -1 0
2038 680 1 -8.1999999999999995e-01 -7.7630217309703191e+00 -3.2530337322660170e+00 -3.0600578816790787e+00 0 1 -3
1798 600 1 -8.1999999999999995e-01 -1.4530790644580801e+01 -2.6881762312052793e+00 -3.0112813023412404e+00 2 2 -3
708 236 2 4.0999999999999998e-01 -1.1763585039367161e+01 -3.3734174259389338e+00 -1.4720042042311814e+00 0 4 3
1202 401 2 4.0999999999999998e-01 -1.3661389555492086e+01 -2.5090815616593627e+00 -6.7648418161256352e+00 3 2 0
1799 600 2 4.0999999999999998e-01 -1.4283122162765883e+01 -2.5771320348362003e+00 -3.9737623810509124e+00 2 2 -3
1201 401 1 -8.1999999999999995e-01 -1.4079868184664660e+01 -2.8701773852873220e+00 -5.9314596864424036e+00 3 2 0
2230 744 1 -8.1999999999999995e-01 -1.0114588745478237e+01 -4.8125453080177980e+00 -3.2360545525937177e+00 2 1 -2
94 32 1 -8.1999999999999995e-01 -8.7066889240818668e+00 -2.5782792718565162e-01 -6.4415308845468644e-01 2 1 -1
1203 401 2 4.0999999999999998e-01 -1.4044958912395938e+01 -3.8694680911532657e+00 -5.9469438856296328e+00 3 2 0
132 44 2 4.0999999999999998e-01 -5.7368074058009562e+00 -4.3337824985630657e+00 -5.2840074534079928e+00 2 1 0
1859 620 2 4.0999999999999998e-01 -1.0821613414835385e+01 -3.6449598914637278e+00 -6.1545448437977033e+00 1 0 -5
318 106 2 4.0999999999999998e-01 -7.0030828317714482e+00 -1.2590333439383095e+00 -3.6273904284920366e+00 3 2 -5
1761 587 2 4.0999999999999998e-01 -5.1546895985858843e+00 -4.8073549806445648e+00 -2.9581497350400490e+00 -2 3 -1
2170 724 1 -8.1999999999999995e-01 -1.3675470712843397e+01 -5.7687137940687130e+00 -3.3931173942975459e+00 3 1 1
615 205 2 4.0999999999999998e-01 -1.0166556832637919e+01 -5.9425833056944324e+00 -6.6373869826491116e+00 -1 0 -2
2567 856 2 4.0999999999999998e-01 -1.4322219754655729e+01 -5.6960366509964508e+00 -1.8136473325903495e+00 4 2 -3
72 24 2 4.0999999999999998e-01 -1.0786173249786287e+01 -1.3415799499683256e+00 -5.6952037391577033e+00 3 4 -2
706 236 1 -8.1999999999999995e-01 -1.2460025519378597e+01 -2.6882101050343241e+00 -1.2586924690926402e+00 0 4 3
2040 680 2 4.0999999999999998e-01 -8.0245532750004038e+00 -2.8595010365041578e+00 -2.1787102888303380e+00 0 1 -3
2557 853 1 -8.1999999999999995e-01 -1.1219052259977810e+01 -7.3096135789100165e+00 -3.6397891772581730e+00 -1 5 -2
1858 620 1 -8.1999999999999995e-01 -1.0908154796430940e+01 -3.0351936168567786e+00 -5.3666768409852494e+00 1 0 -5
2197 733 1 -8.1999999999999995e-01 -9.3430849647905845e+00 -4.9761133667326760e+00 -8.2421233774416791e-02 4 2 1
130 44 1 -8.1999999999999995e-01 -5.9632043737022560e+00 -4.4343355521224037e+00 -6.2528592489136567e+00 2 1 0
95 32 2 4.0999999999999998e-01 -8.1009981722961157e+00 -1.0455611255341548e+00 -5.3165662166051675e-01 2 1 -1
2232 744 2 4.0999999999999998e-01 -1.0528002294770824e+01 -5.7199280995039210e+00 -3.1599886016232404e+00 2 1 -2
2199 733 2 4.0999999999999998e-01 -9.1773950275618539e+00 -5.1329078392326597e+00 -1.0560755120887393e+00 4 2 1
1760 587 2 4.0999999999999998e-01 -6.2252067108128895e+00 -3.7110209087487096e+00 -3.5227546399128542e+00 -2 3 -1
131 44 2 4.0999999999999998e-01 -6.0009935071177409e+00 -3.5317465374206432e+00 -6.6817477704600599e+00 2 1 0
613 205 1 -8.1999999999999995e-01 -1.1030911154905475e+01 -5.9731941476491173e+00 -6.1353960204071356e+00 -1 0 -2
1235 412 2 4.0999999999999998e-01 -1.3591621885738574e+01 -6.1461136628455861e+00 -6.5283523327571160e+00 2 0 -2
2231 744 2 4.0999999999999998e-01 -1.0469173003103601e+01 -4.3518540432837884e+00 -4.0497337736399857e+00 2 1 -2
2171 724 2 4.0999999999999998e-01 -1.2894758752833635e+01 -6.3729791732185053e+00 -3.5524676420828492e+00 3 1 1
2172 724 2 4.0999999999999998e-01 -1.4005179592150252e+01 -5.4125071128807534e+00 -4.2674452372109570e+00 3 1 1
2463 821 2 4.0999999999999998e-01 -1.3989407979177106e+01 -2.7914765428673753e+00 -1.2569840992708059e-01 2 3 3
586 196 1 -8.1999999999999995e-01 -5.8028912961123673e+00 -2.0946226020878775e+00 -7.2557138886999724e+00 0 -1 0
1657 553 1 -8.1999999999999995e-01 -8.2415850239929203e+00 -7.3503066849152630e+00 -2.1606604365289304e+00 1 0 -6
70 24 1 -8.1999999999999995e-01 -1.0470804058226012e+01 -4.2172066522547524e-01 -5.9285307386026034e+00 3 4 -2
1604 535 2 4.0999999999999998e-01 -1.3923035334688837e+01 -4.8845312010364239e-01 -2.4159123493916770e+00 5 -2 -2
707 236 2 4.0999999999999998e-01 -1.3206177860878171e+01 -2.7538723426445220e+00 -1.9212522656364133e+00 0 4 3
614 205 2 4.0999999999999998e-01 -1.0882203384899377e+01 -6.3952184823764142e+00 -5.2410684663405096e+00 -1 0 -2
1860 620 2 4.0999999999999998e-01 -1.1876180370823004e+01 -2.8700733990727905e+00 -5.1777268298330981e+00 1 0 -5
1658 553 2 4.0999999999999998e-01 -7.2784877103082861e+00 -7.0840037265135214e+00 -2.2002408438480483e+00 1 0 -6
1759 587 1 -8.1999999999999995e-01 -5.3616958089791371e+00 -4.1798403572256912e+00 -3.7087589191873853e+00 -2 3 -1
2039 680 2 4.0999999999999998e-01 -8.4766638353670452e+00 -3.8815899364200792e+00 -3.3693673740879611e+00 0 1 -3
2566 856 1 -8.1999999999999995e-01 -1.4798880969464676e+01 -5.4565917802536372e+00 -9.6777465686662723e-01 4 2 -3
2568 856 2 4.0999999999999998e-01 -1.4791682140534208e+01 -4.4634645029471791e+00 -8.5078443644231605e-01 4 2 -3
2382 794 2 4.0999999999999998e-01 -9.0012899195448810e+00 -1.1170392992547793e+00 -7.2652005842508087e+00 4 3 1
1117 373 1 -8.1999999999999995e-01 -9.1968550272144913e+00 -9.0184626829036816e+00 4.2030906324159929e+00 -1 3 -4
1118 373 2 4.0999999999999998e-01 -9.4894524828896465e+00 -8.7984455848504446e+00 5.1336923254245157e+00 -1 3 -4
1119 373 2 4.0999999999999998e-01 -8.7246509301902471e+00 -9.8999738265302497e+00 4.2017867031611793e+00 -1 3 -4
2501 834 2 4.0999999999999998e-01 -6.3923629188166036e+00 -1.0973302726654655e+01 3.9096672896071354e+00 0 2 0
1253 418 2 4.0999999999999998e-01 -1.3512306871922696e+01 -1.3652368181704373e+01 5.6006157781202397e+00 2 3 -5
2132 711 2 4.0999999999999998e-01 -8.8487870444606180e+00 -9.6804423120528327e+00 7.1585168061697324e-01 0 3 -3
1266 422 2 4.0999999999999998e-01 -7.0099554643929798e+00 -1.3297012061329994e+01 2.6433785873069198e+00 4 2 -4
1212 404 2 4.0999999999999998e-01 -1.0785545229052644e+01 -1.1655823939349071e+01 1.4540264172205610e+00 1 2 -2
1210 404 1 -8.1999999999999995e-01 -9.9854613673394219e+00 -1.1310009515728270e+01 9.6380349610585903e-01 1 2 -2
1211 404 2 4.0999999999999998e-01 -9.9228829784706214e+00 -1.1756366720767087e+01 7.1116811287359027e-02 1 2 -2
1231 411 1 -8.1999999999999995e-01 -1.2270286661084070e+01 -9.6221262888112342e+00 3.2764305940186560e+00 0 2 0
1232 411 2 4.0999999999999998e-01 -1.2009747966060614e+01 -1.0583281420389810e+01 3.3677581610804417e+00 0 2 0
618 206 2 4.0999999999999998e-01 -7.5203080830030302e+00 -7.4672817212399805e+00 2.9088135576762504e+00 1 4 0
441 147 2 4.0999999999999998e-01 -1.3736274536656431e+01 -9.4208469649352988e+00 2.1594095651521599e+00 -1 2 1
444 148 2 4.0999999999999998e-01 -1.4598749648307946e+01 -1.3658922111118018e+01 3.2643264500201568e+00 3 0 3
333 111 2 4.0999999999999998e-01 -1.3283670793647449e+01 -7.7964334721466919e+00 5.5756954256891547e+00 4 4 -4
1264 422 1 -8.1999999999999995e-01 -6.7947086335638893e+00 -1.4273417638754953e+01 2.6618519552807314e+00 4 2 -4
1332 444 2 4.0999999999999998e-01 -6.9156425950835168e+00 -1.1100259070275849e+01 3.6448961012015069e-01 0 -1 -3
315 105 2 4.0999999999999998e-01 -5.0971882992503748e+00 -1.3136502640376122e+01 6.1006076062583325e+00 0 3 0
2502 834 2 4.0999999999999998e-01 -6.5742056179740072e+00 -1.1006250985377930e+01 5.5321905182809630e+00 0 2 0
1233 411 2 4.0999999999999998e-01 -1.1452219511963619e+01 -9.0683330237884299e+00 3.1211261421745533e+00 0 2 0
1248 416 2 4.0999999999999998e-01 -7.7019460552199046e+00 -1.3064820220654688e+01 6.8919238151028033e+00 1 3 0
382 128 1 -8.1999999999999995e-01 -1.1733111735523295e+01 -1.2284944845773619e+01 2.9771448756784125e+00 3 0 -2
1330 444 1 -8.1999999999999995e-01 -7.1143328953874123e+00 -1.1704674116226560e+01 1.1360107919053313e+00 0 -1 -3
383 128 2 4.0999999999999998e-01 -1.1111141843794607e+01 -1.3054317697579203e+01 2.8313395461279605e+00 3 0 -2
2500 834 1 -8.1999999999999995e-01 -6.9404226446205639e+00 -1.1337602723449324e+01 4.6626323324937857e+00 0 2 0
2437 813 1 -8.1999999999999995e-01 -1.0929991864507082e+01 -7.5250790039487585e+00 6.3404201252433978e-01 1 4 1
910 304 1 -8.1999999999999995e-01 -6.0656198138229804e+00 -8.2887468611735393e+00 3.8859999044841445e+00 2 2 0
384 128 2 4.0999999999999998e-01 -1.2598115852168897e+01 -1.2621514842220520e+01 3.3493395087385487e+00 3 0 -2
1346 449 2 4.0999999999999998e-01 -8.5654812874790629e+00 -9.2936986522255189e+00 7.3232886342132097e+00 4 1 -3
97 33 1 -8.1999999999999995e-01 -5.9084206842568125e+00 -9.7146900393348190e+00 6.6268343672990504e+00 0 0 0
1331 444 2 4.0999999999999998e-01 -8.0857911212305247e+00 -1.1941935826724047e+01 1.1319963906270125e+00 0 -1 -3
1752 584 2 4.0999999999999998e-01 -8.4645729343379870e+00 -1.2429473420283706e+01 5.0663723699203906e+00 3 0 -3
1751 584 2 4.0999999999999998e-01 -9.7367779288085039e+00 -1.3342748080185936e+01 4.6036004768887899e+00 3 0 -3
1750 584 1 -8.1999999999999995e-01 -9.1068795713032440e+00 -1.3140167513821634e+01 5.3534201087131805e+00 3 0 -3
98 33 2 4.0999999999999998e-01 -6.3727919585580644e+00 -9.2408940734790050e+00 7.3751103935748255e+00 0 0 0
1945 649 1 -8.1999999999999995e-01 -1.1134575853674891e+01 -1.3172795716333523e+01 7.2573938821726962e+00 0 -1 -3
1947 649 2 4.0999999999999998e-01 -1.0455090615530331e+01 -1.3007363240750220e+01 6.5425706669190760e+00 0 -1 -3
331 111 1 -8.1999999999999995e-01 -1.3742392915269949e+01 -7.7325457964000481e+00 4.6893926008132709e+00 4 4 -4
2078 693 2 4.0999999999999998e-01 -1.4820504643569448e+01 -1.0163958608481686e+01 6.8805980848614361e+00 1 -3 -1
911 304 2 4.0999999999999998e-01 -6.4438337085919670e+00 -8.6505000798391443e+00 4.7381320331353933e+00 2 2 0
392 131 2 4.0999999999999998e-01 -1.2517057031716044e+01 -1.1492202431992936e+01 7.0046599973762405e+00 2 2 3
912 304 2 4.0999999999999998e-01 -5.6333295733665381e+00 -9.0297568008962390e+00 3.3721227503742206e+00 2 2 0
1252 418 1 -8.1999999999999995e-01 -1.3023210100328377e+01 -1.4470062088725795e+01 5.9042624999933828e+00 2 3 -5