2611
Atoms. Timestep: 23000000
O 6.2777 -3.61937 0.859135
H 5.48062 -4.20884 0.72808
H 7.0847 -4.05702 0.462642
O -6.83162 11.1231 -14.2649
H -7.26423 12.0119 -14.114
H -7.10463 10.7669 14.9262
O 0.265258 -9.22964 -11.678
H 0.239744 -8.7067 -10.8261
H 1.21294 -9.45885 -11.9002
O 8.27394 -10.861 -9.64427
H 7.92318 -10.62 -10.5492
H 7.98142 -11.788 -9.40946
O 4.88547 -13.2056 -1.50082
H 5.60902 -13.5654 -2.08993
H 4.27242 -12.6285 -2.04039
O -12.1775 -12.4328 3.06116
H -11.4906 -13.0587 3.43048
H -12.1723 -12.4838 2.06248
O -11.6628 -7.41771 -13.0901
H -10.8545 -6.93758 -12.7493
H -12.1611 -6.82438 -13.7223
O 11.7722 -0.279869 2.33088
H 11.2457 0.405452 1.82785
H 11.1465 -0.92082 2.77536
O 14.1794 -0.395081 -2.06381
H 14.9585 -0.358365 -1.43799
H 14.1248 -1.30494 -2.47512
O 6.89891 14.2944 -0.57011
H 6.62127 15.0182 0.0616585
H 6.23575 14.2305 -1.31584
O -8.43059 -4.85332 -1.53101
H -9.3186 -5.08215 -1.92985
H -8.30312 -5.36857 -0.68351
O 12.7471 10.5905 -0.100085
H 12.0069 10.4735 -0.762145
H 12.3818 10.9883 0.741519
O 11.7078 9.61483 -6.79795
H 12.4949 9.00777 -6.68861
H 11.8417 10.4371 -6.24477
O -11.1738 1.51995 -2.04441
H -11.1226 0.544774 -1.82902
H -11.2182 1.64037 -3.03614
O 14.2334 -1.08693 2.08579
H 14.7453 -0.686977 1.32552
H 13.3335 -0.655046 2.14549
O 9.49923 4.58211 -0.607571
H 8.72455 5.20338 -0.489662
H 9.61865 4.03703 0.222256
O 0.844977 -12.4033 -12.7481
H 1.49873 -11.6468 -12.7652
H 0.932488 -12.9 -11.8846
O 6.66041 -0.324895 9.33379
H 6.94245 0.491883 8.83048
H 6.03211 -0.0643213 10.0668
O -4.72116 14.1479 8.00823
H -4.56621 13.8851 7.0559
H -4.72949 13.3294 8.58272
O 5.91712 9.82351 12.2847
H 6.63413 9.14362 12.4384
H 5.22784 9.4469 11.6657
O -12.727 -11.7305 -11.372
H -13.0625 -12.1367 -10.522
H -13.162 -10.8408 -11.5107
O -9.46969 -0.17927 -7.59064
H -10.3533 -0.619426 -7.75018
H -8.73732 -0.850232 -7.70659
O -1.33311 2.56285 -11.4901
H -2.12484 2.55964 -10.8793
H -0.548235 2.96227 -11.0164
O 8.67641 -7.83783 8.34332
H 9.34786 -7.91964 7.60681
H 8.78073 -8.60503 8.97618
O 12.573 -13.0746 7.02563
H 12.8881 -13.9519 6.66389
H 13.2112 -12.3538 6.75502
O -0.370238 6.22262 -12.0513
H 0.219996 5.41741 -12.1082
H 0.193846 7.04422 -11.969
O 3.0959 -12.1776 -3.25564
H 2.16705 -12.4857 -3.46129
H 3.44115 -11.6286 -4.01682
O 13.6083 11.7789 13.0688
H 13.645 12.0677 12.1122
H 12.9657 12.3601 13.5681
O -6.86303 -4.40692 -11.6507
H -7.43412 -3.69151 -12.0533
H -7.32161 -4.78691 -10.8474
O 1.71165 6.60603 -5.33917
H 0.836465 6.92013 -5.70712
H 1.766 5.61022 -5.41266
O 14.3165 13.1935 10.7474
H -14.9131 13.1635 10.2298
H 13.8391 14.0504 10.5529
O -10.1231 6.7775 8.4157
H -9.22773 6.33276 8.43844
H -10.8358 6.10181 8.60419
O -10.8469 -8.71801 1.01777
H -10.2594 -8.15756 1.60147
H -11.7461 -8.81451 1.44448
O -9.64424 -3.87612 7.09668
H -8.81514 -4.40348 6.91101
H -10.4472 -4.45084 6.93868
O 7.76352 -13.738 -9.63086
H 7.10434 -14.3778 -10.0259
H 7.92809 -13.9774 -8.67401
O 7.36491 -5.35442 -0.948025
H 6.48758 -5.24142 -1.41441
H 8.09117 -4.9453 -1.50043
O 9.70508 -13.5533 -1.54506
H 9.28803 -12.6458 -1.4937
H 9.47391 -13.9773 -2.42071
O 9.1274 -7.50247 -6.09686
H 8.98243 -6.54282 -6.33781
H 8.96093 -8.07628 -6.89875
O 11.545 5.668 -1.98959
H 10.9676 5.2152 -1.31026
H 12.5065 5.48166 -1.78718
O 10.6054 -14.9977 4.657
H 9.77668 15.0322 4.10004
H 11.3517 -14.6213 4.10798
O 2.45907 -3.58114 11.8378
H 3.36872 -3.31999 11.5148
H 2.3942 -4.57809 11.881
O 8.34842 12.6467 -2.36857
H 7.64946 12.2491 -2.96301
H 8.02418 12.6407 -1.42262
O -12.4786 10.275 -12.7498
H -11.6788 10.2745 -13.35
H -12.5873 9.36994 -12.3386
O -0.92729 13.5907 11.2128
H -0.955033 14.5612 11.4525
H -0.934043 13.4929 10.2176
O -13.088 -9.00304 -2.75884
H -13.45 -9.8501 -2.36965
H -12.8802 -9.14313 -3.72692
O -5.74993 -14.4192 -7.33611
H -6.36204 -13.6329 -7.25241
H -5.86209 -14.8343 -8.23895
O 1.45239 4.06365 3.36974
H 1.08476 4.94856 3.65567
H 1.63131 4.07918 2.386
O -5.11205 2.94657 7.19166
H -4.28809 3.34856 6.79231
H -4.97251 1.96562 7.32675
O -8.66096 5.08297 2.0893
H -9.19479 4.30616 1.75525
H -7.76862 5.09286 1.63806
O 1.20487 11.705 -11.0182
H 1.82122 12.3565 -11.4605
H 1.74114 11.031 -10.5101
O -12.5702 14.3404 12.5467
H -12.6419 -14.7516 12.6437
H -11.7386 14.1143 12.0393
O 4.74448 -4.62777 -6.51082
H 5.14251 -4.96053 -7.36571
H 4.04327 -5.26844 -6.19803
O 7.17061 -6.0554 6.96893
H 7.7052 -6.73323 7.47366
H 7.70062 -5.7282 6.18662
O -2.76329 -4.34755 14.2145
H -2.71467 -3.91556 13.3139
H -3.72098 -4.45376 14.4819
O 8.20992 -10.125 14.9532
H 7.80622 -10.6924 14.2355
H 8.80652 -9.43774 14.5387
O 4.94688 -5.37763 -9.4146
H 5.41621 -4.70664 -9.98861
H 4.37509 -5.96468 -9.98768
O 2.15265 6.13569 -2.45187
H 2.19277 6.42358 -3.40869
H 2.29059 5.14687 -2.39525
O 12.8796 -10.3434 -3.35365
H 11.999 -10.1297 -3.7766
H 13.4162 -9.50484 -3.25907
O 11.3071 -7.93232 7.11913
H 11.381 -7.32262 6.32995
H 11.6697 -8.83297 6.87959
O -2.07943 -13.2111 13.6228
H -1.8139 -13.5117 12.7068
H -1.43252 -12.5212 13.9478
O -13.257 2.25076 -0.202943
H -12.5675 2.09046 -0.909192
H -12.8694 2.82669 0.516785
O -3.29648 -4.88203 4.05796
H -4.27195 -4.67675 4.13749
H -3.04608 -4.94146 3.09165
O 6.75468 -4.76502 -3.7397
H 7.70904 -4.4816 -3.83385
H 6.3317 -4.81725 -4.64433
O -1.20261 5.64906 14.5694
H -0.659776 5.57032 13.7332
H -0.902076 4.95929 -14.8566
O 12.0553 2.08285 9.82026
H 12.8469 1.89861 10.4029
H 11.6607 1.21771 9.51074
O 3.67113 4.73372 -7.38977
H 4.52447 5.18806 -7.13411
H 3.31405 5.14319 -8.2293
O 13.8465 -5.7783 9.54136
H 13.0898 -6.40669 9.72143
H 14.5427 -5.8828 10.2516
O -2.00984 11.3884 4.68348
H -2.51743 10.7969 5.30995
H -1.81313 12.2596 5.13334
O -7.1957 -5.60457 -14.6369
H -6.7492 -6.31057 14.898
H -6.50396 -5.08742 -14.1329
O -0.738333 3.19205 -14.5022
H -0.372605 2.91581 -13.6134
H -0.560142 2.47308 14.9107
O 10.4384 2.93193 -4.37928
H 10.4597 2.38367 -5.21531
H 11.3587 2.98456 -3.99171
O -1.41404 -3.13579 4.94688
H -0.650065 -3.75887 4.77926
H -2.27356 -3.59362 4.71971
O -0.430733 -2.62443 -12.0009
H -0.40452 -1.62769 -11.9247
H -0.513979 -2.88304 -12.9633
O 14.6426 10.8706 -9.10575
H 13.7307 10.9856 -8.71161
H 14.6692 11.2914 -10.0125
O 2.66517 14.89 9.02043
H 2.86631 13.9137 9.09948
H 2.79662 -14.7543 9.90857
O -10.3821 -13.7865 10.9831
H -11.1191 -13.1148 11.0579
H -9.77037 -13.699 11.7693
O 11.7605 -0.216081 5.91003
H 11.8258 -1.21162 5.97811
H 12.324 0.103546 5.14822
O -6.15825 -4.92254 3.86241
H -6.80113 -4.53169 3.20368
H -6.60295 -5.00337 4.75443
O -3.68692 8.68084 0.303353
H -4.67186 8.60602 0.459152
H -3.4304 8.11987 -0.48373
O -11.4549 1.85498 -4.85779
H -12.3635 2.2512 -4.72531
H -10.9241 2.43698 -5.47379
O -6.88398 -8.95058 8.53059
H -6.33976 -8.11629 8.6187
H -6.68501 -9.38722 7.65324
O 13.6799 -10.6444 -9.4145
H 12.9594 -10.1613 -8.91708
H 13.2736 -11.1726 -10.1601
O 7.59778 -2.23617 7.56779
H 6.78743 -2.69567 7.20423
H 7.34654 -1.71103 8.38087
O -10.4551 11.1481 10.8007
H -9.83379 10.6458 10.1993
H -11.0407 10.5016 11.2898
O 14.6461 -14.8368 -10.1259
H 13.9498 -14.5711 -10.7927
H -14.5915 15.0148 -10.6035
O 11.3298 -14.3049 12.8385
H 11.7505 -13.7983 13.591
H 11.3904 -13.7655 11.9986
O 4.74033 -2.42748 -10.8828
H 4.14067 -2.952 -10.2784
H 4.46112 -1.46726 -10.878
O -8.64741 -7.28954 -12.6037
H -8.41329 -8.13805 -13.0783
H -8.03261 -6.55979 -12.9029
O 1.18605 12.4843 12.4202
H 0.572549 13.112 11.941
H 0.679152 11.667 12.6942
O 2.12355 13.8435 -15.0176
H 3.06079 14.19 15.028
H 1.93208 13.3068 14.2454
O 8.86215 -15.0405 -3.63884
H 9.45988 14.6557 -4.34014
H 8.52978 14.3137 -3.04224
O 10.2964 -9.55862 -4.50667
H 9.98981 -8.8956 -5.18962
H 9.58925 -10.2535 -4.37584
O 8.79616 -4.86464 5.03113
H 7.92431 -4.5792 4.63315
H 9.29406 -5.42929 4.37292
O -13.4034 -7.84283 10.1494
H -12.4784 -7.7066 9.79479
H -13.6488 -7.07686 10.7436
O -5.94547 -2.13125 11.1157
H -6.60388 -2.16337 10.3637
H -5.02657 -1.98778 10.7482
O -4.93319 10.8595 -12.3789
H -4.3248 10.087 -12.5607
H -5.61426 10.9262 -13.1081
O -6.47578 8.7781 0.593254
H -7.1018 8.13876 0.146794
H -6.76896 8.92704 1.53763
O -10.2355 -14.8954 -4.87283
H -10.4959 14.9867 -5.81685
H -10.7845 -14.1322 -4.53212
O -14.8029 -14.7593 -5.01373
H -14.4915 -13.8096 -5.04545
H -14.5833 14.8735 -5.87835
O -4.87297 12.8277 -5.93229
H -5.22916 13.242 -6.76982
H -4.26532 12.0693 -6.16793
O -14.2419 2.32945 -4.12671
H -14.4516 3.30399 -4.04725
H -14.0122 1.96333 -3.22495
O 6.18989 -0.470799 12.3487
H 5.99842 0.510433 12.3715
H 7.1774 -0.619027 12.402
O -10.1957 10.1856 4.21053
H -9.36905 10.1465 4.77195
H -10.9693 10.4716 4.77588
O 3.33157 -14.0222 11.3122
H 4.0728 -14.2651 11.938
H 2.66366 -13.4529 11.7917
O -9.67136 10.4657 -2.42453
H -9.49041 11.2833 -2.9712
H -10.4538 10.6324 -1.82456
O -2.50414 -7.97993 4.36463
H -2.26135 -8.60151 3.61987
H -2.18094 -8.35728 5.23247
O -3.3826 3.73028 4.51899
H -4.23115 4.23289 4.68429
H -3.58764 2.75806 4.40614
O -7.33824 9.9402 13.2177
H -6.34097 9.93886 13.2916
H -7.61495 10.5202 12.4516
O 9.44089 -7.85263 14.2608
H 9.63166 -7.87432 13.2794
H 8.57619 -7.37687 14.4218
O -4.30774 -9.44139 -11.1792
H -4.45599 -9.49544 -10.1917
H -3.43257 -9.86731 -11.4087
O 0.354153 6.52897 3.83641
H -0.244668 5.99623 4.4344
H -0.168432 6.8602 3.0508
O 8.95214 -1.20754 12.8276
H 9.02199 -0.442796 12.1871
H 9.71892 -1.83328 12.6845
O 13.0573 -4.6836 -11.0622
H 13.204 -5.65779 -10.8907
H 12.7857 -4.55014 -12.0153
O 3.30864 -11.6461 3.29347
H 2.99031 -12.53 3.63617
H 2.8805 -11.4575 2.40966
O 2.31361 -13.409 -14.8572
H 1.89244 -13.1172 -13.9984
H 2.66614 -14.3394 -14.7563
O 11.8287 -2.54915 -1.99829
H 12.6095 -2.79466 -2.57278
H 11.4343 -1.68903 -2.32174
O 2.82468 0.514205 8.24394
H 2.88076 -0.00440798 9.09711
H 2.91066 -0.110528 7.46786
O -12.5343 -6.69962 -6.06414
H -11.7997 -6.89846 -6.71284
H -13.112 -5.96916 -6.42842
O 5.64337 -9.55093 11.1978
H 6.11924 -8.74071 10.8557
H 6.24595 -10.0549 11.8166
O 8.54982 -0.943374 -9.07958
H 7.79839 -0.493689 -8.59675
H 9.06596 -0.263202 -9.60011
O 9.51366 -10.0244 10.166
H 10.1441 -9.85508 10.9236
H 10.0314 -10.3054 9.35799
O 5.55278 -7.69797 3.57064
H 5.88241 -8.5838 3.24409
H 6.08537 -6.96653 3.1448
O 1.4446 7.74839 6.48777
H 1.65156 6.78098 6.63361
H 0.915 7.85272 5.64597
O 8.05795 13.3375 5.65518
H 7.32812 13.1922 4.9872
H 8.20022 14.3188 5.78522
O 6.3173 2.92856 -3.00805
H 6.95951 3.68217 -3.14812
H 6.57405 2.42027 -2.18603
O 11.1749 5.31341 6.08187
H 11.0162 4.52068 6.67041
H 12.157 5.49068 6.01917
O 3.8448 0.780476 -10.2717
H 3.87035 0.409565 -9.34341
H 4.72202 1.21174 -10.4826
O -13.729 12.6393 -13.3317
H -13.2831 11.7726 -13.1082
H -13.9711 12.6492 -14.3019
O -3.99356 12.1336 9.73633
H -4.74349 11.5017 9.54062
H -3.95913 12.3159 10.719
O -7.3588 -1.99075 -8.0907
H -6.74244 -1.51537 -8.71848
H -6.82192 -2.51255 -7.42777
O 4.32805 9.13568 10.3502
H 3.51287 8.80767 9.87283
H 5.14178 8.90758 9.81561
O -14.4312 -3.79134 -9.62508
H 14.811 -4.11178 -10.0583
H -14.2061 -2.8794 -9.9681
O 10.7039 -0.0311843 -2.3905
H 10.1062 -0.0204382 -3.19218
H 11.4183 0.660246 -2.49805
O -2.77796 -0.389786 11.7447
H -2.10307 0.323108 11.5542
H -3.62288 -0.190042 11.2485
O 11.5487 -9.00943 -13.7942
H 11.0977 -8.91059 -12.9071
H 10.8621 -9.18715 -14.4991
O -14.0872 -8.72864 5.02757
H -14.0627 -9.14951 5.93436
H -13.7513 -7.78862 5.08723
O -4.82392 4.62698 -2.6637
H -3.87836 4.30354 -2.69952
H -5.00752 5.20855 -3.4562
O -14.8066 6.3059 1.0593
H 14.993 6.85269 1.84654
H -13.8137 6.18852 1.07701
O -7.89659 -2.42964 8.88657
H -8.5277 -3.18714 8.71961
H -8.38407 -1.56198 8.78899
O 0.355806 -11.1045 -1.83235
H 1.07135 -10.7146 -2.412
H -0.519406 -11.0705 -2.31489
O -3.20849 13.909 0.0413113
H -3.25676 14.8384 0.407307
H -4.12608 13.6023 -0.211562
O 12.8803 -7.41927 -10.579
H 12.7922 -7.72454 -9.63085
H 13.4598 -8.05972 -11.0829
O -14.37 0.713796 -6.31221
H -14.2442 1.47386 -5.67466
H -13.8397 0.884181 -7.14276
O -10.6963 5.45549 -1.23927
H -10.1543 4.66941 -1.53656
H -10.9606 5.99867 -2.03619
O -10.9092 -6.43935 -3.37281
H -11.336 -6.02284 -4.17554
H -11.5096 -7.15084 -3.00759
O 2.12134 -9.4021 0.912585
H 2.33113 -9.32163 1.88701
H 2.61982 -8.69922 0.405165
O -4.59706 14.1376 2.46891
H -4.03735 13.7275 1.74882
H -4.83934 -15.0119 2.21081
O 10.5993 11.782 -11.6153
H 11.2103 12.1666 -12.3073
H 10.7731 12.2234 -10.735
O -7.17544 3.00706 -12.2071
H -6.38769 3.56723 -12.4633
H -6.88928 2.31065 -11.549
O -2.72305 6.84923 -10.2239
H -3.3218 6.40939 -10.8933
H -1.76857 6.66689 -10.46
O -1.01729 -11.8923 4.51354
H -1.0156 -11.0382 3.99348
H -1.96037 -12.1636 4.70577
O -8.5362 7.61797 -0.595408
H -8.88188 8.50055 -0.914079
H -9.20233 6.90289 -0.807356
O 11.3226 -10.7275 8.31952
H 11.3922 -11.7208 8.41169
H 11.7194 -10.4451 7.44618
O 6.8972 1.39535 -0.548596
H 6.33008 0.666665 -0.164689
H 7.75216 1.45859 -0.0337794
O 4.45373 -11.1989 9.19112
H 4.79376 -10.4863 9.80485
H 5.12189 -11.9411 9.13957
O 7.76952 2.08859 -13.4851
H 8.23569 2.95177 -13.679
H 8.06609 1.39488 -14.1415
O -1.4232 -11.5756 0.715398
H -1.3113 -12.4714 1.1455
H -0.699645 -11.4378 0.039019
O -6.18967 -2.9569 0.392917
H -5.82088 -2.30548 -0.270124
H -5.50251 -3.65583 0.591138
O -13.2366 -6.28533 5.11438
H -13.5231 -6.11574 4.17145
H -13.7335 -5.67277 5.72905
O -8.92709 -8.30375 -3.91722
H -8.76038 -8.16464 -4.89336
H -9.59057 -7.62947 -3.59298
O -3.64673 10.9823 -2.12183
H -4.51554 10.8572 -2.60091
H -3.24869 10.0887 -1.9146
O 11.3634 6.73644 -4.23899
H 11.3944 6.06104 -4.97579
H 11.4027 6.26857 -3.35608
O -4.58414 -8.86403 10.7682
H -4.17885 -8.76845 9.85901
H -5.43919 -9.378 10.6996
O -6.22093 8.29986 4.91494
H -7.13035 8.5408 5.2539
H -5.87475 9.03791 4.33577
O -10.1181 8.25254 2.06078
H -9.62479 7.42233 2.32047
H -10.215 8.84627 2.85957
O 0.78665 -4.46773 4.06669
H 1.18387 -4.71178 3.18203
H 1.44233 -4.67083 4.79389
O 13.0237 -11.6266 -11.737
H 12.3138 -10.9299 -11.6338
H 12.6028 -12.5337 -11.7381
O 1.89178 -3.6198 -11.2013
H 1.11264 -3.16143 -11.6289
H 1.61233 -3.99914 -10.3193
O -4.31535 -9.16543 -4.44586
H -4.78854 -8.40512 -4.00088
H -4.72123 -10.0299 -4.1494
O -8.8968 -14.5415 5.83255
H -9.03565 -14.1893 6.75812
H -8.00994 -14.2334 5.48825
O 6.1059 -6.65335 9.92067
H 5.19731 -7.06298 10.0023
H 6.38647 -6.65335 8.96085
O -0.725989 7.32178 -6.54182
H -1.25138 8.01683 -6.05105
H -0.295191 7.73452 -7.34434
O -8.98135 3.405 -1.74915
H -8.7785 3.93114 -2.57499
H -9.50912 2.59151 -1.99345
O -0.672978 9.85013 9.89967
H -0.381596 10.3015 9.05624
H -1.25306 9.06707 9.6754
O -5.45011 -13.5521 1.67815
H -4.92816 -12.7556 1.98333
H -6.2152 -13.2511 1.10891
O -11.0903 -2.31979 -3.79479
H -10.3126 -2.1233 -4.39185
H -11.8016 -2.78954 -4.31766
O -14.911 11.5114 0.323397
H 14.2456 11.3161 0.00647714
H -14.251 11.1509 -0.335656
O -1.9506 4.67044 -6.88164
H -1.51766 4.03845 -6.23888
H -1.5563 5.58249 -6.76903
O -9.41869 -4.74858 -5.59723
H -9.23099 -5.72609 -5.6933
H -8.67917 -4.31631 -5.08125
O -2.90269 1.4576 -5.40262
H -2.98572 0.683319 -6.02998
H -3.68288 1.46494 -4.77713
O -8.49728 -0.175269 1.04001
H -7.88606 -0.520871 0.328001
H -7.97107 0.362134 1.69901
O 14.6416 5.05611 -10.9252
H 14.3585 5.11199 -11.8827
H 13.907 4.64712 -10.3838
O -13.0965 -9.46707 2.48225
H -13.505 -9.22047 3.36102
H -12.7941 -10.4198 2.51089
O 8.15719 -5.52634 -12.6063
H 9.11313 -5.68619 -12.3601
H 7.95358 -5.98835 -13.4695
O -0.880081 1.10448 10.9101
H -0.409579 1.81668 10.3891
H -0.772895 0.225623 10.4452
O -5.41835 10.2787 2.61348
H -5.51983 10.3455 1.62089
H -5.96404 10.9921 3.05308
O 2.0481 -6.235 12.1604
H 2.32126 -7.17807 12.3501
H 1.09422 -6.10358 12.4302
O 8.88693 -6.45155 -10.0342
H 8.13797 -6.4245 -10.6963
H 9.676 -5.96055 -10.4034
O 6.35576 9.04552 -4.67634
H 5.39874 8.75941 -4.72353
H 6.93716 8.32948 -5.06267
O -5.37026 -9.58364 5.91397
H -5.478 -9.8498 4.95609
H -5.12905 -10.3872 6.45809
O -4.05614 5.42463 -8.40088
H -3.47284 4.92513 -7.76038
H -3.49028 6.01591 -8.97549
O -14.0002 -4.53459 -2.24459
H -13.4211 -3.81542 -1.8605
H -13.8262 -5.39445 -1.76463
O -12.1915 -1.59753 -1.47252
H -11.7826 -1.94962 -2.31443
H -11.7764 -2.05252 -0.684713
O 13.8836 2.21977 -8.67884
H 14.8829 2.24344 -8.70828
H 13.5815 2.06406 -7.73839
O -8.54455 5.38763 -3.91941
H -8.51232 6.38627 -3.8785
H -7.96601 5.0659 -4.66892
O 1.27304 11.1851 -3.75587
H 0.763892 11.668 -4.46827
H 1.50327 11.8224 -3.02048
O 12.8345 6.53349 9.52171
H 12.6196 5.55686 9.5229
H 13.796 6.66291 9.27929
O -8.99288 -14.4382 8.70893
H -9.69602 -14.3735 9.41702
H -8.15325 -14.0017 9.03209
O 6.38296 -14.3843 6.8093
H 6.13505 -14.3536 7.77759
H 7.19719 -13.8244 6.65583
O 2.80823 -14.2159 6.36833
H 2.68466 -14.404 7.34267
H 3.23355 -13.3182 6.2535
O 14.2622 -8.20737 -12.8947
H 13.7282 -8.83792 -13.4579
H 14.5999 -7.45706 -13.4631
O 4.90321 5.94242 1.27382
H 4.94032 5.45549 2.14646
H 5.71363 6.5207 1.18007
O 8.85616 -1.77869 -0.993547
H 9.21369 -1.07655 -1.60931
H 8.80101 -2.65114 -1.47911
O 4.21359 -10.0254 -9.19949
H 3.307 -9.67815 -8.95964
H 4.21048 -11.0244 -9.15464
O -8.94779 -4.42298 11.6757
H -8.63422 -3.53866 12.0216
H -9.30851 -4.96802 12.4326
O -1.68696 13.1488 8.54443
H -2.48351 12.9469 9.11426
H -1.32649 12.2981 8.16191
O -11.2836 14.2459 6.05505
H -11.8387 14.8919 6.57904
H -10.3584 14.6104 5.94961
O 6.02332 0.287634 3.26802
H 6.60943 -0.0646773 3.99764
H 6.40967 0.0377506 2.38017
O -0.902988 -9.96641 -6.76387
H -1.35689 -9.57079 -5.96547
H -1.58185 -10.4156 -7.34472
O -4.80833 6.00462 -5.05115
H -5.3532 6.83128 -4.9107
H -3.99411 6.22906 -5.58655
O -11.57 -1.76864 -8.22995
H -12.2635 -1.87328 -8.94275
H -10.9087 -2.51578 -8.29611
O 12.7637 11.036 4.91062
H 12.6505 11.3688 3.97444
H 13.7199 11.1348 5.18615
O 0.773342 2.64103 8.84816
H 0.194077 2.97676 8.10537
H 1.18667 1.77051 8.58108
O -8.83617 4.17558 9.74489
H -9.52177 4.52322 10.3845
H -9.24669 3.47012 9.16715
O -13.106 12.0494 -8.43735
H -13.8829 11.4988 -8.74283
H -12.6234 11.5678 -7.70585
O -7.81788 7.0475 12.8024
H -7.70589 8.03351 12.9258
H -8.79156 6.81961 12.8059
O 2.32479 11.4499 2.21075
H 2.37371 12.3821 1.85199
H 1.42636 11.061 2.00689
O 8.80625 13.0866 11.9476
H 8.73024 14.0016 11.5514
H 7.89151 12.7149 12.106
O 7.32566 6.15245 -0.957175
H 6.67185 5.8177 -1.63576
H 6.91745 6.90858 -0.445694
O 14.5847 -1.28989 4.85736
H 14.4818 -1.29778 3.86271
H -14.5609 -1.53577 5.09726
O 8.57386 -14.3492 12.2254
H 9.38342 -14.3508 12.8124
H 8.42901 -13.4297 11.8599
O 12.1618 6.94358 -8.95908
H 12.1108 5.98423 -9.23666
H 13.1202 7.22169 -8.89559
O -14.3472 -11.3791 -2.01837
H -14.927 -12.0157 -2.52695
H -14.336 -11.6374 -1.05239
O 6.42037 7.2442 -11.2506
H 5.76043 7.83308 -11.7171
H 6.47686 7.50505 -10.2868
O 6.36881 8.88511 3.73423
H 7.15967 9.23622 4.23549
H 6.02832 8.05976 4.18461
O 1.85194 -9.57056 5.31295
H 1.25704 -10.099 4.70728
H 2.42001 -10.1945 5.84964
O 7.52616 -3.04513 -10.5167
H 6.55079 -2.85857 -10.6343
H 7.93616 -2.33061 -9.9498
O 1.72966 12.386 -0.956532
H 2.61094 11.9452 -0.786126
H 1.52163 13.0156 -0.207999
O -2.31314 12.2928 -14.5447
H -1.81208 13.0081 -14.0577
H -1.79666 11.4375 -14.5041
O -14.4981 -4.98907 7.08249
H 14.8744 -4.3266 6.85038
H -14.8604 -5.6523 7.73734
O 14.8356 12.8762 -3.58441
H 13.9812 12.4739 -3.91324
H 15.017 13.7251 -4.08091
O 2.68175 -9.03482 -3.67478
H 2.95728 -9.60037 -4.4521
H 3.44293 -8.96006 -3.03057
O -4.70699 -7.07914 2.83308
H -5.43383 -6.43854 3.08068
H -4.1129 -7.23072 3.62306
O -3.39061 8.15309 3.29598
H -3.039 9.07715 3.14609
H -4.3506 8.11272 3.01889
O -3.22803 -4.74176 -11.5221
H -3.5374 -5.50938 -12.0834
H -3.6542 -3.89774 -11.8476
O 8.20443 8.69702 -13.8357
H 8.26221 8.83241 -12.8466
H 9.10687 8.834 -14.2442
O -12.1479 6.56496 -7.08963
H -11.4937 7.25682 -6.78413
H -12.1248 6.50195 -8.08737
O -6.25662 -12.4366 -10.261
H -6.63803 -12.1194 -11.1293
H -6.02214 -11.6483 -9.69215
O 12.9734 2.77745 4.09573
H 13.9531 2.57798 4.07456
H 12.5959 2.50022 4.97923
O 5.044 -8.85922 6.06306
H 5.33262 -8.18747 5.38083
H 4.98199 -8.41904 6.95882
O -6.22014 -0.0523321 -10.0739
H -5.58882 0.549189 -9.58444
H -7.03786 0.462034 -10.3323
O 9.8055 8.61593 -8.98319
H 10.1803 7.9283 -9.605
H 10.4125 8.719 -8.19522
O 2.22315 2.17119 5.06061
H 1.47265 1.82431 5.62311
H 1.85052 2.68246 4.28618
O 1.98173 -5.53779 1.88971
H 2.70468 -5.00303 1.45226
H 2.37411 -6.36851 2.28461
O 10.2738 5.33856 -6.57905
H 9.86594 5.21066 -7.48309
H 11.0752 4.74737 -6.48826
O 9.23078 11.7207 7.62204
H 9.8947 12.2837 8.11424
H 8.73937 12.2868 6.96021
O -10.2479 -11.5146 -0.0455071
H -10.2601 -10.5533 0.229808
H -11.1861 -11.8539 -0.112877
O -11.6584 -5.75185 0.618512
H -11.9697 -6.07739 -0.274297
H -10.8396 -6.25742 0.890719
O 2.65172 2.25203 -13.5593
H 2.19468 1.36979 -13.4464
H 3.64074 2.1116 -13.6053
O 2.06814 4.73 -12.535
H 2.32233 5.51093 -13.1056
H 2.61373 3.93403 -12.7972
O -3.36072 -8.88524 8.38198
H -3.73425 -8.11523 7.86473
H -2.36282 -8.82278 8.39873
O 6.57612 5.75974 6.44653
H 7.36804 6.35181 6.29714
H 5.75955 6.32197 6.57731
O -0.830203 -9.13669 6.73942
H -0.378351 -10.0288 6.74154
H -0.156929 -8.42159 6.92737
O 13.8723 1.13253 -13.3805
H 13.2739 1.93143 -13.4409
H 13.7546 0.694572 -12.4893
O 5.10557 12.8123 -6.19468
H 4.44211 13.5604 -6.18543
H 4.63784 11.9496 -6.00226
O 5.26111 10.9649 2.21282
H 4.31592 10.6708 2.07095
H 5.78021 10.2242 2.63925
O -10.785 -6.90329 4.00349
H -10.3882 -7.66201 4.52012
H -11.7704 -6.86614 4.16966
O -10.5231 2.32612 3.81588
H -9.61245 2.43624 4.21407
H -10.4473 2.27284 2.82019
O -1.87539 -0.954895 15.003
H -2.8595 -1.12771 -15.0411
H -1.38001 -1.79966 -14.8793
O 0.0270508 -1.20739 -8.66544
H -0.86519 -1.10616 -9.10549
H 0.736571 -0.828173 -9.25938
O 11.9907 -2.3008 -9.76364
H 12.6897 -3.01388 -9.81843
H 11.3922 -2.35866 -10.5626
O 12.274 -4.40654 -13.972
H 12.1025 -3.46726 -14.2693
H 12.165 -5.02705 -14.7486
O -7.73492 8.21879 10.086
H -7.66825 7.74283 10.9629
H -6.96852 8.85432 9.9926
O 14.6809 -11.1233 -14.2288
H -14.4265 -11.318 -14.1451
H 14.2421 -11.2299 -13.3366
O -5.56354 8.80571 -4.92923
H -5.25653 8.91344 -5.87482
H -6.10956 9.60022 -4.66351
O 14.958 -0.24403 14.4491
H 14.6791 0.219352 -14.7945
H -14.1298 -0.223284 14.372
O -2.10769 -6.38418 -2.67154
H -2.74039 -5.88932 -2.07589
H -1.17222 -6.25981 -2.34077
O 0.333661 8.67826 -2.48542
H 1.05037 7.98185 -2.52197
H 0.708044 9.55762 -2.77963
O -8.76733 10.5386 -8.35356
H -9.65128 10.7731 -7.94905
H -8.60167 9.55814 -8.24716
O 7.44277 -6.22251 -14.9719
H 7.44743 -5.24331 14.91
H 6.65015 -6.64931 14.6774
O 2.16507 -6.87863 -8.63619
H 2.61058 -6.87475 -7.74093
H 1.35407 -7.46268 -8.60239
O -7.52454 11.8391 6.88236
H -8.12806 12.2507 7.56524
H -6.70278 12.4001 6.78239
O -8.2618 -7.33921 -6.43759
H -7.27422 -7.33837 -6.59464
H -8.71505 -7.84985 -7.1682
O -1.72517 13.8836 5.97929
H -2.02257 13.6833 6.91278
H -0.779926 14.2097 5.99335
O 5.40513 -4.17777 7.56145
H 5.45831 -3.66742 8.41976
H 6.09346 -4.90316 7.56178
O -12.0248 -13.0058 -3.92246
H -11.6042 -12.2514 -3.41853
H -12.2912 -13.7266 -3.2825
O 2.35361 11.8457 7.32706
H 2.82119 11.6726 8.19388
H 2.79792 11.3241 6.59868
O 11.951 -7.85382 9.69006
H 11.6738 -7.96678 8.73591
H 12.6539 -8.52858 9.91508
O -6.80771 1.74212 -5.92761
H -6.86554 2.74043 -5.93236
H -7.66855 1.35997 -5.59158
O -6.95905 1.10614 3.04178
H -7.45506 1.43498 3.84541
H -6.31991 1.81062 2.73324
O 1.60363 7.81609 12.1606
H 1.93518 7.99157 11.2336
H 1.82577 6.87672 12.4218
O -13.9835 0.852074 10.165
H -14.8793 0.585446 10.5204
H -14.0387 0.965692 9.17299
O 2.10118 5.23373 7.83131
H 2.79647 5.2914 8.54771
H 1.49232 4.46299 8.01902
O 8.66208 5.5596 9.54256
H 9.22793 6.15827 8.97565
H 7.71649 5.88471 9.53
O -8.83673 11.6417 1.91028
H -9.62232 12.2603 1.91889
H -9.15577 10.6968 1.98384
O 14.8805 9.47108 13.4425
H 14.3869 9.33768 14.3019
H 14.6558 10.3694 13.0651
O 1.90684 -4.9431 14.876
H 1.76337 -5.75083 -14.6368
H 2.42063 -5.20097 14.0578
O 6.3072 -0.523918 -7.45421
H 5.37721 -0.228174 -7.23594
H 6.61113 -1.19459 -6.77759
O 1.93034 14.1568 1.07307
H 2.18512 -15.0346 0.702972
H 1.25428 14.2776 1.79993
O 6.98889 -11.2064 5.27824
H 6.52357 -10.3216 5.30297
H 6.32031 -11.9299 5.10648
O 7.19593 7.31064 12.2844
H 8.10623 6.89837 12.3217
H 6.69017 6.93221 11.5091
O 10.762 9.82875 -2.06922
H 9.85598 10.2089 -2.25543
H 10.928 9.05067 -2.67505
O 11.7385 4.44118 10.8439
H 11.8748 3.47809 10.6118
H 10.9903 4.52271 11.5023
O 2.94623 10.7388 5.00306
H 2.61854 9.82597 4.75955
H 2.6228 11.4005 4.32662
O 13.0556 -3.16074 9.37584
H 13.2063 -4.1426 9.49072
H 12.0897 -2.99265 9.17857
O -13.1061 -2.13597 -5.86256
H -13.8199 -1.43737 -5.91207
H -12.4833 -2.03174 -6.63799
O -7.5879 -8.22818 0.997976
H -7.2385 -8.61271 1.8524
H -8.30098 -7.55727 1.20142
O -9.74658 -11.5925 4.93867
H -9.95537 -12.5596 4.79358
H -9.48758 -11.447 5.89352
O -9.23159 8.95965 -11.3411
H -8.46301 8.43737 -10.9716
H -9.03761 9.93764 -11.2642
O 10.527 -0.376606 -13.6944
H 10.8053 -1.00239 -12.9657
H 9.54171 -0.457391 -13.8449
O 7.83546 -11.9187 10.7501
H 8.62794 -11.3968 10.4345
H 7.1425 -11.941 10.0295
O -0.409608 -13.8334 -10.3899
H -1.06116 -13.697 -9.64368
H -0.901914 -14.1059 -11.2166
O 0.594621 -7.47044 -2.32197
H -0.222151 -7.72442 -1.80393
H 0.816002 -8.19693 -2.97251
O 14.3132 13.9807 3.67275
H 13.8928 13.1603 3.28511
H 13.7399 14.7752 3.47291
O -8.93015 -3.06531 -15.0391
H -9.40307 -2.21836 14.8026
H -9.56885 -3.83248 14.9863
O -14.1216 -12.8056 -8.8926
H -14.7005 -11.9917 -8.84294
H -14.6903 -13.609 -9.06888
O -1.2511 10.8191 -6.22729
H -1.36069 10.4598 -5.30054
H -0.953268 11.7726 -6.18201
O -5.07098 -13.6258 9.18817
H -5.07835 -13.9654 10.1287
H -4.81447 -14.3672 8.56805
O 6.37363 -3.38614 -14.6663
H 5.50833 -2.91532 -14.4943
H 6.86447 -3.50711 -13.8035
O -13.7042 8.90808 3.57042
H -13.5833 9.87993 3.36824
H -14.6538 8.64715 3.39696
O -13.6129 -1.07733 -10.3647
H -14.5587 -0.807614 -10.5457
H -13.1144 -1.14503 -11.229
O 14.23 2.7445 -0.124944
H -14.946 2.33473 -0.0458049
H 13.9529 3.11476 0.761706
O -0.0390593 8.98753 0.284773
H -0.549989 9.84411 0.212586
H 0.1108 8.61077 -0.629329
O 3.48325 -14.8947 -6.4434
H 2.64102 -14.4974 -6.07899
H 3.70164 -14.4664 -7.32025
O 10.9755 13.2555 8.79844
H 10.7621 14.2166 8.97375
H 11.4898 13.1787 7.94423
O 7.57191 12.1406 0.772153
H 7.34624 13.0124 0.337405
H 6.76199 11.7788 1.23386
O -13.2609 10.6481 -2.18423
H -13.6544 11.422 -2.68044
H -13.3777 9.81316 -2.7221
O -3.91124 9.34722 8.43936
H -3.32959 8.73498 8.97494
H -3.62806 9.32197 7.48063
O 13.301 6.73813 14.3319
H 14.1069 6.7534 13.74
H 12.6519 7.43603 14.0292
O -0.159749 -14.2715 8.35285
H -0.981289 -14.837 8.42593
H 0.647668 -14.8602 8.31387
O 13.1163 -4.01298 5.4137
H 12.3938 -3.72716 6.04314
H 13.3216 -3.26643 4.78085
O -14.4194 -4.2919 -6.90576
H -14.453 -4.26075 -7.9047
H -13.8836 -3.5189 -6.56604
O 5.61197 6.44447 -6.91549
H 5.81585 7.15038 -7.5938
H 6.45182 6.19092 -6.43554
O 12.7608 1.9401 -2.53259
H 12.9889 2.43025 -1.69132
H 13.2204 1.05199 -2.53594
O -4.94375 -2.22283 -11.3224
H -5.4574 -1.38873 -11.1213
H -5.57433 -2.9968 -11.3802
O 11.8476 8.70657 12.6642
H 11.5975 8.19329 11.8432
H 11.7698 9.68659 12.4812
O 13.1616 -4.0532 -6.00525
H 12.5983 -4.71612 -5.51206
H 14.0325 -4.47635 -6.25513
O 12.4068 12.2337 2.56966
H 12.6794 12.8411 1.82353
H 11.4819 11.8929 2.40101
O -4.83723 -7.38067 14.0851
H -4.04628 -7.68515 13.5543
H -5.38343 -6.74797 13.5361
O -7.29545 -5.45064 6.333
H -7.17349 -5.3421 7.31957
H -7.81545 -6.28524 6.15126
O 12.1992 -14.4047 -11.5986
H 11.5766 -14.8261 -10.9392
H 12.1963 -14.9355 -12.4461
O 7.03467 -7.53183 0.957935
H 6.8319 -8.28826 0.336087
H 7.10886 -6.68205 0.436055
O 4.90168 -12.9908 14.9596
H 3.93674 -13.2465 15.0187
H 5.31558 -13.0392 -14.2161
O -7.23155 1.36729 12.4361
H -6.74031 1.0052 11.6439
H -6.58358 1.54824 13.1759
O 14.1385 -9.18325 11.0081
H 14.8443 -8.6858 10.5038
H 14.518 -9.51719 11.8708
O 8.06221 -0.182751 5.81113
H 8.2707 0.369341 6.61842
H 7.56843 -1.00666 6.08924
O -8.49411 -8.20882 -9.86415
H -8.89947 -9.12037 -9.7952
H -8.49252 -7.91621 -10.8204
O -14.3607 11.3811 2.98053
H -14.6847 11.3589 2.03476
H -13.7618 12.1715 3.10923
O 5.2541 2.00167 -14.1352
H 6.19108 2.16097 -13.8243
H 5.15198 1.04547 -14.4096
O 13.3398 -11.5336 3.5325
H 13.634 -10.58 3.59678
H 12.4425 -11.6352 3.96205
O -4.5941 9.05654 13.6164
H -4.53946 9.0682 14.6148
H -3.76175 8.64808 13.2418
O -2.6239 8.94314 5.97007
H -3.18932 8.61102 5.21509
H -2.12823 8.17624 6.3777
O 1.78098 8.37806 -14.9865
H 2.36886 8.93064 14.5074
H 1.16822 7.82415 14.5346
O -14.1478 -12.089 -5.53516
H -13.4136 -12.2075 -4.86671
H -14.0953 -11.1712 -5.92871
O -3.85018 -11.6995 2.76313
H -3.73347 -11.7326 3.75574
H -2.96125 -11.5579 2.32754
O 8.60957 4.55316 -3.27676
H 9.3793 4.01674 -3.62282
H 8.76935 4.78473 -2.31716
O 7.48802 14.4785 -7.30586
H 6.82034 13.8189 -6.96077
H 7.66238 -14.912 -6.60748
O -10.0695 10.6491 -14.3071
H -9.46929 11.374 -14.6451
H -9.55586 9.79337 -14.2442
O -14.4551 -13.091 4.42139
H 14.8198 -12.5296 4.25083
H -13.7451 -12.863 3.75512
O -8.44864 -9.39531 3.9068
H -7.52808 -9.61593 3.58449
H -8.9144 -10.2352 4.18553
O -6.4849 -9.65859 13.531
H -5.60567 -9.18596 13.5908
H -6.86738 -9.53657 12.6152
O -2.14002 -10.7285 -3.71941
H -2.7857 -9.99397 -3.92801
H -2.53836 -11.6072 -3.98264
O 4.35209 -4.12934 -2.50279
H 5.19315 -3.93646 -3.00818
H 3.62555 -3.51969 -2.81971
O 8.13887 -0.465789 -14.7762
H 7.19241 -0.651887 -14.5124
H 8.27036 -0.706397 14.3469
O 2.37899 8.29846 3.80326
H 2.25342 7.34302 4.07041
H 2.15123 8.40668 2.83558
O 10.4526 -2.68598 6.04226
H 9.79464 -2.48167 6.76704
H 10.1237 -3.46063 5.50215
O 0.0241104 -6.98581 8.11248
H 0.20099 -7.50632 8.94781
H -0.403418 -6.113 8.34786
O -13.272 1.36918 -9.09098
H -13.2101 1.98685 -9.87497
H -13.2281 0.42199 -9.40862
O 9.64472 4.17034 -8.93729
H 9.53488 4.65521 -9.80495
H 8.9926 3.4135 -8.89352
O 10.3972 -7.37127 -2.54137
H 10.116 -8.21888 -2.99135
H 11.2238 -7.5377 -2.00366
O -13.0814 3.09596 11.3355
H -13.8288 3.73074 11.5316
H -13.4471 2.27679 10.8937
O -10.3014 -13.1912 13.9011
H -11.0767 -12.5614 13.8531
H -10.2945 -13.644 14.7927
O -2.19548 -7.66955 -5.092
H -2.93772 -8.33923 -5.06765
H -2.10944 -7.23461 -4.19566
O -1.48469 5.33409 5.71423
H -2.3162 4.80211 5.55427
H -1.57682 5.84822 6.56697
O -10.1694 -10.9034 -3.13045
H -10.0675 -10.9689 -2.13782
H -9.44008 -10.3297 -3.50322