2611
Atoms. Timestep: 8000000
O -10.7409 10.9303 -7.39558
H -10.7831 11.2411 -8.34512
H -10.7309 11.7227 -6.78564
O 8.54844 14.2409 -12.257
H 8.57815 13.6462 -13.0604
H 9.47661 14.3832 -11.9131
O 7.91268 3.37101 8.69989
H 7.08109 3.38738 9.25504
H 8.69965 3.60332 9.27149
O 4.89919 13.8352 8.78349
H 5.09451 14.7558 8.44543
H 5.49821 13.178 8.32596
O -0.549549 -2.15954 -6.72852
H -1.07916 -2.91319 -6.33925
H -0.970193 -1.86486 -7.58655
O 14.2182 9.93912 0.928562
H 14.56 9.30158 1.61901
H 14.3867 10.8779 1.2292
O -4.69578 -4.44662 -1.88196
H -5.09574 -4.46198 -0.965555
H -4.19266 -3.59221 -2.01178
O 2.9696 -9.82568 10.7389
H 2.04166 -9.98058 10.3999
H 3.60778 -9.8123 9.96917
O 10.5527 -12.8557 -13.4655
H 10.2704 -13.4128 -14.2465
H 9.78881 -12.2806 -13.1729
O -10.1551 4.36432 -8.08521
H -10.8866 4.96431 -8.40901
H -9.79001 4.71853 -7.22423
O -9.10278 7.3072 0.149369
H -8.30449 7.09811 0.714198
H -9.07574 8.26905 -0.122889
O 6.74286 -5.73222 -7.51136
H 6.3189 -4.87146 -7.79305
H 6.06957 -6.29361 -7.03019
O -14.8733 11.7127 12.107
H -14.2248 11.042 11.7468
H -14.8218 11.7232 13.1056
O -2.42741 8.84063 -3.72843
H -3.27773 8.31497 -3.7538
H -1.80544 8.43624 -3.05789
O -15.005 -5.64329 8.75659
H -14.9645 -5.93297 7.80032
H 14.3019 -5.2085 8.93606
O 1.8682 -11.4685 -2.83665
H 1.34013 -10.6586 -3.09196
H 1.53802 -11.8191 -1.96024
O -13.1442 -14.5881 -8.2445
H -13.8577 14.9535 -8.51134
H -12.2517 -14.9404 -8.52638
O -3.95579 -14.3846 -4.26578
H -4.79444 -14.9203 -4.16739
H -4.13842 -13.5804 -4.83133
O 1.56301 5.3419 -12.3261
H 1.35097 6.10123 -12.9412
H 2.55078 5.30063 -12.1756
O -7.83084 -2.0708 4.81373
H -7.71328 -2.70377 4.04852
H -8.56299 -1.42357 4.60146
O -9.46916 12.1536 8.9416
H -9.83869 11.4631 8.31981
H -8.47513 12.1952 8.84072
O -9.43337 -13.9158 1.31537
H -9.12261 -14.4483 2.10271
H -9.5951 -14.5283 0.541621
O 9.03844 -12.4064 -11.0569
H 9.25777 -11.4318 -11.102
H 8.92432 -12.6785 -10.1014
O -10.4612 -2.72478 -4.26351
H -11.2062 -2.5891 -4.91655
H -10.6992 -3.46559 -3.6354
O -14.6455 -6.96626 6.41747
H -13.934 -6.56511 5.84047
H 14.886 -7.45475 5.8443
O 14.7045 1.35589 10.9103
H 14.7127 1.29466 9.91223
H -14.9693 2.16259 11.199
O 1.92879 -4.58889 4.61535
H 1.57019 -5.22131 3.92872
H 2.36181 -3.81168 4.15879
O 13.1125 0.42744 -4.79832
H 12.1792 0.67348 -5.05994
H 13.1152 0.0802449 -3.86053
O 6.64191 7.6296 11.2497
H 6.05678 7.82448 10.4625
H 7.57299 7.44466 10.9353
O -1.54027 -14.1299 -12.466
H -0.67086 -14.3091 -12.9264
H -1.6506 -14.7664 -11.7027
O 13.0637 -9.27425 -13.509
H 12.1552 -9.34164 -13.9215
H 13.6708 -8.7673 -14.121
O -8.6976 -3.63555 -0.354132
H -7.98948 -4.32713 -0.496577
H -9.51685 -3.8862 -0.869887
O -0.69363 -9.97736 7.59221
H -1.47834 -9.35853 7.55639
H 0.0565014 -9.59605 7.05193
O -4.34853 -0.296725 -5.98034
H -3.37341 -0.195706 -5.78304
H -4.54069 0.0509783 -6.89805
O 4.68086 -10.9964 -2.66496
H 5.29653 -10.5296 -2.03015
H 3.75098 -10.6492 -2.54357
O -5.82438 -12.1843 -10.5924
H -5.21497 -11.5162 -10.1655
H -5.77042 -12.0969 -11.5871
O -6.72089 14.6049 -13.6851
H -6.05596 15.0772 -13.1065
H -6.34808 13.7212 -13.9683
O 9.9154 -1.2551 -7.75872
H 9.35578 -1.42683 -6.94795
H 10.7354 -0.746582 -7.4961
O 13.4251 6.50545 -14.9662
H 14.2244 6.8281 -14.4592
H 12.9953 7.2762 14.7529
O -14.2072 1.78621 2.66972
H -13.2288 1.92336 2.51492
H -14.3545 1.4613 3.60393
O -14.9511 -10.2515 -12.1461
H -14.5386 -9.35231 -11.9997
H 14.3392 -10.1408 -12.5694
O -11.6399 12.3585 -12.8283
H -12.0322 11.4392 -12.8573
H -10.955 12.4516 -13.5511
O -8.82591 5.59367 -10.4777
H -9.0747 5.08658 -9.6525
H -9.59788 6.16004 -10.7663
O -4.84735 -2.8879 -9.8325
H -5.68529 -3.04302 -10.3557
H -4.85701 -1.96216 -9.45445
O 12.3273 -11.3624 -4.10997
H 13.2847 -11.3966 -3.82324
H 12.2556 -11.6442 -5.06677
O 2.64625 11.6049 14.0167
H 3.13888 10.7843 14.3063
H 3.27168 12.3852 14.013
O 0.781068 -11.3883 -6.04417
H -0.0650488 -10.955 -5.73373
H 1.26984 -10.7654 -6.65501
O -6.98627 -9.17129 -2.85647
H -7.37332 -9.39269 -3.75156
H -5.99423 -9.29447 -2.8826
O -8.49771 -1.25082 1.89804
H -8.36594 -1.96311 1.20863
H -8.90975 -0.445864 1.4711
O 9.40963 6.43262 0.569182
H 9.1967 7.30953 0.138246
H 10.0714 6.57494 1.30527
O -11.7584 6.28348 6.81115
H -11.6337 7.21128 6.45952
H -11.7334 5.63313 6.05193
O -4.32575 7.02338 7.32334
H -3.51869 6.45643 7.15837
H -4.12996 7.67736 8.05408
O -3.37106 -6.76736 14.8546
H -2.74479 -6.46933 -14.6144
H -4.31028 -6.54563 -15.0727
O 1.33149 11.9951 -13.5693
H 2.06473 12.6382 -13.3484
H 1.19979 11.9672 -14.5602
O -8.09504 5.92323 13.6567
H -7.2167 6.39513 13.733
H -7.94209 4.93517 13.6384
O 0.771666 5.58641 -7.30365
H 0.669229 6.54846 -7.55657
H 0.673873 5.01527 -8.11866
O 11.9674 -10.9449 12.7804
H 12.8262 -11.4551 12.8261
H 11.2016 -11.5652 12.9504
O 15.0057 -8.56986 14.9785
H -14.8606 -9.32005 14.4016
H 14.8318 -7.76457 14.4116
O 5.20826 -1.10543 -5.94276
H 5.52662 -0.615118 -5.13144
H 4.32528 -0.734948 -6.23101
O 14.5548 -5.0402 0.102113
H 14.4141 -4.67918 1.02399
H 13.7225 -5.50092 -0.206117
O 11.7902 -3.30733 -9.11255
H 10.9787 -3.75216 -9.49132
H 11.6554 -2.31648 -9.10724
O -5.10836 0.0510888 -8.47469
H -4.28852 0.0397595 -9.04718
H -5.90751 0.252998 -9.0409
O 5.3705 -5.7891 14.5721
H 6.13542 -6.04945 13.9829
H 5.4766 -4.83561 14.8542
O -12.3225 -4.59648 8.74605
H -12.1675 -3.87555 8.07059
H -13.2418 -4.97183 8.62796
O -7.83902 -8.00418 8.15713
H -8.63484 -8.57003 8.37276
H -7.05076 -8.59249 7.97674
O -12.3408 12.2546 -5.32856
H -11.8175 12.868 -5.91998
H -13.2623 12.6212 -5.2
O 6.19671 -9.18339 12.1553
H 5.83416 -9.33414 11.2356
H 5.77698 -9.83261 12.7896
O -3.52614 -5.64482 5.86143
H -3.86998 -5.18194 6.67845
H -2.53086 -5.72421 5.9173
O 1.44867 7.08083 -3.46579
H 1.63668 6.15924 -3.80541
H 2.29467 7.61401 -3.46285
O 13.5374 -0.664808 7.53941
H 13.1104 -0.535124 6.6445
H 14.2762 -0.000943603 7.65557
O 8.7699 -0.935741 -13.5174
H 9.5374 -1.26102 -12.965
H 9.06258 -0.152876 -14.0665
O 7.48628 8.6832 6.3299
H 6.56204 8.38426 6.09236
H 7.87596 8.05688 7.00508
O 5.22435 -12.831 2.08023
H 6.15785 -13.079 1.8212
H 4.80794 -13.5851 2.58817
O 5.89327 9.98761 3.15397
H 4.91848 10.075 2.94865
H 6.29549 10.8975 3.25517
O -1.5444 -14.4922 -3.14824
H -2.46094 -14.5674 -3.54105
H -0.861836 -14.6326 -3.86545
O 9.99872 12.8428 -8.46045
H 9.15064 12.8252 -8.99003
H 10.5064 11.9954 -8.61584
O 1.42852 -4.01189 -7.63541
H 1.03822 -4.39904 -8.47074
H 1.21533 -3.03597 -7.58909
O -3.6677 -13.9309 9.5968
H -3.01963 -13.229 9.30141
H -3.26891 -14.4582 10.3471
O -8.88392 -3.54417 7.04425
H -8.87874 -4.53457 6.90612
H -8.27352 -3.11186 6.38053
O -13.9487 8.02204 1.28221
H -14.2909 7.11509 1.52782
H -13.8458 8.08186 0.289316
O 0.585258 14.0992 11.7319
H 0.0206163 14.0665 12.5566
H 0.0537057 14.4876 10.9792
O 4.77963 9.53578 -14.9672
H 4.76156 8.78745 14.5591
H 5.71968 9.68811 -14.6621
O -2.90923 -14.4831 12.3054
H -2.7813 -13.504 12.1474
H -2.41647 -14.7546 13.1321
O 13.6999 -1.60719 -14.6553
H 14.6322 -1.3555 -14.9152
H 13.2241 -0.802495 -14.3003
O -13.1847 -9.37286 12.1163
H -13.3816 -8.41915 11.889
H -12.2014 -9.48507 12.2602
O 13.0151 -4.2166 -3.81623
H 13.7995 -3.62233 -3.99417
H 12.4824 -4.32565 -4.65546
O -10.6297 -8.82972 8.74723
H -11.5906 -8.77156 8.47655
H -10.5549 -8.71435 9.73773
O -1.64423 0.832087 12.9599
H -1.41283 1.10364 12.0257
H -2.57498 1.12952 13.1726
O 8.74836 -5.40818 -12.8559
H 9.731 -5.31218 -13.0147
H 8.25179 -4.76945 -13.4436
O 7.10893 8.89212 -13.019
H 6.78066 8.12151 -12.4727
H 7.81336 9.38597 -12.5092
O -2.45962 -11.663 -2.91511
H -2.35238 -12.5854 -3.28602
H -2.78488 -11.719 -1.97114
O 9.33175 10.6919 -4.39289
H 9.22816 9.89121 -4.98294
H 10.2227 11.1148 -4.55826
O 3.16633 -3.09525 -13.5293
H 3.38915 -3.81235 -12.8689
H 2.96317 -2.24552 -13.0428
O 10.7941 -14.2089 -4.05535
H 11.334 -13.4938 -4.49935
H 10.6748 -14.9762 -4.68548
O -7.03936 -12.847 10.9942
H -7.46751 -12.1355 10.437
H -7.63681 -13.0722 11.7639
O 6.71605 -12.7871 10.1729
H 6.91929 -13.6183 9.65545
H 6.9375 -12.9322 11.1372
O 4.53955 3.24617 0.62358
H 4.32515 4.02255 0.0308918
H 5.14677 2.61556 0.140248
O -13.3304 -11.9155 -7.84475
H -13.0098 -12.8478 -8.01244
H -13.9421 -11.6353 -8.58449
O -14.0899 -7.64055 -12.5624
H -14.5613 -6.7598 -12.5177
H -14.2113 -8.03777 -13.4721
O 1.64319 -0.24829 -12.2906
H 0.810786 0.175439 -12.6478
H 1.44699 -0.67702 -11.4088
O -9.26408 -12.3798 -11.8369
H -8.65537 -12.6574 -11.0937
H -9.37473 -13.1389 -12.4784
O 5.46114 -1.8422 -10.7166
H 4.7141 -2.05047 -10.0853
H 6.33673 -1.97245 -10.2514
O 11.6888 -12.6516 -6.53052
H 10.9967 -13.2629 -6.91436
H 12.4703 -12.6007 -7.15238
O 5.04433 3.31314 10.2116
H 5.10043 3.54927 11.1817
H 5.08151 2.31923 10.1078
O -5.38408 -12.2925 4.92252
H -5.5668 -13.1911 5.32138
H -4.87573 -12.404 4.06861
O -7.34805 1.02687 -4.77317
H -6.87185 1.09206 -5.65008
H -7.19342 0.122087 -4.37636
O -10.2769 14.6457 -10.5541
H -9.87932 -14.9045 -9.89572
H -9.85358 14.7832 -11.4495
O -8.69014 13.1244 -4.87357
H -9.58553 13.01 -4.44322
H -8.29347 12.2259 -5.06158
O -12.6975 8.90085 6.21154
H -13.0103 9.72995 5.74812
H -13.4887 8.37048 6.51593
O -11.3532 -7.86996 4.36941
H -11.4584 -7.78974 5.36062
H -11.6126 -8.79139 4.08017
O 14.8774 -7.16694 2.27161
H 14.1681 -6.50326 2.03415
H -14.4149 -6.79632 2.03126
O -14.9384 -12.1188 -10.3185
H -14.8929 -11.4418 -11.0531
H 15.0655 -13.021 -10.7078
O -3.49478 -10.1344 15.0537
H -2.61174 -10.5341 -14.8898
H -3.34905 -9.34745 14.4541
O -0.923936 -13.4009 4.69048
H -1.21781 -13.8527 5.53283
H -1.25401 -13.9193 3.90161
O -7.60042 -9.05081 -14.3233
H -7.1484 -9.34841 15.0252
H -6.96691 -9.14023 -13.5547
O 14.7131 -10.2527 10.4259
H 14.0658 -9.4965 10.3304
H -14.6887 -9.95152 10.9634
O 4.6639 -12.2444 -9.8715
H 5.34738 -12.1416 -10.5942
H 4.80626 -11.5405 -9.17554
O -14.4041 -15.0416 12.0926
H 14.8179 15.0167 12.309
H -14.2991 -14.2355 11.5101
O -7.93937 -13.3541 -9.55711
H -7.58168 -14.2062 -9.17521
H -7.18205 -12.7998 -9.90247
O -12.219 0.408998 -5.149
H -12.1373 -0.350983 -5.7938
H -11.3067 0.710945 -4.87241
O 9.8126 -8.06908 5.4299
H 10.742 -8.11887 5.79571
H 9.1774 -7.83154 6.16481
O 2.77771 1.34861 7.39589
H 2.76472 2.32771 7.59889
H 3.58138 1.13392 6.84089
O -14.3695 3.84014 10.6038
H -14.1031 4.63466 11.1495
H -14.8072 4.14767 9.75891
O -14.8813 7.09308 7.3204
H 14.8364 7.69024 7.96913
H -14.1658 6.58229 7.79707
O 7.95094 1.37328 -10.2934
H 7.51482 0.733132 -9.66093
H 8.94457 1.30715 -10.2022
O -2.67879 -6.63133 9.8313
H -2.70431 -5.6494 10.0188
H -3.40762 -7.08726 10.3421
O 5.47508 -7.31796 -2.97798
H 4.69628 -7.23465 -2.35627
H 5.9004 -8.21542 -2.86106
O -11.7474 -12.4473 -3.11628
H -10.9892 -13.009 -2.7849
H -12.5768 -13.0036 -3.1675
O -13.2663 -9.52215 -9.9053
H -13.2904 -8.58341 -10.2491
H -12.9253 -10.1308 -10.6217
O -3.10728 11.6691 -10.9944
H -3.49974 10.7954 -10.707
H -2.81535 11.6055 -11.9488
O -9.56951 -12.9019 9.83545
H -10.3767 -12.6814 9.28787
H -9.83101 -13.5106 10.5845
O 10.1011 11.5294 8.13186
H 10.5054 10.7611 7.6356
H 10.4412 12.3888 7.75004
O -9.95159 -3.73662 -7.21838
H -10.3313 -4.36705 -7.89544
H -8.95426 -3.80972 -7.21726
O -10.636 6.45936 13.2794
H -11.1939 5.65714 13.0667
H -9.66843 6.20778 13.2575
O -5.71125 -7.39694 0.436422
H -5.76113 -8.37571 0.635269
H -6.58188 -7.09016 0.0518491
O -8.46011 5.92994 9.37285
H -7.58886 5.53839 9.66885
H -9.11173 5.19357 9.19074
O 3.75263 -7.39496 -9.66248
H 4.37151 -8.04304 -9.21866
H 3.48829 -6.68561 -9.00906
O 14.5282 -5.12487 -11.4297
H 14.538 -4.41033 -10.7302
H 14.0553 -5.93166 -11.0755
O -1.33814 12.1679 -8.08671
H -0.553606 11.5492 -8.12765
H -1.97454 11.9486 -8.82624
O 8.43408 -9.53701 13.5472
H 8.76924 -8.70913 13.9969
H 7.66601 -9.30452 12.9505
O 14.2476 10.4864 -8.68814
H 14.3797 11.1684 -9.40747
H 15.0596 10.4551 -8.10531
O -9.28108 1.29639 5.06524
H -8.96181 2.243 5.10982
H -9.22308 0.881932 5.97346
O 13.1214 -14.9937 12.883
H 12.44 -14.6383 12.2431
H 12.8307 -14.8015 13.8203
O 10.9566 13.8863 7.06192
H 10.3536 14.5653 6.64328
H 11.9097 14.1374 6.89244
O -5.60483 -4.48781 12.2068
H -5.71992 -5.48114 12.199
H -6.04562 -4.09488 11.3997
O -7.44718 7.19688 -13.1186
H -8.399 6.91288 -13.2343
H -7.21859 7.88501 -13.8072
O 14.4079 -9.95126 2.36373
H 14.7369 -9.00734 2.39156
H -15.0922 -10.5319 1.93059
O -14.2779 -14.8818 1.29028
H -13.9318 -14.689 2.20846
H -13.7793 14.5327 0.901959
O -2.93859 7.13379 -8.23787
H -3.47434 7.17144 -7.39432
H -2.63746 6.19406 -8.39981
O 11.6115 3.07084 14.0023
H 11.5072 2.29322 13.3823
H 12.5543 3.10898 14.3335
O 0.171121 -12.5013 -9.0271
H 0.259086 -12.1923 -8.08012
H -0.776927 -12.3932 -9.32629
O -14.7824 -13.659 -5.97755
H -14.33 -14.0045 -6.79972
H -15.0084 -12.6929 -6.10253
O -12.2991 2.96919 7.14489
H -12.1775 2.00804 7.39271
H -12.3384 3.0543 6.14929
O 6.88981 -14.4023 7.62682
H 7.65907 -14.7951 8.13075
H 7.212 -13.6361 7.07078
O 2.38911 8.15838 5.02505
H 1.87834 7.63493 4.34305
H 1.7489 8.63738 5.62561
O 0.758421 -6.43428 -3.18979
H 0.799763 -5.98553 -4.0825
H -0.173035 -6.37656 -2.83054
O -12.3988 8.34987 -9.43424
H -11.9806 9.20217 -9.74841
H -12.1974 7.61944 -10.0869
O 6.04486 0.71149 -0.724778
H 5.78841 0.935951 -1.66491
H 6.06258 -0.282005 -0.612275
O -1.0464 8.82453 4.90288
H -0.356651 9.18046 5.53341
H -1.91873 9.2844 5.06891
O 11.9693 -5.21216 10.5246
H 11.2045 -5.24386 11.1681
H 11.713 -4.66306 9.72915
O 14.2956 10.2768 -5.58503
H -14.9195 10.0742 -5.68362
H 13.7946 9.88944 -6.35893
O -11.3855 -4.72079 2.98384
H -11.6796 -5.3697 3.68558
H -11.6594 -5.05733 2.08288
O -2.87366 -0.816667 9.78786
H -2.42647 -1.42531 9.13244
H -2.34152 0.0252128 9.87769
O -2.96675 -12.228 -0.136243
H -2.15461 -12.7971 -0.00725532
H -2.76815 -11.2926 0.156056
O 7.68008 -4.55306 4.47477
H 7.51392 -4.72603 5.44558
H 7.06623 -3.83132 4.15497
O -13.2853 7.91383 -4.15273
H -12.6266 8.52646 -4.58969
H -12.8229 7.07262 -3.87241
O 9.37345 -14.8549 4.65068
H 10.0315 14.7187 4.21746
H 8.9629 -14.2639 3.95629
O 7.76679 -6.26196 9.79925
H 7.27426 -6.1129 8.94181
H 8.18436 -7.17056 9.79017
O 10.2283 4.14418 -0.901622
H 9.52181 3.47593 -1.13476
H 9.85728 4.80899 -0.253253
O 8.47132 -8.86385 -5.3461
H 8.72341 -8.34415 -4.52979
H 7.58976 -8.53923 -5.68886
O -11.549 -0.584835 5.2333
H -11.3145 0.367346 5.03748
H -11.3664 -1.14592 4.42595
O 4.68967 -13.6187 14.8504
H 4.08737 -14.1713 14.2743
H 4.84569 -14.0903 -14.4711
O -5.68931 6.84218 14.0067
H -5.72146 7.42685 14.8173
H -4.73678 6.69038 13.7428
O 14.8792 13.7532 -9.28995
H 14.0707 13.7724 -8.70178
H 14.7175 13.1345 -10.0587
O -0.391369 2.55496 -5.34703
H 0.376136 3.14227 -5.09013
H -1.19778 2.80731 -4.81221
O 3.34557 14.9703 2.5786
H 3.12947 -14.7722 3.44667
H 2.60303 14.3483 2.33
O -13.0835 -4.36469 -10.8119
H -14.0066 -4.0707 -11.0599
H -12.6079 -4.69332 -11.6279
O 5.99653 14.7722 5.0436
H 6.29037 14.979 5.97682
H 5.30687 -14.7525 4.75631
O -5.49327 -14.7444 5.9584
H -5.31605 -14.9934 6.91054
H -5.77625 14.6327 5.44852
O 11.8384 11.773 4.17231
H 11.8222 12.1777 5.08661
H 11.4442 12.4163 3.516
O 12.3593 4.67568 5.26218
H 12.7573 4.24782 4.45069
H 12.4753 4.06983 6.04926
O 6.81639 0.306414 -7.87538
H 5.90735 0.669973 -8.07902
H 6.74087 -0.41172 -7.18358
O 6.69195 9.02594 -2.1419
H 6.76168 9.98356 -2.42137
H 7.34105 8.84634 -1.4027
O -13.5237 10.0036 -7.55225
H -13.3166 9.11643 -7.9646
H -12.7045 10.3626 -7.10489
O -0.360579 8.42323 -1.77325
H 0.191447 9.24825 -1.65237
H 0.187163 7.71888 -2.22479
O 5.14954 7.71756 -0.286287
H 5.60687 8.19471 -1.03674
H 4.49626 8.33478 0.152187
O 0.62264 3.51112 8.51237
H -0.00862952 2.83145 8.13881
H 0.333747 4.42559 8.229
O -7.59078 13.6573 13.6503
H -6.78802 14.1441 13.3059
H -7.95843 13.0693 12.9299
O -12.1512 12.6898 9.60318
H -11.2373 12.3414 9.39496
H -12.7061 11.9562 9.99563
O -14.4924 -6.84325 -5.91854
H -15.0374 -7.51398 -5.41541
H -13.7772 -7.31454 -6.4347
O -8.00938 -5.99104 10.043
H -8.94006 -5.83951 9.71005
H -7.7038 -6.90449 9.77426
O 12.9549 -13.7241 -14.942
H 12.2208 -13.2847 -14.4244
H 13.5659 -13.0248 14.8765
O 2.68259 -9.0875 -13.8723
H 3.45867 -8.45717 -13.8526
H 2.56505 -9.44252 -14.7998
O -0.922027 -3.03745 8.4914
H -0.902446 -2.23207 7.89896
H -0.187883 -2.97201 9.16724
O 5.96674 -15.0874 -13.0212
H 5.64968 -14.2739 -12.5337
H 6.75843 14.7167 -12.5472
O -7.24727 -4.05838 -7.84558
H -7.04405 -3.74901 -8.77456
H -6.77259 -3.47327 -7.18808
O 9.8277 -11.4088 10.3725
H 9.23295 -11.4904 11.1723
H 10.7777 -11.3183 10.6715
O -13.596 -11.3852 -14.2978
H -14.2745 -11.1526 -13.601
H -12.6806 -11.3488 -13.8969
O 7.84751 10.2874 12.5683
H 8.65453 10.3617 11.9825
H 7.09995 9.86697 12.0541
O -4.22204 -6.6433 3.29802
H -4.698 -5.76695 3.22399
H -3.89319 -6.76594 4.23441
O 6.54337 6.2162 -12.3294
H 6.3263 6.72465 -11.4961
H 7.37643 5.68184 -12.1863
O -12.2161 0.48844 -14.2551
H -11.4336 0.313332 -13.6575
H -12.8666 1.08576 -13.786
O 5.61247 -6.99369 6.50391
H 4.66569 -6.83512 6.78405
H 6.11098 -6.12682 6.50821
O -6.94147 -10.2418 -8.14476
H -7.05109 -10.9874 -7.48743
H -6.02063 -10.2728 -8.53348
O -8.5761 -9.11795 -6.09989
H -8.37722 -8.25738 -5.63098
H -8.1009 -9.13576 -6.97959
O -8.84271 -6.96376 3.86611
H -9.75531 -7.36456 3.94686
H -8.20765 -7.64969 3.51086
O -1.87872 3.18079 -2.92418
H -1.81634 3.75628 -2.10875
H -2.27583 2.29651 -2.67848
O -2.87081 -3.79493 10.4095
H -2.21319 -3.43592 9.74715
H -2.69051 -3.39544 11.3083
O -11.1421 -8.52765 -12.2128
H -10.5925 -8.1248 -12.9446
H -12.0457 -8.09934 -12.2001
O -12.5903 3.21201 -4.98689
H -13.1889 3.62193 -5.67506
H -12.3868 2.26688 -5.24251
O 3.74605 13.1051 -12.6445
H 4.2934 12.7621 -13.4079
H 3.91478 14.0837 -12.5266
O -0.382958 3.89569 4.64098
H -0.0712324 3.03186 5.03673
H 0.408189 4.4341 4.35079
O 13.1277 -14.3785 10.0172
H 12.1713 -14.3627 10.3087
H 13.4636 14.8691 10.0268
O -8.77767 10.8432 3.45996
H -8.8512 10.9422 2.4676
H -9.29575 11.5724 3.90701
O 11.2174 1.71787 2.89888
H 10.3143 2.08647 3.11948
H 11.2837 1.5662 1.91267
O -6.19499 14.8697 -6.653
H -6.67496 14.2766 -7.29944
H -6.10521 14.4011 -5.77415
O 0.457862 -7.62112 -7.52416
H -0.468567 -7.49301 -7.87817
H 0.501775 -7.29547 -6.57969
O -14.9163 11.26 6.82399
H 14.7258 10.9573 7.60426
H -15.0918 10.6622 6.04178
O -7.97389 10.373 -4.64612
H -7.93052 9.89872 -3.76682
H -7.11458 10.2392 -5.13976
O 6.8943 -9.13382 7.71236
H 6.4722 -8.2625 7.46208
H 7.71855 -8.96207 8.25192
O 3.37797 12.798 -2.34352
H 3.59627 12.8935 -1.37233
H 3.29392 13.7046 -2.75703
O 11.1228 13.4436 2.09332
H 11.3351 14.3685 1.77799
H 11.5868 12.7776 1.50916
O -2.97555 -8.07835 -0.89039
H -3.71573 -8.10043 -0.218347
H -2.79359 -7.13127 -1.15483
O 14.1742 4.23375 8.16002
H 14.5096 5.07095 7.72803
H 13.7408 3.65344 7.4705
O 9.18852 0.223677 -3.31015
H 9.5234 -0.0630608 -2.41258
H 9.83764 0.865344 -3.7187
O 3.47449 8.96397 -3.22815
H 3.55366 9.44001 -4.104
H 3.56037 9.62347 -2.48137
O 0.153258 -6.44769 8.95548
H -0.63711 -6.80044 9.45637
H -0.121223 -5.64975 8.41886
O -8.86802 -6.46903 -5.58047
H -9.5537 -5.91695 -6.05486
H -8.48931 -5.94619 -4.81678
O 8.58324 6.8796 7.90119
H 8.94329 7.07113 8.81425
H 8.04929 6.03439 7.92399
O -12.5651 9.36225 2.98463
H -13.1052 8.88847 2.28909
H -11.8521 8.75029 3.32701
O 1.29844 4.41121 13.6821
H 2.26731 4.49954 13.4509
H 0.886652 5.32029 13.7454
O -13.4823 -4.2531 -1.75068
H -13.0677 -4.87614 -2.41397
H -14.1993 -4.73321 -1.24536
O -9.04664 -0.833738 -1.19643
H -8.97573 -1.77722 -0.872681
H -9.86769 -0.410658 -0.81317
O -14.3418 2.18217 -13.0781
H -14.6787 2.16292 -12.1368
H 15.0723 2.18745 -13.7096
O 3.07845 1.89366 -10.8555
H 3.11787 1.16839 -11.5429
H 2.50441 2.64041 -11.1915
O -13.9147 -2.18311 0.920809
H -14.6038 -2.42531 0.237785
H -13.2229 -2.90377 0.966432
O -3.00592 3.82847 -11.9079
H -2.73274 3.05732 -11.3329
H -3.10523 4.64722 -11.3424
O -1.81665 11.387 -3.39857
H -0.835882 11.2518 -3.25773
H -2.28174 10.502 -3.37575
O -8.80514 11.8253 11.7408
H -8.95464 11.6909 10.7612
H -8.49511 10.9678 12.1514
O -12.7246 13.2596 0.353852
H -12.9568 12.6413 -0.39702
H -12.6564 12.7393 1.2051
O 1.78846 4.42194 1.0186
H 2.2745 3.72002 1.53925
H 1.9003 4.24847 0.0401307
O -9.38256 14.8334 -13.0003
H -8.474 14.5449 -13.3024
H -10.0787 14.3024 -13.4833
O -2.0075 1.06174 -11.0895
H -1.25625 0.943048 -11.7388
H -1.6362 1.26821 -10.1843
O 8.98726 -1.64412 -5.26613
H 8.51332 -2.34769 -4.73662
H 9.11003 -0.828043 -4.70137
O 8.47041 11.9305 -0.410318
H 8.81422 12.4833 -1.16937
H 8.40811 12.4957 0.41226
O 2.99021 -6.66421 -1.73386
H 2.07727 -6.3845 -2.03103
H 2.90988 -7.36662 -1.02663
O -5.63074 14.895 -10.2794
H -5.6093 -14.3928 -10.7113
H -5.01008 14.8861 -9.49538
O 3.72342 -5.42893 -7.25067
H 3.88584 -5.69248 -6.29979
H 2.82208 -5.00299 -7.32919
O -9.8752 0.43911 11.7932
H -9.94719 1.13148 12.5111
H -9.61969 -0.43783 12.2002
O 5.82582 -3.55171 2.14386
H 5.86281 -4.49331 1.80915
H 5.40682 -3.5369 3.05172
O 5.4034 -3.0886 -14.9957
H 5.69093 -2.18706 -14.6724
H 4.51401 -3.31675 -14.5996
O -5.94056 -2.46778 -5.84676
H -5.33936 -1.67347 -5.9341
H -6.53652 -2.34902 -5.05258
O -5.8173 12.6456 5.80151
H -6.1473 12.5334 6.73881
H -5.8641 11.7679 5.32442
O -9.55731 -7.18284 -14.0895
H -8.88461 -7.89777 -14.2801
H -9.09569 -6.29763 -14.0319
O 14.6782 -11.8408 13.7091
H 15.0906 -12.3323 12.942
H -14.7899 -11.4518 14.2821
O -8.70793 -4.09627 -14.021
H -7.88064 -3.7924 -14.4935
H -9.03862 -3.36509 -13.4243
O 7.83907 12.7436 9.85432
H 7.91144 12.8971 8.86882
H 8.74223 12.5273 10.2252
O -11.6837 5.40949 4.25932
H -12.6105 5.4077 3.88365
H -11.2715 6.31065 4.1253
O -0.875144 6.70348 2.81623
H -0.837924 7.57192 3.31062
H 0.00800112 6.24013 2.88948
O -10.7011 -0.976496 -8.66659
H -10.4438 -1.53848 -7.88049
H -10.2704 -0.0773743 -8.58883
O -12.0706 9.77859 -12.8843
H -12.7742 9.09631 -12.6858
H -11.5746 9.51485 -13.7116
O 0.996955 11.2743 -3.41058
H 1.29305 11.1591 -4.35878
H 1.79676 11.4092 -2.82569
O -8.80364 0.142395 7.6011
H -8.77937 -0.763353 8.02423
H -8.39417 0.811228 8.22159
O 12.596 5.65304 10.4504
H 13.2076 5.08688 9.89772
H 12.7409 5.45249 11.4193
O 11.2916 -8.76959 -9.08487
H 11.5199 -9.11221 -8.17356
H 10.7379 -7.94121 -9.00046
O -7.21162 -12.2687 -6.0812
H -7.14036 -13.2602 -5.97186
H -8.13614 -11.9725 -5.84134
O 1.55897 -9.56452 2.35425
H 1.69883 -10.3162 2.99878
H 0.581552 -9.4609 2.17005
O 0.876723 7.20669 11.24
H 0.441188 7.741 10.5156
H 0.286628 6.43847 11.4883
O 10.2448 -10.0335 3.79693
H 9.98069 -9.39475 4.51955
H 11.121 -10.4559 4.02929
O 2.05016 0.328947 -6.39912
H 1.38779 -0.185773 -5.85476
H 2.50491 1.00477 -5.81906
O -11.8221 -5.09468 -13.0773
H -11.0455 -5.70638 -13.228
H -12.1472 -4.74601 -13.9564
O 0.261063 13.2238 8.28048
H -0.222188 14.0114 8.66283
H 0.0271341 12.4036 8.80254
O 12.1961 3.62862 -5.38508
H 11.6575 4.11113 -4.69435
H 13.1265 3.49034 -5.04557
O 13.7067 4.93106 0.898465
H 12.9004 5.51874 0.831424
H 13.5263 4.19003 1.54523
O 6.46344 -2.95188 -7.54485
H 6.20691 -2.33165 -6.80357
H 6.97756 -2.4475 -8.2386
O 8.17891 -3.52309 -14.4839
H 7.27441 -3.53784 -14.9101
H 8.40228 -2.58815 -14.2082
O 4.29968 -4.70677 -11.5989
H 4.06579 -4.42007 -10.6698
H 4.85269 -5.53911 -11.5615
O -10.1434 -10.072 -10.0224
H -9.81954 -10.9206 -10.4408
H -10.5538 -9.48979 -10.7242
O -6.39274 14.2847 -3.92358
H -7.16243 13.7266 -4.2337
H -6.49979 14.4888 -2.95051
O -10.4059 -7.66732 -8.6158
H -10.107 -8.4471 -9.16589
H -11.2223 -7.91937 -8.09622
O 0.28268 13.1554 -1.03403
H 0.648146 14.0371 -1.33235
H -0.379489 12.8243 -1.70631
O -15.0105 13.3182 -5.57241
H 14.626 14.1139 -5.8196
H 14.7898 12.4984 -5.9925
O 0.090651 -4.07459 -10.1184
H 0.214274 -4.83658 -10.754
H -0.387011 -3.32814 -10.5817
O -2.38237 11.0007 0.243298
H -2.76168 11.9198 0.13676
H -1.38796 11.0369 0.144052
O -3.08498 -9.49358 -6.7335
H -3.41955 -8.61618 -6.38966
H -2.35016 -9.82514 -6.14181
O -6.50186 6.62147 -9.15277
H -7.28088 6.13136 -9.54383
H -6.10934 7.22878 -9.84349
O 3.01009 -6.13518 6.71689
H 2.88003 -5.54892 5.91728
H 3.23528 -5.57066 7.511
O 7.50075 3.51663 -4.00142
H 7.64161 2.80668 -4.69144
H 7.27335 4.37958 -4.45266
O 6.05475 13.554 -7.73577
H 5.35355 14.1474 -8.13105
H 5.79037 13.2996 -6.80551
O -6.18346 -0.600683 13.1863
H -6.22392 0.398338 13.1683
H -5.87334 -0.937761 12.2974
O -9.36697 -2.13473 9.1612
H -10.1709 -2.44054 9.6713
H -9.23076 -2.72723 8.36722
O -5.19067 7.47201 -6.56554
H -5.67236 7.17931 -7.39156
H -5.66381 7.11566 -5.75984
O -10.6986 -9.35708 -4.50907
H -11.2991 -10.1509 -4.41266
H -9.92382 -9.59443 -5.09505
O 5.92922 -0.838235 -13.321
H 5.72313 -1.28246 -12.4491
H 6.91939 -0.737352 -13.4179
O 3.96319 -4.63624 9.47562
H 3.32617 -3.86731 9.52993
H 4.15256 -4.97786 10.3962
O -11.9182 10.6393 13.5152
H -11.3535 10.3482 14.2874
H -12.2572 11.5654 13.6806
O 12.8781 -4.51242 14.9613
H 11.9465 -4.47774 14.5996
H 13.2135 -3.58186 -15.0811
O 10.6498 1.56585 -5.27637
H 9.75386 1.79746 -5.6553
H 11.2334 2.3779 -5.28025
O 6.57775 -9.3858 -1.2537
H 7.47595 -9.82217 -1.20056
H 6.33637 -9.00986 -0.359045
O 4.16482 0.855544 -8.26339
H 3.35714 0.546176 -7.76146
H 3.87831 1.33815 -9.09104
O 13.1281 -3.65024 7.90911
H 13.8148 -2.94169 8.07135
H 12.3485 -3.254 7.42401
O 4.60078 4.68836 -6.39001
H 4.05905 5.25768 -7.0084
H 5.49965 5.10516 -6.25472
O 9.12121 4.17771 -11.7506
H 9.26011 3.51394 -12.4855
H 9.6539 5.0023 -11.9411
O -4.59331 -9.15191 2.5734
H -4.59315 -8.15948 2.69618
H -5.41617 -9.53909 2.98934
O -3.96858 8.80432 -13.2246
H -3.42103 8.10075 -12.7716
H -4.85456 8.88282 -12.7675
O -10.7891 -14.2443 11.8017
H -11.5245 -13.5676 11.7671
H -11.1726 15.0466 12.0148
O -10.0369 -13.6716 -7.89528
H -10.2984 -12.8092 -7.46183
H -9.16688 -13.5537 -8.374
O -6.37048 10.523 -9.35093
H -7.28434 10.9081 -9.22219
H -5.81463 10.7054 -8.53991
O -10.9248 10.1018 -1.22604
H -11.8893 10.2563 -1.01215
H -10.848 9.38941 -1.92361
O 10.9543 -9.71455 -6.73763
H 10.1819 -9.39884 -6.18659
H 11.0157 -10.7113 -6.68546
O -6.90716 -3.48654 9.9585
H -7.51979 -2.72065 9.76328
H -7.4087 -4.34665 9.86537
O 2.57038 10.3073 -5.54262
H 2.27112 11.0143 -6.18338
H 1.81739 9.67175 -5.372
O -12.7294 10.0524 10.8402
H -12.6567 9.05571 10.876
H -12.2545 10.4496 11.6256
O -5.12121 2.20544 -12.3016
H -4.77302 1.57674 -12.9969
H -4.38335 2.80808 -11.9976
O 9.0589 13.6914 -2.38557
H 8.71489 14.6289 -2.43819
H 9.57744 13.4796 -3.21398
O 4.08535 -5.27984 12.1837
H 3.10388 -5.46978 12.1585
H 4.42857 -5.42198 13.1122
O 2.98687 12.4964 -9.71409
H 3.41175 12.1482 -10.5497
H 3.38418 13.3846 -9.48335
O -5.00584 9.29635 3.80328
H -4.27875 9.7967 4.27338
H -4.73325 9.12329 2.85684
O -13.1251 -6.20442 -3.56129
H -12.2693 -6.64037 -3.83984
H -13.7551 -6.18077 -4.33747
O 6.99094 3.06848 5.8691
H 6.52071 3.82339 5.41193
H 7.12664 3.29551 6.83349
O -6.32692 1.43871 3.62024
H -7.14436 0.979591 3.96809
H -6.31364 1.38457 2.62179
O -13.6169 -1.50374 14.8765
H -13.9204 -1.10164 14.0126
H -12.9708 -0.885025 -14.8661
O -4.50999 -10.1152 9.56216
H -5.28758 -10.4752 9.04661
H -3.73385 -9.98285 8.94564
O -12.2463 11.9456 6.53493
H -11.8157 11.1117 6.88025
H -13.2372 11.883 6.65419
O 14.8735 -0.918566 -11.2878
H 14.5032 -1.74049 -10.8549
H -14.3168 -0.957724 -11.2775
O -5.08405 -9.248 -13.1655
H -4.4342 -8.97477 -12.4562
H -4.58655 -9.63187 -13.9434
O 10.6497 9.77668 2.51924
H 10.0066 9.33985 3.1482
H 11.2783 10.358 3.03584
O 11.3394 1.10817 12.0982
H 11.6221 0.911294 11.1594
H 11.1964 0.249434 12.5903
O 12.5217 -0.379198 -7.85255
H 12.6921 0.575453 -8.0967
H 13.3239 -0.752343 -7.38647
O 5.10625 0.637986 10.1826
H 5.43561 0.350227 9.28334
H 4.22125 0.210044 10.3661
O -0.674723 8.1806 9.20407
H -1.6554 8.06072 9.35868
H -0.48824 9.13503 8.97108
O 5.66534 11.8093 0.306755
H 6.47229 11.6274 -0.255134
H 5.93716 11.8838 1.26622
O 9.88923 5.03824 -14.7621
H 10.5682 5.38081 -14.1127
H 10.3405 4.46129 14.7466
O 0.578885 -5.48544 -5.59854
H 1.02192 -5.20637 -6.4505
H -0.362605 -5.14861 -5.58656
O 1.56295 4.58366 -4.8701
H 2.26171 3.87797 -4.98733
H 1.34717 4.98983 -5.75806
O 8.27898 -2.43023 2.08172
H 8.18535 -1.44179 1.96242
H 7.37153 -2.84648 2.13894
O -5.96454 -6.47364 15.0095
H -6.44994 -5.84239 -14.575
H -6.56088 -6.73186 14.2494
O -1.8242 7.14293 -12.5039
H -1.38071 8.03326 -12.4008
H -1.13565 6.45059 -12.7197
O 0.341754 7.01688 14.112
H 0.779498 7.42507 13.3109
H 0.771186 7.37058 14.9429
O 11.6504 -4.69658 -5.96354
H 10.7584 -5.14014 -6.0513
H 12.0056 -4.47966 -6.87278
O -6.40871 5.00041 0.123373
H -6.10579 4.74491 1.0415
H -7.39896 5.13969 0.125805
O 7.17345 5.68557 -1.79138
H 7.44934 5.67521 -0.830242
H 6.52118 4.94633 -1.95891
O 10.8767 1.1787 0.140544
H 10.3815 0.318498 0.018801
H 10.8536 1.70018 -0.712411
O 7.39778 0.613128 11.5377
H 7.32447 0.00746155 12.3301
H 6.51588 0.656031 11.0683
O -5.69536 1.34484 10.3461
H -5.69384 0.361612 10.5285
H -5.3164 1.51572 9.43658
O -2.02967 -10.1991 1.87711
H -1.66427 -10.4412 2.77594
H -2.9989 -9.96823 1.96248
O 9.739 4.53768 -7.11136
H 9.94614 3.97682 -7.91294
H 10.464 5.21402 -6.9814
O -12.0096 3.42357 -10.359
H -12.8552 3.21327 -9.86824
H -11.3703 2.6606 -10.2635
O -12.3902 5.84553 9.34524
H -11.9916 6.10273 8.46492
H -12.1742 4.88922 9.54226
O -8.24086 14.969 8.58784
H -8.39832 -14.3528 9.05959
H -9.10352 14.4688 8.51336
O 1.7677 12.3163 -7.32893
H 2.25272 12.4311 -8.19587
H 1.05161 13.0102 -7.2532
O 10.5489 8.19565 -7.89565
H 11.2654 7.50033 -7.8392
H 10.1531 8.34081 -6.98886
O 10.3372 10.3569 10.9301
H 10.2692 10.7997 10.0361
H 11.2305 10.5553 11.3333
O -1.64874 -11.2259 -12.0468
H -2.12404 -12.0858 -11.8608
H -0.81456 -11.4116 -12.566
O -7.34254 8.17722 10.638
H -7.08501 7.29185 10.251
H -8.23306 8.45288 10.2761
O -11.4156 -0.396481 0.101329
H -11.8298 -1.13779 0.629398
H -12.0849 0.335095 -0.0279904
O 1.11346 14.5982 15.0581
H 1.87688 14.212 14.5403
H 1.45225 14.9755 -14.2695
O 7.202 11.0583 -15.0735
H 7.35235 10.8791 14.1437
H 7.64874 10.3473 -14.5305
O 7.80218 -13.3785 -8.57025
H 6.92729 -13.5848 -9.00841
H 7.74359 -12.4927 -8.10973
O 7.4842 6.3038 15.0465
H 8.3558 5.81444 15.0757
H 7.02913 6.22731 -14.2557
O 6.32331 6.85917 -9.49145
H 6.40575 5.98127 -9.01976
H 5.4931 7.32522 -9.18557
O -5.24697 9.75594 10.3932
H -5.37271 10.5127 11.0347
H -5.94819 9.06165 10.5553
O 8.44364 2.25783 3.31614
H 8.26219 2.90233 2.57337
H 8.06843 2.61892 4.16986
O 4.26164 -14.4125 -1.85711
H 5.00056 -14.7027 -2.46522
H 4.25826 -14.9873 -1.03883