LAMMPS data file via write_data, version 15 May 2015, timestep = 23005000

2611 atoms
6 atom types
1749 bonds
4 bond types
894 angles
3 angle types
44 dihedrals
3 dihedral types
10 impropers
1 improper types

-1.4991494895342679e+01 1.4991494895342679e+01 xlo xhi
-1.4991494895342679e+01 1.4991494895342679e+01 ylo yhi
-1.4991494895342679e+01 1.4991494895342679e+01 zlo zhi

Masses

1 15.9994
2 1.00794
3 12.0107
4 1.00794
5 12.0107
6 12.0107

Bond Coeffs # harmonic

1 1000 1
2 469 1.4
3 367 1.08
4 469 0.7

Angle Coeffs # harmonic

1 100 109.47
2 35 120
3 63 120

Dihedral Coeffs # opls

1 0 7.25 0 0
2 0 7.25 0 0
3 0 7.25 0 0

Improper Coeffs # cvff

1 2.5 -1 2

Atoms # full

354 118 2 4.0999999999999998e-01 -9.4698540485901699e+00 -8.9414150109795258e+00 -1.1913510269563142e+01 -3 0 9
2254 752 1 -8.1999999999999995e-01 -1.2530939120604510e+01 -1.4535811050163032e+01 -1.0799227791402499e+01 4 5 -1
602 201 2 4.0999999999999998e-01 -1.3452095195652547e+01 -1.1646919487626223e+01 -1.2156467487209234e+01 7 0 0
2255 752 2 4.0999999999999998e-01 -1.3522044461940443e+01 -1.4666031060576360e+01 -1.0772627451915547e+01 4 5 -1
707 236 2 4.0999999999999998e-01 -1.2673082389065645e+01 -9.4652668127722048e+00 -9.8163305257077003e+00 7 -3 -5
708 236 2 4.0999999999999998e-01 -1.1734472260790740e+01 -8.1414710169015638e+00 -9.9982130731251111e+00 7 -3 -5
1799 600 2 4.0999999999999998e-01 -8.0188309048245081e+00 -1.0695492552983559e+01 -7.6100297160796204e+00 6 -1 1
601 201 1 -8.1999999999999995e-01 -1.2475839525114090e+01 -1.1859951894563800e+01 -1.2195154504109157e+01 7 0 0
353 118 2 4.0999999999999998e-01 -8.6216337881891221e+00 -9.2609169585487265e+00 -1.0555222306092348e+01 -3 0 9
603 201 2 4.0999999999999998e-01 -1.2023303657534127e+01 -1.1235136558639052e+01 -1.2831371217111812e+01 7 0 0
706 236 1 -8.1999999999999995e-01 -1.1733554865552700e+01 -9.1229879499523641e+00 -9.8069584970934045e+00 7 -3 -5
2242 748 1 -8.1999999999999995e-01 -9.7980471554409139e+00 -1.2092426952058457e+01 -1.0628573343713200e+01 2 -2 -1
2244 748 2 4.0999999999999998e-01 -1.0611041995923131e+01 -1.2261440122864732e+01 -1.1185734514575879e+01 2 -2 -1
1800 600 2 4.0999999999999998e-01 -8.5141709781674955e+00 -1.1856128908333337e+01 -8.6464017375356406e+00 6 -1 1
172 58 1 -8.1999999999999995e-01 -1.4940995647152267e+01 -1.0194996250890508e+01 -1.1086768323172183e+01 0 7 -1
1018 340 1 -8.1999999999999995e-01 -1.4657107988031976e+01 -8.2663475518803899e+00 -1.2912026468543031e+01 8 2 3
2256 752 2 4.0999999999999998e-01 -1.2319084366632559e+01 -1.3688054141137114e+01 -1.1285417459390146e+01 4 5 -1
1555 519 1 -8.1999999999999995e-01 -1.1986762132312636e+01 -6.3243766537963886e+00 -1.0671718368659306e+01 3 2 5
959 320 2 4.0999999999999998e-01 -9.2736346018268137e+00 -1.0360586248087973e+01 -1.4782835538249058e+01 1 1 -4
2243 748 2 4.0999999999999998e-01 -9.4265961810742613e+00 -1.1189857818900499e+01 -1.0846168725143546e+01 2 -2 -1
958 320 1 -8.1999999999999995e-01 -1.0237360156862426e+01 -1.0620385902421351e+01 -1.4843595084687434e+01 1 1 -4
605 202 2 4.0999999999999998e-01 -9.9716248799692320e+00 -1.3833054163045819e+01 -1.3791203231990481e+01 -4 1 4
1557 519 2 4.0999999999999998e-01 -1.1332778679725077e+01 -6.5617450815463378e+00 -1.1389991651728424e+01 3 2 5
238 80 1 -8.1999999999999995e-01 -7.8151642267779806e+00 -1.4307043265806954e+01 -1.0752553372037610e+01 -2 1 3
352 118 1 -8.1999999999999995e-01 -8.7863427996002557e+00 -9.5431073696703628e+00 -1.1500311806209037e+01 -3 0 9
1019 340 2 4.0999999999999998e-01 -1.4173256736595361e+01 -8.8115378904411301e+00 -1.3596577469262028e+01 8 2 3
530 177 2 4.0999999999999998e-01 -1.1602766773357613e+01 -1.4591606453245483e+01 -7.6113752272038075e+00 -1 -1 -7
2458 820 1 -8.1999999999999995e-01 -1.1794112982951845e+01 -9.1130109713571485e+00 -1.2835730081929912e+01 6 0 0
2460 820 2 4.0999999999999998e-01 -1.1174723402455527e+01 -9.6028392747271081e+00 -1.3449227636686906e+01 6 0 0
2459 820 2 4.0999999999999998e-01 -1.1431818098122935e+01 -8.1982626721212597e+00 -1.2657033111196085e+01 6 0 0
1020 340 2 4.0999999999999998e-01 -1.4240942549298463e+01 -7.3589594063514641e+00 -1.2853650946384077e+01 8 2 3
604 202 1 -8.1999999999999995e-01 -9.3156583121133636e+00 -1.3091509847356644e+01 -1.3650581334252024e+01 -4 1 4
284 95 2 4.0999999999999998e-01 -9.0460224278299677e+00 -6.5851259843610102e+00 -1.2272712359779263e+01 -1 -3 4
200 67 2 4.0999999999999998e-01 -1.0033359261961463e+01 -9.3162135848824494e+00 -8.9249483926741497e+00 7 -1 -4
1428 476 2 4.0999999999999998e-01 -1.4337388202802090e+01 -1.2146765106391227e+01 -1.4745803840567042e+01 4 3 0
606 202 2 4.0999999999999998e-01 -9.8027029734644238e+00 -1.2219168242892451e+01 -1.3608602321178456e+01 -4 1 4
762 254 2 4.0999999999999998e-01 -1.2370122965505349e+01 -1.3247680893805947e+01 -1.4651304630820281e+01 -3 1 -1
239 80 2 4.0999999999999998e-01 -8.6694146361319842e+00 -1.3805284279056302e+01 -1.0888379698178452e+01 -2 1 3
283 95 1 -8.1999999999999995e-01 -9.9191479489523573e+00 -6.9222179026962571e+00 -1.2624813928177471e+01 -1 -3 4
285 95 2 4.0999999999999998e-01 -9.8634795118925425e+00 -7.0169785006195324e+00 -1.3618733462918945e+01 -1 -3 4
199 67 1 -8.1999999999999995e-01 -9.0876386146128105e+00 -9.0984042594623720e+00 -8.6838546650755646e+00 7 -1 -4
1447 483 1 -8.1999999999999995e-01 -1.4429196231608939e+01 -6.7976130126764858e+00 -9.2487480855381250e+00 -3 0 1
1023 341 2 4.0999999999999998e-01 -1.3998412503306904e+01 -1.0174052127281730e+01 -8.1581982336202756e+00 2 5 -6
1798 600 1 -8.1999999999999995e-01 -8.0458242615750422e+00 -1.1680458548023605e+01 -7.7805230386239455e+00 6 -1 1
1449 483 2 4.0999999999999998e-01 -1.4618143778839585e+01 -7.7170667083460405e+00 -8.9039896555327012e+00 -3 0 1
1556 519 2 4.0999999999999998e-01 -1.1551076244251419e+01 -5.7098396074768676e+00 -1.0014088792327611e+01 3 2 5
760 254 1 -8.1999999999999995e-01 -1.1903359380861851e+01 -1.4109541406726352e+01 -1.4453105775169867e+01 -3 1 -1
1448 483 2 4.0999999999999998e-01 -1.3614693667227170e+01 -6.8198594643036667e+00 -9.8284422411862362e+00 -3 0 1
529 177 1 -8.1999999999999995e-01 -1.0684375306219735e+01 -1.4575235484539773e+01 -8.0066520298275705e+00 -1 -1 -7
201 67 2 4.0999999999999998e-01 -9.0787069514840297e+00 -8.4396970452455555e+00 -7.9315384696018851e+00 7 -1 -4
509 170 2 4.0999999999999998e-01 -1.3197300371326783e+01 -5.9886125319065453e+00 -1.1933279239632899e+01 0 0 3
1021 341 1 -8.1999999999999995e-01 -1.4618561488857491e+01 -9.5067928424765746e+00 -8.5706723003729230e+00 2 5 -6
531 177 2 4.0999999999999998e-01 -1.0722935816627775e+01 -1.4176625618508627e+01 -8.9229368707224097e+00 -1 -1 -7
173 58 2 4.0999999999999998e-01 -1.4978281399554081e+01 -9.8694068229913547e+00 -1.0142016569080814e+01 0 7 -1
508 170 1 -8.1999999999999995e-01 -1.3774154406971126e+01 -5.5263002224240108e+00 -1.2606674645221746e+01 0 0 3
174 58 2 4.0999999999999998e-01 -1.4788124506688130e+01 -9.4204241743229193e+00 -1.1700464639597874e+01 0 7 -1
1848 616 2 4.0999999999999998e-01 -1.4700323497866885e+01 -5.5701330054544567e+00 -1.4212381191324104e+01 3 4 6
15 5 2 4.0999999999999998e-01 -7.5823968875039212e+00 -1.4635932387541549e+01 -8.8825819278824714e+00 0 5 -6
1043 348 2 4.0999999999999998e-01 -7.7150452590008527e+00 -8.5072801043621897e+00 -1.4741036382192503e+01 2 4 2
761 254 2 4.0999999999999998e-01 -1.2519115041608279e+01 -1.4873799948228470e+01 -1.4644700391795523e+01 -3 1 -1
1515 505 2 4.0999999999999998e-01 -1.2098351155243350e+01 -1.0981971039778863e+01 -1.4919388110576646e+01 -6 5 2
166 56 1 -8.1999999999999995e-01 -1.7351065270820172e+00 -5.3060298756107755e+00 -1.2480735900110480e+01 5 0 0
634 212 1 -8.1999999999999995e-01 -6.5218996160416101e+00 -1.1381523218171658e+01 -1.2393788054879128e+01 0 -3 0
635 212 2 4.0999999999999998e-01 -7.0044851329816762e+00 -1.2212174083173418e+01 -1.2671429887760887e+01 0 -3 0
2318 773 2 4.0999999999999998e-01 -2.7628093061971821e+00 -1.3591739863335240e+01 -9.9998498054788652e+00 1 -1 0
2077 693 1 -8.1999999999999995e-01 -6.0454375803342284e+00 -6.5504684715153569e+00 -1.0591946229914967e+01 -2 3 -2
1564 522 1 -8.1999999999999995e-01 -6.3161972733280400e+00 -8.7625643678791594e+00 -8.8843271763878295e+00 5 -3 0
2319 773 2 4.0999999999999998e-01 -3.7371819634785624e+00 -1.3162258542418636e+01 -8.7618477078995927e+00 1 -1 0
2015 672 2 4.0999999999999998e-01 -4.2626516172465081e+00 -7.1625043665702606e+00 -1.0994798766680743e+01 -2 4 3
240 80 2 4.0999999999999998e-01 -7.2651125287236731e+00 -1.4260545519382649e+01 -1.1586361283113135e+01 -2 1 3
85 29 1 -8.1999999999999995e-01 -1.7836208498063630e+00 -1.1089597917379548e+01 -1.2381025031564491e+01 -3 -5 4
1127 376 2 4.0999999999999998e-01 -8.4631584334823451e-01 -1.3918613926255892e+01 -1.2384234478375806e+01 2 4 -6
1565 522 2 4.0999999999999998e-01 -7.2782622774024457e+00 -8.8974134302607446e+00 -8.6472590213382663e+00 5 -3 0
1963 655 1 -8.1999999999999995e-01 -5.0702051258948337e+00 -5.1404832633733406e+00 -1.4573127830450661e+01 -1 -2 -3
87 29 2 4.0999999999999998e-01 -2.7255254086564928e+00 -1.1376493756173613e+01 -1.2555556409670782e+01 -3 -5 4
1579 527 1 -8.1999999999999995e-01 -2.9004751609069945e+00 -8.8160603494027647e+00 -1.3511993494394735e+01 -1 0 -1
167 56 2 4.0999999999999998e-01 -2.3943897051193659e+00 -5.8247443766110205e+00 -1.1936460574299174e+01 5 0 0
1894 632 1 -8.1999999999999995e-01 -2.9241095814346103e+00 -1.4154566803406048e+01 -1.2011645369069230e+01 8 0 -4
1875 625 2 4.0999999999999998e-01 -1.4407228281223663e+00 -9.4318996449455419e+00 -8.9191937117500455e+00 3 1 1
1179 393 2 4.0999999999999998e-01 -5.0163059657140767e+00 -1.1763996550170688e+01 -1.2787902502065549e+01 7 0 0
1037 346 2 4.0999999999999998e-01 -5.0710584715447293e+00 -1.1701922638805099e+01 -9.5253386711289032e+00 2 0 -3
1413 471 2 4.0999999999999998e-01 -1.1391390987325778e-01 -8.2116020824531084e+00 -1.0320240180818939e+01 -1 9 -2
1038 346 2 4.0999999999999998e-01 -5.5766186259990729e+00 -1.0992901679461735e+01 -1.0906716087644458e+01 2 0 -3
1566 522 2 4.0999999999999998e-01 -5.9648415269711332e+00 -9.5847752539991014e+00 -9.3320693945057940e+00 5 -3 0
408 136 2 4.0999999999999998e-01 -6.0729532109899971e+00 -1.4176345294758402e+01 -1.3949329373179619e+01 2 0 -3
1177 393 1 -8.1999999999999995e-01 -4.1833866315770152e+00 -1.1880791279777831e+01 -1.3328789767789734e+01 7 0 0
791 264 2 4.0999999999999998e-01 -2.8448696983865513e+00 -7.3493711770895365e+00 -1.4612725686538674e+01 3 1 4
2078 693 2 4.0999999999999998e-01 -6.2084801527261710e+00 -5.6859257191228529e+00 -1.0116617297340884e+01 -2 3 -2
2016 672 2 4.0999999999999998e-01 -2.8243546598739027e+00 -7.8269563194719884e+00 -1.0599436910989009e+01 -2 4 3
1873 625 1 -8.1999999999999995e-01 -1.6040370180961201e+00 -9.0448013501307862e+00 -9.8266285797327768e+00 3 1 1
1874 625 2 4.0999999999999998e-01 -1.6157082085447598e+00 -9.7792692356679147e+00 -1.0505138238601324e+01 3 1 1
2074 692 1 -8.1999999999999995e-01 -5.2940743361721303e+00 -1.3731102750222547e+01 -9.1067277968390510e+00 4 5 1
636 212 2 4.0999999999999998e-01 -7.1398628162711510e+00 -1.0598339777994472e+01 -1.2462343284348908e+01 0 -3 0
2317 773 1 -8.1999999999999995e-01 -2.7965249743768972e+00 -1.3378249277746001e+01 -9.0235098748732590e+00 1 -1 0
1580 527 2 4.0999999999999998e-01 -3.0305489355579986e+00 -8.2056891364042670e+00 -1.2730659726872696e+01 -1 0 -1
2014 672 1 -8.1999999999999995e-01 -3.3033873240048912e+00 -7.2519849702270758e+00 -1.1262679107722903e+01 -2 4 3
790 264 1 -8.1999999999999995e-01 -2.5650843825663294e+00 -6.4091535628120155e+00 -1.4806802115913026e+01 3 1 4
498 166 2 4.0999999999999998e-01 -1.6235104471614470e+00 -1.2745611390162987e+01 -7.9644093636273521e+00 1 1 -1
2076 692 2 4.0999999999999998e-01 -5.1092237078895391e+00 -1.4548575664950778e+01 -8.5612711973936726e+00 4 5 1
2079 693 2 4.0999999999999998e-01 -6.1687556346169892e+00 -7.3102238412743281e+00 -9.9535740150372760e+00 -2 3 -2
86 29 2 4.0999999999999998e-01 -1.2228630103532847e+00 -1.1892305572641675e+01 -1.2178131677438129e+01 -3 -5 4
1896 632 2 4.0999999999999998e-01 -3.2089923607245829e+00 -1.3385059370225086e+01 -1.2583182539833647e+01 8 0 -4
1036 346 1 -8.1999999999999995e-01 -5.2298176257167537e+00 -1.0827383809309342e+01 -9.9835219285485977e+00 2 0 -3
1964 655 2 4.0999999999999998e-01 -4.1815717980635085e+00 -5.5944481068082741e+00 -1.4637945935146600e+01 -1 -2 -3
1581 527 2 4.0999999999999998e-01 -2.3483147006224723e+00 -9.6016789209944626e+00 -1.3232929087568996e+01 -1 0 -1
2075 692 2 4.0999999999999998e-01 -6.2082197266918264e+00 -1.3796957913806917e+01 -9.5066726850099137e+00 4 5 1
406 136 1 -8.1999999999999995e-01 -6.2184844522966944e+00 -1.4468716854565546e+01 -1.3004186969334857e+01 2 0 -3
1178 393 2 4.0999999999999998e-01 -4.3349363950288300e+00 -1.1532089717590619e+01 -1.4253665173311960e+01 7 0 0
168 56 2 4.0999999999999998e-01 -1.9362041163586365e+00 -5.4277420913572154e+00 -1.3452692979740119e+01 5 0 0
1126 376 1 -8.1999999999999995e-01 -6.6274535469281304e-02 -1.3304898431617779e+01 -1.2506067971344919e+01 2 4 -6
2235 745 2 4.0999999999999998e-01 -5.2860099898709070e+00 -8.4932911555866859e+00 -7.6449844320064173e+00 -2 -4 4
496 166 1 -8.1999999999999995e-01 -8.1013863549114618e-01 -1.2399157846918371e+01 -7.4971290351685136e+00 1 1 -1
186 62 2 4.0999999999999998e-01 -1.3145877626087589e+01 -6.5163137918777725e+00 -3.9094842642959726e+00 0 -2 7
913 305 1 -8.1999999999999995e-01 -1.1787880523051710e+01 -1.3849558619766665e+01 -4.1859147393063836e+00 2 0 -5
3 1 2 4.0999999999999998e-01 -1.2140368512000441e+01 -9.9455116950516889e+00 -2.5023518168611325e+00 2 6 -2
2518 840 1 -8.1999999999999995e-01 -1.0427040298126627e+01 -1.1150975372737550e+01 -8.1934618691327010e-01 0 2 4
915 305 2 4.0999999999999998e-01 -1.1084741921207332e+01 -1.3395049014169359e+01 -3.6391316420414377e+00 2 0 -5
1354 452 1 -8.1999999999999995e-01 -1.2775064841631128e+01 -6.5683032431281685e+00 -3.7487946109006387e-01 6 -1 -1
486 162 2 4.0999999999999998e-01 -1.1007202140685154e+01 -1.1770982655017669e+01 -5.6651485325674145e+00 -3 0 -1
484 162 1 -8.1999999999999995e-01 -1.1223279789404279e+01 -1.0795503954384104e+01 -5.6238432959668092e+00 -3 0 -1
2520 840 2 4.0999999999999998e-01 -1.0738809831293803e+01 -1.1855755031169197e+01 -1.4565588665923173e+00 0 2 4
2034 678 2 4.0999999999999998e-01 -1.2741693690697200e+01 -1.4013546510133530e+01 -5.4635601957485758e+00 4 2 3
908 303 2 4.0999999999999998e-01 -9.7693062080513613e+00 -9.8233217730562963e+00 -4.9943961953993039e+00 3 -3 4
909 303 2 4.0999999999999998e-01 -9.1277856018779193e+00 -8.5066208383212274e+00 -5.7163764252421760e+00 3 -3 4
2228 743 2 4.0999999999999998e-01 -9.3882979926870256e+00 -1.4327509155830052e+01 -1.0484141205538684e+00 4 0 1
523 175 1 -8.1999999999999995e-01 -9.2868710061936142e+00 -1.3635699105325507e+01 -5.9093749042017265e+00 7 0 -1
485 162 2 4.0999999999999998e-01 -1.1886691726798395e+01 -1.0570562491160855e+01 -6.3374541999874658e+00 -3 0 -1
907 303 1 -8.1999999999999995e-01 -8.9890945102483144e+00 -9.1979762030227512e+00 -5.0073298057586655e+00 3 -3 4
525 175 2 4.0999999999999998e-01 -9.8774836681921805e+00 -1.4255010696313706e+01 -6.4266605962439787e+00 7 0 -1
2032 678 1 -8.1999999999999995e-01 -1.3025677378715857e+01 -1.4272580558755921e+01 -6.3867120029195554e+00 4 2 3
1342 448 1 -8.1999999999999995e-01 -9.4646055562419171e+00 -1.2699810834307353e+01 -3.2492072460693855e+00 4 1 1
1343 448 2 4.0999999999999998e-01 -9.2652556963134955e+00 -1.3083350986673899e+01 -4.1509340578543252e+00 4 1 1
1344 448 2 4.0999999999999998e-01 -8.6089207093876539e+00 -1.2445328691848916e+01 -2.7986554277440590e+00 4 1 1
1198 400 1 -8.1999999999999995e-01 -9.1635171951192422e+00 -7.2988811700144547e+00 -6.8325342652683592e+00 -5 3 -5
758 253 2 4.0999999999999998e-01 -1.0408475011602057e+01 -8.4110965910365696e+00 -2.5264847655224187e+00 3 3 4
627 209 2 4.0999999999999998e-01 -1.2584915071414242e+01 -7.0807973485674820e+00 -7.4668162445376085e+00 3 -5 1
1 1 1 -8.1999999999999995e-01 -1.1741044232658759e+01 -9.4472613405879997e+00 -3.2719240025881877e+00 2 6 -2
757 253 1 -8.1999999999999995e-01 -9.7386983613660512e+00 -7.8075739394848034e+00 -2.0939176710594776e+00 3 3 4
184 62 1 -8.1999999999999995e-01 -1.2413034189410316e+01 -6.9316253893225497e+00 -4.4483825719861816e+00 0 -2 7
182 61 2 4.0999999999999998e-01 -1.3736882505842882e+01 -1.2525747757589837e+01 -6.7050370456520696e+00 -7 3 -5
1200 400 2 4.0999999999999998e-01 -1.0073836427856850e+01 -6.8869031942264076e+00 -6.8718746863837197e+00 -5 3 -5
2 1 2 4.0999999999999998e-01 -1.1852849909055273e+01 -9.9821871281638117e+00 -4.1093656700052996e+00 2 6 -2
1199 400 2 4.0999999999999998e-01 -8.5021248898972992e+00 -6.6167040864807252e+00 -6.5208464415500220e+00 -5 3 -5
1356 452 2 4.0999999999999998e-01 -1.2058767993044738e+01 -5.8705409795178394e+00 -3.7373916542646413e-01 6 -1 -1
1062 354 2 4.0999999999999998e-01 -8.1436029346963821e+00 -8.7685811451586950e+00 -2.1176946182785272e-01 6 5 -3
524 175 2 4.0999999999999998e-01 -8.9115653888843376e+00 -1.2941993092051785e+01 -6.5240881014147192e+00 7 0 -1
2333 778 2 4.0999999999999998e-01 -8.9926422171241640e+00 -1.1967919920477950e+01 -1.8430204563644992e-01 -3 -1 0
626 209 2 4.0999999999999998e-01 -1.1994824377182933e+01 -6.6149841636687814e+00 -6.0172243717867033e+00 3 -5 1
181 61 1 -8.1999999999999995e-01 -1.4327453435721429e+01 -1.1766693120692064e+01 -6.9789287144131684e+00 -7 3 -5
625 209 1 -8.1999999999999995e-01 -1.1813811114914092e+01 -6.6477106669914203e+00 -7.0001372928537062e+00 3 -5 1
1355 452 2 4.0999999999999998e-01 -1.3205914525357874e+01 -6.6022023828183247e+00 -1.2766409967989478e+00 6 -1 -1
2471 824 2 4.0999999999999998e-01 -1.4793091631167254e+01 -1.3739982045366684e+01 -7.0690680580322329e-01 3 3 -4
2451 817 2 4.0999999999999998e-01 -8.2656531232251496e+00 -1.4966564234723405e+01 -5.1862806159043799e+00 7 -9 -3
185 62 2 4.0999999999999998e-01 -1.2116054088644869e+01 -7.7796314559833517e+00 -4.0094712343640726e+00 0 -2 7
127 43 1 -8.1999999999999995e-01 -1.2795145985248686e+01 -9.4206348926474313e+00 -7.8569477630533235e-01 -1 3 -2
759 253 2 4.0999999999999998e-01 -8.8174598788276768e+00 -8.0758578026938945e+00 -2.3755167705326645e+00 3 3 4
988 330 1 -8.1999999999999995e-01 -1.0025214607831426e+01 -5.6428583962608236e+00 -4.6180393134040898e-01 6 5 0
989 330 2 4.0999999999999998e-01 -9.2848537719396500e+00 -5.4575934940258595e+00 -1.1079442786086364e+00 6 5 0
990 330 2 4.0999999999999998e-01 -1.0240560013379273e+01 -6.6193123243503003e+00 -4.7269607583767304e-01 6 5 0
445 149 1 -8.1999999999999995e-01 -1.4600802986648542e+01 -6.5165771670922776e+00 -2.6785721935660263e+00 4 2 -4
2519 840 2 4.0999999999999998e-01 -1.1090332583130586e+01 -1.0402918193787571e+01 -7.9913798321155305e-01 0 2 4
914 305 2 4.0999999999999998e-01 -1.1816984686678872e+01 -1.4821004655932832e+01 -3.9505422961399912e+00 2 0 -5
2033 678 2 4.0999999999999998e-01 -1.3960485037608414e+01 -1.4626725405497362e+01 -6.3608141993042953e+00 4 2 3
129 43 2 4.0999999999999998e-01 -1.2839432786277152e+01 -8.4312782626315119e+00 -6.4725067342029341e-01 -1 3 -2
128 43 2 4.0999999999999998e-01 -1.3711819283876956e+01 -9.8106887537236567e+00 -6.9896139800676060e-01 -1 3 -2
2470 824 1 -8.1999999999999995e-01 -1.3803449118903671e+01 -1.3764054221072284e+01 -8.4826737603479963e-01 3 3 -4
478 160 1 -8.1999999999999995e-01 -6.0940916324072223e+00 -5.7124946024380243e+00 -3.4878444819627408e+00 2 0 -2
497 166 2 4.0999999999999998e-01 -8.7764918192140584e-01 -1.1405936593109876e+01 -7.4027440044722299e+00 1 1 -1
466 156 1 -8.1999999999999995e-01 -3.4964348074284501e-01 -5.3758409303867989e+00 -6.8850106338080721e+00 5 -2 1
4 2 1 -8.1999999999999995e-01 -7.4927299904898002e+00 -5.3973484737628254e+00 -5.8417997521226894e+00 -3 4 -4
2234 745 2 4.0999999999999998e-01 -4.8146676051192827e+00 -7.6128629189675223e+00 -6.3530138828497265e+00 -2 -4 4
1194 398 2 4.0999999999999998e-01 -2.4122772706808355e+00 -1.3613426187893118e+01 -1.7810131350784673e+00 1 3 13
2124 708 2 4.0999999999999998e-01 -4.1412901025579281e+00 -1.2472504197278592e+01 -4.9530794125471225e+00 0 -4 2
1822 608 1 -8.1999999999999995e-01 -9.7846264884012157e-01 -9.7732552922846878e+00 -7.1202999866134586e+00 5 -1 2
2334 778 2 4.0999999999999998e-01 -7.4477607599009588e+00 -1.2288292358784995e+01 -6.0526320474965978e-01 -3 -1 0
2123 708 2 4.0999999999999998e-01 -3.0025556180437682e+00 -1.1318668682230211e+01 -4.7569852306028757e+00 0 -4 2
1869 623 2 4.0999999999999998e-01 -1.6784487801532482e+00 -1.3130545997970779e+01 -4.7404073586693709e+00 1 0 0
1025 342 2 4.0999999999999998e-01 -7.4690492900385976e+00 -9.4023773142789189e+00 -4.1344383843297816e+00 1 5 -5
2338 780 1 -8.1999999999999995e-01 -4.9753311517470156e+00 -1.3409659705944570e+01 -2.3071992001457531e-01 2 2 0
2122 708 1 -8.1999999999999995e-01 -3.1825582457038415e+00 -1.2301817433044326e+01 -4.7258044647588058e+00 0 -4 2
1868 623 2 4.0999999999999998e-01 -5.0565478308753065e-01 -1.3165420797281582e+01 -5.8761201389894673e+00 1 0 0
5 2 2 4.0999999999999998e-01 -6.5949919027886672e+00 -5.7204126615627420e+00 -6.1412165534634955e+00 -3 4 -4
1544 515 2 4.0999999999999998e-01 -2.0527299882357948e+00 -9.6807339962563628e+00 -6.3151565177335733e-01 3 4 0
480 160 2 4.0999999999999998e-01 -6.6266048785587319e+00 -5.4344184606860519e+00 -2.6884334798727334e+00 2 0 -2
1543 515 1 -8.1999999999999995e-01 -1.8039313451771140e+00 -1.0280356909155010e+01 -1.3921116216433269e+00 3 4 0
300 100 2 4.0999999999999998e-01 -2.6950612942407535e+00 -7.0542458031733961e+00 -2.8314187194934544e+00 0 2 1
1824 608 2 4.0999999999999998e-01 -1.8806678376131263e+00 -9.4728181294549003e+00 -6.8109169170996626e+00 5 -1 2
1068 356 2 4.0999999999999998e-01 -6.2606623148379388e+00 -1.4076972163144813e+01 -5.6444512027331992e+00 0 5 -1
1010 337 2 4.0999999999999998e-01 -4.6724531790583281e+00 -1.0258364306038601e+01 -1.1876525116485581e-01 2 1 0
814 272 1 -8.1999999999999995e-01 -3.1820329688084001e+00 -9.5479300992044926e+00 -4.9294261727030548e+00 2 -5 -2
299 100 2 4.0999999999999998e-01 -1.2974279340299706e+00 -7.8570605454404845e+00 -3.0933633823921056e+00 0 2 1
576 192 2 4.0999999999999998e-01 -2.8833347115751806e+00 -6.4619618084635881e+00 -7.2482210083837018e-01 1 3 1
2088 696 2 4.0999999999999998e-01 -2.2359477571083826e+00 -6.0742583423130529e+00 -4.5589903892034140e+00 5 3 -2
191 64 2 4.0999999999999998e-01 -6.6184293429757162e+00 -1.1510942353345285e+01 -2.9701904159401344e+00 3 -1 1
816 272 2 4.0999999999999998e-01 -3.2202729909747791e+00 -9.1172722620976145e+00 -4.0277465747060273e+00 2 -5 -2
665 222 2 4.0999999999999998e-01 -4.1275942396460934e+00 -5.5883977361353541e+00 -6.0939138877057335e+00 3 -5 2
1009 337 1 -8.1999999999999995e-01 -4.6322583868180445e+00 -9.2636419250820765e+00 -2.4603819282503991e-02 2 1 0
555 185 2 4.0999999999999998e-01 -1.3446235680807703e+00 -1.1874092811951851e+01 -1.3154057898802325e+00 1 -1 -1
1867 623 1 -8.1999999999999995e-01 -7.5035106843536070e-01 -1.3440623345021038e+01 -4.9464202413332057e+00 1 0 0
815 272 2 4.0999999999999998e-01 -3.8932428606557234e+00 -9.1590119917273736e+00 -5.5149838422931108e+00 2 -5 -2
1067 356 2 4.0999999999999998e-01 -6.4260411323815685e+00 -1.2909906897228726e+01 -6.7745459034232951e+00 0 5 -1
664 222 1 -8.1999999999999995e-01 -4.9906394913192020e+00 -5.5683743305881315e+00 -6.5985985395976900e+00 3 -5 2
1026 342 2 4.0999999999999998e-01 -5.9234265130916626e+00 -9.7965696780268026e+00 -4.4839639809247949e+00 1 5 -5
192 64 2 4.0999999999999998e-01 -6.1601374983147306e+00 -1.2770146209619693e+01 -2.0369810334430909e+00 3 -1 1
1805 602 2 4.0999999999999998e-01 -4.8841830162020443e+00 -6.4902922442879571e+00 -2.5230793181271274e+00 0 4 1
2086 696 1 -8.1999999999999995e-01 -2.5953523439511876e+00 -5.5892537238543838e+00 -5.3562064732202579e+00 5 3 -2
1806 602 2 4.0999999999999998e-01 -4.5644139099020684e+00 -7.6201480857061137e+00 -1.3883198959982472e+00 0 4 1
190 64 1 -8.1999999999999995e-01 -6.8947887370586169e+00 -1.2118467722809807e+01 -2.2255475049260234e+00 3 -1 1
1804 602 1 -8.1999999999999995e-01 -4.1734557636620710e+00 -7.0721553722098243e+00 -2.1277861424550384e+00 0 4 1
1192 398 1 -8.1999999999999995e-01 -3.1153457977444958e+00 -1.3914391077350224e+01 -2.4252719723239657e+00 1 3 13
553 185 1 -8.1999999999999995e-01 -9.0115273942328677e-01 -1.2762417292069859e+01 -1.1963769856095094e+00 1 -1 -1
2233 745 1 -8.1999999999999995e-01 -4.7715924088608919e+00 -8.5123967349387968e+00 -6.7876839401476214e+00 -2 -4 4
1193 398 2 4.0999999999999998e-01 -3.0623351112950008e+00 -1.3363206719980923e+01 -3.2579425676305060e+00 1 3 13
2340 780 2 4.0999999999999998e-01 -4.3555518393471946e+00 -1.3778354908460161e+01 -9.2346235432393975e-01 2 2 0
1066 356 1 -8.1999999999999995e-01 -6.0410148201201395e+00 -1.3129847618977298e+01 -5.8782560815839329e+00 0 5 -1
2087 696 2 4.0999999999999998e-01 -1.9338184400852665e+00 -5.6414472488353820e+00 -6.1042728832759199e+00 5 3 -2
1024 342 1 -8.1999999999999995e-01 -6.5897357273306714e+00 -9.6799359903061521e+00 -3.7474972508491042e+00 1 5 -5
298 100 1 -8.1999999999999995e-01 -1.8320250912167282e+00 -7.0477040345829645e+00 -3.3364735461162009e+00 0 2 1
1823 608 2 4.0999999999999998e-01 -2.7305864281659886e-01 -9.3490091719132451e+00 -6.5525191963055889e+00 5 -1 2
1545 515 2 4.0999999999999998e-01 -9.8751734686291393e-01 -9.9225640354822460e+00 -1.8453302067393889e+00 3 4 0
479 160 2 4.0999999999999998e-01 -6.6993119360211750e+00 -5.7935455685411821e+00 -4.2797370185094561e+00 2 0 -2
1394 465 2 4.0999999999999998e-01 -2.1407349031257361e-01 -1.4535317556814430e+01 -3.6722369498247591e+00 -4 4 5
1492 498 1 -8.1999999999999995e-01 -1.2326531942230753e+01 -1.3942267415641025e+01 4.1636717685372027e+00 4 7 2
338 113 2 4.0999999999999998e-01 -1.0049786418803340e+01 -5.9648359974046521e+00 3.5889704167355774e+00 0 1 -5
339 113 2 4.0999999999999998e-01 -9.4223129952167071e+00 -7.4210904134449409e+00 3.9789777450249169e+00 0 1 -5
337 113 1 -8.1999999999999995e-01 -1.0258499016633527e+01 -6.8734129941075892e+00 3.9507459691233500e+00 0 1 -5
1852 618 1 -8.1999999999999995e-01 -1.3017694664780560e+01 -6.1721903666198621e+00 6.7649810103798558e+00 3 -1 -3
943 315 1 -8.1999999999999995e-01 -1.1181898674936171e+01 -8.9712735213026704e+00 2.1421365021935301e+00 3 -4 -7
1493 498 2 4.0999999999999998e-01 -1.1896344069446197e+01 -1.4844962817893542e+01 4.1578367908146916e+00 4 7 2
253 85 1 -8.1999999999999995e-01 -1.3024863268007548e+01 -6.4226395089344930e+00 3.7865820970620696e+00 4 5 -2
945 315 2 4.0999999999999998e-01 -1.1329546247193170e+01 -8.5780804269411881e+00 1.2346377378607052e+00 3 -4 -7
1494 498 2 4.0999999999999998e-01 -1.3252427291942787e+01 -1.4011886245597852e+01 3.7924229625004600e+00 4 7 2
877 293 1 -8.1999999999999995e-01 -1.0765209003105493e+01 -1.1700436178695819e+01 3.5844407118505188e+00 6 2 0
878 293 2 4.0999999999999998e-01 -1.1574167559710542e+01 -1.2207057891796721e+01 3.8825600231801012e+00 6 2 0
944 315 2 4.0999999999999998e-01 -1.0401094549159478e+01 -8.5225333320978276e+00 2.5767992321883355e+00 3 -4 -7
255 85 2 4.0999999999999998e-01 -1.2082345177153043e+01 -6.6800309275319218e+00 3.9995702508685937e+00 4 5 -2
1748 583 2 4.0999999999999998e-01 -1.4367781959358206e+01 -1.2771346987265055e+01 2.4474297560372058e+00 3 4 -3
860 287 2 4.0999999999999998e-01 -1.0034873225514259e+01 -1.2330115510818212e+01 5.1270414671004474e+00 2 3 -2
879 293 2 4.0999999999999998e-01 -1.1039005949674923e+01 -1.0980865769232324e+01 2.9463119756463776e+00 6 2 0
147 49 2 4.0999999999999998e-01 -1.3626730726563633e+01 -8.2205200169700969e+00 4.2107521987869490e+00 -1 5 1
1853 618 2 4.0999999999999998e-01 -1.2933778602328491e+01 -6.0285830877442592e+00 5.7789334990518739e+00 3 -1 -3
1459 487 1 -8.1999999999999995e-01 -1.3255107770387102e+01 -1.1665849565933325e+01 5.5945808755048176e+00 5 3 2
2165 722 2 4.0999999999999998e-01 -7.6635986911087963e+00 -6.7398080999452095e+00 7.4335398491932736e-01 -2 -2 5
1747 583 1 -8.1999999999999995e-01 -1.4705495386053617e+01 -1.3631698980754841e+01 2.8291348127442220e+00 3 4 -3
2383 795 1 -8.1999999999999995e-01 -1.3803812361112906e+01 -1.1097561750880375e+01 1.7746030873055645e+00 3 3 -3
1338 446 2 4.0999999999999998e-01 -1.4228011397416667e+01 -7.4966439276286927e+00 7.8462386894644709e-01 -1 0 -3
146 49 2 4.0999999999999998e-01 -1.2371580372705512e+01 -9.1536226396119229e+00 3.7412604297811036e+00 -1 5 1
1461 487 2 4.0999999999999998e-01 -1.3229106428746089e+01 -1.0765791678583843e+01 5.1596390697040171e+00 5 3 2
1460 487 2 4.0999999999999998e-01 -1.3239807668400676e+01 -1.2376488272774697e+01 4.8912223825589152e+00 5 3 2
2541 847 2 4.0999999999999998e-01 -8.6833051164235044e+00 -1.1613634240781352e+01 2.8159526697417263e+00 3 4 -4
145 49 1 -8.1999999999999995e-01 -1.3201584355938991e+01 -9.1214001885057456e+00 4.2980455604323673e+00 -1 5 1
1854 618 2 4.0999999999999998e-01 -1.2201226268304545e+01 -5.8214267325533324e+00 7.2235645436351845e+00 3 -1 -3
859 287 1 -8.1999999999999995e-01 -9.4966183437397689e+00 -1.2755050282226678e+01 5.8548235488545899e+00 2 3 -2
2567 856 2 4.0999999999999998e-01 -1.0263485891694170e+01 -6.7587957807647960e+00 5.8526185106191591e+00 6 -4 2
861 287 2 4.0999999999999998e-01 -8.9759686924899071e+00 -1.3522058025427363e+01 5.4798866274673266e+00 2 3 -2
2539 847 1 -8.1999999999999995e-01 -7.7172925640961205e+00 -1.1411031333088435e+01 2.6555580752408474e+00 3 4 -4
2385 795 2 4.0999999999999998e-01 -1.3139896085238449e+01 -1.0403524359783781e+01 1.4962473747028042e+00 3 3 -3
1337 446 2 4.0999999999999998e-01 -1.3981340727185076e+01 -6.9594373676899206e+00 2.3068157571837560e+00 -1 0 -3
1093 365 1 -8.1999999999999995e-01 -7.6571323486526754e+00 -1.4634874538720782e+01 4.7279820145717260e+00 6 1 -6
2166 722 2 4.0999999999999998e-01 -8.0048220090966922e+00 -5.8239323543040591e+00 2.0514991675719436e+00 -2 -2 5