2611
Atoms. Timestep: 8000000
O -4.60575 -5.1822 -7.55026
H -4.07921 -4.37629 -7.27961
H -4.0973 -6.00889 -7.30931
O 1.75981 -8.32576 -1.89638
H 1.42136 -9.25908 -2.0161
H 1.01361 -7.67823 -2.0509
O -3.80905 -4.91738 6.44256
H -4.56294 -5.34362 5.94263
H -3.62524 -4.0119 6.06008
O -4.04441 2.10957 7.64936
H -5.03443 2.19315 7.76278
H -3.83386 1.25163 7.18078
O 5.52857 -0.24124 -12.3082
H 6.0164 -1.05564 -12.6225
H 6.15222 0.339868 -11.7854
O 3.24659 -9.22721 -4.09729
H 2.76643 -9.86939 -4.6948
H 2.58067 -8.71432 -3.55556
O 1.58592 13.0329 -14.9313
H 1.46642 13.4873 -14.0485
H 1.91432 13.6948 14.2982
O 9.21792 12.5958 -0.754061
H 9.43098 11.6528 -0.498417
H 8.22588 12.712 -0.802393
O -2.06595 -6.03016 1.81239
H -1.4156 -6.68263 2.20136
H -2.63088 -6.49062 1.12769
O -10.2389 -4.33836 8.24197
H -9.46091 -4.73404 7.75399
H -9.94771 -3.50691 8.71511
O 5.38454 -8.81283 -14.1071
H 4.73711 -9.57056 -14.0255
H 5.00506 -8.00093 -13.6635
O -9.40837 -13.4359 -4.91627
H -8.90572 -14.261 -4.65846
H -8.79647 -12.646 -4.87428
O -3.21774 8.66023 -3.83884
H -3.76814 7.84741 -3.64815
H -2.28866 8.52162 -3.49595
O -8.15697 0.140161 0.377913
H -7.52709 -0.561949 0.0458348
H -7.87781 0.432753 1.29248
O -3.34986 -6.9708 -2.36935
H -4.20205 -6.71196 -2.82406
H -2.6577 -7.18847 -3.05746
O -11.5689 -4.90073 13.0953
H -11.7507 -5.26297 12.1812
H -10.9387 -4.12722 13.028
O -7.2811 -7.62077 -5.52538
H -7.87152 -8.37526 -5.81196
H -7.63185 -6.76236 -5.89966
O 10.4414 11.5014 10.4748
H 9.78815 11.6016 9.72436
H 11.2686 11.0509 10.1388
O 11.7729 -3.02811 12.246
H 11.468 -3.43985 13.1047
H 11.42 -2.09478 12.18
O 8.91775 -0.451984 8.97368
H 8.83554 -1.4075 9.2569
H 9.0439 -0.407756 7.98267
O 3.05325 -10.631 11.2816
H 3.45066 -11.5447 11.1974
H 3.73992 -10.001 11.6444
O -0.734592 -10.1397 -7.6252
H -0.87368 -10.9557 -8.18621
H -1.59987 -9.87747 -7.198
O 7.84623 -13.5113 10.3356
H 7.33595 -14.2597 9.91187
H 8.80846 -13.77 10.4202
O -14.3954 -10.2449 11.9688
H 14.6169 -10.052 12.3798
H -14.3194 -11.2245 11.7826
O -11.9865 7.27797 -12.5365
H -12.0393 6.67711 -13.3341
H -12.5065 8.11356 -12.7136
O -1.57047 -14.0708 9.23755
H -2.22888 -13.5136 9.74352
H -2.05934 -14.677 8.61024
O 14.6869 5.02852 -11.3491
H 14.4403 4.18727 -11.8302
H 14.8896 5.74627 -12.0152
O -2.92867 10.4857 -0.118905
H -2.79358 11.1172 -0.882406
H -2.074 10.3926 0.391816
O -11.2423 9.47419 -8.61517
H -11.5455 10.1759 -9.25987
H -11.4964 8.57116 -8.96151
O -13.2582 2.01569 1.59243
H -14.1339 1.59806 1.83454
H -13.4103 2.95554 1.28662
O 7.72057 9.88446 -5.12054
H 8.35528 10.0159 -5.882
H 8.00027 9.08592 -4.58756
O -7.72194 13.0522 4.03237
H -7.27136 12.549 4.76976
H -7.73064 14.0279 4.25146
O -3.07569 -4.17221 -4.05314
H -2.74419 -4.11177 -4.99464
H -3.80143 -4.858 -3.99868
O -12.8227 -0.623793 13.4589
H -13.3875 -0.932697 14.2241
H -13.2003 -0.975915 12.6025
O 6.96859 0.120282 -2.34663
H 7.65588 -0.0908028 -3.04166
H 7.40617 0.167441 -1.4487
O 6.5868 2.28667 1.10818
H 6.45514 1.89516 2.01888
H 5.74932 2.75155 0.820968
O 9.62109 -9.90761 -6.63236
H 10.2934 -9.20541 -6.39807
H 9.14173 -9.64402 -7.46945
O 3.21139 -2.89965 3.11247
H 3.33899 -3.80944 2.71753
H 2.43762 -2.4487 2.66761
O -12.6953 -1.50899 6.70722
H -12.5223 -1.68042 7.67708
H -12.8326 -0.529284 6.56124
O 1.96713 -0.187846 -5.78733
H 2.73832 0.381875 -5.5033
H 1.98 -1.04608 -5.27426
O 9.76399 1.1194 -9.42901
H 9.01759 1.27228 -10.0767
H 10.5031 0.622289 -9.8835
O -0.98129 -10.2296 -4.19848
H -1.29196 -10.9575 -4.80966
H -0.157709 -10.5281 -3.71622
O -0.214333 -7.32658 3.05687
H 0.0944051 -8.20871 2.70119
H 0.352941 -7.06507 3.83776
O -13.8454 13.366 11.6182
H -12.8907 13.2787 11.9025
H -13.9876 12.8596 10.7678
O 8.46188 -9.85598 -9.23512
H 7.46386 -9.79456 -9.24772
H 8.752 -10.6713 -9.73622
O 8.12833 -6.43257 0.120319
H 8.57834 -7.32454 0.0772251
H 7.32389 -6.43605 -0.473678
O 0.317245 11.8204 -12.0262
H 0.753485 12.7187 -12.0782
H -0.443991 11.8565 -11.3788
O 11.9566 12.605 -8.29703
H 11.5329 12.7198 -7.39858
H 12.9214 12.8631 -8.24597
O 11.429 3.8255 -12.7483
H 12.3003 3.4525 -12.4294
H 11.4875 4.82305 -12.7865
O -0.14719 -3.38874 8.75219
H -0.605621 -3.66293 9.59755
H -0.134339 -4.1593 8.11496
O -6.97597 -10.5639 -9.771
H -7.58039 -10.7423 -8.99458
H -7.36973 -9.8429 -10.3411
O -1.69277 13.1309 -5.00156
H -1.91467 13.7394 -5.76344
H -0.818677 12.679 -5.17961
O 11.9703 8.56884 3.37492
H 11.8039 7.90894 2.64223
H 11.8172 8.12962 4.26016
O -8.08801 7.57541 4.58594
H -7.59893 6.78805 4.21065
H -7.70612 8.41748 4.20507
O 7.24347 12.1055 -3.48402
H 7.98135 12.7615 -3.64266
H 7.38928 11.2959 -4.05258
O 1.7006 4.65259 -14.6546
H 1.49437 5.03899 14.3497
H 2.41176 3.95562 -14.7466
O -6.7841 0.0849775 13.8859
H -6.66979 -0.877534 14.1318
H -6.51072 0.660635 14.6565
O -0.236778 7.64808 5.71979
H 0.0740655 7.29911 4.83572
H -1.23111 7.75332 5.70565
O -5.37452 -6.93149 12.1788
H -5.32505 -7.39951 11.2965
H -6.3319 -6.83091 12.4495
O 1.13828 -14.6741 12.8587
H 0.803734 -14.7389 11.9186
H 0.441825 -14.2415 13.4312
O 1.3224 -4.59165 11.1174
H 1.80545 -3.91266 10.5646
H 1.73087 -5.49255 10.9707
O -11.2562 -7.62659 7.37692
H -11.6384 -6.7054 7.4499
H -10.2625 -7.56856 7.28118
O -7.61898 -0.676873 -10.7093
H -7.34829 -1.58375 -11.0323
H -8.53571 -0.462857 -11.0467
O 8.78902 -3.93602 12.2238
H 8.68216 -3.63456 13.1712
H 9.45838 -4.67785 12.1835
O -5.61993 -1.46193 -5.13541
H -5.29388 -1.7261 -4.22773
H -5.45114 -0.486867 -5.27946
O 13.0528 14.5942 -10.5177
H 12.7962 -14.4561 -10.0631
H 13.8981 14.7328 -11.0337
O 5.25328 6.4878 6.00269
H 5.6207 6.20936 6.89007
H 4.27351 6.29027 5.97078
O 3.51856 -2.61995 -0.405972
H 2.81209 -2.54273 0.297531
H 3.84688 -3.56363 -0.446467
O -8.04026 -1.83813 -3.65524
H -7.34615 -1.69358 -4.36043
H -8.38794 -2.77372 -3.71658
O 1.66637 2.46496 -10.8752
H 1.45772 1.84635 -11.6327
H 1.52407 3.41043 -11.1681
O 4.08211 1.99019 8.85978
H 3.88902 1.0091 8.87235
H 3.92161 2.34972 7.94056
O 7.74824 8.95758 2.5188
H 7.4062 8.01939 2.57165
H 7.99246 9.27542 3.43494
O 11.3779 -2.96313 6.24032
H 11.5253 -3.89524 6.57106
H 11.9927 -2.78051 5.4731
O 12.9931 -6.90823 -0.736053
H 13.6514 -7.30834 -1.37365
H 12.3689 -7.61898 -0.411768
O -5.86994 -6.43671 -3.36652
H -6.40098 -6.75776 -4.15068
H -6.4205 -6.51727 -2.53564
O 7.18589 14.4047 -6.41907
H 8.0798 14.3118 -5.98059
H 6.60023 13.6412 -6.147
O 1.29203 -8.05123 -7.60189
H 0.579888 -8.75254 -7.57035
H 2.11037 -8.42653 -8.03717
O -3.05239 0.302893 -13.3448
H -3.95324 0.0523719 -12.9903
H -3.13965 1.09814 -13.9447
O -7.95568 2.8105 5.3425
H -8.77652 3.28175 5.01983
H -7.53783 3.33767 6.08241
O 3.85881 -14.2815 13.5081
H 4.05845 -13.7762 14.3476
H 2.87396 -14.2652 13.3355
O -9.13891 9.47408 10.644
H -9.59838 8.58601 10.6297
H -8.79288 9.65556 11.5645
O 7.02437 -6.61262 11.4126
H 6.68618 -7.11801 10.6188
H 8.01364 -6.73649 11.4899
O 12.957 8.13243 -9.90836
H 13.3248 8.07716 -10.8366
H 13.7055 8.27832 -9.26144
O -2.97994 -7.03403 -6.38888
H -3.21581 -7.97246 -6.64123
H -2.16855 -7.03996 -5.80441
O 4.51203 10.8452 8.1328
H 4.73992 11.5807 7.49482
H 3.68201 11.0857 8.63601
O 13.5172 12.8502 10.6938
H 13.2627 12.2266 11.433
H 14.3921 13.2837 10.9097
O 2.53553 3.97269 -3.92609
H 1.9009 3.73649 -4.66191
H 2.03341 4.41144 -3.18088
O -1.0733 4.33056 11.2565
H -1.68913 3.94815 10.5677
H -1.10826 3.76915 12.0833
O -5.61705 10.0448 5.10572
H -5.42282 10.4519 4.21325
H -6.11232 10.7037 5.67195
O 9.20371 -4.22905 3.86413
H 8.62086 -3.95097 3.10064
H 9.83175 -3.48506 4.09223
O 1.2399 6.59218 8.61465
H 1.67986 7.41477 8.97487
H 0.2477 6.67819 8.70478
O -0.692831 -3.73732 -14.3712
H -1.50605 -4.31859 -14.3433
H -0.473034 -3.51703 14.5818
O 11.2406 -11.5359 9.66618
H 10.6162 -12.2702 9.39994
H 11.8102 -11.2828 8.88419
O -4.31989 9.05007 11.2225
H -3.37927 8.71855 11.1496
H -4.79425 8.55029 11.9472
O 0.127055 -13.8791 -7.73749
H 0.129695 -14.0439 -6.75119
H -0.293251 -12.9915 -7.92595
O 0.124439 14.2666 10.3874
H 0.27821 13.5571 9.69971
H -0.577701 14.8998 10.0619
O -8.67019 0.657149 -2.21684
H -8.84659 0.398554 -1.26711
H -8.52988 -0.166667 -2.76604
O -4.56623 10.721 -2.87574
H -3.94757 11.5058 -2.84033
H -4.11812 9.96456 -3.35222
O -6.8255 12.2373 13.209
H -7.50699 12.7993 12.7403
H -5.95337 12.2968 12.7234
O -3.44252 12.4476 14.5555
H -2.51842 12.0656 14.5454
H -3.53772 13.1095 13.8119
O 4.20471 8.00871 -5.04044
H 4.47818 7.05356 -5.15393
H 3.24285 8.11236 -5.29354
O -14.7714 -6.95827 3.36399
H -14.7422 -7.52574 4.18685
H -14.6772 -7.53881 2.55523
O 8.5818 4.57426 -2.19871
H 8.45579 4.18377 -3.11064
H 9.33378 5.23311 -2.21924
O -3.56419 -11.3288 7.26437
H -3.82992 -11.848 8.07663
H -3.13876 -11.9435 6.60023
O -0.769841 -13.7428 14.6533
H -1.40114 -13.0191 14.3745
H -1.09405 -14.159 -14.4005
O 12.695 -3.17586 -3.11818
H 11.7406 -2.95275 -2.9199
H 12.7897 -3.40319 -4.08736
O 10.886 12.773 -5.79613
H 10.7729 11.9575 -5.22856
H 11.5013 13.4148 -5.33855
O 10.5091 -14.809 -11.7169
H 9.88959 14.3446 -11.4843
H 11.4553 14.7772 -11.6518
O -0.0487888 -8.76351 -10.6408
H 0.659217 -8.37485 -11.2305
H 0.381029 -9.26281 -9.88855
O -10.9338 -11.074 1.2988
H -11.5469 -10.9315 0.521775
H -11.4727 -11.165 2.13625
O -3.40629 -12.1695 10.3553
H -4.40099 -12.1318 10.4509
H -3.01489 -11.2799 10.5905
O 12.6864 -5.58122 -11.8231
H 12.2779 -5.80662 -10.9387
H 12.3924 -6.24975 -12.5062
O 6.28083 -13.0741 6.66114
H 6.49426 -12.6927 5.76172
H 7.13056 -13.2984 7.13825
O 3.01786 13.0918 0.953334
H 3.68972 13.8295 0.886931
H 3.37932 12.271 0.511134
O 2.18373 2.63622 11.9899
H 3.03323 2.7743 12.4991
H 2.19259 3.20379 11.1666
O 5.76269 8.88065 11.2302
H 5.92179 8.03076 11.7326
H 5.84977 9.65764 11.8537
O -7.83706 -8.45019 6.07423
H -8.28498 -7.82304 5.43702
H -7.89243 -9.38299 5.71814
O -6.9238 -10.0515 -13.2025
H -7.44023 -9.69506 -12.4239
H -6.19318 -9.41106 -13.4392
O -3.0081 1.0094 10.1231
H -2.80912 1.70233 9.43015
H -3.52799 0.262722 9.70821
O -10.527 12.818 5.8513
H -10.5304 13.0553 4.87986
H -11.2032 13.3755 6.3329
O 10.9951 6.07817 -2.81787
H 11.7078 6.75806 -2.64527
H 11.3339 5.39773 -3.46762
O 4.25397 -0.859052 9.96842
H 4.78776 -0.945015 9.1272
H 4.86789 -0.88861 10.7572
O 5.53849 -10.8639 -1.96343
H 5.23979 -11.1843 -2.86237
H 4.8728 -10.2095 -1.60471
O 2.95996 -10.2744 -0.109235
H 2.36206 -10.0783 0.667961
H 2.73147 -9.66423 -0.867836
O -5.60643 3.79426 1.50568
H -5.42089 3.11441 0.79621
H -5.55477 3.3601 2.40502
O -0.551405 -1.0025 -13.1858
H -0.689478 -1.87574 -13.6531
H -1.25977 -0.356553 -13.4703
O 13.0438 1.72737 14.5962
H 13.3029 1.49191 13.6595
H 12.482 0.994943 -14.9226
O -5.49713 -5.88081 3.51872
H -6.43657 -5.56333 3.38975
H -4.88563 -5.36485 2.91886
O -8.43656 -4.5271 -4.20604
H -8.89303 -5.34402 -3.85353
H -7.85406 -4.77817 -4.9791
O -7.44396 -5.57161 -7.18907
H -7.55475 -6.25393 -7.91166
H -6.51417 -5.2046 -7.21692
O -13.1449 -5.08629 7.16798
H -13.6706 -4.71219 6.40402
H -12.598 -4.35963 7.58379
O -7.22597 2.49492 12.3655
H -7.12954 1.61329 12.8274
H -6.39047 3.02995 12.4906
O -6.47482 -14.2589 -6.26966
H -6.54113 -13.2741 -6.43051
H -6.6196 -14.4485 -5.29854
O -7.21985 2.75317 -5.85491
H -7.81253 3.04004 -5.10231
H -7.74609 2.20138 -6.50188
O 1.49061 8.2449 -5.44705
H 1.03882 9.10272 -5.2021
H 0.80091 7.56117 -5.68541
O -4.92834 -8.07641 9.69535
H -4.12202 -8.40429 10.1876
H -4.85355 -8.32554 8.72979
O 0.444889 12.4593 -0.0421294
H 1.18866 12.9835 0.372582
H 0.444256 11.5307 0.329026
O -3.25778 -2.77081 4.79369
H -3.62649 -2.33259 3.97394
H -2.91831 -2.07071 5.42187
O -14.7651 -1.66696 2.99003
H -14.6918 -1.41048 2.02627
H -14.6982 -0.847384 3.55906
O -13.2609 -1.67034 -10.1009
H -13.2107 -1.79664 -11.0916
H -14.01 -2.22072 -9.7323
O 5.47906 -12.2446 11.6625
H 5.14805 -12.2668 12.6058
H 6.30021 -12.8099 11.584
O 7.5626 11.2997 10.3974
H 7.19212 10.792 9.61958
H 6.87888 11.3388 11.126
O 3.79161 2.95196 -14.7039
H 3.55676 1.99957 -14.5095
H 4.35917 3.31299 -13.964
O 7.62215 -12.4488 14.4684
H 7.38188 -13.3534 14.1163
H 8.52735 -12.4856 14.8917
O 13.1063 2.66433 1.45947
H 13.2849 2.50376 2.43019
H 12.7263 1.83544 1.04892
O -6.38437 5.73823 3.31176
H -5.5651 6.07557 3.77541
H -6.16088 4.90703 2.80272
O 10.2148 1.90944 9.64572
H 9.81561 0.992604 9.64183
H 9.76241 2.47291 8.95448
O -14.8217 13.3385 -5.08017
H -13.9852 13.7327 -4.69958
H -14.8408 12.3558 -4.8961
O -7.38197 4.32316 7.56193
H -6.86135 5.09764 7.92125
H -8.24014 4.23505 8.06766
O 10.0943 -4.21659 -0.385664
H 11.0277 -4.55049 -0.254024
H 9.44861 -4.96644 -0.241449
O 2.84693 -4.67483 7.54117
H 2.30401 -5.49612 7.71636
H 3.00833 -4.19209 8.40193
O 2.97262 3.16629 -7.72428
H 3.07799 3.66531 -8.58443
H 3.52038 2.33023 -7.75472
O 3.27231 -11.4548 -8.00655
H 2.6862 -11.5319 -7.20001
H 4.07536 -12.0396 -7.89216
O 11.3536 6.52871 -14.6821
H 11.6715 7.31662 -14.1548
H 11.5406 6.67984 14.2505
O 6.10065 -9.99797 5.90072
H 6.88562 -9.43933 6.16853
H 5.42582 -10.0002 6.63867
O 11.891 6.83777 5.49573
H 12.2935 6.08519 4.97463
H 11.288 6.46849 6.20283
O -14.1895 12.5497 4.13686
H -13.6167 12.145 3.42409
H 14.8295 12.8073 3.74751
O -12.6181 2.96401 4.28652
H -11.878 3.39637 4.80162
H -12.424 3.02705 3.30759
O -1.81039 6.89011 14.611
H -1.68764 6.44527 -14.4051
H -2.74072 6.72735 14.2824
O 5.08741 13.8807 11.8557
H 4.807 13.9543 10.8986
H 4.53006 14.4948 12.4144
O -2.39441 14.9093 -7.08731
H -1.72734 -14.5343 -7.67355
H -3.27629 14.8654 -7.5567
O 12.9137 -1.38547 -8.46217
H 12.6873 -0.973635 -9.34485
H 13.0798 -2.36403 -8.58375
O -11.4029 6.24835 4.2354
H -10.6126 6.02637 3.66426
H -12.2428 5.99682 3.75456
O 14.9431 -3.64133 -8.47856
H -14.1658 -3.46823 -7.89637
H 14.8749 -4.6211 -8.6666
O 0.814562 5.57789 -8.78599
H 0.554958 4.86767 -8.13164
H 0.436027 5.35735 -9.68491
O 9.30668 -6.46492 -14.5458
H 9.73894 -7.33618 -14.7782
H 8.3526 -6.47586 -14.8451
O 5.08688 13.5037 -4.53144
H 5.93991 13.0327 -4.30676
H 4.61645 13.7618 -3.68763
O -7.52035 -1.47877 4.75085
H -7.0835 -1.04691 5.53993
H -8.5138 -1.44461 4.85975
O 5.31664 7.99645 -12.1411
H 5.86979 7.22301 -11.8316
H 4.87837 7.76628 -13.01
O 12.6833 12.7174 3.30328
H 12.2339 11.9051 3.67505
H 12.024 13.2491 2.77164
O 12.2611 11.6782 12.9614
H 11.6148 11.7706 12.2039
H 11.8537 11.115 13.6803
O 14.5285 -4.00849 -1.40875
H 13.8821 -3.53465 -2.00678
H 14.1372 -4.08853 -0.49196
O 3.82773 1.56184 -5.07304
H 4.72399 1.34228 -5.4584
H 3.89792 2.38975 -4.5166
O 5.87391 5.25786 -1.93024
H 5.44991 4.35726 -2.02581
H 6.86754 5.16723 -1.99702
O -12.135 11.535 -10.1638
H -12.1518 11.6154 -11.1604
H -13.0623 11.3724 -9.82683
O -0.542807 3.92593 7.3644
H -0.608455 3.2212 8.07081
H -1.04987 4.73737 7.65496
O -13.9814 -9.41945 -6.04939
H -14.8851 -9.84304 -6.11252
H -14.0829 -8.44821 -5.83401
O 11.3803 -8.66403 -2.98704
H 11.3282 -9.53846 -2.50472
H 10.4643 -8.27003 -3.06275
O 4.8034 -12.6506 -14.441
H 5.75319 -12.4062 -14.6362
H 4.24895 -11.8199 -14.3909
O 14.8011 10.5649 -3.38804
H -14.2528 10.0794 -3.5949
H 14.7983 10.8366 -2.42568
O 7.17065 6.33738 -5.5276
H 6.2277 6.05662 -5.34872
H 7.19889 6.90581 -6.34983
O -0.671947 0.536891 11.7558
H -1.58176 0.699161 11.3739
H -0.112301 0.0471259 11.0873
O 0.00509661 -13.4386 -0.740096
H -0.816095 -12.9212 -0.980637
H -0.258811 -14.2977 -0.301638
O 4.33409 -6.31901 -9.90948
H 3.40708 -6.60189 -9.6633
H 4.93619 -6.42522 -9.11818
O -11.4642 -1.26148 9.02869
H -11.6718 -0.287534 9.11976
H -10.4773 -1.40086 9.10947
O 3.88223 -14.179 -12.1305
H 3.76866 -13.3625 -11.5643
H 4.47186 -13.9651 -12.9093
O 8.11403 -3.90712 1.45201
H 8.04453 -4.82564 1.06282
H 8.96624 -3.48045 1.14925
O 11.101 13.922 -14.943
H 10.9405 13.258 -14.2127
H 11.4916 13.4562 14.1663
O -11.4673 -14.3671 9.46798
H -11.3303 -13.944 10.3636
H -11.6395 -13.656 8.78626
O -11.769 -5.4394 -10.8137
H -11.6954 -5.40405 -9.81703
H -12.6806 -5.76136 -11.0693
O 12.5948 14.2795 -4.48103
H 13.494 13.9789 -4.79896
H 12.6906 14.743 -3.60016
O 8.80041 -2.19803 -14.4299
H 8.31031 -1.64676 14.7982
H 8.18747 -2.41816 -13.6711
O -14.5826 2.17228 -5.14246
H 14.8707 1.42141 -4.65912
H -13.7432 2.42341 -4.66036
O 11.3713 6.59511 12.5159
H 10.6117 7.24497 12.4893
H 11.0591 5.70386 12.187
O -3.48343 -9.64601 -6.85357
H -4.01891 -10.1669 -6.18879
H -3.74303 -9.92081 -7.77935
O 1.95018 -4.95763 -8.13021
H 2.09754 -4.71007 -9.0878
H 1.36458 -5.76674 -8.08144
O -10.5693 6.85831 -5.00124
H -10.5779 7.82126 -5.27076
H -10.2928 6.7828 -4.04321
O 8.7627 0.192024 -4.7845
H 9.41809 0.0478555 -5.52589
H 9.0938 0.919646 -4.18373
O 1.51255 -10.9823 -5.7113
H 0.834605 -10.4199 -6.18466
H 1.0544 -11.7496 -5.26269
O 4.18475 -9.79774 8.07977
H 4.02552 -10.7268 8.41354
H 3.48662 -9.56223 7.40366
O 4.81113 8.65106 -9.44052
H 4.00323 8.11489 -9.19599
H 5.07336 8.44739 -10.3838
O -4.82352 11.2117 2.79766
H -5.25973 11.73 2.06215
H -4.7182 10.2579 2.51616
O 14.7205 12.7134 6.67363
H 14.878 12.3742 5.7462
H 13.7713 13.0156 6.76128
O 7.69997 12.3472 5.80147
H 6.78855 12.7385 5.92852
H 8.0312 12.565 4.88341
O 7.79773 11.1492 -9.42222
H 7.15481 11.3547 -8.68439
H 7.29012 10.8958 -10.2457
O -10.3569 3.94132 5.58776
H -10.5637 3.85583 6.56241
H -10.6526 4.8393 5.26185
O -1.25719 6.60231 -3.08057
H -0.670532 6.49605 -3.8834
H -1.74475 5.74638 -2.9084
O 12.8114 -9.27977 8.58479
H 13.642 -9.63004 8.15181
H 13.0363 -8.47635 9.13608
O 14.0495 6.83976 13.5073
H 13.1994 6.74484 12.9894
H 14.6056 7.56686 13.1047
O 10.5322 -14.3487 -5.62918
H 10.4343 -14.7725 -6.52965
H 11.2532 -14.8159 -5.11753
O -11.2062 1.36938 12.8596
H -11.6866 0.505487 13.0111
H -10.5838 1.54296 13.6228
O 2.46341 -4.95758 -3.58828
H 1.70571 -5.36609 -4.09719
H 3.31248 -5.07483 -4.10336
O 11.9393 10.4421 -0.692845
H 11.0653 10.4631 -0.207454
H 12.6475 10.8581 -0.122356
O -0.892208 11.6601 14.0872
H -0.435337 10.7777 13.975
H -0.224204 12.3473 14.3725
O -11.8786 10.2837 11.012
H -11.666 9.95631 11.9326
H -11.3323 11.0973 10.8131
O 14.0902 6.41327 -6.91906
H -14.9099 6.69376 -6.5941
H 14.1052 6.33105 -7.91555
O -7.54211 -14.1866 3.8717
H -7.88361 -13.3429 3.45773
H -6.57074 -14.2928 3.65919
O -3.1961 4.3358 -3.25772
H -2.8393 3.75631 -3.99043
H -3.88862 4.95421 -3.62915
O -9.52784 3.13731 9.40824
H -9.94332 2.24133 9.25149
H -9.72165 3.43569 10.3428
O 5.09069 3.68201 12.8863
H 4.70761 3.62533 13.8082
H 5.05433 4.62926 12.5679
O -13.1609 5.52255 0.504574
H -13.4523 5.49399 -0.451577
H -12.8077 6.43333 0.718287
O 5.9877 -1.50102 -7.22773
H 5.19367 -2.06172 -7.46248
H 6.49123 -1.27097 -8.0605
O 7.16095 2.56379 14.6013
H 7.89027 3.23068 14.7541
H 6.41916 2.99322 14.0862
O -2.83113 -9.35383 -10.8674
H -3.2286 -8.64996 -10.2787
H -1.86796 -9.14345 -11.0348
O -11.5084 6.94134 -9.82483
H -12.2259 6.32684 -9.49696
H -11.595 7.05691 -10.8143
O 1.77407 -12.7987 3.10364
H 2.24001 -12.2584 2.40299
H 1.66674 -13.7396 2.78236
O -11.0801 3.16785 -11.1887
H -11.6276 3.9518 -10.8961
H -11.5387 2.70573 -11.9478
O -14.916 -12.8209 -3.81477
H 14.2794 -13.5266 -3.84379
H -14.8525 -12.4504 -2.88812
O -11.715 -5.53125 10.3978
H -11.275 -5.15499 9.58242
H -11.2477 -6.37221 10.6706
O -4.43327 -14.4293 13.8199
H -4.15642 -14.9425 13.0075
H -3.73738 -13.7439 14.0344
O -7.16616 -7.50016 -9.2105
H -7.88654 -7.65369 -9.88685
H -7.12208 -8.28103 -8.58738
O 0.281032 9.28763 0.749248
H 1.17873 9.29568 1.18976
H 0.331209 8.7621 -0.100033
O 8.03307 5.48831 14.7863
H 8.88233 5.01444 14.5535
H 8.05628 5.76079 -14.1552
O -8.01839 -5.56621 7.22295
H -7.97635 -6.22044 6.46784
H -7.12539 -5.51546 7.6701
O 7.3616 -0.14708 14.03
H 7.41563 0.809695 14.3157
H 7.34242 -0.196138 13.0314
O -1.55627 -7.6698 -4.19729
H -1.25279 -8.62166 -4.15433
H -0.781019 -7.08301 -4.43104
O -10.5954 -10.6052 -10.5638
H -11.5721 -10.3906 -10.5639
H -10.3979 -11.2591 -9.83339
O 1.75939 -4.16884 -13.435
H 1.62913 -4.42837 -12.4781
H 0.885008 -3.87814 -13.8235
O -1.10926 2.62701 13.3999
H -0.874728 1.86297 12.7989
H -0.543493 2.58901 14.2236
O -12.3708 -12.6112 -13.2025
H -11.5892 -12.7837 -12.603
H -12.7855 -11.7328 -12.965
O -11.1888 -12.384 -2.66556
H -11.4866 -13.1208 -2.05865
H -10.5958 -12.7585 -3.37839
O 7.35627 -10.5179 -5.05663
H 7.86882 -10.478 -5.91434
H 6.8851 -11.3975 -4.99057
O 10.3367 -14.5976 -1.7295
H 9.52859 -14.0219 -1.85402
H 10.0508 14.3727 -1.51108
O -10.8006 -8.14809 1.78784
H -10.7813 -9.02778 1.3127
H -11.636 -7.65566 1.54364
O 11.205 12.4405 -12.8332
H 10.71 12.3326 -11.971
H 12.1889 12.3928 -12.6609
O -4.37164 4.14771 12.28
H -4.13731 4.36235 11.3319
H -4.27628 3.16401 12.4324
O 3.84522 11.311 -14.7679
H 4.64025 11.805 -14.4158
H 3.07531 11.9422 -14.8616
O 11.862 -12.2446 2.73957
H 11.936 -12.6576 3.64727
H 11.0445 -11.67 2.70048
O -6.849 11.1181 -1.39321
H -6.11659 10.8379 -2.0137
H -6.51402 11.8387 -0.78614
O 13.079 0.0916206 -4.32202
H 13.2364 -0.867339 -4.55783
H 12.5739 0.537929 -5.06068
O 1.16773 2.73168 5.28979
H 0.736096 3.21895 6.04889
H 1.5004 1.84445 5.60939
O 2.78499 8.79003 13.2519
H 3.05533 9.68785 13.5995
H 1.84081 8.59915 13.5204
O -9.11675 -6.59267 -0.0572854
H -8.59844 -5.81603 0.300706
H -9.79467 -6.88109 0.618894
O 1.09375 7.43529 -1.42815
H 1.96286 7.42764 -1.92268
H 0.366493 7.10012 -2.02709
O 14.7434 6.26491 -1.38404
H 14.109 7.02 -1.54966
H 14.5963 5.90169 -0.464038
O -10.5143 10.2506 6.92676
H -10.5413 11.224 6.69933
H -10.5343 9.711 6.0851
O -8.53297 -9.9932 -7.47668
H -9.17876 -9.23986 -7.35254
H -9.03129 -10.8196 -7.73869
O -14.5462 -12.9941 -8.76863
H -14.3121 -13.0557 -7.79838
H 14.4249 -12.6451 -8.86509
O 1.00372 12.4287 -5.52553
H 1.2175 11.8159 -6.28631
H 1.69101 13.1535 -5.47807
O -1.55006 6.1237 -12.6962
H -0.674364 5.7235 -12.426
H -2.21986 5.98306 -11.9671
O 3.64033 6.92793 -2.62175
H 3.91019 7.48616 -3.40631
H 4.35415 6.25414 -2.43081
O -1.92411 11.303 6.31905
H -2.32806 10.408 6.12991
H -2.45761 11.7667 7.02639
O -1.26315 -14.4285 -12.2058
H -2.07545 -14.2499 -11.6506
H -0.499212 -13.8808 -11.8647
O -6.34859 10.5275 -7.02575
H -6.09713 9.56077 -6.97931
H -7.17035 10.6316 -7.58596
O -12.0383 1.55763 10.1855
H -11.6511 1.39483 11.093
H -12.5021 2.44349 10.175
O -4.78228 14.5648 9.11086
H -4.49374 -14.8317 8.29856
H -5.59857 -14.9102 9.49846
O 11.3147 -9.18043 5.97919
H 11.8258 -9.10653 5.12287
H 11.9494 -9.13939 6.75081
O -0.463057 2.66727 -13.6902
H 0.286632 2.01939 -13.5553
H -0.145514 3.59245 -13.4824
O 6.67429 -13.9144 2.8043
H 6.92844 -13.1971 3.45306
H 7.26014 -14.7127 2.94369
O 11.3078 7.24553 8.68692
H 10.7567 8.02042 8.37729
H 12.1331 7.58317 9.13952
O -13.4238 -4.97703 -14.8961
H -12.9984 -5.15257 14.1193
H -14.1882 -4.34296 14.8909
O 12.9975 -5.736 -7.23987
H 12.5795 -6.41001 -6.6308
H 12.9832 -4.83704 -6.8021
O 12.6049 10.4896 9.08518
H 13.1815 11.2675 9.33487
H 12.3263 10.5746 8.12857
O -1.76981 -10.7461 3.30402
H -2.08754 -11.4753 3.91002
H -1.52109 -9.94498 3.84842
O -12.3043 14.1592 7.27026
H -11.9624 14.3545 8.18946
H -13.2607 13.8722 7.32437
O -9.14491 3.42117 -3.88017
H -8.38826 3.13553 -3.29206
H -9.61089 2.61286 -4.23999
O 14.7421 13.605 -7.91243
H 14.8191 14.4841 -8.38285
H 14.7164 13.7569 -6.92437
O -13.1552 5.67495 11.9448
H -13.2932 6.66536 11.9492
H -12.9455 5.36348 12.8716
O -12.4597 12.839 -1.30607
H -13.4565 12.9129 -1.3363
H -12.1799 11.9522 -1.674
O -0.745314 -9.39471 11.1408
H -0.168374 -9.77494 10.4179
H -0.490385 -8.44164 11.304
O -4.64779 -1.13821 9.53386
H -5.52442 -1.52788 9.25162
H -4.13743 -1.81514 10.0642
O -9.55316 -6.74802 -2.92023
H -9.80046 -6.76524 -1.95145
H -10.2968 -7.14104 -3.46108
O -12.0519 -9.93742 8.91869
H -11.6337 -10.1149 9.80953
H -11.8483 -9.00014 8.63574
O -4.98693 8.91646 1.10687
H -4.30551 9.43156 0.586953
H -4.77309 7.94066 1.06147
O 3.59131 13.9021 -8.60433
H 2.7122 13.8651 -9.07949
H 3.93332 12.9731 -8.46324
O -6.66661 2.31701 -14.1581
H -5.93469 2.96062 -14.3818
H -6.39221 1.75933 -13.3747
O -10.1672 -0.547646 -13.1156
H -10.0087 -1.17466 -12.3529
H -11.1313 -0.58029 -13.3791
O -1.93564 -8.77319 -14.4936
H -2.12503 -8.1288 14.6688
H -2.72965 -9.36522 -14.3557
O 0.42138 -6.36351 -5.61146
H 0.504957 -5.52041 -6.14267
H 0.977653 -7.07961 -6.03304
O 8.70894 2.43198 -12.5912
H 9.61761 2.83378 -12.7046
H 8.30724 2.25736 -13.4902
O 6.74385 1.67124 -10.6596
H 6.08561 2.4078 -10.5041
H 7.41284 1.96104 -11.3441
O -10.0223 6.26627 13.9484
H -10.2784 7.23086 14.0115
H -10.0403 5.97859 12.9909
O -11.8933 1.21736 6.58071
H -12.0734 1.85589 7.32893
H -12.0131 1.6867 5.70587
O -9.9322 6.57154 10.481
H -10.4037 5.71509 10.6911
H -9.562 6.52921 9.553
O 1.27282 13.9983 6.57598
H 1.20698 13.7376 5.61282
H 1.04174 -14.9372 6.67588
O 13.4232 4.44672 -4.57576
H 13.6835 5.2073 -5.17051
H 14.0962 3.71194 -4.66043
O -1.92069 -4.68278 10.748
H -1.84739 -5.40639 10.0617
H -1.89539 -5.08682 11.6624
O -4.66589 -3.82288 1.77235
H -4.6048 -2.96253 2.27835
H -3.76941 -4.0503 1.3921
O 4.53464 6.32156 -14.8927
H 4.52608 5.60613 -14.1941
H 3.73996 6.21365 14.4133
O 3.47695 -5.11873 1.66949
H 4.18007 -5.62795 1.17321
H 2.62476 -5.1311 1.14642
O 0.866293 10.4867 -3.6294
H 1.00065 11.2828 -4.21938
H 1.46458 10.5585 -2.83135
O -6.1647 11.6908 -11.4205
H -5.42199 11.065 -11.6586
H -5.78619 12.5915 -11.2073
O 9.91463 -11.6679 5.13857
H 10.5531 -12.3659 5.4628
H 10.2389 -10.7641 5.41766
O 14.7189 -12.4004 7.15346
H 14.3582 -12.6973 8.03762
H 14.8554 -13.1971 6.5647
O -12.2615 -10.3171 -3.8906
H -11.8712 -11.2157 -3.69032
H -12.8084 -10.37 -4.72611
O -2.11394 -14.0918 2.81833
H -1.9029 14.8405 2.7059
H -1.9845 -13.6195 1.94648
O -11.2095 12.6113 1.2806
H -11.0646 11.6362 1.44819
H -11.9372 12.7288 0.604869
O 1.5427 9.94207 -13.4536
H 2.38461 10.3614 -13.7932
H 0.926079 10.6552 -13.1202
O -7.64705 -6.99821 13.536
H -7.93277 -7.95651 13.5349
H -8.3429 -6.44348 13.9922
O -6.15324 -12.527 10.1531
H -6.52524 -12.8368 11.0281
H -6.81206 -11.9217 9.70638
O -1.40775 12.2658 -9.4646
H -1.18059 11.3316 -9.18942
H -2.29693 12.5187 -9.08331
O -9.82933 -11.6188 11.5108
H -10.1566 -12.561 11.4385
H -9.44708 -11.3305 10.633
O 12.9796 10.3215 -5.4448
H 13.669 10.5583 -4.76023
H 12.0679 10.4052 -5.04253
O -4.56914 -3.43867 11.4081
H -3.66116 -3.83035 11.5568
H -4.98671 -3.86117 10.6036
O -3.06476 -3.42057 -1.48584
H -2.08809 -3.22482 -1.39777
H -3.26576 -3.69771 -2.4254
O -13.6718 -10.6167 -10.0469
H -13.2899 -9.96035 -9.39631
H -14.0782 -11.3823 -9.54828
O -5.76335 8.375 13.7513
H -5.27044 9.03951 14.3129
H -5.40321 7.45862 13.926
O 0.730644 6.27157 3.40695
H 1.3491 6.36659 2.62691
H -0.206063 6.15389 3.07724
O 14.918 -10.9253 3.88616
H -14.3978 -10.2686 4.35904
H -14.4202 -11.5527 3.3504
O -12.2171 -12.3974 7.65242
H -12.1884 -11.4862 8.06336
H -12.996 -12.4572 7.0282
O 9.68235 -7.09908 11.9864
H 10.52 -6.85352 12.4742
H 9.76593 -8.02873 11.6276
O -4.82239 -1.22141 3.30867
H -4.32484 -0.455455 3.71577
H -5.80456 -1.08995 3.44296
O 9.43492 3.62358 4.0878
H 10.0968 3.78563 3.35593
H 8.7616 4.36285 4.09797
O -8.88798 -2.29135 9.38518
H -8.56051 -2.56603 10.2892
H -8.11279 -2.21929 8.75759
O 11.7746 -3.41806 -5.65618
H 11.3459 -3.07774 -6.49308
H 11.0687 -3.60972 -4.9743
O 11.0643 -11.5203 -2.9074
H 11.1461 -12.5153 -2.9655
H 10.1255 -11.2767 -2.66401
O -3.72089 -5.18094 -14.088
H -3.35415 -5.55345 -13.2355
H -4.51613 -4.60897 -13.8869
O 0.392327 11.0232 4.76551
H 1.09323 10.4096 5.12919
H -0.401631 11.0198 5.37346
O -9.66969 -12.2654 -8.66378
H -10.2413 -12.9359 -8.19081
H -8.91992 -12.7358 -9.12914
O 4.98745 4.40117 -12.6106
H 4.78128 4.21662 -11.6497
H 5.9243 4.7415 -12.6911
O -13.6983 -3.37504 5.00177
H -13.9416 -3.02445 4.09742
H -13.4787 -2.61041 5.60766
O 9.90447 12.5962 -10.3336
H 9.12615 12.0107 -10.1069
H 10.631 12.4604 -9.66002
O 14.929 8.5338 3.92006
H 13.936 8.64716 3.95432
H -14.5519 9.07343 4.64832
O -6.53357 -13.0123 -2.35055
H -7.35637 -12.446 -2.39898
H -5.75172 -12.4945 -2.69787
O -0.307359 -2.59488 -1.98432
H -0.403921 -2.02 -1.17181
H 0.455793 -2.26291 -2.53873
O -10.9936 -0.87825 0.19247
H -10.1613 -0.334362 0.299334
H -10.7552 -1.7902 -0.141466
O -10.4829 -1.53521 -10.2619
H -11.4651 -1.38981 -10.3804
H -10.3315 -2.23949 -9.56832
O -13.1698 -4.55262 -6.53967
H -13.0263 -3.80364 -5.89282
H -13.7913 -5.22533 -6.13814
O 3.75497 -8.99346 -9.04052
H 3.7745 -9.78764 -8.43316
H 4.56332 -9.00403 -9.62911
O 12.2024 -5.50353 6.79596
H 12.0787 -5.30028 7.76723
H 12.9863 -6.11348 6.68029
O -11.0095 -5.39472 -8.06047
H -10.4844 -4.55018 -8.16524
H -11.8263 -5.21357 -7.51272
O 1.62751 14.3446 -12.6724
H 2.39797 14.8589 -12.2957
H 0.77061 14.7892 -12.4116
O 14.4642 -10.4367 -14.6415
H 13.7429 -10.7766 -14.038
H 14.0692 -10.1878 14.3775
O 5.28694 4.05664 -9.80365
H 5.50144 3.62124 -8.92935
H 5.9975 4.72391 -10.0269
O -10.1097 1.06666 -9.71416
H -10.5134 1.73539 -10.3385
H -10.3331 0.142924 -10.0253
O 10.2353 0.117305 -1.39606
H 10.2367 0.697493 -2.21053
H 9.36058 0.21217 -0.920752
O -13.4168 -8.91678 5.13626
H -12.7095 -9.5262 4.77804
H -13.4523 -8.99665 6.13243
O -1.78966 7.89548 11.471
H -1.17973 8.55292 11.0285
H -1.43706 7.67304 12.3799
O -10.7537 9.5411 -5.78825
H -10.42 10.4475 -5.52927
H -10.8762 9.50183 -6.77993
O -11.469 13.2283 12.8983
H -11.6149 12.6436 13.6963
H -10.4983 13.2283 12.6581
O 4.11009 -0.907426 4.74638
H 3.98427 -1.65897 4.09882
H 4.94392 -0.40553 4.51659
O -13.2064 -9.72577 -12.8913
H -13.5095 -9.51973 -11.9609
H -14.0022 -9.80191 -13.492
O 12.3536 -6.59334 13.3228
H 12.1353 -6.75713 14.2848
H 13.3456 -6.61141 13.1983
O -9.52439 -2.52876 14.4108
H -9.06296 -1.64623 14.5014
H -9.82039 -2.84421 -14.5909
O 0.560822 -12.3713 -11.7185
H 1.54729 -12.2409 -11.6193
H 0.238382 -11.8748 -12.5245
O -14.5395 7.03424 7.77249
H -14.4635 6.37654 7.02306
H -13.6357 7.40819 7.98072
O 7.41566 6.87168 12.2776
H 8.03059 6.54988 11.5577
H 7.37992 6.19465 13.0127
O -14.5667 -13.15 14.4785
H -14.7447 -12.2505 14.8774
H -14.6389 -13.85 -14.7143
O -10.3258 1.06046 -4.59702
H -10.4152 0.888767 -3.61595
H -10.666 0.269904 -5.10615
O 4.54985 -4.05797 -13.5475
H 3.55406 -4.04758 -13.4566
H 4.7984 -3.92335 -14.5067
O 13.8942 -13.0849 9.87587
H 13.1608 -12.5233 10.259
H 14.6407 -13.155 10.5375
O 0.809499 14.0541 -9.62211
H 0.569714 14.7122 -8.90842
H 0.143412 13.3083 -9.62515
O 11.4089 -11.942 -6.56894
H 10.6628 -11.3013 -6.74977
H 11.0394 -12.7782 -6.16372
O -10.8061 -8.79299 -14.3927
H -11.3991 -9.14044 -13.6663
H -10.9817 -9.2992 14.6662
O 4.59752 -12.5551 8.84532
H 5.13314 -12.1842 9.60397
H 5.21482 -12.8756 8.12687