2611
Atoms. Timestep: 23000000
O -13.7446 -10.7923 0.415286
H -12.9731 -10.8815 1.04519
H -13.4019 -10.6628 -0.515168
O -4.97427 -3.9894 -5.3705
H -4.8682 -4.67279 -6.09277
H -5.41994 -3.17596 -5.74416
O -6.4965 14.2169 -1.34174
H -7.36514 14.5536 -1.70512
H -5.80315 -14.8243 -1.4181
O 7.47098 -13.8206 -9.93336
H 8.09928 -13.7832 -10.7104
H 6.73346 -13.1591 -10.0689
O -9.75375 13.9643 -8.50106
H -10.7331 13.8866 -8.68762
H -9.24739 13.9412 -9.36304
O 4.7999 -1.49867 6.99947
H 4.89846 -1.95604 6.11571
H 4.92084 -0.513251 6.88011
O 6.28322 -4.49419 -7.06172
H 5.68004 -4.52055 -6.26459
H 5.97524 -5.16623 -7.7351
O 2.65833 9.9521 8.12509
H 3.19725 9.99227 8.96645
H 2.64306 10.855 7.69563
O 3.94865 14.1809 -8.75371
H 4.68427 13.5264 -8.92825
H 3.09143 13.6874 -8.60674
O -9.22809 -12.1624 13.3877
H -9.59008 -13.0903 13.2987
H -9.96149 -11.5018 13.2277
O 6.34442 7.2934 12.0878
H 5.61318 7.04155 11.4539
H 6.01264 7.99611 12.7171
O 8.97853 2.03811 -3.28317
H 8.08595 2.47772 -3.38311
H 8.86203 1.13961 -2.86002
O -12.5502 6.82586 -11.1551
H -12.7777 7.75573 -11.4441
H -12.2456 6.29598 -11.9465
O 13.1478 -3.40366 -4.54421
H 13.2907 -4.05871 -5.28611
H 12.2027 -3.46467 -4.2232
O 9.46906 -9.02312 -8.09268
H 10.3307 -8.51936 -8.15432
H 8.76839 -8.43664 -7.68643
O 5.2202 9.28212 13.7317
H 4.23751 9.39443 13.5846
H 5.51379 9.87035 14.4851
O -8.97657 5.56524 -1.84194
H -9.61574 6.29745 -2.07704
H -8.23695 5.53977 -2.51443
O 4.77483 -0.871114 4.10579
H 4.34584 -0.0449047 3.74071
H 5.37117 -1.27213 3.41044
O 3.37768 -0.870447 -5.7471
H 2.64878 -0.37424 -5.27549
H 4.25573 -0.66142 -5.31666
O -2.51702 -11.7917 12.9685
H -2.97306 -12.0531 12.1179
H -2.27727 -12.614 13.4845
O 11.9356 -13.2686 -11.5838
H 12.4015 -13.8948 -10.9587
H 11.9702 -12.3405 -11.2131
O -7.16694 12.8505 2.16507
H -6.98367 12.158 2.86279
H -7.27231 12.4071 1.275
O 2.29676 -4.93865 5.46334
H 2.20615 -4.02382 5.06988
H 3.00425 -5.44494 4.97032
O 4.48716 9.25831 6.04886
H 3.62429 9.61013 6.41165
H 4.29857 8.5519 5.36669
O 10.3588 10.313 13.6333
H 9.93069 9.58835 13.0933
H 11.2633 10.5173 13.2592
O 3.54846 4.18395 1.90279
H 2.97352 4.97594 2.10802
H 4.33476 4.47514 1.35792
O -7.1779 -1.54904 14.1584
H -7.52396 -0.615322 14.0671
H -7.94374 -2.19173 14.1389
O -8.38855 13.7552 5.64593
H -8.96841 14.0186 6.41684
H -7.44215 13.6655 5.95611
O -0.255695 -10.5161 -14.6644
H -0.843328 -11.2873 -14.4197
H 0.362702 -10.7889 14.3563
O -3.93425 -2.88976 -12.0962
H -3.99955 -2.93668 -13.0929
H -4.04857 -3.80554 -11.7112
O 3.08587 -7.35754 -11.1745
H 2.41064 -7.89953 -10.6742
H 3.62161 -6.81381 -10.5285
O -9.63816 -2.59712 -6.48821
H -9.67463 -1.96573 -5.71365
H -10.5666 -2.87123 -6.73877
O -0.474395 0.254539 8.74414
H -0.974849 0.704926 9.48349
H -0.755441 0.64286 7.86656
O -3.38133 10.6347 11.9031
H -2.85464 10.3571 12.7065
H -4.32098 10.8414 12.1757
O 11.204 -14.6817 -7.47166
H 10.928 14.17 -7.79266
H 10.5065 -14.3207 -6.85264
O 0.440872 -9.30898 12.5851
H -0.0155483 -8.95359 11.7694
H -0.238425 -9.48308 13.2979
O -10.9157 14.3248 -5.99702
H -10.6414 13.594 -5.37192
H -10.3905 14.2527 -6.8449
O -0.426791 -14.709 9.62552
H 0.0989487 -14.0503 10.1638
H -1.26251 14.8068 10.1185
O 3.99681 -13.7628 -1.85184
H 3.86409 -14.7112 -2.13961
H 3.79814 -13.6799 -0.875319
O 10.6029 -3.95562 -2.85464
H 10.6141 -2.96175 -2.96437
H 10.859 -4.19031 -1.91694
O 8.81128 -4.13654 1.87672
H 9.45864 -4.89416 1.79385
H 9.18954 -3.32475 1.43192
O 8.12556 -7.9297 10.7698
H 9.02209 -8.26113 11.0636
H 7.55274 -7.76228 11.5722
O 14.6896 -8.13353 0.689021
H 13.9831 -8.32316 0.00722022
H -14.1989 -8.52408 0.385835
O 5.64532 -0.584726 -4.27517
H 6.36694 -0.693088 -3.59147
H 5.97845 -0.0109369 -5.02332
O 3.78048 1.63107 3.13499
H 2.8182 1.68028 3.40242
H 3.9974 2.39593 2.52847
O 8.22844 13.4427 -3.09179
H 8.69993 14.252 -2.74156
H 7.55165 13.1356 -2.42277
O 3.20596 -4.48926 -1.88749
H 2.44502 -5.13135 -1.79466
H 2.99891 -3.82921 -2.60957
O 11.7235 14.5257 -13.7816
H 11.6536 -14.5279 -13.075
H 11.7041 13.6217 -13.3545
O 14.7237 -9.41801 3.49665
H 14.6838 -9.28128 2.50688
H -14.2049 -8.99221 3.85885
O 1.35174 9.57969 4.06007
H 2.13485 9.44261 3.45354
H 1.20952 10.5589 4.20466
O 5.19871 -0.202707 12.5766
H 6.10128 -0.0274997 12.9698
H 5.29497 -0.421832 11.6057
O -7.16844 -14.2098 1.87843
H -6.2878 -13.8757 1.54257
H -7.20366 14.5525 1.7884
O -0.778845 14.6818 -14.5159
H 0.087347 14.7677 14.7495
H -1.34673 13.9883 14.7986
O -1.77355 -8.15937 3.35594
H -1.0634 -8.55613 3.93749
H -2.50089 -8.83056 3.21309
O -2.42103 -1.1086 -8.68942
H -3.30981 -0.742333 -8.41401
H -1.76709 -0.99401 -7.94164
O -3.44529 -6.35279 -13.204
H -3.0591 -5.84513 -12.4339
H -2.71817 -6.57958 -13.8519
O 0.118318 -4.5185 -12.9075
H 0.189976 -3.61385 -12.4875
H -0.45846 -4.46287 -13.7225
O -13.1404 -9.59403 -8.68221
H -13.2104 -10.2553 -7.93537
H -13.9941 -9.07785 -8.75137
O 12.1896 0.409196 11.4447
H 11.5754 0.0852688 12.1643
H 11.8744 0.0683172 10.559
O -11.1876 12.7396 0.0758104
H -12.1104 12.4321 -0.156107
H -11.1919 13.7294 0.21793
O -13.5208 -11.1638 -6.29622
H -12.9776 -11.774 -5.7196
H -14.3132 -11.6592 -6.65193
O -13.9365 -5.47581 -2.35994
H -14.8653 -5.19419 -2.11911
H -13.9127 -6.46652 -2.49354
O -10.4868 7.1284 -7.62209
H -9.78013 6.70163 -8.18631
H -10.0654 7.7962 -7.00861
O -4.53541 -11.0571 -3.09172
H -4.62638 -10.985 -4.08492
H -3.67289 -10.6403 -2.80488
O 11.1933 -10.0479 -5.70182
H 10.7288 -10.3344 -6.5397
H 11.7165 -9.21436 -5.87909
O 10.1071 -13.017 5.51234
H 9.52193 -12.8688 6.30956
H 11.0554 -12.8084 5.75156
O -8.01763 -7.47136 -7.78639
H -8.96471 -7.79133 -7.76186
H -8.00384 -6.48119 -7.92535
O 13.6308 -2.52769 -1.37547
H 14.0416 -1.61859 -1.30697
H 13.4311 -2.73187 -2.33379
O 8.53668 14.6795 1.69091
H 9.12471 14.6675 0.882206
H 7.60256 14.4388 1.42738
O 10.262 -9.27354 8.58107
H 10.4931 -8.91775 9.48657
H 9.30801 -9.57309 8.57417
O 12.3 2.03872 7.26009
H 13.2671 2.10523 7.0145
H 11.8997 2.9546 7.28883
O -7.34872 -10.7654 14.4684
H -7.93853 -11.4446 14.0317
H -7.4938 -10.7849 -14.3
O 0.820856 -8.48797 -9.79142
H 0.87248 -9.38088 -9.34424
H 0.0512524 -8.47892 -10.4298
O -14.4993 9.55837 -10.1418
H -14.2797 8.83742 -9.48457
H 14.5902 9.21527 -10.802
O 11.8377 -12.3678 14.1773
H 12.7822 -12.0906 14.0009
H 11.8278 -13.289 14.5663
O -1.95402 1.6274 11.4658
H -0.981205 1.42653 11.5808
H -2.45334 0.776154 11.3046
O -0.918241 -0.595403 -6.49426
H -1.17407 0.349773 -6.29146
H -0.539867 -1.02188 -5.67275
O -14.8075 14.133 -11.2403
H 14.8153 13.189 -11.5414
H 14.2324 14.3812 -10.5898
O -4.75469 -13.5674 14.008
H -5.02648 -12.8481 14.6473
H -4.94146 -13.2694 13.0719
O -6.94312 -13.9958 -12.4334
H -7.59678 -14.2556 -13.1441
H -6.02198 -14.267 -12.7124
O -2.94374 -11.0639 9.58808
H -3.13918 -10.2363 9.06196
H -2.03346 -10.9924 9.9958
O 3.47404 2.78057 -5.30397
H 3.66351 2.27739 -6.14709
H 3.95364 3.65778 -5.32442
O 5.85721 4.64998 0.22413
H 6.76597 4.31761 0.476392
H 5.83875 5.64797 0.284334
O -3.61653 12.536 -14.1289
H -3.0744 12.5894 14.7901
H -3.46444 11.6507 -13.6896
O -12.3366 -7.18813 3.76535
H -12.1959 -6.47888 3.07463
H -13.2824 -7.1559 4.0883
O -13.9503 12.7779 7.21004
H -14.8499 13.0952 6.91001
H -13.3022 12.8479 6.45177
O 6.55527 1.03295 -6.32458
H 5.91545 0.992713 -7.092
H 6.8204 1.98317 -6.16114
O -13.9841 -5.79819 9.83983
H -14.3009 -5.44295 8.96042
H -13.7753 -6.772 9.75022
O -10.3305 13.9278 -3.24138
H -11.3185 14.0644 -3.31256
H -10.0385 14.0903 -2.29888
O 7.86957 -12.5726 7.4561
H 7.04952 -13.1435 7.41767
H 8.08555 -12.3632 8.40975
O 0.758618 -13.7387 2.95944
H 1.55471 -13.2044 3.24357
H 0.225757 -13.997 3.7652
O -11.7239 -11.5437 8.05009
H -10.7953 -11.3932 7.71086
H -12.1026 -12.3684 7.63005
O -7.4188 11.3222 4.51824
H -7.94039 12.1208 4.81826
H -6.864 10.982 5.27745
O -4.01688 12.0759 -11.1578
H -4.74179 12.0221 -10.4712
H -4.22808 11.4575 -11.9147
O -11.9708 -2.51751 -13.8656
H -12.7863 -2.92506 -13.4546
H -12.1035 -2.42973 -14.8528
O 13.2064 -5.94036 -2.36488
H 13.1228 -6.92108 -2.18843
H 12.4718 -5.45298 -1.89284
O -10.3228 3.05956 -7.90286
H -9.91265 2.15656 -8.0306
H -9.60576 3.725 -7.69553
O 6.99454 3.00383 14.1987
H 7.76828 3.5905 13.9598
H 7.25224 2.04556 14.0752
O -1.4289 -14.0355 0.972787
H -1.143 -13.804 0.0429524
H -0.713964 -13.7664 1.61806
O -2.00522 -5.49139 -2.28819
H -1.09274 -5.84834 -2.08847
H -2.64882 -6.25172 -2.37539
O -1.36528 -7.56745 11.1315
H -1.53806 -6.58756 11.032
H -2.0151 -7.95579 11.7849
O 12.5179 -4.46607 5.69684
H 12.5473 -4.1398 4.75206
H 12.4376 -5.46279 5.7029
O 7.51576 4.33168 -12.657
H 8.42371 4.28904 -12.2402
H 7.43956 3.6273 -13.3627
O -10.8807 -10.357 10.4339
H -10.6316 -9.47223 10.04
H -11.1904 -10.97 9.70711
O -0.886718 -14.2924 5.12164
H -0.160465 -14.3227 5.80835
H -1.70132 -13.8676 5.51653
O 4.33604 5.28933 -4.96101
H 4.66657 5.71374 -4.11806
H 3.45243 5.686 -5.20964
O 12.9077 -2.8007 11.1671
H 12.5148 -1.91176 11.4023
H 13.3719 -2.73667 10.2837
O 10.19 -11.8871 -7.95971
H 9.3175 -11.4506 -8.17894
H 10.0865 -12.8807 -8.0056
O 1.05043 13.4647 -3.84885
H 1.72704 13.8415 -3.2163
H 0.824429 14.1492 -4.54184
O 5.63716 -1.17742 9.61961
H 5.17945 -1.43718 8.76933
H 6.25554 -0.411311 9.44466
O 9.73327 -5.00336 14.2434
H 10.7167 -4.9247 14.4065
H 9.45596 -4.33745 13.5509
O -4.05781 6.36966 -2.97784
H -3.82411 5.97777 -2.08805
H -4.13137 7.3635 -2.89538
O -10.1771 -8.7972 3.28024
H -10.9787 -8.24924 3.51907
H -9.34643 -8.29465 3.51985
O 11.1645 1.69989 -0.815212
H 10.2448 1.63222 -0.428551
H 11.8266 1.32081 -0.168757
O -10.5837 12.9101 13.5666
H -10.0544 13.6406 13.1353
H -11.4781 12.841 13.1247
O 6.92884 -13.7812 10.0901
H 6.52611 -13.0346 10.6196
H 6.85122 -14.6348 10.6052
O -9.04573 8.72801 -5.30984
H -9.19498 8.04999 -4.59016
H -8.06387 8.84686 -5.45736
O -10.303 -5.1111 -12.3834
H -9.49301 -5.49134 -12.8298
H -10.2395 -4.11322 -12.3715
O -7.80059 1.70294 -6.75497
H -7.57361 0.761928 -7.00578
H -8.02453 1.74359 -5.78125
O -8.80243 -2.97766 6.09104
H -9.29757 -3.42646 6.83491
H -8.91533 -3.50558 5.24932
O 10.3698 -8.92292 2.63443
H 10.1198 -8.83375 1.67032
H 11.0793 -9.62079 2.73165
O 6.0334 0.760243 0.369976
H 5.41998 0.486196 -0.370665
H 5.54188 1.35335 1.0076
O -4.88988 -1.64658 -1.03042
H -4.25892 -2.04697 -1.69489
H -4.98208 -2.26045 -0.246464
O -8.56695 2.87641 -0.783771
H -7.70438 2.55041 -1.17061
H -8.55216 3.87485 -0.730615
O 9.95864 -13.02 2.92483
H 9.57309 -13.8919 2.62322
H 9.81942 -12.9169 3.90967
O 4.78625 -7.56575 7.32195
H 5.59279 -7.20546 6.85333
H 4.49338 -6.91913 8.02626
O -5.4671 -6.33528 5.41958
H -6.18466 -5.65173 5.55296
H -4.7309 -5.9425 4.86851
O 3.95785 10.2271 10.7172
H 3.83232 11.2181 10.7624
H 3.38752 9.78689 11.4106
O -10.8876 -13.8253 4.49021
H -10.2596 -13.052 4.57652
H -10.4369 -14.5669 3.99335
O -6.14021 -2.54772 9.59538
H -6.25369 -3.52169 9.7914
H -6.72909 -2.01465 10.2028
O 12.8726 -4.69198 -13.0301
H 12.539 -5.54572 -12.6303
H 12.2237 -3.95662 -12.8347
O -13.7695 12.2288 -0.179658
H -13.9251 11.5749 0.560781
H -14.6489 12.5539 -0.52747
O -12.3717 0.724844 -7.49689
H -12.8849 1.29632 -8.13718
H -12.7558 0.825023 -6.57909
O 7.38591 -5.74268 -0.556944
H 7.77849 -4.93838 -0.110948
H 6.58323 -6.049 -0.0452755
O -10.7476 -0.613996 1.87014
H -9.98883 -0.762118 2.50434
H -10.3866 -0.41943 0.958128
O -4.62496 14.8667 -13.3084
H -4.08886 14.0618 -13.563
H -4.63656 -14.2436 -14.0704
O -10.2416 -4.36792 8.11968
H -10.8154 -4.2989 8.93572
H -10.7375 -4.86001 7.40421
O -7.5558 -3.4645 -2.03938
H -8.25177 -3.10693 -1.41672
H -6.81956 -3.88576 -1.50982
O -11.9744 4.78493 -12.9194
H -11.4958 4.26811 -13.6292
H -11.9405 4.27824 -12.058
O -0.258578 12.6968 5.46022
H 0.149535 12.3275 4.62538
H -0.802957 13.505 5.23576
O -9.12582 -1.08875 -4.46507
H -9.29928 -0.103947 -4.46658
H -8.37746 -1.29441 -3.83452
O -4.53532 -2.86894 4.77395
H -4.07095 -3.58322 5.29749
H -5.14138 -2.35278 5.3791
O 8.02124 -13.9338 -7.16264
H 7.72549 -12.9804 -7.22271
H 7.7784 -14.4119 -8.00666
O 2.7537 -8.07576 13.8349
H 2.43801 -8.03839 14.783
H 2.01296 -8.40563 13.2498
O -7.56422 5.02111 12.4018
H -7.66759 5.90721 12.8536
H -8.46063 4.69132 12.1058
O -3.61554 -10.2627 2.94447
H -3.66945 -11.161 3.38038
H -4.53723 -9.89253 2.82868
O -12.8409 11.7743 -3.70855
H -13.1732 12.6289 -3.30954
H -11.9268 11.5749 -3.35568
O -6.11489 -0.0139996 4.80134
H -6.49571 0.226242 5.6942
H -5.16753 0.301445 4.74725
O -14.3769 -8.09938 -2.86032
H -14.353 -8.38257 -3.81905
H -14.7778 -8.82952 -2.307
O 14.3714 2.96555 2.60247
H 13.8819 2.92521 1.73146
H 13.8319 3.48602 3.26424
O -6.40737 11.1036 12.2577
H -6.07829 12.0239 12.469
H -7.19397 10.8898 12.8369
O 9.70296 -7.27404 -2.01396
H 8.8572 -6.91051 -1.62346
H 9.89111 -6.8185 -2.88402
O 1.4305 -3.55693 13.6523
H 0.467232 -3.7671 13.4853
H 1.99269 -4.34245 13.3937
O 5.85648 10.5677 -13.6777
H 6.48053 11.3322 -13.5166
H 5.10022 10.6115 -13.0249
O 14.7803 -10.7294 -11.1422
H 14.4639 -11.211 -11.9594
H -14.3515 -9.99634 -11.4086
O -0.0310023 -7.59428 -6.34717
H 0.467605 -8.45783 -6.27228
H 0.282076 -7.09776 -7.15673
O -14.8355 1.08393 10.2407
H -14.2747 0.835833 11.0305
H 13.962 1.13289 10.5157
O 7.76977 -7.36083 -4.15571
H 7.07543 -6.73646 -3.79796
H 8.505 -6.83324 -4.58116
O -8.40805 1.11373 14.2045
H -9.20444 0.997115 14.7979
H -7.76234 1.74532 14.6336
O -5.79567 -6.45671 -4.29197
H -5.59741 -5.61459 -4.79344
H -6.7484 -6.44741 -3.98839
O -1.18742 -6.91636 6.43512
H -0.603599 -6.50999 7.13794
H -0.625858 -7.45061 5.80333
O -11.3069 -8.16919 -3.10717
H -11.9123 -7.9051 -2.35643
H -11.6727 -7.81886 -3.96937
O -11.2789 -2.45953 12.9203
H -10.5405 -3.09232 13.1534
H -11.0178 -1.92401 12.1172
O 10.8255 4.51282 11.4443
H 10.7281 3.73471 10.8239
H 10.7591 5.36426 10.9242
O -14.8462 14.7308 10.0622
H -14.1921 14.0933 10.4691
H 14.0244 14.28 9.96275
O -1.77097 -14.3538 -8.08686
H -2.20249 -13.6996 -7.4658
H -2.13374 -14.2262 -9.00993
O 0.563838 11.07 -12.3816
H 0.44906 10.2579 -11.8095
H -0.0679039 11.7833 -12.0784
O 11.3937 -12.1973 8.17171
H 12.2899 -12.2287 8.61424
H 10.9198 -11.358 8.43803
O 6.8004 1.52216 4.48497
H 7.05292 2.24657 5.12638
H 5.81222 1.54105 4.33305
O -14.2054 -4.08236 -13.127
H -13.7468 -4.88386 -13.5108
H 14.5647 -4.23899 -13.1114
O 9.57818 0.974351 -11.9408
H 10.5582 0.815612 -12.0606
H 9.43883 1.79006 -11.3794
O -11.9923 0.740548 8.08244
H -12.9702 0.837477 8.26777
H -11.8065 0.992236 7.13267
O -0.663405 7.78209 -3.79862
H -0.592553 6.98826 -4.40255
H 0.0073161 8.47094 -4.07351
O 8.471 -1.46348 0.415725
H 8.44582 -0.4714 0.29291
H 7.77495 -1.73481 1.08042
O -9.17704 -11.3116 -4.7738
H -9.07592 -10.3737 -5.10535
H -8.40819 -11.8638 -5.09616
O 4.38838 0.699503 -2.04021
H 4.83913 0.339545 -2.85703
H 4.52566 1.68885 -1.99241
O -10.2717 -12.4568 -8.19838
H -10.7279 -12.7031 -7.34335
H -10.9271 -12.0142 -8.81037
O 13.0998 0.621093 0.773616
H 14.0644 0.716628 1.01916
H 12.9693 -0.225781 0.258127
O 14.2802 -12.5057 -13.0286
H -14.7038 -13.0916 -12.7875
H 13.4274 -12.9503 -12.7548
O 11.1049 -1.08145 13.4198
H 10.6981 -0.306313 13.9031
H 10.3939 -1.75147 13.2064
O -9.93569 -14.5769 12.275
H -10.9207 -14.7465 12.243
H -9.50938 14.8268 11.4426
O -7.19001 11.6817 -13.7331
H -6.22587 11.926 -13.8366
H -7.5588 12.1199 -12.9134
O -13.9199 9.31403 1.01609
H -14.454 8.64689 1.53532
H -12.9492 9.08085 1.07311
O 4.01926 2.19529 9.47723
H 3.45734 1.37378 9.57367
H 4.37894 2.46 10.3719
O 0.323456 -12.8876 -0.861736
H 0.926757 -13.076 -0.0868515
H 0.541163 -11.9891 -1.24283
O 9.09656 -0.681511 -6.55403
H 8.4681 -0.212666 -5.93342
H 9.16478 -0.168418 -7.40961
O 5.47463 14.3827 0.909117
H 5.83892 -14.4604 0.733191
H 4.53789 14.4572 1.25102
O -13.6618 7.13439 14.058
H -13.9254 7.66229 13.2507
H -13.9539 6.18469 13.9452
O -3.04417 -3.11496 -14.7899
H -2.45911 -3.92003 14.8702
H -3.58412 -2.99255 14.135
O -3.44844 11.4993 -2.31035
H -2.66414 12.1194 -2.29628
H -4.22077 11.9487 -2.75913
O 11.418 5.42237 -4.16295
H 10.5816 5.19787 -4.66307
H 11.4844 4.84563 -3.34877
O -3.08468 -6.02577 2.39057
H -3.73771 -6.38853 1.72583
H -2.46215 -6.75376 2.67767
O -0.64549 4.16529 6.10062
H -1.32996 3.4584 5.92248
H -0.196911 3.982 6.97532
O 12.0878 -9.58318 -13.0129
H 11.2071 -9.48501 -13.4763
H 11.9401 -9.92772 -12.0859
O -11.5921 4.39014 8.1294
H -12.1116 3.95449 7.39438
H -10.8871 3.76134 8.45722
O 2.13808 -9.70062 3.36746
H 2.9506 -10.1283 3.76345
H 2.19315 -9.74044 2.3698
O -8.69836 -6.67714 5.14057
H -8.82151 -5.9688 4.44557
H -8.04776 -7.36016 4.80871
O 13.8094 12.0812 -8.96961
H 13.9391 12.0214 -7.9799
H 13.2755 11.2963 -9.28385
O -2.3742 6.49414 5.98496
H -3.24246 6.10299 6.29004
H -1.70548 5.76182 5.85674
O -14.5768 11.4084 -12.2396
H -14.2572 10.9742 -11.3975
H -14.5049 10.7596 -12.9971
O -12.2781 -9.01811 -11.2758
H -12.6796 -9.38523 -10.4368
H -11.3524 -8.69069 -11.0868
O -7.66657 -11.3328 -12.3613
H -8.65759 -11.2179 -12.4293
H -7.4461 -12.3072 -12.3186
O 7.34088 7.94306 3.75254
H 8.24358 7.92776 4.18246
H 6.88031 7.07016 3.91329
O 12.3497 5.95061 -14.3766
H 13.0025 5.92623 -13.6194
H 11.7467 6.7413 -14.2714
O 5.29893 -11.2283 14.0478
H 5.70757 -10.3528 14.3055
H 4.55919 -11.4507 14.6829
O 11.5865 4.54423 -7.32743
H 11.2853 5.31122 -7.89393
H 10.9642 4.4381 -6.55191
O 9.10766 5.02217 -5.91021
H 8.26894 5.51579 -5.68035
H 8.87406 4.15306 -6.34611
O -1.86904 9.85225 13.9327
H -1.43755 9.02362 14.2893
H -1.17015 10.4484 13.5376
O -12.6577 -4.77113 -4.64188
H -13.3841 -4.65303 -3.96482
H -12.5545 -5.74289 -4.8539
O -10.4522 7.57243 -2.83236
H -10.0218 8.39394 -2.45847
H -11.337 7.81213 -3.23191
O -1.23592 11.1958 7.67734
H -0.929688 11.8049 6.94586
H -0.743383 10.3276 7.61622
O -5.75888 -10.0926 -11.06
H -6.58667 -10.5855 -11.3278
H -5.51682 -9.43519 -11.7736
O 14.3382 12.0672 -6.02223
H -14.7905 11.29 -6.00545
H 14.829 12.8988 -5.76231
O 0.530842 -1.71183 -12.6399
H -0.321926 -1.47779 -12.173
H 1.28622 -1.20027 -12.2304
O 12.531 0.845063 -3.23034
H 11.9101 1.36623 -2.64484
H 12.6318 1.31238 -4.10862
O 10.5963 -8.24059 6.02987
H 10.9146 -8.64374 6.88783
H 11.3781 -8.07659 5.4284
O 7.63183 -5.09677 4.07523
H 8.08144 -4.57952 3.34706
H 7.06993 -5.81938 3.67269
O -4.63661 1.2406 13.6041
H -4.66002 1.28493 12.6054
H -5.44978 1.68763 13.9768
O 2.26569 9.93222 13.1968
H 1.56847 10.6483 13.1647
H 1.91684 9.1072 12.7523
O 5.43016 -10.3254 7.65884
H 5.39687 -9.3681 7.37193
H 5.94697 -10.8568 6.98762
O 2.18113 -12.5416 10.766
H 2.70511 -13.3738 10.5848
H 2.63422 -11.7618 10.3342
O -4.75272 -6.01687 -7.16901
H -3.81338 -5.91832 -7.49741
H -5.25683 -6.6278 -7.77939
O -12.7653 -12.2153 -9.92802
H -13.6963 -11.9457 -10.1739
H -12.4501 -12.9313 -10.5509
O 2.12024 0.448629 -11.1582
H 1.32856 0.7153 -10.6086
H 2.14793 0.999726 -11.9921
O -1.62727 13.3592 -2.79163
H -1.80258 14.3379 -2.68539
H -0.640815 13.1953 -2.79159
O 7.80095 0.492901 9.15059
H 8.48109 1.22329 9.21288
H 7.76562 0.149517 8.21209
O -1.678 0.536634 -13.043
H -1.93377 0.117949 -13.9143
H -1.57833 -0.175132 -12.3477
O 11.3697 10.7033 4.50471
H 10.7665 10.8683 5.28506
H 11.0627 11.249 3.725
O 9.84358 -9.03191 -14.4508
H 10.2738 -8.70353 14.466
H 9.21281 -8.33692 -14.1057
O -12.3374 5.47558 -6.12851
H -11.9185 5.84803 -6.95662
H -13.0438 6.10311 -5.80109
O 5.48153 7.77705 8.34625
H 5.04889 8.23857 7.57181
H 4.82655 7.70265 9.09818
O -4.28173 -0.457558 -14.1282
H -4.3899 -0.0886542 14.7064
H -3.72859 -1.28981 -14.1645
O -3.5024 9.64304 9.28178
H -3.11728 9.85028 10.181
H -3.01194 10.1618 8.58156
O 3.099 0.865674 14.8664
H 4.01444 0.476886 14.7628
H 2.42327 0.128664 14.8784
O -5.09055 5.03573 -0.498085
H -4.30118 5.17774 0.0991136
H -5.72754 5.79975 -0.3959
O -10.6978 -8.13168 -7.75351
H -11.0478 -8.93501 -8.23522
H -10.8632 -7.31405 -8.30491
O -8.54986 -1.27644 -0.312656
H -7.63904 -0.912663 -0.117684
H -9.15302 -0.530764 -0.595656
O -10.0007 10.5101 -8.44261
H -10.9779 10.6623 -8.29479
H -9.76943 10.7264 -9.39112
O 9.16458 -2.75147 12.5802
H 8.18329 -2.92824 12.5043
H 9.53074 -2.51251 11.6809
O -0.190728 6.546 10.2811
H -0.987945 6.61166 9.68109
H 0.153633 5.60721 10.2763
O 5.42353 4.59772 8.38144
H 4.62431 4.10363 8.72358
H 5.23183 5.57913 8.37677
O -5.23014 1.83785 10.9266
H -6.11594 1.4278 10.7095
H -4.6367 1.79425 10.123
O -0.789186 -2.5002 7.80495
H -0.834189 -1.94089 8.63265
H 0.0903674 -2.35493 7.35194
O 11.3198 2.48839 4.73578
H 12.0211 3.20064 4.70631
H 11.6207 1.7491 5.33813
O 14.0925 -1.02003 -5.59914
H 14.3994 -1.09678 -6.54775
H 13.6871 -1.88682 -5.30881
O 8.94972 -3.47292 -6.74331
H 8.15268 -4.07126 -6.82474
H 8.64754 -2.52165 -6.68241
O -5.03724 0.7063 -11.588
H -4.48613 1.531 -11.4611
H -4.80453 0.281193 -12.4627
O -0.262823 -8.59603 0.358854
H -0.876361 -8.92465 1.07685
H -0.0676079 -7.6263 0.505304
O 1.67155 -3.7599 -4.2579
H 1.2732 -2.9269 -3.87402
H 0.939576 -4.37902 -4.54223
O -14.3618 -3.52422 -10.3518
H -14.2297 -3.22018 -11.2953
H 14.4189 -3.53352 -10.1384
O 10.1984 -1.39491 3.14857
H 10.2315 -1.52854 4.13901
H 9.6815 -0.564313 2.94143
O 8.74072 10.8513 10.4712
H 8.35201 11.0456 11.3718
H 8.11678 11.178 9.76137
O -7.20039 -9.99985 -1.85127
H -7.57053 -9.16958 -2.26789
H -6.36294 -10.2671 -2.32791
O -9.603 -14.0855 -13.0725
H -10.3826 -14.6487 -13.3462
H -9.72688 -13.1549 -13.417
O -8.54795 6.10137 -9.54707
H -8.09258 6.7433 -10.1639
H -8.86544 5.30815 -10.0666
O -12.5846 2.83785 3.6172
H -13.5024 3.02058 3.265
H -11.9086 3.29455 3.03886
O -12.945 11.2181 9.23197
H -13.3678 11.7959 8.53389
H -13.4982 10.3957 9.36381
O -3.30414 4.1071 14.5655
H -3.87652 4.30635 13.7702
H -3.57049 3.22565 -14.8022
O -12.9803 -2.48868 2.23431
H -13.2855 -2.72587 3.15653
H -12.2459 -1.81221 2.28994
O 6.21114 -4.22176 12.9678
H 5.85462 -4.0639 12.047
H 5.46628 -4.14765 13.6308
O 0.762717 5.17088 13.5673
H 1.59013 4.63721 13.742
H 0.381853 5.48906 14.4354
O 3.94684 7.04854 10.6701
H 3.77393 6.18107 10.2037
H 3.21073 7.22871 11.3225
O -12.0186 9.29366 -4.73268
H -12.2347 10.27 -4.72951
H -11.1081 9.15509 -5.12221
O -1.58923 -7.19501 14.69
H -0.730493 -7.32812 -14.5729
H -1.73877 -7.96431 14.0689
O 11.1467 8.2665 -13.1516
H 10.8768 9.21552 -13.3141
H 10.6339 7.90263 -12.374
O 2.30347 9.2269 -8.93832
H 1.40262 9.21959 -9.37231
H 2.62861 8.28755 -8.82945
O -5.63142 -3.81429 0.554419
H -6.43613 -4.23958 0.968558
H -5.1319 -3.29824 1.25019
O 0.870986 10.4592 -3.73028
H 1.25371 10.0802 -2.88775
H 1.12448 11.4234 -3.80733
O -5.9141 13.6381 6.81144
H -5.01204 13.2109 6.75057
H -5.97657 14.1656 7.65864
O -13.7288 2.96891 6.37812
H -13.5894 3.77471 5.80263
H -13.9103 2.17363 5.79975
O -1.67177 -1.41075 -11.2793
H -2.41982 -2.03281 -11.5103
H -1.81319 -1.0469 -10.3586
O -2.37844 -9.90228 -1.98121
H -2.77911 -8.98985 -1.89825
H -1.38569 -9.84099 -1.87805
O 7.96497 -9.87176 -5.41612
H 7.53909 -8.98046 -5.26075
H 8.64565 -10.0445 -4.70425
O -11.1073 0.543473 4.68758
H -10.5946 0.141265 3.92904
H -11.6708 1.29608 4.34707
O 11.2836 -2.46054 -11.61
H 10.3795 -2.43534 -11.1836
H 11.4515 -1.5977 -12.0867
O -8.96453 -3.77076 0.803284
H -8.80816 -2.82596 0.515492
H -9.41994 -4.27222 0.0676986
O 4.88019 -2.54345 -0.503098
H 5.17668 -1.94668 -1.24868
H 4.30836 -3.27689 -0.870528
O 3.25817 14.7868 -5.86256
H 2.33986 -14.7084 -6.15882
H 3.92175 -14.7105 -6.56387
O -4.42819 5.36525 -7.58067
H -4.35548 4.48392 -8.04747
H -5.38572 5.54516 -7.35549
O -9.72872 0.339812 -11.2673
H -10.7176 0.389071 -11.4073
H -9.53416 0.258615 -10.2898
O -8.97277 9.59652 8.83034
H -8.10101 9.11882 8.72182
H -9.61041 9.01565 9.33625
O -14.5966 9.44296 -14.2097
H -14.692 10.1675 14.8655
H -14.0247 8.71049 -14.5789
O -10.9903 -8.22609 8.90896
H -11.8769 -8.16455 9.3673
H -10.9339 -7.52626 8.19694
O -7.15362 0.96889 7.29369
H -7.87267 0.603173 7.88459
H -7.24219 1.96333 7.23736
O 9.30164 -14.7652 9.26185
H 8.39477 -14.4218 9.50596
H 9.2939 14.6756 8.31342
O 13.7784 12.6182 -1.72164
H 13.1639 13.3442 -2.03028
H 13.9561 11.9882 -2.47754
O -9.18904 -11.7919 7.34232
H -8.39512 -11.3571 7.76724
H -9.16091 -11.6437 6.35379
O -12.0913 -12.5143 -14.7283
H -12.1323 -13.2961 14.4073
H -12.4693 -12.775 -13.84
O 0.876311 -5.32999 10.4984
H 0.716682 -6.30701 10.3574
H 0.871968 -4.86067 9.61547
O 9.46546 -3.21489 -9.34082
H 8.51273 -3.09359 -9.61923
H 9.49891 -3.50403 -8.38415
O 3.09793 13.1614 -2.0967
H 2.91576 12.552 -1.3251
H 3.40491 12.623 -2.88142
O -10.4586 9.57327 -13.6205
H -10.789 8.73672 -14.0575
H -10.1124 10.1997 -14.3188
O -10.0088 -11.202 4.75614
H -10.9941 -11.2571 4.59442
H -9.64287 -10.3857 4.30929
O -5.02589 4.68801 3.52305
H -5.9008 5.15639 3.64583
H -5.18689 3.7096 3.39371
O -3.31791 -4.77251 8.92452
H -4.21134 -5.21656 8.85719
H -3.11774 -4.29497 8.06905
O 4.98704 3.98218 11.4871
H 5.77078 3.52776 11.9104
H 4.47351 4.48058 12.1855
O 3.1187 -12.9295 4.43398
H 3.61573 -12.142 4.06969
H 2.9595 -12.7995 5.4126
O -13.6001 -0.305366 12.621
H -12.8799 -0.998456 12.5928
H -13.3524 0.406194 13.2784
O -11.3545 7.20124 -14.2474
H -11.4098 6.22901 -14.0201
H -12.0922 7.43819 14.8781
O -10.7921 0.336314 -0.775644
H -11.0588 -0.266837 -1.52734
H -11.1634 1.2511 -0.934574
O 12.6726 -8.65513 -1.2551
H 12.0672 -8.98119 -0.529063
H 12.6592 -9.3033 -2.01643
O 9.58011 -5.37278 -4.81724
H 9.89301 -4.89126 -5.63588
H 9.95432 -4.92632 -4.00448
O -8.55758 -8.06334 -3.18624
H -9.49528 -8.38478 -3.31785
H -8.527 -7.07007 -3.29768
O 14.6301 -14.4222 5.60717
H 14.4798 -13.866 4.78987
H 14.6192 14.3671 5.35796
O -13.7395 14.7261 -5.9528
H -13.4182 -14.1088 -6.16553
H -13.0095 14.0681 -6.13759
O -13.1777 7.63534 -8.66162
H -13.0066 7.24274 -9.56521
H -12.3114 7.92375 -8.25394
O 0.328586 0.972137 -9.35613
H 0.653127 1.63657 -8.68298
H -0.492548 0.519495 -9.00858
O -14.1351 9.04688 6.38393
H -13.926 9.50816 5.5217
H -14.5399 8.1525 6.19382
O 14.6696 -7.26467 -9.39536
H 14.7527 -7.34214 -10.3889
H -14.3986 -6.62696 -9.05196
O 4.02513 -4.9096 2.50844
H 4.17416 -5.57181 3.24274
H 3.4261 -4.17866 2.8353
O 4.04409 4.76176 5.34683
H 3.85989 4.72838 6.32912
H 3.43658 4.12506 4.87198
O 3.20518 -3.22404 -11.0875
H 3.75164 -2.41751 -11.3129
H 3.17706 -3.83856 -11.8758
O 8.91791 5.87373 5.70029
H 8.04904 5.39215 5.58594
H 8.77401 6.69402 6.25377
O 6.20439 -8.46423 -10.9373
H 5.65107 -8.90688 -11.6428
H 7.08421 -8.93325 -10.8606
O -11.4347 -11.3464 2.10493
H -10.6946 -10.7123 2.32845
H -12.0039 -11.4928 2.91397
O 7.87921 4.60749 10.4388
H 8.07041 4.90611 11.3738
H 6.9496 4.87613 10.1866
O 8.03105 -1.13825 -2.29239
H 8.96348 -1.3442 -2.58917
H 7.86732 -1.55182 -1.39679
O -7.21392 5.43483 -7.10433
H -7.89989 5.15734 -6.43174
H -7.67118 5.76074 -7.93175
O -12.7535 -14.0486 12.599
H -13.6114 -14.5597 12.5463
H -12.8776 -13.1459 12.187
O -9.75802 -8.50041 -14.0215
H -9.67036 -8.80019 -13.0715
H -9.46359 -9.23592 -14.6316
O 7.32548 11.0587 12.8002
H 7.79994 11.1263 13.6779
H 6.47919 10.5392 12.9179
O -10.109 3.97645 11.9205
H -10.1064 3.11085 11.4199
H -10.3521 3.80823 12.8758
O 6.75768 -14.6439 14.4877
H 7.75125 -14.6271 14.5994
H 6.4165 -13.7082 14.3983
O 3.70853 -12.7954 1.00611
H 4.66612 -12.7343 1.28758
H 3.29419 -11.8858 1.03398
O 13.7871 -14.2329 13.1372
H 14.1248 -13.2923 13.17
H 13.1559 -14.3339 12.3682
O 13.366 6.03136 7.39501
H 14.0051 5.91135 8.15468
H 13.0887 6.99058 7.34111
O -5.70478 0.8978 0.0546841
H -5.57505 -0.0432489 -0.257615
H -5.56662 1.5253 -0.711536
O -7.96933 14.3588 -4.50183
H -8.08505 -14.5932 -5.08279
H -8.76798 14.2582 -3.90856
O 8.03519 -6.42309 -13.9832
H 8.08655 -6.09438 -13.0402
H 8.67598 -5.90694 -14.5514
O -10.5336 -5.0388 -1.28319
H -11.5148 -4.84725 -1.26159
H -10.1637 -4.78311 -2.17634
O 0.62947 -8.26111 -13.5366
H 0.427694 -9.18136 -13.8718
H 0.0779164 -8.07409 -12.7238
O 0.691729 2.70432 -7.21659
H 1.30842 3.00295 -6.48828
H -0.252602 2.74131 -6.88979
O 1.08301 -11.2352 -8.65792
H 1.29145 -12.1577 -8.33296
H 0.418739 -11.2867 -9.4036
O 14.7436 -0.389389 -14.1461
H -14.7813 -1.15096 -14.7509
H -14.8786 0.47465 -14.6309
O 14.8015 -3.91861 7.39734
H 13.8836 -4.1365 7.06579
H 14.7925 -3.02082 7.83759
O 8.148 12.1061 -14.4854
H 9.00335 11.5888 -14.5107
H 8.33331 13.0668 -14.6921
O -4.52318 -6.34412 0.0709379
H -5.40195 -6.35324 0.548029
H -4.35098 -5.42879 -0.29299
O -10.9543 11.0263 7.56548
H -10.2261 10.4838 7.98419
H -11.6205 11.2859 8.26456
O -8.98868 1.66155 -4.27861
H -9.565 2.4584 -4.45975
H -8.456 1.81763 -3.44685
O -14.8767 -7.54946 -12.2258
H -13.892 -7.39919 -12.3137
H 14.4848 -7.70139 -13.1313
O -14.6675 -8.70984 -5.66916
H 14.1109 -8.75455 -5.86675
H -14.2431 -9.58859 -5.88723
O -5.29507 -11.9259 -6.07317
H -5.73917 -11.0336 -6.15319
H -4.41977 -11.9071 -6.55633
O 10.8456 10.9623 8.74174
H 10.0803 10.8509 9.37559
H 10.5089 10.9163 7.80129
O 12.7199 1.68706 -5.80998
H 13.2917 2.41221 -6.19358
H 13.2028 0.813638 -5.87249
O 0.724037 -5.05807 7.75035
H 0.190412 -4.23834 7.54247
H 1.4919 -5.12631 7.11343
O -4.73563 -11.7387 -9.11437
H -5.53447 -12.324 -9.25327
H -4.71639 -11.0285 -9.81802
O -4.56239 5.42151 6.30165
H -5.21947 6.17179 6.22919
H -4.52952 4.92245 5.43574
O -4.78988 -8.75294 -13.0444
H -4.27722 -7.92734 -12.8089
H -5.05641 -8.71633 -14.0075
O -0.529031 5.38627 -5.6019
H -0.624069 5.56941 -6.58034
H -1.24555 4.75264 -5.31027
O -6.28905 10.196 6.67342
H -5.33978 10.243 6.36258
H -6.336 9.67068 7.52296
O -14.1628 4.9155 12.6486
H 14.6215 4.84199 12.8658
H -14.0181 4.68799 11.6857
O -10.4637 11.4881 -11.5483
H -10.7607 10.7848 -12.1942
H -11.2647 11.9132 -11.1269
O -10.8034 -6.63342 11.7304
H -11.6351 -7.01713 12.1318
H -11.0296 -5.79726 11.2308
O -9.14316 -7.17887 -0.245553
H -9.32067 -6.25108 -0.573631
H -9.05981 -7.7982 -1.0262
O -9.9743 2.26559 6.69571
H -10.1787 1.75713 5.85927
H -9.0666 2.67849 6.62138
O -4.1846 -14.7311 -5.17806
H -4.75779 -13.9939 -5.5357
H -4.26648 14.224 -5.76906
O -14.1956 -9.76227 7.36023
H 14.7767 -10.2683 7.00364
H -13.4006 -10.3674 7.40275
O -9.84877 -14.6019 7.87623
H -9.2357 -13.8295 7.71054
H -10.7008 -14.4655 7.37091
O 4.53155 -0.714132 -11.164
H 5.12994 -0.211986 -11.7883
H 3.66995 -0.218034 -11.057
O 0.29143 3.85833 11.3858
H -0.104064 3.04666 11.8156
H 0.594037 4.49638 12.0938
O 1.48003 11.8175 -8.8707
H 1.74571 10.8546 -8.82564
H 0.839569 12.0216 -8.13035
O -3.23203 5.84294 1.69255
H -3.47249 6.70431 1.24516
H -3.93083 5.61267 2.36973
O -9.76186 10.6583 3.37618
H -8.81921 10.7546 3.69568
H -10.3452 10.378 4.13847
O -14.7457 6.79248 1.6387