LAMMPS data file via write_data, version 15 May 2015, timestep = 2000000

2611 atoms
6 atom types
1749 bonds
4 bond types
894 angles
3 angle types
44 dihedrals
3 dihedral types
10 impropers
1 improper types

-1.5125372094719472e+01 1.5125372094719472e+01 xlo xhi
-1.5125372094719472e+01 1.5125372094719472e+01 ylo yhi
-1.5125372094719472e+01 1.5125372094719472e+01 zlo zhi

Masses

1 15.9994
2 1.00794
3 12.0107
4 1.00794
5 12.0107
6 12.0107

Bond Coeffs # harmonic

1 1000 1
2 469 1.4
3 367 1.08
4 469 0.7

Angle Coeffs # harmonic

1 100 109.47
2 35 120
3 63 120

Dihedral Coeffs # opls

1 0 7.25 0 0
2 0 7.25 0 0
3 0 7.25 0 0

Improper Coeffs # cvff

1 2.5 -1 2

Atoms # full

868 290 1 -8.1999999999999995e-01 -1.4652101591059559e+01 -1.0264005413962337e+01 -1.0369581352611565e+01 0 1 1
887 296 2 4.0999999999999998e-01 -1.4046714473510143e+01 -1.1401754504986197e+01 -1.1752392681533774e+01 0 -1 0
886 296 1 -8.1999999999999995e-01 -1.3641692690931366e+01 -1.1620719513824639e+01 -1.2640124487978438e+01 0 -1 0
888 296 2 4.0999999999999998e-01 -1.3488207867678835e+01 -1.0776545715195407e+01 -1.3153806379641791e+01 0 -1 0
1799 600 2 4.0999999999999998e-01 -1.2813715417699505e+01 -8.7193012161172039e+00 -1.2574876074023491e+01 0 1 0
1798 600 1 -8.1999999999999995e-01 -1.3780194145691089e+01 -8.6999525414318573e+00 -1.2831002114694119e+01 0 1 0
870 290 2 4.0999999999999998e-01 -1.4778320009851402e+01 -9.7656581661018258e+00 -1.1227354641552022e+01 0 1 1
1800 600 2 4.0999999999999998e-01 -1.3972701859803236e+01 -7.8626394975502887e+00 -1.3342767413028573e+01 0 1 0
196 66 1 -8.1999999999999995e-01 -1.1437114002561817e+01 -9.8935914959259428e+00 -1.1553488562125711e+01 0 0 -1
825 275 2 4.0999999999999998e-01 -9.7614379441331494e+00 -9.1512707856986193e+00 -1.4236483236622421e+01 1 1 -1
197 66 2 4.0999999999999998e-01 -1.0829139802779913e+01 -9.2098261042681564e+00 -1.1957082840731371e+01 0 0 -1
1610 537 2 4.0999999999999998e-01 -8.8670082501683112e+00 -1.3928308287484857e+01 -1.0656810052851666e+01 0 0 1
198 66 2 4.0999999999999998e-01 -1.1444434942529359e+01 -9.7876453529230716e+00 -1.0559115464984540e+01 0 0 -1
823 275 1 -8.1999999999999995e-01 -9.6818195247339922e+00 -8.5766096192212196e+00 -1.3421939469406414e+01 1 1 -1
2204 735 2 4.0999999999999998e-01 -9.2682758256095283e+00 -1.2031681286304295e+01 -8.9653094665073603e+00 3 1 0
561 187 2 4.0999999999999998e-01 -1.1863084637542366e+01 -5.9841960938469860e+00 -1.1871755846806732e+01 0 0 1
869 290 2 4.0999999999999998e-01 -1.3985334338371986e+01 -9.7834452993929553e+00 -9.7998976783565990e+00 0 1 1
2205 735 2 4.0999999999999998e-01 -9.3371954802150441e+00 -1.3602822497093101e+01 -8.5253760420670304e+00 3 1 0
2203 735 1 -8.1999999999999995e-01 -9.6015125040825318e+00 -1.2938272186435370e+01 -9.2243506494470502e+00 3 1 0
1592 531 2 4.0999999999999998e-01 -1.4914711641023828e+01 -6.5055407996139980e+00 -8.6727291274797658e+00 0 1 0
998 333 2 4.0999999999999998e-01 -1.2632123280852356e+01 -1.4327296471035243e+01 -1.1924729849524915e+01 2 2 1
258 86 2 4.0999999999999998e-01 -1.0142127863511785e+01 -1.2858250331913826e+01 -1.3410461755533914e+01 -1 0 -1
2191 731 1 -8.1999999999999995e-01 -8.2146770062620220e+00 -5.9952153342210437e+00 -1.0206681662141143e+01 2 -1 -1
2068 690 1 -8.1999999999999995e-01 -1.3092576463464127e+01 -1.4050472948003423e+01 -1.4419082978160311e+01 2 3 0
2291 764 2 4.0999999999999998e-01 -1.0215180538598528e+01 -7.3659436223208044e+00 -1.1888393427861738e+01 2 1 1
256 86 1 -8.1999999999999995e-01 -9.9650722551427577e+00 -1.2230841653052815e+01 -1.2652130872916752e+01 -1 0 -1
1319 440 2 4.0999999999999998e-01 -8.1540181173923010e+00 -1.1042439079937342e+01 -1.3815063667104297e+01 1 0 0
2069 690 2 4.0999999999999998e-01 -1.3352623428525419e+01 -1.3188401411441669e+01 -1.3984037782174127e+01 2 3 0
2070 690 2 4.0999999999999998e-01 -1.3750557523525398e+01 -1.4761224625633854e+01 -1.4170187280530753e+01 2 3 0
257 86 2 4.0999999999999998e-01 -1.0578004610882473e+01 -1.1443655488527462e+01 -1.2720745203799453e+01 -1 0 -1
1609 537 1 -8.1999999999999995e-01 -8.4814404533912295e+00 -1.4757133832345749e+01 -1.1062324273302089e+01 0 0 1
1309 437 1 -8.1999999999999995e-01 -7.8389422639380149e+00 -1.0481285598699124e+01 -8.3686339488213690e+00 1 0 1
1310 437 2 4.0999999999999998e-01 -7.6487789283486221e+00 -9.6621605379038158e+00 -7.8274056281877016e+00 1 0 1
1591 531 1 -8.1999999999999995e-01 -1.4916800915138518e+01 -7.1998256891681374e+00 -7.9529929606206808e+00 0 1 0
1893 631 2 4.0999999999999998e-01 -1.5117652059778850e+01 -1.4482189443054484e+01 -9.5594031257404275e+00 2 1 0
2290 764 1 -8.1999999999999995e-01 -1.0655964103945571e+01 -7.0074261738286090e+00 -1.1065452863772972e+01 2 1 1
1941 647 2 4.0999999999999998e-01 -1.2008330540077845e+01 -8.6839264387581512e+00 -7.7633540647781212e+00 0 1 1
660 220 2 4.0999999999999998e-01 -1.1161489043876841e+01 -1.4436701980485815e+01 -1.4725273978300635e+01 2 2 1
2192 731 2 4.0999999999999998e-01 -8.5281131734356723e+00 -5.7950834695046396e+00 -1.1134992533723995e+01 2 -1 -1
866 289 2 4.0999999999999998e-01 -1.1035174432010573e+01 -5.1646971721552823e+00 -8.5547440553960321e+00 0 2 0
824 275 2 4.0999999999999998e-01 -8.7250318158501514e+00 -8.3180673594409154e+00 -1.3288638080627273e+01 1 1 -1
2292 764 2 4.0999999999999998e-01 -9.9625864309921859e+00 -6.6202359768546373e+00 -1.0457696967450136e+01 2 1 1
658 220 1 -8.1999999999999995e-01 -1.0212616003247797e+01 -1.4399690050895284e+01 -1.4411703989242927e+01 2 2 1
1131 377 2 4.0999999999999998e-01 -1.0757534416283807e+01 -1.4920415270052340e+01 -8.3149629563992207e+00 2 1 0
1940 647 2 4.0999999999999998e-01 -1.3545134558405119e+01 -8.3283808557527248e+00 -8.1859611415646683e+00 0 1 1
997 333 1 -8.1999999999999995e-01 -1.1994713544671850e+01 -1.4448177964698365e+01 -1.1163709131810162e+01 2 2 1
1939 647 1 -8.1999999999999995e-01 -1.2828431281581715e+01 -9.0248143707535000e+00 -8.2230129311387437e+00 0 1 1
999 333 2 4.0999999999999998e-01 -1.1367591574705481e+01 -1.3670069146926586e+01 -1.1127366862601303e+01 2 2 1
559 187 1 -8.1999999999999995e-01 -1.2528555364243626e+01 -5.2444498296676638e+00 -1.1971656973569786e+01 0 0 1
329 110 2 4.0999999999999998e-01 -1.2595561106310925e+01 -1.0950748706030183e+01 -7.5758136044707820e+00 1 2 1
809 270 2 4.0999999999999998e-01 -9.9988222524393855e-01 -8.6856588320991559e+00 -9.0726414661996611e+00 1 3 1
1046 349 2 4.0999999999999998e-01 -2.5351270791509659e+00 -1.5054232931391580e+01 -1.1613981847528985e+01 0 0 1
1387 463 1 -8.1999999999999995e-01 -2.9489455037668062e+00 -1.3260726027695521e+01 -1.4328027988811833e+01 1 1 -1
1403 468 2 4.0999999999999998e-01 -2.8835753470178673e+00 -7.6165047549358897e+00 -7.9542208367365870e+00 0 1 0
1950 650 2 4.0999999999999998e-01 -1.0065888543845531e+00 -5.2284611003786292e+00 -9.5659008792822906e+00 1 1 0
1949 650 2 4.0999999999999998e-01 -2.1582634462762940e-01 -6.6263662258886900e+00 -9.2703813482900905e+00 1 1 0
1318 440 1 -8.1999999999999995e-01 -7.2480280668035917e+00 -1.0795914562490506e+01 -1.3470878014760370e+01 1 0 0
2193 731 2 4.0999999999999998e-01 -7.2224832900646323e+00 -5.8802338747473417e+00 -1.0157825218103662e+01 2 -1 -1
1311 437 2 4.0999999999999998e-01 -7.3841522203158263e+00 -1.0407359706157557e+01 -9.2561907391770539e+00 1 0 1
164 55 2 4.0999999999999998e-01 -1.3543852599649675e-01 -6.8985519281965164e+00 -1.0984234835651224e+01 -1 1 0
1354 452 1 -8.1999999999999995e-01 -4.5373977365081455e+00 -1.0851946754839869e+01 -8.7941071491676670e+00 1 1 0
2240 747 2 4.0999999999999998e-01 -1.8673191950983767e+00 -1.0058141603690490e+01 -1.4790199036019999e+01 2 0 1
613 205 1 -8.1999999999999995e-01 -5.6488282393891449e+00 -6.1799717032934733e+00 -1.4662775712400320e+01 1 -1 1
1179 393 2 4.0999999999999998e-01 -6.1598827371300846e+00 -8.4029554609444830e+00 -9.4486756897676329e+00 1 0 -1
2108 703 2 4.0999999999999998e-01 -6.4264916884532539e+00 -1.4134215173113356e+01 -1.3716375612162514e+01 3 1 0
70 24 1 -8.1999999999999995e-01 -5.5006508400785936e+00 -5.5196855665963120e+00 -9.8495631491292919e+00 0 2 0
2239 747 1 -8.1999999999999995e-01 -1.3360378138212941e+00 -1.0878533920748209e+01 -1.5001747177414970e+01 2 0 1
1948 650 1 -8.1999999999999995e-01 -1.0330517089932858e+00 -6.2215329215206072e+00 -9.6806358201975016e+00 1 1 0
1028 343 2 4.0999999999999998e-01 -6.1332202089569279e+00 -1.0650333072632179e+01 -1.4920003449222099e+01 1 1 0
1389 463 2 4.0999999999999998e-01 -3.7818019675391259e+00 -1.2884696874412525e+01 -1.3921815891752598e+01 1 1 -1
106 36 1 -8.1999999999999995e-01 -1.2875721298203882e+00 -1.4386084788500453e+01 -1.2666909919475877e+01 0 1 1
1276 426 1 -8.1999999999999995e-01 -9.7111860373478187e-01 -1.2309401303105112e+01 -1.0843064942577490e+01 -2 0 -1
1320 440 2 4.0999999999999998e-01 -6.7734103434883686e+00 -1.1619976250607662e+01 -1.3161497315232095e+01 1 0 0
2109 703 2 4.0999999999999998e-01 -7.3776746164189637e+00 -1.4047656000639993e+01 -1.2391787162603338e+01 3 1 0
1047 349 2 4.0999999999999998e-01 -3.7306030627868783e+00 -1.4951636217936723e+01 -1.0506242198144546e+01 0 0 1
2241 747 2 4.0999999999999998e-01 -1.8975575342174427e+00 -1.1690120688623788e+01 -1.4840258511580084e+01 2 0 1
614 205 2 4.0999999999999998e-01 -6.2877488524211689e+00 -6.5227155416219507e+00 -1.3974035422574831e+01 1 -1 1
107 36 2 4.0999999999999998e-01 -1.8409128016115428e+00 -1.3953116315115196e+01 -1.3378533771248419e+01 0 1 1
1356 452 2 4.0999999999999998e-01 -4.3816346452815083e+00 -1.0008689911651540e+01 -9.3086086896767632e+00 1 1 0
922 308 1 -8.1999999999999995e-01 -3.4432337382684377e+00 -7.1294353930894454e+00 -1.0963847731251231e+01 1 1 0
71 24 2 4.0999999999999998e-01 -4.5521686946772917e+00 -5.8154614815876648e+00 -9.9633794880064031e+00 0 2 0
604 202 1 -8.1999999999999995e-01 -3.4573048810566984e+00 -5.4341838048308553e+00 -1.3080759804609391e+01 2 0 0
923 308 2 4.0999999999999998e-01 -2.5762042486839469e+00 -7.0288344078664835e+00 -1.0475795088211441e+01 1 1 0
2314 772 1 -8.1999999999999995e-01 -5.1907170927959498e+00 -1.3637674074139140e+01 -1.0152475574674282e+01 2 0 1
2315 772 2 4.0999999999999998e-01 -5.6240694525518666e+00 -1.3731001979448445e+01 -1.1048886008890591e+01 2 0 1
1988 663 2 4.0999999999999998e-01 -2.6023759661470685e+00 -7.2700270858669152e+00 -1.3677096464276524e+01 3 1 0
1278 426 2 4.0999999999999998e-01 -1.3357954932566276e+00 -1.1482967080324835e+01 -1.1272102487737829e+01 -2 0 -1
1989 663 2 4.0999999999999998e-01 -3.2312008950012032e+00 -8.3785697015206324e+00 -1.4698119687818021e+01 3 1 0
2148 716 2 4.0999999999999998e-01 -6.9839804904542024e+00 -8.8994250148587781e+00 -1.3217675465734651e+01 1 3 1
2493 831 2 4.0999999999999998e-01 -2.3374833149324346e+00 -9.3561415032305018e+00 -1.0988253346810144e+01 3 2 0
1987 663 1 -8.1999999999999995e-01 -2.5042054855860023e+00 -8.1984562168961936e+00 -1.4035478853019113e+01 3 1 0
605 202 2 4.0999999999999998e-01 -4.1655875614243119e+00 -5.8174557021062494e+00 -1.3673629422997427e+01 2 0 0
2387 796 2 4.0999999999999998e-01 -3.6997605710111383e+00 -1.4314312655736703e+01 -7.8598992305048574e+00 2 2 0
808 270 1 -8.1999999999999995e-01 -1.8857545843195780e+00 -9.1292623251478080e+00 -9.2086642425843248e+00 1 3 1
2316 772 2 4.0999999999999998e-01 -5.7300023468659518e+00 -1.3015722265856560e+01 -9.5846698220859263e+00 2 0 1
842 281 2 4.0999999999999998e-01 -1.7628644433319103e+00 -1.2654204632171325e+01 -7.9459083162415176e+00 1 1 -2
2147 716 2 4.0999999999999998e-01 -6.9305388296297696e+00 -7.9979688978445767e+00 -1.1857051766152468e+01 1 3 1
2146 716 1 -8.1999999999999995e-01 -7.1835382917622139e+00 -8.0018299776108979e+00 -1.2824539468781186e+01 1 3 1
1277 426 2 4.0999999999999998e-01 -7.2366086026688592e-01 -1.2971027073326493e+01 -1.1550929381657351e+01 -2 0 -1
2107 703 1 -8.1999999999999995e-01 -6.4420521636395964e+00 -1.3955365402100236e+01 -1.2732593762473543e+01 3 1 0
843 281 2 4.0999999999999998e-01 -1.5087170300915886e+00 -1.1836267842035273e+01 -9.3362911789157366e+00 1 1 -2
1178 393 2 4.0999999999999998e-01 -5.0281474168126259e+00 -8.0087043322041858e+00 -1.0557962490628670e+01 1 0 -1
924 308 2 4.0999999999999998e-01 -3.4655440645800759e+00 -6.4963974819557517e+00 -1.1737683211934321e+01 1 1 0
2492 831 2 4.0999999999999998e-01 -2.4793051685633500e+00 -9.3088664476785006e+00 -1.2614422955294859e+01 3 2 0
810 270 2 4.0999999999999998e-01 -1.9097435323551348e+00 -9.9891495968623332e+00 -8.6986892382020358e+00 1 3 1
1355 452 2 4.0999999999999998e-01 -3.8936406329664859e+00 -1.1553154789630312e+01 -9.1006037060430174e+00 1 1 0
841 281 1 -8.1999999999999995e-01 -1.7870073847966790e+00 -1.1753317060822246e+01 -8.3793534862787808e+00 1 1 -2
1177 393 1 -8.1999999999999995e-01 -5.8523608569643866e+00 -8.5492215735615851e+00 -1.0388937671372046e+01 1 0 -1
2491 831 1 -8.1999999999999995e-01 -2.3108562998595410e+00 -9.9010298764676854e+00 -1.1826372519523428e+01 3 2 0
2386 796 1 -8.1999999999999995e-01 -4.3537221661061825e+00 -1.5050532372911027e+01 -7.6856269615748314e+00 2 2 0
1388 463 2 4.0999999999999998e-01 -3.1898426827700774e+00 -1.3837322254288479e+01 -1.5108772136457057e+01 1 1 -1
2327 776 2 4.0999999999999998e-01 -1.0349493245321799e+01 -9.9016409566268031e+00 -5.3050722773983274e+00 1 0 -1
1285 429 1 -8.1999999999999995e-01 -1.2783450038594092e+01 -1.5104467406545799e+01 -4.0276095028250651e+00 1 1 0
1211 404 2 4.0999999999999998e-01 -1.0104380346721946e+01 -6.7778590334957070e+00 -6.9345552889559041e+00 1 1 0
248 83 2 4.0999999999999998e-01 -1.1995415328479911e+01 -8.3172648470688788e+00 -3.8739482742438156e+00 2 1 0
2586 862 2 4.0999999999999998e-01 -9.8170229934016540e+00 -1.1341101107565352e+01 -3.2255424957959011e+00 2 4 1
247 83 1 -8.1999999999999995e-01 -1.2861275899014979e+01 -8.3361684237167957e+00 -3.3739640771819808e+00 2 1 0
390 130 2 4.0999999999999998e-01 -9.2129475094417383e+00 -9.8054536027672867e+00 -7.3628367513808612e-01 1 1 0
2328 776 2 4.0999999999999998e-01 -1.0659007532496616e+01 -8.3384787547617378e+00 -5.6621449313045709e+00 1 0 -1
330 110 2 4.0999999999999998e-01 -1.1323963531896814e+01 -1.1593590480657499e+01 -6.7779602176797891e+00 1 2 1
2584 862 1 -8.1999999999999995e-01 -1.0438451093787766e+01 -1.2088555181178487e+01 -3.4604799701616340e+00 2 4 1
2326 776 1 -8.1999999999999995e-01 -1.0501836614193635e+01 -8.9910290941854889e+00 -4.9208410502233662e+00 1 0 -1
1070 357 2 4.0999999999999998e-01 -7.9552663205469596e+00 -6.0189193073371268e+00 -6.1620487215400885e+00 2 0 2
2585 862 2 4.0999999999999998e-01 -1.1162682355090764e+01 -1.1744536431279604e+01 -4.0581389410385018e+00 2 4 1
249 83 2 4.0999999999999998e-01 -1.3064990883004787e+01 -7.4212301706647370e+00 -3.0254755276939793e+00 2 1 0
2469 823 2 4.0999999999999998e-01 -9.2674690233132075e+00 -1.1602850558992488e+01 -5.6601677437107547e+00 2 2 -1
958 320 1 -8.1999999999999995e-01 -9.0435243150126041e+00 -9.7438157222648041e+00 -2.6240618190570810e+00 2 -1 0
2496 832 2 4.0999999999999998e-01 -8.8317659766962073e+00 -5.3922883835917439e+00 -3.4093471159477566e+00 1 0 -1
1438 480 1 -8.1999999999999995e-01 -1.3359057978998855e+01 -9.7439433508227928e+00 -8.8715272171449477e-01 1 2 0
557 186 2 4.0999999999999998e-01 -1.1721653597804606e+01 -1.2911550110086715e+01 -2.4304654647276394e+00 2 1 -1
282 94 2 4.0999999999999998e-01 -1.3162869708862686e+01 -1.1276912916170780e+01 -5.3410562694300516e+00 2 0 0
556 186 1 -8.1999999999999995e-01 -1.2362004183034822e+01 -1.3511466170659807e+01 -1.9507698105265696e+00 2 1 -1
2468 823 2 4.0999999999999998e-01 -9.3935961471241072e+00 -1.0963010852830106e+01 -7.1573227550362581e+00 2 2 -1
558 186 2 4.0999999999999998e-01 -1.3270019970245809e+01 -1.3092516997753631e+01 -1.9440617804035156e+00 2 1 -1
590 197 2 4.0999999999999998e-01 -1.3648400016707944e+01 -5.6816916934950754e+00 -1.1703440348400669e+00 0 1 -1
328 110 1 -8.1999999999999995e-01 -1.2310416762803637e+01 -1.1658099470468919e+01 -6.9289722988734344e+00 1 2 1
1440 480 2 4.0999999999999998e-01 -1.3355774741630679e+01 -9.5310937360862482e+00 -1.8642608582771896e+00 1 2 0
2302 768 1 -8.1999999999999995e-01 -1.4990444184633880e+01 -1.2276578752396459e+01 -2.4421407433462168e+00 3 2 0
1385 462 2 4.0999999999999998e-01 -1.3244012722164129e+01 -1.3254081714683883e+01 -6.9002998159502393e+00 1 2 0
2303 768 2 4.0999999999999998e-01 -1.4619290693753211e+01 -1.1445902544452435e+01 -2.8572048327091917e+00 3 2 0
2467 823 1 -8.1999999999999995e-01 -9.8663581376281435e+00 -1.1105199302233883e+01 -6.2876477384126606e+00 2 2 -1
457 153 1 -8.1999999999999995e-01 -1.0644995697175247e+01 -5.6525620118385849e+00 -3.8967602677214934e+00 0 0 2
281 94 2 4.0999999999999998e-01 -1.3361370894863086e+01 -1.0083033970680308e+01 -4.2446866318809651e+00 2 0 0
1287 429 2 4.0999999999999998e-01 -1.2757921174406745e+01 -1.4484023588521193e+01 -3.2437384875985149e+00 1 1 0
1862 621 2 4.0999999999999998e-01 -8.8889400251726443e+00 -1.4612880361756270e+01 -6.4464027655718343e+00 1 1 2
280 94 1 -8.1999999999999995e-01 -1.3285868753168263e+01 -1.1072309898256997e+01 -4.3699409719679352e+00 2 0 0
2494 832 1 -8.1999999999999995e-01 -7.9853944067326843e+00 -5.3888690089805635e+00 -2.8767125689670578e+00 1 0 -1
589 197 1 -8.1999999999999995e-01 -1.3336813093516389e+01 -6.6226116875308829e+00 -1.3031568152030708e+00 0 1 -1
1384 462 1 -8.1999999999999995e-01 -1.3570957729994397e+01 -1.4122932577131566e+01 -6.5284648815527326e+00 1 2 0
1286 429 2 4.0999999999999998e-01 -1.2919768939441004e+01 -1.4576785250480560e+01 -4.8660752348904950e+00 1 1 0
960 320 2 4.0999999999999998e-01 -9.6378355669443287e+00 -8.9498573906540244e+00 -2.7524376390437322e+00 2 -1 0
959 320 2 4.0999999999999998e-01 -8.2610164792851055e+00 -9.6780303084356021e+00 -3.2432627243239871e+00 2 -1 0
458 153 2 4.0999999999999998e-01 -1.1557065697221761e+01 -5.5055660878397710e+00 -4.2796135078308222e+00 0 0 2
1071 357 2 4.0999999999999998e-01 -8.1452232197166872e+00 -7.4539623515342681e+00 -5.4061757987077144e+00 2 0 2
1069 357 1 -8.1999999999999995e-01 -8.6236982765740429e+00 -6.6777583584470133e+00 -5.8168156133186812e+00 2 0 2
122 41 2 4.0999999999999998e-01 -9.1720551911483472e+00 -1.3281040855795951e+01 -4.1949415005889126e+00 0 0 0
121 41 1 -8.1999999999999995e-01 -8.3860158902155852e+00 -1.3362036998461914e+01 -4.8078345615817639e+00 0 0 0
1210 404 1 -8.1999999999999995e-01 -1.1073350239843393e+01 -6.9464560509115181e+00 -7.1154653903046778e+00 1 1 0
1212 404 2 4.0999999999999998e-01 -1.1598862600511207e+01 -6.1199393398306299e+00 -6.9135669843354410e+00 1 1 0
54 18 2 4.0999999999999998e-01 -8.3064689038843387e+00 -7.8713509452329964e+00 -1.1756230324244665e+00 0 -1 1
1012 338 1 -8.1999999999999995e-01 -1.2832197618022056e+01 -5.2937063558619215e+00 -5.4365603301346628e+00 1 0 0
53 18 2 4.0999999999999998e-01 -8.6622434243666682e+00 -6.2940814039092494e+00 -1.4045800206975532e+00 0 -1 1
52 18 1 -8.1999999999999995e-01 -8.6255490514625777e+00 -7.0336100515331612e+00 -7.3241412930772221e-01 0 -1 1
1013 338 2 4.0999999999999998e-01 -1.3814351715440775e+01 -5.4806398185347014e+00 -5.4145311086583803e+00 1 0 0
1763 588 2 4.0999999999999998e-01 -1.2002013923597691e+01 -1.4792339295512724e+01 -1.1213854255609590e+00 2 1 -1
123 41 2 4.0999999999999998e-01 -7.7542625672918248e+00 -1.2604879086335874e+01 -4.6415344942966854e+00 0 0 0
459 153 2 4.0999999999999998e-01 -1.0054095872689837e+01 -6.0629393625835082e+00 -4.5913708186260980e+00 0 0 2
1861 621 1 -8.1999999999999995e-01 -8.9921414107236153e+00 -1.4754745621873942e+01 -7.4309228474566540e+00 1 1 2
1386 462 2 4.0999999999999998e-01 -1.3391275763646535e+01 -1.4855290176630286e+01 -7.1852926562208399e+00 1 2 0
591 197 2 4.0999999999999998e-01 -1.2876353200071744e+01 -6.9413388099978643e+00 -4.7463657693782224e-01 0 1 -1
1439 480 2 4.0999999999999998e-01 -1.3349354127605476e+01 -8.8937186424399233e+00 -3.6076902345292083e-01 1 2 0
260 87 2 4.0999999999999998e-01 -1.4863980163737175e+01 -7.4113484483246239e+00 -1.9374740673833291e+00 1 1 1
1593 531 2 4.0999999999999998e-01 -1.4923440717270880e+01 -6.7526645028261321e+00 -7.0585328878264981e+00 0 1 0
389 130 2 4.0999999999999998e-01 -8.1903753899351273e+00 -1.0912248690841015e+01 -1.0689752574603339e-01 1 1 0
996 332 2 4.0999999999999998e-01 -6.3817405327794212e+00 -1.4315536849365628e+01 -9.6129280525136274e-01 1 0 0
994 332 1 -8.1999999999999995e-01 -6.8158930972280114e+00 -1.4817273450108974e+01 -2.1307624447031692e-01 1 0 0
489 163 2 4.0999999999999998e-01 -6.9719613626768258e+00 -7.1328280703210201e+00 -3.0340270315913482e+00 1 0 1
487 163 1 -8.1999999999999995e-01 -6.7481335055196183e+00 -8.0954743904900841e+00 -3.1865696075148779e+00 1 0 1
822 274 2 4.0999999999999998e-01 -4.3300147043919761e+00 -5.3687128482188715e+00 -4.3907073704527573e+00 0 2 0
778 260 1 -8.1999999999999995e-01 -1.7410629353929732e+00 -9.8546847733886729e+00 -6.0085418636701817e+00 -1 2 0
743 248 2 4.0999999999999998e-01 -4.3815242082798829e+00 -6.8072534756237726e+00 -1.8350333382994855e+00 -1 1 -1
1342 448 1 -8.1999999999999995e-01 -1.7414251564074021e+00 -1.4495176479486908e+01 -7.1051865649079780e+00 1 0 1
779 260 2 4.0999999999999998e-01 -2.1899572477409777e+00 -1.0593139247732918e+01 -6.5117664279100396e+00 -1 2 0
2502 834 2 4.0999999999999998e-01 -3.9384860949429878e-01 -8.4974181527981703e+00 -5.8360964659879624e+00 1 1 0
818 273 2 4.0999999999999998e-01 -5.3705065939041070e+00 -9.4006514761185933e+00 -6.2561653030066573e+00 -1 2 0
1883 628 2 4.0999999999999998e-01 -6.0295684681616155e+00 -1.3594414387085729e+01 -3.1321838959737285e+00 0 0 -2
2528 843 2 4.0999999999999998e-01 -2.5691022127513641e-01 -1.3306781406876491e+01 -4.5946032942204820e+00 1 1 0
2333 778 2 4.0999999999999998e-01 -1.1716699801415782e+00 -9.0575970468153351e+00 -8.2192646957931714e-01 0 2 0
1402 468 1 -8.1999999999999995e-01 -3.3126235405369933e+00 -6.9776470447691672e+00 -7.3156016174496452e+00 0 1 0
2359 787 1 -8.1999999999999995e-01 -1.3952608826256796e+00 -1.2259427742238543e+01 -3.5546769938827119e+00 0 1 0
500 167 2 4.0999999999999998e-01 -6.8001112335750129e+00 -1.0739773433160863e+01 -5.5713197505467953e+00 0 1 0
773 258 2 4.0999999999999998e-01 -1.9948389324536340e+00 -6.2610100598494540e+00 -4.5670382997379377e-01 1 2 0
1568 523 2 4.0999999999999998e-01 -4.9316108325705841e+00 -7.5493396316261139e+00 -7.4217346027065023e+00 2 0 0
449 150 2 4.0999999999999998e-01 -2.7725131376570715e+00 -9.1256779031322157e+00 -3.0625047924829527e+00 -1 1 1
742 248 1 -8.1999999999999995e-01 -3.9216197079236181e+00 -6.5747527357171638e+00 -9.7801097638612156e-01 -1 1 -1
2361 787 2 4.0999999999999998e-01 -6.7064605755414775e-01 -1.1574594746184165e+01 -3.6320928515131179e+00 0 1 0
175 59 1 -8.1999999999999995e-01 -3.6489145866364829e+00 -1.2636547997851171e+01 -5.2776239977143167e+00 -1 2 2
2360 787 2 4.0999999999999998e-01 -2.0497454923525726e+00 -1.2138023401444244e+01 -4.3009791873884442e+00 0 1 0
2115 705 2 4.0999999999999998e-01 -5.2682967369714824e+00 -9.9319933658026329e+00 -1.7404496468637074e+00 1 2 -1
2332 778 1 -8.1999999999999995e-01 -1.1145278607723270e+00 -8.7487181993951246e+00 -1.7713392177729297e+00 0 2 0
176 59 2 4.0999999999999998e-01 -4.0554729800134819e+00 -1.3548278541697767e+01 -5.3369010453007935e+00 -1 2 2
1882 628 1 -8.1999999999999995e-01 -5.8531004655944656e+00 -1.3237988946474392e+01 -2.2146458656304517e+00 0 0 -2
744 248 2 4.0999999999999998e-01 -3.9734193619823497e+00 -5.5872195282035637e+00 -8.2917867923758060e-01 -1 1 -1
1884 628 2 4.0999999999999998e-01 -4.9064662880973700e+00 -1.3432783183346640e+01 -1.9577508967414197e+00 0 0 -2
2334 778 2 4.0999999999999998e-01 -4.2735017706590916e-01 -8.0260321403359569e+00 -1.8459565140158478e+00 0 2 0
2114 705 2 4.0999999999999998e-01 -5.6392815634342455e+00 -1.1458357856752011e+01 -2.1869445453266998e+00 1 2 -1
1265 422 2 4.0999999999999998e-01 -3.6086967142940019e-01 -9.5382300707400560e+00 -3.1386850726479221e+00 0 2 -1
817 273 1 -8.1999999999999995e-01 -5.2529141106438431e+00 -1.0388595889347949e+01 -6.3571300633636572e+00 -1 2 0
820 274 1 -8.1999999999999995e-01 -4.2990752805558703e+00 -6.2032804953430496e+00 -3.8406204025438679e+00 0 2 0
42 14 2 4.0999999999999998e-01 -4.6677024040514947e+00 -8.2042639241697835e+00 -3.3616208029987860e-01 0 0 -1
499 167 1 -8.1999999999999995e-01 -7.2404077113612635e+00 -1.1013809629898327e+01 -4.7162763121882811e+00 0 1 0
772 258 1 -8.1999999999999995e-01 -1.1768287961774142e+00 -5.7293205828868494e+00 -2.3710931147098968e-01 1 2 0
821 274 2 4.0999999999999998e-01 -3.6238745154098577e+00 -6.8319871089503454e+00 -4.2264804806986902e+00 0 2 0
1108 370 1 -8.1999999999999995e-01 -3.4199517499658487e+00 -1.3227925387289824e+01 -9.8459632131485719e-01 1 2 -1
450 150 2 4.0999999999999998e-01 -4.1091483810590130e+00 -9.9115578430369418e+00 -3.5749252065452541e+00 -1 1 1
2137 713 1 -8.1999999999999995e-01 -5.2666601879106310e+00 -1.4862312397028742e+01 -4.7355174727702174e+00 4 3 0
1773 591 2 4.0999999999999998e-01 -1.0621085709008806e+00 -1.1932040955280550e+01 -1.6335523451561560e+00 2 1 1
774 258 2 4.0999999999999998e-01 -4.3202988811938425e-01 -5.9955368720828481e+00 -8.4904031255606860e-01 1 2 0
1109 370 2 4.0999999999999998e-01 -3.3054019142505542e+00 -1.2559813091788632e+01 -2.4936823947101594e-01 1 2 -1
501 167 2 4.0999999999999998e-01 -6.5839825850731835e+00 -1.0941696094448425e+01 -3.9653024136211705e+00 0 1 0
2113 705 1 -8.1999999999999995e-01 -5.4366800491631597e+00 -1.0536979545912757e+01 -2.5187136110215906e+00 1 2 -1
780 260 2 4.0999999999999998e-01 -2.3425898941585555e+00 -9.5372082915094758e+00 -5.2754456302966002e+00 -1 2 0
1110 370 2 4.0999999999999998e-01 -2.5332684976482494e+00 -1.3412051468463991e+01 -1.4087973043509017e+00 1 2 -1
1771 591 1 -8.1999999999999995e-01 -6.0768206622790366e-01 -1.1978905417739611e+01 -7.4397024618985697e-01 2 1 1
448 150 1 -8.1999999999999995e-01 -3.3792519482116337e+00 -9.2822355802835652e+00 -3.8418722691505138e+00 -1 1 1
1567 523 1 -8.1999999999999995e-01 -5.8746568328738160e+00 -7.8705622120553302e+00 -7.5085471040088274e+00 2 0 0
177 59 2 4.0999999999999998e-01 -4.3010750108666578e+00 -1.1958133700652924e+01 -5.6159979118997185e+00 -1 2 2
488 163 2 4.0999999999999998e-01 -5.7722753772958111e+00 -8.1831186443624944e+00 -3.3867582123817588e+00 1 0 1
1343 448 2 4.0999999999999998e-01 -1.0512152735923657e+00 -1.4022877183435286e+01 -6.5569167853559716e+00 1 0 1
819 273 2 4.0999999999999998e-01 -5.0608168433841190e+00 -1.0605309992251438e+01 -7.3143080585422258e+00 -1 2 0
40 14 1 -8.1999999999999995e-01 -5.0966594118393598e+00 -9.0821938012672803e+00 -1.2334502129465896e-01 0 0 -1
1569 523 2 4.0999999999999998e-01 -6.4995314172893899e+00 -7.0930855319452633e+00 -7.4370079475056228e+00 2 0 0
674 225 2 4.0999999999999998e-01 -3.6113914740238240e+00 -1.4790634542275527e+01 -8.0175211231884091e-02 0 1 -1
1772 591 2 4.0999999999999998e-01 -1.1389755339529710e+00 -1.1464534231446045e+01 -7.0764788905213649e-02 2 1 1
2501 834 2 4.0999999999999998e-01 -5.9414350664521720e-03 -6.9142357553202416e+00 -5.7369123386894429e+00 1 1 0
1404 468 2 4.0999999999999998e-01 -2.9585302799710966e+00 -6.0564841196050558e+00 -7.4772582806219896e+00 0 1 0
1761 587 2 4.0999999999999998e-01 -1.3241228358882553e+01 -8.9208134554266749e+00 4.0738067964392801e+00 2 1 0
1759 587 1 -8.1999999999999995e-01 -1.2366504295052319e+01 -8.5491585349380230e+00 3.7627015063055023e+00 2 1 0
1735 579 1 -8.1999999999999995e-01 -9.0818046845941929e+00 -8.6525136456528351e+00 2.2487374732010519e+00 2 -3 -1
889 297 1 -8.1999999999999995e-01 -8.2771090259617726e+00 -1.2534167282027203e+01 6.9998768565258995e+00 0 2 0
1106 369 2 4.0999999999999998e-01 -9.4159432714211473e+00 -1.0672149716088182e+01 4.4740742928989068e+00 0 1 -1
1760 587 2 4.0999999999999998e-01 -1.1643056958227522e+01 -9.2206812224794028e+00 3.9231299496369889e+00 2 1 0
1737 579 2 4.0999999999999998e-01 -8.4537917399998541e+00 -8.9576420717421819e+00 2.9646651439254565e+00 2 -3 -1
16 6 1 -8.1999999999999995e-01 -1.3086936958152499e+01 -1.1446599363610316e+01 5.1401293361628309e+00 -1 2 -1
431 144 2 4.0999999999999998e-01 -1.0893764374713323e+01 -7.9593352494773271e+00 9.1196884380002707e-01 1 2 0
1105 369 1 -8.1999999999999995e-01 -1.0351497294194395e+01 -1.0931374351595425e+01 4.2340799399070708e+00 0 1 -1
1752 584 2 4.0999999999999998e-01 -1.3869478660498928e+01 -1.3756721984832062e+01 3.0340952872490146e+00 2 2 -1
430 144 1 -8.1999999999999995e-01 -1.1883515633109507e+01 -7.9704601030441484e+00 1.0545337641414267e+00 1 2 0
1751 584 2 4.0999999999999998e-01 -1.4995670104344432e+01 -1.4746076982750669e+01 3.6818956921049040e+00 2 2 -1
1010 337 2 4.0999999999999998e-01 -1.3464699744528220e+01 -1.3938081263181523e+01 6.6024540900397231e+00 2 1 0
17 6 2 4.0999999999999998e-01 -1.2337143525032422e+01 -1.1191731557979956e+01 5.7507915070379578e+00 -1 2 -1
432 144 2 4.0999999999999998e-01 -1.2080672005933867e+01 -8.2101347682152497e+00 2.0051869535347056e+00 1 2 0
637 213 1 -8.1999999999999995e-01 -9.5785847497804966e+00 -1.3835583033508209e+01 5.0959247866658703e+00 1 1 1
397 133 1 -8.1999999999999995e-01 -9.3678575242894535e+00 -5.8927166093477439e+00 2.0474430116245568e+00 0 3 0
639 213 2 4.0999999999999998e-01 -1.0201070940531988e+01 -1.3219191439548821e+01 4.6136090969323700e+00 1 1 1
18 6 2 4.0999999999999998e-01 -1.2715650206663828e+01 -1.1883107720959861e+01 4.3205790405637661e+00 -1 2 -1
1736 579 2 4.0999999999999998e-01 -8.7426215935812248e+00 -8.9533619950941912e+00 1.3573895098752526e+00 2 -3 -1
426 142 2 4.0999999999999998e-01 -1.0261810347191027e+01 -1.0376627279903964e+01 1.1930714517590406e+00 0 0 0
1107 369 2 4.0999999999999998e-01 -1.0450822901871316e+01 -1.0937537824505846e+01 3.2390158639648536e+00 0 1 -1
1582 528 1 -8.1999999999999995e-01 -1.2149403265034842e+01 -1.2847475223651761e+01 2.9257805775662273e+00 1 1 -1
891 297 2 4.0999999999999998e-01 -8.8070922064253470e+00 -1.3205973831994790e+01 6.4823347177835959e+00 0 2 0