2611
Atoms. Timestep: 4998000
O 11.0149 -2.80151 6.45936
H 11.9411 -2.58664 6.76909
H 11.0222 -2.96154 5.47224
O -0.729078 13.4333 -0.71046
H -1.71772 13.3288 -0.81872
H -0.503443 14.4042 -0.629677
O -11.5412 -8.80816 7.83198
H -12.458 -8.41018 7.80023
H -11.5995 -9.75486 8.14887
O -10.2415 11.1996 6.59764
H -10.4737 10.649 7.39952
H -9.45179 11.7764 6.80667
O 3.95086 -5.28402 -1.02459
H 4.86853 -4.90635 -0.900824
H 3.66289 -5.74245 -0.183766
O 12.0964 -4.71229 1.69433
H 12.5055 -5.42101 2.26913
H 12.5807 -4.67117 0.820371
O 0.692639 9.46281 7.01132
H 0.148995 9.51328 6.17349
H 0.427843 10.206 7.62577
O -6.21217 12.2172 -11.6081
H -5.63248 12.4895 -12.3762
H -6.85506 11.5128 -11.9091
O -5.80241 -11.0371 14.8082
H -5.10563 -11.0609 14.0912
H -5.66885 -10.2249 -14.8719
O 8.7366 11.9692 -5.98299
H 9.25215 11.2154 -6.39058
H 7.7675 11.7259 -5.9411
O -4.64013 -0.390092 -11.0412
H -4.17409 -1.09167 -11.5803
H -3.97936 0.0655618 -10.4447
O 11.3709 1.81193 -14.493
H 11.651 0.982895 -14.0089
H 10.3725 1.86607 -14.5113
O 9.42927 1.92993 5.98505
H 9.52984 0.939617 6.08117
H 8.93985 2.29375 6.77762
O -0.13282 -12.0346 8.66586
H 0.661248 -12.5821 8.93003
H 0.140047 -11.3618 7.97812
O -6.18078 6.38023 8.1223
H -6.94723 6.23489 8.74799
H -6.49341 6.90028 7.32739
O 14.0068 -14.691 10.914
H 13.6234 14.6404 10.7999
H 14.6467 -14.5022 10.1689
O -1.75159 4.55836 13.5598
H -2.00948 4.60974 12.595
H -1.22455 3.7237 13.72
O -1.95912 -4.48457 10.7199
H -1.40882 -4.97975 10.0476
H -1.91155 -4.95497 11.6012
O 8.6138 2.76834 11.0645
H 8.86455 3.008 12.0024
H 7.93289 2.03606 11.0782
O -10.757 -0.124809 7.6379
H -11.139 0.576032 7.03542
H -10.6487 -0.978832 7.12902
O 3.81008 7.0069 10.4583
H 3.96204 7.02717 9.47004
H 3.8792 6.06494 10.7869
O -2.78633 5.93582 -5.5895
H -1.87533 5.63365 -5.30872
H -3.38087 5.13994 -5.70421
O 10.8347 -0.427475 -11.0076
H 11.1564 0.512277 -10.8917
H 11.619 -1.0472 -11.0361
O 9.42482 -10.507 4.10378
H 9.61363 -9.94256 4.90743
H 9.31677 -9.91945 3.30177
O -4.83561 -14.5562 -12.4228
H -4.90363 -13.5585 -12.4244
H -5.51381 -14.9375 -13.0511
O -2.64928 -12.6075 -14.2729
H -3.52256 -12.9005 -13.8835
H -2.16856 -12.028 -13.6147
O 8.55322 8.64584 12.8439
H 9.27073 8.36101 13.4796
H 8.84246 8.45234 11.9064
O -12.0535 -0.170114 12.4862
H -11.6875 -0.451035 11.5989
H -12.9917 -0.503162 12.5803
O 7.23302 -12.6534 3.59746
H 7.8657 -11.879 3.59966
H 7.01899 -12.9117 4.53957
O -12.2425 -9.45368 -5.91243
H -11.5795 -8.98783 -6.49847
H -12.9946 -8.83016 -5.69893
O -0.819415 -12.2321 5.53198
H 0.149576 -12.464 5.44622
H -0.910623 -11.2681 5.78182
O -11.7658 2.7949 -12.9517
H -12.1324 2.13329 -13.6059
H -12.1702 3.69315 -13.124
O -14.4024 -7.90399 -5.2062
H -14.8252 -7.18262 -5.75474
H -15.092 -8.31873 -4.61241
O 7.85274 -5.56481 -10.2586
H 8.45007 -6.11617 -9.67615
H 7.08925 -5.21429 -9.71612
O 8.82783 -0.633623 11.6175
H 9.30142 -0.78675 12.4848
H 7.86808 -0.416292 11.7955
O 12.2793 -13.4812 -4.28838
H 12.245 -14.4685 -4.13297
H 13.0726 -13.2605 -4.85575
O -7.57112 -10.4276 -8.49099
H -7.87535 -10.0232 -9.35351
H -7.1885 -11.335 -8.66495
O 2.87877 -2.00769 -8.79713
H 2.85165 -1.01559 -8.67433
H 2.48892 -2.45404 -7.99161
O 12.5168 9.10134 9.8145
H 12.6639 8.96808 10.7946
H 13.3952 9.0665 9.33784
O -12.3912 1.46503 3.53727
H -12.005 2.24442 3.04388
H -11.6503 0.891813 3.88738
O -10.3989 5.81752 12.3709
H -10.9273 5.71901 13.2142
H -11.0233 5.90257 11.5944
O -8.08512 8.36607 11.5623
H -7.83045 8.53866 12.5138
H -8.18172 9.23672 11.0799
O -11.7863 7.89806 5.52295
H -12.4559 7.49212 4.90098
H -10.9935 8.21203 5.00044
O 5.7756 -8.45449 2.54908
H 5.1568 -7.8029 2.11023
H 5.30613 -8.89747 3.3129
O 2.08363 -9.97487 7.24826
H 3.07801 -9.93725 7.34752
H 1.84835 -10.5509 6.46536
O -3.51527 -10.3099 -0.617861
H -4.46419 -10.4512 -0.900089
H -3.08221 -9.64454 -1.226
O 10.0368 -13.6645 13.5005
H 9.64829 -13.9434 12.6222
H 10.1859 -12.6756 13.5
O 6.58961 8.7324 9.08954
H 5.65897 8.89327 9.41834
H 6.71806 9.19567 8.21265
O -5.45844 -7.14271 5.5563
H -5.45028 -7.92569 4.93426
H -6.38023 -6.75678 5.59431
O 9.42381 2.21843 -8.83116
H 8.49926 2.38025 -9.17625
H 9.37833 1.95182 -7.8684
O -11.3556 13.2684 -1.9398
H -10.6807 12.5947 -1.63852
H -11.9717 13.4847 -1.18238
O 14.0765 6.07765 -2.03861
H 13.3637 6.72753 -1.77481
H 13.9948 5.24982 -1.48356
O 8.1468 1.27496 -11.8149
H 7.70304 0.410002 -11.5803
H 8.81773 1.50708 -11.1106
O -2.11688 4.54597 -13.591
H -2.71086 4.68449 -14.3835
H -1.98922 5.41563 -13.114
O 1.3193 3.79717 -14.9404
H 1.69563 3.69636 -14.0194
H 0.324426 3.70163 -14.9063
O -9.47854 -13.2833 12.8578
H -10.0217 -12.4498 12.9596
H -9.31964 -13.6896 13.7577
O -11.5106 10.4494 -15.0243
H -11.4466 11.3599 -14.6156
H -10.8503 10.3722 14.4765
O 11.7804 8.46757 -12.3051
H 11.0817 8.94213 -12.8404
H 12.0318 7.61611 -12.7653
O 8.23222 -2.5961 -4.93693
H 8.13168 -2.72125 -3.94987
H 7.35063 -2.74847 -5.38375
O -12.1435 -6.95748 -7.94451
H -12.0749 -7.87462 -8.3372
H -11.4227 -6.83203 -7.26276
O 6.86241 2.73024 -9.53235
H 6.48708 1.92539 -9.07254
H 6.69575 2.66022 -10.5159
O 11.1747 -5.36631 13.372
H 11.6316 -5.91796 12.6741
H 11.764 -4.60083 13.6304
O 14.4881 -6.57091 -13.5068
H 14.9728 -6.1991 -12.715
H 14.0263 -7.41897 -13.2468
O 9.64685 4.92926 9.96648
H 9.15242 5.74073 10.2781
H 9.2203 4.11075 10.3514
O -12.0353 2.3994 6.20018
H -12.6366 3.07067 6.63363
H -12.4058 2.14838 5.30589
O 7.82866 -10.1165 -14.9806
H 7.14931 -10.7069 -14.5449
H 7.36486 -9.44413 14.6903
O 2.24268 -14.6151 2.81628
H 2.93743 -14.6074 3.53554
H 2.67103 -14.4073 1.93685
O -7.00854 12.9005 11.2137
H -7.0464 12.3516 12.0487
H -7.62716 12.5118 10.5309
O 5.14738 -4.47949 -8.34502
H 4.48671 -5.18847 -8.09823
H 4.79745 -3.95296 -9.11986
O -7.54408 1.83536 1.9308
H -7.75246 2.72499 1.52436
H -6.56123 1.66196 1.86748
O -13.4566 5.39182 13.3099
H -13.0805 4.51248 13.6021
H -13.1477 5.59432 12.3806
O 13.7377 -3.21256 -12.2951
H 13.498 -2.46521 -11.6754
H 13.2493 -4.04147 -12.0223
O 7.98503 -11.0277 8.35453
H 8.29302 -10.248 7.80931
H 7.17181 -10.7693 8.87603
O -2.90733 -13.2804 -8.13664
H -2.20935 -13.9627 -8.35429
H -3.61626 -13.2921 -8.84186
O 3.70077 9.35774 7.53169
H 2.85405 9.64698 7.08507
H 3.78851 9.82261 8.41275
O 13.0323 -0.417199 -1.52855
H 13.045 0.344259 -2.17669
H 13.9561 -0.787785 -1.43155
O 12.5868 11.5234 2.12067
H 12.3308 11.8672 3.02417
H 12.1247 12.0618 1.41592
O 14.6304 0.24415 13.4726
H 14.7918 0.95875 14.1533
H 14.4339 -0.619749 13.9364
O -9.4489 -8.09491 -3.3609
H -8.45777 -7.96221 -3.3506
H -9.70007 -8.78365 -2.68074
O -0.12302 -1.44586 -6.27147
H -0.787928 -1.86178 -5.65102
H 0.66389 -2.05449 -6.37343
O -13.9384 -6.07184 -1.14304
H -13.7796 -7.05806 -1.18997
H -14.1808 -5.7297 -2.05092
O -4.21999 6.95303 -9.49298
H -4.54317 7.83114 -9.14009
H -3.4599 6.62721 -8.93069
O -8.15384 -3.76966 13.7874
H -8.42966 -3.07828 13.1196
H -8.58338 -4.64346 13.5593
O 3.42969 -8.76491 -8.58425
H 3.02484 -9.6318 -8.29328
H 4.06122 -8.43915 -7.8806
O -7.13179 -14.4963 12.172
H -8.08831 -14.2477 12.3248
H -7.07204 14.7792 11.9465
O -8.70673 -4.82214 -12.2541
H -8.98374 -3.92952 -12.6098
H -8.5466 -4.75343 -11.2694
O -13.798 -3.11754 -3.39726
H -14.6183 -2.89575 -3.9246
H -13.5809 -4.08709 -3.51072
O -4.79843 -6.41437 -6.67025
H -4.3743 -6.53698 -7.56755
H -5.29671 -7.24477 -6.42082
O 5.75089 14.4005 8.467
H 6.46609 14.0753 7.84827
H 5.42708 -14.9521 8.16092
O -10.6536 0.192419 -10.8442
H -10.5455 0.297895 -9.85562
H -11.2534 0.912816 -11.1926
O 14.2237 -6.9038 6.37364
H 14.2474 -6.00841 6.81835
H 14.5479 -6.81679 5.43163
O -2.79398 -14.8261 12.2464
H -2.44259 -13.8986 12.3738
H -2.96672 15.0053 13.1391
O -10.0379 -9.96848 3.26416
H -9.30625 -10.3503 3.82893
H -10.7408 -9.57033 3.85367
O 8.27403 -3.63928 3.92841
H 9.19105 -3.34479 3.6593
H 8.12231 -4.57896 3.62173
O -3.85102 7.49355 11.0639
H -4.52995 7.98125 11.6128
H -3.9317 7.77419 10.1075
O -12.0155 14.983 14.9555
H -12.5592 -14.538 14.536
H -12.6156 14.2278 -15.0286
O -3.62753 -7.90882 2.81485
H -2.80784 -7.4425 3.14759
H -3.47748 -8.89743 2.82891
O -10.5597 9.35729 12.7861
H -11.445 9.02946 12.456
H -9.83178 8.99407 12.2046
O -3.00198 -10.3591 2.62372
H -2.82174 -11.3004 2.90918
H -3.12874 -10.33 1.63218
O -4.40442 -8.37994 -10.8065
H -4.74984 -7.44812 -10.6949
H -3.9105 -8.65344 -9.98107
O 4.44984 6.58129 7.66519
H 5.07036 6.24436 6.95703
H 4.41569 7.58014 7.63072
O -6.05781 -8.88696 -6.8375
H -5.91998 -9.50231 -6.06134
H -6.80985 -9.22642 -7.40254
O 12.9905 3.31899 12.1705
H 13.7188 2.64138 12.0683
H 13.3689 4.23632 12.0462
O 1.32818 8.43967 -6.14354
H 1.00319 9.13391 -5.5013
H 0.783567 7.60753 -6.03864
O -7.15793 -0.681445 -6.43836
H -7.21471 -0.0336904 -7.19813
H -7.52154 -1.56703 -6.72748
O -8.51652 -11.0686 -5.88469
H -8.02475 -10.9663 -6.74943
H -9.42674 -10.6631 -5.96887
O -8.43351 11.6846 -8.78177
H -8.35729 10.7356 -9.08766
H -8.47704 12.2888 -9.57745
O 11.285 -14.883 8.97934
H 11.2478 -13.8845 9.02004
H 11.0183 14.985 9.86514
O 1.84012 13.4041 10.6022
H 1.28927 14.159 10.2463
H 2.3013 12.9419 9.84479
O 8.29477 -10.9147 -6.94094
H 9.13036 -11.4057 -7.18744
H 8.09517 -10.2257 -7.63772
O 8.72049 -5.40734 -13.8534
H 8.40189 -5.68755 -14.7589
H 8.13935 -4.66995 -13.509
O 5.00356 -1.43698 -12.7275
H 5.8431 -1.38567 -12.1866
H 5.04757 -2.22864 -13.337
O -4.32162 3.75768 -6.2285
H -4.96773 3.76248 -6.99177
H -3.77262 2.92247 -6.26176
O -4.77203 7.67226 -14.004
H -4.36421 6.80262 -14.2824
H -5.3829 7.52038 -13.2269
O -7.16564 -3.97984 6.07975
H -7.55371 -4.89773 6.16315
H -7.32597 -3.63287 5.15564
O 8.75843 3.68749 13.756
H 9.72361 3.94118 13.8204
H 8.53192 3.0487 14.4914
O 6.13939 -8.16783 -3.30346
H 6.0857 -7.28908 -3.77777
H 5.26661 -8.64801 -3.3915
O -9.04244 -0.660754 0.907759
H -8.78762 0.208952 1.33054
H -9.81329 -0.51652 0.28723
O 3.55323 3.28446 5.656
H 2.59229 3.55908 5.69135
H 3.6306 2.31269 5.87906
O -11.8514 2.97336 12.9599
H -12.2017 2.03684 12.9756
H -10.919 2.98658 13.3213
O -14.6409 1.58196 -3.38464
H -13.6979 1.71031 -3.07745
H 14.9854 2.0522 -2.75809
O 0.341004 14.6243 8.1797
H 0.604174 14.474 7.22669
H -0.640171 14.4616 8.28417
O 14.7868 8.43855 4.61917
H 14.167 8.42166 3.83456
H 14.5717 9.22588 5.197
O -5.33736 -14.143 -0.813572
H -6.08401 -13.8675 -0.20805
H -4.52669 -13.5921 -0.615127
O 7.51847 -12.8888 -2.4733
H 8.2421 -12.6819 -1.81481
H 6.82561 -12.1682 -2.4445
O 15.0493 12.1187 -13.5666
H 14.5027 12.1665 -14.4026
H 14.9203 12.9563 -13.0356
O -3.73737 -9.54371 -8.29772
H -2.88008 -9.49256 -7.78537
H -4.48477 -9.77451 -7.67467
O 10.5555 -0.313264 13.8477
H 11.0506 -0.406453 14.7116
H 10.8552 0.518128 13.3798
O 2.10095 -12.9317 -14.4411
H 2.69238 -13.5109 -15.0022
H 1.28661 -13.4468 -14.1736
O -15.0286 10.0606 -1.81876
H 15.0673 11.0269 -2.02661
H 14.355 9.56336 -1.89451
O 6.15162 -10.897 -5.34163
H 6.94754 -10.7395 -5.92624
H 6.1685 -11.8374 -5.00187
O 5.11036 11.0726 2.03687
H 5.69265 11.5231 2.71371
H 4.19274 11.4688 2.07018
O -11.3581 12.6338 -13.0373
H -10.5577 13.1097 -12.6728
H -12.0329 12.5108 -12.3095
O -11.9555 -6.59162 11.4647
H -12.6912 -6.63067 10.7885
H -11.663 -7.52027 11.6931
O 11.3477 -7.99917 -5.76943
H 10.8577 -8.78859 -5.39955
H 12.0361 -8.31103 -6.42432
O 7.41566 11.5824 3.62092
H 7.95222 11.7066 2.78622
H 7.84194 12.0898 4.36983
O 9.19749 12.6774 -11.0286
H 8.46879 13.1868 -10.5707
H 9.77467 12.2329 -10.3435
O -11.1356 -3.42984 -14.0393
H -11.2224 -2.66407 -14.6766
H -11.0422 -4.28246 -14.5535
O -2.80437 -5.92737 -8.95333
H -2.12356 -5.39809 -8.44694
H -2.37906 -6.32753 -9.76515
O -1.75315 10.1734 -5.17684
H -2.48966 10.6938 -4.74462
H -1.9463 10.0699 -6.15256
O -3.04018 8.92155 -2.04134
H -3.32827 8.49577 -2.89912
H -3.83279 9.03289 -1.44181
O 6.55497 0.609847 -7.91844
H 5.83223 0.369246 -7.27049
H 7.34233 0.00962801 -7.77752
O -4.38263 -11.7921 -11.9735
H -4.69919 -11.7395 -11.0263
H -4.70472 -10.9907 -12.4776
O -1.04874 -6.76982 8.87312
H -1.92837 -7.01633 9.28
H -0.378563 -7.48576 9.06897
O -2.11892 -2.66511 -4.64438
H -1.96347 -3.64551 -4.76569
H -2.88967 -2.52421 -4.02297
O -3.647 14.5234 14.7546
H -4.16641 13.7817 -15.0687
H -4.20445 -14.8945 14.7374
O 3.63542 -11.9192 -12.3321
H 4.00249 -12.3774 -11.5226
H 3.19718 -12.5934 -12.9267
O -10.0762 -13.58 -14.5219
H -10.8349 -14.2191 -14.6483
H -9.56112 -13.8319 -13.7026
O -12.0689 5.17017 7.53394
H -11.7788 4.51265 8.22934
H -11.2793 5.70233 7.22836
O 12.1624 12.7828 4.4384
H 12.3768 13.471 5.13157
H 11.2801 12.3617 4.64858
O 8.12309 -0.624211 -2.56042
H 7.52365 -0.160718 -3.21304
H 8.53526 0.0510318 -1.94868
O -7.5645 7.99353 14.3455
H -7.39185 7.02768 14.5389
H -6.69338 8.47379 14.2427
O -12.0807 12.3828 -10.3738
H -11.2888 12.9606 -10.1761
H -12.9201 12.9068 -10.2291
O 12.3484 -6.69402 11.4707
H 12.8144 -6.17569 10.7535
H 11.6951 -7.3262 11.0541
O -4.69224 -1.96444 4.07705
H -5.649 -2.2507 4.12921
H -4.09931 -2.74748 4.26507
O -14.5905 11.4231 9.42525
H 15.0979 10.7598 8.92825
H -14.0111 11.9206 8.77962
O 7.44652 7.00847 2.33392
H 6.99013 7.52457 1.60905
H 6.81883 6.88771 3.103
O -10.5645 -2.63441 6.38847
H -10.3603 -3.50105 6.84379
H -11.4336 -2.71129 5.89978
O -9.0534 -14.28 8.59436
H -8.07491 -14.1277 8.73382
H -9.28239 -14.1183 7.63442
O -7.8934 10.1014 1.57242
H -7.77139 9.11211 1.65312
H -7.10165 10.4981 1.10785
O 8.46038 10.7178 10.4317
H 7.93474 9.95852 10.048
H 7.88433 11.5342 10.4742
O -7.73309 3.75036 -1.82702
H -7.48848 3.64163 -2.79056
H -7.27451 4.55779 -1.45577
O 0.305551 -11.859 2.0947
H 1.27166 -12.1123 2.14549
H -0.187524 -12.2701 2.86151
O 3.79778 -14.5321 0.633652
H 4.7069 -14.2526 0.942631
H 3.74124 -14.4416 -0.360671
O 7.03772 -0.912054 -10.6938
H 7.79817 -1.46805 -10.3582
H 6.50372 -0.574834 -9.91846
O 4.05801 -13.6054 -1.93753
H 4.70367 -14.2802 -2.295
H 4.45412 -12.6906 -2.01662
O 1.34618 -11.1056 -9.56772
H 1.13979 -11.9991 -9.16884
H 2.29796 -11.0892 -9.87416
O 6.5991 -13.5527 -4.84649
H 6.69766 -13.5154 -3.85203
H 6.4582 -14.5007 -5.13214
O 10.5098 -10.1085 -4.21424
H 10.0173 -9.86111 -3.37981
H 9.99459 -10.8072 -4.71067
O 12.9557 4.73831 0.357217
H 12.7523 4.49502 1.30565
H 12.1685 5.20804 -0.0425126
O -11.8388 -13.0383 0.607003
H -11.7035 -13.255 1.57384
H -10.9574 -13.0555 0.135002
O 11.1191 11.4211 10.8833
H 11.7248 10.6342 10.7652
H 10.1678 11.1127 10.8812
O -8.71601 -8.98288 -10.4962
H -8.38188 -8.34999 -11.1947
H -8.74325 -8.51831 -9.61103
O 12.5767 -2.79603 13.5239
H 11.9247 -2.04732 13.6438
H 12.7907 -3.19755 14.4144
O -1.67946 13.1913 -11.2307
H -1.83668 13.609 -12.1256
H -2.48784 12.6684 -10.9603
O 6.19794 4.91079 13.5029
H 7.11092 4.52059 13.3835
H 6.27807 5.8742 13.7588
O 14.3273 -13.5569 -14.0537
H 14.1712 -13.7596 -15.0204
H 13.4835 -13.2081 -13.6457
O 13.2396 -4.42785 -14.5784
H 13.8283 -3.93912 -13.9344
H 13.6325 -5.3267 -14.7729
O 9.56835 -2.44802 -9.64315
H 10.0492 -1.67505 -10.0571
H 10.2336 -3.12789 -9.33458
O 6.78264 0.0223126 7.83735
H 6.93374 -0.839873 8.32095
H 6.80808 0.77951 8.49009
O 5.92264 5.52102 -1.61776
H 6.29316 6.27493 -1.07518
H 5.06767 5.80939 -2.04895
O 10.2792 -12.4892 9.66542
H 10.5221 -11.7507 10.2945
H 9.57524 -12.1689 9.03142
O 3.63481 -10.6729 11.6642
H 3.20467 -9.77072 11.6987
H 3.87514 -10.9632 12.5904
O 13.4807 -11.8925 3.02413
H 14.1666 -12.2445 2.38714
H 13.7673 -12.0854 3.9626
O -5.01503 4.43479 -11.4616
H -4.65982 3.50093 -11.4191
H -4.36567 5.05854 -11.0265
O -5.97115 4.84791 1.13367
H -5.24925 4.28935 1.54226
H -5.62863 5.27532 0.296973
O 14.3261 2.50415 -13.9441
H 14.4395 2.76448 -12.9853
H 13.418 2.10664 -14.0765
O -4.88586 -5.42254 -1.98485
H -5.65516 -5.28207 -1.36155
H -4.47975 -4.5388 -2.21755
O -3.50986 11.5376 -3.46295
H -4.24264 12.0498 -3.91102
H -3.86532 10.6602 -3.14062
O -12.0956 2.0387 -2.58058
H -12.2841 2.82416 -1.99103
H -11.7805 2.3602 -3.47357
O -1.0329 -6.40644 3.29473
H -1.07208 -6.58175 4.2785
H -1.15123 -5.42795 3.12556
O 3.6535 -9.24766 -3.44665
H 2.93762 -9.90732 -3.21767
H 3.29555 -8.31924 -3.34685
O 14.5733 -13.1019 -5.35731
H 15.0333 -13.9898 -5.34677
H -14.993 -12.3743 -5.43483
O 11.4631 6.81217 -8.74813
H 10.5442 6.6997 -9.12632
H 11.7561 5.95535 -8.32375
O 2.83651 12.6585 2.39491
H 2.05267 12.3737 1.84302
H 2.78134 13.6415 2.57004
O 11.8908 14.5242 -10.6576
H 11.0975 14.6139 -11.2597
H 11.6031 14.1336 -9.78308
O 10.5888 -10.2671 11.4106
H 10.5787 -9.94586 12.3575
H 10.4777 -9.48835 10.7932
O 0.587529 -13.1018 13.2835
H -0.401857 -13.0292 13.1574
H 0.830267 -12.79 14.2022
O 13.9653 4.04901 -4.85765
H 14.4622 3.18145 -4.88035
H 13.6675 4.23818 -3.92192
O -11.7139 -1.61996 9.90873
H -11.4987 -1.21139 9.02169
H -11.3759 -2.56085 9.9331
O -8.81737 3.00817 4.10669
H -8.37087 2.33013 3.52277
H -8.69431 2.75455 5.06616
O 2.65788 -7.65456 11.435
H 3.33976 -6.93047 11.3311
H 2.39096 -7.99308 10.5327
O -1.32159 -6.78564 0.596457
H -2.27773 -7.07866 0.59747
H -1.06375 -6.48621 1.51511
O -2.97056 3.94271 8.52747
H -2.53833 3.07268 8.76469
H -3.88631 3.77175 8.16382
O -13.4345 -12.0807 -1.76128
H -12.8829 -12.4683 -1.02269
H -12.8407 -11.8369 -2.52815
O 5.92165 -7.75436 12.6528
H 6.53877 -8.39271 12.1926
H 5.32008 -8.25973 13.2715
O -1.57806 -7.32603 -11.1262
H -1.42762 -8.27919 -10.8637
H -2.33753 -7.27482 -11.7748
O -1.72379 9.41599 -7.7851
H -1.87587 8.46479 -8.05373
H -0.909771 9.76699 -8.24795
O 13.0006 -13.2519 -10.0847
H 12.6283 -14.1797 -10.0569
H 12.5116 -12.7171 -10.7739
O -7.53243 -12.4839 -3.41817
H -7.99725 -11.8733 -4.05941
H -7.9771 -13.3796 -3.42887
O 5.83093 14.1492 -5.78166
H 6.23862 13.3636 -6.2471
H 5.09858 13.8354 -5.1773
O -13.1358 5.84403 10.6156
H -12.6352 5.84756 9.74986
H -13.8633 6.52944 10.5828
O -9.88774 -0.815375 -3.37054
H -10.5426 -1.25946 -3.98208
H -9.42599 -0.074319 -3.85808
O 2.58226 -6.91379 -2.56488
H 3.1908 -6.29943 -2.06257
H 1.63588 -6.61079 -2.45255
O 3.79964 -3.39506 -4.14954
H 3.64815 -4.1367 -3.49602
H 2.93717 -2.91763 -4.3177
O 1.80363 6.04004 8.23379
H 1.39008 5.3905 7.59573
H 2.75284 6.20945 7.96853
O 11.1401 14.1149 11.527
H 10.268 14.4823 11.8503
H 11.0927 13.1163 11.5029
O -6.09009 -4.96754 10.2293
H -6.13393 -4.14525 9.66191
H -5.98236 -4.70538 11.1884
O -8.68693 8.43649 8.29878
H -8.12268 8.33656 7.47921
H -8.53197 7.65803 8.9071
O 9.74095 5.39499 -13.7487
H 10.179 5.58199 -14.6281
H 10.4218 5.0459 -13.1048
O 7.88651 -2.22553 9.25731
H 8.8488 -1.97455 9.15212
H 7.68483 -2.37465 10.2254
O 7.35386 12.6579 -8.77622
H 7.85263 11.8317 -8.51419
H 6.44948 12.4061 -9.12083
O -1.23947 -0.491724 -8.69432
H -0.765555 -0.980868 -9.42658
H -1.01444 -0.909809 -7.81419
O -8.0867 2.15018 6.86824
H -8.13182 1.24768 6.43985
H -7.3441 2.16454 7.53787
O -5.99882 -3.75649 -8.65047
H -5.747 -4.64326 -9.03816
H -6.22217 -3.1209 -9.38952
O -10.3221 -9.84767 -1.31571
H -10.7471 -9.36643 -0.548977
H -9.71888 -10.5646 -0.966132
O 9.23493 -1.81827 -12.7371
H 9.92778 -2.37452 -13.196
H 9.68358 -1.11149 -12.1901
O 0.849916 7.56918 -13.3879
H 0.335217 7.58914 -14.2451
H 0.314308 8.00932 -12.6672
O -3.90548 2.23545 -13.151
H -3.37299 3.06054 -13.3401
H -3.32801 1.56581 -12.6839
O -5.70417 10.5946 7.78059
H -5.61351 9.72325 8.2629
H -6.00989 11.2996 8.42056
O -10.6398 13.4369 2.2341
H -9.64589 13.3348 2.27571
H -11.0667 12.8127 2.88847
O -5.64108 -5.20186 13.4775
H -5.32682 -5.43504 14.3978
H -6.39337 -4.5458 13.5385
O 13.9241 14.4922 -0.342864
H 14.3599 13.9018 0.33661
H 14.3302 -14.8429 -0.300825
O -9.85629 13.917 13.684
H -10.0651 13.0943 13.1552
H -10.6894 14.2495 14.1261
O 14.4253 -7.63275 3.71177
H 14.3996 -6.84802 3.09242
H 13.9596 -8.40868 3.28619
O 9.02656 7.62167 6.90055
H 9.66911 6.87063 7.05266
H 9.50996 8.494 6.97429
O 13.7559 14.1202 -6.11554
H 13.7493 13.1683 -6.42209
H 12.8619 14.5328 -6.29003
O -7.1597 6.80853 -4.27318
H -6.93444 5.8525 -4.4611
H -7.27787 7.29907 -5.13659
O 9.35692 11.4362 1.39876
H 10.0556 12.0963 1.12292
H 8.56702 11.513 0.790313
O -5.48324 4.05975 11.6964
H -6.37171 4.51857 11.7092
H -4.75917 4.73094 11.8555
O -4.24181 4.55238 14.8287
H -3.44635 4.65344 14.2311
H -4.53013 3.59489 14.8408
O -13.4118 -1.31488 -13.0751
H -13.3746 -1.96619 -12.3171
H -12.4955 -1.19589 -13.4576
O 2.37385 -3.22735 -12.5108
H 2.61428 -2.87752 -13.4163
H 2.58932 -4.20269 -12.4623
O 6.81405 0.754034 14.7885
H 6.99371 -0.217974 14.9401
H 7.31116 1.29471 -14.7807
O 14.404 8.50259 -11.4529
H 13.4421 8.65436 -11.6804
H 14.8789 8.12472 -12.2477
O -1.12082 13.3733 -3.75051
H -1.49081 14.1786 -3.28728
H -1.7427 12.6005 -3.62336
O -3.60914 -6.38944 -4.18192
H -4.24134 -6.35741 -4.9561
H -4.00105 -5.88795 -3.41057
O 3.55333 8.59132 4.68243
H 4.4793 8.77155 4.35052
H 3.58262 8.39712 5.66298
O 8.14584 -7.64104 10.3899
H 9.07147 -7.84841 10.0732
H 7.72283 -8.47238 10.7505
O -10.3078 9.46256 -12.7103
H -10.1231 10.0925 -13.4647
H -11.2791 9.50006 -12.475
O 12.306 -11.9022 -2.30766
H 12.2705 -12.632 -2.99042
H 11.694 -11.1601 -2.58089
O 8.83231 -8.92098 6.52217
H 8.11501 -8.2274 6.4552
H 9.69243 -8.48626 6.78914
O 3.79807 12.3805 8.44572
H 3.34183 12.425 7.55693
H 4.38608 13.1815 8.55894
O 2.6945 0.78586 -8.14613
H 3.16256 1.66959 -8.1452
H 1.74132 0.913235 -7.87174
O 4.52203 -12.3708 -9.75583
H 5.0217 -13.0787 -9.25655
H 5.04317 -11.5176 -9.73525
O 12.5553 0.82851 9.34022
H 12.3129 1.0667 10.2808
H 12.8606 1.64891 8.85672
O 10.8057 -3.32725 10.1942
H 10.4892 -2.38151 10.2678
H 10.8264 -3.74353 11.1032
O 13.1749 -13.9723 13.5959
H 12.2708 -13.8862 14.0147
H 13.0817 -14.358 12.678
O -11.4275 -0.177725 -0.949421
H -11.0568 -0.721834 -1.70216
H -11.9058 0.619324 -1.31825
O 11.7115 -10.6539 -11.9339
H 10.9872 -10.2269 -11.3926
H 12.6028 -10.3905 -11.5648
O -0.12205 7.74216 8.98541
H 0.0327543 8.47755 8.32564
H 0.651809 7.10903 8.96653
O -7.21919 7.42436 2.55393
H -6.98059 6.52181 2.91245
H -7.9251 7.3283 1.85212
O 11.3855 -10.0892 7.41121
H 10.5219 -10.4195 7.03023
H 11.8475 -9.51152 6.73818
O -1.34234 7.33221 14.6768
H -1.94906 8.0067 14.2561
H -1.42431 6.46162 14.1916
O 10.216 3.5441 0.122948
H 9.4756 4.02747 0.590133
H 10.5326 2.78703 0.694497
O 4.17204 4.63415 11.5713
H 4.92635 4.6758 12.2265
H 3.3044 4.57571 12.0651
O 6.28622 -2.13528 5.28255
H 6.97406 -2.60428 4.7285
H 6.29889 -1.15767 5.07235
O -6.17388 6.95474 -11.7177
H -6.77551 6.17399 -11.5488
H -5.58778 7.10244 -10.921
O -13.7833 0.0722581 -6.55542
H -13.7084 1.05921 -6.41264
H -13.0617 -0.394243 -6.04393
O 3.65117 3.67419 -8.72108
H 2.98372 4.2839 -8.29347
H 4.56391 4.07651 -8.64957
O 7.8779 2.72044 8.38045
H 8.33073 2.14739 9.06356
H 7.00764 3.05046 8.74622
O -15.0221 9.38516 -5.26264
H -14.9291 9.65271 -4.30356
H 14.9498 8.42544 -5.3157
O 0.419443 11.9193 1.29518
H -0.318835 11.3338 1.63018
H 0.0967299 12.4453 0.508273
O -4.76297 1.48852 -8.54352
H -3.83552 1.43209 -8.91327
H -5.14512 2.39187 -8.73842
O 11.26 -5.73979 8.27434
H 11.5954 -5.25264 9.08071
H 10.6717 -5.13335 7.7393
O 4.44584 4.09684 -14.6248
H 5.10835 4.45949 14.9676
H 4.20409 4.80956 -13.9663
O 6.92949 13.5859 11.0159
H 6.57641 13.8654 10.123
H 7.5563 14.285 11.3601
O -8.80596 -4.36522 -9.60975
H -9.35674 -3.85546 -8.94881
H -7.8982 -3.95107 -9.67704
O -6.81456 -1.10501 -0.748411
H -5.99911 -1.22046 -0.181152
H -7.59528 -0.875726 -0.167063
O -6.29714 -12.4233 7.9049
H -6.18188 -13.3781 7.63066
H -5.52265 -11.8851 7.5723
O -7.92125 -3.22683 -6.58121
H -7.92117 -3.86423 -5.81063
H -7.07753 -3.33857 -7.1063
O 6.77607 -6.26183 -5.5339
H 6.61801 -5.29003 -5.70906
H 7.75934 -6.44411 -5.52941
O 2.22963 6.33732 -8.56639
H 1.5044 6.07689 -9.20379
H 1.83636 6.85848 -7.8089
O 0.674981 9.94262 -4.01734
H 1.1346 10.6551 -3.48705
H -0.241288 10.2537 -4.26977
O 4.23532 9.69591 10.1493
H 3.48469 10.2071 10.568
H 4.23672 8.75916 10.4994
O -2.13903 0.000526944 13.2989
H -2.70452 -0.220923 14.0934
H -2.20587 -0.736536 12.6263
O 9.82324 -6.85515 4.46697
H 8.99135 -6.34313 4.68112
H 9.72453 -7.29272 3.57318
O -11.2774 -14.3092 3.11251
H -11.0632 15.031 2.7515
H -11.9049 -14.3977 3.88612
O -0.694934 -6.17767 5.97523
H -1.0077 -6.64955 6.79959
H -0.611177 -5.19897 6.16287
O -5.48701 8.58735 -0.728833
H -5.93647 9.39201 -1.11687
H -5.0939 8.82149 0.160385
O -7.30241 3.96974 -13.3028
H -6.44023 4.39502 -13.0274
H -7.69899 3.48508 -12.5231
O 4.8026 -12.6251 13.3479
H 5.2053 -12.3098 14.2072
H 4.51454 -13.5779 13.4446
O -10.9501 -4.20514 10.3553
H -10.9321 -4.48961 9.3968
H -11.0998 -5.00438 10.9375
O 13.758 -1.25851 7.91225
H 13.0732 -0.619404 8.26251
H 14.5656 -1.23782 8.5017
O 14.4693 5.66757 4.68623
H 14.434 6.66611 4.72794
H 15.0964 5.38625 3.95981
O -6.84133 0.975941 -2.50471
H -7.33401 1.66665 -1.97533
H -6.86752 0.10227 -2.01883
O 11.4174 14.7292 -7.26583
H 11.3442 13.8577 -7.75073
H 10.5272 14.9719 -6.88019
O -13.975 -6.39332 9.72954
H -14.1078 -7.32176 9.38252
H -14.8263 -6.06575 10.1395
O 1.87955 -3.34134 -6.64388
H 1.55227 -3.82586 -5.83259
H 2.02693 -3.99537 -7.3859
O -14.6973 -8.63858 12.8048
H 14.5948 -8.91386 12.909
H -14.5004 -7.87745 13.4228
O -12.8736 7.12844 0.330642
H -13.7411 6.9987 0.810895
H -13.0323 7.64574 -0.510356
O -8.14524 -7.14713 -8.52408
H -7.15627 -7.29486 -8.51103
H -8.33511 -6.17161 -8.63526
O 10.7671 -1.16027 -4.06803
H 10.1416 -1.29762 -3.29993
H 10.2991 -1.38379 -4.92306
O -8.30883 10.4137 -14.6798
H -8.15954 9.44053 -14.855
H -7.91546 10.657 -13.7932
O -12.1005 -13.2634 -8.59053
H -12.8073 -13.6223 -9.20023
H -12.4868 -13.1224 -7.67898
O 1.13843 14.5628 5.70156
H 1.71662 13.7581 5.83659
H 0.437155 14.3585 5.01851
O -9.99211 13.0921 8.77929
H -10.9436 13.1812 9.07389
H -9.5452 13.9857 8.82085
O -1.55216 -10.7963 -7.05928
H -1.23958 -11.0035 -6.13223
H -2.0028 -11.6006 -7.44667
O -8.78547 6.72898 -9.76629
H -9.76107 6.93377 -9.68676
H -8.64628 5.74057 -9.70508
O 1.41886 -9.48666 3.76901
H 0.911852 -9.12259 2.98769
H 1.22066 -10.4616 3.86995
O -6.73397 13.5906 -7.28993
H -7.08201 12.6901 -7.55077
H -7.49761 14.2302 -7.20098
O 0.0361446 -5.95087 -1.68018
H -0.394348 -6.79446 -2.00126
H -0.304295 -5.72986 -0.766223
O -4.04732 -6.17037 -14.8619
H -3.22277 -5.60495 -14.8836
H -3.79229 -7.12616 -14.7152
O 4.60454 -9.33564 7.152
H 4.3179 -8.39262 7.32116
H 4.57024 -9.52346 6.17036
O 13.9399 12.1174 11.3936
H 13.0675 12.2367 10.9196
H 14.6432 11.8494 10.7351
O -6.33618 -4.5321 1.17038
H -6.22738 -4.07903 2.05523
H -7.22829 -4.29832 0.783658
O 11.984 8.5537 5.56683
H 11.4458 8.6693 4.73199
H 12.0835 7.57897 5.76703
O -15.0552 -12.267 5.62932
H -14.8557 -11.3839 5.2046
H 14.8467 -12.1206 6.55607
O -12.4024 10.2102 -8.69907
H -12.4146 11.0761 -9.19927
H -12.4953 10.3897 -7.71967
O -3.85343 11.4064 -10.2237
H -3.97838 11.986 -9.41839
H -4.51617 11.6649 -10.9265
O 14.4059 9.09696 8.07932
H 14.4929 9.41289 7.13451
H 14.7519 8.16144 8.15117
O -0.863352 2.6127 -11.9794
H 0.0843368 2.33373 -12.1347
H -1.15022 3.23746 -12.7057
O -2.29689 10.6685 0.796934
H -1.76882 10.3073 0.028362
H -2.54422 9.92015 1.41245
O 13.0442 0.324664 1.09485
H 14.0119 0.408702 1.33237
H 12.9588 0.0359819 0.1412
O -2.6848 -13.0591 -0.00627171
H -2.94894 -13.3252 0.920819
H -2.72364 -12.0634 -0.0911301
O 2.81213 -0.770573 8.71937
H 2.98131 0.195551 8.52431
H 3.62103 -1.17015 9.15073
O 4.27944 -4.8886 10.9268
H 4.78726 -4.52299 11.7069
H 4.92113 -5.16554 10.2116
O 14.5845 -2.79553 11.537
H 13.8555 -2.47831 12.1435
H -14.8924 -3.12109 12.0844
O -7.2635 7.82155 6.1052
H -7.32748 8.71933 5.66934
H -7.35517 7.107 5.41161
O -6.92612 10.8085 5.41823
H -6.39359 10.6738 6.25391
H -6.30852 10.8529 4.63296
O 9.53922 7.25165 -1.64466
H 8.83467 7.86835 -1.99587
H 9.84462 6.64298 -2.37699
O -5.86689 -10.1249 -4.17161
H -4.97559 -10.0117 -3.73248
H -6.3913 -10.8243 -3.68598
O 1.42876 -5.73147 -14.57
H 2.02107 -6.26501 -13.9662
H 1.98998 -5.14766 15.0912
O 1.79919 5.03555 12.9005
H 1.69143 6.02954 12.9215
H 1.57689 4.6571 13.7991
O 1.71754 10.4828 11.087
H 0.873832 10.868 10.713
H 1.79482 10.7255 12.054
O -5.41827 5.85837 -1.47051
H -5.61314 6.79445 -1.17755
H -5.37671 5.82344 -2.46907
O 14.103 14.4182 -12.2571
H 14.2321 -14.9378 -12.6906
H 13.188 14.3717 -11.8563
O -14.026 14.9638 -5.3347
H -13.5258 14.3024 -4.77574
H -14.9124 14.5794 -5.59272
O 13.904 -11.4126 7.99816
H 12.9856 -11.025 7.91859
H 14.3071 -11.1382 8.8712
O 5.90752 -2.30087 -1.98239
H 5.38505 -2.44465 -2.82288
H 6.82614 -1.97911 -2.21188
O 1.02046 12.6786 -11.0423
H 1.33367 12.7761 -10.0976
H 0.0208619 12.6564 -11.0614
O -3.22164 -14.4327 2.24691
H -3.67022 -14.2029 3.11063
H -2.39347 -14.9618 2.4319
O 9.88253 -14.903 -12.609
H 9.62873 14.7936 -13.4038
H 9.13045 -14.9024 -11.9499
O -12.6967 9.56728 10.5421
H -12.1536 9.3364 9.73472
H -13.2242 10.3977 10.3627
O 14.3379 10.7925 5.95984
H 13.5357 11.0323 6.50658
H 14.3472 11.3405 5.12337
O -8.30068 5.87419 9.60583
H -8.61016 4.92468 9.65788
H -8.21313 6.24734 10.5295
O -10.2499 14.2316 -10.2716
H -10.8263 15.0112 -10.5166
H -9.54586 14.5274 -9.62597
O -14.5183 7.50311 -13.5331
H -15.0194 7.01488 -14.2476
H -14.0365 8.28129 -13.9361
O -5.4205 -14.295 -4.24168
H -6.05316 -13.5687 -3.97288
H -5.31149 -14.9392 -3.48456
O -9.81694 4.06317 -0.0922083
H -10.7577 3.87713 -0.375811
H -9.19452 3.85971 -0.848034
O 3.77422 8.62401 -5.03589
H 2.93003 8.59819 -5.57137
H 4.53946 8.8682 -5.63158
O 10.7853 -8.30292 9.55344
H 11.0383 -8.98568 8.86793
H 10.9431 -7.38661 9.18528
O -14.6456 -1.03946 9.85454
H -13.6501 -1.06804 9.94551
H -15.0649 -1.51023 10.6308
O 9.40384 -12.3886 -0.213149
H 9.77908 -12.614 0.685996
H 9.88164 -11.592 -0.583597
O 12.418 -0.726829 -14.0235
H 13.2786 -1.17399 -14.2675
H 12.3691 -0.617314 -13.0307
O 9.01503 14.6948 15.0387
H 8.0259 14.7842 -15.0921
H 9.35361 -14.7987 14.4763
O 1.19441 6.17238 -3.25261
H 1.11685 6.89237 -2.56293
H 2.1583 6.02728 -3.47606
O 3.71545 -11.2838 1.98396
H 4.16807 -12.138 1.72818
H 3.43993 -10.7922 1.15783
O 6.18733 4.26704 6.24324
H 5.23263 3.9734 6.19435
H 6.73161 3.55797 6.69163
O 8.43569 -9.08523 -12.0343
H 8.43951 -10.0759 -11.8979
H 7.51917 -8.72762 -11.8549
O 11.7894 -8.24468 0.153339
H 12.359 -7.54646 -0.280345
H 12.2705 -8.62358 0.943898
O -12.7978 5.389 -13.4228
H -13.5242 6.07136 -13.5059
H -11.9091 5.83204 -13.5409
O -12.5582 4.07183 -0.783116
H -12.5428 5.06808 -0.697627
H -13.485 3.73694 -0.612545
O -7.95796 -12.4591 4.99113
H -7.44888 -11.6072 4.86805
H -7.5047 -13.1941 4.48676
O -10.9973 3.987 2.55917
H -10.621 3.89021 1.63771
H -10.3167 3.69198 3.22985