LAMMPS data file via write_data, version 15 May 2015, timestep = 2000000

4560 atoms
7 atom types
5040 bonds
3 bond types
7200 angles
2 angle types
10560 dihedrals
3 dihedral types
2400 impropers
1 improper types

-1.0763502675555259e-01 4.1387635026745990e+01 xlo xhi
-4.0433884491974936e-02 3.5938433884472119e+01 ylo yhi
-3.5711112484589691e-01 2.9555111124838550e+01 zlo zhi
-6.7234083837551181e-02 -1.7036217651000683e+01 -4.1707816797290791e-02 xy xz yz

Masses

1 12.0107
2 1.008
3 12.0107
4 12.0107
5 12.0107
6 12.0107
7 12.0107

Pair Coeffs # lj/cut/coul/cut

1 0 0
2 0 0
3 0 0
4 0 0
5 0 0
6 0 0
7 0 0

Bond Coeffs # harmonic

1 469 1.4
2 367 1.08
3 469 0.7

Angle Coeffs # harmonic

1 35 120
2 63 120

Dihedral Coeffs # opls

1 0 7.25 0 0
2 0 7.25 0 0
3 0 7.25 0 0

Improper Coeffs # cvff

1 2.5 -1 2

Atoms # full

219 13 3 0.0000000000000000e+00 -1.0567158018119556e+00 2.8684793572680940e+00 3.0292912496204272e+00 1 0 0
609 34 2 0.0000000000000000e+00 -3.0609831950334603e+00 3.1271750291465996e+00 1.2038776531648207e+01 1 0 0
4395 234 7 0.0000000000000000e+00 -2.5430604551750178e+00 1.0006927195755688e+00 9.9964992444838501e+00 1 1 0
580 33 4 0.0000000000000000e+00 4.8577554490706234e+00 6.3670632764865838e+00 3.1906469988189179e+00 1 0 0
228 13 3 0.0000000000000000e+00 -3.3517354341856431e-01 1.7110293588737424e+00 2.8755414768925252e+00 1 0 0
591 33 2 0.0000000000000000e+00 6.2581171207841875e+00 3.5373804600469358e+00 1.7452461459229296e+00 1 0 0
1363 74 2 0.0000000000000000e+00 -1.5845691113490208e+00 8.9628584312331689e+00 8.8618715243396551e+00 1 0 0
993 53 2 0.0000000000000000e+00 7.6488135454403816e-01 8.3632647586443589e+00 6.3922651667343278e-01 1 0 0
581 33 1 0.0000000000000000e+00 1.0557099245392392e+00 4.8994803216153091e+00 4.1569171372590050e+00 1 0 0
297 17 2 0.0000000000000000e+00 5.7610222469782144e+00 4.2059100852430156e+00 1.5130768440427635e+00 1 0 0
733 13 6 0.0000000000000000e+00 -4.4655709238839414e-01 2.4263788020347774e+00 2.9304696655129492e+00 1 0 0
529 30 2 0.0000000000000000e+00 -7.3066266079345805e+00 5.8456366437733296e+00 1.2911548440723223e+01 1 0 0
599 34 1 0.0000000000000000e+00 1.5690660051971372e+00 5.1638621103226354e+00 9.1197846410372527e+00 1 0 0
293 17 1 0.0000000000000000e+00 6.2283880257059945e+00 3.3838126015291756e+00 2.1249107820199833e+00 1 0 0
989 53 4 0.0000000000000000e+00 4.4136421145769344e-01 8.8216261256380069e+00 1.5716199591366420e+00 1 0 0
1010 54 2 0.0000000000000000e+00 -3.9474728354060762e+00 7.5795469784286009e+00 7.7952469346325497e+00 1 0 0
2129 114 2 0.0000000000000000e+00 -3.1596451112576771e+00 1.6493306456765882e+01 8.3107478705778277e+00 1 0 0
222 13 2 0.0000000000000000e+00 4.4273532171546814e-01 4.7843613869088824e+00 7.0463571321687657e-01 1 0 0
4400 234 2 0.0000000000000000e+00 -3.4848328312920693e+00 1.4636465239376037e+00 9.7202499962563298e+00 1 1 0
245 14 4 0.0000000000000000e+00 -5.2593728471539123e+00 2.0217948075648859e+00 1.2240880114553383e+01 1 0 0
1012 54 2 0.0000000000000000e+00 -9.9930473140269438e-01 9.0870792038398562e+00 1.0595130620457963e+01 1 0 0
982 53 2 0.0000000000000000e+00 8.8191440428804646e-01 1.1910368328336164e+01 2.9881034631715560e+00 1 0 0
583 33 2 0.0000000000000000e+00 2.7847935209286652e+00 7.7892175769577783e+00 4.3787078531699937e+00 1 0 0
1772 94 2 0.0000000000000000e+00 -3.2243828204137635e+00 1.7305645087286639e+01 1.1721349342339000e+01 1 0 0
579 33 3 0.0000000000000000e+00 3.5640466326651636e+00 5.8773259652746495e+00 3.5234356723473157e+00 1 0 0
1770 94 2 0.0000000000000000e+00 -7.0096356346976947e+00 1.5385857463524546e+01 1.2129489865366573e+01 1 0 0
2112 113 2 0.0000000000000000e+00 4.1508802566063965e+00 1.5688715816384757e+01 1.3893630843771931e+00 1 0 0
596 34 5 0.0000000000000000e+00 7.1418714707543973e-01 6.6446821863910355e+00 1.0705488414304115e+01 1 0 0
2502 133 2 0.0000000000000000e+00 -2.1719297749163964e+00 1.7154969290080999e+01 3.3140588940110050e+00 1 0 0
588 33 3 0.0000000000000000e+00 3.2529373564093351e+00 4.5508926704142523e+00 3.2749304443880596e+00 1 0 0
589 33 4 0.0000000000000000e+00 1.9855706951367100e+00 4.0704839733465539e+00 3.5755233552013137e+00 1 0 0
593 33 2 0.0000000000000000e+00 1.6669406683255747e+00 3.0537105987304063e+00 3.5379459776310536e+00 1 0 0
753 33 6 0.0000000000000000e+00 3.6273396771366535e+00 5.1890781349057038e+00 3.3029972806142984e+00 1 0 0
610 34 2 0.0000000000000000e+00 -1.5287405252145456e+00 2.7593253360612686e+00 1.0097814531833253e+01 1 0 0
4407 234 4 0.0000000000000000e+00 -8.7522590497266073e-02 8.4799368860571933e-01 1.0045566181640055e+01 1 1 0
578 33 5 0.0000000000000000e+00 2.6185287792660263e+00 6.7166202729521727e+00 4.2140037580886132e+00 1 0 0
230 13 1 0.0000000000000000e+00 -2.3089119526060369e+00 1.9108739255144482e+00 4.9046275741896128e+00 1 0 0
223 13 2 0.0000000000000000e+00 -1.3649237372320804e+00 4.9017533138023817e+00 2.4360463213190164e+00 1 0 0
611 34 2 0.0000000000000000e+00 4.0248541426598017e-01 3.4872022878044544e+00 8.7018572575521667e+00 1 0 0
587 33 4 0.0000000000000000e+00 4.1578749925627179e+00 3.6715920537710471e+00 2.7009826080555732e+00 1 0 0
221 13 1 0.0000000000000000e+00 1.0068879588771402e+00 2.7654856476629597e+00 1.1898634071277665e+00 1 0 0
2111 113 2 0.0000000000000000e+00 4.3310302064333985e+00 1.7606703191234402e+01 2.4577465639054608e-03 1 0 0
590 33 1 0.0000000000000000e+00 5.8018316161686236e+00 5.4456660760849864e+00 2.5301109133851307e+00 1 0 0
4385 233 2 0.0000000000000000e+00 1.5269957522969166e+00 2.5302818826175186e+00 3.2034262331016743e+00 1 1 0
1769 94 2 0.0000000000000000e+00 -5.3158776750846259e+00 1.7063479819975942e+01 1.2947489523951102e+01 1 0 0
1738 93 5 0.0000000000000000e+00 6.0046949574847264e-01 1.4755494673985245e+01 1.3569610865396347e+00 1 0 0
2254 94 6 0.0000000000000000e+00 -5.0472534024716742e+00 1.4594302413791889e+01 1.0296898528257730e+01 1 0 0
1351 73 2 0.0000000000000000e+00 3.0290222338753789e+00 8.7358361726218448e+00 1.1799029156101597e+00 1 0 0
2107 113 4 0.0000000000000000e+00 4.0456373408363069e+00 1.6635044743735072e+01 1.8360873872862342e+00 1 0 0
2503 133 2 0.0000000000000000e+00 -2.5076689588526602e-02 1.7842577426208877e+01 4.4040878260870491e+00 1 0 0
1818 97 1 0.0000000000000000e+00 5.3601437016322748e+00 1.4792009652169515e+01 1.4825261294951597e+00 1 0 0
1360 74 2 0.0000000000000000e+00 -3.4220148614058945e+00 1.0608647117709067e+01 9.6389570235419715e+00 1 0 0
595 34 7 0.0000000000000000e+00 1.6165791022006273e+00 6.4078067351550994e+00 9.7303444495454805e+00 1 0 0
2105 113 2 0.0000000000000000e+00 3.8008997993462499e+00 1.4705965766649550e+01 5.9888073113731792e+00 1 0 0
2109 113 4 0.0000000000000000e+00 3.7290080691784850e+00 1.5552329116513899e+01 4.0382174884469251e+00 1 0 0
1757 94 3 0.0000000000000000e+00 -4.5661579450751635e+00 1.4804047428348417e+01 9.8214057992566293e+00 1 0 0
241 14 2 0.0000000000000000e+00 -3.5664008488681214e+00 3.2706133873424581e+00 8.1394855201129470e+00 1 0 0
234 13 2 0.0000000000000000e+00 -3.0547621492859980e+00 2.1217448346920706e+00 5.6891188609220391e+00 1 0 0
1768 94 1 0.0000000000000000e+00 -3.9530869340781969e+00 1.6550204774777384e+01 1.1432819126477327e+01 1 0 0
227 13 4 0.0000000000000000e+00 -7.0476183807810533e-01 5.6159315491156214e-01 3.6748074133232640e+00 1 0 0
1341 73 1 0.0000000000000000e+00 3.5095773002197199e+00 1.3920574134957107e+01 3.9387073204586702e+00 1 0 0
597 34 3 0.0000000000000000e+00 -3.3553541082155380e-01 5.7479379482566948e+00 1.1015050081025437e+01 1 0 0
734 14 6 0.0000000000000000e+00 -4.6270710071197563e+00 2.3462192594785809e+00 1.0509253039309067e+01 1 0 0
1271 69 2 0.0000000000000000e+00 -2.2891223137838139e+00 1.0576960259925176e+01 4.3738415470413337e+00 1 0 0
218 13 5 0.0000000000000000e+00 -7.5016484590634602e-01 4.0243638616964574e+00 2.2933593672181702e+00 1 0 0
4388 233 3 0.0000000000000000e+00 4.1196364757123387e+00 2.6219861550210155e-01 3.6607658301946433e+00 1 1 0
237 14 3 0.0000000000000000e+00 -4.2270736452889484e+00 2.7863669255229504e+00 1.0193140890462690e+01 1 0 0
252 14 2 0.0000000000000000e+00 -2.4248977525148359e+00 3.7622912191877367e+00 1.2908288577276254e+01 1 0 0
250 14 2 0.0000000000000000e+00 -6.1419202614808457e+00 1.5444667172952111e+00 1.2733259138528435e+01 1 0 0
981 53 1 0.0000000000000000e+00 9.2690724527294277e-01 1.0151147838925626e+01 1.7982376531165869e+00 1 0 0
983 53 2 0.0000000000000000e+00 -6.2480292029411144e-01 1.0721989687705422e+01 4.6410157590190178e+00 1 0 0
1005 54 4 0.0000000000000000e+00 -3.7048108099053931e+00 8.0766500465697764e+00 8.7258184893997370e+00 1 0 0
246 14 3 0.0000000000000000e+00 -5.2535712492136568e+00 2.0944288017221933e+00 1.0866819000377236e+01 1 0 0
1358 74 4 0.0000000000000000e+00 -3.7946561008388979e-01 1.3351558321803067e+01 1.1579477739212001e+01 1 0 0
605 34 4 0.0000000000000000e+00 -1.4583362906211175e+00 3.6572075415409970e+00 1.0676605914351921e+01 1 0 0
606 34 3 0.0000000000000000e+00 -4.6070748007885687e-01 4.5886369113812036e+00 1.0313780168343760e+01 1 0 0
607 34 4 0.0000000000000000e+00 5.1432473872820150e-01 4.3039590272620920e+00 9.3435014397814022e+00 1 0 0
612 34 2 0.0000000000000000e+00 -2.9109272056767868e+00 5.3571180297678662e+00 1.3266611398909538e+01 1 0 0
4381 233 1 0.0000000000000000e+00 2.0524118386899257e+00 1.6259879273013189e+00 3.4044466250626497e+00 1 1 0
1747 93 4 0.0000000000000000e+00 -1.1287670623311397e+00 1.3431160030600013e+01 4.3812467159538580e+00 1 0 0
1359 74 1 0.0000000000000000e+00 -1.3963023844693501e+00 9.9149151864972946e+00 9.3706422871318651e+00 1 0 0
598 34 4 0.0000000000000000e+00 -1.2178271240898280e+00 6.0257868031339381e+00 1.2070617021809364e+01 1 0 0
754 34 6 0.0000000000000000e+00 -4.1803437892015172e-01 5.2709899557020634e+00 1.0503001622492256e+01 1 0 0
1387 75 2 0.0000000000000000e+00 -5.9126079637174929e+00 1.1897056834489051e+01 1.4176978359738390e+01 1 0 0
225 13 2 0.0000000000000000e+00 1.7373218078715074e+00 2.6880490889588096e+00 4.4225344551053447e-01 1 0 0
992 53 2 0.0000000000000000e+00 -7.3893245743651015e-01 6.4584597624059530e+00 1.1429071777111732e+00 1 0 0
980 53 4 0.0000000000000000e+00 -1.8617551241703651e+00 8.3362824480450914e+00 4.2983129714633295e+00 1 0 0
4389 233 4 0.0000000000000000e+00 3.4723596434935478e+00 1.5457362706646007e+00 3.4735112745619459e+00 1 1 0
1764 94 1 0.0000000000000000e+00 -5.1793077404914882e+00 1.6388262473802492e+01 1.2097613665146419e+01 1 0 0
979 53 3 0.0000000000000000e+00 -9.0640293842148756e-01 8.9588267178315970e+00 3.4888518262489701e+00 1 0 0
1361 74 2 0.0000000000000000e+00 -2.7855769318128840e+00 1.2614977383159133e+01 1.1040786098079696e+01 1 0 0
1355 74 7 0.0000000000000000e+00 -2.3431414906135291e+00 1.0764292017451744e+01 9.9390532490368653e+00 1 0 0
1002 54 2 0.0000000000000000e+00 -2.8252983746066000e+00 8.9582286428163638e+00 1.2493910990024865e+01 1 0 0
1270 69 2 0.0000000000000000e+00 -2.7229550653801082e+00 1.2764710885055928e+01 5.7122712847440136e+00 1 0 0
2253 93 6 0.0000000000000000e+00 -3.6975638920542186e-01 1.4282279086983184e+01 2.9936031995667753e+00 1 0 0
1493 53 6 0.0000000000000000e+00 -5.6368401861786310e-01 8.6451147746635666e+00 2.9515095262655922e+00 1 0 0
2117 114 3 0.0000000000000000e+00 -1.9576645651337188e-01 1.7710534542593017e+01 1.0396994662491110e+01 1 0 0
996 54 5 0.0000000000000000e+00 -5.4542337621564823e+00 8.8724193687614612e+00 1.1826133240582164e+01 1 0 0
990 53 1 0.0000000000000000e+00 -2.5022693191126018e+00 7.1720918753815113e+00 3.9005889777238014e+00 1 0 0
4399 234 1 0.0000000000000000e+00 -1.2585405676651753e+00 1.5398248047852019e+00 9.8043077135754615e+00 1 1 0
226 13 1 0.0000000000000000e+00 -1.6761834824605990e+00 6.9175261235708263e-01 4.7182041316916266e+00 1 0 0
4382 233 2 0.0000000000000000e+00 2.8597432525803690e-01 4.4408436052889472e-01 3.5917695371371376e+00 1 1 0
577 33 7 0.0000000000000000e+00 1.3767030133968445e+00 6.2145571633684549e+00 4.5194603208591619e+00 1 0 0
1744 93 2 0.0000000000000000e+00 -1.2986627246147968e+00 1.6445327311196237e+01 1.9049830446180094e+00 1 0 0
295 17 2 0.0000000000000000e+00 6.0523479961411546e+00 1.2023722901154937e-01 3.1519883640019315e+00 1 0 0
2131 114 2 0.0000000000000000e+00 -1.7020221728165641e-01 1.4404725495687414e+01 1.0994670138946191e+01 1 0 0
1371 74 2 0.0000000000000000e+00 7.5312546634215316e-01 9.5791897723815733e+00 9.1584074141071437e+00 1 0 0
4377 233 7 0.0000000000000000e+00 1.3644373951207398e+00 4.4373823135182067e-01 3.6518681039145457e+00 1 1 0
1353 73 2 0.0000000000000000e+00 2.7443585640630523e+00 1.3483133201016727e+01 1.9224467112061427e+00 1 0 0
1745 93 2 0.0000000000000000e+00 2.6862246183630778e+00 1.2268094574383969e+01 2.2732403628069604e+00 1 0 0
1338 73 5 0.0000000000000000e+00 4.3717610746803786e+00 1.1963481045170910e+01 5.0159797481529855e+00 1 0 0
1339 73 3 0.0000000000000000e+00 4.0723406761969994e+00 1.1238256095353453e+01 3.8819734579008909e+00 1 0 0
1340 73 4 0.0000000000000000e+00 4.3510423633695119e+00 9.9378362879208595e+00 4.0175620755061265e+00 1 0 0
1824 97 2 0.0000000000000000e+00 7.0645348304025344e+00 1.5549062622207661e+01 3.2518088390302624e-01 1 0 0
1756 94 5 0.0000000000000000e+00 -4.2428404092721008e+00 1.3973934290161910e+01 8.7641544197065784e+00 1 0 0
1826 97 2 0.0000000000000000e+00 3.9687246444010720e+00 1.3968725865917104e+01 2.9197664414323565e+00 1 0 0
988 53 3 0.0000000000000000e+00 -5.0670384649329292e-01 8.2124409188357301e+00 2.3593128163769053e+00 1 0 0
1348 73 3 0.0000000000000000e+00 3.4381403085948832e+00 1.1778493102350879e+01 2.8170038950213097e+00 1 0 0
1349 73 4 0.0000000000000000e+00 3.1895995976039417e+00 1.3165073425633008e+01 2.8098021738984755e+00 1 0 0
2274 114 6 0.0000000000000000e+00 -3.0343823167931561e-01 1.7019560219234862e+01 1.0289259532915590e+01 1 0 0
1513 73 6 0.0000000000000000e+00 3.7196909419716651e+00 1.1277056674864008e+01 3.2656065289542515e+00 1 0 0
1750 93 1 0.0000000000000000e+00 -2.1847136622106760e+00 1.5428499930193313e+01 3.6008023620795973e+00 1 0 0
1737 93 7 0.0000000000000000e+00 1.7111043532854397e+00 1.3910618214094226e+01 1.3384727629351110e+00 1 0 0
2531 134 2 0.0000000000000000e+00 -4.0588221961101567e+00 1.7737102605052637e+01 9.9771618391039123e+00 1 0 0
1347 73 4 0.0000000000000000e+00 3.0297783954163067e+00 1.0867979669449801e+01 1.8219739077623283e+00 1 0 0
1008 54 1 0.0000000000000000e+00 -2.0255670945259432e+00 8.7850931488727610e+00 1.0433513928182418e+01 1 0 0
248 14 1 0.0000000000000000e+00 -3.1820032200616417e+00 3.3028992575780354e+00 1.2294764411728545e+01 1 0 0
523 30 7 0.0000000000000000e+00 -6.5320458574396465e+00 4.9119310301065715e+00 1.1144998517746666e+01 1 0 0
244 14 1 0.0000000000000000e+00 -4.1600742650014180e+00 2.5915707549347595e+00 1.2940483426659968e+01 1 0 0
592 33 2 0.0000000000000000e+00 3.9119115128615016e+00 2.5788284402013910e+00 2.4429224418897704e+00 1 0 0
998 54 4 0.0000000000000000e+00 -3.0371133094415210e+00 8.8439666374439536e+00 1.1420929110009670e+01 1 0 0
1758 94 4 0.0000000000000000e+00 -3.7206236924406815e+00 1.5855944197237372e+01 1.0262240420664321e+01 1 0 0
2127 114 4 0.0000000000000000e+00 1.7675511617172823e-01 1.5395137883413593e+01 1.1084668652797500e+01 1 0 0
1748 93 3 0.0000000000000000e+00 -1.9995197793480157e-01 1.3650954583682013e+01 3.3397147453642608e+00 1 0 0
4393 233 2 0.0000000000000000e+00 3.9933567684737277e+00 2.4634275570817374e+00 3.3010616792986553e+00 1 1 0
1743 93 2 0.0000000000000000e+00 5.0742165539086459e-01 1.5580889908886885e+01 6.1882840474065304e-01 1 0 0
1742 93 2 0.0000000000000000e+00 2.4275787535770945e+00 1.4164793804015275e+01 5.3859839846194035e-01 1 0 0
1337 73 7 0.0000000000000000e+00 4.0618275447010097e+00 1.3327528546884468e+01 5.0859733275264389e+00 1 0 0
2102 113 2 0.0000000000000000e+00 3.1762413810158554e+00 1.6974981517909900e+01 7.0323780348918996e+00 1 0 0
1367 74 4 0.0000000000000000e+00 -3.1262880250113589e-02 1.0139644032595211e+01 9.6536890130712081e+00 1 0 0
2130 114 2 0.0000000000000000e+00 -1.9065415914534856e+00 1.4873412920570429e+01 9.5651039540552905e+00 1 0 0
217 13 7 0.0000000000000000e+00 2.1807943808603503e-01 3.9282431750418612e+00 1.3106905620149405e+00 1 0 0
2126 114 3 0.0000000000000000e+00 -5.1827344653897356e-01 1.6349379596002620e+01 1.0365680127267911e+01 1 0 0
608 34 1 0.0000000000000000e+00 -2.2347570696001746e+00 5.1696188935263692e+00 1.2402256945281890e+01 1 0 0
602 34 2 0.0000000000000000e+00 -1.2026321824764814e+00 6.9592619683170094e+00 1.2557566650132914e+01 1 0 0
2106 113 1 0.0000000000000000e+00 4.1348256423532499e+00 1.7768331161513835e+01 1.0195482072080742e+00 1 0 0
997 54 3 0.0000000000000000e+00 -4.4060452877805369e+00 8.6743586654117433e+00 1.0970867106823388e+01 1 0 0
1009 54 2 0.0000000000000000e+00 -1.5168308997062465e+00 8.2959066601427978e+00 8.3692704839693430e+00 1 0 0
1362 74 2 0.0000000000000000e+00 -1.1987222708877034e+00 1.4040054082915340e+01 1.1780968529370188e+01 1 0 0
1357 74 3 0.0000000000000000e+00 -6.3961991853050737e-01 1.2157176761502555e+01 1.0918453409503371e+01 1 0 0
586 33 1 0.0000000000000000e+00 5.4713818134679695e+00 4.0972306725331098e+00 2.2849794845964504e+00 1 0 0
1356 74 5 0.0000000000000000e+00 -2.0426229867387633e+00 1.1899196859647196e+01 1.0650499660511167e+01 1 0 0
1494 54 6 0.0000000000000000e+00 -4.5620489153872006e+00 8.4096968166193609e+00 1.0307549189310423e+01 1 0 0
984 53 2 0.0000000000000000e+00 -2.1708866934199080e+00 8.8722393028022815e+00 5.2243162846336029e+00 1 0 0
1762 94 2 0.0000000000000000e+00 -2.6990279940277060e+00 1.5889076583952933e+01 9.8389222417789188e+00 1 0 0
985 53 2 0.0000000000000000e+00 1.5761217453894778e+00 1.0593057532898236e+01 1.0491228532679111e+00 1 0 0
585 33 2 0.0000000000000000e+00 9.8016567174810110e-02 4.4270350549405881e+00 4.4688082089715397e+00 1 0 0
1514 74 6 0.0000000000000000e+00 -2.4187397051433912e-01 1.1652934103101208e+01 1.0561773184449997e+01 1 0 0
1752 93 2 0.0000000000000000e+00 -1.1378192769841757e+00 1.2482175415238904e+01 5.0051279028514406e+00 1 0 0
1344 73 2 0.0000000000000000e+00 4.8302931790091952e+00 9.6687336995285111e+00 4.9870802824432916e+00 1 0 0
1352 73 2 0.0000000000000000e+00 2.6720139350007259e+00 1.1311671890160687e+01 9.2242879078386686e-01 1 0 0
601 34 2 0.0000000000000000e+00 8.0461936121137967e-01 7.6085862194056944e+00 1.1196726859607905e+01 1 0 0
1366 74 3 0.0000000000000000e+00 3.3208992189185782e-01 1.1266063361396728e+01 1.0441540635251206e+01 1 0 0
2124 114 1 0.0000000000000000e+00 -2.2829541126537172e+00 1.6920401241293323e+01 8.8305025859453607e+00 1 0 0
977 53 7 0.0000000000000000e+00 5.3112027352650371e-01 1.0864374636805165e+01 2.9271526140180217e+00 1 0 0
1001 54 2 0.0000000000000000e+00 -5.1422170700999050e+00 9.1011116766775988e+00 1.2794981604959816e+01 1 0 0
4411 234 2 0.0000000000000000e+00 9.0062422955611243e-01 1.2791315763762761e+00 9.8554974746518660e+00 1 1 0
1365 74 4 0.0000000000000000e+00 1.6878275215727845e+00 1.1587159812232329e+01 1.0674163675925964e+01 1 0 0
582 33 2 0.0000000000000000e+00 6.7874902853707386e-01 6.9142023833816628e+00 4.9198998288758986e+00 1 0 0
1766 94 3 0.0000000000000000e+00 -5.7317566225954453e+00 1.4613589404079988e+01 1.0550878748723214e+01 1 0 0
1006 54 3 0.0000000000000000e+00 -4.7317276324053630e+00 8.3319258061775567e+00 9.6320432556034170e+00 1 0 0
236 14 5 0.0000000000000000e+00 -4.2838125644766789e+00 2.7924908397597297e+00 8.7672353805550038e+00 1 0 0
2108 113 3 0.0000000000000000e+00 3.7969248807943425e+00 1.6677902965610926e+01 3.2255511020298409e+00 1 0 0
1350 73 1 0.0000000000000000e+00 3.9342409013185815e+00 8.9743785922169952e+00 3.0380335687023745e+00 1 0 0
1753 93 2 0.0000000000000000e+00 9.4478170074224233e-01 1.1819517196481993e+01 3.9755062852132976e+00 1 0 0
224 13 2 0.0000000000000000e+00 -2.5889767084726185e+00 3.9168244968574513e+00 4.1698923064960836e+00 1 0 0
238 14 4 0.0000000000000000e+00 -3.2197263286454390e+00 3.3864539011227595e+00 1.0925972282848063e+01 1 0 0
1345 73 2 0.0000000000000000e+00 3.4410082525458336e+00 1.5037228755549419e+01 3.9071103819130943e+00 1 0 0
1346 73 1 0.0000000000000000e+00 3.2855422171369426e+00 9.4848389929140975e+00 1.9025916208155520e+00 1 0 0
603 34 2 0.0000000000000000e+00 2.3355243403162165e+00 4.9888771119096713e+00 8.3897267098413320e+00 1 0 0
4387 233 4 0.0000000000000000e+00 5.5405588009315343e+00 1.2897933124135888e-01 3.5274540174133318e+00 1 1 0
289 17 7 0.0000000000000000e+00 5.7684086154402650e+00 2.0267825808467390e+00 2.1732484098491556e+00 1 0 0
1827 98 7 0.0000000000000000e+00 2.5507052184542101e+00 1.5527539886744131e+01 9.0873415454888313e+00 1 0 0
242 14 2 0.0000000000000000e+00 -2.4724529115286282e+00 3.9521984018017204e+00 1.0382933738741773e+01 1 0 0
978 53 5 0.0000000000000000e+00 -3.7435134468332421e-01 1.0213496763683308e+01 3.7861544975983588e+00 1 0 0
2523 134 2 0.0000000000000000e+00 -2.3916614256422326e+00 1.7808785397837550e+01 1.1877835730515198e+01 1 0 0
528 30 2 0.0000000000000000e+00 -5.5159694256875627e+00 4.7721708985477242e+00 1.1520568124096938e+01 1 0 0
1739 93 3 0.0000000000000000e+00 -2.8685931522924957e-01 1.4639220811422433e+01 2.4304423476090484e+00 1 0 0
220 13 4 0.0000000000000000e+00 -2.0287289591560853e+00 3.0286527922910960e+00 4.0402053022829119e+00 1 0 0
249 14 2 0.0000000000000000e+00 -4.1936789515416635e+00 2.6221077823608421e+00 1.4034284304654227e+01 1 0 0
294 17 2 0.0000000000000000e+00 4.8765215680200216e+00 1.6427650983211997e+00 1.6989940152442911e+00 1 0 0
1741 93 1 0.0000000000000000e+00 1.8582746018673097e+00 1.2965548028639114e+01 2.2752526378995346e+00 1 0 0
233 13 2 0.0000000000000000e+00 1.3049765480020838e+00 7.8083503095058437e-01 2.0024159566363409e+00 1 0 0
1749 93 4 0.0000000000000000e+00 8.3647539294999396e-01 1.2692726405974595e+01 3.2471790288972082e+00 1 0 0
2273 113 6 0.0000000000000000e+00 3.6348290030665109e+00 1.7331216113551125e+01 3.4099852297432744e+00 1 0 0
229 13 4 0.0000000000000000e+00 7.4505333836913312e-01 1.6760106024493389e+00 2.0033104263411823e+00 1 0 0
604 34 1 0.0000000000000000e+00 -2.3406243662822108e+00 3.9352629661617451e+00 1.1728717375764935e+01 1 0 0
1368 74 1 0.0000000000000000e+00 9.4293930994482444e-01 1.3675538688023215e+01 1.1845564981600580e+01 1 0 0
995 54 7 0.0000000000000000e+00 -6.7954499829714274e+00 8.6730266129531000e+00 1.1446151926556128e+01 1 0 0
1740 93 4 0.0000000000000000e+00 -1.2980973795454160e+00 1.5592448204006882e+01 2.5093992983163638e+00 1 0 0
2101 113 1 0.0000000000000000e+00 3.6695639105987783e+00 1.5624088700265782e+01 5.4382056124983755e+00 1 0 0
2113 113 2 0.0000000000000000e+00 3.8932108476049567e+00 1.4665486310720137e+01 3.5846615002504514e+00 1 0 0
2097 113 7 0.0000000000000000e+00 3.5276563837220922e+00 1.6852799617220970e+01 6.0040274259582196e+00 1 0 0
2125 114 4 0.0000000000000000e+00 -1.5667281136242508e+00 1.5912351902157965e+01 9.5504565178500904e+00 1 0 0
1751 93 2 0.0000000000000000e+00 -2.9746018820194196e+00 1.4341201632238898e+01 5.2612773327309359e+00 1 0 0
2099 113 3 0.0000000000000000e+00 3.6891350469040933e+00 1.7927662381568968e+01 3.7986091132848010e+00 1 0 0
1291 70 2 0.0000000000000000e+00 -7.4367627911807519e+00 1.1407554454649182e+01 1.3785371249041171e+01 1 0 0
1354 73 2 0.0000000000000000e+00 4.0336151349792413e+00 7.8549717375610557e+00 3.2009103522412197e+00 1 0 0
1832 98 2 0.0000000000000000e+00 1.9816715197163575e+00 1.5824595463884123e+01 8.1826391874063908e+00 1 0 0
1004 54 1 0.0000000000000000e+00 -2.3360096494581417e+00 8.4030789674455715e+00 9.0728093560260987e+00 1 0 0
1765 94 4 0.0000000000000000e+00 -6.0705010832369943e+00 1.5459229673532739e+01 1.1639461347309195e+01 1 0 0
1746 93 1 0.0000000000000000e+00 -2.1882931200468265e+00 1.4342865476537632e+01 4.4906492011118875e+00 1 0 0
1761 94 2 0.0000000000000000e+00 -3.3191869615520595e+00 1.3981339285245198e+01 8.2362292923396350e+00 1 0 0
1823 97 2 0.0000000000000000e+00 4.7230567800017393e+00 1.5177240334616675e+01 7.5485798617410804e-01 1 0 0
1081 58 2 0.0000000000000000e+00 3.3008502867057619e+00 9.4043859010115600e+00 7.3790256449892215e+00 1 0 0
987 53 4 0.0000000000000000e+00 -1.0987691450718675e+00 7.0006682789683490e+00 2.0052634568118517e+00 1 0 0
4403 234 2 0.0000000000000000e+00 -1.2436196177255585e+00 2.5177727179859541e+00 9.3024006270602495e+00 1 1 0
1822 97 1 0.0000000000000000e+00 4.9896818155110960e+00 1.4161928794968643e+01 2.6927357134651766e+00 1 0 0
584 33 2 0.0000000000000000e+00 5.1836602393463673e+00 7.3750615936256025e+00 3.3775714701266670e+00 1 0 0
600 34 2 0.0000000000000000e+00 2.2818918419590153e+00 7.1164483175376159e+00 9.3149456303081006e+00 1 0 0
1833 98 2 0.0000000000000000e+00 3.1569786122788894e+00 1.3659925359307165e+01 8.3539284323025615e+00 1 0 0
1819 97 4 0.0000000000000000e+00 6.7088826601647300e+00 1.5063445292645710e+01 1.2870510342569297e+00 1 0 0
1066 57 2 0.0000000000000000e+00 7.5915806386430624e+00 1.0425086413366619e+01 -1.0747515866740967e-01 1 0 0
1342 73 2 0.0000000000000000e+00 4.4045912787153663e+00 1.3960651946716359e+01 5.9304499174575716e+00 1 0 0
1299 70 2 0.0000000000000000e+00 -6.9290846207072212e+00 1.2732436572031324e+01 1.1781287401249763e+01 1 0 0
510 29 2 0.0000000000000000e+00 -3.9340833418627836e+00 4.6663392666303576e+00 6.6804839278942119e+00 1 0 0
1407 76 2 0.0000000000000000e+00 -7.2130481082586915e+00 9.4160193174683648e+00 2.5528790617743883e+01 1 0 0
1020 55 2 0.0000000000000000e+00 -8.6778754575119113e+00 9.7839150538675650e+00 1.5300556552989958e+01 1 0 0
255 15 3 0.0000000000000000e+00 -9.5345192136289665e+00 2.6281945707626768e+00 1.7785691752597490e+01 1 0 0
287 16 2 0.0000000000000000e+00 -1.4666426312390163e+01 1.5264005001189709e+00 2.7841899498001034e+01 1 0 0
1063 57 2 0.0000000000000000e+00 -8.8974783476059720e+00 8.2101999555788101e+00 2.8951144487156821e+01 1 0 -1
1386 75 1 0.0000000000000000e+00 -6.3844787001548493e+00 1.0532157030519970e+01 1.5628195927341032e+01 1 0 0
1778 95 2 0.0000000000000000e+00 -8.9527545792364673e+00 1.7861447117289302e+01 1.7824138334009628e+01 1 0 0
264 15 3 0.0000000000000000e+00 -8.3868573095160350e+00 1.9517387645977795e+00 1.8211195306029765e+01 1 0 0
628 35 2 0.0000000000000000e+00 -5.9539766724454246e+00 6.2116802114240368e+00 1.6195045927563246e+01 1 0 0
1776 95 4 0.0000000000000000e+00 -9.3492566248230240e+00 1.3747311892444474e+01 1.9811708128530608e+01 1 0 0
564 32 2 0.0000000000000000e+00 -1.4193557561117196e+01 6.1782183549027430e+00 2.4499756427865673e+01 1 0 0
735 15 6 0.0000000000000000e+00 -8.9320560884825770e+00 2.4047762955469763e+00 1.8068038725041063e+01 1 0 0
1775 95 3 0.0000000000000000e+00 -9.2220338463517013e+00 1.4594578892874287e+01 1.8666103875396249e+01 1 0 0
1022 55 1 0.0000000000000000e+00 -6.4098651466674204e+00 9.2926104270992180e+00 1.7697835953901372e+01 1 0 0
1102 59 2 0.0000000000000000e+00 -1.7925376634895374e+00 7.2169731903356711e+00 1.4836209164189050e+01 1 0 0
1037 56 2 0.0000000000000000e+00 -1.4650802131642088e+01 1.0812627116492397e+01 2.6169184029560917e+01 1 0 0
615 35 3 0.0000000000000000e+00 -4.8892138091891599e+00 4.5214861437250677e+00 1.8920200727536290e+01 1 0 0
262 15 1 0.0000000000000000e+00 -7.0051360387341246e+00 3.7535444858023017e+00 1.7226459904352811e+01 1 0 0
2095 112 2 0.0000000000000000e+00 -1.4879524726915774e+01 1.5961035995149153e+01 2.5774695311687054e+01 1 0 0
624 35 3 0.0000000000000000e+00 -4.9254718655272489e+00 5.4324282884257364e+00 1.7865278023153316e+01 1 0 0
625 35 4 0.0000000000000000e+00 -3.9832599476189960e+00 6.4117345431624369e+00 1.7799271735948338e+01 1 0 0
1849 99 1 0.0000000000000000e+00 -2.4554840561896389e+00 1.3757128699357496e+01 1.6726258293554530e+01 1 0 0
755 35 6 0.0000000000000000e+00 -4.9486900706401409e+00 5.1138910956296826e+00 1.8454544378550725e+01 1 0 0
288 16 2 0.0000000000000000e+00 -1.2234325603567456e+01 8.7100735762884274e-01 2.2729415374178942e+01 1 0 0
614 35 5 0.0000000000000000e+00 -3.8415055651924845e+00 4.5688406789273142e+00 1.9867428294763052e+01 1 0 0
1799 96 2 0.0000000000000000e+00 -1.4348264528676808e+01 1.1061316473253836e+01 2.5449020716281861e+01 1 0 0
1783 95 4 0.0000000000000000e+00 -9.0539580419607546e+00 1.2621881725168505e+01 1.7251560692882212e+01 1 0 0
616 35 4 0.0000000000000000e+00 -5.7124606811384435e+00 3.4220004799067731e+00 1.8913916353031102e+01 1 0 0
1803 96 4 0.0000000000000000e+00 -1.4150585880343018e+01 1.3187599667034442e+01 2.5935913799342405e+01 1 0 0
636 36 2 0.0000000000000000e+00 -1.1127692844914883e+01 8.1716454843749773e+00 2.5074774866633771e+01 1 0 0
1779 95 2 0.0000000000000000e+00 -9.4764528241642836e+00 1.6322070030387898e+01 1.9849318217323255e+01 1 0 0
1017 55 1 0.0000000000000000e+00 -1.0700072355317467e+01 7.3152079422887342e+00 1.8975640677053903e+01 1 0 0
265 15 4 0.0000000000000000e+00 -8.5197926959655383e+00 7.7297344653472522e-01 1.8942842328820667e+01 1 0 0
2137 115 1 0.0000000000000000e+00 -6.6606687137962810e+00 1.6082777384537710e+01 1.9267677232419484e+01 1 0 0
634 36 4 0.0000000000000000e+00 -1.0364388320795465e+01 3.7011736574755849e+00 2.6068223107328926e+01 1 0 0
1389 75 2 0.0000000000000000e+00 -2.8185677235685329e+00 1.2721016518703960e+01 1.7557048604870275e+01 1 0 0
1795 96 1 0.0000000000000000e+00 -1.3960959250844923e+01 1.2036413617126057e+01 2.5171686718361624e+01 1 0 0
4445 236 2 0.0000000000000000e+00 -9.5206692303117979e+00 4.0370673164686272e-01 2.9228254965123405e+01 1 1 0
639 36 2 0.0000000000000000e+00 -8.9298500432457395e+00 8.3493791422396342e+00 2.4047687014018152e+01 1 0 0
1789 95 2 0.0000000000000000e+00 -8.7996773888532100e+00 1.4351771215589022e+01 1.5276282052725966e+01 1 0 0
4419 235 2 0.0000000000000000e+00 -2.9678442774675311e+00 1.2462289023603681e+00 1.9139377161269717e+01 1 1 0
1406 76 2 0.0000000000000000e+00 -9.4227191602302600e+00 8.5599570105836911e+00 2.4574080418964730e+01 1 0 0
1800 96 1 0.0000000000000000e+00 -1.3122227564523758e+01 1.6787297536396576e+01 2.5974426256031212e+01 1 0 0