LAMMPS (15 May 2015)
Reading data file ...
  triclinic box = (-0.107635 -0.0404339 -0.357111) to (41.3876 35.9384 29.5551) with tilt (-0.0672341 -17.0362 -0.0417078)
  5 by 2 by 2 MPI processor grid
  reading atoms ...
  4560 atoms
  reading velocities ...
  4560 velocities
  scanning bonds ...
  3 = max bonds/atom
  scanning angles ...
  3 = max angles/atom
  scanning dihedrals ...
  8 = max dihedrals/atom
  scanning impropers ...
  1 = max impropers/atom
  reading bonds ...
  5040 bonds
  reading angles ...
  7200 angles
  reading dihedrals ...
  10560 dihedrals
  reading impropers ...
  2400 impropers
Finding 1-2 1-3 1-4 neighbors ...
 Special bond factors lj:   0          0          0         
 Special bond factors coul: 0          0          0         
  4 = max # of 1-2 neighbors
  8 = max # of 1-3 neighbors
  20 = max # of 1-4 neighbors
  16 = max # of special neighbors
4560 atoms in group all
720 atoms in group C
480 atoms in group S
1920 atoms in group H
720 atoms in group Si
240 atoms in group Na
240 atoms in group Ba
240 atoms in group O
4560 atoms in group naphthalene
2400 atoms in group carbon
960 atoms in group CO
Setting atom values ...
  720 settings made for charge
Setting atom values ...
  720 settings made for charge
Setting atom values ...
  1920 settings made for charge
Setting atom values ...
  480 settings made for charge
Setting atom values ...
  240 settings made for charge
Setting atom values ...
  240 settings made for charge
Setting atom values ...
  240 settings made for charge
Finding 1-2 1-3 1-4 neighbors ...
 Special bond factors lj:   0          0          0.5       
 Special bond factors coul: 0          0          0.5       
  4 = max # of 1-2 neighbors
  8 = max # of 1-3 neighbors
  20 = max # of 1-4 neighbors
  16 = max # of special neighbors
Neighbor list info ...
  4 neighbor list requests
  update every 1 steps, delay 0 steps, check yes
  master list distance cutoff = 12
Setting up run ...
Memory usage per processor = 13.4064 Mbytes
Step Temp Density PotEng E_vdwl E_tail E_coul E_long Press Volume Xy Xz Yz E_mol E_bond E_angle E_dihed 14[1] 14[2] 14[3] msd[4] msd2[4] msd3[4] msd4[4] naphthal Cella Cellb Cellc CellAlpha CellBeta CellGamma 2 3 27[1] 27[2] 27[3] 28[1] 28[2] 28[3] 
       0          298    1.2509986     3498.833            0            0            0            0   -15873.524    44657.537 -0.067234084   -17.036218 -0.041707817     3498.833    1521.0094     935.4334    889.67826    28.379601    18.846571    14.337846 7.7711016e-30 8.8746852e-30 6.8181724e-30 5.7534156e-30          298     41.49527    35.978931    34.423473    90.016431    119.66323    90.107069 3.7145981e-31 4.9466509e-24    28.379557    18.849013    14.339638    28.379812    18.845474    14.337264 
   10000    299.17135    1.2509986    3584.1734            0            0            0            0     613.0975    44657.537 -0.067234084   -17.036218 -0.041707817    3584.1734    1496.3849    1037.7925    900.21978    28.379942    18.850956    14.336623 0.0003653776 0.00036366446    2.3385848    2.3385516    299.17135     41.49527    35.978931    34.423473    90.016431    119.66323    90.107069   0.11225207    219.22656    28.379386    18.849825    14.338626    28.380985    18.851077    14.337937 
   20000    295.44622    1.2509986    3601.6531            0            0            0            0   -664.24192    44657.537 -0.067234084   -17.036218 -0.041707817    3601.6531    1504.4293    1004.9723    931.40597     28.38364    18.847042     14.34575 0.00033428027 0.00033073947    4.0434942    4.0433874    295.44622     41.49527    35.978931    34.423473    90.016431    119.66323    90.107069   0.19408772    200.56816    28.378806    18.847531    14.340523    28.383798    18.847401    14.346602 
   30000    296.22856    1.2509986    3667.3312            0            0            0            0    914.73579    44657.537 -0.067234084   -17.036218 -0.041707817    3667.3312    1513.5547    1049.9498    944.00539    28.386214     18.85162    14.333548 0.00034346008 0.00034220724    4.7219051    4.7218218    296.22856     41.49527    35.978931    34.423473    90.016431    119.66323    90.107069   0.22665144    206.07605    28.379175    18.848235    14.340346    28.385231    18.851516    14.333097 
   40000    299.36218    1.2509986    3612.5567            0            0            0            0    1347.5331    44657.537 -0.067234084   -17.036218 -0.041707817    3612.5567    1423.4722    1111.7737    920.66242    28.371716    18.845942    14.337167 0.00037769862 0.00037694513      5.21862    5.2185725    299.36218     41.49527    35.978931    34.423473    90.016431    119.66323    90.107069   0.25049376    226.61917    28.379168    18.848615    14.338972    28.373025    18.846533      14.3378 
   50000    302.76418    1.2509986    3594.3691            0            0            0            0     347.4304    44657.537 -0.067234084   -17.036218 -0.041707817    3594.3691    1458.0722     1030.337    947.68488    28.380273     18.85507    14.339962 0.0003394616 0.00033705604    5.7545534    5.7544197    302.76418     41.49527    35.978931    34.423473    90.016431    119.66323    90.107069   0.27621856    203.67696    28.380599    18.849328    14.340743    28.381584    18.856724    14.339268 
   60000    305.13849    1.2509986    3633.9033            0            0            0            0    2172.6347    44657.537 -0.067234084   -17.036218 -0.041707817    3633.9033    1487.6106    992.07309    982.94552    28.384613    18.851559    14.339303 0.00031808912 0.00031795527    6.2948923    6.2948275    305.13849     41.49527    35.978931    34.423473    90.016431    119.66323    90.107069   0.30215483    190.85347    28.379241     18.84919    14.339583    28.383927    18.851664    14.340357 
   70000    300.50267    1.2509986    3568.2529            0            0            0            0     1539.471    44657.537 -0.067234084   -17.036218 -0.041707817    3568.2529    1435.9606    1025.1723    948.79577    28.381684     18.85054    14.343601 0.00034321674 0.00034205668    6.3074325    6.3073581    300.50267     41.49527    35.978931    34.423473    90.016431    119.66323    90.107069   0.30275676    205.93004    28.379958    18.850011    14.339683    28.383044    18.850289    14.343648 
   80000    298.96571    1.2509986    3581.5146            0            0            0            0   -1691.3616    44657.537 -0.067234084   -17.036218 -0.041707817    3581.5146    1481.8392    1029.3316    910.41091    28.376722    18.852236     14.34115 0.0003829542 0.00038118599    6.4503128      6.45023    298.96571     41.49527    35.978931    34.423473    90.016431    119.66323    90.107069   0.30961501    229.77252    28.380514    18.849705    14.339028    28.377336    18.853055    14.341645 
   90000    301.69245    1.2509986    3585.9919            0            0            0            0    221.62845    44657.537 -0.067234084   -17.036218 -0.041707817    3585.9919    1521.6106    1011.8519    900.48057    28.386071    18.852178    14.337566 0.0003742627 0.00036845818     6.601677    6.6015882    301.69245     41.49527    35.978931    34.423473    90.016431    119.66323    90.107069    0.3168805    224.55762    28.381102    18.850724    14.340335    28.385735    18.852709    14.338425 
  100000     303.3201    1.2509986    3639.4553            0            0            0            0   -550.28946    44657.537 -0.067234084   -17.036218 -0.041707817    3639.4553    1521.5997    1041.6853    917.73792    28.378426     18.85042    14.337008 0.00034387652 0.0003433383    6.6338454    6.6338274     303.3201     41.49527    35.978931    34.423473    90.016431    119.66323    90.107069   0.31842458    206.32591    28.380235    18.848751    14.339541    28.378551    18.849511    14.337557 
  110000    297.72809    1.2509986      3638.44            0            0            0            0   -30.747647    44657.537 -0.067234084   -17.036218 -0.041707817      3638.44    1496.6785    1045.9509    936.90711    28.379137    18.853991    14.333546 0.00037802241 0.00037484281    6.3413045    6.3412052    297.72809     41.49527    35.978931    34.423473    90.016431    119.66323    90.107069   0.30438262    226.81345    28.378071    18.848739    14.340586    28.379749    18.854799    14.333748 
  120000    298.95831    1.2509986    3672.6411            0            0            0            0   -889.17702    44657.537 -0.067234084   -17.036218 -0.041707817    3672.6411    1568.4838    1044.8881    900.73384     28.37482    18.845425    14.341994 0.0003321988 0.00032912809    6.6310083    6.6309663    298.95831     41.49527    35.978931    34.423473    90.016431    119.66323    90.107069    0.3182884    199.31928    28.379437      18.8473    14.339287    28.374329    18.845887    14.340697 
  130000    300.84794    1.2509986    3643.4571            0            0            0            0    1567.0222    44657.537 -0.067234084   -17.036218 -0.041707817    3643.4571    1504.9233    1011.7301    963.79861    28.379719     18.85203    14.334916 0.00033870767 0.00033691111    6.9176824    6.9176506    300.84794     41.49527    35.978931    34.423473    90.016431    119.66323    90.107069   0.33204876     203.2246    28.380089    18.848194    14.340556    28.380278    18.850843    14.335614 
  140000    292.40543    1.2509986    3636.5757            0            0            0            0     1258.483    44657.537 -0.067234084   -17.036218 -0.041707817    3636.5757     1500.733    1022.1572    944.13492    28.378081    18.841749    14.345717 0.00034859451 0.00034833793    6.7376136    6.7375184    292.40543     41.49527    35.978931    34.423473    90.016431    119.66323    90.107069   0.32340545    209.15671    28.379842    18.848716    14.339933    28.376139      18.8413    14.345279 
  150000     297.2211    1.2509986     3546.881            0            0            0            0   -1033.8941    44657.537 -0.067234084   -17.036218 -0.041707817     3546.881    1501.6672    1014.2334    877.57002    28.380438    18.858368    14.337056 0.00034932779 0.00034874835    6.8918568    6.8917141     297.2211     41.49527    35.978931    34.423473    90.016431    119.66323    90.107069   0.33080912    209.59668    28.379111    18.848402    14.339546    28.379601    18.857377    14.338261 
  160000    295.67411    1.2509986    3546.6162            0            0            0            0    1251.0666    44657.537 -0.067234084   -17.036218 -0.041707817    3546.6162    1459.5636    1025.0095    906.18072    28.378168    18.849221    14.340139   0.00035554 0.00035378865    6.8744459    6.8744199    295.67411     41.49527    35.978931    34.423473    90.016431    119.66323    90.107069    0.3299734      213.324    28.379754    18.847814    14.340162    28.376665    18.848718     14.33961 
  170000    299.50931    1.2509986    3572.5534            0            0            0            0   -608.86393    44657.537 -0.067234084   -17.036218 -0.041707817    3572.5534    1513.3324    991.99786    912.58543    28.383659    18.838912    14.344137  0.000341609 0.00034125826    6.7515289    6.7514181    299.50931     41.49527    35.978931    34.423473    90.016431    119.66323    90.107069   0.32407339     204.9654     28.38011    18.849188    14.339755    28.382598    18.837921    14.344048 
  180000    298.28733    1.2509986     3604.475            0            0            0            0    327.45424    44657.537 -0.067234084   -17.036218 -0.041707817     3604.475    1487.9863    1048.4336    913.45438    28.384094    18.846429    14.332228 0.00033419212 0.00033242851    6.8081968    6.8081363    298.28733     41.49527    35.978931    34.423473    90.016431    119.66323    90.107069   0.32679344    200.51527    28.379403    18.848836    14.338331    28.385287    18.847457    14.332108 
  190000    294.18799    1.2509986    3507.7548            0            0            0            0    238.37679    44657.537 -0.067234084   -17.036218 -0.041707817    3507.7548    1446.2043    1022.0356    885.69383    28.373323    18.844264    14.340976 0.00034465162 0.00034173535    6.6948294    6.6947696    294.18799     41.49527    35.978931    34.423473    90.016431    119.66323    90.107069   0.32135181    206.79097    28.378723    18.847549    14.339917    28.372791     18.84551    14.340509 
  200000    302.57239    1.2509986    3597.2385            0            0            0            0   -825.31992    44657.537 -0.067234084   -17.036218 -0.041707817    3597.2385    1479.2239    1011.1965    951.53798    28.385092    18.850629    14.342163 0.00034193968 0.00034161968    6.8040204    6.8039101    302.57239     41.49527    35.978931    34.423473    90.016431    119.66323    90.107069   0.32659298    205.16381    28.379691    18.848504    14.339431    28.386912    18.851804     14.34172 
  210000    302.51774    1.2509986    3623.2149            0            0            0            0    875.68706    44657.537 -0.067234084   -17.036218 -0.041707817    3623.2149    1458.5906    1030.1056    969.64037    28.383371    18.844193    14.337967 0.0003979505 0.00039700425    7.0522571    7.0522447    302.51774     41.49527    35.978931    34.423473    90.016431    119.66323    90.107069   0.33850834     238.7703    28.379861    18.848302    14.339048    28.383191    18.844667    14.337869 
  220000    305.21239    1.2509986    3605.7406            0            0            0            0    1667.1392    44657.537 -0.067234084   -17.036218 -0.041707817    3605.7406    1494.2617    1037.4577    917.34572    28.385984    18.851357    14.343356 0.00035398129 0.00034986086    6.7174763    6.7173731    305.21239     41.49527    35.978931    34.423473    90.016431    119.66323    90.107069   0.32243886    212.38877    28.381053    18.849855    14.338556    28.384614     18.85118    14.344158 
  230000    295.77206    1.2509986    3737.5327            0            0            0            0    266.94741    44657.537 -0.067234084   -17.036218 -0.041707817    3737.5327    1508.6185    1087.9937    975.04491    28.375934    18.847249    14.340696 0.00034172788 0.00034109777     6.699951    6.6999331    295.77206     41.49527    35.978931    34.423473    90.016431    119.66323    90.107069   0.32159765    205.03673    28.379976    18.849041    14.338965    28.376885    18.847249    14.339746 
  240000    304.04552    1.2509986    3466.1736            0            0            0            0     1364.771    44657.537 -0.067234084   -17.036218 -0.041707817    3466.1736    1447.1868    995.38575    880.76408    28.378244     18.84696    14.333204 0.00034208715 0.00033814957    7.0407691    7.0407457    304.04552     41.49527    35.978931    34.423473    90.016431    119.66323    90.107069   0.33795692    205.25229    28.379901     18.84706    14.339579    28.378974    18.847678    14.333046 
  250000    297.55071    1.2509986    3555.4644            0            0            0            0    183.13841    44657.537 -0.067234084   -17.036218 -0.041707817    3555.4644    1515.4563     1016.875    874.45947    28.381396    18.849598    14.342766 0.00035267029 0.00035080201     6.999918    6.9998759    297.55071     41.49527    35.978931    34.423473    90.016431    119.66323    90.107069   0.33599606    211.60217    28.378376    18.848553    14.340151    28.382755    18.846456    14.342963 
  260000    295.70112    1.2509986    3644.6437            0            0            0            0    789.09544    44657.537 -0.067234084   -17.036218 -0.041707817    3644.6437    1514.0925     1040.532    930.03129    28.374292    18.851081     14.33814 0.00033931396 0.00033821783    6.7571118    6.7570314    295.70112     41.49527    35.978931    34.423473    90.016431    119.66323    90.107069   0.32434137    203.58838    28.379648    18.848794    14.340658    28.374129    18.852413    14.337329 
  270000    293.05323    1.2509986    3649.4459            0            0            0            0   -845.29678    44657.537 -0.067234084   -17.036218 -0.041707817    3649.4459    1495.5129    1024.3077    964.64977    28.377142     18.85437    14.336143 0.00034572076 0.00034404719    6.6870801    6.6869566    293.05323     41.49527    35.978931    34.423473    90.016431    119.66323    90.107069   0.32097985    207.43246    28.378464    18.848926    14.340325    28.376605    18.855296    14.333162 
  280000    298.72188    1.2509986    3644.8057            0            0            0            0   -722.95848    44657.537 -0.067234084   -17.036218 -0.041707817    3644.8057    1521.5534    1053.3521    913.01597     28.37956    18.846017    14.344029 0.00034986477 0.00034811902    6.8775309    6.8774564    298.72188     41.49527    35.978931    34.423473    90.016431    119.66323    90.107069   0.33012148    209.91886    28.379195    18.850261    14.339875    28.378376      18.8466    14.345702 
  290000    298.09352    1.2509986    3563.0624            0            0            0            0   -517.63446    44657.537 -0.067234084   -17.036218 -0.041707817    3563.0624    1469.4747    1002.0693     936.8644    28.370914    18.845676     14.33674 0.00038831726 0.0003880768    6.9208574    6.9207828    298.09352     41.49527    35.978931    34.423473    90.016431    119.66323    90.107069   0.33220116    232.99036    28.379133    18.849115    14.339413    28.371441    18.847341    14.336249 
  300000    301.57539    1.2509986    3639.3974            0            0            0            0   -1979.2094    44657.537 -0.067234084   -17.036218 -0.041707817    3639.3974    1480.7076    1015.0262      976.343    28.377281    18.851566    14.338741 0.00038585412 0.00038426467    6.8610344    6.8609506    301.57539     41.49527    35.978931    34.423473    90.016431    119.66323    90.107069   0.32932965    231.51247    28.378744    18.848431     14.33887     28.37564    18.852674    14.341092 
  310000     302.6355    1.2509986    3648.7614            0            0            0            0    1245.8145    44657.537 -0.067234084   -17.036218 -0.041707817    3648.7614    1510.6203     1049.532    930.79445     28.37739     18.85348     14.34269 0.00036395428 0.00036249249    7.1036285    7.1034788     302.6355     41.49527    35.978931    34.423473    90.016431    119.66323    90.107069   0.34097417    218.37257     28.37977    18.850203    14.339622    28.376633    18.855456    14.343591 
  320000    294.42067    1.2509986    3605.8136            0            0            0            0    2224.5382    44657.537 -0.067234084   -17.036218 -0.041707817    3605.8136    1513.3536      1004.92      933.602    28.377882    18.846878    14.341066 0.00033858767 0.00033579369    7.0010849    7.0010725    294.42067     41.49527    35.978931    34.423473    90.016431    119.66323    90.107069   0.33605208     203.1526    28.378041    18.848654    14.339031    28.377383     18.84701    14.339305 
  330000    293.51381    1.2509986    3633.2978            0            0            0            0   -767.93762    44657.537 -0.067234084   -17.036218 -0.041707817    3633.2978    1454.2854    1053.4389    964.46619    28.380992    18.849276    14.343119 0.00034775574 0.0003450403    7.0518242    7.0517618    293.51381     41.49527    35.978931    34.423473    90.016431    119.66323    90.107069   0.33848756    208.65344    28.379888    18.850129    14.340804    28.381872     18.84962    14.343665 
  340000     299.3893    1.2509986    3629.0058            0            0            0            0   -189.63316    44657.537 -0.067234084   -17.036218 -0.041707817    3629.0058    1505.7484    1059.9036    910.24089    28.375076    18.840887    14.342904 0.00038017566 0.00037885267    7.0116541     7.011538     299.3893     41.49527    35.978931    34.423473    90.016431    119.66323    90.107069    0.3365594     228.1054    28.380375    18.848504    14.340266    28.374082    18.840313     14.34479 
  350000    303.84812    1.2509986    3593.9811            0            0            0            0   -601.40435    44657.537 -0.067234084   -17.036218 -0.041707817    3593.9811    1485.7621    1009.5229    939.69537    28.377337    18.845592    14.338476 0.00037485769 0.00037382119    7.0143784    7.0143493    303.84812     41.49527    35.978931    34.423473    90.016431    119.66323    90.107069   0.33669016    224.91461    28.379232    18.849953    14.339856    28.374928     18.84719    14.335765 
  360000    296.81863    1.2509986    3596.7604            0            0            0            0    562.39023    44657.537 -0.067234084   -17.036218 -0.041707817    3596.7604    1497.2669    1020.0129    926.59416    28.378603    18.849049      14.3403 0.00036307189 0.00036019609     6.847296    6.8472528    296.81863     41.49527    35.978931    34.423473    90.016431    119.66323    90.107069   0.32867021    217.84313    28.379676    18.850315    14.338559     28.37921    18.849825    14.342151 
  370000    295.72635    1.2509986     3592.473            0            0            0            0    426.30114    44657.537 -0.067234084   -17.036218 -0.041707817     3592.473    1488.6002    1019.7227    930.74577    28.381371    18.837664    14.331199 0.00035854929 0.00035428166    6.8138711     6.813741    295.72635     41.49527    35.978931    34.423473    90.016431    119.66323    90.107069   0.32706581    215.12958    28.378133    18.848212    14.338374    28.380603    18.835318     14.33214 
  380000    301.11461    1.2509986    3585.8783            0            0            0            0   -1335.3879    44657.537 -0.067234084   -17.036218 -0.041707817    3585.8783    1468.5766    1006.8278    952.38252    28.375957    18.849582    14.339975 0.00033401025 0.00033240363    6.9432272    6.9431955    301.11461     41.49527    35.978931    34.423473    90.016431    119.66323    90.107069    0.3332749    200.40615    28.378484    18.849521    14.339193    28.375914    18.848852    14.339511 
  390000      299.366    1.2509986     3557.271            0            0            0            0    487.87938    44657.537 -0.067234084   -17.036218 -0.041707817     3557.271    1476.6168     1020.662    905.59993    28.381384    18.843194    14.340101 0.00033902738 0.00033842424    6.7087166    6.7086758      299.366     41.49527    35.978931    34.423473    90.016431    119.66323    90.107069    0.3220184    203.41643    28.379322    18.848851    14.340361    28.383284    18.841837    14.341206 
  400000    296.11239    1.2509986    3611.9175            0            0            0            0    759.63167    44657.537 -0.067234084   -17.036218 -0.041707817    3611.9175    1496.9291    1068.1742    893.28117    28.383215    18.846677    14.337719 0.00033646757 0.00033625335    6.7397473    6.7397287    296.11239     41.49527    35.978931    34.423473    90.016431    119.66323    90.107069   0.32350787    201.88054    28.379933     18.84926    14.339747    28.381231    18.849326    14.335969 
  410000    295.08414    1.2509986    3625.1489            0            0            0            0    937.30185    44657.537 -0.067234084   -17.036218 -0.041707817    3625.1489     1443.903    1039.2936    978.20639    28.377196     18.84632    14.337202 0.00033102427 0.00032891954    6.5185657    6.5185575    295.08414     41.49527    35.978931    34.423473    90.016431    119.66323    90.107069   0.31289115    198.61456    28.379096    18.847638    14.339686    28.377111    18.845216    14.336313 
  420000    299.03529    1.2509986     3571.809            0            0            0            0   -285.60875    44657.537 -0.067234084   -17.036218 -0.041707817     3571.809    1484.3009    1022.8634    908.30432    28.375466    18.848541    14.339325 0.00034406645 0.00034301207     6.846499     6.846467    299.03529     41.49527    35.978931    34.423473    90.016431    119.66323    90.107069   0.32863195    206.43987    28.380222    18.848949    14.338858    28.375884    18.849156    14.338995 
  430000    295.69317    1.2509986    3575.8368            0            0            0            0    943.71988    44657.537 -0.067234084   -17.036218 -0.041707817    3575.8368    1500.5845     1028.553    887.97166    28.378997    18.845314     14.33404 0.00034398608 0.00034398479    6.7908836    6.7908656    295.69317     41.49527    35.978931    34.423473    90.016431    119.66323    90.107069   0.32596241    206.39165    28.379588    18.848999    14.339628    28.379285    18.847746    14.333714 
  440000    298.26821    1.2509986     3534.882            0            0            0            0    423.46408    44657.537 -0.067234084   -17.036218 -0.041707817     3534.882    1438.9601    978.15058    961.39423    28.374971    18.852466    14.335119 0.00033927369 0.0003389073    6.9602976     6.960189    298.26821     41.49527    35.978931    34.423473    90.016431    119.66323    90.107069   0.33409428    203.56422     28.37907    18.849017    14.339278    28.371575    18.850108    14.332876 
  450000    298.25053    1.2509986    3466.9362            0            0            0            0    443.90109    44657.537 -0.067234084   -17.036218 -0.041707817    3466.9362    1401.3906    998.32062    911.69379    28.378336    18.848237    14.341217 0.00034362892 0.00034203299    6.5525685    6.5525276    298.25053     41.49527    35.978931    34.423473    90.016431    119.66323    90.107069   0.31452329    206.17735    28.378411    18.848498    14.339498    28.378168    18.848604    14.342598 
  460000    301.97287    1.2509986    3555.1282            0            0            0            0    415.68584    44657.537 -0.067234084   -17.036218 -0.041707817    3555.1282     1501.475    981.52241    917.56247    28.380947    18.849571    14.343385 0.00036986922 0.00036949285    6.7682414    6.7681882    301.97287     41.49527    35.978931    34.423473    90.016431    119.66323    90.107069   0.32487559    221.92153    28.379789    18.849369    14.340081    28.382744      18.8487    14.343113 
  470000    297.60952    1.2509986    3613.5768            0            0            0            0    392.10411    44657.537 -0.067234084   -17.036218 -0.041707817    3613.5768     1512.083    1034.1875    907.52842    28.382294    18.851102    14.340076 0.00034169921 0.00034066126    6.6304924    6.6304534    297.60952     41.49527    35.978931    34.423473    90.016431    119.66323    90.107069   0.31826363    205.01953    28.380039    18.849282    14.338782    28.381909     18.85088    14.339591 
  480000    303.53271    1.2509986     3564.318            0            0            0            0     167.4283    44657.537 -0.067234084   -17.036218 -0.041707817     3564.318    1449.6659    1014.0519    939.73934    28.376425    18.851803    14.338669 0.00037345967 0.00037281045    6.6593868    6.6593214    303.53271     41.49527    35.978931    34.423473    90.016431    119.66323    90.107069   0.31965057     224.0758    28.379582    18.848428    14.340191    28.375715    18.852444    14.337427 
  490000     301.3446    1.2509986    3653.9859            0            0            0            0   -218.34627    44657.537 -0.067234084   -17.036218 -0.041707817    3653.9859     1530.456    1044.0128      924.648    28.379723    18.842139    14.343434 0.00033524082 0.00033463255    6.9599996    6.9599636     301.3446     41.49527    35.978931    34.423473    90.016431    119.66323    90.107069   0.33407998    201.14449    28.379413    18.848921    14.340399    28.378795    18.841922    14.341996 
  500000    291.83639    1.2509986      3637.48            0            0            0            0    1402.9025    44657.537 -0.067234084   -17.036218 -0.041707817      3637.48    1483.8993    1036.8667     954.7934    28.383273    18.842423    14.340191 0.00036094264 0.00035987327    6.9391872    6.9391376    291.83639     41.49527    35.978931    34.423473    90.016431    119.66323    90.107069   0.33308098    216.56558      28.3798    18.848123    14.340104    28.383961    18.843411    14.342562 
  510000    299.02357    1.2509986    3541.5323            0            0            0            0   -100.45574    44657.537 -0.067234084   -17.036218 -0.041707817    3541.5323    1461.5573    1014.8805    914.41231    28.378905    18.846358    14.340854 0.00035857862 0.00035851224    6.8376072    6.8375812    299.02357     41.49527    35.978931    34.423473    90.016431    119.66323    90.107069   0.32820515    215.14717    28.379515    18.848787    14.339522    28.376952    18.847224    14.341112 
  520000    297.29515    1.2509986    3565.2846            0            0            0            0    819.58116    44657.537 -0.067234084   -17.036218 -0.041707817    3565.2846      1426.86    1018.0079    964.23384     28.37612    18.854761    14.330951 0.00033884221 0.00033659809    7.0194563    7.0193136    297.29515     41.49527    35.978931    34.423473    90.016431    119.66323    90.107069    0.3369339    203.30533    28.380226    18.849777    14.340739    28.378485    18.854716    14.329812 
  530000    300.41679    1.2509986    3632.8399            0            0            0            0   -1436.0676    44657.537 -0.067234084   -17.036218 -0.041707817    3632.8399    1522.2788    1009.6998    940.72732    28.381042    18.845794    14.335578 0.00035058979 0.00034801867    6.9574829    6.9574818    300.41679     41.49527    35.978931    34.423473    90.016431    119.66323    90.107069   0.33395918    210.35388    28.379554    18.848483    14.338125    28.379551    18.844576    14.336879 
  540000    307.25197    1.2509986    3547.3006            0            0            0            0    325.65154    44657.537 -0.067234084   -17.036218 -0.041707817    3547.3006    1511.4155     979.9785    901.44412    28.374569    18.852208    14.338056 0.00036029342 0.00035507756    7.0385719      7.03849    307.25197     41.49527    35.978931    34.423473    90.016431    119.66323    90.107069   0.33785145    216.17605    28.378528    18.847019    14.339211    28.374125    18.852509     14.33732 
  550000    299.55122    1.2509986    3549.4026            0            0            0            0    -375.9551    44657.537 -0.067234084   -17.036218 -0.041707817    3549.4026    1456.0395    1016.8885    919.18103    28.377532    18.848713     14.34116 0.00035059442 0.0003494542    6.8907222    6.8907005    299.55122     41.49527    35.978931    34.423473    90.016431    119.66323    90.107069   0.33075467    210.35665    28.379177    18.848192     14.33907    28.378449     18.84897    14.340032 
  560000    296.44876    1.2509986    3606.3967            0            0            0            0    364.14927    44657.537 -0.067234084   -17.036218 -0.041707817    3606.3967    1516.4258    1027.1475    908.85353    28.385431    18.849977    14.338789 0.00038069652 0.00038042394    6.8823372    6.8822885    296.44876     41.49527    35.978931    34.423473    90.016431    119.66323    90.107069   0.33035218    228.41791    28.379261     18.84869    14.339353    28.384754     18.84999    14.339232 
  570000     295.7616    1.2509986    3499.5545            0            0            0            0    248.16664    44657.537 -0.067234084   -17.036218 -0.041707817    3499.5545      1427.59    991.07348    921.29171    28.370532    18.851889    14.338566 0.00034834567 0.00034704929    6.8083434    6.8082231     295.7616     41.49527    35.978931    34.423473    90.016431    119.66323    90.107069   0.32680048     209.0074    28.378968    18.848882    14.338672    28.370992    18.851717    14.339149 
  580000    296.38418    1.2509986    3611.1346            0            0            0            0    568.58512    44657.537 -0.067234084   -17.036218 -0.041707817    3611.1346    1496.1689    1038.3637    924.19805    28.384392    18.848777     14.34119 0.00034333171 0.0003424501    6.8893194    6.8892862    296.38418     41.49527    35.978931    34.423473    90.016431    119.66323    90.107069   0.33068733    205.99903    28.379695    18.848361    14.338977    28.383395    18.847735    14.341165 
  590000    300.64435    1.2509986    3580.1907            0            0            0            0    180.00301    44657.537 -0.067234084   -17.036218 -0.041707817    3580.1907    1451.6551    1013.0762    955.85059     28.37772    18.845442     14.33559 0.00037655175 0.00037630801    6.9429035    6.9428891    300.64435     41.49527    35.978931    34.423473    90.016431    119.66323    90.107069   0.33325937    225.93105    28.379184    18.848714    14.339512    28.376168    18.845307     14.33621 
  600000    304.27737    1.2509986    3503.2677            0            0            0            0   -252.55267    44657.537 -0.067234084   -17.036218 -0.041707817    3503.2677    1444.5437    1003.6065     899.4203    28.375904    18.853157    14.331641 0.00036176786 0.00035926082    7.0423558    7.0421987    304.27737     41.49527    35.978931    34.423473    90.016431    119.66323    90.107069   0.33803308    217.06072    28.378649    18.849863    14.338658    28.375545    18.853774    14.328898 
  610000    302.36702    1.2509986    3642.5324            0            0            0            0   -763.83814    44657.537 -0.067234084   -17.036218 -0.041707817    3642.5324    1518.0979    1044.7712    924.36783    28.376817    18.845686    14.343317 0.00033950304 0.00033880925    7.0180887    7.0180541    302.36702     41.49527    35.978931    34.423473    90.016431    119.66323    90.107069   0.33686826    203.70182    28.379312    18.849715    14.340013    28.378149    18.846213     14.34286 
  620000    297.61042    1.2509986    3508.1827            0            0            0            0   -533.54005    44657.537 -0.067234084   -17.036218 -0.041707817    3508.1827    1483.7933    987.58964    887.69966    28.378695    18.843499    14.332989 0.00034946331 0.00034678346    6.8642162    6.8641986    297.61042     41.49527    35.978931    34.423473    90.016431    119.66323    90.107069   0.32948238    209.67798    28.379395     18.85063    14.339444     28.38005    18.841971     14.33496 
  630000    302.17103    1.2509986    3605.7098            0            0            0            0   -600.24447    44657.537 -0.067234084   -17.036218 -0.041707817    3605.7098    1472.7808    1045.0206    927.67138    28.374952    18.846766    14.340006 0.00035979834 0.00035848912    7.0233169    7.0232726    302.17103     41.49527    35.978931    34.423473    90.016431    119.66323    90.107069   0.33711921      215.879    28.380591    18.848761    14.340058    28.374817    18.848291    14.340639 
  640000    298.94737    1.2509986     3639.022            0            0            0            0   -1740.3967    44657.537 -0.067234084   -17.036218 -0.041707817     3639.022    1473.4424     1021.369    973.02343    28.377966    18.850074    14.335237 0.00036990934 0.00036731108    6.9000674    6.9000168    298.94737     41.49527    35.978931    34.423473    90.016431    119.66323    90.107069   0.33120324     221.9456    28.378795    18.849763    14.340844    28.376551    18.850686    14.333683 
  650000    299.75062    1.2509986    3559.0777            0            0            0            0    1044.1222    44657.537 -0.067234084   -17.036218 -0.041707817    3559.0777    1486.6891     979.6115    935.00298      28.3746    18.843208    14.338934 0.00038711074 0.00038629261    6.9953239    6.9952785    299.75062     41.49527    35.978931    34.423473    90.016431    119.66323    90.107069   0.33577555    232.26645    28.379911       18.849     14.34047    28.373318    18.844125     14.33843 
  660000    295.33383    1.2509986     3546.299            0            0            0            0   -103.97176    44657.537 -0.067234084   -17.036218 -0.041707817     3546.299    1434.5375     996.5652    955.03574    28.388147    18.854481    14.342014 0.00038825808 0.00038677751    6.5774737    6.5772708    295.33383     41.49527    35.978931    34.423473    90.016431    119.66323    90.107069   0.31571874    232.95485    28.379592    18.849642    14.340679    28.390211    18.854045    14.341876 
  670000    295.41157    1.2509986    3646.5148            0            0            0            0   -11.181324    44657.537 -0.067234084   -17.036218 -0.041707817    3646.5148    1500.9744    1050.9053     936.1148    28.381577    18.843933    14.341438 0.00036061926 0.00035994105     6.542296    6.5422626    295.41157     41.49527    35.978931    34.423473    90.016431    119.66323    90.107069   0.31403021    216.37156    28.378874     18.84921    14.339221    28.381373    18.842904      14.3422 
  680000    297.20534    1.2509986    3568.0996            0            0            0            0    -76.17857    44657.537 -0.067234084   -17.036218 -0.041707817    3568.0996    1477.8501    1006.8226    926.71978    28.379306     18.85524    14.337442 0.00032368838 0.00032289561     6.694091    6.6939998    297.20534     41.49527    35.978931    34.423473    90.016431    119.66323    90.107069   0.32131637    194.21303    28.379824    18.848987    14.340487    28.378445    18.854916    14.336862 
  690000     294.2462    1.2509986    3618.7713            0            0            0            0   -361.64411    44657.537 -0.067234084   -17.036218 -0.041707817    3618.7713    1511.6343    1033.2248    914.82015    28.383761    18.847459    14.334311 0.00037317314 0.00037179044    6.8010313    6.8009764     294.2462     41.49527    35.978931    34.423473    90.016431    119.66323    90.107069    0.3264495    223.90389     28.38054    18.849657    14.339677    28.385608    18.848634    14.333907 
  700000    291.39721    1.2509986    3558.5828            0            0            0            0    335.20451    44657.537 -0.067234084   -17.036218 -0.041707817    3558.5828    1482.2821    1022.7816    903.26301    28.381112    18.842908    14.344631 0.00034670257 0.00034596852    6.9831351    6.9830448    291.39721     41.49527    35.978931    34.423473    90.016431    119.66323    90.107069   0.33519048    208.02154    28.380286    18.848652    14.339369    28.382482    18.843951    14.346254 
  710000    297.70658    1.2509986    3575.1475            0            0            0            0    1412.2721    44657.537 -0.067234084   -17.036218 -0.041707817    3575.1475     1436.217    1078.4185    915.12886    28.385211     18.85173    14.334897 0.00037763166 0.00037629685    7.1180902    7.1180062    297.70658     41.49527    35.978931    34.423473    90.016431    119.66323    90.107069   0.34166833      226.579    28.380462    18.849699    14.339847    28.386969    18.850488    14.334503 
  720000    303.08848    1.2509986    3613.2158            0            0            0            0    -1032.255    44657.537 -0.067234084   -17.036218 -0.041707817    3613.2158    1495.2384    1030.0552    931.04424    28.379303    18.850542     14.33995 0.00036736297 0.00036649588    6.9999818    6.9999491    303.08848     41.49527    35.978931    34.423473    90.016431    119.66323    90.107069   0.33599913    220.41778    28.379998    18.849006    14.338818    28.377394    18.850289    14.339196 
  730000    300.38078    1.2509986    3618.2667            0            0            0            0    534.95664    44657.537 -0.067234084   -17.036218 -0.041707817    3618.2667    1508.1524     1003.916    945.58255    28.371787    18.846611    14.339017 0.00035568009 0.00035469032    7.0526245     7.052543    300.38078     41.49527    35.978931    34.423473    90.016431    119.66323    90.107069   0.33852598    213.40806    28.378846    18.848354    14.339864    28.371759    18.849202    14.338934 
  740000    301.06215    1.2509986    3633.6476            0            0            0            0    124.09564    44657.537 -0.067234084   -17.036218 -0.041707817    3633.6476    1517.8571    1010.6144    945.48174    28.374525    18.852844    14.338417 0.00032336719 0.00032207013    6.8945995     6.894526    301.06215     41.49527    35.978931    34.423473    90.016431    119.66323    90.107069   0.33094077    194.02031    28.379195    18.850093    14.339645    28.375628    18.852906    14.338142 
  750000    304.87931    1.2509986    3567.6319            0            0            0            0    158.77334    44657.537 -0.067234084   -17.036218 -0.041707817    3567.6319     1454.194    1012.2921    947.46644    28.377908    18.845926    14.337252 0.00033878877 0.00033810438    6.9935934    6.9935861    304.87931     41.49527    35.978931    34.423473    90.016431    119.66323    90.107069   0.33569248    203.27326    28.378907    18.849476    14.339857    28.378196    18.847535    14.337952 
  760000    296.89346    1.2509986    3581.8214            0            0            0            0   -115.74769    44657.537 -0.067234084   -17.036218 -0.041707817    3581.8214    1438.6846    1052.5217    925.43174    28.377113    18.844965    14.340571 0.00034472137 0.00034242847    6.9897994      6.98976    296.89346     41.49527    35.978931    34.423473    90.016431    119.66323    90.107069   0.33551037    206.83282    28.378433    18.848299    14.338917    28.376138    18.843627    14.342002 
  770000    301.80535    1.2509986    3543.2208            0            0            0            0    1958.6335    44657.537 -0.067234084   -17.036218 -0.041707817    3543.2208    1455.0447    1015.3249    912.54537    28.377031    18.847233    14.336779 0.00036455995 0.00036448387    7.0405603     7.040539    301.80535     41.49527    35.978931    34.423473    90.016431    119.66323    90.107069   0.33794689    218.73597    28.379584    18.849142     14.33988    28.376686    18.848761    14.338126 
  780000    293.87092    1.2509986     3537.162            0            0            0            0    380.46292    44657.537 -0.067234084   -17.036218 -0.041707817     3537.162    1467.1563    995.72025    915.62169    28.378439    18.844048    14.338266 0.00035492535 0.00035261975     6.782157    6.7821464    293.87092     41.49527    35.978931    34.423473    90.016431    119.66323    90.107069   0.32554353    212.95521    28.380078    18.850387    14.339256    28.377509    18.843176    14.337407 
  790000    299.28291    1.2509986    3607.1854            0            0            0            0    209.95995    44657.537 -0.067234084   -17.036218 -0.041707817    3607.1854    1514.9791    1026.5823    916.75681    28.373051    18.845768    14.340983 0.00037198846 0.00037153139    6.5197161    6.5196804    299.28291     41.49527    35.978931    34.423473    90.016431    119.66323    90.107069   0.31294638    223.19308    28.379457    18.849277    14.340252    28.374434    18.845077    14.339854 
  800000    295.49939    1.2509986    3523.2369            0            0            0            0    282.33518    44657.537 -0.067234084   -17.036218 -0.041707817    3523.2369    1449.2937    999.18872    921.76007    28.378672    18.851114    14.352266 0.00034748251 0.00034502086    6.7687999    6.7684749    295.49939     41.49527    35.978931    34.423473    90.016431    119.66323    90.107069    0.3249024    208.48951    28.378952      18.8476    14.339953    28.379071    18.851649    14.354185 
  810000    299.24478    1.2509986     3609.596            0            0            0            0    302.33319    44657.537 -0.067234084   -17.036218 -0.041707817     3609.596    1519.1587    1033.7694    898.59505    28.381562     18.84813    14.336294 0.0003581191 0.00035659563    6.8596417    6.8596135    299.24478     41.49527    35.978931    34.423473    90.016431    119.66323    90.107069    0.3292628    214.87146    28.379089    18.848424    14.340617    28.381512    18.849686    14.334516 
  820000    291.64549    1.2509986    3594.8739            0            0            0            0    358.12602    44657.537 -0.067234084   -17.036218 -0.041707817    3594.8739    1493.1507    987.82566    954.16066    28.385995    18.850632    14.338449 0.00032125836 0.0003184391    6.9679967    6.9679193    291.64549     41.49527    35.978931    34.423473    90.016431    119.66323    90.107069   0.33446384    192.75502    28.379576    18.850046    14.340962    28.386895    18.850657    14.336619 
  830000    292.32636    1.2509986    3579.8356            0            0            0            0     819.3469    44657.537 -0.067234084   -17.036218 -0.041707817    3579.8356    1492.5961    1012.8613    915.05806    28.380185    18.849755    14.333905 0.00037123556 0.00037082649    7.1169635    7.1169259    292.32636     41.49527    35.978931    34.423473    90.016431    119.66323    90.107069   0.34161425    222.74134    28.379787    18.849134    14.340222    28.380698    18.850495    14.333855 
  840000    299.62769    1.2509986    3620.4678            0            0            0            0    1414.8978    44657.537 -0.067234084   -17.036218 -0.041707817    3620.4678    1473.4705     1008.405    967.53143    28.382269    18.854671    14.339151 0.00034531074 0.00034524416    7.0978068    7.0976898    299.62769     41.49527    35.978931    34.423473    90.016431    119.66323    90.107069   0.34069473    207.18644    28.379325    18.849097    14.339715    28.381166    18.855562    14.340925 
  850000    293.15326    1.2509986    3640.3409            0            0            0            0    1081.1443    44657.537 -0.067234084   -17.036218 -0.041707817    3640.3409    1489.9294    1055.9671    938.42489    28.381216    18.844748    14.341878 0.00037847222 0.00037691104    6.9573667    6.9573419    293.15326     41.49527    35.978931    34.423473    90.016431    119.66323    90.107069    0.3339536    227.08333    28.380481    18.849827     14.33943    28.380885    18.842597    14.341177 
  860000    297.72102    1.2509986    3599.2689            0            0            0            0   -962.56272    44657.537 -0.067234084   -17.036218 -0.041707817    3599.2689    1474.2836    1048.6238    919.20469    28.384971    18.855599    14.338475 0.00036068232 0.00035970212    6.8929003    6.8927561    297.72102     41.49527    35.978931    34.423473    90.016431    119.66323    90.107069   0.33085921    216.40939    28.379599    18.849941     14.33998    28.385495    18.855845    14.339351 
  870000     294.4344    1.2509986    3606.2424            0            0            0            0   -1874.2672    44657.537 -0.067234084   -17.036218 -0.041707817    3606.2424    1456.0295    1035.7567      947.589    28.382612    18.853762    14.342903 0.00035009131 0.00034850822     6.983019    6.9828853     294.4344     41.49527    35.978931    34.423473    90.016431    119.66323    90.107069   0.33518491    210.05478    28.379747    18.849767    14.340627    28.381324    18.854803    14.343927 
  880000    298.30937    1.2509986    3669.8792            0            0            0            0    -80.66992    44657.537 -0.067234084   -17.036218 -0.041707817    3669.8792    1501.3117    1059.8461    945.89302    28.385893    18.854932    14.341054 0.00035644319 0.00035546654    6.6542754     6.654181    298.30937     41.49527    35.978931    34.423473    90.016431    119.66323    90.107069   0.31940522    213.86591    28.379485    18.848365    14.340381    28.385337    18.852131    14.341689 
  890000    300.52227    1.2509986    3599.4703            0            0            0            0    147.27232    44657.537 -0.067234084   -17.036218 -0.041707817    3599.4703    1440.8154    1063.1085    937.93275    28.379165    18.849871    14.342128 0.00034131093 0.0003384984    6.8524502    6.8524205    300.52227     41.49527    35.978931    34.423473    90.016431    119.66323    90.107069   0.32891761    204.78656    28.380664    18.849635    14.338543    28.381154    18.849079    14.341123 
  900000    293.67427    1.2509986    3588.1483            0            0            0            0     2336.807    44657.537 -0.067234084   -17.036218 -0.041707817    3588.1483    1472.1141    1021.2867    935.58697    28.375549    18.852093    14.335689 0.0003629304 0.00036174714    7.0645211    7.0644426    293.67427     41.49527    35.978931    34.423473    90.016431    119.66323    90.107069   0.33909701    217.75824    28.379584    18.849637    14.338748    28.374865    18.852388    14.334766 
  910000    297.61087    1.2509986    3592.7296            0            0            0            0    1173.8261    44657.537 -0.067234084   -17.036218 -0.041707817    3592.7296    1475.0661    1000.8919    954.51792    28.388963    18.845404    14.341555 0.00036315039 0.00036179641    6.7991089    6.7989821    297.61087     41.49527    35.978931    34.423473    90.016431    119.66323    90.107069   0.32635722    217.89023    28.379747     18.85012    14.339941    28.390527    18.847293    14.340197 
  920000    294.71814    1.2509986    3611.2567            0            0            0            0     534.1368    44657.537 -0.067234084   -17.036218 -0.041707817    3611.2567    1504.2817    1035.8821    916.37678    28.379702    18.852375    14.338516 0.00034954411 0.00034922444    6.8077032    6.8076445    294.71814     41.49527    35.978931    34.423473    90.016431    119.66323    90.107069   0.32676975    209.72646    28.379689    18.848702    14.340092    28.379683    18.853073    14.338183 
  930000    297.64767    1.2509986    3607.0306            0            0            0            0     3305.573    44657.537 -0.067234084   -17.036218 -0.041707817    3607.0306    1460.9006    1052.0334    933.67899    28.377158    18.851422    14.346021 0.00037908828 0.00037812125     6.916846    6.9167125    297.64767     41.49527    35.978931    34.423473    90.016431    119.66323    90.107069   0.33200861    227.45297    28.378767     18.84932    14.340138    28.376399    18.849808    14.347413 
  940000    295.63302    1.2509986     3639.475            0            0            0            0   -1503.9619    44657.537 -0.067234084   -17.036218 -0.041707817     3639.475    1497.1113     1032.534    949.75175    28.379188    18.849288    14.342327 0.00038211569 0.00038036728    6.7593062    6.7592742    295.63302     41.49527    35.978931    34.423473    90.016431    119.66323    90.107069    0.3244467    229.26941    28.380025    18.849067    14.338403    28.380189    18.847851    14.342377 
  950000    289.86512    1.2509986    3538.4491            0            0            0            0    713.42482    44657.537 -0.067234084   -17.036218 -0.041707817    3538.4491    1432.1078    1021.4928    922.48411    28.376244    18.848426    14.336113 0.00039348206 0.00039198447    6.9494087    6.9493721    289.86512     41.49527    35.978931    34.423473    90.016431    119.66323    90.107069   0.33357162    236.08924    28.379212    18.850177    14.339792      28.3759    18.849299    14.334682 
  960000    301.77906    1.2509986     3622.951            0            0            0            0   -781.76009    44657.537 -0.067234084   -17.036218 -0.041707817     3622.951    1477.3167    1033.3587    952.00062    28.378642    18.853379    14.339639 0.00034312463 0.00034183621    6.8076961    6.8076057    301.77906     41.49527    35.978931    34.423473    90.016431    119.66323    90.107069   0.32676941    205.87478    28.380099    18.848143    14.340126     28.37735    18.854594    14.338354 
  970000    293.79302    1.2509986    3624.7803            0            0            0            0    640.78962    44657.537 -0.067234084   -17.036218 -0.041707817    3624.7803    1466.0054     1060.355    943.87807     28.37868    18.846013    14.343295 0.00038304533 0.00038104715    6.8653607    6.8653515    293.79302     41.49527    35.978931    34.423473    90.016431    119.66323    90.107069   0.32953731     229.8272    28.379415    18.848699    14.341009    28.380061      18.8453    14.340275 
  980000    298.63673    1.2509986    3554.0106            0            0            0            0    2007.7054    44657.537 -0.067234084   -17.036218 -0.041707817    3554.0106    1443.6991    1007.4311    943.68935    28.383855    18.849634    14.339709 0.00041765528 0.00041591842    6.8022009    6.8021397    298.63673     41.49527    35.978931    34.423473    90.016431    119.66323    90.107069   0.32650564    250.59317    28.378815    18.848283    14.340447    28.385227    18.850922    14.338723 
  990000    300.93501    1.2509986    3566.3525            0            0            0            0   -374.78919    44657.537 -0.067234084   -17.036218 -0.041707817    3566.3525    1473.0058    1033.4041      903.521     28.37932    18.845483    14.336954 0.00035904811 0.00035767587    6.8292041    6.8291963    300.93501     41.49527    35.978931    34.423473    90.016431    119.66323    90.107069    0.3278018    215.42886    28.380095    18.848277    14.340373    28.378374     18.84764    14.336244 
 1000000    303.50185    1.2509986    3560.0662            0            0            0            0    1428.9878    44657.537 -0.067234084   -17.036218 -0.041707817    3560.0662    1509.9477    982.03379    911.26068    28.382627    18.847889      14.3413 0.00035858898 0.00035781561     6.829945    6.8299276    303.50185     41.49527    35.978931    34.423473    90.016431    119.66323    90.107069   0.32783736    215.15339    28.380293    18.848533    14.339665     28.38237    18.847974    14.339405 
 1010000    296.30289    1.2509986    3546.9509            0            0            0            0    383.30209    44657.537 -0.067234084   -17.036218 -0.041707817    3546.9509    1490.5074    1003.7991    899.64299    28.379341    18.850385    14.341117 0.0003739399 0.00037377496    6.9404933    6.9404343    296.30289     41.49527    35.978931    34.423473    90.016431    119.66323    90.107069   0.33314368    224.36394    28.379705    18.849344     14.33982    28.378032    18.850626     14.34268 
 1020000    299.32735    1.2509986    3626.4248            0            0            0            0   -653.47782    44657.537 -0.067234084   -17.036218 -0.041707817    3626.4248    1520.6577    1012.1468    937.43777    28.382449     18.85056    14.338603 0.00032712803 0.00032627731    6.7812065    6.7811951    299.32735     41.49527    35.978931    34.423473    90.016431    119.66323    90.107069   0.32549791    196.27682    28.379319    18.848201    14.340006    28.381495    18.848172    14.338399 
 1030000    299.77488    1.2509986    3548.3746            0            0            0            0    620.64947    44657.537 -0.067234084   -17.036218 -0.041707817    3548.3746    1485.7451    981.99504    924.27374    28.375804    18.855887    14.334742 0.00034514951 0.00034485412    6.6938207    6.6936709    299.77488     41.49527    35.978931    34.423473    90.016431    119.66323    90.107069   0.32130339     207.0897    28.379589    18.849553    14.339684    28.375526    18.856767      14.3353 
 1040000    295.31154    1.2509986    3529.3063            0            0            0            0   -378.31038    44657.537 -0.067234084   -17.036218 -0.041707817    3529.3063    1492.2562    983.84284    901.38407    28.376881    18.851474    14.339404 0.00036930832 0.00036873975    6.5176715    6.5176139    295.31154     41.49527    35.978931    34.423473    90.016431    119.66323    90.107069   0.31284823    221.58499    28.379007    18.849007    14.340154    28.376743    18.851965    14.339738 
 1050000     302.7967    1.2509986    3569.1933            0            0            0            0    872.65985    44657.537 -0.067234084   -17.036218 -0.041707817    3569.1933    1490.2703    1021.6766     900.7595    28.377116    18.854074    14.348434 0.00038033844 0.00037768142    6.5866875    6.5864195     302.7967     41.49527    35.978931    34.423473    90.016431    119.66323    90.107069     0.316161    228.20306    28.380843    18.848012     14.33966    28.378694    18.852836    14.351843 
 1060000    295.64881    1.2509986    3688.9697            0            0            0            0    203.41522    44657.537 -0.067234084   -17.036218 -0.041707817    3688.9697    1475.0285    1039.4466    1005.2742    28.374845     18.84775    14.334065 0.00035444474 0.00035415462    6.6533326    6.6532618    295.64881     41.49527    35.978931    34.423473    90.016431    119.66323    90.107069   0.31935997    212.66685    28.380076    18.849112    14.339535    28.374292    18.846491    14.330991 
 1070000    293.48343    1.2509986     3614.679            0            0            0            0   -281.06959    44657.537 -0.067234084   -17.036218 -0.041707817     3614.679    1520.8386     1012.551    923.55268    28.377044    18.844079     14.33799 0.00033937683 0.00033893818    6.7651394    6.7651026    293.48343     41.49527    35.978931    34.423473    90.016431    119.66323    90.107069   0.32472669     203.6261    28.379013    18.849336    14.339443      28.3738     18.84471    14.337552 
 1080000     293.4302    1.2509986    3638.5742            0            0            0            0    147.94727    44657.537 -0.067234084   -17.036218 -0.041707817    3638.5742    1498.6525    1055.3183    925.35106    28.384974    18.842565    14.342779 0.00036557646 0.00036439214    6.8130366    6.8129606     293.4302     41.49527    35.978931    34.423473    90.016431    119.66323    90.107069   0.32702575    219.34588    28.378801    18.849322    14.338919    28.384603    18.842195    14.343765 
 1090000    294.93129    1.2509986    3505.0637            0            0            0            0   -121.93948    44657.537 -0.067234084   -17.036218 -0.041707817    3505.0637    1400.2963    1034.9592    914.84681     28.37681    18.852453    14.344537 0.00035474885 0.00035197843    6.8631307    6.8630178    294.93129     41.49527    35.978931    34.423473    90.016431    119.66323    90.107069   0.32943027    212.84931    28.378869    18.849606    14.341033    28.376729    18.851505    14.345449 
 1100000    295.17197    1.2509986     3559.449            0            0            0            0    1865.7521    44657.537 -0.067234084   -17.036218 -0.041707817     3559.449    1466.8044    1008.4846    926.08411    28.379631    18.851252    14.339176 0.0003722486 0.00037196604    6.9593376    6.9592802    295.17197     41.49527    35.978931    34.423473    90.016431    119.66323    90.107069   0.33404821    223.34916    28.379142    18.849222     14.33938    28.379908    18.852296    14.340564 
 1110000    304.34769    1.2509986    3597.7689            0            0            0            0   -826.23658    44657.537 -0.067234084   -17.036218 -0.041707817    3597.7689    1470.3302    1056.1872    914.72073     28.38245    18.848324    14.336493 0.00035386311 0.00035260285    6.8910279    6.8910026    304.34769     41.49527    35.978931    34.423473    90.016431    119.66323    90.107069   0.33076934    212.31786    28.379247    18.848167    14.340308    28.382266    18.849845    14.336836 
 1120000     303.4334    1.2509986    3550.1855            0            0            0            0    36.300973    44657.537 -0.067234084   -17.036218 -0.041707817    3550.1855    1465.0887    1019.6861    908.72788    28.379768    18.853146    14.328255 0.00032333589 0.00032214131    6.9306968    6.9305097     303.4334     41.49527    35.978931    34.423473    90.016431    119.66323    90.107069   0.33267345    194.00153    28.379493    18.849816    14.340377    28.378954     18.85376    14.326412 
 1130000      294.174    1.2509986    3625.2209            0            0            0            0   -403.80359    44657.537 -0.067234084   -17.036218 -0.041707817    3625.2209    1481.3912    1050.5353    938.44478    28.380327    18.849596    14.338344 0.0003876709 0.00038657383    6.8479015    6.8478624      294.174     41.49527    35.978931    34.423473    90.016431    119.66323    90.107069   0.32869927    232.60254    28.379276    18.848438    14.338808    28.381041    18.851403    14.338819 
 1140000    296.21111    1.2509986    3562.1928            0            0            0            0    1860.7454    44657.537 -0.067234084   -17.036218 -0.041707817    3562.1928    1456.9195    1027.1098    920.23907    28.383151    18.841262    14.337879 0.00033387008 0.0003330914     6.950302     6.950284    296.21111     41.49527    35.978931    34.423473    90.016431    119.66323    90.107069    0.3336145    200.32205    28.380223    18.849129    14.340205    28.383668    18.843713    14.337043 
 1150000    293.03927    1.2509986    3667.3921            0            0            0            0    -191.3944    44657.537 -0.067234084   -17.036218 -0.041707817    3667.3921    1518.0968     1031.974    957.82178    28.380596    18.843553    14.340268 0.00037132024 0.00036993739    7.0538899    7.0538722    293.03927     41.49527    35.978931    34.423473    90.016431    119.66323    90.107069   0.33858671    222.79214    28.379588    18.849694    14.340596    28.379333    18.841974    14.339539 
 1160000    303.54383    1.2509986    3615.7815            0            0            0            0    1001.1473    44657.537 -0.067234084   -17.036218 -0.041707817    3615.7815    1500.4243    1014.8071    945.36568    28.374688    18.843186    14.341659 0.00034115107 0.00034042361    6.9116065    6.9115352    303.54383     41.49527    35.978931    34.423473    90.016431    119.66323    90.107069   0.33175711    204.69064    28.380067    18.849695    14.339595    28.372781    18.843152    14.341324 
 1170000    294.59289    1.2509986     3590.912            0            0            0            0    830.61043    44657.537 -0.067234084   -17.036218 -0.041707817     3590.912    1495.3584    1016.4407    920.70172    28.376275    18.844551    14.344979 0.00033271303 0.00033211168    6.9494207    6.9493413    294.59289     41.49527    35.978931    34.423473    90.016431    119.66323    90.107069    0.3335722    199.62782    28.379387    18.848302    14.339377    28.375145    18.845154    14.344854 
 1180000    297.75004    1.2509986     3644.638            0            0            0            0    2155.8539    44657.537 -0.067234084   -17.036218 -0.041707817     3644.638    1494.4898    1044.6212    946.85689    28.381288    18.853827    14.338845 0.00038693237 0.00038635175    7.1895531    7.1894831    297.75004     41.49527    35.978931    34.423473    90.016431    119.66323    90.107069   0.34509855    232.15942    28.379911    18.848644    14.339073    28.379271    18.853571    14.339316 
 1190000    302.66002    1.2509986    3618.8648            0            0            0            0   -1968.1961    44657.537 -0.067234084   -17.036218 -0.041707817    3618.8648    1524.4436    1017.5357    919.02717    28.378925    18.852646    14.345978 0.00034761062 0.0003409102    7.2033621    7.2032741    302.66002     41.49527    35.978931    34.423473    90.016431    119.66323    90.107069   0.34576138    208.56637    28.380338    18.851212    14.338519    28.378802    18.850031    14.345402 
 1200000    301.59686    1.2509986    3700.7791            0            0            0            0    60.505742    44657.537 -0.067234084   -17.036218 -0.041707817    3700.7791    1535.8905    1059.3595     940.5023    28.373541    18.855842    14.332139 0.0003488443 0.00034272392    6.9499163    6.9497493    301.59686     41.49527    35.978931    34.423473    90.016431    119.66323    90.107069   0.33359598    209.30658    28.380292    18.849651    14.337364    28.373747    18.855494    14.331807 
 1210000    298.18316    1.2509986    3650.2123            0            0            0            0    1263.4321    44657.537 -0.067234084   -17.036218 -0.041707817    3650.2123    1484.9006     1053.004    956.52742    28.385559    18.852223    14.338148 0.00039324468 0.00039303948    6.9542198    6.9541399    298.18316     41.49527    35.978931    34.423473    90.016431    119.66323    90.107069   0.33380255    235.94681    28.379393    18.849018     14.34006    28.384387    18.853118     14.33801 
 1220000    292.68038    1.2509986    3606.4282            0            0            0            0   -555.08943    44657.537 -0.067234084   -17.036218 -0.041707817    3606.4282    1480.5506    1033.6141    932.35939    28.375289    18.857464    14.341859 0.00036270913 0.00036249775    6.9179653    6.9177275    292.68038     41.49527    35.978931    34.423473    90.016431    119.66323    90.107069   0.33206233    217.62548    28.379459    18.848628    14.339406     28.37415    18.859031    14.341951 
 1230000    291.35158    1.2509986    3610.8482            0            0            0            0    759.02533    44657.537 -0.067234084   -17.036218 -0.041707817    3610.8482    1493.5235    1043.6278    918.22422    28.372918    18.850163    14.338756 0.00035108483 0.00035012185    7.0007314     7.000655    291.35158     41.49527    35.978931    34.423473    90.016431    119.66323    90.107069   0.33603511     210.6509    28.379778    18.848099    14.339919    28.372396    18.849575    14.339418 
 1240000    300.16838    1.2509986    3577.4318            0            0            0            0   -1273.3206    44657.537 -0.067234084   -17.036218 -0.041707817    3577.4318    1509.9163    992.61396    917.53781    28.384536    18.853347    14.339237 0.00034991719 0.00034661227    6.9453996    6.9452819    300.16838     41.49527    35.978931    34.423473    90.016431    119.66323    90.107069   0.33337918    209.95031    28.378572    18.848765     14.33813    28.385142    18.853428    14.342365 
 1250000    293.93307    1.2509986    3623.3752            0            0            0            0   -1684.5016    44657.537 -0.067234084   -17.036218 -0.041707817    3623.3752    1471.4155    1087.0522     911.3851    28.379347    18.845303    14.343864 0.00035716336 0.00035703239    6.9555465    6.9555014    293.93307     41.49527    35.978931    34.423473    90.016431    119.66323    90.107069   0.33386623    214.29801    28.379535    18.848839    14.339321    28.379481    18.845863    14.343961 
 1260000    288.68668    1.2509986    3598.6303            0            0            0            0    1400.3636    44657.537 -0.067234084   -17.036218 -0.041707817    3598.6303    1517.9151    1004.5509    918.50485    28.376005    18.849903    14.335472 0.00034438006 0.0003431907    6.8795572    6.8795137    288.68668     41.49527    35.978931    34.423473    90.016431    119.66323    90.107069   0.33021875    206.62803    28.379855    18.849342    14.338642    28.376325    18.851047    14.336722 
 1270000    304.62373    1.2509986    3669.9386            0            0            0            0    857.42678    44657.537 -0.067234084   -17.036218 -0.041707817    3669.9386    1502.2832    1079.0581    923.65394    28.380935    18.843385     14.33669 0.00035262508 0.00035127048    7.0163675     7.016358    304.62373     41.49527    35.978931    34.423473    90.016431    119.66323    90.107069   0.33678564    211.57505    28.378792    18.849644    14.339028    28.380859    18.842692     14.33809 
 1280000    294.62466    1.2509986    3592.8984            0            0            0            0    1187.4565    44657.537 -0.067234084   -17.036218 -0.041707817    3592.8984    1490.0675    1013.7833    933.74826    28.378878    18.844046    14.339698 0.00037474921 0.00037429181    6.8774675    6.8774499    294.62466     41.49527    35.978931    34.423473    90.016431    119.66323    90.107069   0.33011844    224.84953    28.378939    18.848789    14.339798    28.378085    18.844928    14.341055 
 1290000    299.62782    1.2509986    3628.1696            0            0            0            0    739.73352    44657.537 -0.067234084   -17.036218 -0.041707817    3628.1696    1494.3156    1045.7861    925.15521    28.378253    18.846722    14.345169 0.00037922839 0.00037613149    6.8935546    6.8934649    299.62782     41.49527    35.978931    34.423473    90.016431    119.66323    90.107069   0.33089062    227.53703     28.38035    18.848743    14.341186    28.378871    18.846855    14.346584 
 1300000    294.94136    1.2509986    3495.4273            0            0            0            0    545.58444    44657.537 -0.067234084   -17.036218 -0.041707817    3495.4273    1475.3976    999.44598    870.08161    28.381326    18.849083     14.34303 0.00036919295 0.00036833218    7.1607998    7.1606905    294.94136     41.49527    35.978931    34.423473    90.016431    119.66323    90.107069   0.34371839    221.51577    28.380001    18.848199    14.339601    28.382097    18.849281    14.346728 
 1310000    299.42043    1.2509986    3588.7846            0            0            0            0   -1273.5512    44657.537 -0.067234084   -17.036218 -0.041707817    3588.7846    1455.4767    1030.6843    946.69677    28.376291    18.846905    14.339091 0.00035362273 0.00035222672    7.1413075    7.1412974    299.42043     41.49527    35.978931    34.423473    90.016431    119.66323    90.107069   0.34278276    212.17364    28.380349    18.849151    14.338773    28.377433     18.84724    14.338415 
 1320000    299.37846    1.2509986    3602.3358            0            0            0            0    -327.3951    44657.537 -0.067234084   -17.036218 -0.041707817    3602.3358    1484.8692    1020.7067    941.90628    28.381268    18.850934    14.340531 0.00034426901 0.00034206337    7.0498775    7.0498237    299.37846     41.49527    35.978931    34.423473    90.016431    119.66323    90.107069   0.33839412    206.56141    28.379039    18.849699    14.340849    28.380896    18.852374    14.339515 
 1330000    300.21112    1.2509986    3590.0413            0            0            0            0      467.855    44657.537 -0.067234084   -17.036218 -0.041707817    3590.0413    1492.8494    1009.2423     929.7321    28.377554    18.843891    14.334654 0.00037907632 0.00037767911    6.7458259    6.7458047    300.21112     41.49527    35.978931    34.423473    90.016431    119.66323    90.107069   0.32379964    227.44579    28.379095    18.849174    14.338562     28.37736    18.842948    14.334287 
 1340000    291.81428    1.2509986    3576.5864            0            0            0            0    1804.0048    44657.537 -0.067234084   -17.036218 -0.041707817    3576.5864    1477.6851    1052.6586    894.43209    28.381137    18.847656    14.339791 0.00033114897 0.00033102235     6.830485    6.8304784    291.81428     41.49527    35.978931    34.423473    90.016431    119.66323    90.107069   0.32786328    198.68938    28.379369     18.84873    14.339532    28.381259     18.84682    14.338884 
 1350000    292.25585    1.2509986    3586.9618            0            0            0            0    1192.0221    44657.537 -0.067234084   -17.036218 -0.041707817    3586.9618    1494.2988    1009.9969    924.93708    28.383653    18.846558    14.339315 0.00035713336 0.00035617925    6.8893836    6.8893629    292.25585     41.49527    35.978931    34.423473    90.016431    119.66323    90.107069   0.33069041    214.28002    28.379031    18.848823    14.338837     28.38353    18.847008     14.33937 
 1360000    297.11617    1.2509986     3577.481            0            0            0            0    491.55888    44657.537 -0.067234084   -17.036218 -0.041707817     3577.481    1460.7402    1010.9355    945.93117    28.373898    18.850681     14.34046 0.00039612349 0.00039468827    6.9557231    6.9556384    297.11617     41.49527    35.978931    34.423473    90.016431    119.66323    90.107069   0.33387471    237.67409    28.380182    18.847992     14.33961    28.373635    18.850399    14.341985 
 1370000    298.96383    1.2509986    3627.0394            0            0            0            0    195.91525    44657.537 -0.067234084   -17.036218 -0.041707817    3627.0394    1523.7349    1019.6025    928.78055    28.386164    18.845007    14.337693 0.00035384571 0.0003511841    7.0594062    7.0593854    298.96383     41.49527    35.978931    34.423473    90.016431    119.66323    90.107069    0.3388515    212.30743    28.381023     18.84954    14.339156    28.384297    18.844654    14.337004 
 1380000    295.84354    1.2509986    3565.8959            0            0            0            0    150.49219    44657.537 -0.067234084   -17.036218 -0.041707817    3565.8959    1475.5194    995.15229    938.87175     28.37772    18.842957    14.332716 0.00033787515 0.00033736023     7.056289    7.0562431    295.84354     41.49527    35.978931    34.423473    90.016431    119.66323    90.107069   0.33870187    202.72509    28.379168    18.849004    14.340242    28.376607    18.841509     14.33281 
 1390000    300.16431    1.2509986    3539.6551            0            0            0            0   -1318.9584    44657.537 -0.067234084   -17.036218 -0.041707817    3539.6551    1464.2857    1049.1081    874.47975    28.380596    18.853152    14.337561 0.00038294568 0.00038208061    7.1430445    7.1429903    300.16431     41.49527    35.978931    34.423473    90.016431    119.66323    90.107069   0.34286614    229.76741    28.379448    18.848908    14.340556     28.38028    18.852594    14.339082 
 1400000     296.7967    1.2509986    3679.2869            0            0            0            0   -2126.1138    44657.537 -0.067234084   -17.036218 -0.041707817    3679.2869    1529.5382    1046.0429    944.67067    28.376379    18.855128    14.331216 0.00036031531 0.00035976863     7.081955    7.0818197     296.7967     41.49527    35.978931    34.423473    90.016431    119.66323    90.107069   0.33993384    216.18918    28.379192    18.848435    14.339921    28.373961    18.853858    14.331714 
 1410000    299.53895    1.2509986    3586.4894            0            0            0            0    507.52725    44657.537 -0.067234084   -17.036218 -0.041707817    3586.4894    1459.7296    1019.2368    945.69293    28.379446    18.849182    14.337594 0.00034647093 0.00034340642    7.0710259    7.0710127    299.53895     41.49527    35.978931    34.423473    90.016431    119.66323    90.107069   0.33940924    207.88256    28.378955    18.850243    14.338547    28.379973    18.849053    14.336651 
 1420000     297.3232    1.2509986    3603.4627            0            0            0            0   -872.86228    44657.537 -0.067234084   -17.036218 -0.041707817    3603.4627    1485.2308    1026.4585    930.38625    28.381746     18.84848    14.339414 0.00034263835 0.00034262154    7.1147461    7.1147269     297.3232     41.49527    35.978931    34.423473    90.016431    119.66323    90.107069   0.34150781    205.58301    28.379483    18.849106    14.339587    28.380465    18.847514    14.341096 
 1430000     301.5364    1.2509986    3627.4128            0            0            0            0    1113.3477    44657.537 -0.067234084   -17.036218 -0.041707817    3627.4128    1506.1308    1035.5311    926.91522     28.37706    18.847753    14.339688 0.00034853282 0.00034757828    6.9249431    6.9249304     301.5364     41.49527    35.978931    34.423473    90.016431    119.66323    90.107069   0.33239727    209.11969    28.379475     18.84817    14.340126    28.378588    18.848054    14.339404 
 1440000    292.58174    1.2509986    3682.6142            0            0            0            0   -1119.2588    44657.537 -0.067234084   -17.036218 -0.041707817    3682.6142    1493.9913    1065.4542    958.64968    28.384632    18.853077    14.342881 0.00035536109 0.00035429953    6.7914931    6.7913666    292.58174     41.49527    35.978931    34.423473    90.016431    119.66323    90.107069   0.32599167    213.21666    28.378555    18.848807    14.339762    28.386471    18.852484    14.343012 
 1450000    299.23486    1.2509986    3570.5781            0            0            0            0   -358.40587    44657.537 -0.067234084   -17.036218 -0.041707817    3570.5781     1491.204     1020.965    898.72516    28.386135    18.847875    14.334534 0.00035165427 0.00034826765    6.6129971    6.6129201    299.23486     41.49527    35.978931    34.423473    90.016431    119.66323    90.107069   0.31742386    210.99256    28.379699    18.847547    14.340742    28.387922    18.848519    14.335853 
 1460000    300.38212    1.2509986    3646.2977            0            0            0            0    786.79429    44657.537 -0.067234084   -17.036218 -0.041707817    3646.2977    1475.7272     1033.499    970.04842    28.374038    18.852469    14.341653 0.00036096924 0.00036003683    6.8440353    6.8439493    300.38212     41.49527    35.978931    34.423473    90.016431    119.66323    90.107069    0.3285137    216.58154    28.379036     18.84821    14.339765    28.374972    18.852615    14.340665 
 1470000    294.71315    1.2509986    3590.9701            0            0            0            0    1772.9378    44657.537 -0.067234084   -17.036218 -0.041707817    3590.9701    1515.4373    1018.6181      902.394    28.375305    18.848227    14.337723 0.00037615099 0.00037443661    6.8883685    6.8883319    294.71315     41.49527    35.978931    34.423473    90.016431    119.66323    90.107069   0.33064169    225.69059    28.380196    18.849121    14.338501    28.374677    18.848411    14.338537 
 1480000    298.42398    1.2509986    3553.8618            0            0            0            0     2934.271    44657.537 -0.067234084   -17.036218 -0.041707817    3553.8618    1457.0474    1010.5361    928.98715    28.377908    18.849717     14.34165 0.00034068603 0.00033759603    7.1710845    7.1710211    298.42398     41.49527    35.978931    34.423473    90.016431    119.66323    90.107069   0.34421205    204.41162    28.378785    18.848045    14.340886    28.377826    18.851466    14.342117 
 1490000    297.53522    1.2509986    3657.9332            0            0            0            0    432.51414    44657.537 -0.067234084   -17.036218 -0.041707817    3657.9332    1474.6851    1059.1225    961.90711    28.378949    18.853663    14.340752 0.00034473013 0.00034421595    7.2848429    7.2847489    297.53522     41.49527    35.978931    34.423473    90.016431    119.66323    90.107069   0.34967246    206.83808    28.380038    18.849299    14.340086    28.379348    18.854402    14.341019 
 1500000    295.87105    1.2509986    3591.4169            0            0            0            0    602.53936    44657.537 -0.067234084   -17.036218 -0.041707817    3591.4169    1518.0609    1019.7411    905.14876    28.370454    18.850365    14.342539 0.0003776595 0.00037755553    7.3533688    7.3532343    295.87105     41.49527    35.978931    34.423473    90.016431    119.66323    90.107069    0.3529617     226.5957    28.379802    18.849211    14.339707    28.370016    18.849677    14.341825 
 1510000    301.85003    1.2509986    3617.0269            0            0            0            0   -388.53619    44657.537 -0.067234084   -17.036218 -0.041707817    3617.0269    1482.6362    1052.2677    920.12439    28.381654    18.848614    14.339114 0.00032876261 0.00032827296    7.0001046     7.000088    301.85003     41.49527    35.978931    34.423473    90.016431    119.66323    90.107069   0.33600502    197.25756    28.379342    18.848438    14.339303    28.380407    18.849054    14.339123 
 1520000    303.93019    1.2509986    3533.7099            0            0            0            0    785.10437    44657.537 -0.067234084   -17.036218 -0.041707817    3533.7099    1482.0163    985.06394    911.49196    28.382506     18.84537    14.336404 0.00034554929 0.00034324213    7.1849576    7.1849487    303.93019     41.49527    35.978931    34.423473    90.016431    119.66323    90.107069   0.34487796    207.32958    28.380042    18.847575    14.339693    28.382225    18.847226    14.337094 
[...]
 1630000    303.36148    1.2509986    3572.1526            0            0            0            0    107.78032    44657.537 -0.067234084   -17.036218 -0.041707817    3572.1526    1469.9234    985.96875    951.69529    28.377266     18.84722    14.338342 0.00037793255 0.00037625359    7.0238587    7.0238415    303.36148     41.49527    35.978931    34.423473    90.016431    119.66323    90.107069   0.33714522    226.75953    28.380837    18.849075    14.339825    28.377623    18.848987    14.337487 
 1640000    293.96816    1.2509986    3590.2921            0            0            0            0   -202.28388    44657.537 -0.067234084   -17.036218 -0.041707817    3590.2921    1476.0496    1057.1867    899.88383    28.386538    18.850297    14.343704 0.00033882013 0.00033805464    6.8794761    6.8793376    293.96816     41.49527    35.978931    34.423473    90.016431    119.66323    90.107069   0.33021485    203.29208    28.380101    18.849257    14.338999    28.386156    18.850845    14.345596 
 1650000     297.8994    1.2509986    3580.0917            0            0            0            0    298.29256    44657.537 -0.067234084   -17.036218 -0.041707817    3580.0917    1454.8986    1063.9014    906.35345    28.384227    18.846914      14.3344 0.0003432056 0.00034141306     6.854373    6.8543592     297.8994     41.49527    35.978931    34.423473    90.016431    119.66323    90.107069    0.3290099    205.92336    28.380662    18.849569    14.340148    28.382162    18.846096    14.334452 
 1660000    301.33465    1.2509986    3527.4998            0            0            0            0    976.15309    44657.537 -0.067234084   -17.036218 -0.041707817    3527.4998    1453.4628     1023.992    898.09982     28.37489    18.847433    14.340387 0.00035761616 0.00035473156    6.7364205    6.7363669    301.33465     41.49527    35.978931    34.423473    90.016431    119.66323    90.107069   0.32334818    214.56969     28.38091    18.849213    14.340645    28.375199    18.848992    14.341732 
 1670000    293.58062    1.2509986    3614.4375            0            0            0            0    476.13383    44657.537 -0.067234084   -17.036218 -0.041707817    3614.4375    1478.5657    1050.7938    918.94439    28.386233    18.845674    14.343287  0.000389731 0.00038895351    6.8794473    6.8793628    293.58062     41.49527    35.978931    34.423473    90.016431    119.66323    90.107069   0.33021347     233.8386    28.379975    18.848926    14.338867    28.385906    18.846891    14.344003 
 1680000    294.28709    1.2509986    3618.4755            0            0            0            0    1002.0554    44657.537 -0.067234084   -17.036218 -0.041707817    3618.4755    1503.6657    1031.2471    925.32897    28.381162    18.844904    14.333848 0.00037010506 0.00036945075    6.8646703    6.8646417    294.28709     41.49527    35.978931    34.423473    90.016431    119.66323    90.107069   0.32950417    222.06304    28.378816    18.848744    14.339821    28.383122    18.844419    14.333205 
 1690000    297.19997    1.2509986    3585.0914            0            0            0            0    2625.8432    44657.537 -0.067234084   -17.036218 -0.041707817    3585.0914    1481.0077    1054.3936    899.01595    28.377514    18.850187    14.338695 0.00035603786 0.00035487358    6.8094339    6.8094062    297.19997     41.49527    35.978931    34.423473    90.016431    119.66323    90.107069   0.32685283    213.62271    28.379574    18.848046    14.339159    28.377755    18.849981    14.339038 
 1700000    299.20548    1.2509986    3531.9971            0            0            0            0   -31.070481    44657.537 -0.067234084   -17.036218 -0.041707817    3531.9971    1448.0709    1013.8746    914.06841    28.379702    18.842865    14.341681 0.00039591681 0.00039571229    6.9790897    6.9790761    299.20548     41.49527    35.978931    34.423473    90.016431    119.66323    90.107069    0.3349963    237.55008    28.379279    18.849368    14.339607    28.379342    18.844107    14.340656 
 1710000    299.52331    1.2509986     3529.234            0            0            0            0   -74.347231    44657.537 -0.067234084   -17.036218 -0.041707817     3529.234    1439.1253    992.84059    938.80058    28.378852    18.845829    14.342659 0.00034680223 0.00034345847    6.9234014    6.9233528    299.52331     41.49527    35.978931    34.423473    90.016431    119.66323    90.107069   0.33232327    208.08134    28.380521    18.847775      14.3387    28.377928    18.847074    14.343784 
 1720000    299.10125    1.2509986    3554.2886            0            0            0            0    2137.1539    44657.537 -0.067234084   -17.036218 -0.041707817    3554.2886    1514.3159    995.84331    892.52258    28.375438    18.844246    14.337243 0.00037815401 0.00037557495    7.0067179    7.0066872    299.10125     41.49527    35.978931    34.423473    90.016431    119.66323    90.107069   0.33632246    226.89241    28.378413    18.847888    14.339714    28.374688    18.843742    14.336037 
 1730000     297.0983    1.2509986    3532.5271            0            0            0            0    -1245.733    44657.537 -0.067234084   -17.036218 -0.041707817    3532.5271    1479.2477    1003.2281    899.17461    28.378001    18.853851    14.339525 0.0003580505 0.00035437177     6.910794     6.910731     297.0983     41.49527    35.978931    34.423473    90.016431    119.66323    90.107069   0.33171811     214.8303    28.378664    18.847649    14.338627    28.376978    18.852575    14.339399 
 1740000    301.42319    1.2509986    3607.7939            0            0            0            0   -697.00565    44657.537 -0.067234084   -17.036218 -0.041707817    3607.7939    1480.3843    1036.9047    932.34842    28.381577    18.842576    14.343549 0.00036074708 0.00035887064    6.8207381    6.8206694    301.42319     41.49527    35.978931    34.423473    90.016431    119.66323    90.107069   0.32739543    216.44825    28.378641    18.849998    14.339899    28.383537    18.842628      14.3441 
 1750000    302.07412    1.2509986    3662.9324            0            0            0            0    875.04986    44657.537 -0.067234084   -17.036218 -0.041707817    3662.9324    1528.9621    1057.8211     921.0289    28.375551    18.850854    14.343625 0.0003640212 0.00036378484    6.5034093    6.5033159    302.07412     41.49527    35.978931    34.423473    90.016431    119.66323    90.107069   0.31216365    218.41272    28.379839    18.849365    14.339456    28.375103    18.851626    14.343042 
 1760000    295.80709    1.2509986     3615.045            0            0            0            0    883.43867    44657.537 -0.067234084   -17.036218 -0.041707817     3615.045    1515.1907    1032.6721    910.73282    28.378441    18.847843     14.34529 0.00037585568 0.0003748448    6.7411874    6.7411038    295.80709     41.49527    35.978931    34.423473    90.016431    119.66323    90.107069   0.32357699    225.51341    28.380292    18.849045    14.338954    28.379158    18.848403    14.345903 
 1770000    297.04991    1.2509986    3610.7038            0            0            0            0   -408.74746    44657.537 -0.067234084   -17.036218 -0.041707817    3610.7038    1478.4108    1037.5178    935.69315    28.374935    18.846252    14.330568 0.00036329388 0.00036113826    6.9921133    6.9920131    297.04991     41.49527    35.978931    34.423473    90.016431    119.66323    90.107069   0.33562144    217.97633    28.378212    18.849271    14.339108    28.374135      18.8462    14.329053 
 1780000    299.83862    1.2509986    3662.9757            0            0            0            0    166.89723    44657.537 -0.067234084   -17.036218 -0.041707817    3662.9757    1520.8276    1038.3618    945.22736    28.380441    18.846968    14.333583 0.00037269643 0.00037201172    6.8538136    6.8537819    299.83862     41.49527    35.978931    34.423473    90.016431    119.66323    90.107069   0.32898305    223.61786    28.379305    18.849712    14.339274    28.380576     18.84961    14.333519 
 1790000     291.5686    1.2509986     3578.124            0            0            0            0   -293.00228    44657.537 -0.067234084   -17.036218 -0.041707817     3578.124    1460.5608    1030.8915    935.39116    28.381291     18.84476     14.33743 0.00033290041 0.00033120905    6.7980892    6.7980822     291.5686     41.49527    35.978931    34.423473    90.016431    119.66323    90.107069   0.32630828    199.74025    28.379296    18.849706    14.340707     28.38233     18.84576    14.336515 
 1800000    300.58672    1.2509986    3679.6132            0            0            0            0   -1121.4234    44657.537 -0.067234084   -17.036218 -0.041707817    3679.6132    1530.6367    1027.5886    955.10664    28.376112    18.849939    14.338352 0.00037525449 0.00037454502    6.9012365     6.901206    300.58672     41.49527    35.978931    34.423473    90.016431    119.66323    90.107069   0.33125935    225.15269    28.380296    18.848613    14.339591    28.376764    18.849779    14.338903 
 1810000    294.38925    1.2509986      3560.98            0            0            0            0    1529.1377    44657.537 -0.067234084   -17.036218 -0.041707817      3560.98    1495.4043      969.732    936.20682    28.370892    18.856795      14.3495 0.00034692278 0.00034548632    6.8882959    6.8878214    294.38925     41.49527    35.978931    34.423473    90.016431    119.66323    90.107069    0.3306382    208.15367    28.378705    18.849492    14.338944    28.369976     18.85915    14.351076 
 1820000    290.32537    1.2509986    3597.1339            0            0            0            0    855.13338    44657.537 -0.067234084   -17.036218 -0.041707817    3597.1339    1503.2328    1001.6286    935.85267    28.379245    18.847574    14.343113 0.00037470466 0.00037431529     6.701503    6.7014614    290.32537     41.49527    35.978931    34.423473    90.016431    119.66323    90.107069   0.32167214    224.82279    28.379223    18.849112     14.33912    28.379042    18.845896    14.343652 
 1830000     298.3131    1.2509986    3702.5392            0            0            0            0     774.7517    44657.537 -0.067234084   -17.036218 -0.041707817    3702.5392    1565.4777    1036.4128    939.05494     28.38467     18.84909     14.34734 0.00033234945 0.00032923319    6.7454402    6.7453141     298.3131     41.49527    35.978931    34.423473    90.016431    119.66323    90.107069   0.32378113    199.40967    28.379773    18.848177    14.341178    28.384083     18.85032    14.346448 
 1840000    298.11033    1.2509986    3541.5308            0            0            0            0    541.54064    44657.537 -0.067234084   -17.036218 -0.041707817    3541.5308    1462.8009    1027.5958    904.58315    28.382307    18.844887    14.340163 0.00038363595 0.0003833507    6.7921293    6.7921204    298.11033     41.49527    35.978931    34.423473    90.016431    119.66323    90.107069   0.32602221    230.18157    28.379287    18.849252    14.339244    28.382488    18.845305    14.338574 
 1850000    301.35762    1.2509986    3564.7452            0            0            0            0    391.79602    44657.537 -0.067234084   -17.036218 -0.041707817    3564.7452    1466.8804    1048.0306    894.39259    28.382472     18.84916    14.335153 0.00034647553 0.00034591304    6.9166682    6.9166161    301.35762     41.49527    35.978931    34.423473    90.016431    119.66323    90.107069   0.33200008    207.88532    28.379746    18.848303    14.339489    28.381698    18.852271    14.335734 
 1860000    303.73064    1.2509986    3620.5488            0            0            0            0    873.58954    44657.537 -0.067234084   -17.036218 -0.041707817    3620.5488    1483.1439    1017.7086    958.50543    28.379275    18.850351    14.344965 0.00035088362 0.00035024867    7.0151962    7.0150792    303.73064     41.49527    35.978931    34.423473    90.016431    119.66323    90.107069   0.33672942    210.53017    28.379996     18.84967    14.339534    28.377768    18.850689    14.346519 
 1870000    296.66261    1.2509986    3615.8331            0            0            0            0   -47.812813    44657.537 -0.067234084   -17.036218 -0.041707817    3615.8331    1505.6359    1015.2418    935.26057    28.382134    18.849003     14.34532 0.00036654411 0.00036644992    7.0242135    7.0240949    296.66261     41.49527    35.978931    34.423473    90.016431    119.66323    90.107069   0.33716225    219.92647      28.3797    18.848966    14.339905    28.383251    18.849497    14.346782 
 1880000     298.2345    1.2509986    3599.9771            0            0            0            0    1204.2733    44657.537 -0.067234084   -17.036218 -0.041707817    3599.9771    1490.6945    1042.5001    908.01722     28.38395    18.847326     14.34451 0.00036714694 0.00036639857    7.0907695    7.0906976     298.2345     41.49527    35.978931    34.423473    90.016431    119.66323    90.107069   0.34035694    220.28816    28.379621    18.848447     14.34029    28.384542    18.846712     14.34419 
 1890000    300.67906    1.2509986    3698.1688            0            0            0            0    769.57744    44657.537 -0.067234084   -17.036218 -0.041707817    3698.1688    1564.0508     1023.351    951.69807    28.378191    18.846131    14.336554 0.00037816944 0.00037794119    6.8913713    6.8913657    300.67906     41.49527    35.978931    34.423473    90.016431    119.66323    90.107069   0.33078582    226.90167    28.379503    18.849449    14.339826    28.377825    18.845953    14.336083 
 1900000    300.53506    1.2509986     3545.768            0            0            0            0   -16.146881    44657.537 -0.067234084   -17.036218 -0.041707817     3545.768    1483.4558    1001.0204    907.05284    28.380145    18.843295    14.338473 0.0003113713 0.00031013089    6.9547307    6.9547201    300.53506     41.49527    35.978931    34.423473    90.016431    119.66323    90.107069   0.33382708    186.82278    28.380584    18.848585     14.33961    28.379582    18.842967    14.339341 
 1910000    302.13544    1.2509986    3676.0943            0            0            0            0    755.05418    44657.537 -0.067234084   -17.036218 -0.041707817    3676.0943    1489.7617    1040.1862    977.69074    28.384827    18.846618    14.337213 0.00038131579 0.0003797222    6.9426799     6.942642    302.13544     41.49527    35.978931    34.423473    90.016431    119.66323    90.107069   0.33324864    228.78948    28.380598    18.848419    14.339244    28.385437    18.847195    14.335447 
 1920000    290.64419    1.2509986    3605.1956            0            0            0            0   -2489.8906    44657.537 -0.067234084   -17.036218 -0.041707817    3605.1956    1464.1942    1010.7817     964.1694    28.375428    18.850213    14.341414 0.00031265676 0.00031249343    6.9675255    6.9674606    290.64419     41.49527    35.978931    34.423473    90.016431    119.66323    90.107069   0.33444122    187.59406    28.379416    18.848749     14.33991    28.375469    18.850083     14.34224 
 1930000    300.49381    1.2509986    3606.6114            0            0            0            0   -151.15117    44657.537 -0.067234084   -17.036218 -0.041707817    3606.6114    1493.1143    1014.2579    939.71125    28.379526    18.848408    14.339702 0.00036841566 0.00036721731    6.9995942     6.999581    300.49381     41.49527    35.978931    34.423473    90.016431    119.66323    90.107069   0.33598052     221.0494    28.379005    18.848878    14.338702    28.380525    18.848266    14.339487 
 1940000    294.43404    1.2509986     3563.459            0            0            0            0   -560.64925    44657.537 -0.067234084   -17.036218 -0.041707817     3563.459    1477.7342     1033.869    900.25381    28.379619    18.846044    14.338103 0.00035724391 0.00035698844     7.025288    7.0252817    294.43404     41.49527    35.978931    34.423473    90.016431    119.66323    90.107069   0.33721382    214.34634    28.379087    18.849141    14.339776    28.378509    18.847524    14.337818 
 1950000    299.31197    1.2509986    3528.7119            0            0            0            0   -1683.6005    44657.537 -0.067234084   -17.036218 -0.041707817    3528.7119    1473.9496    990.92977    905.72781    28.382742    18.851341    14.336451 0.00036110678 0.00036061384    7.0768171    7.0767616    299.31197     41.49527    35.978931    34.423473    90.016431    119.66323    90.107069   0.33968722    216.66407        28.38    18.848626    14.339255    28.383906    18.851686    14.336864 
 1960000    295.73861    1.2509986    3637.0138            0            0            0            0    735.84325    44657.537 -0.067234084   -17.036218 -0.041707817    3637.0138    1492.0036    1063.3687    925.42898    28.379072    18.848618    14.345661 0.00037834869 0.00037748824    7.0479545     7.047869    295.73861     41.49527    35.978931    34.423473    90.016431    119.66323    90.107069   0.33830182    227.00921    28.380108    18.849713    14.339381    28.378325    18.847128    14.346241 
 1970000      294.445    1.2509986    3644.0799            0            0            0            0    1308.3678    44657.537 -0.067234084   -17.036218 -0.041707817    3644.0799    1540.7584    1044.5448    904.10375    28.372655    18.849054    14.336267 0.00034498182 0.00034284917    6.9544586    6.9543544      294.445     41.49527    35.978931    34.423473    90.016431    119.66323    90.107069   0.33381401    206.98909    28.379348    18.850215     14.34044    28.370803     18.84981    14.335202 
 1980000    299.67191    1.2509986    3611.2852            0            0            0            0   -1893.9796    44657.537 -0.067234084   -17.036218 -0.041707817    3611.2852    1452.9027    1043.7734    954.55613    28.383104    18.851238    14.332299 0.00034507716 0.00034469542    6.6937318    6.6936672    299.67191     41.49527    35.978931    34.423473    90.016431    119.66323    90.107069   0.32129913     207.0463    28.379397     18.84935    14.339146    28.384182    18.849447    14.331813 
 1990000    298.80662    1.2509986    3598.9863            0            0            0            0    840.67167    44657.537 -0.067234084   -17.036218 -0.041707817    3598.9863    1482.9282    1017.1825    935.38386    28.377592    18.850766    14.345902 0.00033064308 0.00033037962    6.9534933    6.9533992    298.80662     41.49527    35.978931    34.423473    90.016431    119.66323    90.107069   0.33376768    198.38585    28.379737    18.849323    14.339271    28.377278    18.850899      14.3449 
 2000000    302.71436    1.2509986    3576.1586            0            0            0            0    -926.5456    44657.537 -0.067234084   -17.036218 -0.041707817    3576.1586    1451.6502    1015.0112    948.22835    28.379338    18.851056    14.343103 0.0003157341 0.0003141295    7.0657898    7.0657137    302.71436     41.49527    35.978931    34.423473    90.016431    119.66323    90.107069   0.33915791    189.44046    28.380675    18.848834    14.340205     28.37867    18.852456    14.342365 
Loop time of 3927.39 on 20 procs for 2000000 steps with 4560 atoms

Pair  time (%) = 2861.27 (72.8543)
Bond  time (%) = 344.704 (8.77691)
Neigh time (%) = 77.3416 (1.96929)
Comm  time (%) = 491.896 (12.5248)
Outpt time (%) = 0.545597 (0.0138921)
Other time (%) = 151.633 (3.8609)

Nlocal:    228 ave 246 max 204 min
Histogram: 1 1 2 2 1 3 3 1 4 2
Nghost:    5980.1 ave 6007 max 5930 min
Histogram: 1 0 1 2 2 2 2 2 3 5
Neighs:    84226.8 ave 90682 max 75419 min
Histogram: 1 2 1 2 1 3 3 1 3 3

Total # of neighbors = 1684536
Ave neighs/atom = 369.416
Ave special neighs/atom = 10.6316
Neighbor list builds = 15456
Dangerous builds = 0
System init for write_data ...
