LAMMPS data file via write_data, version 15 May 2015, timestep = 1000000

4560 atoms
7 atom types
5040 bonds
3 bond types
7200 angles
2 angle types
10560 dihedrals
3 dihedral types
2400 impropers
1 improper types

-1.0763502675555259e-01 4.1387635026745990e+01 xlo xhi
-4.0433884491974936e-02 3.5938433884472119e+01 ylo yhi
-3.5711112484589691e-01 2.9555111124838550e+01 zlo zhi
-6.7234083837551181e-02 -1.7036217651000683e+01 -4.1707816797290791e-02 xy xz yz

Masses

1 12.0107
2 1.008
3 12.0107
4 12.0107
5 12.0107
6 12.0107
7 12.0107

Pair Coeffs # lj/cut/coul/long

1 0.07 3.55
2 0.03 2.42
3 0.07 3.55
4 0.07 3.55
5 0.07 3.55
6 0 0
7 0.07 3.55

Bond Coeffs # harmonic

1 469 1.4
2 367 1.08
3 469 0.7

Angle Coeffs # harmonic

1 35 120
2 63 120

Dihedral Coeffs # opls

1 0 7.25 0 0
2 0 7.25 0 0
3 0 7.25 0 0

Improper Coeffs # cvff

1 2.5 -1 2

Atoms # full

219 13 3 0.0000000000000000e+00 -2.5912258636001617e-01 3.1116929557764395e+00 3.0716962890293793e+00 1 0 0
220 13 4 -1.1500000000000000e-01 2.7816089124417354e-01 4.0864256013458498e+00 2.1823032963943567e+00 1 0 0
224 13 2 1.1500000000000000e-01 5.1236884638013880e-01 5.0641100758533018e+00 2.4954022050904778e+00 1 0 0
580 33 4 -1.1500000000000000e-01 2.7576635893673935e+00 6.6739718283320508e+00 3.7700046458871270e+00 1 0 0
228 13 3 0.0000000000000000e+00 -4.8888492883515422e-01 1.7910109917764827e+00 2.6196640972164653e+00 1 0 0
989 53 4 -1.1500000000000000e-01 -1.2625901288051800e+00 7.0654479187071040e+00 3.5015167642733775e+00 1 0 0
600 34 2 1.1500000000000000e-01 6.4987207275213343e-02 5.6376749539643161e+00 6.9499556847877972e+00 1 0 0
245 14 4 -1.1500000000000000e-01 -4.9437706593987230e+00 1.3448563949011030e+00 9.0824068739290613e+00 1 0 0
227 13 4 -1.1500000000000000e-01 -2.1568723835812431e-01 1.4442288940902241e+00 1.2879363193586935e+00 1 0 0
4390 233 1 -1.1500000000000000e-01 2.3765030199180792e+00 6.7812356943308449e-01 5.5171703722320729e+00 1 1 0
733 13 6 0.0000000000000000e+00 -4.7648796077102951e-01 2.4420663324382548e+00 2.8934613750070621e+00 1 0 0
1064 57 2 1.1500000000000000e-01 6.8475631195768329e+00 6.4511503368827565e+00 1.1300657877457323e+00 1 0 0
230 13 1 -1.1500000000000000e-01 5.2617335170977297e-01 3.7427681775957353e+00 8.2805907116408894e-01 1 0 0
217 13 7 -1.1500000000000000e-01 -1.2974974120856744e+00 2.4892193812798409e+00 5.1810880206440917e+00 1 0 0
218 13 5 -1.1500000000000000e-01 -6.7154195567806862e-01 3.4763409778815775e+00 4.3759608914997292e+00 1 0 0
221 13 1 -1.1500000000000000e-01 -1.5242212281979712e+00 1.1986882678879083e+00 4.7284689002208520e+00 1 0 0
222 13 2 1.1500000000000000e-01 -1.5380848008891714e+00 2.7559783887749529e+00 6.1999252760356542e+00 1 0 0
223 13 2 1.1500000000000000e-01 -3.7730735744279764e-01 4.5474457204413490e+00 4.6846500624004257e+00 1 0 0
248 14 1 -1.1500000000000000e-01 -3.5977873506577582e+00 3.3722174267251206e+00 8.6795804002283816e+00 1 0 0
4380 233 4 -1.1500000000000000e-01 2.6355065256593861e+00 9.9612111394320635e-01 4.1002149121523415e+00 1 1 0
244 14 1 -1.1500000000000000e-01 -4.1978976330639002e+00 2.1248337625710363e+00 8.2806756407318254e+00 1 0 0
603 34 2 1.1500000000000000e-01 8.2739606070006211e-01 3.4381701758389438e+00 7.7141618611622107e+00 1 0 0
4396 234 5 -1.1500000000000000e-01 -7.7640098333163365e-01 1.2859286693395983e-01 9.2580339666038860e+00 1 1 0
4394 233 2 1.1500000000000000e-01 1.6930904543197833e+00 1.2521953943405171e+00 6.1734129983059045e+00 1 1 0
579 33 3 0.0000000000000000e+00 3.4561833477003328e+00 5.7452199251886258e+00 3.0016947918643986e+00 1 0 0
252 14 2 1.1500000000000000e-01 -3.0623512368987158e+00 3.9521539092673406e+00 7.9502041721022003e+00 1 0 0
581 33 1 -1.1500000000000000e-01 4.7313435164231974e+00 3.6572631360333778e+00 1.5010415214586339e+00 1 0 0
596 34 5 -1.1500000000000000e-01 -4.3650277432096107e-01 6.1750992744018989e+00 8.9797280908433308e+00 1 0 0
577 33 7 -1.1500000000000000e-01 4.3088638863846676e+00 4.8777675073481150e+00 8.8318540614776975e-01 1 0 0
588 33 3 0.0000000000000000e+00 3.8202248422321450e+00 4.4924285362292844e+00 3.5984033663963682e+00 1 0 0
589 33 4 -1.1500000000000000e-01 4.4116870338032426e+00 3.5163692238770921e+00 2.8317995092270003e+00 1 0 0
593 33 2 1.1500000000000000e-01 4.5499338667163949e+00 2.6195342980824821e+00 3.3593867998094051e+00 1 0 0
753 33 6 0.0000000000000000e+00 3.5562907191523929e+00 5.1176842307667538e+00 3.2914237317239907e+00 1 0 0
4383 233 2 1.1500000000000000e-01 3.1449022608864938e+00 1.3282989305144499e+00 1.5045938091703877e+00 1 1 0
4379 233 3 0.0000000000000000e+00 3.3984708677291544e+00 1.6421061192921221e-01 3.3127975744745108e+00 1 1 0
578 33 5 -1.1500000000000000e-01 3.6713950343333344e+00 5.9099063763255097e+00 1.6175220324831037e+00 1 0 0
226 13 1 -1.1500000000000000e-01 1.9899752431747225e-01 2.4450319134555545e+00 3.9710145067325731e-01 1 0 0
4384 233 2 1.1500000000000000e-01 2.2107380761083792e+00 1.9056332038602413e+00 3.7091219390336718e+00 1 1 0
586 33 1 -1.1500000000000000e-01 3.0460918765193701e+00 5.2973711672644370e+00 5.7940271767119400e+00 1 0 0
587 33 4 -1.1500000000000000e-01 3.6571457280548989e+00 4.2788191643154203e+00 5.0049813868268389e+00 1 0 0
585 33 2 1.1500000000000000e-01 5.1616568161867296e+00 2.8186118332579171e+00 8.8948830336906282e-01 1 0 0
591 33 2 1.1500000000000000e-01 2.8619582697741386e+00 5.1027560715860325e+00 6.8775972985804525e+00 1 0 0
592 33 2 1.1500000000000000e-01 4.0079192875860503e+00 3.2912459730471069e+00 5.4434062233594336e+00 1 0 0
590 33 1 -1.1500000000000000e-01 2.5180389180852076e+00 6.4397828397016950e+00 5.1495410725197575e+00 1 0 0
982 53 2 1.1500000000000000e-01 -6.7753163904847957e-01 8.4341604375429124e+00 6.4024645912136471e+00 1 0 0
234 13 2 1.1500000000000000e-01 9.0735353569491561e-01 4.3784603030250082e+00 5.8410286729953687e-02 1 0 0
229 13 4 -1.1500000000000000e-01 -1.1459083441762938e+00 8.1900325922941586e-01 3.4539550088299151e+00 1 0 0
1009 54 2 1.1500000000000000e-01 -3.3042313853910996e+00 7.4850287296398683e+00 7.0719532899710886e+00 1 0 0
985 53 2 1.1500000000000000e-01 -1.8859430518373397e+00 6.4611311015749253e+00 5.5388662330149430e+00 1 0 0
599 34 1 -1.1500000000000000e-01 4.8403788781032375e-01 4.0814819236040716e+00 8.4458712787361900e+00 1 0 0
4401 234 2 1.1500000000000000e-01 -1.3325333520693556e+00 9.0948549855267768e-01 8.9426308084721082e+00 1 1 0
249 14 2 1.1500000000000000e-01 -4.0284240011352690e+00 1.6661212498597193e+00 7.2775930671582536e+00 1 0 0
595 34 7 -1.1500000000000000e-01 6.9211503963316545e-02 5.3417825025727144e+00 7.9822174567811395e+00 1 0 0
981 53 1 -1.1500000000000000e-01 -1.3198698451014379e+00 7.1534588007012294e+00 4.9228702034569789e+00 1 0 0
4378 233 5 -1.1500000000000000e-01 3.6151632174209336e+00 4.7233481465006560e-01 1.9605840890093544e+00 1 1 0
988 53 3 0.0000000000000000e+00 -6.9745342276967714e-01 8.0653216227057314e+00 2.6414041604892775e+00 1 0 0
583 33 2 1.1500000000000000e-01 3.4291319445400950e+00 6.8359906099512013e+00 1.0701418175196442e+00 1 0 0
584 33 2 1.1500000000000000e-01 2.2218237735450623e+00 7.5048885984076499e+00 3.3283468194040529e+00 1 0 0
601 34 2 1.1500000000000000e-01 -8.1714527577548424e-01 7.1568147304928882e+00 8.6825263051388522e+00 1 0 0
1493 53 6 0.0000000000000000e+00 -4.9499333041475113e-01 8.7611913410209414e+00 2.8542271170920697e+00 1 0 0
582 33 2 1.1500000000000000e-01 4.5691329018411695e+00 5.1305325097283836e+00 -1.5667090889228982e-01 1 0 0
1005 54 4 -1.1500000000000000e-01 -4.5574555823521425e+00 7.2062602969831673e+00 8.8846778051359809e+00 1 0 0
594 33 2 1.1500000000000000e-01 1.8851016854587201e+00 7.0722197009881222e+00 5.7748907857437670e+00 1 0 0
977 53 7 -1.1500000000000000e-01 -7.5013358431578459e-01 8.3558592403340999e+00 5.4035911298775989e+00 1 0 0
986 53 1 -1.1500000000000000e-01 4.2050619553314128e-02 8.7346182410826323e+00 3.5585142173077156e-01 1 0 0
1004 54 1 -1.1500000000000000e-01 -3.6728764735446187e+00 7.8501526097704959e+00 8.0378484708276865e+00 1 0 0
225 13 2 1.1500000000000000e-01 -1.9961504635985534e+00 3.6882736049325726e-01 5.3556599865978525e+00 1 0 0
993 53 2 1.1500000000000000e-01 -1.6758397423095128e+00 6.2526307809365225e+00 3.0178475965751193e+00 1 0 0
987 53 4 -1.1500000000000000e-01 -6.5733052543187687e-01 7.8841321322103619e+00 1.2402654870477510e+00 1 0 0
1353 73 2 1.1500000000000000e-01 5.0312420405154743e+00 8.7211247169878483e+00 2.6730548932684153e+00 1 0 0
232 13 2 1.1500000000000000e-01 -4.6198080974933409e-01 4.5366418979247491e-01 9.1899002391414752e-01 1 0 0
1010 54 2 1.1500000000000000e-01 -4.9956468911041307e+00 6.2993904580287783e+00 8.5606629621230130e+00 1 0 0
235 14 7 -1.1500000000000000e-01 -5.2938668441201191e+00 2.4844594945854324e+00 1.3095228302927984e+01 1 0 0
236 14 5 -1.1500000000000000e-01 -4.6649407362324560e+00 3.3488385589922016e+00 1.2227300379936185e+01 1 0 0
597 34 3 0.0000000000000000e+00 -6.3694702121958269e-01 5.8208098450861900e+00 1.0337643158335899e+01 1 0 0
734 14 6 0.0000000000000000e+00 -4.6431325225384388e+00 2.3769887229059927e+00 1.0498823101509059e+01 1 0 0
239 14 1 -1.1500000000000000e-01 -5.7809382922795320e+00 1.2458939257285544e+00 1.2697320773258788e+01 1 0 0
240 14 2 1.1500000000000000e-01 -5.4804155432189585e+00 2.7647948294397171e+00 1.4156696315372914e+01 1 0 0
1022 55 1 -1.1500000000000000e-01 -8.3444137120385555e+00 8.1682186852337164e+00 1.5383540524859388e+01 1 0 0
4416 235 4 -1.1500000000000000e-01 -5.9613822465857345e+00 8.7386927143730253e-01 1.8917225150318917e+01 1 1 0
4420 235 2 1.1500000000000000e-01 -6.3718114085203510e+00 1.8298122384962150e+00 1.8456659893874374e+01 1 1 0
237 14 3 0.0000000000000000e+00 -4.4779209959481445e+00 2.9892151170569590e+00 1.0882471274924525e+01 1 0 0
4402 234 2 1.1500000000000000e-01 -1.9860237937003298e+00 1.6589790967122817e+00 1.1126607144291118e+01 1 1 0
243 14 2 1.1500000000000000e-01 -6.4306123690177310e+00 6.6922317220812888e-01 1.3396127116815086e+01 1 0 0
242 14 2 1.1500000000000000e-01 -3.5536787548082014e+00 4.8368485607667218e+00 1.0227714716622826e+01 1 0 0
255 15 3 0.0000000000000000e+00 -8.7836779465282877e+00 3.0944857385460116e+00 1.8021921289850713e+01 1 0 0
256 15 4 -1.1500000000000000e-01 -8.0673641665756914e+00 3.8585099829526324e+00 1.7077904490861641e+01 1 0 0
260 15 2 1.1500000000000000e-01 -7.6913800748431704e+00 4.7724318926632350e+00 1.7516590979188138e+01 1 0 0
1029 55 2 1.1500000000000000e-01 -1.0441968408699658e+01 5.8877854712178550e+00 1.8179358895226581e+01 1 0 0
4414 235 5 -1.1500000000000000e-01 -5.0747759858979800e+00 4.1343298743128643e-01 1.6790499668349238e+01 1 1 0
264 15 3 0.0000000000000000e+00 -9.3924734641687628e+00 1.8599052923014845e+00 1.7715601842311273e+01 1 0 0
262 15 1 -1.1500000000000000e-01 -8.4645079867345494e+00 2.0860746655675007e+00 1.5483515905286328e+01 1 0 0
266 15 1 -1.1500000000000000e-01 -7.8948345129601858e+00 3.3275630097459516e+00 1.5798659726657458e+01 1 0 0
4408 234 1 -1.1500000000000000e-01 -1.8988254888843841e+00 3.0009285334122066e-01 1.2791334748236396e+01 1 1 0
238 14 4 -1.1500000000000000e-01 -3.8236106493098427e+00 3.8188110042255086e+00 9.9864659745734130e+00 1 0 0
263 15 4 -1.1500000000000000e-01 -9.2278629936666388e+00 1.3329076158798066e+00 1.6416043646887328e+01 1 0 0
735 15 6 0.0000000000000000e+00 -9.0565990698865271e+00 2.4031135325210533e+00 1.8008243096026870e+01 1 0 0
246 14 3 0.0000000000000000e+00 -5.0378455635495172e+00 1.7726368572029130e+00 1.0407431646978186e+01 1 0 0
265 15 4 -1.1500000000000000e-01 -1.0069640400070476e+01 1.1071796861578076e+00 1.8672078455000285e+01 1 0 0
604 34 1 -1.1500000000000000e-01 -1.1620661234326422e+00 5.1012379083172821e+00 1.2915545403831395e+01 1 0 0
605 34 4 -1.1500000000000000e-01 -6.0520706749478936e-01 4.1402773962842110e+00 1.2037485308469298e+01 1 0 0
606 34 3 0.0000000000000000e+00 -2.6009069851502353e-01 4.5511826216288975e+00 1.0741530688531084e+01 1 0 0
1007 54 4 -1.1500000000000000e-01 -5.7582254328199580e+00 7.1232459182769716e+00 1.1012837632958867e+01 1 0 0
616 35 4 -1.1500000000000000e-01 -5.8740402182525617e+00 6.4972409278893659e+00 1.9342073475975614e+01 1 0 0
254 15 5 -1.1500000000000000e-01 -8.9297630931812257e+00 3.6081597981434954e+00 1.9338303214221828e+01 1 0 0
610 34 2 1.1500000000000000e-01 -4.3612758316915112e-01 3.1187185976604601e+00 1.2426797330206227e+01 1 0 0
241 14 2 1.1500000000000000e-01 -4.3616170813173545e+00 4.3110485689174203e+00 1.2619198514907072e+01 1 0 0
1023 55 4 -1.1500000000000000e-01 -9.1373539188067845e+00 7.3394608570949043e+00 1.6173766338862460e+01 1 0 0
598 34 4 -1.1500000000000000e-01 -1.1690550071279286e+00 6.7716781815221418e+00 1.1238927031555217e+01 1 0 0
754 34 6 0.0000000000000000e+00 -5.3748996109177405e-01 5.1548469063326818e+00 1.0483397565044385e+01 1 0 0
609 34 2 1.1500000000000000e-01 -1.3797863572711186e+00 4.8479870517012449e+00 1.3918915298017401e+01 1 0 0
613 35 7 -1.1500000000000000e-01 -4.4829798677892905e+00 5.7601404735805444e+00 1.5992480274470342e+01 1 0 0
618 35 2 1.1500000000000000e-01 -4.3941845905938033e+00 6.2364908580366407e+00 1.5083518906502839e+01 1 0 0
615 35 3 0.0000000000000000e+00 -5.2807282285432100e+00 5.7766337346621413e+00 1.8335845979488333e+01 1 0 0
617 35 1 -1.1500000000000000e-01 -3.8740374924275871e+00 4.4521831685151589e+00 1.6214052793010243e+01 1 0 0
621 35 2 1.1500000000000000e-01 -3.2009511811813827e+00 4.0493529996340651e+00 1.5410652629396745e+01 1 0 0
624 35 3 0.0000000000000000e+00 -4.6318883970083977e+00 4.5095524053834879e+00 1.8559082931149195e+01 1 0 0
625 35 4 -1.1500000000000000e-01 -4.0268594215999833e+00 3.7984385386857498e+00 1.7461994877211971e+01 1 0 0
629 35 2 1.1500000000000000e-01 -3.6318697747528690e+00 2.8226758069080140e+00 1.7634109323525500e+01 1 0 0
755 35 6 0.0000000000000000e+00 -4.9355487688869815e+00 5.1731525030195913e+00 1.8363637690507769e+01 1 0 0
270 15 2 1.1500000000000000e-01 -7.3008343515696001e+00 3.8102527388654206e+00 1.5042894003423434e+01 1 0 0
4398 234 4 -1.1500000000000000e-01 -1.6157001888873408e+00 6.9216057189964453e-01 1.1474968168711934e+01 1 1 0
4412 234 2 1.1500000000000000e-01 -2.4954023028937584e+00 9.8370920488365232e-01 1.3441117141935448e+01 1 1 0
614 35 5 -1.1500000000000000e-01 -5.1977929560973841e+00 6.3644126495731577e+00 1.7058705366155465e+01 1 0 0
247 14 4 -1.1500000000000000e-01 -5.6512725616672865e+00 9.4114298013274400e-01 1.1356216949438071e+01 1 0 0
4419 235 2 1.1500000000000000e-01 -5.5195979775453905e+00 1.3325438542545922e+00 1.6395944253812761e+01 1 1 0
1025 55 4 -1.1500000000000000e-01 -9.8888735330782325e+00 6.7754082265326296e+00 1.8469525831013183e+01 1 0 0
608 34 1 -1.1500000000000000e-01 -1.4572505703309933e+00 6.3716625504377404e+00 1.2524923858516379e+01 1 0 0
620 35 2 1.1500000000000000e-01 -6.4474746464155217e+00 7.3722529760400244e+00 1.9183484929237633e+01 1 0 0
612 34 2 1.1500000000000000e-01 -1.8223420507571886e+00 7.1250668151696308e+00 1.3226765911418989e+01 1 0 0
1024 55 3 0.0000000000000000e+00 -9.2623683393007354e+00 7.6799624840306571e+00 1.7538655631068266e+01 1 0 0
611 34 2 1.1500000000000000e-01 5.3378050325090953e-01 2.5895945297100207e+00 1.0034243750791818e+01 1 0 0
1006 54 3 0.0000000000000000e+00 -4.8826262605754627e+00 7.7473383262367612e+00 1.0168936345562816e+01 1 0 0
602 34 2 1.1500000000000000e-01 -1.4469568857315265e+00 7.6983998703911549e+00 1.0853487663842669e+01 1 0 0
1015 55 3 0.0000000000000000e+00 -8.7102274959359907e+00 8.8692427292684055e+00 1.8071537742990305e+01 1 0 0
619 35 2 1.1500000000000000e-01 -5.6382693692309367e+00 7.3371453063506529e+00 1.6908567110640949e+01 1 0 0
1011 54 2 1.1500000000000000e-01 -6.1941436672993859e+00 6.1658903484921757e+00 1.0706242160774957e+01 1 0 0
1494 54 6 0.0000000000000000e+00 -4.4808408241460533e+00 8.3023780338591404e+00 1.0300694366273067e+01 1 0 0
1003 54 2 1.1500000000000000e-01 -6.8030430398965782e+00 7.1871182225639290e+00 1.2864016316300765e+01 1 0 0
1495 55 6 0.0000000000000000e+00 -8.9727936568255995e+00 8.2983417290163750e+00 1.7796516938813593e+01 1 0 0
999 54 1 -1.1500000000000000e-01 -6.0529952057801300e+00 7.7052110565044494e+00 1.2244991018938180e+01 1 0 0
269 15 2 1.1500000000000000e-01 -1.0413071307863801e+01 8.2418471184683928e-02 1.8433601975784239e+01 1 0 0
607 34 4 -1.1500000000000000e-01 2.7042646463071662e-01 3.6421027871523735e+00 9.7761416521986302e+00 1 0 0
995 54 7 -1.1500000000000000e-01 -5.5546760353134346e+00 8.9009357302788263e+00 1.2663284919588941e+01 1 0 0
4415 235 3 0.0000000000000000e+00 -5.2048123631951340e+00 1.4375740729007283e-02 1.8086936474296230e+01 1 1 0
251 14 2 1.1500000000000000e-01 -6.2551558143002337e+00 1.0082550383219299e-01 1.1076418287276386e+01 1 0 0
267 15 2 1.1500000000000000e-01 -8.3397909804728059e+00 1.6603386075621238e+00 1.4488565554454750e+01 1 0 0
1027 55 2 1.1500000000000000e-01 -8.0845275720067047e+00 8.0306079538456423e+00 1.4309816548670948e+01 1 0 0
280 16 1 -1.1500000000000000e-01 -1.2977379501860993e+01 2.3529036694148715e+00 2.3193387130340195e+01 1 0 0
1042 56 3 0.0000000000000000e+00 -1.3566411525705256e+01 7.8718817737602658e+00 2.5241658313412248e+01 1 0 0
258 15 2 1.1500000000000000e-01 -9.8838083486992723e+00 3.3396915310043100e+00 2.1161092715402599e+01 1 0 0
634 36 4 -1.1500000000000000e-01 -1.0086494518966088e+01 6.4838828673016602e+00 2.6042467448708553e+01 1 0 0
1031 56 7 -1.1500000000000000e-01 -1.3757621352611814e+01 8.7577549514199955e+00 2.7919289499611459e+01 1 0 0
257 15 1 -1.1500000000000000e-01 -1.0343239514751103e+01 1.6860567632125638e+00 1.9895476406352476e+01 1 0 0
284 16 1 -1.1500000000000000e-01 -1.2358686222430762e+01 3.5895300381000381e+00 2.3550549538157302e+01 1 0 0
279 16 2 1.1500000000000000e-01 -1.4626911371400684e+01 6.8801243541282797e-01 2.8497910092437127e+01 1 0 0
1047 56 2 1.1500000000000000e-01 -1.4909591864870494e+01 6.2829250433960055e+00 2.5895069068301929e+01 1 0 0
288 16 2 1.1500000000000000e-01 -1.2011299879568114e+01 4.3021212968239100e+00 2.2698967235110011e+01 1 0 0
271 16 7 -1.1500000000000000e-01 -1.3724152675939282e+01 2.5965354728016772e+00 2.8123580296086853e+01 1 0 0
272 16 5 -1.1500000000000000e-01 -1.3072735730154420e+01 3.4101821971024688e+00 2.7196112604106116e+01 1 0 0
273 16 3 0.0000000000000000e+00 -1.2942033712059335e+01 2.9934454903367360e+00 2.5858944335951023e+01 1 0 0
274 16 4 -1.1500000000000000e-01 -1.2343776309119487e+01 3.8995855914703590e+00 2.4960465882726893e+01 1 0 0
275 16 1 -1.1500000000000000e-01 -1.4223195141385647e+01 1.3221337305090790e+00 2.7684107584271217e+01 1 0 0
1013 55 7 -1.1500000000000000e-01 -9.3890692102905930e+00 8.2340432877983254e+00 2.0315596600179411e+01 1 0 0
277 16 2 1.1500000000000000e-01 -1.2664526568340584e+01 4.3469247380073526e+00 2.7417650160745577e+01 1 0 0
278 16 2 1.1500000000000000e-01 -1.2020671578180949e+01 4.8829318233760270e+00 2.5291088226281914e+01 1 0 0
261 15 2 1.1500000000000000e-01 -1.0974427954400232e+01 1.1060487262148555e+00 2.0545711699269578e+01 1 0 0
282 16 3 0.0000000000000000e+00 -1.3459752039003501e+01 1.7889011023195180e+00 2.5481352735296547e+01 1 0 0
1043 56 4 -1.1500000000000000e-01 -1.4374690383185039e+01 7.1301104590930011e+00 2.6167364537536102e+01 1 0 0
736 16 6 0.0000000000000000e+00 -1.3316867781930936e+01 2.4792321947765417e+00 2.5548447016077617e+01 1 0 0
632 36 5 -1.1500000000000000e-01 -9.2585632044898567e+00 5.9709358614085772e+00 2.3804196489918660e+01 1 0 0
636 36 2 1.1500000000000000e-01 -8.4455345639530286e+00 5.5237278991491525e+00 2.1890760736268508e+01 1 0 0
4438 236 2 1.1500000000000000e-01 -1.0707982209657620e+01 1.6728674295183197e+00 2.6341175711038115e+01 1 1 0
253 15 7 -1.1500000000000000e-01 -9.7761150402854398e+00 2.9348827748326740e+00 2.0236578360015294e+01 1 0 0
623 35 4 -1.1500000000000000e-01 -4.5935991767368733e+00 4.0121896045313479e+00 1.9899259707789625e+01 1 0 0
627 35 2 1.1500000000000000e-01 -5.1897058787584474e+00 4.2524503941273313e+00 2.1900525272680404e+01 1 0 0
644 36 1 -1.1500000000000000e-01 -1.0253075022348387e+01 6.0458388052872785e+00 2.7340880734660519e+01 1 0 0
631 36 7 -1.1500000000000000e-01 -8.5657263335729077e+00 5.1962726243207396e+00 2.2885706996677236e+01 1 0 0
635 36 1 -1.1500000000000000e-01 -8.0333236675582818e+00 3.9504716354749072e+00 2.3310391262292558e+01 1 0 0
628 35 2 1.1500000000000000e-01 -4.1570742571016863e+00 3.0296739725196264e+00 2.0020324198590323e+01 1 0 0
639 36 2 1.1500000000000000e-01 -7.5526295975859945e+00 3.3426167765175254e+00 2.2570800888445465e+01 1 0 0
283 16 4 -1.1500000000000000e-01 -1.4102148552233828e+01 9.1549164661447513e-01 2.6374071553339725e+01 1 0 0
4430 235 2 1.1500000000000000e-01 -6.8270290701418501e+00 1.0306495977548491e+00 2.0873685611932171e+01 1 1 0
4444 236 1 -1.1500000000000000e-01 -1.0240432324332165e+01 3.6462908138400307e-01 2.7864292814249001e+01 1 1 0
638 36 2 1.1500000000000000e-01 -1.0411936104001432e+01 7.4916695321740923e+00 2.5810549338323383e+01 1 0 0
633 36 3 0.0000000000000000e+00 -9.3100067212335809e+00 5.6418654383117994e+00 2.5158272887446387e+01 1 0 0
4437 236 2 1.1500000000000000e-01 -9.8707963783447248e+00 1.4978637499542098e+00 2.3873150184472760e+01 1 1 0
640 36 1 -1.1500000000000000e-01 -9.7165652989718510e+00 4.8109387084376021e+00 2.7792770921573922e+01 1 0 0
641 36 4 -1.1500000000000000e-01 -8.9074315464613552e+00 4.0103189872790690e+00 2.6924421330423709e+01 1 0 0
642 36 3 0.0000000000000000e+00 -8.7147928684759748e+00 4.4351511803532979e+00 2.5595317725699463e+01 1 0 0
643 36 4 -1.1500000000000000e-01 -8.1409425512607374e+00 3.5682096960398400e+00 2.4652473574727928e+01 1 0 0
622 35 1 -1.1500000000000000e-01 -5.2311372703776664e+00 4.7567410192858199e+00 2.0925400105743261e+01 1 0 0
646 36 2 1.1500000000000000e-01 -8.5089871877759684e+00 3.0711711503166463e+00 2.7134671783953280e+01 1 0 0
647 36 2 1.1500000000000000e-01 -7.8090937041143746e+00 2.5732167913976434e+00 2.4983821423386050e+01 1 0 0
756 36 6 0.0000000000000000e+00 -9.0614668167336525e+00 4.9730000245025439e+00 2.5374920970712882e+01 1 0 0
281 16 4 -1.1500000000000000e-01 -1.3411369912130727e+01 1.3360829374110370e+00 2.4091952728031647e+01 1 0 0
4434 236 4 -1.1500000000000000e-01 -1.0164113665487578e+01 8.0622701209306358e-01 2.6537960882154284e+01 1 1 0
4436 236 2 1.1500000000000000e-01 -8.6269336778360994e+00 1.0572852196214272e-01 2.2202666418736062e+01 1 1 0
1045 56 2 1.1500000000000000e-01 -1.2647090083239378e+01 7.9979306224146640e+00 2.1942941547084388e+01 1 0 0
648 36 2 1.1500000000000000e-01 -1.0738599033063259e+01 6.6476169546130066e+00 2.8021568163574564e+01 1 0 0
4432 236 5 -1.1500000000000000e-01 -9.4295906429597238e+00 5.8346665505311324e-01 2.4178805307310324e+01 1 1 0
1039 56 2 1.1500000000000000e-01 -1.4925331943624261e+01 7.0127300298686484e+00 2.8316677218805708e+01 1 0 0
626 35 1 -1.1500000000000000e-01 -5.8206652790442623e+00 5.9776897404035632e+00 2.0617430632253857e+01 1 0 0
4448 236 2 1.1500000000000000e-01 -1.0805247490889187e+01 9.0281856585119913e-01 2.8666703656748876e+01 1 1 0
4426 235 1 -1.1500000000000000e-01 -6.3144646937563040e+00 4.6202750123156844e-01 2.0224296606526494e+01 1 1 0
276 16 2 1.1500000000000000e-01 -1.3756694502477231e+01 2.8731955341198412e+00 2.9134925465628715e+01 1 0 0
630 35 2 1.1500000000000000e-01 -6.3250144569140287e+00 6.4886486934368124e+00 2.1424340327103828e+01 1 0 0
1021 55 2 1.1500000000000000e-01 -1.0552164300665272e+01 6.5336499205404222e+00 2.0482852890340485e+01 1 0 0
637 36 2 1.1500000000000000e-01 -9.7300116682677693e+00 6.8818792512370459e+00 2.3337016538120761e+01 1 0 0
645 36 2 1.1500000000000000e-01 -1.0000445560577003e+01 4.5317992161557568e+00 2.8785011411796617e+01 1 0 0
1407 76 2 1.1500000000000000e-01 -8.2137228655420316e+00 8.7448164078450912e+00 2.4521141509210292e+01 1 0 0
1041 56 4 -1.1500000000000000e-01 -1.3429404593108750e+01 7.4180913078509301e+00 2.3902632934307043e+01 1 0 0
1035 56 1 -1.1500000000000000e-01 -1.4407854464093548e+01 7.5605308957975028e+00 2.7517733896064279e+01 1 0 0
991 53 2 1.1500000000000000e-01 -1.6820136066280938e+01 8.4671517060769741e+00 2.9245402817196069e+01 1 0 -1
1496 56 6 0.0000000000000000e+00 -1.3395835334889483e+01 8.4754387378548088e+00 2.5578810603620163e+01 1 0 0
1040 56 1 -1.1500000000000000e-01 -1.2795532578113871e+01 8.2435529081711945e+00 2.2976602935113636e+01 1 0 0
1018 55 2 1.1500000000000000e-01 -9.5654102669074987e+00 8.3496907718148226e+00 2.1406578993641123e+01 1 0 0
231 13 2 1.1500000000000000e-01 -1.6759475761128826e+01 2.1049323706261123e+00 2.9256275871426393e+01 1 0 -1
4433 236 3 0.0000000000000000e+00 -9.5193120136816312e+00 1.0425561067799102e-01 2.5543539929240772e+01 1 1 0
1063 57 2 1.1500000000000000e-01 -8.8931212079481750e+00 7.8749410960995174e+00 2.9469712396255343e+01 1 0 -1
1017 55 1 -1.1500000000000000e-01 -9.9852390725686391e+00 7.1289711624484333e+00 1.9814083055160324e+01 1 0 0
1118 60 2 1.1500000000000000e-01 -5.5211356105688338e+00 6.0772666162938087e+00 2.3521074929543076e+01 1 0 0
286 16 2 1.1500000000000000e-01 -1.3807397229860694e+01 3.9966839174631835e-01 2.3753101498198827e+01 1 0 0
287 16 2 1.1500000000000000e-01 -1.4519174771806430e+01 -4.6608595341845194e-03 2.5987951954306354e+01 1 0 0
259 15 2 1.1500000000000000e-01 -8.4517510025449347e+00 4.4823859086502020e+00 1.9754150581871617e+01 1 0 0
1753 93 2 1.1500000000000000e-01 -1.9469586473088261e+00 1.2165928852361372e+01 3.3397545312880763e+00 1 0 0
980 53 4 -1.1500000000000000e-01 5.3728554945535678e-01 1.0110411878459374e+01 2.3732886093384562e+00 1 0 0
984 53 2 1.1500000000000000e-01 7.9981786056849979e-01 1.1078263877806142e+01 2.7604269070082119e+00 1 0 0
1361 74 2 1.1500000000000000e-01 -9.3580701300424618e-01 1.3348039590549115e+01 8.3975856590974356e+00 1 0 0
990 53 1 -1.1500000000000000e-01 7.0638516658063621e-01 9.8726094728580716e+00 9.9886906871670411e-01 1 0 0
2253 93 6 0.0000000000000000e+00 -2.5807595629242797e-01 1.4304400754829349e+01 2.9654684982479766e+00 1 0 0
994 53 2 1.1500000000000000e-01 1.3314926697395015e+00 1.0527803173140953e+01 3.8673435166354786e-01 1 0 0
1741 93 1 -1.1500000000000000e-01 -1.7981764093900598e+00 1.3603938069834838e+01 4.9147618445673329e+00 1 0 0
1764 94 1 -1.1500000000000000e-01 -4.3256894339410978e+00 1.4395858660519520e+01 7.9013322341918819e+00 1 0 0
983 53 2 1.1500000000000000e-01 1.8082986244549515e-01 1.0382495371009037e+01 4.9816603527832468e+00 1 0 0
1012 54 2 1.1500000000000000e-01 -2.5211961809869194e+00 9.5761497533552475e+00 7.6708711130665144e+00 1 0 0
1363 74 2 1.1500000000000000e-01 9.8487273434150424e-01 9.5680722083103031e+00 7.6279580736047583e+00 1 0 0
1745 93 2 1.1500000000000000e-01 -2.4839987772912631e+00 1.3224151141989800e+01 5.6606985800318368e+00 1 0 0
2120 114 2 1.1500000000000000e-01 -3.2311998315946777e-02 1.7230750574388434e+01 6.6328315749158824e+00 1 0 0
1338 73 5 -1.1500000000000000e-01 3.9259276954833915e+00 1.2255587983811962e+01 1.6510219786956060e+00 1 0 0
1339 73 3 0.0000000000000000e+00 3.6688265626359868e+00 1.1804812314852265e+01 2.9583159649989739e+00 1 0 0
1340 73 4 -1.1500000000000000e-01 2.9759156846688950e+00 1.2637015157333616e+01 3.8782763921544046e+00 1 0 0
1341 73 1 -1.1500000000000000e-01 5.0340568284838554e+00 1.0135377369527729e+01 1.1210806472611239e+00 1 0 0
1337 73 7 -1.1500000000000000e-01 4.5744203743152667e+00 1.1393147306396148e+01 7.2976191922852074e-01 1 0 0
1343 73 2 1.1500000000000000e-01 3.6278559150018790e+00 1.3191479929989219e+01 1.2127757540196884e+00 1 0 0
1348 73 3 0.0000000000000000e+00 3.9878547883331836e+00 1.0523736982874365e+01 3.3701796033625175e+00 1 0 0
1349 73 4 -1.1500000000000000e-01 4.7256194152112734e+00 9.7238090010300731e+00 2.4731300962621292e+00 1 0 0
1513 73 6 0.0000000000000000e+00 3.7493787177363815e+00 1.1188919659074612e+01 3.2829139991718130e+00 1 0 0
1356 74 5 -1.1500000000000000e-01 -5.7503790572212754e-01 1.2374748524967199e+01 8.8366465650094561e+00 1 0 0
1354 73 2 1.1500000000000000e-01 2.1760388269820616e+00 1.2889341119836955e+01 5.9443407036750271e+00 1 0 0
1346 73 1 -1.1500000000000000e-01 3.0107223652276356e+00 1.0910139473231363e+01 5.6042959317483039e+00 1 0 0
1347 73 4 -1.1500000000000000e-01 3.6838250283048670e+00 1.0086068812997814e+01 4.7017238237303269e+00 1 0 0
1350 73 1 -1.1500000000000000e-01 2.6459580522357387e+00 1.2275740608479728e+01 5.2100007911297546e+00 1 0 0
1351 73 2 1.1500000000000000e-01 2.8535694442986195e+00 1.0560152976771251e+01 6.6167095842454682e+00 1 0 0
1342 73 2 1.1500000000000000e-01 4.7597598776267365e+00 1.1791928257968449e+01 -2.8410226582311832e-01 1 0 0
1345 73 2 1.1500000000000000e-01 5.4538918785533390e+00 9.4821228915157540e+00 3.9901901994938682e-01 1 0 0
1355 74 7 -1.1500000000000000e-01 3.4829933333512031e-02 1.1473313591180231e+01 7.9303180089489551e+00 1 0 0
1359 74 1 -1.1500000000000000e-01 5.6978008918636824e-01 1.0268757734444872e+01 8.3942459939774281e+00 1 0 0
1360 74 2 1.1500000000000000e-01 1.0634472015623508e-01 1.1781237488217485e+01 6.8760643358481150e+00 1 0 0
1747 93 4 -1.1500000000000000e-01 -6.6340512202297686e-01 1.3242676099800715e+01 1.4147410668063851e+00 1 0 0
1748 93 3 0.0000000000000000e+00 -7.2319249972031030e-01 1.3744653992049013e+01 2.7700406345646966e+00 1 0 0
1008 54 1 -1.1500000000000000e-01 -3.2067977448581981e+00 9.0861479991691674e+00 8.4004879430285602e+00 1 0 0
1746 93 1 -1.1500000000000000e-01 -1.8608403284622266e-02 1.4041263037244091e+01 3.9017316235914068e-01 1 0 0
1742 93 2 1.1500000000000000e-01 -1.2445421583829988e+00 1.5137257556568390e+01 6.3855876467676973e+00 1 0 0
1749 93 4 -1.1500000000000000e-01 -1.5527106597068849e+00 1.3077774076690135e+01 3.6320794728752910e+00 1 0 0
2102 113 2 1.1500000000000000e-01 4.2065744407862740e+00 1.7428943569329661e+01 4.9817294157604108e-02 1 0 0
1344 73 2 1.1500000000000000e-01 2.7134709044236596e+00 1.3602728032483242e+01 3.6202274010430688e+00 1 0 0
1737 93 7 -1.1500000000000000e-01 -1.0283460039975312e+00 1.4699549278997063e+01 5.4212038585717890e+00 1 0 0