LAMMPS (15 May 2015)
Reading data file ...
  triclinic box = (-0.107635 -0.0404339 -0.357111) to (41.3876 35.9384 29.5551) with tilt (-0.0672341 -17.0362 -0.0417078)
  5 by 4 by 3 MPI processor grid
  reading atoms ...
  4560 atoms
  reading velocities ...
  4560 velocities
  scanning bonds ...
  3 = max bonds/atom
  scanning angles ...
  3 = max angles/atom
  scanning dihedrals ...
  8 = max dihedrals/atom
  scanning impropers ...
  1 = max impropers/atom
  reading bonds ...
  5040 bonds
  reading angles ...
  7200 angles
  reading dihedrals ...
  10560 dihedrals
  reading impropers ...
  2400 impropers
Finding 1-2 1-3 1-4 neighbors ...
 Special bond factors lj:   0          0          0         
 Special bond factors coul: 0          0          0         
  4 = max # of 1-2 neighbors
  8 = max # of 1-3 neighbors
  20 = max # of 1-4 neighbors
  16 = max # of special neighbors
4560 atoms in group all
720 atoms in group C
480 atoms in group S
1920 atoms in group H
720 atoms in group Si
240 atoms in group Na
240 atoms in group Ba
240 atoms in group O
4560 atoms in group naphthalene
1200 atoms in group fixed
960 atoms in group CO
Setting atom values ...
  720 settings made for charge
Setting atom values ...
  720 settings made for charge
Setting atom values ...
  1920 settings made for charge
Setting atom values ...
  480 settings made for charge
Setting atom values ...
  240 settings made for charge
Setting atom values ...
  240 settings made for charge
Setting atom values ...
  240 settings made for charge
Finding 1-2 1-3 1-4 neighbors ...
 Special bond factors lj:   0          0          0.5       
 Special bond factors coul: 0          0          0.5       
  4 = max # of 1-2 neighbors
  8 = max # of 1-3 neighbors
  20 = max # of 1-4 neighbors
  16 = max # of special neighbors
PPPM initialization ...
  G vector (1/distance) = 0.246499
  grid = 16 16 20
  stencil order = 5
  estimated absolute RMS force accuracy = 0.00242397
  estimated relative force accuracy = 7.2997e-06
  using double precision FFTs
  3d grid and FFT values/proc = 1053 112
Neighbor list info ...
  4 neighbor list requests
  update every 1 steps, delay 0 steps, check yes
  master list distance cutoff = 12
Setting up run ...
Memory usage per processor = 13.288 Mbytes
Step Temp Density PotEng E_vdwl E_tail E_coul E_long Press Volume Xy Xz Yz E_mol E_bond E_angle E_dihed 14[1] 14[2] 14[3] msd[4] msd2[4] msd3[4] msd4[4] naphthal Cella Cellb Cellc CellAlpha CellBeta CellGamma 27[2] 27[3] 28[1] 28[2] 28[3] 
       0          298    1.2509986    2087.5869   -1173.1339   -211.49952    2070.8667    -2308.979    790.88859    44657.537 -0.067234084   -17.036218 -0.041707817     3498.833    1521.0094     935.4334    889.67826    28.379601    18.846571    14.337846 2.3535127e-29 2.3910021e-29 2.7538641e-29 3.294809e-29          298     41.49527    35.978931    34.423473    90.016431    119.66323    90.107069    18.846182    14.337739    28.379557    18.849013    14.339638 
    1000    295.95372    1.2509986    2069.5478   -1225.7267   -211.49952    2074.4206   -2309.3616   -1002.0268    44657.537 -0.067234084   -17.036218 -0.041707817    3530.2155    1592.4049    937.81561    851.93792    28.380188    18.845603    14.337272  0.026358893  0.026353389  0.026533592  0.026418127    295.95372     41.49527    35.978931    34.423473    90.016431    119.66323    90.107069    18.845009    14.335708    28.385133    18.842311    14.333356 
    2000    293.12275    1.2509986    2012.1029   -1218.9617   -211.49952    2074.1336   -2309.4068    122.35477    44657.537 -0.067234084   -17.036218 -0.041707817    3466.3378    1538.4003    908.59358    867.09357    28.378791    18.846577    14.337356    0.0254466  0.025444578  0.025688207  0.025592624    293.12275     41.49527    35.978931    34.423473    90.016431    119.66323    90.107069    18.845935    14.339139    28.386977    18.850129    14.345904 
    3000    296.38582    1.2509986    1975.9195   -1252.9038   -211.49952    2076.5351   -2309.8652   -1268.3765    44657.537 -0.067234084   -17.036218 -0.041707817    3462.1534     1541.863    917.67911    857.17328    28.380375     18.84638     14.33769  0.026589059  0.026583343  0.030783494  0.030666138    296.38582     41.49527    35.978931    34.423473    90.016431    119.66323    90.107069    18.845778    14.337361    28.387045     18.84228    14.335644 
    4000    295.53178    1.2509986     1976.611    -1255.109   -211.49952    2076.0217    -2309.502   -2040.5655    44657.537 -0.067234084   -17.036218 -0.041707817    3465.2004    1537.3095     949.5937    833.34916    28.378302    18.844979    14.336952   0.02622255  0.026217149  0.026416835  0.026343566    295.53178     41.49527    35.978931    34.423473    90.016431    119.66323    90.107069    18.845931    14.335867    28.384702    18.844788    14.334258 
    5000    294.38816    1.2509986    2017.0445   -1245.9459   -211.49952    2070.6431   -2309.7515     -839.797    44657.537 -0.067234084   -17.036218 -0.041707817    3502.0988    1594.1372     958.4935    812.31474    28.379626    18.846454    14.337224  0.027064116  0.027058772  0.024950713  0.024925013    294.38816     41.49527    35.978931    34.423473    90.016431    119.66323    90.107069    18.846882    14.337069    28.377957    18.844208    14.339863 
    6000    299.55924    1.2509986    2024.8002   -1231.6641   -211.49952    2068.7631   -2309.9118    -1371.882    44657.537 -0.067234084   -17.036218 -0.041707817    3497.6129    1540.9822    943.93671    865.36238     28.38179    18.845785    14.338437  0.025872561  0.025865298  0.026033379  0.025998635    299.55924     41.49527    35.978931    34.423473    90.016431    119.66323    90.107069    18.845676    14.338266    28.384403    18.846569     14.33734 
    7000     300.1111    1.2509986    2029.4405   -1235.2665   -211.49952    2071.8639   -2309.6733    357.23143    44657.537 -0.067234084   -17.036218 -0.041707817    3502.5165    1529.9111    948.63659    869.61275    28.379958     18.84651    14.337583   0.02654355  0.026542374  0.027984271  0.027972472     300.1111     41.49527    35.978931    34.423473    90.016431    119.66323    90.107069    18.846758     14.33709    28.379169     18.84837    14.336286 
    8000     299.4055    1.2509986     1963.932   -1237.7252   -211.49952    2072.2493   -2309.2529    -508.1631    44657.537 -0.067234084   -17.036218 -0.041707817    3438.6608    1548.3344    953.93967    793.50809    28.378404    18.846347    14.337707  0.025890174  0.025879102  0.029068007  0.028987117     299.4055     41.49527    35.978931    34.423473    90.016431    119.66323    90.107069    18.846876     14.33636    28.378491    18.851136    14.330964 
    9000    299.17621    1.2509986    2030.3565    -1236.525   -211.49952    2067.5734   -2310.1388   -1944.5033    44657.537 -0.067234084   -17.036218 -0.041707817    3509.4468    1563.6262    917.79645    877.27986    28.379363     18.84601    14.337642  0.025668619  0.025667147  0.027813576  0.027789043    299.17621     41.49527    35.978931    34.423473    90.016431    119.66323    90.107069    18.847353    14.337938    28.383839    18.846814    14.340805 
   10000    299.54529    1.2509986    2049.1698    -1238.953   -211.49952    2068.6706   -2309.8615    109.64933    44657.537 -0.067234084   -17.036218 -0.041707817    3529.3137    1515.7102    930.38729    921.79591    28.379653    18.846112    14.337755  0.025053859  0.025051041  0.026465577  0.026409163    299.54529     41.49527    35.978931    34.423473    90.016431    119.66323    90.107069    18.845268     14.33759    28.373977    18.844274    14.337957 
   11000    298.81178    1.2509986     2029.605   -1240.1789   -211.49952    2071.1506    -2309.996   -1099.9805    44657.537 -0.067234084   -17.036218 -0.041707817    3508.6293    1574.0102    918.91564    863.95616    28.380427    18.845717    14.337907  0.026399404  0.026398159  0.029349723  0.029330776    298.81178     41.49527    35.978931    34.423473    90.016431    119.66323    90.107069    18.846056    14.338629    28.375574    18.847663    14.340762 
   12000    291.67698    1.2509986     1945.029   -1257.7179   -211.49952     2072.431     -2309.42    -1031.838    44657.537 -0.067234084   -17.036218 -0.041707817    3439.7359    1529.2253    918.54757    844.46868    28.378664    18.845624    14.337099    0.0259956  0.025992298  0.027278934  0.027266085    291.67698     41.49527    35.978931    34.423473    90.016431    119.66323    90.107069    18.846345    14.337613    28.379438    18.851368    14.342338 
   13000    295.85395    1.2509986    2024.4964   -1261.2024   -211.49952    2070.9611   -2310.0337   -2116.4832    44657.537 -0.067234084   -17.036218 -0.041707817    3524.7714    1568.3546    959.33851    848.32988    28.380226    18.846339    14.338268  0.025745959  0.025741449  0.024156458  0.024114401    295.85395     41.49527    35.978931    34.423473    90.016431    119.66323    90.107069    18.847987    14.338569    28.377788    18.852555    14.344774 
   14000    296.37792    1.2509986    1975.6936   -1258.9324   -211.49952    2069.3286   -2309.8767   -2070.1095    44657.537 -0.067234084   -17.036218 -0.041707817    3475.1742    1600.7044    859.97799    864.76116     28.38144     18.84568    14.337974  0.025122168  0.025120024   0.02636368  0.026357941    296.37792     41.49527    35.978931    34.423473    90.016431    119.66323    90.107069     18.84697    14.338528    28.377383    18.848924    14.340642 
   15000    300.33738    1.2509986    1988.5127   -1247.9897   -211.49952    2070.2126   -2309.4254   -2042.0786    44657.537 -0.067234084   -17.036218 -0.041707817    3475.7152    1527.9135    948.61566    849.96327    28.380563    18.845649    14.337448  0.025444879  0.025437599  0.027578609  0.027559935    300.33738     41.49527    35.978931    34.423473    90.016431    119.66323    90.107069    18.845723    14.338759    28.382892    18.846297    14.340049 
   16000    300.91116    1.2509986    2034.3719   -1232.3507   -211.49952    2074.5305   -2309.6182   -622.50203    44657.537 -0.067234084   -17.036218 -0.041707817    3501.8102    1586.1685    932.16613    834.50206    28.379666    18.846282    14.337431  0.026887839  0.026886176  0.029996822  0.029928768    300.91116     41.49527    35.978931    34.423473    90.016431    119.66323    90.107069     18.84709    14.336824    28.381154    18.845122    14.332541 
   17000    292.39078    1.2509986    1999.1026   -1225.2031   -211.49952    2069.1529   -2309.8456   -84.150281    44657.537 -0.067234084   -17.036218 -0.041707817    3464.9984    1528.0168    906.11979     873.1412    28.379093    18.846446    14.337434  0.024656276  0.024656077  0.028510032  0.028462727    292.39078     41.49527    35.978931    34.423473    90.016431    119.66323    90.107069    18.845883    14.337417     28.38314    18.843613    14.337334 
   18000    303.64385    1.2509986    2031.6122   -1213.5413   -211.49952    2072.8852   -2309.6477   -130.40997    44657.537 -0.067234084   -17.036218 -0.041707817     3481.916    1531.5878    929.45982    868.50618    28.378326    18.845825    14.337766  0.024571744  0.024559796    0.0255567  0.025532008    303.64385     41.49527    35.978931    34.423473    90.016431    119.66323    90.107069    18.846264    14.338335    28.382955    18.846265    14.342003 
   19000    296.23616    1.2509986    1987.9533   -1240.0871   -211.49952    2071.0745   -2309.8649   -814.76386    44657.537 -0.067234084   -17.036218 -0.041707817    3466.8307    1523.3464    919.72605    870.28415    28.380905    18.845621    14.337839  0.026185797  0.026182575  0.027070612  0.027038171    296.23616     41.49527    35.978931    34.423473    90.016431    119.66323    90.107069    18.844413    14.338017    28.381528    18.844908    14.336217 
   20000    301.70539    1.2509986    2073.0999   -1231.6115   -211.49952    2070.4424   -2310.3966   -613.91253    44657.537 -0.067234084   -17.036218 -0.041707817    3544.6657    1566.6337    924.00145    897.87838    28.380018    18.846172    14.337586   0.02495899  0.024951079  0.027299063  0.026987637    301.70539     41.49527    35.978931    34.423473    90.016431    119.66323    90.107069    18.844531    14.336515    28.387033    18.841218    14.325682 
   21000    301.37814    1.2509986    1990.3962    -1232.673   -211.49952    2069.8153   -2309.6335   -345.07044    44657.537 -0.067234084   -17.036218 -0.041707817    3462.8873    1558.3335    912.44847    846.12549    28.380874    18.845472    14.337589  0.027909689  0.027907082  0.027359735  0.027267387    301.37814     41.49527    35.978931    34.423473    90.016431    119.66323    90.107069    18.844736    14.338137    28.374282    18.840988    14.339288 
   22000    307.35634    1.2509986    2044.9385   -1221.7402   -211.49952    2071.8174   -2309.1897   -1000.9313    44657.537 -0.067234084   -17.036218 -0.041707817    3504.0509    1608.6473    918.07706    832.00919    28.379119    18.846958    14.338479  0.026226465  0.026219736  0.028977418  0.028932826    307.35634     41.49527    35.978931    34.423473    90.016431    119.66323    90.107069    18.847117    14.338475    28.374124     18.84673     14.34278 
   23000    298.16577    1.2509986    1950.7797    -1234.977   -211.49952    2071.3218   -2309.6542   -181.76272    44657.537 -0.067234084   -17.036218 -0.041707817    3424.0891    1535.1667    905.36245    843.35732    28.380356    18.845777    14.338251  0.026423678  0.026418019   0.02660508  0.026571947    298.16577     41.49527    35.978931    34.423473    90.016431    119.66323    90.107069    18.844622    14.339426    28.381159    18.847369    14.344917 
   24000    299.61279    1.2509986     2137.323   -1238.0039   -211.49952    2066.6303   -2309.9642   -1913.9953    44657.537 -0.067234084   -17.036218 -0.041707817    3618.6608     1622.799    972.41826    871.46516    28.381172    18.846261    14.338512  0.026535958  0.026529366  0.027267748  0.027224756    299.61279     41.49527    35.978931    34.423473    90.016431    119.66323    90.107069    18.846042     14.33931    28.383675    18.846821    14.344246 
   25000    296.35922    1.2509986    2061.9658   -1242.0173   -211.49952    2073.4324   -2309.5967   -1536.9039    44657.537 -0.067234084   -17.036218 -0.041707817    3540.1474    1548.5942     956.9606    879.74558    28.379634    18.846698    14.337818  0.027429378  0.027428816  0.032376844   0.03235118    296.35922     41.49527    35.978931    34.423473    90.016431    119.66323    90.107069    18.846538    14.337236    28.374931    18.849582    14.337652 
   26000    295.13458    1.2509986    2012.6718   -1239.1588   -211.49952     2080.786   -2309.5016    433.30953    44657.537 -0.067234084   -17.036218 -0.041707817    3480.5461    1582.1022    908.32533    844.69296    28.380038    18.845617    14.337335  0.026244308  0.026240398  0.028952258  0.028846823    295.13458     41.49527    35.978931    34.423473    90.016431    119.66323    90.107069    18.845615    14.336243    28.382471    18.849563    14.329808 
   27000    300.88744    1.2509986    2012.1949   -1251.3058   -211.49952    2071.1607   -2309.9622   -1472.8021    44657.537 -0.067234084   -17.036218 -0.041707817    3502.3022    1593.1503    913.81025    845.83716    28.380855    18.845331     14.33755  0.025965944   0.02596336  0.028863059  0.028825082    300.88744     41.49527    35.978931    34.423473    90.016431    119.66323    90.107069    18.845159    14.337073    28.380574    18.843013     14.33867 
   28000    299.95462    1.2509986    2012.8654   -1232.2827   -211.49952    2068.7253   -2309.8292   -1271.4357    44657.537 -0.067234084   -17.036218 -0.041707817    3486.2519     1578.046    910.49345    850.01762    28.380742    18.845919    14.337444  0.025428813  0.025427389  0.025612411  0.025458917    299.95462     41.49527    35.978931    34.423473    90.016431    119.66323    90.107069    18.845598    14.337054    28.370452    18.848736    14.331241 
   29000    302.38558    1.2509986    2028.1997   -1228.3954   -211.49952    2068.6838   -2309.7349   -1088.3607    44657.537 -0.067234084   -17.036218 -0.041707817    3497.6462    1572.5966    946.88596    836.56821    28.377814    18.845418    14.337581  0.026354108  0.026348261  0.024975701  0.024962389    302.38558     41.49527    35.978931    34.423473    90.016431    119.66323    90.107069    18.846229    14.337329    28.381039    18.846255    14.337765 
   30000    299.22883    1.2509986      2093.91   -1244.0644   -211.49952    2077.7568   -2309.8118   -401.29112    44657.537 -0.067234084   -17.036218 -0.041707817    3570.0294    1572.1327    960.30101    886.34761    28.381087    18.846626    14.337911  0.025947928  0.025946412  0.026510613  0.026452212    299.22883     41.49527    35.978931    34.423473    90.016431    119.66323    90.107069    18.845802    14.336806    28.376298    18.846942    14.333043 
   31000     299.8068    1.2509986    1934.0153   -1230.9755   -211.49952    2074.2841   -2309.6251    -505.3574    44657.537 -0.067234084   -17.036218 -0.041707817    3400.3317    1509.6726    927.47094    820.23147    28.381569    18.846089    14.338429  0.026405244  0.026403257  0.029178356  0.029137493     299.8068     41.49527    35.978931    34.423473    90.016431    119.66323    90.107069    18.845523    14.337109    28.381369     18.84347    14.337021 
   32000     300.0487    1.2509986    1935.5835   -1237.4953   -211.49952    2075.4403   -2309.5164   -1992.4552    44657.537 -0.067234084   -17.036218 -0.041707817    3407.1549    1531.6617    885.93672    846.28819    28.379161    18.845574    14.336808  0.026222007  0.026221276  0.026314218  0.026269251     300.0487     41.49527    35.978931    34.423473    90.016431    119.66323    90.107069    18.845328    14.337778    28.376797    18.842902    14.339585 
   33000    304.91884    1.2509986    2054.7519   -1214.7494   -211.49952    2072.7383   -2309.5986    680.93382    44657.537 -0.067234084   -17.036218 -0.041707817    3506.3616    1561.4328    967.49864    835.65721    28.379914    18.845947    14.337705  0.026426888  0.026418084  0.026120608  0.026015139    304.91884     41.49527    35.978931    34.423473    90.016431    119.66323    90.107069    18.846935    14.337815    28.389361    18.847401    14.337041 
   34000    290.91985    1.2509986    2005.5813   -1243.4192   -211.49952    2076.0856   -2309.5703    131.93964    44657.537 -0.067234084   -17.036218 -0.041707817    3482.4852    1514.5788    922.61765    889.20205    28.380239    18.846217    14.337957  0.026244213  0.026229369  0.026054455  0.025994791    290.91985     41.49527    35.978931    34.423473    90.016431    119.66323    90.107069     18.84632    14.337957    28.386214    18.847068    14.336239 
   35000    300.59964    1.2509986     1977.352   -1229.2294   -211.49952    2073.6978   -2309.4518   -767.67968    44657.537 -0.067234084   -17.036218 -0.041707817    3442.3354    1517.5588    937.95435    841.46315    28.380815    18.845869    14.337772  0.027419158  0.027407714  0.029095506  0.028977911    300.59964     41.49527    35.978931    34.423473    90.016431    119.66323    90.107069    18.844239     14.33898    28.387586    18.843141    14.343955 
   36000    296.36652    1.2509986    1954.0913   -1228.2212   -211.49952    2073.0469   -2310.0284    353.24643    44657.537 -0.067234084   -17.036218 -0.041707817     3419.294    1535.3826    906.76201    833.01876    28.380623    18.846343    14.337687  0.026297871  0.026297365  0.029141046  0.028984558    296.36652     41.49527    35.978931    34.423473    90.016431    119.66323    90.107069    18.846662    14.337618    28.391832    18.847135    14.338132 
   37000    299.00437    1.2509986    1989.5705   -1246.8384   -211.49952    2075.4617   -2309.7143   -515.98815    44657.537 -0.067234084   -17.036218 -0.041707817    3470.6614    1505.1058    897.18826    910.84288    28.378908    18.845892    14.338208  0.025449615   0.02544446  0.026991295  0.026971343    299.00437     41.49527    35.978931    34.423473    90.016431    119.66323    90.107069    18.844143    14.338717    28.377339    18.845348    14.340904 
   38000    303.93632    1.2509986     1974.429   -1235.9879   -211.49952     2071.379   -2309.4166   -759.63046    44657.537 -0.067234084   -17.036218 -0.041707817    3448.4544    1567.6664    928.79198    814.98365    28.377946    18.846482    14.337274  0.026050379  0.026048136  0.025134167  0.025069449    303.93632     41.49527    35.978931    34.423473    90.016431    119.66323    90.107069    18.846909    14.338412    28.381974    18.848299    14.347278 
   39000    300.86308    1.2509986    2101.4892   -1220.0693   -211.49952    2073.3308   -2309.6034    114.40555    44657.537 -0.067234084   -17.036218 -0.041707817    3557.8311    1564.8418    952.07191    888.96082    28.378767     18.84611    14.336944  0.026393556   0.02638672  0.026824087  0.026748051    300.86308     41.49527    35.978931    34.423473    90.016431    119.66323    90.107069    18.846116    14.337527    28.372025     18.84627    14.343072 
   40000    296.26457    1.2509986    2070.1875   -1222.8392   -211.49952    2078.6016   -2309.2641    731.43873    44657.537 -0.067234084   -17.036218 -0.041707817    3523.6893    1550.8736    925.04236     891.9892    28.378438    18.846395     14.33694  0.026965206  0.026961356  0.027460858  0.027434001    296.26457     41.49527    35.978931    34.423473    90.016431    119.66323    90.107069    18.845146    14.336493    28.381926     18.84441    14.339872 
   41000    292.84858    1.2509986    2039.4741   -1245.1441   -211.49952    2071.0869   -2310.1973   -903.62515    44657.537 -0.067234084   -17.036218 -0.041707817    3523.7286    1560.5825    928.45572    881.53872    28.378841    18.846329    14.337819  0.026569668  0.026568581  0.028058035  0.027917693    292.84858     41.49527    35.978931    34.423473    90.016431    119.66323    90.107069    18.845678    14.337204     28.37344    18.844651    14.330478 
   42000     301.1243    1.2509986    2064.4816   -1206.4962   -211.49952    2073.3986   -2309.7162     173.1437    44657.537 -0.067234084   -17.036218 -0.041707817    3507.2955    1540.5356    958.01946    857.39275    28.380435    18.846135    14.338073  0.025618156  0.025609875  0.027925596   0.02785742     301.1243     41.49527    35.978931    34.423473    90.016431    119.66323    90.107069     18.84523    14.339395     28.38481    18.845524    14.344968 
   43000    300.59847    1.2509986    1982.8172    -1232.217   -211.49952    2071.8762   -2309.6485   -84.188422    44657.537 -0.067234084   -17.036218 -0.041707817    3452.8065    1504.0836    904.19884    885.42011    28.381253      18.8457    14.338088  0.027259957  0.027258408   0.02775949  0.027728781    300.59847     41.49527    35.978931    34.423473    90.016431    119.66323    90.107069    18.845324    14.337309    28.375464    18.847279    14.336329 
   44000    300.12201    1.2509986    2057.7459   -1214.0936   -211.49952    2074.9063   -2309.8145   -30.543948    44657.537 -0.067234084   -17.036218 -0.041707817    3506.7477    1550.7305    944.80472    861.99536    28.379627    18.847173    14.337686  0.025151793  0.025148305  0.027127654  0.027114265    300.12201     41.49527    35.978931    34.423473    90.016431    119.66323    90.107069    18.847239    14.337578    28.380608      18.8493    14.336145 
   45000    302.63013    1.2509986    1995.2841   -1220.4994   -211.49952    2072.8122   -2309.7283   -596.45796    44657.537 -0.067234084   -17.036218 -0.041707817    3452.6996    1544.4515    925.67117    838.84662    28.380338    18.846131    14.337374  0.027450651  0.027446555  0.029524061  0.029404944    302.63013     41.49527    35.978931    34.423473    90.016431    119.66323    90.107069    18.847307    14.339057    28.375162    18.847711    14.349543 
   46000    295.57191    1.2509986    2066.5262   -1218.6441   -211.49952     2071.306   -2309.8228   -1455.6947    44657.537 -0.067234084   -17.036218 -0.041707817    3523.6871    1564.7763    910.95741    896.09997    28.378482    18.846157    14.338247  0.026374098  0.026359496  0.030290638  0.030178136    295.57191     41.49527    35.978931    34.423473    90.016431    119.66323    90.107069    18.848045    14.338636    28.370005    18.853122     14.34173 
   47000    301.86695    1.2509986    1943.7883   -1238.4016   -211.49952    2070.6813   -2309.7662   -737.29098    44657.537 -0.067234084   -17.036218 -0.041707817    3421.2748    1544.6357    896.04597     834.7777    28.380894    18.845554    14.337332  0.026609047  0.026608047  0.030574471   0.03051709    301.86695     41.49527    35.978931    34.423473    90.016431    119.66323    90.107069    18.845826    14.337034     28.38119    18.850613    14.332417 
   48000    296.76667    1.2509986     1999.083   -1251.9888   -211.49952     2072.079   -2309.8355    695.25386    44657.537 -0.067234084   -17.036218 -0.041707817    3488.8284    1532.6023    963.89731     843.1841    28.380032    18.846137    14.337591  0.026735807  0.026733072  0.027083714  0.027071079    296.76667     41.49527    35.978931    34.423473    90.016431    119.66323    90.107069    18.847323    14.336778      28.3779    18.849575    14.336544 
   49000    299.40521    1.2509986    2019.0711   -1257.5649   -211.49952     2072.326   -2310.1149   -2574.5274    44657.537 -0.067234084   -17.036218 -0.041707817    3514.4249    1614.1084    898.78016    856.07564    28.381467    18.845852    14.337918  0.026946034  0.026938385  0.028229851  0.028119496    299.40521     41.49527    35.978931    34.423473    90.016431    119.66323    90.107069    18.847086    14.337883    28.387009    18.852796    14.333274 
   50000    299.31468    1.2509986    2074.2141   -1232.9674   -211.49952    2073.4072   -2309.4838   -1959.8577    44657.537 -0.067234084   -17.036218 -0.041707817    3543.2581    1532.9167    968.51193    888.28349    28.378187    18.846789    14.337716  0.025079311  0.025075669  0.026214692  0.026129217    299.31468     41.49527    35.978931    34.423473    90.016431    119.66323    90.107069    18.847971    14.337092     28.38815    18.850905    14.336801 
   51000    295.22211    1.2509986    1993.2334   -1244.8009   -211.49952    2075.8127   -2309.6472   -1454.1939    44657.537 -0.067234084   -17.036218 -0.041707817    3471.8687    1555.0683    908.40252    861.28279    28.380592    18.845624    14.337852  0.025544001  0.025543244  0.027817897  0.027729876    295.22211     41.49527    35.978931    34.423473    90.016431    119.66323    90.107069     18.84569    14.337036    28.384596    18.841162    14.338641 
   52000    297.02585    1.2509986    2100.8089   -1230.4926   -211.49952    2068.2407   -2310.4152    -1271.577    44657.537 -0.067234084   -17.036218 -0.041707817     3573.476    1573.3002    958.28213     884.8117    28.379225     18.84587    14.337964  0.026381418   0.02637905   0.02854397  0.028519532    297.02585     41.49527    35.978931    34.423473    90.016431    119.66323    90.107069    18.845415    14.338486    28.382895    18.847371    14.342893 
   53000    295.71769    1.2509986    1949.4253   -1266.0968   -211.49952    2074.9292   -2309.7991   -1996.4308    44657.537 -0.067234084   -17.036218 -0.041707817    3450.3919    1516.8038    915.34646    867.72764     28.38145    18.846201    14.338889  0.026960836  0.026951501  0.026006998  0.026000176    295.71769     41.49527    35.978931    34.423473    90.016431    119.66323    90.107069    18.847121    14.339024    28.377957    18.849331    14.337598 
   54000    293.52651    1.2509986    2029.2933     -1240.36   -211.49952    2073.2998   -2309.4575   -898.41127    44657.537 -0.067234084   -17.036218 -0.041707817    3505.8109    1533.4319    938.16431    881.11585     28.38065    18.846199    14.337662  0.026323992  0.026318673  0.027613256   0.02757554    293.52651     41.49527    35.978931    34.423473    90.016431    119.66323    90.107069    18.846035    14.336389     28.38011    18.846884    14.333904 
   55000     294.0637    1.2509986    1995.4147    -1261.887   -211.49952    2074.8833    -2309.616   -2121.1217    44657.537 -0.067234084   -17.036218 -0.041707817    3492.0344    1554.1354    947.48962    842.39122    28.380088    18.846291    14.338009  0.026164085  0.026162535  0.027429767  0.027375121     294.0637     41.49527    35.978931    34.423473    90.016431    119.66323    90.107069    18.845212    14.337489     28.37638    18.842804    14.337189 
   56000    293.32214    1.2509986    1935.3715   -1262.5173   -211.49952    2075.6836   -2309.8575   -1184.3641    44657.537 -0.067234084   -17.036218 -0.041707817    3432.0629     1541.175    897.03739    845.86419    28.381614    18.846851     14.33809  0.025550955  0.025550424  0.027368592  0.027269397    293.32214     41.49527    35.978931    34.423473    90.016431    119.66323    90.107069    18.846233    14.338358    28.369886    18.847191    14.341173 
   57000    294.73676    1.2509986    2002.6103   -1229.9899   -211.49952    2071.6493   -2309.6461   -849.24933    44657.537 -0.067234084   -17.036218 -0.041707817    3470.5971    1514.4035    945.05726     862.1359    28.379535    18.846359    14.337837  0.027172897  0.027172538  0.026217846  0.026153441    294.73676     41.49527    35.978931    34.423473    90.016431    119.66323    90.107069    18.845997    14.338302    28.387236    18.849823    14.341823 
   58000    299.51988    1.2509986    1993.9925   -1237.7014   -211.49952    2066.6048   -2310.0552   -2489.0728    44657.537 -0.067234084   -17.036218 -0.041707817    3475.1443    1559.8327    893.55681     871.4479    28.379898    18.846878    14.338217  0.025572319  0.025569747  0.026036846  0.026026208    299.51988     41.49527    35.978931    34.423473    90.016431    119.66323    90.107069    18.846421    14.337862    28.377222    18.847636    14.341453 
   59000    302.03979    1.2509986    2002.7116   -1228.4776   -211.49952    2072.9873   -2309.4252   -532.89648    44657.537 -0.067234084   -17.036218 -0.041707817    3467.6272    1503.8064    960.30298    853.07737    28.379874    18.846498    14.337436  0.025200431  0.025188102   0.02642829   0.02628505    302.03979     41.49527    35.978931    34.423473    90.016431    119.66323    90.107069    18.847491    14.338557    28.390298    18.851052    14.344506 
   60000    297.88882    1.2509986    2070.5791   -1254.8188   -211.49952    2074.3328    -2309.945   -2783.1177    44657.537 -0.067234084   -17.036218 -0.041707817    3561.0101    1576.6338    959.78785    873.25784    28.381562    18.845071    14.338503    0.0261103  0.026103516  0.027356685  0.027295773    297.88882     41.49527    35.978931    34.423473    90.016431    119.66323    90.107069    18.844543    14.339123     28.38596    18.845205    14.341964 
   61000    293.43256    1.2509986    2057.9966   -1218.1693   -211.49952    2071.9454   -2309.5222   -186.54609    44657.537 -0.067234084   -17.036218 -0.041707817    3513.7428    1591.7429    942.62687    832.86069     28.37986      18.8453    14.337344  0.024986591   0.02498561  0.027876592  0.027843704    293.43256     41.49527    35.978931    34.423473    90.016431    119.66323    90.107069    18.846257     14.33823    28.384187    18.850468    14.336584 
   62000    298.57603    1.2509986    2017.8584   -1245.3292   -211.49952    2078.3435   -2309.9273   -231.07336    44657.537 -0.067234084   -17.036218 -0.041707817    3494.7714    1571.7561     927.0001    853.73315    28.380442     18.84652    14.337516  0.027546242  0.027544856  0.028410414  0.028377456    298.57603     41.49527    35.978931    34.423473    90.016431    119.66323    90.107069    18.846516    14.338008    28.375462    18.845805    14.342067 
   63000    296.35576    1.2509986    2027.9041   -1256.8654   -211.49952     2072.511   -2309.5166   -2434.2477    44657.537 -0.067234084   -17.036218 -0.041707817    3521.7751    1561.4073    967.56653    841.53225     28.37777    18.845766    14.337383  0.025674358  0.025672396  0.027270063  0.027206411    296.35576     41.49527    35.978931    34.423473    90.016431    119.66323    90.107069    18.846045    14.339062    28.380997    18.842225    14.343575 
   64000    297.88595    1.2509986    2035.8774   -1234.6588   -211.49952    2072.1493   -2309.6753   -544.44848    44657.537 -0.067234084   -17.036218 -0.041707817    3508.0622    1514.1886    937.95049    900.71533     28.38064    18.845826    14.337995  0.025745042  0.025730847  0.026163203  0.025856969    297.88595     41.49527    35.978931    34.423473    90.016431    119.66323    90.107069    18.846543    14.337869    28.392188    18.845456    14.328061 
   65000    297.42315    1.2509986    2043.6309   -1226.9687   -211.49952    2070.9558   -2310.1168   -685.31608    44657.537 -0.067234084   -17.036218 -0.041707817    3509.7606    1543.4722    941.51226    869.51965    28.379944    18.845501    14.337654  0.025765143  0.025762803  0.027388614  0.027311718    297.42315     41.49527    35.978931    34.423473    90.016431    119.66323    90.107069    18.846696    14.336866    28.378303    18.849503    14.330973 
   66000    298.54501    1.2509986    2051.6462   -1216.9188   -211.49952    2069.6665   -2310.2865     549.7919    44657.537 -0.067234084   -17.036218 -0.041707817    3509.1849    1544.2504    949.47393    867.47826    28.380034    18.846084    14.337837  0.025625199   0.02562374  0.027259826  0.027232551    298.54501     41.49527    35.978931    34.423473    90.016431    119.66323    90.107069    18.846902    14.337257    28.374438    18.849807    14.338968 
   67000    294.93425    1.2509986    2003.2256   -1242.5577   -211.49952    2073.5577   -2309.8873   -489.20299    44657.537 -0.067234084   -17.036218 -0.041707817     3482.113    1545.9799     897.5746    882.62458    28.379737    18.845188    14.338027  0.025752161  0.025750138  0.028170714  0.028107129    294.93425     41.49527    35.978931    34.423473    90.016431    119.66323    90.107069    18.845337    14.338275    28.381128     18.84148    14.341728 
   68000    303.98189    1.2509986    2057.6705   -1228.5662   -211.49952    2071.6737   -2309.7157   -1094.2579    44657.537 -0.067234084   -17.036218 -0.041707817    3524.2787    1604.2593    896.83637    869.00565    28.379944    18.846211    14.337502  0.025847829  0.025846678  0.026136174  0.026102964    303.98189     41.49527    35.978931    34.423473    90.016431    119.66323    90.107069     18.84552    14.338063    28.374688    18.845932    14.339497 
   69000    298.06804    1.2509986    2065.8034    -1222.586   -211.49952    2072.3177   -2309.8567   -720.60712    44657.537 -0.067234084   -17.036218 -0.041707817    3525.9284    1555.1084    931.87913    888.43503    28.380425    18.846503    14.338166  0.026027177  0.026025208   0.02665027  0.026637532    298.06804     41.49527    35.978931    34.423473    90.016431    119.66323    90.107069    18.847007    14.337864    28.376222    18.847908    14.340268 
   70000    293.11694    1.2509986    2025.5844   -1204.2652   -211.49952    2073.6602   -2309.6061    841.92248    44657.537 -0.067234084   -17.036218 -0.041707817    3465.7955    1538.3403    932.03884    850.41817    28.380949    18.846121    14.338194  0.027157515  0.027153615  0.028304043  0.028267486    293.11694     41.49527    35.978931    34.423473    90.016431    119.66323    90.107069    18.846467    14.338874    28.382155    18.844765    14.336209 
   71000    292.79578    1.2509986     2071.172   -1220.3586   -211.49952    2068.9334   -2310.1816    -90.92009    44657.537 -0.067234084   -17.036218 -0.041707817    3532.7787    1539.1061    943.29376    894.96174     28.38064    18.845731    14.337535   0.02573506  0.025734158  0.027667605  0.027603899    292.79578     41.49527    35.978931    34.423473    90.016431    119.66323    90.107069    18.846002    14.336806    28.382511    18.844561    14.333709 
   72000    300.77566    1.2509986    2048.7507   -1236.1566   -211.49952     2072.174   -2309.7005   -995.33419    44657.537 -0.067234084   -17.036218 -0.041707817    3522.4338    1575.5232    911.52793    885.88333    28.379185    18.846008    14.337565  0.025558053  0.025554853  0.025297802  0.025200443    300.77566     41.49527    35.978931    34.423473    90.016431    119.66323    90.107069    18.845468    14.336139    28.384537    18.842622    14.334007 
   73000    301.73984    1.2509986     2073.159   -1224.6415   -211.49952    2073.0525   -2309.9546    194.44687    44657.537 -0.067234084   -17.036218 -0.041707817    3534.7026    1549.4548    952.62553    880.48104    28.379899    18.846393    14.337437  0.026560723   0.02655767  0.026922992  0.026880061    301.73984     41.49527    35.978931    34.423473    90.016431    119.66323    90.107069    18.844955    14.336938    28.378454    18.845514    14.334209 
   74000    294.77973    1.2509986    1983.6937   -1231.2626   -211.49952    2072.6986    -2309.408   -1033.2718    44657.537 -0.067234084   -17.036218 -0.041707817    3451.6657       1508.2    960.64588    832.41359    28.380622    18.846138    14.337839  0.026020197     0.026018  0.030157402  0.030070157    294.77973     41.49527    35.978931    34.423473    90.016431    119.66323    90.107069    18.847472    14.337564    28.371645    18.852428    14.336034 
   75000    297.63012    1.2509986    1970.3865   -1234.2853   -211.49952    2073.7521   -2309.6022   -352.14495    44657.537 -0.067234084   -17.036218 -0.041707817    3440.5218    1538.7066    921.18449    836.78958    28.378404     18.84625     14.33762  0.026914659  0.026907004  0.025942387  0.025861892    297.63012     41.49527    35.978931    34.423473    90.016431    119.66323    90.107069    18.845974    14.336946    28.381247    18.842549     14.33365 
   76000    299.29166    1.2509986    1931.9871    -1228.883   -211.49952    2072.9528   -2309.6717    138.39604    44657.537 -0.067234084   -17.036218 -0.041707817    3397.5891      1533.39    900.69936     826.2161    28.379557     18.84628    14.337557  0.026451724  0.026447676  0.026728145  0.026592963    299.29166     41.49527    35.978931    34.423473    90.016431    119.66323    90.107069    18.846354    14.337485    28.386979    18.848643    14.330696 
   77000    304.46247    1.2509986    2045.8873   -1250.8594   -211.49952    2076.3595   -2309.8254   -1728.1518    44657.537 -0.067234084   -17.036218 -0.041707817    3530.2126    1555.4295    977.77259    847.85601    28.381959    18.846305    14.337883  0.025390796  0.025388504  0.026288594  0.026258392    304.46247     41.49527    35.978931    34.423473    90.016431    119.66323    90.107069    18.845245    14.336828    28.380492    18.846135    14.335051 
   78000    302.91645    1.2509986    1963.4949   -1245.7468   -211.49952    2070.7786   -2309.9224   -1116.2958    44657.537 -0.067234084   -17.036218 -0.041707817    3448.3856    1508.5098    935.66586    857.13671    28.381843    18.846579     14.33856  0.025906671  0.025902436  0.028603609  0.028530962    302.91645     41.49527    35.978931    34.423473    90.016431    119.66323    90.107069    18.846965    14.339565     28.37387     18.84936    14.345978 
   79000    298.49247    1.2509986    1978.2294   -1249.2348   -211.49952    2068.5795    -2309.822    -1683.088    44657.537 -0.067234084   -17.036218 -0.041707817    3468.7067    1557.0614    904.15455    855.38916    28.380263    18.845953     14.33803  0.028165511  0.028159752  0.030556107  0.030486013    298.49247     41.49527    35.978931    34.423473    90.016431    119.66323    90.107069    18.844466    14.337234    28.383379    18.841598    14.338932 
   80000    291.86385    1.2509986    2037.5026   -1273.3988   -211.49952    2074.3746   -2309.5684   -1724.5619    44657.537 -0.067234084   -17.036218 -0.041707817    3546.0952    1573.4471     916.7673    899.28435    28.380106    18.846026    14.337755  0.026498184  0.026496168  0.027499656  0.027366885    291.86385     41.49527    35.978931    34.423473    90.016431    119.66323    90.107069    18.847084    14.336644    28.375274    18.851913    14.329342 
   81000    292.96401    1.2509986    2014.3049    -1246.244   -211.49952    2071.5649   -2309.7503   -846.74979    44657.537 -0.067234084   -17.036218 -0.041707817    3498.7343    1552.8708    941.73075    860.15635    28.381635    18.845882    14.338175  0.026786586  0.026785386  0.027770109  0.027734875    292.96401     41.49527    35.978931    34.423473    90.016431    119.66323    90.107069    18.847181    14.337722    28.374322    18.850399    14.337207 
   82000    292.33272    1.2509986    1973.4027   -1243.4676   -211.49952     2073.993   -2309.6806   -567.95486    44657.537 -0.067234084   -17.036218 -0.041707817    3452.5579    1526.8596    889.85818    885.17291    28.380717    18.845325    14.337073  0.025822748  0.025815679  0.028434442  0.028310144    292.33272     41.49527    35.978931    34.423473    90.016431    119.66323    90.107069    18.844633    14.336515    28.385594     18.84523    14.331063 
   83000    299.88343    1.2509986    2048.8332   -1217.4421   -211.49952    2069.0796   -2309.8806   -458.82418    44657.537 -0.067234084   -17.036218 -0.041707817    3507.0763     1557.413    935.28731    860.60841    28.381321    18.846192    14.337585  0.027366315  0.027365563  0.030110258  0.030078042    299.88343     41.49527    35.978931    34.423473    90.016431    119.66323    90.107069    18.846429    14.338445    28.376876    18.847671    14.344458 
   84000    298.62152    1.2509986    1994.3366   -1271.0203   -211.49952    2071.5936   -2309.6749   -2475.9258    44657.537 -0.067234084   -17.036218 -0.041707817    3503.4381    1588.6127    919.80038    848.49334    28.377522    18.846257     14.33657  0.026452376  0.026450836  0.031905004  0.031802583    298.62152     41.49527    35.978931    34.423473    90.016431    119.66323    90.107069     18.84529    14.336911    28.385621    18.842336    14.335048 
   85000    302.20762    1.2509986    1986.3161    -1253.425   -211.49952    2072.8306   -2309.8885   -1659.1016    44657.537 -0.067234084   -17.036218 -0.041707817    3476.7989    1527.9771    965.84307    834.60705    28.379666    18.846241    14.337408  0.025470092  0.025468489  0.026492518  0.026471101    302.20762     41.49527    35.978931    34.423473    90.016431    119.66323    90.107069    18.846768    14.336711     28.38204    18.849681    14.335791 
   86000    293.38883    1.2509986    2069.5651   -1244.5525   -211.49952     2073.806    -2309.727   -687.54466    44657.537 -0.067234084   -17.036218 -0.041707817    3550.0387    1616.3983    910.37372    870.24467    28.378696    18.846651    14.337966  0.026537305  0.026530772  0.027716907  0.027640094    293.38883     41.49527    35.978931    34.423473    90.016431    119.66323    90.107069    18.847263    14.339222    28.377943    18.848029    14.348196 
   87000    295.88532    1.2509986    2031.1393   -1241.9835   -211.49952     2067.902   -2309.8842   -1727.8641    44657.537 -0.067234084   -17.036218 -0.041707817     3515.105    1570.7006     952.0641    841.53227    28.379784     18.84663    14.337539  0.026365363   0.02636387  0.027375656   0.02731417    295.88532     41.49527    35.978931    34.423473    90.016431    119.66323    90.107069    18.847298    14.337246    28.386515      18.8459    14.341477 
   88000    295.60753    1.2509986    2079.0265   -1218.5984   -211.49952     2072.534     -2309.85   -384.88034    44657.537 -0.067234084   -17.036218 -0.041707817    3534.9409    1560.6018    928.66443    892.23244     28.38259    18.846936    14.338514  0.028315974  0.028311238  0.033197477  0.033168402    295.60753     41.49527    35.978931    34.423473    90.016431    119.66323    90.107069    18.846967    14.338941    28.378017    18.846667    14.344243 
   89000    297.51227    1.2509986    2015.3052   -1229.2731   -211.49952    2073.7586   -2309.2118    1362.1704    44657.537 -0.067234084   -17.036218 -0.041707817    3480.0315    1516.5443    922.93902     881.7204    28.380274    18.844942    14.337656  0.027067028  0.027063404  0.028488341  0.028450579    297.51227     41.49527    35.978931    34.423473    90.016431    119.66323    90.107069     18.84513    14.338435    28.382344    18.848349    14.345074 
   90000    297.78463    1.2509986    2042.3783   -1242.6181   -211.49952    2069.6836   -2309.9378   -622.06402    44657.537 -0.067234084   -17.036218 -0.041707817    3525.2505    1537.8052    971.94098    863.74745     28.38152    18.846433    14.338165  0.025994489  0.025992315  0.028178105  0.028171714    297.78463     41.49527    35.978931    34.423473    90.016431    119.66323    90.107069    18.847072    14.338235    28.379371    18.851533    14.339711 
   91000    294.05127    1.2509986    2082.2291   -1234.5338   -211.49952    2071.2355   -2309.7717   -896.59431    44657.537 -0.067234084   -17.036218 -0.041707817    3555.2991    1600.6424    937.82406    865.35265    28.378961    18.846498    14.337312  0.025778351   0.02577428   0.02689086  0.026777894    294.05127     41.49527    35.978931    34.423473    90.016431    119.66323    90.107069    18.847362    14.336384    28.374831    18.847688     14.33021 
   92000    301.56582    1.2509986    2027.6701   -1239.9016   -211.49952    2070.8252   -2309.9553   -502.42369    44657.537 -0.067234084   -17.036218 -0.041707817    3506.7017    1541.1348    949.50892    868.31135    28.377854    18.846253    14.336738   0.02631359  0.026310887   0.02814734  0.028133148    301.56582     41.49527    35.978931    34.423473    90.016431    119.66323    90.107069    18.846509     14.33761    28.380728    18.847898    14.343041 
   93000     301.4341    1.2509986    2028.9588   -1243.4656   -211.49952    2077.4181    -2309.954   -54.558697    44657.537 -0.067234084   -17.036218 -0.041707817    3504.9603    1495.9589    935.72842     911.7382    28.379894    18.846515    14.338196  0.025330719   0.02532541   0.02401949  0.024005308     301.4341     41.49527    35.978931    34.423473    90.016431    119.66323    90.107069    18.847791    14.339063     28.37632    18.848417     14.34147 
   94000    305.14255    1.2509986    2041.7911   -1224.5011   -211.49952      2071.61   -2309.7838    347.13542    44657.537 -0.067234084   -17.036218 -0.041707817    3504.4661    1537.2286    948.00199    869.77351    28.378446    18.846761    14.336711  0.027422979  0.027419365  0.029073566  0.028973804    305.14255     41.49527    35.978931    34.423473    90.016431    119.66323    90.107069      18.8453    14.336103    28.381054    18.840412    14.334786 
   95000    298.78979    1.2509986    2016.1098   -1226.7918   -211.49952    2073.4332   -2310.2747   -141.58226    44657.537 -0.067234084   -17.036218 -0.041707817    3479.7431    1538.2315    943.17541    851.55435    28.379967     18.84559    14.337425  0.025726706  0.025719229  0.027701929  0.027646413    298.78979     41.49527    35.978931    34.423473    90.016431    119.66323    90.107069    18.845038    14.337499    28.385898    18.846687    14.336493 
   96000    293.58523    1.2509986    2027.6937   -1239.7275   -211.49952    2072.0033   -2310.0485   -689.91942    44657.537 -0.067234084   -17.036218 -0.041707817    3505.4663     1564.443    924.40126    862.31534    28.379404    18.846068    14.337606  0.026815827  0.026810517    0.0301876  0.030171274    293.58523     41.49527    35.978931    34.423473    90.016431    119.66323    90.107069    18.847797    14.338315    28.376873    18.848826    14.342653 
   97000    298.94645    1.2509986    2022.0074   -1224.3934   -211.49952    2068.3097   -2310.2115   -153.08766    44657.537 -0.067234084   -17.036218 -0.041707817    3488.3026    1528.5023    959.94673    849.90159    28.378679    18.846049    14.337528  0.026063098   0.02605897  0.028166744  0.028112385    298.94645     41.49527    35.978931    34.423473    90.016431    119.66323    90.107069    18.846604    14.337762    28.373671    18.851802    14.343093 
   98000    293.28063    1.2509986    2020.0097   -1235.9299   -211.49952    2070.8463   -2309.9535   -319.87901    44657.537 -0.067234084   -17.036218 -0.041707817    3495.0469    1523.3866    928.99057    889.09427    28.380827    18.846178    14.337679  0.025884638  0.025884109  0.027708302  0.027606887    293.28063     41.49527    35.978931    34.423473    90.016431    119.66323    90.107069    18.846701    14.337645    28.370789    18.844422    14.337775 
   99000     291.6534    1.2509986    2011.7021    -1239.194   -211.49952    2067.9928   -2309.9849   -819.32523    44657.537 -0.067234084   -17.036218 -0.041707817    3492.8882    1530.4423     975.9397    835.31535    28.381251    18.846892    14.338299  0.025105361  0.025103375   0.02673128  0.026700084     291.6534     41.49527    35.978931    34.423473    90.016431    119.66323    90.107069    18.845631    14.339037    28.380681    18.845883    14.344125 
  100000    295.79545    1.2509986    2028.2086   -1227.7844   -211.49952    2073.4229   -2309.5529     842.0384    44657.537 -0.067234084   -17.036218 -0.041707817     3492.123    1494.9869    946.54676    891.32863    28.378097    18.846801    14.337454  0.026345123  0.026336464  0.026392149   0.02627601    295.79545     41.49527    35.978931    34.423473    90.016431    119.66323    90.107069    18.848368    14.339551    28.378014    18.849393    14.350297 
  101000    296.23237    1.2509986    2036.9957   -1240.1972   -211.49952    2070.6285   -2309.9135   -14.861097    44657.537 -0.067234084   -17.036218 -0.041707817    3516.4778    1528.3383    956.79038    876.23193    28.382314    18.845877    14.338444  0.026910245  0.026882142  0.027246082  0.027114295    296.23237     41.49527    35.978931    34.423473    90.016431    119.66323    90.107069    18.846163    14.340066    28.384951    18.845074    14.348975 
  102000    299.68217    1.2509986    2036.0492    -1239.141   -211.49952    2072.6356   -2310.0648   -203.63908    44657.537 -0.067234084   -17.036218 -0.041707817    3512.6195    1527.8511    925.51157    905.05902    28.381418    18.845587    14.337822  0.027088162  0.027085977   0.02737218  0.027345194    299.68217     41.49527    35.978931    34.423473    90.016431    119.66323    90.107069    18.844873    14.337629    28.383916    18.846211    14.339274 
  103000    296.27807    1.2509986     1984.308   -1256.0801   -211.49952    2069.1025   -2310.1203    -2250.177    44657.537 -0.067234084   -17.036218 -0.041707817    3481.4059    1540.6621    912.30832    875.22952    28.380674      18.8456    14.338548  0.027251844  0.027238082  0.028049193   0.02799763    296.27807     41.49527    35.978931    34.423473    90.016431    119.66323    90.107069    18.845313    14.340383    28.378971    18.843994     14.34474 
  104000     294.1317    1.2509986    2052.6957   -1231.5471   -211.49952    2069.9831   -2309.6095   -2414.8159    44657.537 -0.067234084   -17.036218 -0.041707817    3523.8691    1608.5072    927.01944    843.47892    28.381132    18.845835    14.338501  0.026503718  0.026501715  0.027550095  0.027515047     294.1317     41.49527    35.978931    34.423473    90.016431    119.66323    90.107069    18.846831     14.33834    28.385081    18.848811    14.337519 
  105000    300.17809    1.2509986    2173.6677   -1216.2392   -211.49952    2072.5184   -2309.8617    -433.7673    44657.537 -0.067234084   -17.036218 -0.041707817    3627.2502    1624.2399    961.29817    884.80817    28.379746    18.845852    14.338114  0.025859169  0.025858447  0.027307238  0.027253897    300.17809     41.49527    35.978931    34.423473    90.016431    119.66323    90.107069    18.845752    14.337298    28.374701    18.848382    14.334219 
  106000    295.01423    1.2509986    2028.8149   -1236.6447   -211.49952    2074.3126   -2309.6177   -1022.9518    44657.537 -0.067234084   -17.036218 -0.041707817    3500.7646    1594.3234    920.14713    841.30007    28.378948    18.846132    14.337867  0.025739718  0.025735792  0.026823652  0.026728471    295.01423     41.49527    35.978931    34.423473    90.016431    119.66323    90.107069    18.846958     14.33677    28.385158    18.851572    14.332072 
  107000    302.49971    1.2509986    2018.2051   -1221.6171   -211.49952     2068.577   -2309.9994   -855.95709    44657.537 -0.067234084   -17.036218 -0.041707817    3481.2447    1542.9302    932.26023    853.82512    28.379719    18.845986    14.337498  0.026344617  0.026337067  0.026195702  0.026135028    302.49971     41.49527    35.978931    34.423473    90.016431    119.66323    90.107069    18.846389    14.338803    28.386019    18.844777    14.340621 
  108000    291.27337    1.2509986    1979.3937   -1229.2837   -211.49952      2073.57   -2309.8369   -659.99766    44657.537 -0.067234084   -17.036218 -0.041707817    3444.9444    1495.7395    923.58206    869.61984    28.381228      18.8459    14.338127  0.026085515  0.026081907  0.026196255  0.026148936    291.27337     41.49527    35.978931    34.423473    90.016431    119.66323    90.107069    18.846024    14.338594    28.380891     18.84228    14.339177 
  109000    303.90024    1.2509986     2006.908   -1246.8138   -211.49952    2072.6007   -2309.5536   -1668.4893    44657.537 -0.067234084   -17.036218 -0.041707817    3490.6746    1569.7258    896.21908    873.82493     28.37943    18.846453    14.337763  0.026261242  0.026253998  0.028089299  0.028073612    303.90024     41.49527    35.978931    34.423473    90.016431    119.66323    90.107069    18.847995    14.337337     28.37711    18.852042    14.338913 
  110000    302.63491    1.2509986     2097.106   -1221.5231   -211.49952     2076.346   -2309.3479   -969.77721    44657.537 -0.067234084   -17.036218 -0.041707817    3551.6309    1578.3052    971.03689    850.37437    28.380251    18.845755    14.337379  0.026038636  0.026035011  0.028166293  0.028147133    302.63491     41.49527    35.978931    34.423473    90.016431    119.66323    90.107069    18.844468    14.336911    28.379762    18.848359    14.335315 
  111000    299.23047    1.2509986    2102.2627   -1217.2423   -211.49952    2073.2355   -2309.4067   -613.63354    44657.537 -0.067234084   -17.036218 -0.041707817    3555.6761    1573.7704    957.93985    868.97172     28.38016    18.846167    14.338156  0.026953173  0.026946411  0.027449587  0.027427002    299.23047     41.49527    35.978931    34.423473    90.016431    119.66323    90.107069    18.845712    14.336978    28.376899    18.845777     14.33739 
  112000    296.87087    1.2509986    1990.4049   -1261.3559   -211.49952    2078.0453   -2309.6012   -1959.5701    44657.537 -0.067234084   -17.036218 -0.041707817    3483.3167    1603.9951    879.57281    854.81825    28.381373    18.844936    14.338148  0.026408604  0.026399664  0.024156652  0.023885512    296.87087     41.49527    35.978931    34.423473    90.016431    119.66323    90.107069    18.845752    14.336935    28.393898    18.844432     14.33297 
  113000    299.62813    1.2509986    2032.2608   -1232.3135   -211.49952    2073.5655   -2309.5116   -779.30452    44657.537 -0.067234084   -17.036218 -0.041707817    3500.5204    1574.3326    934.84035    843.59579    28.379474     18.84654    14.338145  0.026768489  0.026759587  0.027549123  0.027432666    299.62813     41.49527    35.978931    34.423473    90.016431    119.66323    90.107069    18.845544    14.339184    28.373008    18.845409    14.347422 
  114000    295.45797    1.2509986    2072.6256   -1210.3184   -211.49952    2067.8919   -2309.9047   -559.58081    44657.537 -0.067234084   -17.036218 -0.041707817    3524.9567     1563.002     945.6265      865.777    28.379053    18.846896    14.337065  0.025737679  0.025731404  0.027786127  0.027740897    295.45797     41.49527    35.978931    34.423473    90.016431    119.66323    90.107069    18.846075    14.336398    28.378828    18.842333    14.339359 
  115000    299.26251    1.2509986      1956.74   -1203.9158   -211.49952    2070.4384   -2309.3839    777.75664    44657.537 -0.067234084   -17.036218 -0.041707817    3399.6013    1483.8945      901.921    863.68016    28.379605    18.846332    14.337462   0.02598834  0.025977881  0.027148196  0.027073578    299.26251     41.49527    35.978931    34.423473    90.016431    119.66323    90.107069    18.848485    14.337988    28.373545      18.8532    14.344215 
  116000    299.41561    1.2509986    1967.9705   -1242.1243   -211.49952    2066.2069   -2310.0207   -1703.1316    44657.537 -0.067234084   -17.036218 -0.041707817    3453.9086    1522.1936    919.38446    864.68912    28.379438    18.846327     14.33672  0.026161642   0.02615732  0.027533752  0.027469866    299.41561     41.49527    35.978931    34.423473    90.016431    119.66323    90.107069    18.847142    14.336388    28.383098    18.852541    14.333401 
  117000    304.99337    1.2509986    2005.3907   -1220.6854   -211.49952    2073.1751   -2309.3229   -323.65918    44657.537 -0.067234084   -17.036218 -0.041707817    3462.2239     1516.918    935.07611    856.07441    28.380213    18.846465    14.337488  0.024092617  0.024092125  0.023258642  0.023249553    304.99337     41.49527    35.978931    34.423473    90.016431    119.66323    90.107069     18.84687    14.337863    28.376958    18.849513    14.338194 
  118000    288.85123    1.2509986    2049.0047   -1242.4745   -211.49952    2071.2314   -2309.9399   -729.76833    44657.537 -0.067234084   -17.036218 -0.041707817    3530.1877    1545.9757     932.0928    895.54435     28.38046    18.846001    14.337286  0.025999212  0.025997213  0.025424045   0.02540317    288.85123     41.49527    35.978931    34.423473    90.016431    119.66323    90.107069    18.846992     14.33713    28.375808    18.847902    14.337273 
  119000    300.84809    1.2509986     2113.253    -1209.558   -211.49952    2070.3452    -2309.547    386.43429    44657.537 -0.067234084   -17.036218 -0.041707817    3562.0128    1594.0699     949.6794    867.12861    28.379959    18.845807     14.33764  0.026113676   0.02611231  0.026068816  0.026016711    300.84809     41.49527    35.978931    34.423473    90.016431    119.66323    90.107069    18.847271    14.337329    28.379748    18.846256     14.33297 
  120000    298.63046    1.2509986    2005.3141   -1228.7556   -211.49952    2075.6667   -2309.2341   -194.42986    44657.537 -0.067234084   -17.036218 -0.041707817    3467.6371    1518.3973    926.52769    874.49067    28.378815    18.845839    14.337241  0.026045234   0.02604368  0.025751549  0.025743015    298.63046     41.49527    35.978931    34.423473    90.016431    119.66323    90.107069    18.845771    14.338776    28.379275    18.847825    14.342292 
  121000    301.63375    1.2509986    2109.2117   -1223.3363   -211.49952    2073.4625   -2309.6168   -1288.2537    44657.537 -0.067234084   -17.036218 -0.041707817    3568.7023    1602.5333    955.52671    865.02152    28.380554    18.846645    14.338247  0.026887178  0.026882128  0.029052844  0.029008247    301.63375     41.49527    35.978931    34.423473    90.016431    119.66323    90.107069    18.846543    14.337579    28.373435    18.846784    14.341107 
  122000    298.36061    1.2509986    1883.4378   -1235.5251   -211.49952    2070.7985   -2309.6781   -807.01218    44657.537 -0.067234084   -17.036218 -0.041707817    3357.8425    1516.0407    899.34575    804.82754    28.379132    18.846694    14.337329  0.026673819   0.02667044  0.027665467  0.027656694    298.36061     41.49527    35.978931    34.423473    90.016431    119.66323    90.107069    18.847602    14.337647    28.381897    18.847738    14.338346 
  123000    296.55984    1.2509986    1973.4577   -1246.8824   -211.49952     2073.982   -2309.6324   -453.63789    44657.537 -0.067234084   -17.036218 -0.041707817    3455.9905    1500.8149    947.19275    855.96979    28.380003    18.846158    14.338068  0.025684799  0.025682053  0.029773296  0.029730179    296.55984     41.49527    35.978931    34.423473    90.016431    119.66323    90.107069    18.847575    14.338481    28.373486    18.849003    14.337135 
  124000    293.16559    1.2509986    2051.2482    -1250.693   -211.49952    2075.4723   -2309.6745   -1566.6619    44657.537 -0.067234084   -17.036218 -0.041707817    3536.1435    1563.6931    940.09176    886.58596    28.379747    18.845794    14.337975   0.02543303  0.025432297  0.026654489  0.026619994    293.16559     41.49527    35.978931    34.423473    90.016431    119.66323    90.107069     18.84556    14.337973    28.385216    18.849324    14.341178 
  125000    301.58477    1.2509986    2026.9746   -1270.8352   -211.49952    2071.8201   -2309.8796   -2041.0454    44657.537 -0.067234084   -17.036218 -0.041707817    3535.8694     1587.963    961.70151    840.23715     28.38133     18.84574    14.338541  0.026289918  0.026276027   0.02776409  0.027631741    301.58477     41.49527    35.978931    34.423473    90.016431    119.66323    90.107069    18.845114    14.340172    28.386755    18.843883    14.347001 
  126000    300.62485    1.2509986    2016.6933   -1220.4267   -211.49952    2069.2411   -2310.0388     370.8867    44657.537 -0.067234084   -17.036218 -0.041707817    3477.9177    1532.0742    935.40523    862.41644    28.382584    18.845765    14.338217  0.025655149  0.025648767   0.02714542  0.026998106    300.62485     41.49527    35.978931    34.423473    90.016431    119.66323    90.107069    18.845643    14.337352    28.388319    18.844631    14.332473 
  127000     305.4172    1.2509986    1982.0297   -1218.6227   -211.49952    2069.1933   -2309.8145   -895.42038    44657.537 -0.067234084   -17.036218 -0.041707817    3441.2736    1531.5538    927.51268    835.71491    28.378418    18.846287    14.337323  0.025688331   0.02568282   0.02701562  0.026913553     305.4172     41.49527    35.978931    34.423473    90.016431    119.66323    90.107069    18.846037     14.33885    28.375127    18.844863    14.347715 
  128000    303.29865    1.2509986    2014.5589   -1216.3902   -211.49952    2072.3457   -2309.8303    355.31715    44657.537 -0.067234084   -17.036218 -0.041707817    3468.4338    1531.3397    948.25012    841.68326    28.380562    18.845896    14.337537  0.026979784  0.026966409  0.028904422  0.028892962    303.29865     41.49527    35.978931    34.423473    90.016431    119.66323    90.107069    18.845037    14.337825    28.380091    18.846661    14.337263 
  129000    296.23682    1.2509986    2029.8326   -1266.4592   -211.49952     2073.987   -2309.5281   -2702.9052    44657.537 -0.067234084   -17.036218 -0.041707817    3531.8329    1572.1336    915.97976    884.04399    28.378972    18.846164    14.338151  0.025924917  0.025920147  0.027281871  0.027193673    296.23682     41.49527    35.978931    34.423473    90.016431    119.66323    90.107069    18.847287    14.338904    28.371744    18.846802    14.344357 
  130000    297.28711    1.2509986    2005.4849   -1240.8372   -211.49952    2074.1003   -2309.1735   -1348.6076    44657.537 -0.067234084   -17.036218 -0.041707817    3481.3952    1583.1077    932.95225    821.41767    28.380403    18.846508    14.338389  0.026542301  0.026540731  0.027496817  0.027379425    297.28711     41.49527    35.978931    34.423473    90.016431    119.66323    90.107069    18.845341    14.338104    28.380695    18.838388    14.337848 
  131000    296.43695    1.2509986    2075.4857   -1231.4434   -211.49952    2072.1384   -2310.0093   -13.782389    44657.537 -0.067234084   -17.036218 -0.041707817       3544.8    1534.3861    964.51521    892.38775    28.379571    18.845613    14.338188  0.025366039  0.025362938  0.026827346  0.026797809    296.43695     41.49527    35.978931    34.423473    90.016431    119.66323    90.107069    18.846519    14.339108    28.378898    18.846568    14.344447 
  132000    299.28715    1.2509986    2076.1169   -1246.0929   -211.49952     2075.444   -2309.4819   -588.50555    44657.537 -0.067234084   -17.036218 -0.041707817    3556.2477    1585.5776    933.03639    882.90781    28.379779    18.845708    14.337896  0.026106162  0.026105701  0.029381899  0.029337732    299.28715     41.49527    35.978931    34.423473    90.016431    119.66323    90.107069    18.846052    14.337739    28.384581    18.849999    14.335401 
  133000    293.33244    1.2509986    2043.0988   -1243.1804   -211.49952     2067.095   -2310.0569     -2514.47    44657.537 -0.067234084   -17.036218 -0.041707817    3529.2411    1587.7005    969.08877    828.15219    28.378663     18.84524     14.33666  0.024751928  0.024741944  0.025002584  0.024916218    293.33244     41.49527    35.978931    34.423473    90.016431    119.66323    90.107069    18.845617    14.335847    28.372837    18.845404    14.334329 
  134000    302.22261    1.2509986    2097.3204   -1239.9308   -211.49952    2069.4248   -2309.5116    -445.8629    44657.537 -0.067234084   -17.036218 -0.041707817    3577.3379    1621.0204    947.68202    859.44351    28.378845    18.846381    14.337914  0.025246955  0.025242504  0.024501558  0.024433338    302.22261     41.49527    35.978931    34.423473    90.016431    119.66323    90.107069     18.84651    14.339309    28.378792    18.847499    14.347722 
  135000    298.00208    1.2509986    1930.7248    -1247.789   -211.49952    2073.0293   -2309.6889     62.98643    44657.537 -0.067234084   -17.036218 -0.041707817    3415.1735    1542.4939    883.14131    846.73061    28.380053    18.845982    14.337942  0.026564518   0.02656385  0.028514152  0.028475517    298.00208     41.49527    35.978931    34.423473    90.016431    119.66323    90.107069    18.846188    14.337093    28.378966    18.846109    14.334174 
  136000    296.71491    1.2509986    1981.7332   -1259.3027   -211.49952    2072.6622   -2309.8911   -1676.4684    44657.537 -0.067234084   -17.036218 -0.041707817    3478.2648    1532.0646    938.66044    857.01166    28.378419    18.845909    14.337234  0.027064937  0.027062854  0.028701468  0.028615464    296.71491     41.49527    35.978931    34.423473    90.016431    119.66323    90.107069    18.844816    14.338189    28.385358    18.841829    14.340499 
  137000    302.70304    1.2509986    2097.9445   -1231.6528   -211.49952    2069.3086   -2309.9161   -2094.0091    44657.537 -0.067234084   -17.036218 -0.041707817    3570.2048    1623.3036    950.05364    844.98246    28.379655    18.847058    14.337747   0.02536119  0.025358128  0.029046962  0.028992211    302.70304     41.49527    35.978931    34.423473    90.016431    119.66323    90.107069    18.847391    14.338538    28.374372    18.847077     14.34455 
  138000    296.77159    1.2509986    1979.7871   -1222.7897   -211.49952    2072.5293   -2309.7333     1442.652    44657.537 -0.067234084   -17.036218 -0.041707817    3439.7808    1546.9537    904.23086    841.54363    28.379451    18.847665    14.337479  0.026909069  0.026901216  0.028300684  0.028238735    296.77159     41.49527    35.978931    34.423473    90.016431    119.66323    90.107069    18.848244    14.337188    28.385214    18.850586    14.334396 
  139000    299.08815    1.2509986     2076.503   -1236.7965   -211.49952    2070.5112   -2309.9763    -1770.902    44657.537 -0.067234084   -17.036218 -0.041707817    3552.7646    1564.8301    957.47447    879.38362     28.38136    18.846639    14.338594  0.026021949  0.026014867  0.026935475   0.02689732    299.08815     41.49527    35.978931    34.423473    90.016431    119.66323    90.107069    18.847555    14.339769    28.379646    18.850769     14.34556 
  140000    296.23769    1.2509986    1998.0003   -1222.2585   -211.49952    2075.0927   -2309.3723    613.58939    44657.537 -0.067234084   -17.036218 -0.041707817    3454.5383     1528.239    955.74207    821.77007    28.379891    18.846334    14.337868  0.025686872  0.025686479  0.026863207  0.026856597    296.23769     41.49527    35.978931    34.423473    90.016431    119.66323    90.107069    18.845954    14.337558    28.378318    18.847962    14.337645 
  141000    297.89739    1.2509986    2020.1666   -1221.6896   -211.49952    2070.6514   -2309.4259   -124.46571    44657.537 -0.067234084   -17.036218 -0.041707817    3480.6307    1518.8696    939.72155    861.92733    28.378656    18.846472    14.337781  0.026161819  0.026159557  0.028703203  0.028614296    297.89739     41.49527    35.978931    34.423473    90.016431    119.66323    90.107069    18.846755    14.337857     28.38721    18.846288    14.334852 
  142000    290.41138    1.2509986    2072.5582   -1234.0599   -211.49952    2074.2059   -2309.6368    -1579.345    44657.537 -0.067234084   -17.036218 -0.041707817    3542.0489    1580.7325    907.63232     900.2009    28.381471    18.846363    14.338122   0.02589852  0.025870876   0.02614668  0.026078213    290.41138     41.49527    35.978931    34.423473    90.016431    119.66323    90.107069    18.844986    14.339145    28.385376    18.843623    14.337284 
  143000    300.71013    1.2509986    1974.6222   -1195.3445   -211.49952    2068.9529   -2309.6268     460.3518    44657.537 -0.067234084   -17.036218 -0.041707817    3410.6406    1491.5433    929.36705    843.35818    28.379663    18.846414    14.337772  0.025251537  0.025251202  0.026858383  0.026830334    300.71013     41.49527    35.978931    34.423473    90.016431    119.66323    90.107069    18.846696    14.337987    28.384747    18.848309    14.338852 
  144000    300.17633    1.2509986    2025.6258   -1219.0191   -211.49952    2067.6055   -2309.7963   -147.71031    44657.537 -0.067234084   -17.036218 -0.041707817    3486.8357    1550.7513    924.04092    863.08062    28.380236    18.845152    14.337558  0.027390436  0.027386146  0.029834842  0.029830259    300.17633     41.49527    35.978931    34.423473    90.016431    119.66323    90.107069    18.846625    14.336669     28.37937    18.847294    14.338376 
  145000    299.30079    1.2509986    1930.7642   -1251.1287   -211.49952    2064.6594   -2310.2336   -1354.9579    44657.537 -0.067234084   -17.036218 -0.041707817    3427.4671     1522.748    906.38463    852.87304    28.379987    18.845666    14.337705  0.026061473  0.026060611  0.028420814  0.028411659    299.30079     41.49527    35.978931    34.423473    90.016431    119.66323    90.107069    18.845669    14.337529    28.378291    18.851599    14.338706 
  146000    297.13999    1.2509986    1954.7395   -1238.2054   -211.49952    2071.7601   -2309.7045   -255.01113    44657.537 -0.067234084   -17.036218 -0.041707817    3430.8894    1485.6434    924.79948    869.58421     28.37904    18.846347    14.337475   0.02653597  0.026532986  0.027411531  0.027336211    297.13999     41.49527    35.978931    34.423473    90.016431    119.66323    90.107069     18.84767    14.338378    28.387903    18.851382    14.339842 
  147000    301.70386    1.2509986    2012.7928    -1222.442   -211.49952    2068.7024   -2310.0162   -392.38294    44657.537 -0.067234084   -17.036218 -0.041707817    3476.5486    1549.3533    916.36998    860.76705    28.380283    18.846681    14.337934  0.026646245  0.026645242  0.027155628  0.027133597    301.70386     41.49527    35.978931    34.423473    90.016431    119.66323    90.107069    18.846093    14.337853     28.38118    18.848101    14.335329 
  148000    296.90819    1.2509986    1937.2457   -1240.1175   -211.49952     2071.844   -2309.6591   -459.14615    44657.537 -0.067234084   -17.036218 -0.041707817    3415.1782    1529.2877    886.68171    851.64859     28.38104    18.846137     14.33839  0.025642233  0.025638358    0.0259178   0.02582685    296.90819     41.49527    35.978931    34.423473    90.016431    119.66323    90.107069    18.847128    14.338816    28.373471    18.855349    14.343347 
  149000    293.14204    1.2509986    2061.6015   -1224.1974   -211.49952    2072.1488   -2309.9348   -402.53022    44657.537 -0.067234084   -17.036218 -0.041707817    3523.5849    1565.2397    947.71968    861.38661    28.379622    18.846755    14.337132   0.02554049  0.025539696  0.027539883  0.027498087    293.14204     41.49527    35.978931    34.423473    90.016431    119.66323    90.107069     18.84623    14.337965    28.378857    18.843896    14.343528 
  150000    298.24458    1.2509986    2013.9103   -1253.2184   -211.49952    2073.1462    -2309.665   -2495.5962    44657.537 -0.067234084   -17.036218 -0.041707817    3503.6476    1555.4021    949.05764     851.2224    28.378111    18.847401     14.33807  0.026619285  0.026618626  0.030666586  0.030622847    298.24458     41.49527    35.978931    34.423473    90.016431    119.66323    90.107069    18.846923    14.337474    28.380266    18.846039    14.333774 
  151000    300.08105    1.2509986    2004.6474   -1247.5394   -211.49952    2071.5465   -2309.9353   -1640.0768    44657.537 -0.067234084   -17.036218 -0.041707817    3490.5755    1571.1883    907.98447    860.47941    28.382176    18.846467    14.338397  0.026738035  0.026731114  0.027828351  0.027808535    300.08105     41.49527    35.978931    34.423473    90.016431    119.66323    90.107069    18.846732    14.337817    28.376534    18.851037    14.337073 
  152000    295.91697    1.2509986    1954.2162    -1239.473   -211.49952    2074.4394   -2309.6125   -1071.8149    44657.537 -0.067234084   -17.036218 -0.041707817    3428.8622    1524.3327    906.69996     852.0911    28.380754    18.846238      14.3378  0.025717385  0.025715631  0.026504472  0.026483346    295.91697     41.49527    35.978931    34.423473    90.016431    119.66323    90.107069     18.84589    14.338185    28.383969    18.848061    14.338773 
  153000    306.06756    1.2509986    2040.0225   -1226.2017   -211.49952     2069.027   -2309.5493   -2528.1556    44657.537 -0.067234084   -17.036218 -0.041707817    3506.7466    1571.0374    898.22756    881.65562     28.37818    18.846548    14.336775  0.026034224   0.02602568  0.026513807   0.02647738    306.06756     41.49527    35.978931    34.423473    90.016431    119.66323    90.107069    18.846175    14.335698    28.378162    18.844701    14.335652 
  154000    296.76184    1.2509986    2009.8158   -1240.3688   -211.49952    2075.0806   -2309.6519   -416.72392    44657.537 -0.067234084   -17.036218 -0.041707817    3484.7559    1588.7011    921.30776    827.76302    28.379619    18.845425    14.337615  0.025624291  0.025623524  0.025818482  0.025754164    296.76184     41.49527    35.978931    34.423473    90.016431    119.66323    90.107069    18.846463    14.338482    28.379964    18.847194    14.347438 
  155000    303.35169    1.2509986     2097.714   -1212.1087   -211.49952    2072.3768   -2309.5344    1202.1001    44657.537 -0.067234084   -17.036218 -0.041707817    3546.9802     1578.033    965.43129    855.31689    28.378884    18.846481    14.337238  0.027873645  0.027870895  0.027915286  0.027905624    303.35169     41.49527    35.978931    34.423473    90.016431    119.66323    90.107069    18.846317    14.336758    28.382583    18.848357    14.339366 
  156000      296.002    1.2509986    1974.0162   -1245.2109   -211.49952    2068.9444   -2310.4196   -987.30653    44657.537 -0.067234084   -17.036218 -0.041707817    3460.7023    1552.6091    925.94851    836.12309    28.378428    18.846083    14.337249  0.026560686  0.026558736  0.029176011   0.02902033      296.002     41.49527    35.978931    34.423473    90.016431    119.66323    90.107069    18.846418    14.336735    28.380593     18.84654    14.327452 
  157000    297.84402    1.2509986     2056.817   -1236.8729   -211.49952    2074.0669   -2310.0141   -212.51368    44657.537 -0.067234084   -17.036218 -0.041707817    3529.6371    1576.5105    957.32898    846.42779    28.381042    18.846166    14.337596  0.026002783  0.025998182  0.030537793  0.030475003    297.84402     41.49527    35.978931    34.423473    90.016431    119.66323    90.107069    18.845457    14.337461    28.384218    18.844127    14.335492 
  158000    296.89206    1.2509986    2029.0992   -1231.7587   -211.49952    2075.0107   -2309.8325   -445.61632    44657.537 -0.067234084   -17.036218 -0.041707817    3495.6796    1558.4695    914.64632    869.64055    28.380273     18.84614    14.337494   0.02673922  0.026736583  0.027717534  0.027671389    296.89206     41.49527    35.978931    34.423473    90.016431    119.66323    90.107069     18.84555    14.338366    28.379437    18.848766    14.346426 
  159000    293.38562    1.2509986    2070.5971    -1233.011   -211.49952    2071.1428   -2309.3679   -2481.4251    44657.537 -0.067234084   -17.036218 -0.041707817    3541.8332    1567.1565    975.77474    850.72912    28.380277    18.845516    14.337818  0.026158981  0.026155728   0.02693227  0.026889868    293.38562     41.49527    35.978931    34.423473    90.016431    119.66323    90.107069    18.845453    14.337334     28.38593     18.84947    14.338385 
  160000    293.64314    1.2509986    2048.3216   -1241.4889   -211.49952    2069.4856   -2310.0323   -1987.4757    44657.537 -0.067234084   -17.036218 -0.041707817    3530.3573     1596.797    920.88595    866.09698    28.378877    18.845719    14.337112  0.026447153  0.026446038  0.028562214  0.028485854    293.64314     41.49527    35.978931    34.423473    90.016431    119.66323    90.107069    18.846916    14.338228    28.385459    18.851451    14.345603 
  161000    303.37525    1.2509986    2062.4248   -1205.2974   -211.49952    2071.4113    -2309.736   -375.67571    44657.537 -0.067234084   -17.036218 -0.041707817    3506.0469    1603.2455    906.13178     849.1363    28.379324    18.846806    14.337596  0.026366514  0.026361426  0.027222936  0.027156904    303.37525     41.49527    35.978931    34.423473    90.016431    119.66323    90.107069    18.845808    14.337322    28.373319    18.843992    14.338252 
  162000    298.98215    1.2509986    2029.8089   -1205.8546   -211.49952     2073.371   -2309.3915    1001.4223    44657.537 -0.067234084   -17.036218 -0.041707817     3471.684    1552.6301    946.83927    832.47166    28.377655     18.84621    14.336951  0.026194604  0.026183943  0.027605751  0.027453515    298.98215     41.49527    35.978931    34.423473    90.016431    119.66323    90.107069    18.845358    14.337506    28.374023    18.838692    14.343523 
  163000    304.32612    1.2509986    2020.6538   -1221.4498   -211.49952    2068.7379   -2309.7604   -618.96998    44657.537 -0.067234084   -17.036218 -0.041707817    3483.1261    1523.6213    929.45315    879.58628    28.377784    18.846487    14.336693  0.026376786  0.026353526   0.02597052  0.025945781    304.32612     41.49527    35.978931    34.423473    90.016431    119.66323    90.107069     18.84813    14.336936    28.374691    18.848752    14.340638 
  164000    295.75446    1.2509986     1999.881      -1214.6   -211.49952    2072.7804    -2309.955    1408.1522    44657.537 -0.067234084   -17.036218 -0.041707817    3451.6555    1532.5642    908.68358    860.18131    28.379643    18.846645    14.337263  0.026006024  0.025998673  0.026236644    0.0261974    295.75446     41.49527    35.978931    34.423473    90.016431    119.66323    90.107069    18.846065    14.336735    28.373326     18.84857    14.340122 
  165000     303.3742    1.2509986    2131.1196    -1234.239   -211.49952    2074.9233   -2309.7751   -882.08219    44657.537 -0.067234084   -17.036218 -0.041707817    3600.2104    1609.7847    939.70581    890.93124    28.379659    18.845987    14.338147  0.026671974   0.02667042  0.028574967  0.028556774     303.3742     41.49527    35.978931    34.423473    90.016431    119.66323    90.107069    18.845411    14.338117    28.377805    18.846173    14.336982 
[...]
  961000    301.31318    1.2509986    2045.8666   -1223.3831   -211.49952    2074.3782   -2309.5921    677.75737    44657.537 -0.067234084   -17.036218 -0.041707817    3504.4637    1559.4412    930.31611    861.97889    28.379996    18.845829    14.337534  0.025766076  0.025761829    0.0277329  0.027665196    301.31318     41.49527    35.978931    34.423473    90.016431    119.66323    90.107069    18.847939    14.337652    28.372767     18.85366    14.339743 
  962000    299.62045    1.2509986    2016.7392   -1236.6131   -211.49952    2074.2501   -2309.4665   -1679.2346    44657.537 -0.067234084   -17.036218 -0.041707817    3488.5686    1559.1351    920.64281    856.51681    28.379914    18.845493    14.338255  0.025372966  0.025372851  0.026169518  0.026139061    299.62045     41.49527    35.978931    34.423473    90.016431    119.66323    90.107069    18.846055    14.338023     28.38328    18.846287    14.336611 
  963000       297.09    1.2509986    2030.2668   -1250.4065   -211.49952    2066.5209    -2310.689   -1710.6282    44657.537 -0.067234084   -17.036218 -0.041707817    3524.8414    1591.5454    932.82475    848.47507    28.380453    18.845923    14.337804  0.026288549  0.026284283  0.027106738  0.027042246       297.09     41.49527    35.978931    34.423473    90.016431    119.66323    90.107069     18.84647    14.337109    28.386807     18.85044    14.336495 
  964000    293.20432    1.2509986    1945.2599   -1209.3495   -211.49952    2066.5631   -2310.4683   -1069.7326    44657.537 -0.067234084   -17.036218 -0.041707817    3398.5146    1487.0135    899.25385    861.96207    28.380968    18.845658    14.338089  0.025584551  0.025579623  0.029215555  0.029100296    293.20432     41.49527    35.978931    34.423473    90.016431    119.66323    90.107069    18.845353     14.33816    28.387235    18.842638    14.335681 
  965000    300.66794    1.2509986    2085.6873   -1215.7433   -211.49952    2073.7695   -2310.3093    568.59753    44657.537 -0.067234084   -17.036218 -0.041707817    3537.9705    1576.4662    948.78516    862.21679    28.380193    18.846122    14.337322  0.025960764  0.025957334  0.028399558  0.028332429    300.66794     41.49527    35.978931    34.423473    90.016431    119.66323    90.107069    18.846498    14.336077    28.375173    18.848073     14.33278 
  966000    297.12841    1.2509986    2140.3765   -1223.4407   -211.49952    2072.6086   -2309.6417   -772.91494    44657.537 -0.067234084   -17.036218 -0.041707817    3600.8503    1580.5713    991.72375    877.88244    28.380219    18.846302    14.337827  0.027028232  0.027020807  0.027762918  0.027692383    297.12841     41.49527    35.978931    34.423473    90.016431    119.66323    90.107069     18.84456    14.336938      28.3792    18.842298    14.334607 
  967000    298.39261    1.2509986    2056.8127   -1226.8896   -211.49952    2071.5878   -2309.8275   -890.59361    44657.537 -0.067234084   -17.036218 -0.041707817    3521.9421    1584.5799    928.00899    857.50139    28.379448    18.846323    14.337635  0.026839136  0.026837926  0.029091058  0.029085081    298.39261     41.49527    35.978931    34.423473    90.016431    119.66323    90.107069    18.846264    14.338635     28.37728    18.848922    14.340525 
  968000    298.44614    1.2509986     2032.951   -1266.1979   -211.49952    2064.9482    -2309.775   -4452.6122    44657.537 -0.067234084   -17.036218 -0.041707817    3543.9756    1621.5649     882.0713    889.05392    28.379029    18.846236    14.336857  0.024661873  0.024653648  0.027269803  0.027250645    298.44614     41.49527    35.978931    34.423473    90.016431    119.66323    90.107069    18.846668    14.337041    28.379288     18.84729    14.343653 
  969000     298.6963    1.2509986    2070.9653   -1209.0757   -211.49952    2068.1826   -2309.3669   -494.04008    44657.537 -0.067234084   -17.036218 -0.041707817    3521.2253    1560.2099    944.50673    865.66924    28.379449     18.84589    14.337032  0.026727644  0.026719127  0.029115787  0.029090936     298.6963     41.49527    35.978931    34.423473    90.016431    119.66323    90.107069     18.84545    14.336676    28.375748    18.846785    14.337318 
  970000    304.02042    1.2509986    2025.5932   -1236.7236   -211.49952    2072.5417   -2309.6753   -453.83773    44657.537 -0.067234084   -17.036218 -0.041707817    3499.4504    1592.5786    911.30974    845.01697    28.380827    18.845408    14.337947    0.0271929  0.027186981  0.025598249  0.025506577    304.02042     41.49527    35.978931    34.423473    90.016431    119.66323    90.107069    18.845366    14.336639     28.38495    18.847818    14.331818 
  971000    298.21758    1.2509986    2106.8114   -1276.4123   -211.49952    2078.1914   -2309.6175    -2246.687    44657.537 -0.067234084   -17.036218 -0.041707817    3614.6498      1618.58    970.65719    872.42755    28.379943       18.846    14.337353   0.02636912  0.026357502  0.026627181  0.026498707    298.21758     41.49527    35.978931    34.423473    90.016431    119.66323    90.107069    18.846379    14.337183    28.369082    18.844682    14.339634 
  972000    305.03439    1.2509986    2056.0752    -1220.645   -211.49952    2074.0791   -2309.6826    421.33015    44657.537 -0.067234084   -17.036218 -0.041707817    3512.3238    1557.9101    963.21075    849.03846    28.379572    18.846234    14.337524   0.02605088  0.026049692  0.025431595  0.025400084    305.03439     41.49527    35.978931    34.423473    90.016431    119.66323    90.107069    18.845336    14.338272    28.380919     18.84361    14.340314 
  973000    298.86759    1.2509986    2081.4687   -1236.1557   -211.49952    2077.3816   -2309.6289    855.18194    44657.537 -0.067234084   -17.036218 -0.041707817    3549.8718     1567.098    965.76864    868.44055    28.379959    18.845625    14.338227  0.027866141  0.027862565  0.027476016  0.027442966    298.86759     41.49527    35.978931    34.423473    90.016431    119.66323    90.107069    18.846911    14.338009    28.384358    18.851734     14.33803 
  974000    300.90503    1.2509986     1980.818   -1244.5168   -211.49952    2073.2383   -2309.5343   -424.78107    44657.537 -0.067234084   -17.036218 -0.041707817    3461.6307    1553.2336    927.64919    833.91113    28.378406    18.846076    14.337727  0.025876924  0.025874105  0.027223968  0.027135843    300.90503     41.49527    35.978931    34.423473    90.016431    119.66323    90.107069     18.84785    14.337581    28.388862    18.849565    14.338534 
  975000    294.42013    1.2509986    2002.1372   -1241.7446   -211.49952    2072.8723   -2309.8371   -422.97643    44657.537 -0.067234084   -17.036218 -0.041707817    3480.8466     1529.435    938.57104    862.53639    28.380038    18.846664    14.338519  0.026718817  0.026715599  0.029065816  0.029021413    294.42013     41.49527    35.978931    34.423473    90.016431    119.66323    90.107069    18.845731    14.339213     28.38056    18.844752    14.344662 
  976000    297.64253    1.2509986    2051.6872     -1234.09   -211.49952    2075.8722   -2310.0193    780.91525    44657.537 -0.067234084   -17.036218 -0.041707817    3519.9242    1572.4095    938.15994    859.28483    28.379914    18.846229      14.3376  0.026246722  0.026245584  0.026592066   0.02647276    297.64253     41.49527    35.978931    34.423473    90.016431    119.66323    90.107069    18.846324    14.338106    28.369562    18.847182    14.343647 
  977000     299.5876    1.2509986    2086.1352   -1244.6517   -211.49952    2073.2765   -2309.5759   -1227.2679    44657.537 -0.067234084   -17.036218 -0.041707817    3567.0864    1589.8204    928.54183    892.78567    28.378585    18.846044    14.337314  0.027247771   0.02724223  0.026506632  0.026345691     299.5876     41.49527    35.978931    34.423473    90.016431    119.66323    90.107069    18.847324    14.338551    28.369798    18.850404    14.347625 
  978000    302.23183    1.2509986    2088.7999   -1244.7068   -211.49952    2076.7227   -2309.6273   -383.23868    44657.537 -0.067234084   -17.036218 -0.041707817    3566.4113     1599.026    950.81418    870.93782    28.380348    18.845972    14.337386  0.025679451  0.025670487  0.030378753  0.030202705    302.23183     41.49527    35.978931    34.423473    90.016431    119.66323    90.107069    18.845282    14.336498    28.368679     18.84382    14.334093 
  979000    299.04244    1.2509986    2129.8203   -1246.9722   -211.49952    2074.5181   -2309.6077   -2033.9396    44657.537 -0.067234084   -17.036218 -0.041707817     3611.882     1603.462    970.04336    885.22808     28.38039    18.846499    14.338018  0.026346831  0.026330918   0.02712948  0.026939952    299.04244     41.49527    35.978931    34.423473    90.016431    119.66323    90.107069    18.845846    14.338259    28.391468    18.842112    14.339499 
  980000    295.81596    1.2509986    2030.4692   -1234.1743   -211.49952     2068.601   -2309.9167   -84.475818    44657.537 -0.067234084   -17.036218 -0.041707817    3505.9592      1590.82    924.81806    843.79493      28.3793    18.846969    14.337288  0.026536695  0.026535525  0.027381183  0.027378389    295.81596     41.49527    35.978931    34.423473    90.016431    119.66323    90.107069    18.847009    14.337512    28.379067    18.847502     14.34016 
  981000    300.26065    1.2509986    2012.3953   -1226.6083   -211.49952    2071.5997   -2309.7615   -240.61859    44657.537 -0.067234084   -17.036218 -0.041707817    3477.1654     1525.853    943.33327     858.9272    28.381535    18.846225    14.337915  0.026489917  0.026487165  0.029007762  0.028996651    300.26065     41.49527    35.978931    34.423473    90.016431    119.66323    90.107069    18.847657    14.338166    28.380659    18.849903    14.336621 
  982000    293.11059    1.2509986    2024.4904   -1254.4882   -211.49952    2075.2381    -2309.854   -885.92495    44657.537 -0.067234084   -17.036218 -0.041707817    3513.5945    1568.1309    934.97829    863.12508    28.380315    18.846327    14.337638  0.027203571  0.027200666  0.030365734  0.030258299    293.11059     41.49527    35.978931    34.423473    90.016431    119.66323    90.107069    18.846844    14.338734    28.385815    18.846956     14.34764 
  983000    299.35381    1.2509986    2078.0164   -1249.8017   -211.49952    2078.0415   -2309.9361   -645.14117    44657.537 -0.067234084   -17.036218 -0.041707817    3559.7127    1588.6792     950.3263    873.04927    28.380423    18.845801    14.337505   0.02622505  0.026218422  0.026304762  0.026151687    299.35381     41.49527    35.978931    34.423473    90.016431    119.66323    90.107069    18.846208    14.337034    28.382455    18.839368    14.332452 
  984000    294.85807    1.2509986    2082.6423   -1241.9157   -211.49952    2077.7054   -2309.2088   -1760.8277    44657.537 -0.067234084   -17.036218 -0.041707817    3556.0614    1593.4993    952.15398    861.76584    28.378399    18.846196    14.337615  0.026448066  0.026440329   0.03106785  0.030758647    294.85807     41.49527    35.978931    34.423473    90.016431    119.66323    90.107069     18.84542     14.33635    28.369193    18.842172    14.327188 
  985000    295.80133    1.2509986    2080.8908   -1231.5114   -211.49952    2073.4676   -2309.6295   -995.28359    44657.537 -0.067234084   -17.036218 -0.041707817     3548.564    1532.5717    989.81829    874.20119     28.37909    18.846442    14.337563  0.026423224  0.026420605  0.026955148  0.026948943    295.80133     41.49527    35.978931    34.423473    90.016431    119.66323    90.107069    18.847101    14.337053    28.380609    18.850643    14.338077 
  986000    299.19331    1.2509986    2046.7781   -1234.7359   -211.49952    2071.1107   -2309.9159   -1256.3641    44657.537 -0.067234084   -17.036218 -0.041707817    3520.3192    1597.8147    939.96805    833.32169    28.379555    18.846399    14.337631   0.02619592  0.026189721  0.026774771  0.026654405    299.19331     41.49527    35.978931    34.423473    90.016431    119.66323    90.107069    18.846702    14.337945     28.38806    18.848284    14.332744 
  987000    290.86865    1.2509986     2069.005   -1224.7798   -211.49952    2071.3231    -2309.565     396.5305    44657.537 -0.067234084   -17.036218 -0.041707817    3532.0268     1596.221    946.73661    845.11521    28.379742     18.84687    14.338163  0.025481935  0.025478256  0.026116479  0.026113537    290.86865     41.49527    35.978931    34.423473    90.016431    119.66323    90.107069      18.8481    14.337787    28.379824    18.848384    14.338065 
  988000     302.1328    1.2509986    2023.9589   -1250.2822   -211.49952    2071.0917   -2309.7708    -1108.785    44657.537 -0.067234084   -17.036218 -0.041707817    3512.9202    1581.8709    931.05601    851.43423     28.37779     18.84686    14.337349  0.024989214  0.024988282  0.025080574   0.02502811     302.1328     41.49527    35.978931    34.423473    90.016431    119.66323    90.107069    18.846082    14.338673    28.374513    18.849769    14.344781 
  989000    300.81125    1.2509986    2069.4522   -1223.9511   -211.49952    2071.1136   -2309.9185   -256.30989    44657.537 -0.067234084   -17.036218 -0.041707817    3532.2082    1540.9951    938.15657     895.9759    28.379421    18.846759    14.336837   0.02629223  0.026286365  0.028859804  0.028800721    300.81125     41.49527    35.978931    34.423473    90.016431    119.66323    90.107069    18.847378    14.335905    28.376361    18.852465    14.333559 
  990000     293.1288    1.2509986    2017.0655   -1242.9934   -211.49952    2068.9032   -2309.8139   -2546.7155    44657.537 -0.067234084   -17.036218 -0.041707817    3500.9696    1575.0525    923.82573    852.90187    28.381728    18.846741    14.338574  0.025701445  0.025694241  0.028767053  0.028738525     293.1288     41.49527    35.978931    34.423473    90.016431    119.66323    90.107069    18.847462    14.338954    28.384811    18.849957    14.339798 
  991000    296.53923    1.2509986    2076.3272   -1240.1506   -211.49952    2069.5068    -2309.834   -751.26548    44657.537 -0.067234084   -17.036218 -0.041707817     3556.805    1582.3147    915.67135    902.19521    28.379729    18.845795    14.338049  0.025817334  0.025811048  0.027131037  0.027102312    296.53923     41.49527    35.978931    34.423473    90.016431    119.66323    90.107069     18.84433    14.339395    28.380681    18.847355    14.344609 
  992000    296.62268    1.2509986    2124.3496   -1219.6997   -211.49952    2074.2164   -2309.6338    396.01082    44657.537 -0.067234084   -17.036218 -0.041707817    3579.4668    1583.7677    962.37386    880.17125    28.380973    18.846472    14.338523   0.02515525  0.025149634  0.029313094  0.029244476    296.62268     41.49527    35.978931    34.423473    90.016431    119.66323    90.107069    18.848472    14.338349    28.371734    18.851638    14.340371 
  993000    300.64871    1.2509986    1989.5326   -1247.7244   -211.49952    2075.7485   -2309.3246    -488.1908    44657.537 -0.067234084   -17.036218 -0.041707817     3470.833    1560.9314    906.50596    853.27116    28.379965    18.846871    14.337523  0.026212526   0.02621059  0.026530311  0.026512914    300.64871     41.49527    35.978931    34.423473    90.016431    119.66323    90.107069    18.847534    14.337813    28.380669    18.848374    14.343607 
  994000    292.49775    1.2509986    2054.7865   -1221.1207   -211.49952    2078.0398   -2309.5196   -480.23434    44657.537 -0.067234084   -17.036218 -0.041707817     3507.387    1552.0925    934.98369    868.60774    28.379943    18.846447    14.337504  0.025981198  0.025979255  0.030182694  0.030035378    292.49775     41.49527    35.978931    34.423473    90.016431    119.66323    90.107069    18.845501    14.336524    28.377969    18.842183    14.329731 
  995000    294.96167    1.2509986    2056.3841    -1239.379   -211.49952    2072.5004   -2310.3229   -114.50941    44657.537 -0.067234084   -17.036218 -0.041707817    3533.5856    1534.9713    975.37063    872.01511    28.377706    18.846303      14.3371  0.025802621  0.025801787  0.028384845  0.028366902    294.96167     41.49527    35.978931    34.423473    90.016431    119.66323    90.107069    18.845458    14.337202    28.378347    18.846142    14.336768 
  996000    299.82043    1.2509986    2060.9814   -1253.1251   -211.49952    2071.4464   -2309.9477   -2589.8908    44657.537 -0.067234084   -17.036218 -0.041707817    3552.6077    1587.2838    941.19787     873.8916    28.380431    18.845423    14.337616  0.027043194  0.027041829  0.030132676  0.030112398    299.82043     41.49527    35.978931    34.423473    90.016431    119.66323    90.107069    18.845462    14.337964     28.38244    18.845775    14.340856 
  997000     297.5829    1.2509986    2008.2508   -1238.4635   -211.49952    2068.2288   -2309.6795   -3020.0596    44657.537 -0.067234084   -17.036218 -0.041707817    3488.1649    1601.0118    918.19926    827.52862    28.379827     18.84597    14.338319  0.026754886  0.026754761  0.028778124   0.02875526     297.5829     41.49527    35.978931    34.423473    90.016431    119.66323    90.107069    18.846442    14.337504    28.379266    18.848615    14.334882 
  998000    303.11513    1.2509986    1977.2461   -1242.6686   -211.49952    2071.4035   -2309.5824   -882.22335    44657.537 -0.067234084   -17.036218 -0.041707817    3458.0936    1524.3238    949.23175    840.26383    28.380439     18.84659    14.337338  0.026271703  0.026271288   0.02934489  0.029292485    303.11513     41.49527    35.978931    34.423473    90.016431    119.66323    90.107069    18.846807     14.33781    28.373415    18.845456    14.341065 
  999000    302.00257    1.2509986    2019.9538   -1234.5449   -211.49952    2071.6103    -2309.971   -1445.2122    44657.537 -0.067234084   -17.036218 -0.041707817    3492.8595    1549.2818     936.4453    857.85782     28.38056    18.845799    14.337116  0.027518055  0.027513812  0.027552346  0.027511733    302.00257     41.49527    35.978931    34.423473    90.016431    119.66323    90.107069    18.844397    14.337748    28.379005    18.842682    14.339165 
 1000000    301.82808    1.2509986    2053.9379   -1234.8036   -211.49952    2072.7531   -2309.3771   -2051.3271    44657.537 -0.067234084   -17.036218 -0.041707817    3525.3655    1596.2638    947.86486    833.11079     28.38035     18.84661    14.337635  0.027884026  0.027879575  0.026139177  0.026048123    301.82808     41.49527    35.978931    34.423473    90.016431    119.66323    90.107069     18.84514    14.337976    28.386152    18.842117    14.339631 
Loop time of 3021.09 on 60 procs for 1000000 steps with 4560 atoms

Pair  time (%) = 546.654 (18.0946)
Bond  time (%) = 59.0206 (1.95362)
Kspce time (%) = 1570.57 (51.9869)
Neigh time (%) = 13.8228 (0.457543)
Comm  time (%) = 572.446 (18.9483)
Outpt time (%) = 2.98794 (0.0989024)
Other time (%) = 255.589 (8.46013)

Nlocal:    76 ave 84 max 70 min
Histogram: 4 9 8 6 5 16 2 7 1 2
Nghost:    3989.65 ave 4074 max 3895 min
Histogram: 8 9 2 1 0 4 12 13 10 1
Neighs:    28101.5 ave 31226 max 25331 min
Histogram: 2 6 6 5 15 11 7 3 3 2

Total # of neighbors = 1686088
Ave neighs/atom = 369.756
Ave special neighs/atom = 10.6316
Neighbor list builds = 6057
Dangerous builds = 0
System init for write_data ...
PPPM initialization ...
  G vector (1/distance) = 0.246499
  grid = 16 16 20
  stencil order = 5
  estimated absolute RMS force accuracy = 0.00242397
  estimated relative force accuracy = 7.2997e-06
  using double precision FFTs
  3d grid and FFT values/proc = 1053 112
