LAMMPS (15 May 2015)
Reading data file ...
  triclinic box = (-0.107635 -0.0404339 -0.357111) to (41.3876 35.9384 29.5551) with tilt (-0.0672341 -17.0362 -0.0417078)
  5 by 4 by 3 MPI processor grid
  reading atoms ...
  4560 atoms
  reading velocities ...
  4560 velocities
  scanning bonds ...
  3 = max bonds/atom
  scanning angles ...
  3 = max angles/atom
  scanning dihedrals ...
  8 = max dihedrals/atom
  scanning impropers ...
  1 = max impropers/atom
  reading bonds ...
  5040 bonds
  reading angles ...
  7200 angles
  reading dihedrals ...
  10560 dihedrals
  reading impropers ...
  2400 impropers
Finding 1-2 1-3 1-4 neighbors ...
 Special bond factors lj:   0          0          0         
 Special bond factors coul: 0          0          0         
  4 = max # of 1-2 neighbors
  8 = max # of 1-3 neighbors
  20 = max # of 1-4 neighbors
  16 = max # of special neighbors
4560 atoms in group all
720 atoms in group C
480 atoms in group S
1920 atoms in group H
720 atoms in group Si
240 atoms in group Na
240 atoms in group Ba
240 atoms in group O
4560 atoms in group naphthalene
1200 atoms in group fixed
960 atoms in group CO
Setting atom values ...
  720 settings made for charge
Setting atom values ...
  720 settings made for charge
Setting atom values ...
  1920 settings made for charge
Setting atom values ...
  480 settings made for charge
Setting atom values ...
  240 settings made for charge
Setting atom values ...
  240 settings made for charge
Setting atom values ...
  240 settings made for charge
Finding 1-2 1-3 1-4 neighbors ...
 Special bond factors lj:   0          0          0.5       
 Special bond factors coul: 0          0          0.5       
  4 = max # of 1-2 neighbors
  8 = max # of 1-3 neighbors
  20 = max # of 1-4 neighbors
  16 = max # of special neighbors
PPPM initialization ...
  G vector (1/distance) = 0.246499
  grid = 16 16 20
  stencil order = 5
  estimated absolute RMS force accuracy = 0.00242397
  estimated relative force accuracy = 7.2997e-06
  using double precision FFTs
  3d grid and FFT values/proc = 1053 112
Neighbor list info ...
  4 neighbor list requests
  update every 1 steps, delay 0 steps, check yes
  master list distance cutoff = 12
Setting up run ...
Memory usage per processor = 13.288 Mbytes
Step Temp Density PotEng E_vdwl E_tail E_coul E_long Press Volume Xy Xz Yz E_mol E_bond E_angle E_dihed 14[1] 14[2] 14[3] msd[4] msd2[4] msd3[4] msd4[4] naphthal Cella Cellb Cellc CellAlpha CellBeta CellGamma 27[2] 27[3] 28[1] 28[2] 28[3] 
       0          298    1.2509986    2087.5869   -1173.1339   -211.49952    2070.8667    -2308.979    790.88859    44657.537 -0.067234084   -17.036218 -0.041707817     3498.833    1521.0094     935.4334    889.67826    28.379601    18.846571    14.337846 2.3535127e-29 2.3910021e-29 2.7538641e-29 3.294809e-29          298     41.49527    35.978931    34.423473    90.016431    119.66323    90.107069    18.846182    14.337739    28.379557    18.849013    14.339638 
    1000    299.40136    1.2509986     2013.543   -1215.2411   -211.49952    2072.9266   -2309.6305     749.5024    44657.537 -0.067234084   -17.036218 -0.041707817     3465.488    1547.7676    890.05128    876.28003    28.377792    18.845934     14.33739 0.0069864831 0.0069822538 0.0081846106 0.0081797782    299.40136     41.49527    35.978931    34.423473    90.016431    119.66323    90.107069    18.847009    14.336781     28.37831    18.850364    14.338433 
    2000    296.94165    1.2509986    2004.3584   -1237.4701   -211.49952    2073.7363   -2309.2604    -1680.768    44657.537 -0.067234084   -17.036218 -0.041707817    3477.3527     1582.734    891.09516    855.15439    28.381263    18.846798    14.337734 0.0069834874 0.0069805669 0.0078087069 0.0077839123    296.94165     41.49527    35.978931    34.423473    90.016431    119.66323    90.107069    18.847148    14.338327    28.382292     18.84963    14.343753 
    3000    294.27661    1.2509986    1963.9217   -1202.9736   -211.49952    2074.2163   -2309.2608     356.8777    44657.537 -0.067234084   -17.036218 -0.041707817    3401.9398    1533.8117    894.11917    827.61014      28.3799    18.845775    14.337567 0.0071949865 0.0071911243 0.0078570087 0.0078309699    294.27661     41.49527    35.978931    34.423473    90.016431    119.66323    90.107069    18.846467    14.338703    28.376193    18.845626    14.341443 
    4000    299.91497    1.2509986    1915.4909   -1232.6935   -211.49952    2069.3871   -2309.5611   -1628.7907    44657.537 -0.067234084   -17.036218 -0.041707817    3388.3584    1514.3861    883.95726    842.16078    28.380323    18.846185    14.338659 0.0068625276 0.0068613327 0.0074271611 0.0074224902    299.91497     41.49527    35.978931    34.423473    90.016431    119.66323    90.107069    18.846611    14.338553     28.37764    18.849968    14.339348 
    5000    295.46554    1.2509986    2011.4716   -1212.8133   -211.49952    2072.4608   -2309.7229   -2011.1234    44657.537 -0.067234084   -17.036218 -0.041707817    3461.5469    1559.0888    929.63058    829.61558    28.377908    18.846598    14.337223 0.0068013613 0.0068003233  0.006876399 0.0068669672    295.46554     41.49527    35.978931    34.423473    90.016431    119.66323    90.107069    18.845216    14.338051    28.379367    18.847511    14.336966 
    6000    295.64087    1.2509986    1943.1543   -1238.3138   -211.49952    2070.3815   -2309.5406    -1848.721    44657.537 -0.067234084   -17.036218 -0.041707817    3420.6272    1527.9246    906.31952    839.43511    28.375846    18.847058    14.336877 0.0067343388 0.0067331519 0.0065934347 0.0065730558    295.64087     41.49527    35.978931    34.423473    90.016431    119.66323    90.107069    18.846224    14.338033    28.379897    18.847893    14.343998 
    7000    296.17741    1.2509986    2051.9278   -1218.3328   -211.49952    2076.9322   -2309.3995   -303.95023    44657.537 -0.067234084   -17.036218 -0.041707817    3502.7279    1560.2085    913.61298    873.05352    28.380536    18.845175    14.338167 0.0069408014 0.0069399279 0.0076895503 0.0076718341    296.17741     41.49527    35.978931    34.423473    90.016431    119.66323    90.107069    18.845696    14.337225    28.377492    18.849315    14.335983 
    8000    298.57173    1.2509986    1971.2589   -1211.6217   -211.49952    2071.9495   -2309.7615   -664.32162    44657.537 -0.067234084   -17.036218 -0.041707817    3420.6925    1520.9011    872.06927    877.10328    28.379487    18.844332     14.33785 0.0071436378 0.0071377588 0.0073480722 0.0073329824    298.57173     41.49527    35.978931    34.423473    90.016431    119.66323    90.107069    18.845054     14.33777    28.379686    18.851081    14.342924 
    9000    307.31309    1.2509986    1993.2549   -1209.0393   -211.49952    2071.1155   -2309.5786   -294.44649    44657.537 -0.067234084   -17.036218 -0.041707817    3440.7573    1512.7913    886.81442    891.58071     28.38031     18.84616    14.337332 0.0068182223 0.0068163244 0.0075977665 0.0075774079    307.31309     41.49527    35.978931    34.423473    90.016431    119.66323    90.107069    18.846683    14.337745    28.383208     18.85152    14.338777 
   10000    296.31831    1.2509986    1985.6143   -1211.8868   -211.49952    2075.5083   -2309.0702   -1093.8908    44657.537 -0.067234084   -17.036218 -0.041707817    3431.0629    1491.8914    916.46434    873.73215    28.380626     18.84542    14.337423 0.0072571368    0.0072478 0.0074689536 0.0074141686    296.31831     41.49527    35.978931    34.423473    90.016431    119.66323    90.107069    18.846553    14.338653    28.385058    18.850825    14.344247 
   11000    293.22367    1.2509986    1976.3123   -1206.7299   -211.49952     2069.267   -2309.6099   -1270.6862    44657.537 -0.067234084   -17.036218 -0.041707817    3423.3851    1518.1099     909.4438     844.9512    28.382091    18.845843      14.3389 0.0068354075 0.0068337538 0.0072557009 0.0071971767    293.22367     41.49527    35.978931    34.423473    90.016431    119.66323    90.107069    18.845678    14.338537    28.372011    18.848407    14.340741 
   12000    295.08145    1.2509986    1979.8582   -1187.8891   -211.49952    2070.9023   -2309.7529    1597.3319    44657.537 -0.067234084   -17.036218 -0.041707817    3406.5978    1470.1533    917.19342    867.67619    28.381534    18.844629    14.338671 0.0068590855 0.0068573788 0.0075910375 0.0075594713    295.08145     41.49527    35.978931    34.423473    90.016431    119.66323    90.107069     18.84516    14.338293    28.378491    18.844953    14.343373 
   13000    297.30742    1.2509986    1995.2283   -1211.1528   -211.49952    2072.7664   -2309.3107    540.83308    44657.537 -0.067234084   -17.036218 -0.041707817    3442.9255    1536.1181    890.53198     865.0607    28.379475    18.845785     14.33794 0.0068927145 0.0068923274 0.0073543833 0.0073416488    297.30742     41.49527    35.978931    34.423473    90.016431    119.66323    90.107069    18.846296    14.337504    28.376909    18.847641    14.337678 
   14000    303.26035    1.2509986    1998.7407   -1232.9341   -211.49952    2070.2396    -2309.345   -509.20593    44657.537 -0.067234084   -17.036218 -0.041707817    3470.7801    1528.6742    924.67962    864.86408    28.380799    18.847211     14.33769 0.0066832122 0.0066777392 0.0070498538 0.0070274361    303.26035     41.49527    35.978931    34.423473    90.016431    119.66323    90.107069    18.848498     14.33774    28.376874    18.852396    14.341581 
   15000    295.97555    1.2509986    2077.9933   -1214.7815   -211.49952    2071.5011    -2309.622   -1465.5324    44657.537 -0.067234084   -17.036218 -0.041707817    3530.8957    1563.8976    926.01081    884.49703    28.380827    18.846367    14.337739 0.0067354431 0.0067346135 0.0073787352 0.0073432967    295.97555     41.49527    35.978931    34.423473    90.016431    119.66323    90.107069    18.845718    14.337567    28.383362    18.846944    14.335555 
   16000    302.44084    1.2509986    1987.5625   -1194.8894   -211.49952    2070.3266   -2309.7194    1576.1072    44657.537 -0.067234084   -17.036218 -0.041707817    3421.8446    1483.0159    926.17991    862.17615    28.379696    18.846059    14.337485 0.0067339118 0.0067336785 0.0073531791  0.007330705    302.44084     41.49527    35.978931    34.423473    90.016431    119.66323    90.107069    18.845788    14.337778    28.375171    18.847298    14.340185 
   17000    295.40963    1.2509986    1997.3411   -1221.1607   -211.49952    2068.6071    -2309.729   -690.37174    44657.537 -0.067234084   -17.036218 -0.041707817    3459.6236    1538.4705    894.96317    871.41036    28.379006    18.845945    14.338031 0.0068958955 0.0068949646  0.007766157 0.0077174653    295.40963     41.49527    35.978931    34.423473    90.016431    119.66323    90.107069    18.846502     14.33856    28.386497     18.84877    14.340323 
   18000    296.89921    1.2509986    2035.8139   -1228.7069   -211.49952    2069.8621   -2310.0535   -360.54715    44657.537 -0.067234084   -17.036218 -0.041707817    3504.7122    1573.1892    908.92309    869.80134    28.376926     18.84489    14.336363 0.0070885623 0.0070859182  0.007979716 0.0079640768    296.89921     41.49527    35.978931    34.423473    90.016431    119.66323    90.107069    18.845328    14.336776    28.382937    18.848189    14.341517 
   19000    297.04669    1.2509986    1938.4236   -1200.8846   -211.49952    2071.9156   -2309.5473    23.625386    44657.537 -0.067234084   -17.036218 -0.041707817      3376.94    1493.7794     887.4477    846.00583    28.381557    18.845599    14.338037 0.0071583279 0.0071574588 0.0081005833 0.0080688558    297.04669     41.49527    35.978931    34.423473    90.016431    119.66323    90.107069    18.846473    14.336856    28.380313    18.846578    14.334616 
   20000     298.6633    1.2509986    1957.0727   -1209.8502   -211.49952    2074.8912   -2309.0952    -567.5141    44657.537 -0.067234084   -17.036218 -0.041707817    3401.1267    1516.0106    904.91951    833.07174      28.3837    18.846391    14.338994 0.0066863893 0.0066776586 0.0069048681 0.0068804911     298.6633     41.49527    35.978931    34.423473    90.016431    119.66323    90.107069    18.846681    14.338071    28.383256    18.846267    14.337863 
   21000    304.81294    1.2509986    1997.0647   -1223.1556   -211.49952    2073.6321    -2309.547    298.37151    44657.537 -0.067234084   -17.036218 -0.041707817    3456.1351     1537.789    909.45885    859.75437    28.379628    18.844676    14.337241 0.0069354944 0.0069346878 0.0076531407 0.0076291289    304.81294     41.49527    35.978931    34.423473    90.016431    119.66323    90.107069    18.845453     14.33818     28.37611    18.845938    14.341274 
   22000    296.61211    1.2509986    2016.4256   -1207.4873   -211.49952     2074.424   -2309.6897    1156.6054    44657.537 -0.067234084   -17.036218 -0.041707817    3459.1786    1555.0994    905.70591    847.81592    28.381108     18.84612    14.338274 0.0069992071 0.0069981939 0.0074114578 0.0073986068    296.61211     41.49527    35.978931    34.423473    90.016431    119.66323    90.107069    18.846174    14.337764    28.381293    18.848719    14.336516 
   23000    295.69092    1.2509986    2022.4436   -1222.7719   -211.49952    2073.1013     -2309.33   -760.91379    44657.537 -0.067234084   -17.036218 -0.041707817    3481.4441    1522.7869    920.13647    883.49477    28.382853    18.845272    14.338557  0.007195853 0.0071875956  0.007272802 0.0072500527    295.69092     41.49527    35.978931    34.423473    90.016431    119.66323    90.107069    18.845715    14.338114    28.382675    18.845509    14.340503 
   24000    293.53304    1.2509986    2035.5606   -1187.2358   -211.49952    2073.4328   -2309.6762    1889.5316    44657.537 -0.067234084   -17.036218 -0.041707817    3459.0399    1524.1486    910.03374    871.59303    28.378725    18.846539    14.337745 0.0071063896 0.0071054172 0.0071693384 0.0071415032    293.53304     41.49527    35.978931    34.423473    90.016431    119.66323    90.107069    18.846873    14.338263    28.377557    18.845005    14.342426 
   25000    302.97501    1.2509986    2012.5816   -1190.7914   -211.49952    2073.4723   -2309.4484    735.33858    44657.537 -0.067234084   -17.036218 -0.041707817    3439.3491    1502.9593    915.44619    868.38776    28.381283    18.845568    14.337904 0.0071960967 0.0071958713 0.0072859458 0.0072673287    302.97501     41.49527    35.978931    34.423473    90.016431    119.66323    90.107069    18.846458    14.337604    28.380185    18.845551    14.337141 
   26000    294.85374    1.2509986    1986.7506   -1218.9634   -211.49952    2075.7706    -2309.159   -1095.1664    44657.537 -0.067234084   -17.036218 -0.041707817    3439.1024    1521.7756    905.02199    862.67409    28.379764    18.846113    14.338448  0.007259914 0.0072566939 0.0081810528 0.0081804557    294.85374     41.49527    35.978931    34.423473    90.016431    119.66323    90.107069    18.847036    14.339039    28.379932    18.849177    14.338983 
   27000    299.46551    1.2509986    1912.9966    -1211.694   -211.49952    2075.1472    -2309.471     851.5997    44657.537 -0.067234084   -17.036218 -0.041707817    3359.0144    1474.6757    898.62361    836.17695    28.377657    18.845171    14.337721 0.0069532265 0.0069508428 0.0071608513 0.0071569983    299.46551     41.49527    35.978931    34.423473    90.016431    119.66323    90.107069    18.845875    14.337952    28.377997    18.850072    14.339091 
   28000    297.49377    1.2509986    1992.0369   -1239.5702   -211.49952    2068.7369   -2309.2208   -1809.1637    44657.537 -0.067234084   -17.036218 -0.041707817    3472.0909    1529.8334    919.76146     873.3637    28.379103    18.847479    14.337197 0.0067718446 0.0067651479 0.0066792585  0.006673753    297.49377     41.49527    35.978931    34.423473    90.016431    119.66323    90.107069    18.847612    14.336558    28.377268    18.849012     14.33912 
   29000    303.26606    1.2509986    1996.8673   -1210.6214   -211.49952    2074.5694   -2308.9391    832.26196    44657.537 -0.067234084   -17.036218 -0.041707817    3441.8584    1497.6086    904.21385    880.20068    28.380705    18.845669    14.337933 0.0069178592 0.0069177243 0.0076442813 0.0076423098    303.26606     41.49527    35.978931    34.423473    90.016431    119.66323    90.107069    18.846177    14.337392    28.380251    18.850221    14.339463 
   30000    303.81026    1.2509986    1972.5535   -1219.6489   -211.49952    2075.0915   -2309.3283   -97.459757    44657.537 -0.067234084   -17.036218 -0.041707817    3426.4391    1486.8918    919.30812     863.8242    28.381501    18.845048     14.33766 0.0070913771 0.0070904752  0.007282277 0.0072557636    303.81026     41.49527    35.978931    34.423473    90.016431    119.66323    90.107069    18.846366    14.337853    28.381382    18.849539    14.344424 
   31000    295.95471    1.2509986    2060.8986   -1213.7673   -211.49952    2071.2893    -2309.703   -380.39386    44657.537 -0.067234084   -17.036218 -0.041707817    3513.0795     1531.661    961.64551    864.60876    28.379514    18.845373    14.337636 0.0072783662 0.0072769814 0.0074825604 0.0074659254    295.95471     41.49527    35.978931    34.423473    90.016431    119.66323    90.107069    18.847314    14.337891    28.381545    18.852506    14.340331 
   32000    300.46845    1.2509986    1973.8867   -1227.8969   -211.49952    2072.0417   -2309.1301    341.29736    44657.537 -0.067234084   -17.036218 -0.041707817     3438.872    1515.5888    913.49977    858.53083    28.380131    18.846367    14.337445 0.0070938783  0.007090397  0.007363732 0.0073164502    300.46845     41.49527    35.978931    34.423473    90.016431    119.66323    90.107069    18.846619    14.337249    28.386007    18.848696    14.337277 
   33000       298.33    1.2509986    1996.7233   -1237.6501   -211.49952    2074.9313   -2309.4336   -1256.2495    44657.537 -0.067234084   -17.036218 -0.041707817    3468.8757    1558.0732    906.44232    852.42321    28.380541    18.846802    14.336531 0.0067449771 0.0067440761 0.0069797998 0.0069470587       298.33     41.49527    35.978931    34.423473    90.016431    119.66323    90.107069    18.846527    14.336923    28.381948     18.84382    14.339879 
   34000    291.35362    1.2509986    1975.9677   -1225.0592   -211.49952    2070.4117   -2309.2337   -2120.4988    44657.537 -0.067234084   -17.036218 -0.041707817    3439.8489    1511.6744    892.42337    883.03682     28.38079    18.845375     14.33855 0.0069297642 0.0069292046 0.0075149527 0.0075105858    291.35362     41.49527    35.978931    34.423473    90.016431    119.66323    90.107069    18.846215    14.337804    28.378602    18.850089    14.338122 
   35000    299.59832    1.2509986    1980.9603   -1232.6305   -211.49952    2073.4889    -2309.564    -940.9252    44657.537 -0.067234084   -17.036218 -0.041707817    3449.6658    1533.2554    915.16125     851.1373    28.380957    18.845957    14.338172 0.0072282895 0.0072263775 0.0080135527 0.0079973676    299.59832     41.49527    35.978931    34.423473    90.016431    119.66323    90.107069    18.845446    14.338793    28.380065    18.845055    14.340152 
   36000    293.96762    1.2509986    1979.5867   -1223.4729   -211.49952    2072.9197   -2309.7083   -1063.2975    44657.537 -0.067234084   -17.036218 -0.041707817    3439.8482     1567.927    895.13838    835.79285    28.381844    18.845445    14.337903 0.0067826249 0.0067811828  0.007391119 0.0073823843    293.96762     41.49527    35.978931    34.423473    90.016431    119.66323    90.107069    18.846868    14.337814    28.382073    18.849651    14.338227 
   37000    297.34337    1.2509986    2001.4028   -1206.8201   -211.49952    2069.5604   -2309.9974   -38.913957    44657.537 -0.067234084   -17.036218 -0.041707817    3448.6598    1538.1738    913.58756    845.60431    28.383003    18.845649    14.338621 0.0069550576 0.0069507456 0.0075539492 0.0075292523    297.34337     41.49527    35.978931    34.423473    90.016431    119.66323    90.107069    18.846256    14.339219    28.383744    18.847886    14.342066 
   38000    295.91739    1.2509986     2021.679   -1206.6201   -211.49952    2070.2956   -2309.4832     646.1816    44657.537 -0.067234084   -17.036218 -0.041707817    3467.4867    1525.8897    917.10901    872.16133    28.378552     18.84484    14.337454 0.0070779658 0.0070765049 0.0078330805 0.0078153341    295.91739     41.49527    35.978931    34.423473    90.016431    119.66323    90.107069    18.845611    14.338308    28.376275    18.846401     14.34003 
   39000    307.60935    1.2509986    1986.2046   -1206.2668   -211.49952    2071.4932   -2309.9327    1947.4758    44657.537 -0.067234084   -17.036218 -0.041707817    3430.9109    1482.5445    916.45671    880.64555    28.382594    18.845568    14.338295  0.006924889  0.006922774 0.0073620884  0.007343997    307.60935     41.49527    35.978931    34.423473    90.016431    119.66323    90.107069    18.844987    14.337711     28.37573    18.848455    14.337866 
   40000    301.96254    1.2509986    2022.2632   -1219.1571   -211.49952     2071.479    -2309.662   -104.29305    44657.537 -0.067234084   -17.036218 -0.041707817    3479.6033    1521.0961    916.58269    886.37006    28.381101    18.846822    14.337585 0.0069736543 0.0069731906  0.007519455 0.0075156227    301.96254     41.49527    35.978931    34.423473    90.016431    119.66323    90.107069    18.846714    14.338127    28.380221    18.847246    14.340159 
   41000    297.13948    1.2509986    2033.0342    -1225.617   -211.49952    2073.2393    -2309.515   -687.84789    44657.537 -0.067234084   -17.036218 -0.041707817     3494.927    1589.7961    891.91258    863.53149    28.381536    18.844997    14.337846 0.0071728088 0.0071691717 0.0079543633 0.0079348089    297.13948     41.49527    35.978931    34.423473    90.016431    119.66323    90.107069    18.845156    14.338745    28.380153    18.848166    14.343937 
   42000    297.82928    1.2509986    1997.2332   -1204.5383   -211.49952     2072.996   -2309.4255    605.24757    44657.537 -0.067234084   -17.036218 -0.041707817    3438.2011    1473.0775    927.11632    881.17594    28.381862    18.847834    14.337755 0.0068776385 0.0068765269 0.0074368118 0.0074020121    297.82928     41.49527    35.978931    34.423473    90.016431    119.66323    90.107069    18.847127    14.337276    28.381277    18.848229     14.33405 
   43000    294.53654    1.2509986    1942.1459   -1209.8136   -211.49952    2068.6188   -2310.0448   -412.63698    44657.537 -0.067234084   -17.036218 -0.041707817    3393.3855    1496.7039    920.91775    833.42143    28.379504    18.845164    14.337049 0.0068129073 0.0068073653 0.0068848105 0.0068272426    294.53654     41.49527    35.978931    34.423473    90.016431    119.66323    90.107069    18.846849    14.335854    28.377019    18.849084    14.332488 
   44000    296.72356    1.2509986    2016.3002   -1198.7608   -211.49952    2069.4182    -2309.864   -287.69683    44657.537 -0.067234084   -17.036218 -0.041707817    3455.5069    1567.1073    887.85803    855.35325    28.380093    18.846899    14.337836 0.0070290348 0.0070284422 0.0076007566 0.0075435735    296.72356     41.49527    35.978931    34.423473    90.016431    119.66323    90.107069    18.845908     14.33811    28.375473     18.84346    14.342748 
   45000    298.12434    1.2509986    1927.3268   -1211.3103   -211.49952    2071.8021   -2309.2446    194.43063    44657.537 -0.067234084   -17.036218 -0.041707817    3376.0796    1507.4184    900.26219    824.76729    28.378864    18.845659      14.3371 0.0068233919 0.0068232996 0.0066667464 0.0066346804    298.12434     41.49527    35.978931    34.423473    90.016431    119.66323    90.107069    18.845951    14.337742    28.374039    18.849534    14.338474 
   46000    296.03168    1.2509986    1966.5542   -1208.0702   -211.49952    2073.3464   -2309.5808   -356.02104    44657.537 -0.067234084   -17.036218 -0.041707817    3410.8587    1519.9563    894.18083     848.4295    28.378835    18.845122    14.337249 0.0069152982  0.006912857 0.0070967682 0.0070885493    296.03168     41.49527    35.978931    34.423473    90.016431    119.66323    90.107069    18.845942     14.33685    28.379749    18.847123    14.337491 
   47000    297.77471    1.2509986    2025.4115   -1197.2752   -211.49952    2073.9331    -2309.492    30.898391    44657.537 -0.067234084   -17.036218 -0.041707817    3458.2456    1550.9015    897.89462    861.42147    28.380302    18.844918      14.3374 0.0070219756 0.0070186335 0.0073054883 0.0072876852    297.77471     41.49527    35.978931    34.423473    90.016431    119.66323    90.107069    18.844902    14.338308    28.380047    18.845433    14.341816 
   48000    300.85176    1.2509986    2077.3293   -1193.8112   -211.49952    2074.1343   -2309.5063    1508.1291    44657.537 -0.067234084   -17.036218 -0.041707817    3506.5125    1536.0444    965.02068    854.28155    28.378606     18.84479    14.337618 0.0070254318 0.0070189045 0.0072769851 0.0072139091    300.85176     41.49527    35.978931    34.423473    90.016431    119.66323    90.107069    18.845206     14.33838    28.375509    18.846484    14.345986 
   49000    292.32989    1.2509986    1989.2607   -1239.1659   -211.49952    2073.5138   -2309.7699    247.03618    44657.537 -0.067234084   -17.036218 -0.041707817    3464.6828    1535.4525    930.48719    847.91123    28.380387    18.846671    14.337929 0.0070081311 0.0070072765 0.0073870644      0.00738    292.32989     41.49527    35.978931    34.423473    90.016431    119.66323    90.107069    18.846553    14.338584    28.378735    18.848648     14.34214 
   50000    294.42858    1.2509986    1925.4711   -1211.6851   -211.49952    2066.6901   -2309.6035   -628.03281    44657.537 -0.067234084   -17.036218 -0.041707817    3380.0696     1515.301     871.4836     843.0763    28.379157    18.846416    14.336618 0.0070514995 0.0070472033 0.0078859306 0.0078816771    294.42858     41.49527    35.978931    34.423473    90.016431    119.66323    90.107069    18.846958    14.337429    28.377565    18.848999    14.340174 
   51000    298.53029    1.2509986    2031.6514     -1236.52   -211.49952    2074.3196   -2309.5296   -2000.9323    44657.537 -0.067234084   -17.036218 -0.041707817    3503.3814    1581.2015    914.77246    858.83185    28.380148    18.846295    14.337861 0.0070753238 0.0070736303 0.0081162719 0.0081098283    298.53029     41.49527    35.978931    34.423473    90.016431    119.66323    90.107069    18.847436    14.337873    28.381605    18.849395    14.338189 
   52000    301.82278    1.2509986     1977.777    -1214.062   -211.49952    2075.1439   -2309.5793    1151.4557    44657.537 -0.067234084   -17.036218 -0.041707817    3426.2745    1528.6435    892.63875    856.31967    28.381601    18.844822    14.337454 0.0069533864 0.0069483932 0.0077167196  0.007665804    301.82278     41.49527    35.978931    34.423473    90.016431    119.66323    90.107069    18.845521    14.336536    28.383703     18.84538    14.335107 
   53000    304.78897    1.2509986    2013.7584   -1202.8324   -211.49952    2072.5684    -2309.499    482.63183    44657.537 -0.067234084   -17.036218 -0.041707817    3453.5215     1562.465    890.50651    858.10227     28.37948    18.844677     14.33711 0.0071965509 0.0071949421 0.0076678475 0.0076002434    304.78897     41.49527    35.978931    34.423473    90.016431    119.66323    90.107069    18.846848    14.336661    28.375175    18.849805    14.332726 
   54000    299.44846    1.2509986    2026.1876   -1221.7318   -211.49952    2072.8148   -2309.2022    120.85844    44657.537 -0.067234084   -17.036218 -0.041707817    3484.3069    1503.2556    927.14662    900.34036     28.38064    18.846264    14.337644 0.0069775898 0.0069756131 0.0072112684 0.0072013658    299.44846     41.49527    35.978931    34.423473    90.016431    119.66323    90.107069    18.847452     14.33736    28.381578    18.848852    14.342044 
   55000    302.19527    1.2509986    2046.5137   -1224.7723   -211.49952    2069.1239   -2309.7081   -946.22445    44657.537 -0.067234084   -17.036218 -0.041707817    3511.8702    1592.1318    892.07018    873.04958    28.380727    18.845574    14.338418  0.006883612 0.0068816203 0.0075770937 0.0075574703    302.19527     41.49527    35.978931    34.423473    90.016431    119.66323    90.107069    18.846137    14.339138    28.377056    18.849176    14.343291 
   56000    298.38133    1.2509986    1983.1197   -1210.6086   -211.49952    2069.4928    -2309.732     64.93632    44657.537 -0.067234084   -17.036218 -0.041707817    3433.9675     1474.141    893.65725    908.04056    28.379129    18.846637     14.33792 0.0068103551 0.0068094516 0.0073783346 0.0073710419    298.38133     41.49527    35.978931    34.423473    90.016431    119.66323    90.107069    18.846478    14.338216    28.381364    18.847026    14.339917 
   57000    301.21126    1.2509986    1971.5801   -1240.6083   -211.49952    2074.2135    -2309.189   -1143.5938    44657.537 -0.067234084   -17.036218 -0.041707817    3447.1639    1555.6195    896.06925    845.81889    28.382931    18.846571    14.338028 0.0068599398   0.00684741 0.0070384956  0.007029238    301.21126     41.49527    35.978931    34.423473    90.016431    119.66323    90.107069    18.847004    14.338349    28.380789    18.847228    14.337504 
   58000    294.31727    1.2509986    1949.3674   -1237.0921   -211.49952    2071.6247   -2309.2647   -1410.7112    44657.537 -0.067234084   -17.036218 -0.041707817    3424.0994    1538.7247    896.78275    840.46952    28.381422    18.845362    14.337125 0.0067831871 0.0067807096 0.0079361574 0.0079281982    294.31727     41.49527    35.978931    34.423473    90.016431    119.66323    90.107069    18.845581    14.337166    28.379827    18.846219    14.339351 
   59000    294.81848    1.2509986    2013.5155   -1206.8132   -211.49952    2070.6799   -2309.8042   -396.16372    44657.537 -0.067234084   -17.036218 -0.041707817     3459.453    1529.4314    887.06642    891.70269    28.380511    18.845362    14.337947 0.0066543921 0.0066520627 0.0068683718 0.0068470902    294.81848     41.49527    35.978931    34.423473    90.016431    119.66323    90.107069    18.846286    14.336834    28.378799    18.848045    14.335191 
   60000    300.52713    1.2509986    2081.7861   -1214.5269   -211.49952    2071.8249   -2309.3807   -371.15388    44657.537 -0.067234084   -17.036218 -0.041707817     3533.869    1599.5256    912.36251    871.72076    28.379495    18.847687    14.337757 0.0068533716 0.0068528984 0.0063853264 0.0063545309    300.52713     41.49527    35.978931    34.423473    90.016431    119.66323    90.107069     18.84575    14.337907    28.381844    18.845968    14.335602 
   61000    301.52768    1.2509986     2053.778   -1233.7167   -211.49952    2072.5598   -2309.4896   -1722.5539    44657.537 -0.067234084   -17.036218 -0.041707817    3524.4246    1608.3061    893.99205    870.75353    28.379649    18.845936    14.337697 0.0071375083 0.0071355773 0.0077247629 0.0076985615    301.52768     41.49527    35.978931    34.423473    90.016431    119.66323    90.107069    18.845071    14.336988    28.383034    18.846264    14.337078 
   62000    295.24088    1.2509986    1980.3448   -1208.5345   -211.49952    2071.9846   -2309.7073   -34.003027    44657.537 -0.067234084   -17.036218 -0.041707817    3426.6019    1552.7283    908.69424      816.345    28.381399    18.846271    14.338381 0.0070470907 0.0070415686 0.0081848595 0.0081789199    295.24088     41.49527    35.978931    34.423473    90.016431    119.66323    90.107069    18.846726     14.33913    28.380235    18.847417    14.341351 
   63000    299.98978    1.2509986    1999.4198    -1212.907   -211.49952    2068.2984   -2310.0424    444.70113    44657.537 -0.067234084   -17.036218 -0.041707817    3454.0708    1541.6026     922.5912    840.73157    28.380784    18.845884    14.337916 0.0067192782 0.0067162617 0.0068137265 0.0068106116    299.98978     41.49527    35.978931    34.423473    90.016431    119.66323    90.107069    18.847144    14.338553     28.38031    18.849951    14.338347 
   64000    298.61347    1.2509986    2050.3983   -1187.3893   -211.49952    2072.5649    -2309.281    286.27196    44657.537 -0.067234084   -17.036218 -0.041707817    3474.5037     1519.265    931.03477    876.95383    28.378857    18.846115     14.33721 0.0069219687 0.0069211385 0.0079499213  0.007883146    298.61347     41.49527    35.978931    34.423473    90.016431    119.66323    90.107069     18.84578    14.338487    28.374483    18.846159    14.345373 
   65000    301.73887    1.2509986    1994.4655   -1194.2029   -211.49952    2071.0091   -2309.5238    781.54074    44657.537 -0.067234084   -17.036218 -0.041707817    3427.1831    1490.5827    921.13735    860.77373    28.381556    18.844764    14.337432 0.0063597913   0.00635672 0.0069034755 0.0068615957    301.73887     41.49527    35.978931    34.423473    90.016431    119.66323    90.107069    18.845143    14.338161    28.383658    18.844125    14.340721 
   66000    303.12722    1.2509986    1963.0883   -1227.3297   -211.49952     2073.411   -2309.3176    327.87747    44657.537 -0.067234084   -17.036218 -0.041707817    3426.3245    1515.8694    901.15536    862.28777    28.382766    18.845914    14.339623 0.0071414399 0.0071366469 0.0074962147 0.0074484239    303.12722     41.49527    35.978931    34.423473    90.016431    119.66323    90.107069    18.846035    14.339659     28.37821    18.844674    14.344849 
   67000    299.65125    1.2509986    1900.8274   -1215.3694   -211.49952    2072.4465   -2309.4767   -197.52327    44657.537 -0.067234084   -17.036218 -0.041707817    3353.2271    1488.8087    877.25476    841.23481    28.378901    18.847439    14.337585 0.0068957099 0.0068874968  0.007307983 0.0072795089    299.65125     41.49527    35.978931    34.423473    90.016431    119.66323    90.107069    18.847372    14.336331    28.382954    18.847857    14.335689 
   68000    300.23896    1.2509986    2034.0045   -1207.8431   -211.49952    2071.4473   -2309.8073    4.4179562    44657.537 -0.067234084   -17.036218 -0.041707817    3480.2077    1522.6414     914.1457    888.40756     28.38135    18.843411    14.338178  0.006623433 0.0066116305 0.0068111158 0.0067502759    300.23896     41.49527    35.978931    34.423473    90.016431    119.66323    90.107069    18.843327    14.337057     28.37539    18.843507     14.33601 
   69000    297.82992    1.2509986    2045.8237   -1210.4203   -211.49952    2071.8255   -2309.6373    151.11088    44657.537 -0.067234084   -17.036218 -0.041707817    3494.0558    1560.7848    911.14128    866.37088    28.381257    18.843832    14.337544 0.0069265505 0.0069220455 0.0065900491 0.0065733947    297.82992     41.49527    35.978931    34.423473    90.016431    119.66323    90.107069     18.84466    14.337558    28.380562    18.845093    14.339111 
   70000    298.52571    1.2509986    1971.1347   -1199.7731   -211.49952    2071.9191   -2309.4931    687.60012    44657.537 -0.067234084   -17.036218 -0.041707817    3408.4819    1502.8685    897.70244    858.24134    28.377347    18.847396    14.336715 0.0067739299 0.0067681843 0.0068248457 0.0068231982    298.52571     41.49527    35.978931    34.423473    90.016431    119.66323    90.107069    18.847778    14.337095    28.378316    18.848702    14.339744 
   71000    299.12741    1.2509986    1996.7241   -1231.2562   -211.49952    2073.9157   -2309.8472    28.524508    44657.537 -0.067234084   -17.036218 -0.041707817    3463.9118    1552.7783    892.38896    865.47989    28.376873    18.845862      14.3369 0.0068469787  0.006840947  0.007089106 0.0070555966    299.12741     41.49527    35.978931    34.423473    90.016431    119.66323    90.107069    18.845218    14.337537    28.377259    18.844027    14.341476 
   72000    299.97377    1.2509986    1952.9098   -1211.0598   -211.49952    2069.3529   -2309.6734    1068.6253    44657.537 -0.067234084   -17.036218 -0.041707817    3404.2901    1534.7717      883.194    838.23798    28.381484    18.846339    14.337954 0.0070966882 0.0070956484 0.0075280226 0.0074941557    299.97377     41.49527    35.978931    34.423473    90.016431    119.66323    90.107069    18.846221    14.338659    28.376455    18.847778    14.344405 
   73000    299.41287    1.2509986    2085.7887    -1227.119   -211.49952    2077.9538   -2308.9021   -1065.6209    44657.537 -0.067234084   -17.036218 -0.041707817     3543.856    1598.6284    909.29337    880.02465    28.378821    18.845303    14.336825 0.0071073606 0.0071060378 0.0079584789 0.0079463177    299.41287     41.49527    35.978931    34.423473    90.016431    119.66323    90.107069    18.845522    14.336909     28.38218    18.846791    14.339054 
   74000    292.56654    1.2509986    2012.7207   -1227.3963   -211.49952    2075.6172   -2309.8205   -233.39411    44657.537 -0.067234084   -17.036218 -0.041707817    3474.3203    1526.4743    920.23106    874.28571    28.379974    18.845537    14.337974 0.0069115445 0.0069099071  0.007530183 0.0075153453    292.56654     41.49527    35.978931    34.423473    90.016431    119.66323    90.107069    18.846685     14.33889    28.378845    18.846823    14.342726 
   75000    295.25768    1.2509986    2011.1064   -1234.2794   -211.49952    2072.1984   -2309.8679   -1816.2408    44657.537 -0.067234084   -17.036218 -0.041707817    3483.0554    1569.7358    918.36508    843.87409    28.380606    18.845402    14.338084 0.0071904416 0.0071899081 0.0075854505 0.0075356656    295.25768     41.49527    35.978931    34.423473    90.016431    119.66323    90.107069    18.845567    14.337848      28.3862    18.847158    14.341123 
   76000    297.29965    1.2509986    1972.4075   -1182.2631   -211.49952    2069.1906   -2309.6362   -53.793146    44657.537 -0.067234084   -17.036218 -0.041707817    3395.1162    1495.0544    878.07241    873.79615    28.376813    18.845779    14.337275 0.0069125962 0.0069050862 0.0073133393 0.0072982576    297.29965     41.49527    35.978931    34.423473    90.016431    119.66323    90.107069    18.845701    14.337474     28.37979    18.845868    14.341905 
   77000    295.85317    1.2509986    1957.0134   -1209.2768   -211.49952    2069.5405   -2309.9061    876.15393    44657.537 -0.067234084   -17.036218 -0.041707817    3406.6558    1513.3684    911.84472    832.38066    28.379143    18.846643    14.337635 0.0070883055 0.0070851356 0.0075566813 0.0075523106    295.85317     41.49527    35.978931    34.423473    90.016431    119.66323    90.107069    18.847001    14.337965     28.37924    18.846966    14.339925 
   78000    301.35728    1.2509986    1986.0532   -1196.7661   -211.49952    2070.6277   -2309.4321    252.28392    44657.537 -0.067234084   -17.036218 -0.041707817    3421.6237    1521.1165    869.96135     877.6937    28.380198    18.846236    14.337678 0.0072111494 0.0072095157 0.0081162299 0.0080907977    301.35728     41.49527    35.978931    34.423473    90.016431    119.66323    90.107069    18.845803    14.337548    28.383359    18.845953    14.340908 
   79000    294.76676    1.2509986    1945.5406    -1216.108   -211.49952    2069.9519   -2309.5724   -738.69123    44657.537 -0.067234084   -17.036218 -0.041707817    3401.2691    1523.2453    874.04494    856.82463    28.379625    18.843949    14.336806 0.0068357322 0.0068304464 0.0067010338 0.0066529108    294.76676     41.49527    35.978931    34.423473    90.016431    119.66323    90.107069    18.843897    14.337614    28.382658    18.842809    14.339513 
   80000    302.84086    1.2509986    1984.3062   -1242.1668   -211.49952    2070.5498   -2309.7722    -2795.189    44657.537 -0.067234084   -17.036218 -0.041707817    3465.6953    1583.2316    900.97503    836.34543    28.379691     18.84619    14.337395 0.0070356035  0.007031671 0.0078001372 0.0077911038    302.84086     41.49527    35.978931    34.423473    90.016431    119.66323    90.107069    18.847045    14.338246    28.377506    18.851185    14.339972 
   81000    294.53001    1.2509986    2002.7946   -1215.8376   -211.49952    2073.5054   -2309.7045   -457.66548    44657.537 -0.067234084   -17.036218 -0.041707817    3454.8313    1509.9807    888.38613    897.98293    28.379868    18.845915    14.337764 0.0068684027  0.006863258  0.007005712 0.0069500333    294.53001     41.49527    35.978931    34.423473    90.016431    119.66323    90.107069    18.847997    14.338953    28.380176    18.848416     14.34705 
   82000    296.32263    1.2509986    1991.2436   -1227.7064   -211.49952    2072.3493   -2309.4983   -573.06887    44657.537 -0.067234084   -17.036218 -0.041707817     3456.099    1528.5525    895.22929    880.94638      28.3806    18.846615    14.337851 0.0070653156 0.0070630748 0.0072803026 0.0072695681    296.32263     41.49527    35.978931    34.423473    90.016431    119.66323    90.107069      18.8457    14.337949    28.376406    18.848114     14.33957 
   83000    294.63962    1.2509986    1976.7762   -1194.3619   -211.49952    2073.6827   -2309.1834    1647.6679    44657.537 -0.067234084   -17.036218 -0.041707817    3406.6388    1456.9806    939.78213    862.85327    28.380358    18.846776     14.33827 0.0070913769 0.0070893186  0.007779079 0.0077732466    294.63962     41.49527    35.978931    34.423473    90.016431    119.66323    90.107069    18.846269    14.338197    28.378171    18.847211    14.340453 
   84000    303.72584    1.2509986    2015.1152   -1230.6487   -211.49952    2071.6293   -2309.5364   -1484.7439    44657.537 -0.067234084   -17.036218 -0.041707817     3483.671    1530.9511    921.57791    881.74192    28.378474    18.846744    14.337937 0.0067812834 0.0067796446 0.0066767113  0.006632457    303.72584     41.49527    35.978931    34.423473    90.016431    119.66323    90.107069    18.846224    14.338094    28.373731    18.850685    14.336895 
   85000    294.90657    1.2509986    1996.9547   -1208.6718   -211.49952    2072.0464   -2309.7882    1641.2885    44657.537 -0.067234084   -17.036218 -0.041707817    3443.3683    1473.5173    938.22174    878.76632    28.377733    18.846746    14.336829 0.0067266129   0.00672618 0.0069574753 0.0069272338    294.90657     41.49527    35.978931    34.423473    90.016431    119.66323    90.107069    18.846558    14.337818    28.382526    18.847762    14.344094 
   86000    292.32718    1.2509986    2039.7269   -1197.2194   -211.49952    2070.8858   -2309.0905    227.40274    44657.537 -0.067234084   -17.036218 -0.041707817    3475.1509     1504.919    949.02703    867.50473    28.381429    18.846179    14.338116 0.0071529876 0.0071505686  0.007617579 0.0076142356    292.32718     41.49527    35.978931    34.423473    90.016431    119.66323    90.107069    18.846948    14.338049    28.379229    18.849629    14.337948 
   87000    305.10614    1.2509986     2105.408   -1214.8872   -211.49952    2075.6816   -2309.2528    1636.8226    44657.537 -0.067234084   -17.036218 -0.041707817    3553.8664    1580.6911    963.32618    860.33056    28.380008    18.847904    14.337323 0.0069702923 0.0069676649 0.0068340326 0.0068210826    305.10614     41.49527    35.978931    34.423473    90.016431    119.66323    90.107069    18.847787    14.337673    28.382446    18.851088    14.339093 
   88000     301.9406    1.2509986    1988.5928   -1185.4826   -211.49952    2072.0886   -2309.2235    2298.5347    44657.537 -0.067234084   -17.036218 -0.041707817    3411.2104    1488.5429    884.49825    884.05646    28.379704    18.846647    14.336829 0.0068505672 0.0068486992  0.007101931  0.007092736     301.9406     41.49527    35.978931    34.423473    90.016431    119.66323    90.107069    18.846464    14.336414    28.379808    18.846611    14.337804 
   89000    300.91423    1.2509986    1917.9547   -1231.6636   -211.49952    2075.6273   -2309.6747    742.95838    44657.537 -0.067234084   -17.036218 -0.041707817    3383.6657     1493.139     928.4823    818.48394    28.378526    18.844846     14.33686 0.0069015053 0.0068982765 0.0075735882 0.0075465047    300.91423     41.49527    35.978931    34.423473    90.016431    119.66323    90.107069    18.847157    14.336253    28.382406    18.847692    14.335488 
   90000    298.27508    1.2509986    2086.6994   -1199.2675   -211.49952    2073.3578   -2309.3664    1280.9313    44657.537 -0.067234084   -17.036218 -0.041707817    3521.9755    1568.2119    941.70858    858.69184    28.381665    18.843978    14.337604 0.0067022319 0.0066986891  0.006661851 0.0066451452    298.27508     41.49527    35.978931    34.423473    90.016431    119.66323    90.107069    18.844454    14.337913    28.377725    18.846383    14.342175 
   91000    297.22748    1.2509986    1980.8054   -1221.3492   -211.49952    2070.9611   -2309.5878   -36.116085    44657.537 -0.067234084   -17.036218 -0.041707817    3440.7813    1541.2814    897.53886    849.41248    28.378936    18.844921     14.33732 0.0070659485 0.0070641585 0.0079083202 0.0078993783    297.22748     41.49527    35.978931    34.423473    90.016431    119.66323    90.107069    18.847013    14.337802    28.378068    18.849049    14.342231 
   92000    300.37664    1.2509986    2032.8527   -1222.8695   -211.49952    2072.6433   -2309.2976   -105.01709    44657.537 -0.067234084   -17.036218 -0.041707817    3492.3766    1580.7756    907.67608    852.92543    28.381668     18.84397    14.337411 0.0069407616 0.0069385953 0.0068011572 0.0067216397    300.37664     41.49527    35.978931    34.423473    90.016431    119.66323    90.107069    18.844952    14.337072     28.38827    18.847765    14.338211 
   93000    292.64646    1.2509986    2006.4815   -1225.3992   -211.49952    2070.7154   -2309.5144   -1622.1926    44657.537 -0.067234084   -17.036218 -0.041707817    3470.6796    1547.3856    907.96013     862.4601    28.379153    18.847287    14.337301 0.0067813389 0.0067786222 0.0073248826 0.0073208547    292.64646     41.49527    35.978931    34.423473    90.016431    119.66323    90.107069    18.847576    14.337659    28.380949     18.84971    14.340905 
   94000    296.25253    1.2509986    2010.8568   -1219.7278   -211.49952    2075.1576   -2309.1922   -161.49206    44657.537 -0.067234084   -17.036218 -0.041707817    3464.6192    1549.3408    896.24218    872.13549    28.380644    18.844445    14.337287 0.0068546696 0.0068484269 0.0072782542  0.007235182    296.25253     41.49527    35.978931    34.423473    90.016431    119.66323    90.107069    18.843892    14.336761    28.377192    18.843072    14.338159 
   95000    299.62326    1.2509986    2043.7653   -1219.9047   -211.49952    2074.1387   -2309.6644   -1380.6523    44657.537 -0.067234084   -17.036218 -0.041707817    3499.1958    1547.9587    932.03001    874.75897    28.378737    18.848292    14.337673 0.0071543046 0.0071525563 0.0074898394 0.0074595462    299.62326     41.49527    35.978931    34.423473    90.016431    119.66323    90.107069    18.847459    14.337968    28.382832    18.845523    14.342356 
   96000    293.12566    1.2509986    1938.5431   -1210.3994   -211.49952     2073.968   -2309.3423    218.32648    44657.537 -0.067234084   -17.036218 -0.041707817    3384.3169    1508.0875    918.30047    814.06359    28.377291    18.843989    14.336931 0.0069283914 0.0069225367 0.0074269024  0.007363471    293.12566     41.49527    35.978931    34.423473    90.016431    119.66323    90.107069    18.844125    14.337181    28.374032    18.847773    14.334037 
   97000    297.49897    1.2509986    2012.4819   -1220.2467   -211.49952    2071.2481   -2309.7288    152.01383    44657.537 -0.067234084   -17.036218 -0.041707817    3471.2093    1550.7655    916.69035    853.37803    28.380141     18.84599    14.337665 0.0071418675 0.0071392422 0.0082016484 0.0081868673    297.49897     41.49527    35.978931    34.423473    90.016431    119.66323    90.107069    18.847263    14.337854    28.376009    18.850493    14.339551 
   98000    302.04478    1.2509986    1905.5312   -1232.5155   -211.49952    2071.6209   -2309.6564    242.97766    44657.537 -0.067234084   -17.036218 -0.041707817    3376.0822    1516.1415    895.34507    822.88994    28.381455    18.845646    14.337265 0.0067886512 0.0067863786 0.0077531753 0.0077468607    302.04478     41.49527    35.978931    34.423473    90.016431    119.66323    90.107069    18.846159    14.338197    28.380047    18.847733    14.341744 
   99000    294.23068    1.2509986    2003.0071   -1217.4761   -211.49952     2073.282   -2309.2974   -329.39812    44657.537 -0.067234084   -17.036218 -0.041707817    3456.4986    1551.2154     922.0301    832.47543    28.379052    18.845321    14.336946 0.0067463481 0.0067432164  0.007302117 0.0072713816    294.23068     41.49527    35.978931    34.423473    90.016431    119.66323    90.107069    18.845813    14.336634    28.376691    18.846949    14.335365 
  100000    293.56818    1.2509986     2054.158   -1235.8651   -211.49952    2074.7215   -2309.3841   -922.19453    44657.537 -0.067234084   -17.036218 -0.041707817    3524.6858    1533.2512    958.97361    881.47443    28.379967    18.846101    14.337735 0.0072185679 0.0072182285 0.0081964596 0.0081835856    293.56818     41.49527    35.978931    34.423473    90.016431    119.66323    90.107069    18.846743    14.337672    28.376191    18.848684    14.338439 
  101000    298.74849    1.2509986    1960.9813   -1213.4488   -211.49952    2072.8465   -2309.3261    745.48902    44657.537 -0.067234084   -17.036218 -0.041707817    3410.9097    1495.2684    901.12765    862.38555    28.380606    18.845469    14.337523 0.0068925006 0.0068909333 0.0076031211 0.0075931942    298.74849     41.49527    35.978931    34.423473    90.016431    119.66323    90.107069    18.845195    14.338105    28.377433    18.848017    14.341742 
  102000    297.21564    1.2509986    2014.1205   -1214.5217   -211.49952    2070.6966   -2309.7226   -1331.4346    44657.537 -0.067234084   -17.036218 -0.041707817    3467.6681    1529.8493    900.04356    888.56721    28.378663    18.845856    14.337912  0.007519425  0.007517923 0.0076998431 0.0076911254    297.21564     41.49527    35.978931    34.423473    90.016431    119.66323    90.107069    18.846334    14.338628    28.382299    18.847975    14.339984 
  103000    306.68123    1.2509986    2062.1322   -1205.5689   -211.49952    2070.9708   -2309.3309    366.37863    44657.537 -0.067234084   -17.036218 -0.041707817    3506.0612    1561.0505     897.6647    891.95645    28.378323    18.844634     14.33698 0.0069801191 0.0069780361 0.0079909967 0.0079727307    306.68123     41.49527    35.978931    34.423473    90.016431    119.66323    90.107069     18.84534    14.337097     28.38112    18.845813    14.337275 
  104000    298.48392    1.2509986     1913.372   -1222.3978   -211.49952    2072.5288   -2309.2197   -75.918583    44657.537 -0.067234084   -17.036218 -0.041707817    3372.4608     1485.013    878.36686    854.68137    28.379223    18.847068    14.338119 0.0067500884 0.0067488631  0.007240753 0.0072370728    298.48392     41.49527    35.978931    34.423473    90.016431    119.66323    90.107069    18.847004    14.338349     28.38146    18.849086    14.339414 
  105000    298.54359    1.2509986    2097.3719   -1192.4511   -211.49952    2075.1754   -2309.0338    1404.0821    44657.537 -0.067234084   -17.036218 -0.041707817    3523.6814    1535.7215    923.56048    910.31399    28.380287    18.844542    14.337379 0.0070991806 0.0070953065 0.0069137561 0.0068704943    298.54359     41.49527    35.978931    34.423473    90.016431    119.66323    90.107069    18.844492    14.337286    28.382208    18.843282    14.341479 
  106000    297.33756    1.2509986    1988.0399   -1207.0467   -211.49952    2071.1711   -2309.4996    583.49508    44657.537 -0.067234084   -17.036218 -0.041707817    3433.4152    1515.4353    908.79032    859.69925    28.381514    18.846545    14.337882 0.0068291009 0.0068233814 0.0072675116 0.0072057059    297.33756     41.49527    35.978931    34.423473    90.016431    119.66323    90.107069    18.846375    14.338548    28.386105    18.845432    14.337168 
  107000    299.97989    1.2509986    1933.6458   -1215.8874   -211.49952    2073.3198   -2309.3902    515.89313    44657.537 -0.067234084   -17.036218 -0.041707817    3385.6036    1516.1606    902.82451    817.61143    28.378481    18.845599    14.337461 0.0067326428 0.0067321181  0.007498916 0.0074822216    299.97989     41.49527    35.978931    34.423473    90.016431    119.66323    90.107069    18.845666    14.338234    28.381625      18.8475    14.342821 
  108000    296.20896    1.2509986     1964.803   -1203.5075   -211.49952    2071.5032   -2309.7133    -84.42548    44657.537 -0.067234084   -17.036218 -0.041707817    3406.5206    1495.2349    882.19122      873.754    28.382038    18.845472    14.337819 0.0070354499 0.0070322433 0.0066969267 0.0066899542    296.20896     41.49527    35.978931    34.423473    90.016431    119.66323    90.107069    18.846573    14.338003    28.382167    18.848984    14.340035 
  109000    298.26435    1.2509986    2042.2074   -1222.6333   -211.49952    2072.1109   -2309.5613   -840.88086    44657.537 -0.067234084   -17.036218 -0.041707817    3502.2912    1510.7747    934.06857    903.88697    28.380355    18.846174    14.337687 0.0068441617 0.0068439643 0.0071093567 0.0070890757    298.26435     41.49527    35.978931    34.423473    90.016431    119.66323    90.107069    18.846196    14.337557    28.376982     18.84568    14.338043 
  110000    300.29939    1.2509986    2038.1746   -1215.8814   -211.49952    2073.1365   -2309.4283    246.37982    44657.537 -0.067234084   -17.036218 -0.041707817    3490.3478    1552.1659     925.0097    862.23493    28.381671    18.844829     14.33839 0.0068481655 0.0068455361 0.0070119017 0.0069993535    300.29939     41.49527    35.978931    34.423473    90.016431    119.66323    90.107069    18.845314    14.338812    28.381593    18.847657      14.3422 
  111000    298.70508    1.2509986     2014.603   -1205.4134   -211.49952    2071.7955   -2309.5412   -162.37352    44657.537 -0.067234084   -17.036218 -0.041707817     3457.762    1542.5124    921.91693    845.63653    28.380224    18.845906       14.337 0.0069390229  0.006935681 0.0071224329 0.0071039569    298.70508     41.49527    35.978931    34.423473    90.016431    119.66323    90.107069    18.845356     14.33653    28.379673    18.847531    14.335605 
  112000    297.85555    1.2509986    1959.1554   -1212.7955   -211.49952    2071.5001    -2309.606    79.284572    44657.537 -0.067234084   -17.036218 -0.041707817    3410.0568    1498.8044    894.49863    871.13208    28.378575    18.846204    14.336862   0.00701664 0.0070156211 0.0081440767 0.0081079345    297.85555     41.49527    35.978931    34.423473    90.016431    119.66323    90.107069    18.845577    14.337324    28.379654      18.8437     14.34245 
  113000    293.18676    1.2509986    1996.8372    -1215.038   -211.49952    2070.9552   -2309.7108   -105.34799    44657.537 -0.067234084   -17.036218 -0.041707817    3450.6309     1524.379    894.81303    878.22552    28.380789    18.845576    14.338427 0.0074063508 0.0074058218 0.0082186627 0.0081890914    293.18676     41.49527    35.978931    34.423473    90.016431    119.66323    90.107069    18.846106    14.338401    28.376795    18.848623    14.344307 
  114000    303.59349    1.2509986     2047.662   -1227.5444   -211.49952    2071.6803   -2309.7116   -1605.5008    44657.537 -0.067234084   -17.036218 -0.041707817    3513.2378    1569.1414     912.0338    874.38543    28.378889    18.845576    14.337123 0.0073049729 0.0072994586 0.0080420027 0.0080323591    303.59349     41.49527    35.978931    34.423473    90.016431    119.66323    90.107069    18.845858    14.336844    28.381474    18.846717     14.34047 
  115000    288.11005    1.2509986    2069.3127    -1201.797   -211.49952    2074.2572    -2309.515   -47.378908    44657.537 -0.067234084   -17.036218 -0.041707817    3506.3675    1544.9103    897.89837    905.69678    28.378598    18.844489    14.337846 0.0069445182 0.0069432578 0.0067820711 0.0067777735    288.11005     41.49527    35.978931    34.423473    90.016431    119.66323    90.107069    18.845149    14.337323    28.380006    18.847016    14.339308 
  116000    296.77438    1.2509986    1962.6042   -1215.4373   -211.49952    2069.4848   -2309.3568   -97.636064    44657.537 -0.067234084   -17.036218 -0.041707817    3417.9134    1529.5009    888.96214    848.46392    28.380297    18.845321    14.337408   0.00713344 0.0071314776 0.0080213761 0.0079979955    296.77438     41.49527    35.978931    34.423473    90.016431    119.66323    90.107069    18.844923    14.337752    28.378966    18.844663     14.33761 
  117000    299.33968    1.2509986    1922.8364    -1216.732   -211.49952    2064.8806   -2309.8873   -2625.4471    44657.537 -0.067234084   -17.036218 -0.041707817     3384.575     1547.268    880.35961    815.61744    28.381536    18.846227    14.337795 0.0070109371  0.007009387 0.0076077776 0.0076049265    299.33968     41.49527    35.978931    34.423473    90.016431    119.66323    90.107069    18.846412    14.337569    28.379757    18.850424    14.340544 
  118000    289.64325    1.2509986    2015.9669   -1213.8667   -211.49952    2071.9116   -2309.7215   -482.75253    44657.537 -0.067234084   -17.036218 -0.041707817    3467.6436    1517.0587    953.97113    846.75064    28.382648    18.846289    14.337805 0.0072612005 0.0072604509 0.0077530457 0.0077213607    289.64325     41.49527    35.978931    34.423473    90.016431    119.66323    90.107069    18.846734    14.337467    28.374427    18.847921    14.337593 
  119000    295.93545    1.2509986    2002.6814   -1196.7217   -211.49952    2072.6421   -2309.6441    151.96706    44657.537 -0.067234084   -17.036218 -0.041707817    3436.4051    1537.0922     915.0301    836.56567    28.379257    18.846443    14.337079 0.0070891191 0.0070883344 0.0080184183 0.0080041514    295.93545     41.49527    35.978931    34.423473    90.016431    119.66323    90.107069    18.846771    14.337408    28.376292    18.849672    14.337856 
  120000    295.62514    1.2509986     1962.098   -1230.7407   -211.49952    2077.2593   -2309.5356    847.23633    44657.537 -0.067234084   -17.036218 -0.041707817    3425.1151    1504.1395      901.558    871.19996    28.380239     18.84723    14.337677 0.0072903641 0.0072902609 0.0073956195 0.0073802138    295.62514     41.49527    35.978931    34.423473    90.016431    119.66323    90.107069     18.84619    14.337737    28.378431    18.849045    14.335878 
  121000    293.18794    1.2509986    1907.9822   -1233.2046   -211.49952    2071.1095   -2309.4422   -1281.2437    44657.537 -0.067234084   -17.036218 -0.041707817    3379.5195    1557.8424    860.91001    819.94687    28.378158    18.845864    14.338044 0.0072010815 0.0071930335 0.0080559822  0.008035477    293.18794     41.49527    35.978931    34.423473    90.016431    119.66323    90.107069    18.845004    14.338929     28.37971    18.847527    14.343913 
  122000    299.49953    1.2509986    2020.6721    -1221.433   -211.49952    2073.6463   -2309.0285   -779.59626    44657.537 -0.067234084   -17.036218 -0.041707817    3477.4873    1530.7963    896.46385    891.73546    28.380123    18.846201    14.337938 0.0068635836 0.0068613956 0.0076068122 0.0076025995    299.49953     41.49527    35.978931    34.423473    90.016431    119.66323    90.107069    18.846813    14.337326    28.380925    18.847574    14.340159 
  123000    296.52075    1.2509986    2074.1504   -1193.6774   -211.49952    2074.6264   -2309.3088    359.79012    44657.537 -0.067234084   -17.036218 -0.041707817    3502.5102    1546.2635    919.69009    886.96878    28.377981    18.846102    14.337984  0.006799824 0.0067994345 0.0072786126 0.0072540907    296.52075     41.49527    35.978931    34.423473    90.016431    119.66323    90.107069    18.846436     14.33789    28.375429    18.849896    14.342228 
  124000    292.92424    1.2509986    2051.7188   -1209.0334   -211.49952    2076.9703    -2309.093    606.33316    44657.537 -0.067234084   -17.036218 -0.041707817    3492.8749    1530.2136    941.95869    868.19075    28.380022    18.846027      14.3385 0.0067075447 0.0067053634 0.0074159037 0.0073997413    292.92424     41.49527    35.978931    34.423473    90.016431    119.66323    90.107069    18.845488    14.339007    28.383362    18.847723     14.33978 
  125000    298.11039    1.2509986    2005.7151   -1233.2202   -211.49952    2073.9554   -2309.1696   -1220.9372    44657.537 -0.067234084   -17.036218 -0.041707817    3474.1495    1551.1833    935.55811    841.89468    28.379405    18.847253    14.337779 0.0070550535   0.00705403     0.007397 0.0073854643    298.11039     41.49527    35.978931    34.423473    90.016431    119.66323    90.107069    18.847081    14.338203    28.381205    18.850978    14.341865 
  126000    291.31103    1.2509986     1928.234   -1227.7431   -211.49952    2070.4311   -2309.7075   -856.92122    44657.537 -0.067234084   -17.036218 -0.041707817    3395.2535    1585.8896    854.56224    814.39205    28.381663     18.84468     14.33807 0.0069545374 0.0069520078 0.0077568247  0.007712613    291.31103     41.49527    35.978931    34.423473    90.016431    119.66323    90.107069    18.846696    14.339089    28.379955     18.85306    14.344898 
  127000    294.21839    1.2509986    2068.1913   -1204.7266   -211.49952    2071.4155   -2309.4898   -248.45098    44657.537 -0.067234084   -17.036218 -0.041707817    3510.9922    1575.6377    924.28619    859.26085     28.37804    18.847484    14.336706 0.0070033263 0.0070021388 0.0073378178 0.0073342815    294.21839     41.49527    35.978931    34.423473    90.016431    119.66323    90.107069    18.847182    14.337308    28.379546    18.848227     14.33793 
  128000    297.28048    1.2509986    2008.3266   -1231.8043   -211.49952    2073.2985   -2309.7413   -1451.9508    44657.537 -0.067234084   -17.036218 -0.041707817    3476.5737    1545.4549    908.25749    872.30114     28.38005    18.845063    14.337267 0.0069269305  0.006924732 0.0076357083 0.0076065398    297.28048     41.49527    35.978931    34.423473    90.016431    119.66323    90.107069    18.845289    14.337906    28.375884    18.847789    14.343404 
  129000    297.42602    1.2509986    2069.9523   -1218.5503   -211.49952    2069.7006   -2309.7042   -864.64886    44657.537 -0.067234084   -17.036218 -0.041707817    3528.5062    1593.6678    909.81149    873.76913    28.381147    18.844625    14.337576 0.0069643592 0.0069570241 0.0073573279 0.0072976019    297.42602     41.49527    35.978931    34.423473    90.016431    119.66323    90.107069    18.843823    14.337425    28.383142    18.843528    14.335542 
  130000    303.44576    1.2509986    2038.7789   -1207.7419   -211.49952    2074.7289   -2309.3045    1094.9808    44657.537 -0.067234084   -17.036218 -0.041707817    3481.0964    1519.2972    932.71855    874.61664     28.37964    18.845914    14.337115 0.0069722433 0.0069710972 0.0076689704 0.0076401049    303.44576     41.49527    35.978931    34.423473    90.016431    119.66323    90.107069    18.846045    14.336766    28.378093    18.844659    14.336851 
  131000    297.91434    1.2509986    2003.0086   -1217.3615   -211.49952    2070.1234   -2310.0636   -890.38212    44657.537 -0.067234084   -17.036218 -0.041707817    3460.3103    1571.5232    902.19955    840.51986    28.382427    18.846117    14.338402   0.00685125 0.0068497147 0.0074014085  0.007379222    297.91434     41.49527    35.978931    34.423473    90.016431    119.66323    90.107069    18.846156    14.338683    28.382178    18.848212    14.343469 
  132000    294.55351    1.2509986    2001.5138   -1205.7476   -211.49952    2069.6209   -2309.7359    407.03866    44657.537 -0.067234084   -17.036218 -0.041707817    3447.3764     1497.503    915.42964    881.40246    28.383542    18.845629     14.33861 0.0069882385 0.0069833084 0.0074119046 0.0074049953    294.55351     41.49527    35.978931    34.423473    90.016431    119.66323    90.107069    18.845652    14.337665    28.382102     18.84854    14.340093 
  133000    301.91875    1.2509986    1971.2782   -1214.8069   -211.49952    2071.8913   -2309.4234   -766.97213    44657.537 -0.067234084   -17.036218 -0.041707817    3423.6172    1544.1391     893.0426    846.24586    28.382555    18.847183    14.337099 0.0071471734 0.0071458404 0.0077207394 0.0076791036    301.91875     41.49527    35.978931    34.423473    90.016431    119.66323    90.107069    18.846176     14.33666    28.377157    18.845654    14.334679 
  134000    298.08841    1.2509986    1949.9536   -1222.6248   -211.49952    2070.7267   -2309.6814    164.61956    44657.537 -0.067234084   -17.036218 -0.041707817     3411.533     1509.086    941.92249    816.14324    28.378792    18.846617     14.33729  0.006680486 0.0066791947  0.006549534 0.0065436392    298.08841     41.49527    35.978931    34.423473    90.016431    119.66323    90.107069     18.84724    14.337957    28.380889     18.84759    14.338191 
  135000    293.78855    1.2509986    2017.2506   -1216.9639   -211.49952    2070.9578    -2309.517    18.622923    44657.537 -0.067234084   -17.036218 -0.041707817    3472.7737    1533.1189    927.66566    864.76745    28.378774    18.846168    14.337211 0.0068643798 0.0068608701 0.0069838759  0.006941605    293.78855     41.49527    35.978931    34.423473    90.016431    119.66323    90.107069    18.847025     14.33759    28.373738    18.846156    14.339133 
  136000    298.37028    1.2509986     2002.349   -1225.8461   -211.49952    2078.7923   -2308.9587    112.99222    44657.537 -0.067234084   -17.036218 -0.041707817    3458.3615    1535.5474    931.34031    834.86939    28.378469    18.844733    14.337474 0.0070323858 0.0070262834 0.0075927503 0.0075632858    298.37028     41.49527    35.978931    34.423473    90.016431    119.66323    90.107069    18.844434    14.337503    28.375061    18.846321    14.341055 
  137000    297.72784    1.2509986    1880.8887   -1220.1273   -211.49952    2070.8934   -2309.5584    506.27541    44657.537 -0.067234084   -17.036218 -0.041707817     3339.681    1471.6348    900.95637    825.59867    28.379045    18.847594    14.336826 0.0072284813 0.0072260861 0.0073643999 0.0073438283    297.72784     41.49527    35.978931    34.423473    90.016431    119.66323    90.107069    18.847707    14.337945    28.375451     18.85092    14.339922 
  138000     300.2403    1.2509986    1965.3525   -1215.8023   -211.49952    2070.3135   -2309.4086   -934.47301    44657.537 -0.067234084   -17.036218 -0.041707817      3420.25     1534.461    907.75728    831.79926    28.377819    18.846663     14.33709 0.0070065158 0.0070041627 0.0078414745  0.007820574     300.2403     41.49527    35.978931    34.423473    90.016431    119.66323    90.107069    18.846393    14.337229    28.376763    18.848095    14.343139 
  139000    295.60219    1.2509986    2055.5392   -1208.5948   -211.49952    2069.8975   -2309.8783     317.6822    44657.537 -0.067234084   -17.036218 -0.041707817    3504.1148    1541.2309    944.34111    867.56619    28.378739    18.846308    14.336911 0.0067818442 0.0067779109 0.0073831687 0.0073377741    295.60219     41.49527    35.978931    34.423473    90.016431    119.66323    90.107069    18.845417    14.336189    28.379358    18.843956     14.33519 
  140000    299.53161    1.2509986    2058.5962   -1205.2216   -211.49952    2072.4929   -2309.7188   -74.382962    44657.537 -0.067234084   -17.036218 -0.041707817    3501.0438    1596.6294    897.80052    853.59609    28.380186    18.847012    14.337712 0.0070715336 0.0070692869 0.0074840936 0.0074739386    299.53161     41.49527    35.978931    34.423473    90.016431    119.66323    90.107069    18.847613    14.337416    28.377044    18.850763    14.338756 
  141000    299.69156    1.2509986    1976.5789   -1201.9804   -211.49952    2072.1359    -2309.405    70.617949    44657.537 -0.067234084   -17.036218 -0.041707817    3415.8284    1499.1126    913.21879     854.2808    28.380378    18.845983    14.337252 0.0069009388 0.0069003864 0.0077295268 0.0077164794    299.69156     41.49527    35.978931    34.423473    90.016431    119.66323    90.107069    18.846614    14.337422    28.377238    18.851577    14.340684 
  142000    289.35468    1.2509986    1977.6218    -1206.011   -211.49952    2071.1812   -2309.3294    74.542834    44657.537 -0.067234084   -17.036218 -0.041707817     3421.781    1501.4793    903.19021    862.59735    28.378047    18.846312    14.336858 0.0067944998 0.0067899646 0.0071161709 0.0070947319    289.35468     41.49527    35.978931    34.423473    90.016431    119.66323    90.107069    18.846147    14.337465    28.382316    18.847661    14.343101 
  143000    291.69425    1.2509986    2018.7191   -1213.1413   -211.49952    2071.4418   -2309.2003   -554.97087    44657.537 -0.067234084   -17.036218 -0.041707817    3469.6189    1543.3302    935.56028     838.7427    28.381672    18.846794    14.338207 0.0074068834 0.0074038764 0.0079392315 0.0078980588    291.69425     41.49527    35.978931    34.423473    90.016431    119.66323    90.107069    18.847371    14.338579    28.383311    18.850484    14.344629 
  144000     297.8201    1.2509986    2070.3827    -1218.639   -211.49952    2068.4595    -2310.185   -596.58231    44657.537 -0.067234084   -17.036218 -0.041707817    3530.7472    1593.1747    903.78901     881.1124     28.37842    18.846201    14.336518 0.0070293933 0.0070262372 0.0080538037 0.0080475592     297.8201     41.49527    35.978931    34.423473    90.016431    119.66323    90.107069    18.847238    14.336548    28.381029    18.847446    14.340911 
  145000    293.37425    1.2509986    1978.2477   -1214.6628   -211.49952    2070.4587   -2309.7973   -293.48651    44657.537 -0.067234084   -17.036218 -0.041707817    3432.2491    1523.4737    930.50631    831.21798    28.380898    18.844906    14.337276 0.0067023133 0.0066986725 0.0071507768 0.0071470109    293.37425     41.49527    35.978931    34.423473    90.016431    119.66323    90.107069    18.845421    14.337189    28.381361    18.848351    14.339371 
  146000    297.72061    1.2509986    2047.1605   -1212.6491   -211.49952    2073.6632   -2309.1739   -557.17405    44657.537 -0.067234084   -17.036218 -0.041707817    3495.3204    1534.6711    932.67831    877.14504    28.380138     18.84549    14.337658 0.0071693402 0.0071681201 0.0074378798 0.0074343858    297.72061     41.49527    35.978931    34.423473    90.016431    119.66323    90.107069    18.845236    14.337356    28.378346    18.847627    14.339308 
  147000    299.14192    1.2509986    1912.6512   -1204.2194   -211.49952    2072.4439   -2309.4685    793.29568    44657.537 -0.067234084   -17.036218 -0.041707817    3353.8952    1499.8513    888.88848    821.75208    28.380745    18.847186    14.338517 0.0068818176 0.0068747833 0.0072371817 0.0071964735    299.14192     41.49527    35.978931    34.423473    90.016431    119.66323    90.107069    18.847152    14.339062    28.385665    18.848844    14.341474 
  148000    293.30872    1.2509986    2082.6645    -1231.222   -211.49952    2077.2018   -2309.2064   -538.36894    44657.537 -0.067234084   -17.036218 -0.041707817    3545.8912    1562.0061    933.34358    894.69508    28.382976     18.84593    14.338747 0.0069616547 0.0069594175 0.0078437852 0.0078096914    293.30872     41.49527    35.978931    34.423473    90.016431    119.66323    90.107069    18.844835    14.337734    28.380036     18.84427    14.336267 
  149000    294.86986    1.2509986    2070.0349   -1208.0288   -211.49952    2072.0595   -2309.2246   -87.648498    44657.537 -0.067234084   -17.036218 -0.041707817    3515.2286    1543.8631    932.26252    878.67513    28.379004    18.848959    14.336293   0.00683711 0.0068325147 0.0073130227 0.0073074569    294.86986     41.49527    35.978931    34.423473    90.016431    119.66323    90.107069    18.848132     14.33685    28.381568    18.848729    14.338439 
  150000    301.70133    1.2509986    1991.9511    -1197.259   -211.49952    2072.9048    -2309.571    98.702589    44657.537 -0.067234084   -17.036218 -0.041707817    3425.8763    1554.6328    875.00102    847.42178    28.381236    18.846769    14.338997 0.0074665922 0.0074664491 0.0077046134 0.0076914951    301.70133     41.49527    35.978931    34.423473    90.016431    119.66323    90.107069    18.846029    14.337974     28.38175    18.846607    14.338052 
  151000    301.03823    1.2509986    1921.0308   -1231.5677   -211.49952    2075.0718    -2309.249   -273.80988    44657.537 -0.067234084   -17.036218 -0.041707817    3386.7758    1500.6685    878.49976    858.52487    28.380416     18.84671    14.338105 0.0070551504 0.0070549557 0.0084222918 0.0084126721    301.03823     41.49527    35.978931    34.423473    90.016431    119.66323    90.107069    18.846417    14.337493    28.380166    18.846414     14.33806 
  152000      299.027    1.2509986    2023.5831   -1202.4718   -211.49952    2073.6588   -2309.3915    1396.5965    44657.537 -0.067234084   -17.036218 -0.041707817    3461.7876    1542.7687    899.78594    868.06871    28.379046    18.847702     14.33677 0.0072945178  0.007287399 0.0076202501 0.0076128151      299.027     41.49527    35.978931    34.423473    90.016431    119.66323    90.107069    18.847737    14.336584    28.381585    18.847656    14.338422 
  153000    298.57384    1.2509986    1942.2464   -1230.5452   -211.49952    2073.3616   -2309.2565   -815.60888    44657.537 -0.067234084   -17.036218 -0.041707817    3408.6864    1520.9991    885.26938    851.05519    28.379216    18.847123    14.337552   0.00675016 0.0067453894 0.0061442014 0.0061161747    298.57384     41.49527    35.978931    34.423473    90.016431    119.66323    90.107069    18.848275    14.337261    28.376373    18.850876     14.33584 
  154000    300.21563    1.2509986    1957.5414   -1219.7889   -211.49952    2074.2881    -2308.898   -1587.2332    44657.537 -0.067234084   -17.036218 -0.041707817    3411.9402    1525.2419    913.64426    826.23825    28.383145    18.844344    14.338461 0.0070859624 0.0070829957 0.0069626001 0.0069444579    300.21563     41.49527    35.978931    34.423473    90.016431    119.66323    90.107069    18.844756    14.338238    28.379721    18.845095    14.337975 
  155000    296.15191    1.2509986    2049.4004     -1220.58   -211.49952    2070.3555   -2309.3888   -781.84023    44657.537 -0.067234084   -17.036218 -0.041707817    3509.0137    1569.1269     903.5295     880.6826    28.379744    18.846853    14.337407 0.0067587791 0.0067570254 0.0070518784 0.0070389528    296.15191     41.49527    35.978931    34.423473    90.016431    119.66323    90.107069    18.846567    14.338608    28.376998    18.847066    14.341248 
  156000    299.05421    1.2509986    2040.3235   -1231.0309   -211.49952    2067.3222   -2309.6809   -2485.6999    44657.537 -0.067234084   -17.036218 -0.041707817    3513.7131    1571.9646    911.39989    880.11575    28.378794      18.8449    14.337148 0.0069254937 0.0069235392 0.0067126991 0.0066921505    299.05421     41.49527    35.978931    34.423473    90.016431    119.66323    90.107069    18.844954     14.33754    28.381241    18.844914    14.340593 
  157000    300.15058    1.2509986    1970.8798   -1213.4666   -211.49952    2069.9736   -2309.6019   -327.78438    44657.537 -0.067234084   -17.036218 -0.041707817    3423.9748    1483.5367    918.67451    874.23778    28.378675    18.845015    14.337101 0.0068206306 0.0068182591 0.0071176574 0.0071145133    300.15058     41.49527    35.978931    34.423473    90.016431    119.66323    90.107069      18.8447    14.337731    28.379667     18.84743     14.34043 
  158000    298.45706    1.2509986    1981.4514   -1230.1477   -211.49952    2075.8099   -2308.9907    -1244.946    44657.537 -0.067234084   -17.036218 -0.041707817    3444.7799    1529.6997    897.74369    862.59048    28.377633     18.84546       14.337 0.0069824201 0.0069813881 0.0075599682 0.0075493798    298.45706     41.49527    35.978931    34.423473    90.016431    119.66323    90.107069    18.846639    14.337539    28.378593    18.846158    14.340866 
  159000    300.95326    1.2509986    1935.2035   -1201.7969   -211.49952    2069.6004    -2309.692    1057.2613    44657.537 -0.067234084   -17.036218 -0.041707817     3377.092    1462.8394    897.40373    862.75499    28.379444    18.846355    14.337748 0.0069119918 0.0069119326 0.0073597243 0.0073492444    300.95326     41.49527    35.978931    34.423473    90.016431    119.66323    90.107069    18.846164    14.337925     28.37663     18.84869    14.338292 
  160000    295.87784    1.2509986    1950.3046   -1219.5521   -211.49952    2071.7353   -2309.3287   -1798.6745    44657.537 -0.067234084   -17.036218 -0.041707817    3407.4502    1526.0777     885.8668    849.59446    28.380814    18.845606    14.337379 0.0068896939 0.0068889374 0.0073903405 0.0073739996    295.87784     41.49527    35.978931    34.423473    90.016431    119.66323    90.107069    18.845543    14.337244    28.376975    18.847327    14.337024 
  161000    301.61205    1.2509986    1993.3176   -1221.0273   -211.49952    2068.6394   -2309.4889   -1498.0729    44657.537 -0.067234084   -17.036218 -0.041707817    3455.1944    1560.2704    883.65444    857.15065    28.379621    18.846653    14.337394 0.0069548065 0.0069512573 0.0070204853 0.0069953503    301.61205     41.49527    35.978931    34.423473    90.016431    119.66323    90.107069    18.847892    14.336958    28.376975    18.850248    14.335522 
  162000    302.73244    1.2509986     2013.376   -1205.4254   -211.49952     2069.547     -2309.73    1278.5375    44657.537 -0.067234084   -17.036218 -0.041707817    3458.9843    1504.0515    940.19178    864.22655    28.378684    18.845969    14.336472 0.0069073785 0.0069057702 0.0073054426 0.0072285584    302.73244     41.49527    35.978931    34.423473    90.016431    119.66323    90.107069    18.846986    14.337537    28.388035    18.847204    14.340955 
  163000    299.86461    1.2509986    1973.3763   -1223.7323   -211.49952    2070.7356   -2309.8775   -703.28095    44657.537 -0.067234084   -17.036218 -0.041707817    3436.2505    1507.9973    919.25307    862.72755    28.379392    18.846955    14.337434  0.007019671 0.0070190065 0.0076484525 0.0076419307    299.86461     41.49527    35.978931    34.423473    90.016431    119.66323    90.107069    18.845441    14.337486    28.380378    18.847371    14.337863 
  164000    299.56347    1.2509986    1972.1369    -1203.008   -211.49952    2074.0307   -2309.3482    1195.3629    44657.537 -0.067234084   -17.036218 -0.041707817    3410.4624     1511.375    890.24284    857.12776    28.378172    18.845252    14.336703  0.007418297 0.0074094051 0.0080352545 0.0080249098    299.56347     41.49527    35.978931    34.423473    90.016431    119.66323    90.107069    18.846528    14.337058    28.378965    18.848153    14.336596 
  165000    297.71091    1.2509986    2016.1199   -1220.1878   -211.49952    2072.5615   -2309.3311   -907.79129    44657.537 -0.067234084   -17.036218 -0.041707817    3473.0773    1542.7674    894.82033    878.24331    28.380189     18.84585    14.337932 0.0070615085 0.0070609653 0.0072437523 0.0072229963    297.71091     41.49527    35.978931    34.423473    90.016431    119.66323    90.107069    18.846401    14.338195    28.380943    18.847654     14.34376 
[...]
  961000    297.69466    1.2509986    1958.7483   -1247.3841   -211.49952    2073.5392   -2309.4726    -950.8812    44657.537 -0.067234084   -17.036218 -0.041707817    3442.0659    1526.9537    941.14187    831.13542    28.379021     18.84607    14.337259 0.0067723384 0.0067681322  0.007047827 0.0069880904    297.69466     41.49527    35.978931    34.423473    90.016431    119.66323    90.107069    18.844821     14.33777    28.375172    18.845324    14.344825 
  962000    299.07079    1.2509986    1886.9042   -1200.3306   -211.49952    2075.3231   -2309.1736    2592.7514    44657.537 -0.067234084   -17.036218 -0.041707817    3321.0853    1440.6831    890.03469     841.9844    28.379596    18.847088    14.338221 0.0070190854 0.0070152217 0.0079245445 0.0078777738    299.07079     41.49527    35.978931    34.423473    90.016431    119.66323    90.107069    18.846943    14.339193    28.376823    18.845533    14.344852 
  963000    296.83807    1.2509986    1979.7626   -1214.9241   -211.49952    2077.9447   -2309.4665    788.59694    44657.537 -0.067234084   -17.036218 -0.041707817    3426.2086    1476.9288    931.89292    864.06038    28.380678    18.844903    14.338156 0.0066427735 0.0066412177 0.0067906554 0.0067656387    296.83807     41.49527    35.978931    34.423473    90.016431    119.66323    90.107069    18.846336       14.338    28.384485    18.849372    14.338865 
  964000    297.67557    1.2509986    2128.1927   -1229.7387   -211.49952    2074.3668   -2309.3813   -1717.6299    44657.537 -0.067234084   -17.036218 -0.041707817     3592.946    1582.0648    941.65311    909.85669    28.380713    18.845689    14.337412 0.0071454165 0.0071437852 0.0076996679  0.007695388    297.67557     41.49527    35.978931    34.423473    90.016431    119.66323    90.107069    18.844976    14.337993    28.379488    18.847857    14.341352 
  965000    299.33113    1.2509986    1943.8765   -1213.1426   -211.49952    2069.4683    -2309.809   -588.16101    44657.537 -0.067234084   -17.036218 -0.041707817    3397.3598    1487.6937    890.29379    871.29527    28.380735    18.845273    14.338511 0.0069361971 0.0069315671 0.0072618119 0.0071906345    299.33113     41.49527    35.978931    34.423473    90.016431    119.66323    90.107069    18.844823    14.338937    28.371482    18.850167    14.341796 
  966000    296.05954    1.2509986    1972.7781   -1252.5178   -211.49952     2073.619   -2309.6832    -1087.292    44657.537 -0.067234084   -17.036218 -0.041707817      3461.36    1584.2261    903.86743    826.42384    28.379307    18.846116    14.337663 0.0069296575 0.0069278831 0.0072688105 0.0072517963    296.05954     41.49527    35.978931    34.423473    90.016431    119.66323    90.107069    18.847387    14.337998    28.377837    18.847851    14.343203 
  967000     300.1899    1.2509986    1975.5809   -1202.5154   -211.49952    2071.9868   -2309.2239   -546.29281    44657.537 -0.067234084   -17.036218 -0.041707817    3415.3334    1508.7989        891.2    867.04341    28.380949    18.845748    14.338505 0.0070995179 0.0070975968 0.0081912295 0.0081813137     300.1899     41.49527    35.978931    34.423473    90.016431    119.66323    90.107069    18.845656    14.338934    28.376705    18.847683    14.339498 
  968000    294.61233    1.2509986    1975.3978   -1219.7734   -211.49952    2071.6732   -2309.9566   -1237.8603    44657.537 -0.067234084   -17.036218 -0.041707817    3433.4546    1590.9319    880.88597    820.20734    28.380391    18.848424    14.338115 0.0070094004 0.0070033431 0.0076722347 0.0076544162    294.61233     41.49527    35.978931    34.423473    90.016431    119.66323    90.107069    18.848595    14.337848    28.379756    18.849628    14.335467 
  969000    302.99747    1.2509986    2026.4615   -1219.1063   -211.49952    2075.4539   -2309.0885   -1140.2437    44657.537 -0.067234084   -17.036218 -0.041707817    3479.2024    1540.6325    926.08294    863.39078    28.379524    18.845473    14.337608 0.0070106196 0.0070100754  0.007610745 0.0076063769    302.99747     41.49527    35.978931    34.423473    90.016431    119.66323    90.107069    18.846337     14.33769    28.378674    18.847248    14.340326 
  970000    299.87297    1.2509986    1978.0022   -1219.8201   -211.49952    2068.8541   -2309.3509     812.0624    44657.537 -0.067234084   -17.036218 -0.041707817    3438.3191    1535.1627    881.76394    870.09243    28.380633     18.84604    14.337413 0.0066123607 0.0066097062 0.0066009751 0.0065788961    299.87297     41.49527    35.978931    34.423473    90.016431    119.66323    90.107069     18.84586    14.336419    28.379256    18.844789    14.337602 
  971000    302.95428    1.2509986    2050.4512   -1208.9914   -211.49952    2070.7379    -2309.299    371.47822    44657.537 -0.067234084   -17.036218 -0.041707817    3498.0037    1552.0863     928.4745    867.01242    28.380075    18.845777    14.337166 0.0070067874 0.0070031205 0.0069053452 0.0068513374    302.95428     41.49527    35.978931    34.423473    90.016431    119.66323    90.107069    18.845102     14.33616    28.381431    18.844614    14.334058 
  972000    297.40537    1.2509986    2006.4251   -1232.4404   -211.49952    2071.5889   -2309.6381   -943.07001    44657.537 -0.067234084   -17.036218 -0.041707817    3476.9147    1563.3944    903.86002    857.91025     28.38069    18.846774    14.337095 0.0070329299 0.0070297528 0.0073273984 0.0072910093    297.40537     41.49527    35.978931    34.423473    90.016431    119.66323    90.107069    18.847022    14.336249    28.383177    18.847878    14.334949 
  973000    301.32006    1.2509986    1990.7036   -1221.8166   -211.49952    2073.1845   -2309.4852   -831.27154    44657.537 -0.067234084   -17.036218 -0.041707817    3448.8209    1528.2538    917.08653    853.56446    28.376969    18.845919    14.335981 0.0067857437 0.0067841444 0.0066735721 0.0066666313    301.32006     41.49527    35.978931    34.423473    90.016431    119.66323    90.107069    18.846254    14.337184    28.377155    18.850049     14.33932 
  974000    295.00138    1.2509986    1878.1236    -1225.931   -211.49952     2072.604    -2309.412   -528.55734    44657.537 -0.067234084   -17.036218 -0.041707817    3340.8626     1501.625    881.61702    813.06837    28.378745    18.847959    14.338204 0.0070212714 0.0070110923 0.0072601717 0.0072438276    295.00138     41.49527    35.978931    34.423473    90.016431    119.66323    90.107069    18.849055    14.337736    28.376973    18.851974    14.340587 
  975000    297.46032    1.2509986    2009.6309   -1219.7303   -211.49952    2071.1453   -2309.1995    -1543.617    44657.537 -0.067234084   -17.036218 -0.041707817    3467.4155    1538.0989    890.88061    880.17878    28.382072    18.845866    14.338509 0.0069450914   0.00694488 0.0075452598 0.0075184875    297.46032     41.49527    35.978931    34.423473    90.016431    119.66323    90.107069    18.846607    14.337895    28.374548    18.849805    14.338609 
  976000     297.8856    1.2509986    2014.1094   -1217.1913   -211.49952    2067.9647   -2309.9523   -86.965986    44657.537 -0.067234084   -17.036218 -0.041707817    3473.2883    1542.8363    914.98345    866.08835    28.380353    18.844127    14.338127 0.0071360075 0.0071337269 0.0082044958 0.0081907687     297.8856     41.49527    35.978931    34.423473    90.016431    119.66323    90.107069    18.844743    14.338008     28.38175    18.847087    14.337357 
  977000    295.09591    1.2509986    1975.9638   -1216.5373   -211.49952     2070.348   -2309.5988    -324.5446    44657.537 -0.067234084   -17.036218 -0.041707817    3431.7518    1532.1528    924.94997    831.31082    28.383668    18.845094    14.338996 0.0069592133 0.0069546854 0.0068963933 0.0068093924    295.09591     41.49527    35.978931    34.423473    90.016431    119.66323    90.107069    18.845631    14.339521    28.383477    18.846683    14.347775 
  978000    296.86341    1.2509986    1998.7788   -1217.7197   -211.49952    2068.7423   -2309.7296   -621.78383    44657.537 -0.067234084   -17.036218 -0.041707817    3457.4857    1547.1776    929.26746    833.46155    28.379331    18.845277    14.337503 0.0072500539 0.0072480258 0.0072147128  0.007175755    296.86341     41.49527    35.978931    34.423473    90.016431    119.66323    90.107069    18.845158    14.338171    28.383461    18.845001    14.342399 
  979000    302.19978    1.2509986    2050.2804   -1218.4326   -211.49952    2072.9342   -2309.4435   -1968.8846    44657.537 -0.067234084   -17.036218 -0.041707817    3505.2223    1574.6128    904.47772    876.43701    28.379878    18.846635    14.337448 0.0066852628 0.0066804694 0.0066313041 0.0066287686    302.19978     41.49527    35.978931    34.423473    90.016431    119.66323    90.107069    18.847407    14.337162    28.379618    18.847685    14.338761 
  980000    298.98653    1.2509986    1977.1978   -1220.5912   -211.49952    2072.0568   -2309.5641   -132.85605    44657.537 -0.067234084   -17.036218 -0.041707817    3435.2963    1497.7069    935.88888     849.5244    28.379737    18.846399    14.337721 0.0068454567 0.0068398599 0.0074668498 0.0074479356    298.98653     41.49527    35.978931    34.423473    90.016431    119.66323    90.107069    18.845435     14.33978    28.380579     18.84765     14.34364 
  981000    300.26793    1.2509986    1935.1414   -1213.5849   -211.49952    2074.4673   -2309.0579   -1371.7629    44657.537 -0.067234084   -17.036218 -0.041707817     3383.317    1485.7451    914.87076    838.69744    28.381867     18.84488     14.33813 0.0066561219 0.0066508228 0.0070965038 0.0070669265    300.26793     41.49527    35.978931    34.423473    90.016431    119.66323    90.107069    18.845785    14.337088    28.382623    18.850398    14.335366 
  982000    295.68151    1.2509986    2017.1526   -1192.4751   -211.49952    2079.4477   -2309.2693    2215.0875    44657.537 -0.067234084   -17.036218 -0.041707817    3439.4494    1504.8293    919.22994    861.18311    28.378699    18.846711    14.337041 0.0070552128  0.007054046 0.0075222829 0.0075134367    295.68151     41.49527    35.978931    34.423473    90.016431    119.66323    90.107069    18.845361    14.338217    28.378985    18.846461    14.341054 
  983000    292.14132    1.2509986    1907.3398   -1226.3409   -211.49952    2067.7351   -2309.9709   -580.33181    44657.537 -0.067234084   -17.036218 -0.041707817    3375.9165     1479.705    915.19274    832.03519     28.38009     18.84617    14.338245 0.0070046271 0.0070030879 0.0072458383  0.007224212    292.14132     41.49527    35.978931    34.423473    90.016431    119.66323    90.107069    18.846012    14.338649    28.375142     18.84756    14.339818 
  984000    301.35138    1.2509986    1959.6351   -1218.4055   -211.49952    2072.8254   -2309.1578    494.67719    44657.537 -0.067234084   -17.036218 -0.041707817    3414.3731     1511.776    908.33258     846.6599    28.380574    18.846782    14.337837 0.0069519595 0.0069501432 0.0067077502 0.0066834869    301.35138     41.49527    35.978931    34.423473    90.016431    119.66323    90.107069     18.84485    14.337924     28.37656    18.845328    14.338332 
  985000    292.59874    1.2509986     1997.879   -1218.6733   -211.49952    2071.9064   -2309.6075    408.04114    44657.537 -0.067234084   -17.036218 -0.041707817    3454.2533    1519.8336    911.88417    869.31332    28.379239    18.844747    14.337388  0.006922512 0.0069190104 0.0075670597 0.0075667872    292.59874     41.49527    35.978931    34.423473    90.016431    119.66323    90.107069    18.845248    14.337633    28.379593    18.848495    14.339587 
  986000    298.68285    1.2509986    1999.5814   -1228.0959   -211.49952    2075.1255    -2309.263   -623.98839    44657.537 -0.067234084   -17.036218 -0.041707817    3461.8147    1535.5825    883.57117    889.35852    28.380137    18.844917    14.337453 0.0067002384 0.0066997512 0.0067768783 0.0067742367    298.68285     41.49527    35.978931    34.423473    90.016431    119.66323    90.107069    18.845951    14.337916    28.378128    18.849368    14.340328 
  987000    295.33961    1.2509986    1968.1081   -1226.7635   -211.49952    2072.1872   -2309.7877    -1399.027    44657.537 -0.067234084   -17.036218 -0.041707817     3432.472    1576.0423    876.42821    836.58528    28.380445     18.84695    14.337606 0.0070520701 0.0070513968 0.0076766146 0.0076687566    295.33961     41.49527    35.978931    34.423473    90.016431    119.66323    90.107069    18.846783    14.337278    28.380342    18.848913    14.336949 
  988000    297.99432    1.2509986    2012.0447   -1220.9181   -211.49952    2068.9436    -2310.119   -679.34038    44657.537 -0.067234084   -17.036218 -0.041707817    3474.1382    1568.0629    900.28792    858.54298    28.382428    18.845855    14.338217 0.0072363968 0.0072326954 0.0075027563 0.0074820716    297.99432     41.49527    35.978931    34.423473    90.016431    119.66323    90.107069    18.846788    14.338133    28.382475    18.847288    14.336607 
  989000    298.92755    1.2509986    2042.4292   -1201.6019   -211.49952    2073.2216   -2309.4766    1828.3011    44657.537 -0.067234084   -17.036218 -0.041707817     3480.286    1538.1954    931.68342    861.45401    28.379615    18.843542    14.337844 0.0068848749 0.0068836973 0.0067732314 0.0067429223    298.92755     41.49527    35.978931    34.423473    90.016431    119.66323    90.107069    18.845755    14.338533    28.383343     18.84617    14.342446 
  990000    286.33918    1.2509986    2029.4386   -1234.4784   -211.49952    2072.6695   -2309.5691   -1300.8592    44657.537 -0.067234084   -17.036218 -0.041707817    3500.8165    1588.2263      904.076    857.70335    28.382148    18.846123    14.337977 0.0070139302 0.0070126378 0.0081062678 0.0080611852    286.33918     41.49527    35.978931    34.423473    90.016431    119.66323    90.107069    18.846951    14.337365     28.37565    18.846494    14.334793 
  991000    297.80926    1.2509986    2010.3957   -1236.1522   -211.49952    2067.8333   -2309.7474   -974.83166    44657.537 -0.067234084   -17.036218 -0.041707817    3488.4619    1549.7302    945.63518    848.68053    28.380641    18.845222    14.337867 0.0068762476 0.0068706949 0.0069754651 0.0069547085    297.80926     41.49527    35.978931    34.423473    90.016431    119.66323    90.107069    18.847244    14.339175    28.382397    18.847484    14.342855 
  992000    301.00287    1.2509986    1901.0567   -1213.2503   -211.49952     2071.192   -2309.6324     641.5684    44657.537 -0.067234084   -17.036218 -0.041707817    3352.7474    1491.6169    886.88183    829.62728    28.379888    18.846476    14.337484 0.0067643958 0.0067615033 0.0076091088 0.0075882732    301.00287     41.49527    35.978931    34.423473    90.016431    119.66323    90.107069    18.847737    14.337061    28.383658    18.850285     14.33809 
  993000    290.54363    1.2509986    1988.2894    -1239.864   -211.49952    2072.2429   -2309.8103   -1035.5602    44657.537 -0.067234084   -17.036218 -0.041707817    3465.7209    1545.0003    905.91812    864.06087    28.381204    18.845945    14.338254 0.0071958839 0.0071924289 0.0071449753 0.0070947449    290.54363     41.49527    35.978931    34.423473    90.016431    119.66323    90.107069    18.845541    14.338199    28.376525    18.843031    14.341931 
  994000    292.39253    1.2509986    2072.2398   -1208.7576   -211.49952    2072.7363   -2309.1712    1077.8172    44657.537 -0.067234084   -17.036218 -0.041707817    3517.4322    1577.4239    944.12766    849.95465    28.379614    18.846217    14.337721 0.0069364573 0.0069336693 0.0072837741 0.0072646247    292.39253     41.49527    35.978931    34.423473    90.016431    119.66323    90.107069    18.845535    14.338837    28.380161    18.844849    14.338435 
  995000    299.23324    1.2509986    2024.5808   -1226.0216   -211.49952    2073.6052   -2309.3325   -1083.5579    44657.537 -0.067234084   -17.036218 -0.041707817    3486.3298    1521.0545    934.09423    872.08082    28.382058    18.844916     14.33794 0.0069931653 0.0069872782 0.0076477467 0.0076211094    299.23324     41.49527    35.978931    34.423473    90.016431    119.66323    90.107069    18.844426    14.338095    28.377742    18.844183     14.33976 
  996000    303.52066    1.2509986    2006.2815    -1221.834   -211.49952    2073.3491   -2309.4333   -158.58931    44657.537 -0.067234084   -17.036218 -0.041707817    3464.1997    1550.0145    928.54386    841.53329    28.378489    18.847298     14.33748 0.0072555558 0.0072488996 0.0076753236 0.0076548571    303.52066     41.49527    35.978931    34.423473    90.016431    119.66323    90.107069     18.84692    14.337849    28.377075    18.846917    14.342787 
  997000    294.35601    1.2509986    1962.7027   -1197.5741   -211.49952    2072.5142   -2309.7613    244.26134    44657.537 -0.067234084   -17.036218 -0.041707817    3397.5239    1526.9707    880.04424    846.75238    28.381916     18.84532     14.33777 0.0068851589 0.0068841325 0.0067298668 0.0067048362    294.35601     41.49527    35.978931    34.423473    90.016431    119.66323    90.107069    18.846498    14.336859    28.377586    18.849368    14.335053 
  998000    300.16443    1.2509986    2030.5847   -1209.4397   -211.49952    2071.6273   -2309.6192   -33.501308    44657.537 -0.067234084   -17.036218 -0.041707817    3478.0163    1527.4157    918.07648     873.3092    28.378288    18.846373    14.337446  0.006602915 0.0066017606 0.0068450584 0.0068161891    300.16443     41.49527    35.978931    34.423473    90.016431    119.66323    90.107069    18.846017    14.337188    28.380762    18.844459    14.337054 
  999000    303.01859    1.2509986    2026.4651   -1213.4117   -211.49952    2075.6417   -2309.2148   -960.12008    44657.537 -0.067234084   -17.036218 -0.041707817    3473.4499    1536.1203      894.406     893.4291    28.382988    18.847704    14.338707 0.0069618578 0.0069518064  0.007311825 0.0072637888    303.01859     41.49527    35.978931    34.423473    90.016431    119.66323    90.107069     18.84633    14.339381    28.379973    18.843836    14.344228 
 1000000    296.61222    1.2509986    2053.7589    -1215.812   -211.49952    2072.7702   -2309.4386   -444.82898    44657.537 -0.067234084   -17.036218 -0.041707817    3506.2393    1580.7532    922.55221    851.33985     28.38068    18.845489    14.337688  0.007004365 0.0070019311 0.0074551649  0.007446759    296.61222     41.49527    35.978931    34.423473    90.016431    119.66323    90.107069    18.847031    14.338106    28.381294    18.848736    14.341943 
Loop time of 3081.47 on 60 procs for 1000000 steps with 4560 atoms

Pair  time (%) = 545.292 (17.6958)
Bond  time (%) = 59.2297 (1.92212)
Kspce time (%) = 1614.05 (52.3791)
Neigh time (%) = 7.43871 (0.241401)
Comm  time (%) = 588.301 (19.0915)
Outpt time (%) = 3.12506 (0.101415)
Other time (%) = 264.038 (8.56855)

Nlocal:    76 ave 84 max 68 min
Histogram: 1 3 6 15 5 11 6 7 3 3
Nghost:    3994.97 ave 4077 max 3904 min
Histogram: 8 8 3 1 0 8 9 10 10 3
Neighs:    28100.5 ave 31595 max 25335 min
Histogram: 4 3 10 11 11 4 7 7 1 2

Total # of neighbors = 1686030
Ave neighs/atom = 369.743
Ave special neighs/atom = 10.6316
Neighbor list builds = 3244
Dangerous builds = 0
System init for write_data ...
PPPM initialization ...
  G vector (1/distance) = 0.246499
  grid = 16 16 20
  stencil order = 5
  estimated absolute RMS force accuracy = 0.00242397
  estimated relative force accuracy = 7.2997e-06
  using double precision FFTs
  3d grid and FFT values/proc = 1053 112
