LAMMPS data file via write_data, version 15 May 2015, timestep = 1000000

4560 atoms
7 atom types
5040 bonds
3 bond types
7200 angles
2 angle types
10560 dihedrals
3 dihedral types
2400 impropers
1 improper types

-1.0763502675555259e-01 4.1387635026745990e+01 xlo xhi
-4.0433884491974936e-02 3.5938433884472119e+01 ylo yhi
-3.5711112484589691e-01 2.9555111124838550e+01 zlo zhi
-6.7234083837551181e-02 -1.7036217651000683e+01 -4.1707816797290791e-02 xy xz yz

Masses

1 12.0107
2 1.008
3 12.0107
4 12.0107
5 12.0107
6 12.0107
7 12.0107

Pair Coeffs # lj/cut/coul/long

1 0.07 3.55
2 0.03 2.42
3 0.07 3.55
4 0.07 3.55
5 0.07 3.55
6 0 0
7 0.07 3.55

Bond Coeffs # harmonic

1 469 1.4
2 367 1.08
3 469 0.7

Angle Coeffs # harmonic

1 35 120
2 63 120

Dihedral Coeffs # opls

1 0 7.25 0 0
2 0 7.25 0 0
3 0 7.25 0 0

Improper Coeffs # cvff

1 2.5 -1 2

Atoms # full

219 13 3 0.0000000000000000e+00 -2.9284101014474562e-01 3.1589017752677466e+00 3.3686944071884701e+00 1 0 0
220 13 4 -1.1500000000000000e-01 2.2710739227215337e-01 4.1314721608156164e+00 2.4690785061842662e+00 1 0 0
224 13 2 1.1500000000000000e-01 5.4946819162239313e-01 5.1384553309591263e+00 2.9196321961083904e+00 1 0 0
580 33 4 -1.1500000000000000e-01 2.4860258352794307e+00 6.7537556348658940e+00 4.3921072938698718e+00 1 0 0
228 13 3 0.0000000000000000e+00 -7.4683304223835223e-01 1.9188647931510381e+00 2.8768054879199370e+00 1 0 0
989 53 4 -1.1500000000000000e-01 -1.5403534272796349e+00 7.0471564763478858e+00 3.8717895507495834e+00 1 0 0
600 34 2 1.1500000000000000e-01 -1.7806025593998420e-01 6.0129105883766432e+00 7.4259900602078739e+00 1 0 0
596 34 5 -1.1500000000000000e-01 -9.1172655200725927e-01 6.5181406140578346e+00 9.3255919314905391e+00 1 0 0
226 13 1 -1.1500000000000000e-01 -1.6118613140894689e-02 2.5681187272272314e+00 5.8831511508939338e-01 1 0 0
988 53 3 0.0000000000000000e+00 -8.8832969949752427e-01 7.8607954189730194e+00 2.8207136932526495e+00 1 0 0
733 13 6 0.0000000000000000e+00 -6.6196728682167771e-01 2.6087667244593522e+00 3.0589478031625799e+00 1 0 0
601 34 2 1.1500000000000000e-01 -1.1664259536657680e+00 7.5068025472399169e+00 8.9931376057126613e+00 1 0 0
230 13 1 -1.1500000000000000e-01 5.0085490563371560e-01 3.8027254798758947e+00 1.1050133673259488e+00 1 0 0
217 13 7 -1.1500000000000000e-01 -9.1432729568769311e-01 2.6320474155981084e+00 5.5762534073997188e+00 1 0 0
218 13 5 -1.1500000000000000e-01 -2.5042617494764219e-01 3.5112789830193387e+00 4.7438307859793616e+00 1 0 0
221 13 1 -1.1500000000000000e-01 -1.4351770246416888e+00 1.4335851230913916e+00 5.1492452568391265e+00 1 0 0
222 13 2 1.1500000000000000e-01 -1.0244249180507925e+00 2.9129032084656217e+00 6.5937465210176347e+00 1 0 0
223 13 2 1.1500000000000000e-01 8.7936998167083225e-02 4.4682838836668255e+00 5.1345482878872950e+00 1 0 0
248 14 1 -1.1500000000000000e-01 -3.9511522829919441e+00 3.3138084045998153e+00 8.4464081381961336e+00 1 0 0
4380 233 4 -1.1500000000000000e-01 2.5066174440880018e+00 8.7131845789238549e-01 4.1574972392592935e+00 1 1 0
4396 234 5 -1.1500000000000000e-01 -8.9327958648858896e-01 1.3526330497903735e-01 8.7782088735317316e+00 1 1 0
603 34 2 1.1500000000000000e-01 6.9739157913094640e-01 3.7670395346302183e+00 8.1374979802668168e+00 1 0 0
591 33 2 1.1500000000000000e-01 2.8324698025046349e+00 4.4399007689886165e+00 6.9707772856230124e+00 1 0 0
993 53 2 1.1500000000000000e-01 -2.0975467850408349e+00 6.1459943174112608e+00 3.6900416003669942e+00 1 0 0
579 33 3 0.0000000000000000e+00 3.1643944639220538e+00 5.9818782745817840e+00 3.4377567901802002e+00 1 0 0
252 14 2 1.1500000000000000e-01 -3.5379892699647346e+00 3.9827378814191370e+00 7.7175929786145012e+00 1 0 0
581 33 1 -1.1500000000000000e-01 4.3933498489938581e+00 4.4319249893737434e+00 1.4884598157115685e+00 1 0 0
1493 53 6 0.0000000000000000e+00 -6.3227882778669575e-01 8.4613309361546989e+00 3.0762764378724263e+00 1 0 0
577 33 7 -1.1500000000000000e-01 3.8506658716957163e+00 5.6864910153675448e+00 1.1701696429373716e+00 1 0 0
588 33 3 0.0000000000000000e+00 3.6899358761910861e+00 4.7280367263193392e+00 3.7462978852391249e+00 1 0 0
589 33 4 -1.1500000000000000e-01 4.3526053304266217e+00 4.0015382059580116e+00 2.7824381170792747e+00 1 0 0
593 33 2 1.1500000000000000e-01 4.6946856971275599e+00 3.0040416900618703e+00 3.1059352326786192e+00 1 0 0
753 33 6 0.0000000000000000e+00 3.5191037592329497e+00 5.3869540868560497e+00 3.5442771100693262e+00 1 0 0
4383 233 2 1.1500000000000000e-01 2.5833425015474494e+00 1.3756170253249647e+00 1.5408678759555592e+00 1 1 0
245 14 4 -1.1500000000000000e-01 -4.9979164837800898e+00 1.2310413878958795e+00 9.0159457394536933e+00 1 0 0
578 33 5 -1.1500000000000000e-01 3.2378347067080591e+00 6.4999984182934298e+00 2.1625750343753789e+00 1 0 0
4378 233 5 -1.1500000000000000e-01 3.2826926230087121e+00 4.9873246230321971e-01 1.8269479410704861e+00 1 1 0
4384 233 2 1.1500000000000000e-01 1.9567592788194790e+00 1.7274967676514139e+00 3.8083771616352768e+00 1 1 0
586 33 1 -1.1500000000000000e-01 2.9845459291421612e+00 4.9127864285817804e+00 5.9878537282223965e+00 1 0 0
587 33 4 -1.1500000000000000e-01 3.6401259990796269e+00 4.2007736226992565e+00 5.0028231106131802e+00 1 0 0
1082 58 2 1.1500000000000000e-01 2.7865517386377707e+00 6.2561594939057263e+00 8.9276297259209887e+00 1 0 0
4394 233 2 1.1500000000000000e-01 1.9794939678262562e+00 1.2341187826996356e+00 6.2594044979046854e+00 1 1 0
233 13 2 1.1500000000000000e-01 -1.8315390727735279e+00 8.5184285863999162e-02 3.4149693436855610e+00 1 0 0
590 33 1 -1.1500000000000000e-01 2.3609872577746529e+00 6.1555336428856764e+00 5.7195617564268435e+00 1 0 0
592 33 2 1.1500000000000000e-01 4.1249834035038182e+00 3.2638188106235533e+00 5.3300216577541395e+00 1 0 0
582 33 2 1.1500000000000000e-01 3.9250624752066430e+00 5.9863453643837872e+00 1.0890349021101214e-01 1 0 0
229 13 4 -1.1500000000000000e-01 -1.3990405843757729e+00 1.0171117421169116e+00 3.7897692671693761e+00 1 0 0
986 53 1 -1.1500000000000000e-01 -3.6037059769010948e-01 8.3040535710768459e+00 4.5552972903184485e-01 1 0 0
985 53 2 1.1500000000000000e-01 -1.9731269434117740e+00 6.9857047394400356e+00 5.9579388303891250e+00 1 0 0
599 34 1 -1.1500000000000000e-01 2.0625989832941194e-01 4.4435596085324400e+00 8.8397717847222470e+00 1 0 0
585 33 2 1.1500000000000000e-01 4.9806278194824802e+00 3.8485509212654523e+00 7.9365085574656113e-01 1 0 0
227 13 4 -1.1500000000000000e-01 -6.3161191962998153e-01 1.6632536740500241e+00 1.5314436498433095e+00 1 0 0
595 34 7 -1.1500000000000000e-01 -2.4648520725639056e-01 5.6768084394867433e+00 8.4515194769663946e+00 1 0 0
981 53 1 -1.1500000000000000e-01 -1.4232803554961841e+00 7.5233341470698800e+00 5.2163984932507850e+00 1 0 0
4379 233 3 0.0000000000000000e+00 3.1869365529586706e+00 6.5502935517818869e-02 3.1609609262601444e+00 1 1 0
4390 233 1 -1.1500000000000000e-01 2.4746236416664771e+00 5.7547930196678565e-01 5.5128979772012974e+00 1 1 0
583 33 2 1.1500000000000000e-01 2.8813379191267421e+00 7.4955433009591284e+00 1.8460104085222317e+00 1 0 0
584 33 2 1.1500000000000000e-01 2.1808945161372257e+00 7.7173893881424451e+00 4.1694915964649404e+00 1 0 0
1064 57 2 1.1500000000000000e-01 7.0262178341548758e+00 6.2565289545625102e+00 1.2728914481589422e+00 1 0 0
234 13 2 1.1500000000000000e-01 9.9837877039143752e-01 4.5120149842773758e+00 5.1252062924028341e-01 1 0 0
4401 234 2 1.1500000000000000e-01 -1.4132563063148731e+00 1.0476489134000961e+00 8.4188857385551756e+00 1 1 0
1004 54 1 -1.1500000000000000e-01 -4.4968550697757177e+00 8.3978757482459514e+00 7.5678519319512700e+00 1 0 0
594 33 2 1.1500000000000000e-01 1.7336475757787735e+00 6.7477366203101230e+00 6.3979220143216384e+00 1 0 0
987 53 4 -1.1500000000000000e-01 -9.1081621845851490e-01 7.4546959691025751e+00 1.4322703623330484e+00 1 0 0
225 13 2 1.1500000000000000e-01 -2.0166437516850513e+00 8.8973704275328480e-01 5.8581963614538042e+00 1 0 0
977 53 7 -1.1500000000000000e-01 -8.2179857399761413e-01 8.7155419733741208e+00 5.5551471856260077e+00 1 0 0
244 14 1 -1.1500000000000000e-01 -4.4182741426924430e+00 2.0526224059406473e+00 7.9934314719893607e+00 1 0 0
250 14 2 1.1500000000000000e-01 -5.2699093903457994e+00 1.8371049324893898e-01 8.7769661177239779e+00 1 0 0
4382 233 2 1.1500000000000000e-01 4.2375447800553072e+00 2.9914521575393321e-01 -8.5795604308133377e-02 1 1 0
235 14 7 -1.1500000000000000e-01 -5.6073425661840979e+00 2.5445248713245570e+00 1.2975772500388929e+01 1 0 0
236 14 5 -1.1500000000000000e-01 -5.0058566834615883e+00 3.4087149402607499e+00 1.2063168652363949e+01 1 0 0
997 54 3 0.0000000000000000e+00 -4.6783369602013565e+00 8.7849432085691568e+00 1.0327457162037408e+01 1 0 0
734 14 6 0.0000000000000000e+00 -4.8627248942829482e+00 2.3127442411588115e+00 1.0554602498955990e+01 1 0 0
239 14 1 -1.1500000000000000e-01 -6.0519570938319447e+00 1.2742075848667878e+00 1.2592512519308833e+01 1 0 0
240 14 2 1.1500000000000000e-01 -5.8297946933049838e+00 2.9571671215762967e+00 1.3910626667054091e+01 1 0 0
1029 55 2 1.1500000000000000e-01 -9.8707643573095236e+00 6.0070942795748712e+00 1.7947207992611258e+01 1 0 0
597 34 3 0.0000000000000000e+00 -1.2283423089798768e+00 6.0872284068618185e+00 1.0623412036486931e+01 1 0 0
1495 55 6 0.0000000000000000e+00 -8.6946050051321286e+00 8.3555624282452907e+00 1.7855864646672369e+01 1 0 0
237 14 3 0.0000000000000000e+00 -4.7398055454705954e+00 2.9679369524195849e+00 1.0721125185418522e+01 1 0 0
4402 234 2 1.1500000000000000e-01 -2.5382573965079733e+00 1.3912947092778429e+00 1.0425221922448385e+01 1 1 0
610 34 2 1.1500000000000000e-01 -7.6234506703738703e-01 3.3680239526156619e+00 1.2599897284983339e+01 1 0 0
1000 54 2 1.1500000000000000e-01 -5.5786744030150484e+00 8.0887323665225228e+00 1.3587969822092294e+01 1 0 0
255 15 3 0.0000000000000000e+00 -8.7912352391780058e+00 2.6812640919775035e+00 1.8129103378249056e+01 1 0 0
256 15 4 -1.1500000000000000e-01 -8.2548537805919473e+00 3.4854165934635040e+00 1.7121588320072238e+01 1 0 0
260 15 2 1.1500000000000000e-01 -7.9713141722652452e+00 4.5512041051755361e+00 1.7344184631083010e+01 1 0 0
238 14 4 -1.1500000000000000e-01 -4.1516205536050244e+00 3.7884633411743187e+00 9.7492466650323397e+00 1 0 0
4398 234 4 -1.1500000000000000e-01 -1.9565267403638815e+00 5.6164825190282153e-01 1.0937126029889159e+01 1 1 0
264 15 3 0.0000000000000000e+00 -9.1837335488477763e+00 1.3701867882614098e+00 1.7818618114064428e+01 1 0 0
611 34 2 1.1500000000000000e-01 2.5956538831655784e-01 2.9516189545412752e+00 1.0422097323558866e+01 1 0 0
266 15 1 -1.1500000000000000e-01 -8.1958041608277750e+00 3.0783515164100552e+00 1.5765693208279156e+01 1 0 0
609 34 2 1.1500000000000000e-01 -1.9597614721501335e+00 4.8421470989641904e+00 1.4243035914080451e+01 1 0 0
4408 234 1 -1.1500000000000000e-01 -2.1869978647930184e+00 1.9867011934966075e-01 1.2317195383556662e+01 1 1 0
265 15 4 -1.1500000000000000e-01 -9.7101559286983274e+00 5.1549003205415067e-01 1.8797537341356747e+01 1 0 0
735 15 6 0.0000000000000000e+00 -9.0202062750243854e+00 2.0304300342215411e+00 1.7880711770610858e+01 1 0 0
246 14 3 0.0000000000000000e+00 -5.1309974566733452e+00 1.6964782173393509e+00 1.0369861315663027e+01 1 0 0
4416 235 4 -1.1500000000000000e-01 -5.7432554320764453e+00 1.0319426833745446e+00 1.9190567041498316e+01 1 1 0
604 34 1 -1.1500000000000000e-01 -1.7455877377554829e+00 5.1775478366932335e+00 1.3236463801186890e+01 1 0 0
605 34 4 -1.1500000000000000e-01 -1.0655819474502390e+00 4.3665215208462644e+00 1.2315788061113354e+01 1 0 0
606 34 3 0.0000000000000000e+00 -7.6848532002146719e-01 4.7839322776331832e+00 1.1000465781981795e+01 1 0 0
1024 55 3 0.0000000000000000e+00 -8.9313372475996609e+00 7.8089571814468046e+00 1.7455433846611417e+01 1 0 0
999 54 1 -1.1500000000000000e-01 -6.1381113007039740e+00 6.9346367436059007e+00 1.1939498710344999e+01 1 0 0
262 15 1 -1.1500000000000000e-01 -8.5876777496747252e+00 1.7358828928054253e+00 1.5503180498546815e+01 1 0 0
263 15 4 -1.1500000000000000e-01 -9.0658443549333736e+00 9.4063988443622193e-01 1.6485443911820738e+01 1 0 0
241 14 2 1.1500000000000000e-01 -4.7537248512333399e+00 4.4200165535027311e+00 1.2430641104618500e+01 1 0 0
340 19 2 1.1500000000000000e-01 -1.6038806741724478e+00 7.6729598218062955e-01 1.6215837780832729e+01 1 0 0
598 34 4 -1.1500000000000000e-01 -1.9240304235695191e+00 6.9380700007520879e+00 1.1566496072976335e+01 1 0 0
754 34 6 0.0000000000000000e+00 -9.9539212187009607e-01 5.4713583460439681e+00 1.0886790505711405e+01 1 0 0
616 35 4 -1.1500000000000000e-01 -5.7797553234618348e+00 6.8324081188894068e+00 1.8940695801056115e+01 1 0 0
613 35 7 -1.1500000000000000e-01 -4.1696290163513101e+00 5.3282832847576955e+00 1.5882525363659457e+01 1 0 0
618 35 2 1.1500000000000000e-01 -3.9843347677486367e+00 5.5019352430385080e+00 1.4830032937519990e+01 1 0 0
615 35 3 0.0000000000000000e+00 -5.1146595828755927e+00 5.9276768172803518e+00 1.8058648683692184e+01 1 0 0
617 35 1 -1.1500000000000000e-01 -3.8072414532147256e+00 4.0806589668413089e+00 1.6406179169094504e+01 1 0 0
621 35 2 1.1500000000000000e-01 -3.3564185070959454e+00 3.3952015956581687e+00 1.5678702830395512e+01 1 0 0
624 35 3 0.0000000000000000e+00 -4.6984164142308620e+00 4.6815039649204664e+00 1.8554069548820145e+01 1 0 0
625 35 4 -1.1500000000000000e-01 -4.0663592344249082e+00 3.7266236656704601e+00 1.7746882770206621e+01 1 0 0
629 35 2 1.1500000000000000e-01 -3.8217790644583207e+00 2.7749749267921686e+00 1.8219636113541309e+01 1 0 0
755 35 6 0.0000000000000000e+00 -5.0396579488763020e+00 5.2758599314649128e+00 1.8279995832508380e+01 1 0 0
270 15 2 1.1500000000000000e-01 -7.6835423276114234e+00 3.7494165842514802e+00 1.5076868043379822e+01 1 0 0
4412 234 2 1.1500000000000000e-01 -2.8638980341369269e+00 7.5471291388006734e-01 1.2947458074249729e+01 1 1 0
242 14 2 1.1500000000000000e-01 -3.8309329034555741e+00 4.8249997659416692e+00 9.8977561131556264e+00 1 0 0
614 35 5 -1.1500000000000000e-01 -4.9139925691003832e+00 6.2582452402610018e+00 1.6712405143149137e+01 1 0 0
247 14 4 -1.1500000000000000e-01 -5.6722132171379416e+00 8.1012535013404174e-01 1.1311242598303684e+01 1 0 0
4419 235 2 1.1500000000000000e-01 -5.4740193007387834e+00 1.5441384933716340e+00 1.6626768198796096e+01 1 1 0
1025 55 4 -1.1500000000000000e-01 -9.6388187081816010e+00 7.0028420617828813e+00 1.8334897779466722e+01 1 0 0
608 34 1 -1.1500000000000000e-01 -2.2863951692465303e+00 6.4137422326752027e+00 1.2855134054767653e+01 1 0 0
1003 54 2 1.1500000000000000e-01 -6.8846535730320211e+00 6.2822587453023617e+00 1.2461012137656374e+01 1 0 0
612 34 2 1.1500000000000000e-01 -2.8635279400736380e+00 6.9964206909595568e+00 1.3570631441887290e+01 1 0 0
1494 54 6 0.0000000000000000e+00 -4.9759953343673704e+00 8.3075693879623778e+00 9.9490715275726842e+00 1 0 0
602 34 2 1.1500000000000000e-01 -2.2983197448913586e+00 7.8933922459625014e+00 1.1292119210488474e+01 1 0 0
254 15 5 -1.1500000000000000e-01 -9.0830504411607382e+00 3.2120309362372135e+00 1.9395628925142244e+01 1 0 0
4420 235 2 1.1500000000000000e-01 -6.0556769034265914e+00 2.0664759245208342e+00 1.8962584971398687e+01 1 1 0
620 35 2 1.1500000000000000e-01 -6.2204390587324907e+00 7.7251132826810744e+00 1.8499084872787449e+01 1 0 0
619 35 2 1.1500000000000000e-01 -5.4131678437261010e+00 7.1123465265758394e+00 1.6281134355088614e+01 1 0 0
1007 54 4 -1.1500000000000000e-01 -5.9995118749132761e+00 6.7345176148502066e+00 1.0589135472544045e+01 1 0 0
4414 235 5 -1.1500000000000000e-01 -5.0500920680959318e+00 5.1077235084524486e-01 1.6944298579001618e+01 1 1 0
1028 55 2 1.1500000000000000e-01 -8.9533781096021983e+00 6.4198307848256198e+00 1.5797550672678600e+01 1 0 0
4415 235 3 0.0000000000000000e+00 -5.2280416606312308e+00 1.1470153206228967e-01 1.8290927062516531e+01 1 1 0
1027 55 2 1.1500000000000000e-01 -7.8423172361350870e+00 7.8097922663072241e+00 1.4264207729937294e+01 1 0 0
1006 54 3 0.0000000000000000e+00 -5.2389177493491248e+00 7.6481509909431802e+00 9.7710566845374895e+00 1 0 0
1022 55 1 -1.1500000000000000e-01 -7.9181412857283249e+00 8.1721728951788091e+00 1.5243887006627007e+01 1 0 0
1023 55 4 -1.1500000000000000e-01 -8.6330530302412800e+00 7.3946089074209382e+00 1.6137791161592823e+01 1 0 0
243 14 2 1.1500000000000000e-01 -6.5386289490184613e+00 6.0538724050057335e-01 1.3287168402209552e+01 1 0 0
339 19 2 1.1500000000000000e-01 -4.0878006848150505e-01 2.1611585986369470e+00 1.4529281871088571e+01 1 0 0
607 34 4 -1.1500000000000000e-01 -1.2251420898188137e-01 3.9501387404173478e+00 1.0086414346364744e+01 1 0 0
995 54 7 -1.1500000000000000e-01 -5.4148646010087580e+00 7.9909277915603631e+00 1.2537450043677202e+01 1 0 0
1371 74 2 1.1500000000000000e-01 7.9067310408382241e-01 8.7984575942621976e+00 1.0370496549782775e+01 1 0 0
1389 75 2 1.1500000000000000e-01 -3.5688860609918791e+00 8.6965078313181010e+00 1.7362811258111506e+01 1 0 0
1100 59 2 1.1500000000000000e-01 -1.6696912082070305e+00 6.3346484385740229e+00 1.6685594276118177e+01 1 0 0
996 54 5 -1.1500000000000000e-01 -4.6408946672327414e+00 8.8783006297723528e+00 1.1761074555168566e+01 1 0 0
268 15 2 1.1500000000000000e-01 -9.4022960309192634e+00 -4.4279251285165869e-02 1.6185589317760705e+01 1 0 0
4418 235 2 1.1500000000000000e-01 -4.4187027327440944e+00 -5.4466916211343988e-02 1.4977953524829667e+01 1 1 0
259 15 2 1.1500000000000000e-01 -8.8373515865971566e+00 4.2617248382798190e+00 1.9547059617859404e+01 1 0 0
1017 55 1 -1.1500000000000000e-01 -9.9226349129493787e+00 7.4211874711110788e+00 1.9669031623610270e+01 1 0 0
1045 56 2 1.1500000000000000e-01 -1.2268803529864837e+01 8.0404766290432939e+00 2.2497878091450474e+01 1 0 0
258 15 2 1.1500000000000000e-01 -9.7788836275454400e+00 2.6703742187904504e+00 2.1320105980288449e+01 1 0 0
634 36 4 -1.1500000000000000e-01 -9.9835855098469359e+00 6.7622788197110539e+00 2.6044377430596715e+01 1 0 0
638 36 2 1.1500000000000000e-01 -1.0337361213775832e+01 7.6959489242690795e+00 2.5740520088169944e+01 1 0 0
1040 56 1 -1.1500000000000000e-01 -1.2426225372789641e+01 8.2701698324547088e+00 2.3559803466594772e+01 1 0 0
284 16 1 -1.1500000000000000e-01 -1.1890861475607448e+01 3.0394124797040738e+00 2.4066428526420513e+01 1 0 0
4432 236 5 -1.1500000000000000e-01 -9.2649346591626269e+00 1.3553637069464955e-02 2.4278964954182904e+01 1 1 0
1031 56 7 -1.1500000000000000e-01 -1.3919067233505871e+01 8.1918883014616348e+00 2.8474877789202576e+01 1 0 0
288 16 2 1.1500000000000000e-01 -1.1234405242771066e+01 3.6540249075885898e+00 2.3465535415125288e+01 1 0 0
271 16 7 -1.1500000000000000e-01 -1.3995770655628073e+01 2.4321519879441431e+00 2.8454917067217593e+01 1 0 0
272 16 5 -1.1500000000000000e-01 -1.3253400637522635e+01 3.2413633214554847e+00 2.7535128534114474e+01 1 0 0
273 16 3 0.0000000000000000e+00 -1.3021427341979891e+01 2.7413765421444203e+00 2.6206328287615541e+01 1 0 0
274 16 4 -1.1500000000000000e-01 -1.2199347508678674e+01 3.5368223912166057e+00 2.5310491365857182e+01 1 0 0
275 16 1 -1.1500000000000000e-01 -1.4498442551792643e+01 1.1717111274855470e+00 2.7960720483588183e+01 1 0 0
1496 56 6 0.0000000000000000e+00 -1.3437076969389484e+01 8.1857883069714283e+00 2.6132984187863588e+01 1 0 0
277 16 2 1.1500000000000000e-01 -1.2894684480929950e+01 4.2013055419739791e+00 2.7819604383022835e+01 1 0 0
278 16 2 1.1500000000000000e-01 -1.1718794909063533e+01 4.4416199158604615e+00 2.5670251460835178e+01 1 0 0
646 36 2 1.1500000000000000e-01 -8.5446282957988764e+00 3.4205237234383903e+00 2.7417992304484116e+01 1 0 0
282 16 3 0.0000000000000000e+00 -1.3592447776450706e+01 1.5472248671036322e+00 2.5757083498929305e+01 1 0 0
1043 56 4 -1.1500000000000000e-01 -1.4136271775871014e+01 6.6733115825049341e+00 2.6599320522469210e+01 1 0 0
736 16 6 0.0000000000000000e+00 -1.3305262483157554e+01 2.0723666836673242e+00 2.6153553376111940e+01 1 0 0
632 36 5 -1.1500000000000000e-01 -9.1221527804649263e+00 6.1840196297137622e+00 2.3768813891191385e+01 1 0 0
636 36 2 1.1500000000000000e-01 -8.5152366907630430e+00 5.4372972191899285e+00 2.1810497387802261e+01 1 0 0
4438 236 2 1.1500000000000000e-01 -1.0213802380827804e+01 1.3899213119700178e+00 2.6263823739591867e+01 1 1 0
253 15 7 -1.1500000000000000e-01 -9.6278868389038958e+00 2.3373046138958329e+00 2.0378014148922283e+01 1 0 0
257 15 1 -1.1500000000000000e-01 -9.9574071234020156e+00 9.9325356948621324e-01 2.0053183252561400e+01 1 0 0
627 35 2 1.1500000000000000e-01 -5.8056174700278511e+00 4.8009137884389546e+00 2.1680851389690268e+01 1 0 0
644 36 1 -1.1500000000000000e-01 -1.0196381914251162e+01 6.3894702007710968e+00 2.7323705526363280e+01 1 0 0
631 36 7 -1.1500000000000000e-01 -8.4943118834015365e+00 5.3311435972711587e+00 2.2880000382818299e+01 1 0 0
635 36 1 -1.1500000000000000e-01 -7.9144456807944170e+00 4.1588739624045319e+00 2.3425984551428677e+01 1 0 0
279 16 2 1.1500000000000000e-01 -1.5152631206262283e+01 6.7184733353246340e-01 2.8629959554718660e+01 1 0 0
639 36 2 1.1500000000000000e-01 -7.3843840140001449e+00 3.5307395847021432e+00 2.2706459953246846e+01 1 0 0
283 16 4 -1.1500000000000000e-01 -1.4386810391504978e+01 7.3288884453466563e-01 2.6639312999659097e+01 1 0 0
4448 236 2 1.1500000000000000e-01 -1.0540520114414880e+01 4.8231114661705937e-01 2.8582338330980022e+01 1 1 0
1021 55 2 1.1500000000000000e-01 -1.0434372619684995e+01 6.7157821830702717e+00 2.0349810366289592e+01 1 0 0
628 35 2 1.1500000000000000e-01 -4.5353674052380626e+00 3.4646084262584416e+00 2.0315490453919118e+01 1 0 0
633 36 3 0.0000000000000000e+00 -9.3047073770824422e+00 5.8795181083442785e+00 2.5135501187052128e+01 1 0 0
4437 236 2 1.1500000000000000e-01 -9.6072705209460683e+00 9.9731373545262980e-01 2.3974883656379060e+01 1 1 0
640 36 1 -1.1500000000000000e-01 -9.7036616048703586e+00 5.1760906010441499e+00 2.7783616963099064e+01 1 0 0
641 36 4 -1.1500000000000000e-01 -9.0688697894628554e+00 4.2916951398580450e+00 2.6966070661470891e+01 1 0 0
642 36 3 0.0000000000000000e+00 -8.8419286157533659e+00 4.6539716166579694e+00 2.5636537889949590e+01 1 0 0
643 36 4 -1.1500000000000000e-01 -8.0835735678807694e+00 3.7805736548915179e+00 2.4774601132132126e+01 1 0 0
622 35 1 -1.1500000000000000e-01 -5.6339361265413048e+00 5.2239694533023391e+00 2.0746558265010194e+01 1 0 0
281 16 4 -1.1500000000000000e-01 -1.3356807799374673e+01 1.1848084711957863e+00 2.4387973159444833e+01 1 0 0
647 36 2 1.1500000000000000e-01 -7.6285554715331418e+00 2.8840578202420990e+00 2.5006149684198416e+01 1 0 0
756 36 6 0.0000000000000000e+00 -9.1860863121566219e+00 5.1743015335277773e+00 2.5285989072811002e+01 1 0 0
1046 56 2 1.1500000000000000e-01 -1.3454507196067633e+01 6.4207298992684700e+00 2.3846914989007576e+01 1 0 0
4434 236 4 -1.1500000000000000e-01 -9.8915616748717348e+00 4.1695326829178830e-01 2.6593309838922238e+01 1 1 0
1118 60 2 1.1500000000000000e-01 -5.8704192537598114e+00 6.4766011052091672e+00 2.3858938692606177e+01 1 0 0
285 16 2 1.1500000000000000e-01 -1.2379299293143360e+01 1.6687002135706273e+00 2.2517504806716207e+01 1 0 0
648 36 2 1.1500000000000000e-01 -1.0754990916517539e+01 7.1237378725853961e+00 2.7859797634780609e+01 1 0 0
645 36 2 1.1500000000000000e-01 -9.8328346669469333e+00 4.8859866414649646e+00 2.8781413400389106e+01 1 0 0
1039 56 2 1.1500000000000000e-01 -1.4937988458728718e+01 6.2113634352621947e+00 2.8515978800175702e+01 1 0 0
280 16 1 -1.1500000000000000e-01 -1.2491082070763696e+01 1.9238285938496349e+00 2.3553884124505156e+01 1 0 0
231 13 2 1.1500000000000000e-01 -1.6893750900050573e+01 2.1550550050271529e+00 2.9502546435905550e+01 1 0 -1
626 35 1 -1.1500000000000000e-01 -6.0303795578939745e+00 6.4399059280828483e+00 2.0264661793652930e+01 1 0 0
261 15 2 1.1500000000000000e-01 -1.0392635327218008e+01 3.7207666278563711e-01 2.0757290482193632e+01 1 0 0
630 35 2 1.1500000000000000e-01 -6.6455470741038978e+00 7.1164001844423161e+00 2.0790353857823948e+01 1 0 0
4426 235 1 -1.1500000000000000e-01 -5.8592943007738789e+00 5.7091847414645047e-01 2.0529730138633330e+01 1 1 0
637 36 2 1.1500000000000000e-01 -9.5766537360237027e+00 7.0853187261833730e+00 2.3456973595103218e+01 1 0 0
4430 235 2 1.1500000000000000e-01 -6.2291516799485667e+00 1.2803864180099078e+00 2.1319033929870962e+01 1 1 0
1042 56 3 0.0000000000000000e+00 -1.3508974880745052e+01 7.6048638141136049e+00 2.5719596401635421e+01 1 0 0
623 35 4 -1.1500000000000000e-01 -4.9303913132227120e+00 4.3667488550837366e+00 1.9882821413620825e+01 1 0 0
1035 56 1 -1.1500000000000000e-01 -1.4384227741858007e+01 6.9514199246637949e+00 2.7945501199822054e+01 1 0 0
1041 56 4 -1.1500000000000000e-01 -1.3242227475645061e+01 7.3599284504091003e+00 2.4325432423914634e+01 1 0 0
276 16 2 1.1500000000000000e-01 -1.4178026021761962e+01 2.7701219518710705e+00 2.9443043264450782e+01 1 0 0
1047 56 2 1.1500000000000000e-01 -1.4454781520835143e+01 5.6275192845566142e+00 2.6265193040687731e+01 1 0 0
1013 55 7 -1.1500000000000000e-01 -9.4917714137925397e+00 8.7014875948351929e+00 2.0028866358197241e+01 1 0 0
1036 56 2 1.1500000000000000e-01 -1.4057035297062079e+01 8.4814444777827127e+00 2.9491723633719737e+01 1 0 0
1033 56 3 0.0000000000000000e+00 -1.3102886280683634e+01 8.8260773306988458e+00 2.6277197882197491e+01 1 0 0
286 16 2 1.1500000000000000e-01 -1.3959437364193235e+01 3.4840875044338404e-01 2.4063876525319209e+01 1 0 0
1063 57 2 1.1500000000000000e-01 -8.8289218951493691e+00 7.7073041116117453e+00 2.9480861985238967e+01 1 0 -1
1363 74 2 1.1500000000000000e-01 1.1728283890063809e+00 9.3849272281601053e+00 7.9227130361086111e+00 1 0 0
980 53 4 -1.1500000000000000e-01 3.2345833033872884e-01 9.8525556880167890e+00 2.2401184596744748e+00 1 0 0
984 53 2 1.1500000000000000e-01 8.9162112438209351e-01 1.0680578689146666e+01 2.6130332469792523e+00 1 0 0
979 53 3 0.0000000000000000e+00 -2.0937067298731860e-01 8.9872928175468711e+00 3.2145325521548966e+00 1 0 0
2115 114 7 -1.1500000000000000e-01 -4.0565915981951584e-01 1.7234546407892552e+01 7.6216924095213461e+00 1 0 0
2253 93 6 0.0000000000000000e+00 -5.1742658269855868e-01 1.4350275710579599e+01 2.5746823055809007e+00 1 0 0
990 53 1 -1.1500000000000000e-01 2.1441713823772957e-01 9.5527282071616000e+00 8.5804664476663706e-01 1 0 0
1741 93 1 -1.1500000000000000e-01 -1.7522519704444410e+00 1.2982376398358166e+01 4.2235547803731226e+00 1 0 0
2105 113 2 1.1500000000000000e-01 5.0937405911352247e+00 1.5894129466970730e+01 1.2741964992634991e-01 1 0 0
983 53 2 1.1500000000000000e-01 3.2257179626544152e-01 1.0327792586446723e+01 4.7916463888477621e+00 1 0 0
1352 73 2 1.1500000000000000e-01 4.1514391726759463e+00 9.4573214704089796e+00 4.8763331666171119e+00 1 0 0
1345 73 2 1.1500000000000000e-01 5.1722234103758895e+00 1.0424560584835556e+01 4.4304126788939913e-02 1 0 0
1745 93 2 1.1500000000000000e-01 -2.0193912672367844e+00 1.2202412591286770e+01 4.9196880825453588e+00 1 0 0
2123 114 2 1.1500000000000000e-01 6.9905602647653797e-01 1.5509755705752481e+01 7.1979630987056948e+00 1 0 0
1338 73 5 -1.1500000000000000e-01 3.3555282573307350e+00 1.2753205151806524e+01 1.7114418881151403e+00 1 0 0
1339 73 3 0.0000000000000000e+00 3.2956754479145212e+00 1.2200484477952461e+01 2.9739359928339852e+00 1 0 0
1340 73 4 -1.1500000000000000e-01 2.7305459925767059e+00 1.2947794884457384e+01 4.0113718515920569e+00 1 0 0
1341 73 1 -1.1500000000000000e-01 4.7241073210225837e+00 1.0859515542993746e+01 9.2419346862446883e-01 1 0 0
1337 73 7 -1.1500000000000000e-01 4.0693300698702979e+00 1.2087904171942380e+01 7.2625793045310050e-01 1 0 0
1343 73 2 1.1500000000000000e-01 2.8752442947771542e+00 1.3715445768722432e+01 1.5060545233601423e+00 1 0 0
1348 73 3 0.0000000000000000e+00 3.8912423946039572e+00 1.0963935038233307e+01 3.2596368354899514e+00 1 0 0
1349 73 4 -1.1500000000000000e-01 4.4904788425776374e+00 1.0218702922888756e+01 2.1547647363512268e+00 1 0 0
1513 73 6 0.0000000000000000e+00 3.4653536801288074e+00 1.1515948626422633e+01 3.2027736311299098e+00 1 0 0
1765 94 4 -1.1500000000000000e-01 -5.1671002743032526e+00 1.3001040524463505e+01 8.6619355658850647e+00 1 0 0
1354 73 2 1.1500000000000000e-01 2.0706138090195965e+00 1.2951488172975875e+01 6.0572378741766144e+00 1 0 0
1346 73 1 -1.1500000000000000e-01 3.0960234643950759e+00 1.1155800726846385e+01 5.5801275726115414e+00 1 0 0
1347 73 4 -1.1500000000000000e-01 3.7907231417823106e+00 1.0436594133922583e+01 4.5765451621591842e+00 1 0 0
1350 73 1 -1.1500000000000000e-01 2.5668322750940975e+00 1.2452289043076158e+01 5.3019191655663942e+00 1 0 0
1351 73 2 1.1500000000000000e-01 2.9463267193418301e+00 1.0705959002151157e+01 6.5341217464663570e+00 1 0 0
1742 93 2 1.1500000000000000e-01 -1.6168005451225660e+00 1.4225564762852596e+01 5.8974103267154057e+00 1 0 0
1758 94 4 -1.1500000000000000e-01 -3.9451460582212849e+00 1.5428261454685632e+01 9.3339326596793804e+00 1 0 0
1355 74 7 -1.1500000000000000e-01 1.3312155499412981e-01 1.1298679672239073e+01 8.1197830494253065e+00 1 0 0
1359 74 1 -1.1500000000000000e-01 5.5053872290076633e-01 1.0014906880446732e+01 8.5922288954906811e+00 1 0 0
1360 74 2 1.1500000000000000e-01 3.5316409798999882e-01 1.1587686459479258e+01 7.0927935576451846e+00 1 0 0
1361 74 2 1.1500000000000000e-01 -9.0512036506957383e-01 1.3175100936435651e+01 8.7221335692127511e+00 1 0 0
1748 93 3 0.0000000000000000e+00 -7.7917524425878393e-01 1.3857104593555238e+01 2.1530129501531778e+00 1 0 0
2097 113 7 -1.1500000000000000e-01 3.9794645249673191e+00 1.7709671108344839e+01 5.1023780589611512e-01 1 0 0
1746 93 1 -1.1500000000000000e-01 2.8429701928822326e-01 1.4554470815220737e+01 1.7797951115607757e-01 1 0 0
2127 114 4 -1.1500000000000000e-01 2.2517686865406894e-01 1.5636243829658575e+01 9.3410673602543302e+00 1 0 0
1749 93 4 -1.1500000000000000e-01 -1.4846893669240320e+00 1.2841760905304122e+01 2.8631358628902435e+00 1 0 0
2106 113 1 -1.1500000000000000e-01 2.9264787637322160e+00 1.7123855058664493e+01 5.4480388923581815e+00 1 0 0
1344 73 2 1.1500000000000000e-01 2.2796705859160435e+00 1.3885453316890471e+01 3.7964020682434914e+00 1 0 0
1737 93 7 -1.1500000000000000e-01 -1.3680035740304364e+00 1.4173332903464418e+01 4.8318702622863228e+00 1 0 0