LAMMPS (15 May 2015)
Reading data file ...
  triclinic box = (-0.107635 -0.0404339 -0.357111) to (41.3876 35.9384 29.5551) with tilt (-0.0672341 -17.0362 -0.0417078)
  5 by 4 by 3 MPI processor grid
  reading atoms ...
  4560 atoms
  reading velocities ...
  4560 velocities
  scanning bonds ...
  3 = max bonds/atom
  scanning angles ...
  3 = max angles/atom
  scanning dihedrals ...
  8 = max dihedrals/atom
  scanning impropers ...
  1 = max impropers/atom
  reading bonds ...
  5040 bonds
  reading angles ...
  7200 angles
  reading dihedrals ...
  10560 dihedrals
  reading impropers ...
  2400 impropers
Finding 1-2 1-3 1-4 neighbors ...
 Special bond factors lj:   0          0          0         
 Special bond factors coul: 0          0          0         
  4 = max # of 1-2 neighbors
  8 = max # of 1-3 neighbors
  20 = max # of 1-4 neighbors
  16 = max # of special neighbors
4560 atoms in group all
720 atoms in group C
480 atoms in group S
1920 atoms in group H
720 atoms in group Si
240 atoms in group Na
240 atoms in group Ba
240 atoms in group O
4560 atoms in group naphthalene
1200 atoms in group fixed
960 atoms in group CO
Setting atom values ...
  720 settings made for charge
Setting atom values ...
  720 settings made for charge
Setting atom values ...
  1920 settings made for charge
Setting atom values ...
  480 settings made for charge
Setting atom values ...
  240 settings made for charge
Setting atom values ...
  240 settings made for charge
Setting atom values ...
  240 settings made for charge
Finding 1-2 1-3 1-4 neighbors ...
 Special bond factors lj:   0          0          0.5       
 Special bond factors coul: 0          0          0.5       
  4 = max # of 1-2 neighbors
  8 = max # of 1-3 neighbors
  20 = max # of 1-4 neighbors
  16 = max # of special neighbors
PPPM initialization ...
  G vector (1/distance) = 0.246499
  grid = 16 16 20
  stencil order = 5
  estimated absolute RMS force accuracy = 0.00242397
  estimated relative force accuracy = 7.2997e-06
  using double precision FFTs
  3d grid and FFT values/proc = 1053 112
Neighbor list info ...
  4 neighbor list requests
  update every 1 steps, delay 0 steps, check yes
  master list distance cutoff = 12
Setting up run ...
Memory usage per processor = 13.288 Mbytes
Step Temp Density PotEng E_vdwl E_tail E_coul E_long Press Volume Xy Xz Yz E_mol E_bond E_angle E_dihed 14[1] 14[2] 14[3] msd[4] msd2[4] msd3[4] msd4[4] naphthal Cella Cellb Cellc CellAlpha CellBeta CellGamma 27[2] 27[3] 28[1] 28[2] 28[3] 
       0          298    1.2509986    2087.5869   -1173.1339   -211.49952    2070.8667    -2308.979    790.88859    44657.537 -0.067234084   -17.036218 -0.041707817     3498.833    1521.0094     935.4334    889.67826    28.379601    18.846571    14.337846 2.3535127e-29 2.3910021e-29 2.7538641e-29 3.294809e-29          298     41.49527    35.978931    34.423473    90.016431    119.66323    90.107069    18.846182    14.337739    28.379557    18.849013    14.339638 
    1000      299.659    1.2509986    2053.8812    -1175.916   -211.49952    2077.0858   -2309.4665    989.51001    44657.537 -0.067234084   -17.036218 -0.041707817    3462.1779    1544.5099    920.34207    852.85503     28.37966    18.846466    14.337816   0.16970834   0.16970608   0.14737322   0.14719797      299.659     41.49527    35.978931    34.423473    90.016431    119.66323    90.107069    18.845921    14.337564    28.390482    18.842296    14.336357 
    2000    290.26777    1.2509986    2161.4569   -1188.6118   -211.49952    2078.9923   -2309.8515   -556.04148    44657.537 -0.067234084   -17.036218 -0.041707817    3580.9279    1582.7921    977.47079    868.15807    28.379646    18.846439    14.337811   0.20989954   0.20989435   0.16670283   0.16668512    290.26777     41.49527    35.978931    34.423473    90.016431    119.66323    90.107069    18.846471    14.337106     28.37771    18.846947    14.336471 
    3000    296.74301    1.2509986    2066.6872   -1216.0456   -211.49952    2076.8203   -2309.6655      -552.35    44657.537 -0.067234084   -17.036218 -0.041707817     3515.578     1547.469    958.66381    857.88415    28.379476    18.846345    14.337779   0.21331311   0.21331093   0.16565824   0.16557157    296.74301     41.49527    35.978931    34.423473    90.016431    119.66323    90.107069    18.846532    14.337188    28.384396    18.845941    14.332302 
    4000    300.61195    1.2509986    2099.9589   -1203.8802   -211.49952     2073.945   -2309.4559   -483.14524    44657.537 -0.067234084   -17.036218 -0.041707817    3539.3499    1556.0658    924.01523    899.40085    28.379619    18.846283    14.337795    0.2212278   0.22122691   0.17950011   0.17949355    300.61195     41.49527    35.978931    34.423473    90.016431    119.66323    90.107069    18.845625    14.338017    28.378678    18.846859    14.338571 
    5000    302.12382    1.2509986    2128.5547   -1240.4581   -211.49952    2068.6125   -2309.9131   -2392.6392    44657.537 -0.067234084   -17.036218 -0.041707817    3610.3134    1658.6162    928.95156    873.37316    28.379575    18.846248     14.33772   0.22379141   0.22378958    0.1957337   0.19559803    302.12382     41.49527    35.978931    34.423473    90.016431    119.66323    90.107069     18.84639    14.336551    28.384008    18.844474    14.329879 
    6000    296.71538    1.2509986    2009.7248   -1208.2644   -211.49952    2072.2401   -2309.8995    997.00079    44657.537 -0.067234084   -17.036218 -0.041707817    3455.6487     1501.194    914.39946    889.80032    28.379619    18.846215    14.337681    0.2226971   0.22269626   0.18734896   0.18732512    296.71538     41.49527    35.978931    34.423473    90.016431    119.66323    90.107069     18.84592    14.336975    28.380364    18.847381    14.335107 
    7000    287.70023    1.2509986    2068.1144   -1173.9624   -211.49952    2075.5008    -2309.385    3117.9544    44657.537 -0.067234084   -17.036218 -0.041707817    3475.9609     1523.532    921.66457    879.06351    28.379654    18.846212    14.337697   0.23977622   0.23976999   0.20560689   0.20549174    287.70023     41.49527    35.978931    34.423473    90.016431    119.66323    90.107069    18.846056    14.339083    28.388762    18.845083    14.343508 
    8000    299.04558    1.2509986     2146.258    -1205.777   -211.49952    2082.9824   -2309.3269   -607.32963    44657.537 -0.067234084   -17.036218 -0.041707817    3578.3794     1625.647    952.86318    851.54415    28.379568    18.846272    14.337622   0.26603489   0.26603421   0.22177111   0.22169082    299.04558     41.49527    35.978931    34.423473    90.016431    119.66323    90.107069    18.846219    14.336939    28.385155    18.848108    14.332701 
    9000    304.28907    1.2509986    2182.2583    -1187.266   -211.49952    2078.5844   -2309.2432   -1015.4817    44657.537 -0.067234084   -17.036218 -0.041707817    3600.1831    1588.2064    965.07207    896.19839    28.379681    18.846179    14.337678   0.23441461   0.23441236    0.2044882   0.20444534    304.28907     41.49527    35.978931    34.423473    90.016431    119.66323    90.107069    18.845067    14.337694    28.384852    18.845281    14.338698 
   10000    301.97678    1.2509986    2099.1007   -1194.6473   -211.49952    2080.5356    -2309.176    464.55473    44657.537 -0.067234084   -17.036218 -0.041707817    3522.3883    1572.1647     938.7405    862.22592    28.379659    18.846158    14.337702   0.24717092   0.24716968    0.2035113   0.20342543    301.97678     41.49527    35.978931    34.423473    90.016431    119.66323    90.107069    18.847063    14.337145    28.384077    18.845539    14.332333 
   11000    296.65512    1.2509986    2085.2292   -1219.2011   -211.49952    2076.7679   -2309.7726   -157.31496    44657.537 -0.067234084   -17.036218 -0.041707817     3537.435    1517.3488    975.44157    887.50408     28.37964    18.846126     14.33766   0.23125227   0.23124794   0.19747298   0.19743671    296.65512     41.49527    35.978931    34.423473    90.016431    119.66323    90.107069    18.846187     14.33833    28.374668     18.84613    14.337622 
   12000    295.49299    1.2509986    2057.8884   -1197.1754   -211.49952    2074.2841   -2309.4307   -57.383114    44657.537 -0.067234084   -17.036218 -0.041707817    3490.2105    1543.8297    909.11308    882.64467    28.379737    18.846108    14.337681   0.23166065   0.23165537    0.1878279   0.18769088    295.49299     41.49527    35.978931    34.423473    90.016431    119.66323    90.107069     18.84646    14.338605    28.390736    18.845961    14.341291 
   13000    292.68239    1.2509986    2125.9292   -1232.7568   -211.49952    2075.4875   -2309.0299   -2911.2779    44657.537 -0.067234084   -17.036218 -0.041707817    3592.2284    1604.8723    981.85946    853.54624    28.379885    18.846061    14.337791   0.22557877   0.22557812   0.19233781   0.19231479    292.68239     41.49527    35.978931    34.423473    90.016431    119.66323    90.107069    18.846496    14.338386    28.377585    18.845669    14.342458 
   14000    298.19797    1.2509986    2016.3526   -1235.0286   -211.49952    2076.1521    -2309.752    -1669.249    44657.537 -0.067234084   -17.036218 -0.041707817     3484.981     1582.538    929.81041    828.21613     28.37989    18.846119    14.337765   0.24456248   0.24455949   0.20349864   0.20339597    298.19797     41.49527    35.978931    34.423473    90.016431    119.66323    90.107069      18.8446    14.337629    28.372884    18.842666    14.335411 
   15000    292.24805    1.2509986    2082.2057   -1206.9936   -211.49952    2078.3447   -2309.3378    -985.5153    44657.537 -0.067234084   -17.036218 -0.041707817    3520.1924    1582.2981    926.88188    861.74345    28.379869    18.846229    14.337751   0.24021476   0.24021462   0.20426605   0.20425867    292.24805     41.49527    35.978931    34.423473    90.016431    119.66323    90.107069    18.846393    14.337784    28.380624     18.85151    14.339755 
   16000    301.62006    1.2509986    2078.3693   -1199.7049   -211.49952    2079.9933   -2309.2325   -599.11267    44657.537 -0.067234084   -17.036218 -0.041707817    3507.3134    1531.8371    927.25649    898.74165    28.379806    18.846194     14.33767   0.25432972   0.25432231   0.21367216   0.21352538    301.62006     41.49527    35.978931    34.423473    90.016431    119.66323    90.107069    18.845104    14.338991     28.38672    18.841633    14.346042 
   17000    295.43103    1.2509986    2117.5305   -1195.1371   -211.49952    2077.4232   -2309.5877     870.7987    44657.537 -0.067234084   -17.036218 -0.041707817    3544.8321    1586.5653    918.55919    890.37624    28.379654    18.846221    14.337612   0.24666216   0.24665764   0.21417732   0.21410479    295.43103     41.49527    35.978931    34.423473    90.016431    119.66323    90.107069    18.847402    14.337588    28.371138    18.849517    14.338452 
   18000    302.01887    1.2509986    2152.4399   -1171.3432   -211.49952    2074.0375   -2309.7426   -270.92418    44657.537 -0.067234084   -17.036218 -0.041707817    3559.4883    1593.8338    948.31369    867.02221    28.379634    18.846174     14.33763   0.24598256   0.24598245   0.20758481   0.20748208    302.01887     41.49527    35.978931    34.423473    90.016431    119.66323    90.107069    18.845894    14.337713    28.370317    18.849061    14.335472 
   19000     298.6025    1.2509986    2074.1088   -1216.6306   -211.49952     2076.796   -2309.1479   -1348.8537    44657.537 -0.067234084   -17.036218 -0.041707817    3523.0913    1601.3907    917.18461     858.7349    28.379693    18.846161    14.337659   0.24435367    0.2443516   0.21462856   0.21456391     298.6025     41.49527    35.978931    34.423473    90.016431    119.66323    90.107069    18.846958    14.336801    28.374692    18.850698    14.333461 
   20000    295.76862    1.2509986    2029.6838   -1226.5432   -211.49952    2071.7268   -2309.7602   -2191.2612    44657.537 -0.067234084   -17.036218 -0.041707817    3494.2604    1564.4228    909.30988     870.6159    28.379835    18.846093    14.337682   0.23245541   0.23243637   0.18958653   0.18934305    295.76862     41.49527    35.978931    34.423473    90.016431    119.66323    90.107069    18.845856    14.340039    28.388627    18.842803    14.350713 
   21000    290.33935    1.2509986     2046.471   -1205.0278   -211.49952    2075.5217   -2309.7192   -441.79462    44657.537 -0.067234084   -17.036218 -0.041707817    3485.6963    1562.9269    882.55814    885.37225    28.379784    18.846095    14.337709   0.24475026   0.24474878   0.19559007   0.19550675    290.33935     41.49527    35.978931    34.423473    90.016431    119.66323    90.107069    18.846397    14.338462    28.370739    18.848997       14.342 
   22000    294.54771    1.2509986    2052.5235   -1208.1001   -211.49952    2073.2453   -2309.5243   -573.32359    44657.537 -0.067234084   -17.036218 -0.041707817    3496.9025    1581.6288    898.20273    864.09655    28.379807    18.846032    14.337741   0.23498969   0.23498858    0.1851108   0.18510247    294.54771     41.49527    35.978931    34.423473    90.016431    119.66323    90.107069    18.845185    14.337823     28.38139    18.846787    14.339522 
   23000    294.53812    1.2509986    2028.9682   -1194.8558   -211.49952    2069.9158   -2309.8951    604.70911    44657.537 -0.067234084   -17.036218 -0.041707817    3463.8034     1498.571    930.62459    884.74535    28.379786    18.846083    14.337764    0.2397016   0.23969853   0.20653612   0.20644776    294.53812     41.49527    35.978931    34.423473    90.016431    119.66323    90.107069    18.845628    14.339389    28.380339      18.8438    14.347421 
   24000    298.95029    1.2509986    2205.2509   -1197.5068   -211.49952    2076.7285   -2309.5801   -1775.2705    44657.537 -0.067234084   -17.036218 -0.041707817    3635.6094    1638.7983     966.1803    884.38918    28.379754    18.846059    14.337761   0.23947756   0.23946931   0.19877713   0.19853769    298.95029     41.49527    35.978931    34.423473    90.016431    119.66323    90.107069    18.847691    14.339727     28.38404    18.850206      14.3544 
   25000    291.71079    1.2509986    2088.7953   -1212.9697   -211.49952    2073.6824   -2310.2557    -36.35198    44657.537 -0.067234084   -17.036218 -0.041707817    3538.3382    1564.2324    931.46669    892.02324      28.3797    18.846119    14.337677   0.22604399   0.22603846   0.17864512   0.17860682    291.71079     41.49527    35.978931    34.423473    90.016431    119.66323    90.107069    18.845761    14.337344    28.373444    18.849972    14.339505 
   26000    293.55913    1.2509986    2190.9657   -1172.4522   -211.49952    2080.7898   -2309.2806   -7.7467281    44657.537 -0.067234084   -17.036218 -0.041707817    3591.9086    1564.0123    978.74795    890.27974    28.379713    18.846123    14.337697   0.23145986    0.2314577   0.18535641   0.18524363    293.55913     41.49527    35.978931    34.423473    90.016431    119.66323    90.107069    18.846132    14.338843    28.373017    18.846221    14.347526 
   27000    301.71049    1.2509986    2215.9314   -1195.3314   -211.49952    2076.3967    -2309.194     881.7755    44657.537 -0.067234084   -17.036218 -0.041707817    3644.0601    1605.0721    1001.1196     884.5261    28.379682    18.846102    14.337684   0.23722743   0.23722415   0.19428041   0.19421743    301.71049     41.49527    35.978931    34.423473    90.016431    119.66323    90.107069    18.847828    14.336986     28.37533    18.847846    14.333024 
   28000     301.2075    1.2509986    2101.8135   -1201.2787   -211.49952    2076.0997    -2309.324   -1270.3922    44657.537 -0.067234084   -17.036218 -0.041707817    3536.3165    1547.3553    939.06407    896.47088    28.379863    18.846058    14.337754   0.21456596   0.21456152   0.17210405   0.17204933     301.2075     41.49527    35.978931    34.423473    90.016431    119.66323    90.107069    18.846175    14.337015    28.380692    18.842316    14.336709 
   29000    295.97863    1.2509986     2040.498   -1183.5267   -211.49952    2075.6941   -2309.6788    1604.2922    44657.537 -0.067234084   -17.036218 -0.041707817    3458.0095    1501.0484    925.38717    882.34125    28.379943    18.846059    14.337828   0.24113181   0.24112995   0.20023547   0.20015814    295.97863     41.49527    35.978931    34.423473    90.016431    119.66323    90.107069    18.845736    14.337254    28.379049    18.845029    14.331815 
   30000    291.98084    1.2509986    2051.1774   -1189.5804   -211.49952    2069.5849   -2309.7786     519.8683    44657.537 -0.067234084   -17.036218 -0.041707817    3480.9516    1552.3312    921.87174    860.98461    28.379959    18.846112    14.337835   0.23442726   0.23441973   0.19205954   0.19192896    291.98084     41.49527    35.978931    34.423473    90.016431    119.66323    90.107069    18.846709    14.338598    28.390025    18.845505    14.342583 
   31000    296.58808    1.2509986     2028.864   -1218.4645   -211.49952    2082.4033   -2309.1182   -134.34128    44657.537 -0.067234084   -17.036218 -0.041707817    3474.0434    1526.6549     927.4293    871.57308    28.379883    18.846116    14.337781   0.23953095   0.23953075   0.20236768   0.20233044    296.58808     41.49527    35.978931    34.423473    90.016431    119.66323    90.107069    18.846258    14.337606    28.377911    18.844129    14.336372 
   32000     295.8878    1.2509986    2099.0347    -1194.632   -211.49952    2081.5694   -2309.1887    105.57022    44657.537 -0.067234084   -17.036218 -0.041707817     3521.286    1547.1443    964.75773    862.10457     28.37993     18.84615    14.337734   0.24840716   0.24840453   0.19588534   0.19580015     295.8878     41.49527    35.978931    34.423473    90.016431    119.66323    90.107069    18.845541    14.338397    28.373446    18.842793    14.342664 
   33000    290.72376    1.2509986    2065.8983   -1215.4065   -211.49952    2073.7703   -2309.0678   -398.12578    44657.537 -0.067234084   -17.036218 -0.041707817    3516.6023    1549.9063    934.23427     882.0415    28.379909    18.846165    14.337763    0.2472529   0.24724838   0.21238284   0.21234641    290.72376     41.49527    35.978931    34.423473    90.016431    119.66323    90.107069    18.848251    14.337277    28.381149    18.851466    14.334357 
   34000     294.8468    1.2509986       2115.9   -1209.5404   -211.49952    2071.9158   -2308.8676   -1710.4203    44657.537 -0.067234084   -17.036218 -0.041707817    3562.3922    1600.0527    957.56682    860.59611    28.379824    18.846199    14.337712   0.25055768   0.25055365   0.20163813   0.20146043     294.8468     41.49527    35.978931    34.423473    90.016431    119.66323    90.107069    18.844573    14.338642    28.391561    18.847359    14.345193 
   35000    300.46581    1.2509986    2166.0755    -1187.569   -211.49952    2075.1343   -2309.3641    615.59163    44657.537 -0.067234084   -17.036218 -0.041707817    3587.8743     1600.454    970.71492    862.75636    28.379811    18.846221     14.33774   0.24364008   0.24363889   0.21496345   0.21493432    300.46581     41.49527    35.978931    34.423473    90.016431    119.66323    90.107069    18.846743    14.338648    28.380711    18.844629    14.342567 
   36000    297.02375    1.2509986    2012.1629   -1214.9164   -211.49952    2073.3554   -2309.0702   -209.33768    44657.537 -0.067234084   -17.036218 -0.041707817    3462.7941    1547.7319    941.71489    826.30795    28.379839    18.846149     14.33776   0.24066989   0.24066698   0.19286417   0.19284045    297.02375     41.49527    35.978931    34.423473    90.016431    119.66323    90.107069    18.846468    14.336645     28.37941    18.851073    14.335228 
   37000    295.24529    1.2509986     2165.448   -1217.9467   -211.49952    2072.4493    -2309.736   -1806.2732    44657.537 -0.067234084   -17.036218 -0.041707817    3620.6814    1649.4884    948.68057    874.21009    28.379984    18.846211    14.337795   0.25147638   0.25147171   0.20880637   0.20871961    295.24529     41.49527    35.978931    34.423473    90.016431    119.66323    90.107069    18.846845    14.338953    28.378958    18.849512     14.34892 
   38000    305.36596    1.2509986    2087.8847   -1220.4123   -211.49952    2064.7649   -2310.4373   -3024.6692    44657.537 -0.067234084   -17.036218 -0.041707817    3553.9695     1580.852    955.77812    865.94799    28.379834    18.846189    14.337784   0.23407752    0.2340701   0.18616362   0.18599968    305.36596     41.49527    35.978931    34.423473    90.016431    119.66323    90.107069    18.846761    14.336911    28.370487     18.84591     14.33115 
   39000    299.94154    1.2509986     2139.373   -1204.6742   -211.49952    2077.3425   -2309.8816    615.78124    44657.537 -0.067234084   -17.036218 -0.041707817    3576.5862    1577.0857    943.60261    899.94723    28.379867    18.846093    14.337806   0.22687707    0.2268756   0.18346214   0.18342225    299.94154     41.49527    35.978931    34.423473    90.016431    119.66323    90.107069    18.847271    14.337885    28.385458    18.846802    14.339218 
   40000    297.85701    1.2509986    2171.1176   -1175.4943   -211.49952    2069.9977   -2309.7895     1317.059    44657.537 -0.067234084   -17.036218 -0.041707817    3586.4037    1554.0125    994.13428    876.90907    28.379862    18.846052      14.3378   0.23394742   0.23394045   0.19297588   0.19273301    297.85701     41.49527    35.978931    34.423473    90.016431    119.66323    90.107069    18.846354    14.336791    28.370743    18.847685    14.326854 
   41000    298.04414    1.2509986    2076.9832   -1222.4929   -211.49952    2073.8682   -2309.8934    216.83811    44657.537 -0.067234084   -17.036218 -0.041707817    3535.5013    1581.3736    952.88915    855.12484    28.379878     18.84604    14.337775   0.23713853   0.23713765   0.20372631   0.20358658    298.04414     41.49527    35.978931    34.423473    90.016431    119.66323    90.107069    18.846118    14.336858    28.382192    18.843371    14.329591 
   42000    293.44414    1.2509986    2084.1492   -1201.6135   -211.49952    2077.7486   -2309.1756   -129.34637    44657.537 -0.067234084   -17.036218 -0.041707817    3517.1897    1561.6775    942.77256    862.55094    28.379852    18.846118    14.337759    0.2471275   0.24712741   0.20262944   0.20262229    293.44414     41.49527    35.978931    34.423473    90.016431    119.66323    90.107069    18.846291    14.337633    28.378405    18.846672    14.339052 
   43000    295.98608    1.2509986    2031.1285   -1195.5822   -211.49952    2080.3427   -2309.1105    1902.7185    44657.537 -0.067234084   -17.036218 -0.041707817    3455.4786     1552.529    918.89337    839.30582    28.379726    18.846129    14.337731    0.2497261   0.24972455   0.19539895   0.19528698    295.98608     41.49527    35.978931    34.423473    90.016431    119.66323    90.107069     18.84711    14.338254      28.3889    18.845739    14.335903 
   44000    298.16297    1.2509986    2067.6759   -1221.1791   -211.49952    2078.7365   -2309.7032   -463.79228    44657.537 -0.067234084   -17.036218 -0.041707817    3519.8217      1560.44    936.69428    871.83574    28.379674    18.846075    14.337757   0.23493251   0.23493214   0.18654477   0.18647053    298.16297     41.49527    35.978931    34.423473    90.016431    119.66323    90.107069    18.846366    14.338302    28.373453    18.843266    14.341632 
   45000    295.29685    1.2509986    2186.3191   -1188.2664   -211.49952    2078.1373    -2309.011     775.6568    44657.537 -0.067234084   -17.036218 -0.041707817    3605.4591    1568.7514    967.45804    913.14766     28.37973    18.846064    14.337756   0.23190539   0.23190401     0.176867   0.17680026    295.29685     41.49527    35.978931    34.423473    90.016431    119.66323    90.107069    18.846472    14.337087    28.378488    18.846771    14.331855 
   46000    300.11792    1.2509986    2166.7927   -1217.7528   -211.49952    2081.1279   -2309.6407   -987.55782    44657.537 -0.067234084   -17.036218 -0.041707817    3613.0583    1566.3537    993.29464    896.60308      28.3798    18.846059     14.33771   0.24581996    0.2458179   0.20215033    0.2021241    300.11792     41.49527    35.978931    34.423473    90.016431    119.66323    90.107069    18.844799    14.337501    28.376989    18.844917    14.337946 
   47000    297.88978    1.2509986    2110.5155   -1178.2905   -211.49952    2074.7164   -2309.6105   -608.72442    44657.537 -0.067234084   -17.036218 -0.041707817    3523.7001    1550.3457    928.22981    891.34373    28.379926    18.846039    14.337703   0.24321225   0.24320627   0.21898918   0.21894626    297.88978     41.49527    35.978931    34.423473    90.016431    119.66323    90.107069    18.844395    14.338125    28.379427    18.843165    14.336688 
   48000     294.6709    1.2509986     2123.193   -1188.3277   -211.49952    2073.1038   -2309.5439    625.87461    44657.537 -0.067234084   -17.036218 -0.041707817    3547.9608    1583.6108    933.73491    876.82917    28.379792    18.846043    14.337705   0.21433828   0.21433743   0.18147578   0.18139495     294.6709     41.49527    35.978931    34.423473    90.016431    119.66323    90.107069    18.846456    14.336876    28.379764    18.848168     14.33069 
   49000    303.95565    1.2509986    2071.9443   -1217.8898   -211.49952    2072.9307   -2309.8914   -1536.2134    44657.537 -0.067234084   -17.036218 -0.041707817    3526.7948     1556.951    956.26465    862.74858    28.379802     18.84607    14.337704   0.21238329   0.21237838   0.18070251   0.18063746    303.95565     41.49527    35.978931    34.423473    90.016431    119.66323    90.107069    18.847416    14.337036    28.372503    18.851491    14.336611 
   50000     299.3721    1.2509986    2107.5637   -1201.3407   -211.49952    2078.9892   -2309.7988   -1051.6338    44657.537 -0.067234084   -17.036218 -0.041707817     3539.714    1591.2108    903.13161    891.83462    28.379943    18.846039    14.337762   0.21962406   0.21962234   0.19107474   0.19104399     299.3721     41.49527    35.978931    34.423473    90.016431    119.66323    90.107069     18.84679    14.338275     28.37966    18.843972     14.33733 
   51000    298.96582    1.2509986    2092.3838    -1200.008   -211.49952    2076.4233   -2309.5322    17.510157    44657.537 -0.067234084   -17.036218 -0.041707817    3525.5007    1548.1554    941.70269    879.34742    28.380006    18.846043    14.337778   0.22849318   0.22848411   0.19430259   0.19419744    298.96582     41.49527    35.978931    34.423473    90.016431    119.66323    90.107069    18.847827    14.336483    28.371127    18.850491    14.333989 
   52000    297.41975    1.2509986    2114.4693   -1189.0689   -211.49952    2072.4505   -2309.7282   -219.03847    44657.537 -0.067234084   -17.036218 -0.041707817    3540.8158    1551.5489    953.24407    877.73824    28.380094    18.845997    14.337815   0.23423013   0.23422206   0.19411729   0.19402807    297.41975     41.49527    35.978931    34.423473    90.016431    119.66323    90.107069    18.844847    14.338973    28.380328    18.843414    14.347206 
   53000    292.45724    1.2509986    2128.8215   -1176.2263   -211.49952    2074.0245   -2308.9427    490.53254    44657.537 -0.067234084   -17.036218 -0.041707817     3539.966    1574.7939    949.04728    864.59479    28.379952     18.84598    14.337781     0.231763   0.23175699   0.19596547   0.19590649    292.45724     41.49527    35.978931    34.423473    90.016431    119.66323    90.107069     18.84752    14.336261    28.382684    18.849296    14.332629 
   54000    298.52841    1.2509986    2130.1656   -1195.2174   -211.49952    2076.0148   -2309.7302   -1153.6388    44657.537 -0.067234084   -17.036218 -0.041707817    3559.0984    1577.6662    948.37869    880.89202    28.379892    18.845985    14.337795   0.23698168    0.2369788   0.19353352   0.19348711    298.52841     41.49527    35.978931    34.423473    90.016431    119.66323    90.107069    18.846488    14.339017    28.375398    18.852802    14.343479 
   55000    301.05884    1.2509986    2096.9286   -1213.3169   -211.49952    2073.0214   -2309.6144   -725.71486    44657.537 -0.067234084   -17.036218 -0.041707817    3546.8385    1582.4793    926.24278    886.73828    28.379862    18.846019    14.337762   0.23509487   0.23509417   0.19230795   0.19228738    301.05884     41.49527    35.978931    34.423473    90.016431    119.66323    90.107069    18.845571    14.337414    28.382871    18.846784    14.341787 
   56000    295.25012    1.2509986    2074.2046    -1172.533   -211.49952    2078.8237   -2309.0196   -176.82039    44657.537 -0.067234084   -17.036218 -0.041707817    3476.9335    1562.3237    921.75943    844.51686    28.379921    18.846067    14.337794   0.25663488   0.25662789   0.21208665   0.21177473    295.25012     41.49527    35.978931    34.423473    90.016431    119.66323    90.107069    18.847551    14.338438    28.361922    18.849538    14.338829 
   57000    301.92276    1.2509986    2162.8088   -1197.7476   -211.49952    2074.2895   -2308.9341   -2040.4234    44657.537 -0.067234084   -17.036218 -0.041707817     3595.201    1607.8871    950.18878    877.72858    28.379868    18.846117    14.337817   0.25225309   0.25224596   0.21277964   0.21267407    301.92276     41.49527    35.978931    34.423473    90.016431    119.66323    90.107069    18.846981    14.338332    28.389418    18.848285    14.342429 
   58000    304.68641    1.2509986    2069.5284   -1214.5814   -211.49952    2077.7921   -2309.5252   -230.03529    44657.537 -0.067234084   -17.036218 -0.041707817    3515.8429    1596.4069    926.18097    846.22052    28.379809    18.846077    14.337802   0.25882795    0.2588217   0.23303065   0.23284683    304.68641     41.49527    35.978931    34.423473    90.016431    119.66323    90.107069    18.844736    14.337917    28.390685    18.841294    14.340263 
   59000    297.67264    1.2509986    2161.2812   -1224.1361   -211.49952    2076.9247   -2309.5985   -634.16645    44657.537 -0.067234084   -17.036218 -0.041707817    3618.0912    1623.5854    937.32455    903.16632    28.379677    18.846062    14.337751   0.22591768   0.22591403   0.19331069   0.19313737    297.67264     41.49527    35.978931    34.423473    90.016431    119.66323    90.107069    18.847221    14.336953    28.387535    18.850413     14.32926 
   60000    300.75316    1.2509986    2095.3524   -1185.8213   -211.49952    2073.6462   -2309.6041    803.90904    44657.537 -0.067234084   -17.036218 -0.041707817    3517.1316    1570.9357    926.23227    868.46147     28.37965    18.846089    14.337713   0.22413221    0.2241292   0.18102546    0.1809599    300.75316     41.49527    35.978931    34.423473    90.016431    119.66323    90.107069    18.845504      14.3381    28.373239    18.847848    14.344566 
   61000    294.07692    1.2509986    2084.6969   -1225.0882   -211.49952     2073.688   -2309.6381   -767.71548    44657.537 -0.067234084   -17.036218 -0.041707817    3545.7352    1564.3467    946.00118    879.35851    28.379753    18.846122    14.337701   0.22769914   0.22769783   0.18649472   0.18645202    294.07692     41.49527    35.978931    34.423473    90.016431    119.66323    90.107069    18.847139    14.338323    28.373882    18.846802    14.337268 
   62000    300.12093    1.2509986    2074.7571   -1191.3047   -211.49952    2077.9773   -2309.6539    659.36753    44657.537 -0.067234084   -17.036218 -0.041707817    3497.7384    1514.4654    978.42598    856.45417    28.379778    18.846043    14.337662   0.25118974   0.25118573   0.20761047   0.20757386    300.12093     41.49527    35.978931    34.423473    90.016431    119.66323    90.107069    18.847918    14.337904    28.384364     18.85202    14.337526 
   63000    298.63904    1.2509986    2093.7775   -1195.5258   -211.49952    2069.0232   -2310.2969   -373.54168    44657.537 -0.067234084   -17.036218 -0.041707817     3530.577    1575.4575    937.25762     869.8123    28.379837    18.846035    14.337697   0.23026493   0.23025771   0.18760463   0.18745817    298.63904     41.49527    35.978931    34.423473    90.016431    119.66323    90.107069    18.848574    14.337038    28.381553    18.858544    14.332453 
   64000    299.27436    1.2509986    2098.5505   -1171.3993   -211.49952    2079.9613   -2309.3584    917.02632    44657.537 -0.067234084   -17.036218 -0.041707817    3499.3469     1526.456    957.51847      865.611    28.379754    18.846102    14.337688   0.23559309   0.23558782   0.19312157   0.19306128    299.27436     41.49527    35.978931    34.423473    90.016431    119.66323    90.107069     18.84544    14.337111    28.381268    18.846441    14.332514 
   65000    291.47953    1.2509986     2138.325   -1195.5803   -211.49952    2074.8845   -2309.6391    877.59097    44657.537 -0.067234084   -17.036218 -0.041707817    3568.6598    1565.7604    951.32684    898.07277    28.379846    18.846141    14.337705   0.22135856   0.22135368   0.18061661   0.18056345    291.47953     41.49527    35.978931    34.423473    90.016431    119.66323    90.107069    18.847003    14.337552    28.383689    18.847355    14.333865 
   66000    297.00111    1.2509986     2081.728   -1199.5538   -211.49952    2071.6707   -2309.5495   -1110.4313    44657.537 -0.067234084   -17.036218 -0.041707817    3519.1606    1588.4562    947.10504    838.43207     28.37976    18.846186    14.337671   0.26703458   0.26702636   0.22064775   0.22044373    297.00111     41.49527    35.978931    34.423473    90.016431    119.66323    90.107069    18.845365    14.338163    28.391091     18.84448    14.332537 
   67000    293.91789    1.2509986    2095.3755   -1192.1258   -211.49952    2077.9321   -2309.1568     1067.221    44657.537 -0.067234084   -17.036218 -0.041707817     3518.726    1594.4613    923.93221    853.15141    28.379626    18.846143    14.337635   0.26284669   0.26284362   0.21413331   0.21410095    293.91789     41.49527    35.978931    34.423473    90.016431    119.66323    90.107069    18.844595    14.338386    28.380953    18.843694    14.341097 
   68000    301.41297    1.2509986    2038.6319   -1249.9233   -211.49952    2073.6321   -2309.5011   -3445.6073    44657.537 -0.067234084   -17.036218 -0.041707817    3524.4242    1573.8685    916.28607    882.09074    28.379705    18.846132     14.33762   0.25543137   0.25542478   0.21266118   0.21243798    301.41297     41.49527    35.978931    34.423473    90.016431    119.66323    90.107069    18.848158    14.336197    28.374595    18.854602    14.326702 
   69000    299.50341    1.2509986    2133.6779    -1194.434   -211.49952    2078.3554   -2309.2408   -324.01166    44657.537 -0.067234084   -17.036218 -0.041707817    3558.9973    1591.4628    953.74423    863.49146    28.379691    18.846125    14.337596   0.25143851   0.25143149   0.21337439   0.21331607    299.50341     41.49527    35.978931    34.423473    90.016431    119.66323    90.107069    18.844412    14.337924    28.377383    18.841694    14.339459 
   70000    302.18096    1.2509986    2146.3972   -1190.2488   -211.49952    2078.6166   -2309.1135    812.18389    44657.537 -0.067234084   -17.036218 -0.041707817    3567.1428    1592.4103    950.99391    875.89894    28.379737    18.846193    14.337629   0.25089508   0.25089315    0.2066664   0.20656534    302.18096     41.49527    35.978931    34.423473    90.016431    119.66323    90.107069    18.846737    14.336539    28.379959    18.846993    14.329798 
   71000    292.68666    1.2509986    2148.8318   -1198.6523   -211.49952    2077.3053   -2309.4663   -1704.2015    44657.537 -0.067234084   -17.036218 -0.041707817    3579.6451    1555.4679    966.78449    903.65345    28.379726    18.846174     14.33767   0.25682602   0.25681862   0.21073382   0.21067562    292.68666     41.49527    35.978931    34.423473    90.016431    119.66323    90.107069     18.84671    14.338422    28.387072    18.848532    14.338422 
   72000    295.58123    1.2509986    2126.8088   -1212.4926   -211.49952    2079.3546    -2309.487    272.89953    44657.537 -0.067234084   -17.036218 -0.041707817    3569.4338     1568.295    960.00338    893.42035    28.379639     18.84612    14.337672      0.23943   0.23942858   0.19293385    0.1928662    295.58123     41.49527    35.978931    34.423473    90.016431    119.66323    90.107069    18.845474     14.33763    28.382404    18.843634    14.334105 
   73000     296.7296    1.2509986    2039.6249   -1204.7361   -211.49952    2077.5929   -2310.0638    1078.4698    44657.537 -0.067234084   -17.036218 -0.041707817     3476.832     1570.087    917.57468    843.31511    28.379818    18.846191    14.337726   0.22631137   0.22630798   0.17825379   0.17819741     296.7296     41.49527    35.978931    34.423473    90.016431    119.66323    90.107069    18.846497    14.337496    28.384104    18.845647    14.334702 
   74000    290.74648    1.2509986    2113.7847   -1184.1055   -211.49952    2076.5361   -2309.3389   -482.98521    44657.537 -0.067234084   -17.036218 -0.041707817    3530.6931    1556.9266    928.20705    891.13991    28.379766    18.846176     14.33774   0.25947028   0.25946916   0.21968376   0.21965344    290.74648     41.49527    35.978931    34.423473    90.016431    119.66323    90.107069    18.845741    14.338113      28.3803    18.843557     14.33965 
   75000     298.0631    1.2509986    2072.4708   -1246.2976   -211.49952    2081.5038    -2309.565   -1817.2053    44657.537 -0.067234084   -17.036218 -0.041707817    3546.8296    1589.9349    965.87349    845.06749     28.37967    18.846195    14.337666    0.2354859   0.23548082   0.19384212   0.19384114     298.0631     41.49527    35.978931    34.423473    90.016431    119.66323    90.107069    18.847531    14.338218    28.379849    18.848068    14.339617 
   76000    301.01698    1.2509986     2108.858   -1180.4954   -211.49952    2074.5623   -2309.7297   -191.53517    44657.537 -0.067234084   -17.036218 -0.041707817    3524.5208    1571.8648    918.97491    882.88964    28.379761    18.846163    14.337674   0.24903393   0.24902756   0.21325664   0.21302788    301.01698     41.49527    35.978931    34.423473    90.016431    119.66323    90.107069    18.845177    14.338857    28.368867    18.841891    14.347623 
   77000    293.29761    1.2509986     2123.909   -1174.5314   -211.49952    2076.4355   -2309.3225   -249.73716    44657.537 -0.067234084   -17.036218 -0.041707817    3531.3274    1610.1653    922.08085    851.14378    28.379759    18.846232     14.33761   0.25305707   0.25305669   0.20583784   0.20578471    293.29761     41.49527    35.978931    34.423473    90.016431    119.66323    90.107069    18.846695     14.33767    28.384303    18.845005    14.343451 
   78000    299.02437    1.2509986    2134.9111   -1206.2166   -211.49952    2077.9113   -2309.4599   -1069.0749    44657.537 -0.067234084   -17.036218 -0.041707817    3572.6764    1603.2375    914.18767    902.40074    28.379693    18.846263    14.337649    0.2453018    0.2452985    0.2100777   0.20999948    299.02437     41.49527    35.978931    34.423473    90.016431    119.66323    90.107069     18.84747    14.336469    28.382836    18.853273    14.332615 
   79000    294.50535    1.2509986    2134.5681   -1181.8555   -211.49952    2081.0238   -2309.3751    1160.5862    44657.537 -0.067234084   -17.036218 -0.041707817    3544.7749    1557.6304    963.70355    874.33897    28.379693    18.846238    14.337695   0.24478713   0.24478484   0.20730646   0.20718868    294.50535     41.49527    35.978931    34.423473    90.016431    119.66323    90.107069    18.846346    14.338992    28.372514    18.847334    14.347723 
   80000    294.97567    1.2509986    2062.1783   -1188.3648   -211.49952    2073.0603   -2309.7364    1492.9659    44657.537 -0.067234084   -17.036218 -0.041707817    3487.2192    1530.1635    918.72917    886.10252    28.379618    18.846279     14.33766   0.23049635   0.23049167   0.18984667   0.18961743    294.97567     41.49527    35.978931    34.423473    90.016431    119.66323    90.107069    18.846036    14.338252    28.365787    18.844419    14.335333 
   81000    299.42333    1.2509986    2001.4118    -1240.832   -211.49952    2069.3457   -2309.8267   -1193.4504    44657.537 -0.067234084   -17.036218 -0.041707817    3482.7247    1508.1434    931.95318    893.83617    28.379576    18.846282    14.337664   0.22609429   0.22609326   0.19280425   0.19275905    299.42333     41.49527    35.978931    34.423473    90.016431    119.66323    90.107069    18.846284    14.338487    28.374384    18.844778     14.33893 
   82000    306.48342    1.2509986    2088.3741   -1216.9519   -211.49952    2072.1456   -2310.0667   -847.00768    44657.537 -0.067234084   -17.036218 -0.041707817     3543.247    1612.9489    913.79066    861.63618    28.379608    18.846254    14.337694   0.23696354   0.23696215   0.21472204   0.21465442    306.48342     41.49527    35.978931    34.423473    90.016431    119.66323    90.107069    18.846122    14.336947    28.386696    18.849867    14.335648 
   83000    302.34439    1.2509986     2111.871   -1212.2317   -211.49952     2076.154   -2308.8875    -2968.373    44657.537 -0.067234084   -17.036218 -0.041707817    3556.8363    1623.1477     909.4382    875.25664    28.379555    18.846272    14.337659   0.24245347   0.24245277   0.19970103   0.19958844    302.34439     41.49527    35.978931    34.423473    90.016431    119.66323    90.107069    18.846746    14.337123    28.389313    18.846152    14.336601 
   84000    294.43752    1.2509986    2102.1034   -1197.6713   -211.49952     2075.808   -2309.3274   -641.73564    44657.537 -0.067234084   -17.036218 -0.041707817    3533.2942    1560.6505    943.47417    879.22194    28.379632    18.846188    14.337665   0.26015565   0.26015241   0.21397943   0.21393836    294.43752     41.49527    35.978931    34.423473    90.016431    119.66323    90.107069    18.847832    14.337234    28.379333    18.850043    14.333316 
   85000    297.93306    1.2509986    2050.5427    -1223.639   -211.49952    2072.4452   -2309.7048   -454.13637    44657.537 -0.067234084   -17.036218 -0.041707817    3511.4414    1579.9358    909.92669    872.64278    28.379709    18.846174    14.337686   0.23874724   0.23874592   0.19864216   0.19853037    297.93306     41.49527    35.978931    34.423473    90.016431    119.66323    90.107069    18.845872    14.337638    28.388381    18.843213    14.339108 
   86000    295.50601    1.2509986    2070.6644   -1195.1509   -211.49952    2077.2026   -2309.7999    137.35252    44657.537 -0.067234084   -17.036218 -0.041707817    3498.4126    1488.8997    948.16819    903.19561    28.379685    18.846209    14.337649   0.23172365   0.23172298   0.19598514    0.1959282    295.50601     41.49527    35.978931    34.423473    90.016431    119.66323    90.107069     18.84601     14.33732    28.382621    18.847272    14.332966 
   87000    300.76131    1.2509986    2112.6041   -1215.3438   -211.49952    2076.1269    -2309.803    454.85769    44657.537 -0.067234084   -17.036218 -0.041707817    3561.6239    1589.2388    937.11771    883.48204    28.379703    18.846225    14.337684   0.23716999   0.23716812   0.20348467   0.20341652    300.76131     41.49527    35.978931    34.423473    90.016431    119.66323    90.107069    18.844832    14.337924     28.38564    18.843491    14.340449 
   88000    300.34205    1.2509986     2072.561   -1182.6224   -211.49952    2075.4448   -2309.6943    1896.1172    44657.537 -0.067234084   -17.036218 -0.041707817    3489.4328    1514.6929    937.37074    882.47028    28.379717    18.846237    14.337672   0.23946281    0.2394617     0.196601   0.19657101    300.34205     41.49527    35.978931    34.423473    90.016431    119.66323    90.107069    18.846032    14.338122    28.377187    18.844311    14.338134 
   89000    298.01952    1.2509986    2106.4295   -1199.8554   -211.49952    2073.7426   -2309.6182   -964.01475    44657.537 -0.067234084   -17.036218 -0.041707817    3542.1606    1538.0279    939.57005    907.55397    28.379747    18.846204    14.337698   0.22375782   0.22375738   0.19477461   0.19474077    298.01952     41.49527    35.978931    34.423473    90.016431    119.66323    90.107069     18.84577    14.337945    28.382387    18.844401    14.341774 
   90000    299.51925    1.2509986    2099.9094   -1221.8069   -211.49952    2072.9692   -2309.8705   -1711.2106    44657.537 -0.067234084   -17.036218 -0.041707817    3558.6176    1569.8756    950.81724    887.75014     28.37979     18.84623    14.337712   0.23065015   0.23064723   0.18843338   0.18835184    299.51925     41.49527    35.978931    34.423473    90.016431    119.66323    90.107069     18.84746    14.338306    28.388496    18.849283    14.340887 
   91000    299.43121    1.2509986    2139.8535   -1181.1803   -211.49952    2071.2082    -2309.498   -786.03951    44657.537 -0.067234084   -17.036218 -0.041707817    3559.3235    1607.2166    944.55923    857.39621    28.379729    18.846188    14.337739   0.24649842   0.24649617   0.20774606   0.20763329    299.43121     41.49527    35.978931    34.423473    90.016431    119.66323    90.107069    18.845716    14.337415    28.375381    18.840402    14.335035 
   92000    295.89907    1.2509986    2031.2002   -1225.3804   -211.49952    2069.6928   -2310.0466   -1081.7597    44657.537 -0.067234084   -17.036218 -0.041707817    3496.9344    1560.9942    911.59447    874.55211    28.379684    18.846156     14.33772   0.24962826   0.24962449   0.21063482   0.21061967    295.89907     41.49527    35.978931    34.423473    90.016431    119.66323    90.107069    18.845921    14.338593    28.377928    18.847196    14.342671 
   93000    300.39796    1.2509986    2093.1158   -1193.2557   -211.49952    2069.3451   -2310.2937    607.56699    44657.537 -0.067234084   -17.036218 -0.041707817    3527.3201    1555.0005    933.45501    879.63122    28.379658    18.846136    14.337733   0.23663704   0.23663575   0.20114389    0.2011389    300.39796     41.49527    35.978931    34.423473    90.016431    119.66323    90.107069    18.847217    14.338078    28.378854    18.846913    14.339931 
   94000     296.2787    1.2509986    2085.2753   -1194.0749   -211.49952    2076.7426   -2309.5765   -72.746884    44657.537 -0.067234084   -17.036218 -0.041707817    3512.1841    1562.0172    932.97037    868.19209    28.379795    18.846173    14.337722   0.24950198   0.24949932    0.2035852   0.20350074     296.2787     41.49527    35.978931    34.423473    90.016431    119.66323    90.107069     18.84584    14.339317    28.375189    18.843686    14.345721 
   95000    293.83276    1.2509986    2116.2853   -1222.1521   -211.49952    2072.5649   -2309.8237   -1616.8656    44657.537 -0.067234084   -17.036218 -0.041707817    3575.6963     1602.268    974.14577    849.59005    28.379746    18.846161    14.337679   0.23592381   0.23591054   0.19553554   0.19548577    293.83276     41.49527    35.978931    34.423473    90.016431    119.66323    90.107069    18.845934    14.338946    28.384858    18.845489    14.342679 
   96000    290.74158    1.2509986    2152.7449   -1178.2316   -211.49952    2072.6686   -2309.7838    468.09218    44657.537 -0.067234084   -17.036218 -0.041707817    3568.0918    1582.1764    916.40206    910.70257    28.379765    18.846143    14.337692   0.23172441   0.23171517   0.20107021   0.20093666    290.74158     41.49527    35.978931    34.423473    90.016431    119.66323    90.107069     18.84629    14.338263    28.368255    18.849583    14.337292 
   97000    295.42046    1.2509986    2133.1217   -1187.0996   -211.49952    2072.6482   -2309.6167    188.56939    44657.537 -0.067234084   -17.036218 -0.041707817    3557.1898    1607.4151    927.94953    876.48013    28.379779    18.846142    14.337672   0.23232759   0.23232455   0.19280118    0.1927546    295.42046     41.49527    35.978931    34.423473    90.016431    119.66323    90.107069    18.844987    14.338083    28.374531    18.844398    14.339458 
   98000    297.26211    1.2509986     2120.145   -1197.0659   -211.49952    2074.5791   -2309.4382   -731.23717    44657.537 -0.067234084   -17.036218 -0.041707817      3552.07    1544.1667    966.39427    886.17887    28.379835    18.846156    14.337678   0.22853226   0.22852391   0.19357945   0.19341843    297.26211     41.49527    35.978931    34.423473    90.016431    119.66323    90.107069    18.848673    14.336301    28.380061    18.851075    14.327127 
   99000    294.08258    1.2509986    2083.8695   -1201.6728   -211.49952    2079.4645   -2309.3527   -205.96598    44657.537 -0.067234084   -17.036218 -0.041707817    3515.4305    1536.5146    951.89762    877.60147    28.379825    18.846172    14.337675   0.24959657   0.24958428    0.2160561   0.21596592    294.08258     41.49527    35.978931    34.423473    90.016431    119.66323    90.107069    18.845337    14.338534    28.385896    18.842374    14.342073 
  100000    300.81302    1.2509986    2184.0394    -1177.179   -211.49952    2076.0676   -2309.2295    1177.3945    44657.537 -0.067234084   -17.036218 -0.041707817    3594.3803    1586.1935    970.73287    888.62056     28.37971    18.846164    14.337623   0.23735186   0.23734445    0.1901525   0.19001035    300.81302     41.49527    35.978931    34.423473    90.016431    119.66323    90.107069    18.846175     14.33653    28.367814    18.847335    14.338441 
  101000    305.07125    1.2509986    2085.6354   -1212.6134   -211.49952    2074.6191   -2309.6707    -1268.115    44657.537 -0.067234084   -17.036218 -0.041707817    3533.3004    1578.7701    942.63218    862.10706    28.379683    18.846182    14.337653   0.21815273   0.21814401   0.18184427   0.18170746    305.07125     41.49527    35.978931    34.423473    90.016431    119.66323    90.107069    18.846724    14.336145    28.372877    18.842571    14.332518 
  102000    295.39844    1.2509986    2030.1478   -1220.0997   -211.49952    2077.5786   -2309.4538   -246.88724    44657.537 -0.067234084   -17.036218 -0.041707817    3482.1226     1568.353    916.59343     853.1779    28.379671    18.846235    14.337654   0.22142465   0.22142281     0.182105   0.18204399    295.39844     41.49527    35.978931    34.423473    90.016431    119.66323    90.107069     18.84487    14.337697    28.378587    18.843285    14.334417 
  103000    300.62619    1.2509986    2093.9654   -1197.2255   -211.49952    2078.8772   -2310.0727    951.59462    44657.537 -0.067234084   -17.036218 -0.041707817    3522.3865    1562.8977    936.05026    875.77698    28.379709    18.846289    14.337681    0.2388716   0.23886092   0.18989116    0.1896751    300.62619     41.49527    35.978931    34.423473    90.016431    119.66323    90.107069    18.845974    14.337648    28.364898    18.848631    14.338617 
  104000    303.09454    1.2509986    2097.5221   -1166.3425   -211.49952    2071.1728   -2310.3737    1695.8469    44657.537 -0.067234084   -17.036218 -0.041707817    3503.0655    1524.7909    966.63393     862.8289    28.379752    18.846276    14.337742   0.23876764   0.23876515   0.19986406   0.19978658    303.09454     41.49527    35.978931    34.423473    90.016431    119.66323    90.107069    18.845172    14.338085    28.375948    18.843639    14.345603 
  105000    298.75073    1.2509986    2176.0856   -1187.9473   -211.49952    2076.7827   -2309.4045    595.17655    44657.537 -0.067234084   -17.036218 -0.041707817    3596.6546    1583.8381     985.5362     876.6437    28.379662     18.84627    14.337692   0.23092224   0.23091945   0.20102372   0.20100262    298.75073     41.49527    35.978931    34.423473    90.016431    119.66323    90.107069    18.846047    14.338065    28.375699    18.846768    14.340727 
  106000    297.53727    1.2509986    2094.2417   -1210.6082   -211.49952    2079.6899   -2309.4083    44.193502    44657.537 -0.067234084   -17.036218 -0.041707817    3534.5683    1564.9224    912.73051    904.06465    28.379764    18.846246    14.337718   0.23088218   0.23087148   0.19700832   0.19690063    297.53727     41.49527    35.978931    34.423473    90.016431    119.66323    90.107069    18.845855    14.335744    28.379015    18.848041    14.329321 
  107000    292.09447    1.2509986    2114.5468   -1213.3191   -211.49952    2081.5218   -2309.3346   -999.51365    44657.537 -0.067234084   -17.036218 -0.041707817    3555.6787    1564.4339    943.44065    897.03902    28.379771    18.846254      14.3377    0.2270448   0.22704478   0.19117637   0.19114255    292.09447     41.49527    35.978931    34.423473    90.016431    119.66323    90.107069    18.846156    14.337841    28.384737    18.848857       14.337 
  108000    299.82291    1.2509986    2095.6297   -1217.2812   -211.49952    2076.5574   -2309.0647   -2375.1985    44657.537 -0.067234084   -17.036218 -0.041707817    3545.4182    1582.7093    925.06384     882.5581    28.379769    18.846263    14.337671   0.21951199   0.21949994   0.18074559   0.18048903    299.82291     41.49527    35.978931    34.423473    90.016431    119.66323    90.107069    18.844721    14.336513    28.368255    18.838625    14.335064 
  109000    296.79589    1.2509986    2127.6083   -1199.6915   -211.49952     2082.502   -2308.7539   -1092.1738    44657.537 -0.067234084   -17.036218 -0.041707817    3553.5517    1559.3329    929.10215     907.0879      28.3798    18.846276    14.337702    0.2461765   0.24617345    0.2054874   0.20527537    296.79589     41.49527    35.978931    34.423473    90.016431    119.66323    90.107069    18.845436    14.339055    28.369288    18.843496    14.348365 
  110000    295.75476    1.2509986    2138.7535   -1208.3808   -211.49952    2077.7904   -2308.8549   -1542.2407    44657.537 -0.067234084   -17.036218 -0.041707817    3578.1987     1589.158    929.04218    903.70559    28.379846    18.846199    14.337719   0.24842425   0.24842056   0.21325167   0.21319358    295.75476     41.49527    35.978931    34.423473    90.016431    119.66323    90.107069     18.84732    14.338936    28.381588     18.84573     14.34621 
  111000    294.57645    1.2509986    2063.1528   -1213.2579   -211.49952    2076.5279   -2309.2541    268.84837    44657.537 -0.067234084   -17.036218 -0.041707817    3509.1369    1573.4012    928.31061    860.86756    28.379721    18.846085    14.337681   0.22785334   0.22785271   0.19046163   0.19043769    294.57645     41.49527    35.978931    34.423473    90.016431    119.66323    90.107069    18.846457     14.33833    28.375444    18.849216    14.342281 
  112000    293.06181    1.2509986    2106.3055   -1188.5136   -211.49952    2072.8306   -2309.6786   -1754.5147    44657.537 -0.067234084   -17.036218 -0.041707817     3531.667    1601.9921    957.26536    829.63239     28.37966    18.845964    14.337631   0.23108217   0.23107361   0.19598924   0.19587289    293.06181     41.49527    35.978931    34.423473    90.016431    119.66323    90.107069    18.847917    14.339384    28.376713    18.851176    14.349816 
  113000    296.99151    1.2509986    2075.3871   -1192.2956   -211.49952    2077.9061    -2309.311          801    44657.537 -0.067234084   -17.036218 -0.041707817    3499.0876    1549.1503    950.11172    854.28613    28.379709    18.845922    14.337651   0.22947839   0.22947827   0.19297352   0.19292665    296.99151     41.49527    35.978931    34.423473    90.016431    119.66323    90.107069    18.846112    14.337438    28.376581    18.843317    14.337279 
  114000    295.20624    1.2509986     2102.975   -1182.8166   -211.49952    2072.0683   -2309.4146      338.725    44657.537 -0.067234084   -17.036218 -0.041707817    3523.1379    1549.7574    944.12673    876.77183    28.379656    18.845962    14.337657   0.23593312   0.23593262   0.18639801   0.18633391    295.20624     41.49527    35.978931    34.423473    90.016431    119.66323    90.107069    18.846317     14.33784    28.379682    18.841022    14.340115 
  115000    303.87436    1.2509986    2079.9578   -1211.7842   -211.49952    2073.0145   -2309.8733   -1491.8967    44657.537 -0.067234084   -17.036218 -0.041707817    3528.6008    1547.3875    957.47241    875.48733    28.379695    18.845992    14.337674   0.24179003   0.24178552   0.19381358   0.19379444    303.87436     41.49527    35.978931    34.423473    90.016431    119.66323    90.107069     18.84669    14.337898    28.380366    18.848598    14.343918 
  116000    305.52225    1.2509986     2031.331   -1235.1307   -211.49952    2076.1124   -2310.2912   -1726.5596    44657.537 -0.067234084   -17.036218 -0.041707817    3500.6405     1576.801    919.24714    851.88355    28.379735    18.846073     14.33768   0.24911319   0.24911144   0.20952934    0.2094806    305.52225     41.49527    35.978931    34.423473    90.016431    119.66323    90.107069    18.846538    14.337021    28.382714    18.846574     14.33391 
  117000    301.30846    1.2509986    2122.2764   -1172.4832   -211.49952    2073.3228    -2309.654    106.00305    44657.537 -0.067234084   -17.036218 -0.041707817    3531.0908    1589.8194    949.19782    845.33712    28.379793    18.846134    14.337684    0.2484648   0.24846431   0.19600981   0.19595227    301.30846     41.49527    35.978931    34.423473    90.016431    119.66323    90.107069     18.84567    14.337441    28.376332    18.844505    14.334459 
  118000    301.93681    1.2509986    2102.3342   -1208.3571   -211.49952    2080.0445   -2309.5012   -861.42577    44657.537 -0.067234084   -17.036218 -0.041707817    3540.1479    1556.5738    957.67782    874.61478    28.379751    18.846082    14.337708   0.25881195   0.25880889   0.21887881   0.21886041    301.93681     41.49527    35.978931    34.423473    90.016431    119.66323    90.107069    18.846398    14.337869    28.380213     18.84479    14.339991 
  119000    297.44536    1.2509986    2100.3802   -1235.4702   -211.49952    2075.9986   -2309.4371    -3342.431    44657.537 -0.067234084   -17.036218 -0.041707817    3569.2889    1562.4395    953.84918    897.04781    28.379737    18.846101     14.33771   0.23501326   0.23500827   0.19178002   0.19154114    297.44536     41.49527    35.978931    34.423473    90.016431    119.66323    90.107069    18.845712    14.337605    28.390684    18.844026    14.330142 
  120000    295.25478    1.2509986    2130.6577   -1199.5005   -211.49952    2075.6959   -2309.6546    548.21827    44657.537 -0.067234084   -17.036218 -0.041707817    3564.1169    1600.3893    955.62925    860.86776     28.37984    18.846147    14.337765   0.23785786   0.23785224   0.19305381   0.19297933    295.25478     41.49527    35.978931    34.423473    90.016431    119.66323    90.107069    18.845107    14.337085    28.370939    18.848753    14.339261 
  121000    294.36089    1.2509986    2088.5517   -1203.5656   -211.49952    2075.5712   -2309.4104    569.53959    44657.537 -0.067234084   -17.036218 -0.041707817    3525.9565    1567.0619    911.12704    888.96121    28.379938    18.846128    14.337743   0.22911901   0.22911108   0.18139521   0.18109717    294.36089     41.49527    35.978931    34.423473    90.016431    119.66323    90.107069    18.845084    14.336968    28.388525    18.843268    14.326051 
  122000    300.59663    1.2509986    2036.4377     -1217.74   -211.49952    2070.8872   -2309.4903   -1779.9473    44657.537 -0.067234084   -17.036218 -0.041707817    3492.7808    1560.0529     904.6661     876.1143    28.379887    18.846083    14.337729   0.24365617   0.24365377   0.20804988   0.20796593    300.59663     41.49527    35.978931    34.423473    90.016431    119.66323    90.107069    18.845445    14.338768     28.38026     18.84075    14.343534 
  123000    301.43504    1.2509986    2102.7179   -1239.0889   -211.49952    2077.6102   -2309.7297   -875.34994    44657.537 -0.067234084   -17.036218 -0.041707817    3573.9263    1608.1905    925.98413    887.71236    28.379792    18.846107    14.337709   0.23174241   0.23172736   0.18946292   0.18933463    301.43504     41.49527    35.978931    34.423473    90.016431    119.66323    90.107069    18.845609    14.337802    28.371779    18.841596    14.343214 
  124000     290.9055    1.2509986    2077.5964   -1180.2584   -211.49952    2074.2832   -2309.1823    703.56679    44657.537 -0.067234084   -17.036218 -0.041707817    3492.7539    1555.2529    936.66077    849.89203    28.379888    18.846125    14.337754    0.2633431   0.26334242   0.22002957   0.22001802     290.9055     41.49527    35.978931    34.423473    90.016431    119.66323    90.107069    18.846579    14.338463    28.376415    18.848547    14.340849 
  125000    297.44504    1.2509986     2077.265   -1209.3498   -211.49952    2079.6828   -2309.3524     36.60276    44657.537 -0.067234084   -17.036218 -0.041707817    3516.2844    1556.6029    951.71762    856.95482    28.379755    18.846125    14.337741   0.26015354   0.26014985   0.21772363   0.21763919    297.44504     41.49527    35.978931    34.423473    90.016431    119.66323    90.107069    18.846754    14.338597    28.384513    18.852638    14.346474 
  126000    303.44067    1.2509986    2096.8307   -1211.6659   -211.49952     2073.426   -2309.5591   -1113.7046    44657.537 -0.067234084   -17.036218 -0.041707817    3544.6298    1581.1879     951.8333    866.43602    28.379812      18.8461    14.337693    0.2412615    0.2412511    0.1954045   0.19520759    303.44067     41.49527    35.978931    34.423473    90.016431    119.66323    90.107069    18.844797    14.337107    28.366814    18.843148    14.339265 
  127000    293.95913    1.2509986    2126.0161   -1194.9612   -211.49952    2076.0219   -2309.7157    178.06066    44657.537 -0.067234084   -17.036218 -0.041707817    3554.6711    1557.1093    939.47321    900.84902    28.379786    18.846141    14.337694   0.24031061    0.2403073   0.19531895   0.19517824    293.95913     41.49527    35.978931    34.423473    90.016431    119.66323    90.107069    18.844659    14.338116    28.372313     18.83962     14.33979 
  128000    296.11024    1.2509986    2073.6412   -1169.4282   -211.49952     2077.446   -2309.2598    787.70502    44657.537 -0.067234084   -17.036218 -0.041707817    3474.8833    1512.4362    932.32403    882.95763    28.379611    18.846178    14.337698   0.25067106   0.25066929   0.20519876   0.20502975    296.11024     41.49527    35.978931    34.423473    90.016431    119.66323    90.107069    18.845854    14.336789    28.378216    18.844258    14.327613 
  129000    295.96873    1.2509986    2029.9736   -1190.7318   -211.49952    2074.0316   -2309.7444    533.48576    44657.537 -0.067234084   -17.036218 -0.041707817    3456.4182    1555.8049    898.53607    855.74795    28.379655    18.846224    14.337681   0.25286329   0.25285928   0.21357442   0.21338267    295.96873     41.49527    35.978931    34.423473    90.016431    119.66323    90.107069    18.844407     14.33691    28.388045     18.84146    14.331723 
  130000    295.66996    1.2509986    2170.0667   -1188.1683   -211.49952    2072.6673   -2309.7447    442.33047    44657.537 -0.067234084   -17.036218 -0.041707817    3595.3125    1608.2144    956.53635    884.52642    28.379596    18.846252    14.337729   0.23741305   0.23740445   0.20051804   0.20032369    295.66996     41.49527    35.978931    34.423473    90.016431    119.66323    90.107069    18.845574    14.336376    28.370154    18.842744    14.331474 
  131000    295.55187    1.2509986    2027.8378   -1228.6754   -211.49952     2075.734   -2310.0363   -355.17101    44657.537 -0.067234084   -17.036218 -0.041707817    3490.8155    1546.4234    907.32934    887.93041    28.379652    18.846202    14.337757   0.23146587   0.23146358   0.20232542   0.20224088    295.55187     41.49527    35.978931    34.423473    90.016431    119.66323    90.107069    18.846372    14.336298    28.381042    18.846802    14.330838 
  132000    301.11716    1.2509986    2038.5659   -1177.4376   -211.49952    2073.7376    -2309.674    1926.2061    44657.537 -0.067234084   -17.036218 -0.041707817    3451.9399     1535.079    915.12873    855.37607    28.379624    18.846178    14.337739   0.23862123   0.23861879   0.20254651   0.20244609    301.11716     41.49527    35.978931    34.423473    90.016431    119.66323    90.107069    18.846225    14.339067    28.378389    18.841919    14.346619 
  133000     294.6518    1.2509986    2053.7239   -1211.1446   -211.49952    2073.0054   -2309.1504   -722.52948    44657.537 -0.067234084   -17.036218 -0.041707817    3501.0136    1571.4609    934.74455    846.94397    28.379589    18.846268    14.337737   0.22779936   0.22779089   0.18854132   0.18849439     294.6518     41.49527    35.978931    34.423473    90.016431    119.66323    90.107069    18.848678    14.338093    28.379603    18.855803    14.338728 
  134000    297.88748    1.2509986    2154.2469   -1191.8647   -211.49952     2079.368   -2309.5762    390.98916    44657.537 -0.067234084   -17.036218 -0.041707817    3576.3198    1570.9318    932.75968    917.68589    28.379599    18.846212    14.337714   0.23057457   0.23057187   0.19956134   0.19950051    297.88748     41.49527    35.978931    34.423473    90.016431    119.66323    90.107069    18.844707    14.338174    28.386117    18.847132    14.335865 
  135000    299.79753    1.2509986    2103.0234   -1189.2192   -211.49952    2068.6191   -2309.9675    369.38163    44657.537 -0.067234084   -17.036218 -0.041707817     3533.591    1533.3892    981.47422    869.14301    28.379602    18.846252    14.337744   0.23160472   0.23160318   0.19669057   0.19659265    299.79753     41.49527    35.978931    34.423473    90.016431    119.66323    90.107069    18.845491    14.337057    28.381801     18.84634    14.330379 
  136000    302.50912    1.2509986    2162.6556   -1210.2221   -211.49952    2076.3081   -2309.2798    319.76652    44657.537 -0.067234084   -17.036218 -0.041707817    3605.8495     1600.674    985.74836    876.84929    28.379486    18.846244    14.337766   0.26395733   0.26395623   0.22519215   0.22518808    302.50912     41.49527    35.978931    34.423473    90.016431    119.66323    90.107069    18.846966    14.338353    28.378461    18.850494     14.34046 
  137000    295.41148    1.2509986    2123.0338   -1198.9873   -211.49952    2068.3255   -2310.1684    -308.7768    44657.537 -0.067234084   -17.036218 -0.041707817     3563.864    1597.3838     953.4869    863.00284    28.379427    18.846269    14.337716   0.26285128   0.26284566   0.22210684   0.22202584    295.41148     41.49527    35.978931    34.423473    90.016431    119.66323    90.107069    18.846742    14.339872    28.383999    18.846742    14.347129 
  138000    307.00173    1.2509986    2124.8167   -1221.7588   -211.49952    2078.5018   -2309.3797   -1803.7148    44657.537 -0.067234084   -17.036218 -0.041707817    3577.4534    1589.6722    966.10318    866.87704    28.379426    18.846217    14.337687   0.23509337    0.2350838   0.20463365    0.2044185    307.00173     41.49527    35.978931    34.423473    90.016431    119.66323    90.107069    18.845768    14.336183    28.373048    18.839661    14.330401 
  139000     298.8778    1.2509986    2167.8508   -1208.1901   -211.49952    2079.2164   -2309.2265   -2221.4645    44657.537 -0.067234084   -17.036218 -0.041707817    3606.0509    1570.4982     991.3604    890.64477    28.379449    18.846139    14.337672   0.25377618   0.25377567   0.21376036   0.21369026     298.8778     41.49527    35.978931    34.423473    90.016431    119.66323    90.107069    18.846185    14.338324    28.372158    18.846549    14.342685 
  140000    299.79728    1.2509986    2019.2524   -1236.4551   -211.49952    2073.8454   -2309.9581   -501.32413    44657.537 -0.067234084   -17.036218 -0.041707817    3491.8202    1575.5094    919.41709    849.69747    28.379512    18.846181    14.337693   0.24311535   0.24310051   0.19779284   0.19770215    299.79728     41.49527    35.978931    34.423473    90.016431    119.66323    90.107069    18.845927    14.337093    28.370451    18.847198    14.337519 
  141000    299.03246    1.2509986    2106.5965   -1219.2902   -211.49952    2080.7545   -2309.9231   -352.93448    44657.537 -0.067234084   -17.036218 -0.041707817    3555.0553    1585.0238    944.17444     874.1778     28.37961    18.846163    14.337752   0.24339701   0.24337916   0.20724642   0.20704616    299.03246     41.49527    35.978931    34.423473    90.016431    119.66323    90.107069     18.84705    14.336322    28.365458    18.850194     14.33935 
  142000    296.22316    1.2509986    2130.8906   -1193.2301   -211.49952    2068.1859   -2310.0675   -809.61516    44657.537 -0.067234084   -17.036218 -0.041707817    3566.0023    1576.9467    971.00431     867.1971    28.379677    18.846126    14.337791   0.24055389    0.2405526   0.20436889   0.20429145    296.22316     41.49527    35.978931    34.423473    90.016431    119.66323    90.107069    18.845429    14.338532     28.37654    18.840799    14.340577 
  143000    294.26833    1.2509986    2143.8622   -1204.8231   -211.49952    2070.6641   -2310.4014   -1170.1899    44657.537 -0.067234084   -17.036218 -0.041707817    3588.4226    1597.4649    951.46523     891.1105    28.379693    18.846078    14.337781    0.2429918   0.24299013   0.18689188   0.18678624    294.26833     41.49527    35.978931    34.423473    90.016431    119.66323    90.107069    18.844977    14.337344    28.375824    18.843711    14.331663 
  144000    303.34203    1.2509986    2058.1881   -1200.3215   -211.49952    2076.2048   -2309.3354    -106.8666    44657.537 -0.067234084   -17.036218 -0.041707817    3491.6402     1555.845    923.37239    861.98545    28.379665    18.846079    14.337749   0.23519152     0.235189   0.18797001    0.1878721    303.34203     41.49527    35.978931    34.423473    90.016431    119.66323    90.107069    18.845414    14.338109    28.373326    18.841371    14.340478 
  145000    301.74933    1.2509986    2113.4961   -1198.7686   -211.49952    2075.7077   -2309.2882   -844.35866    44657.537 -0.067234084   -17.036218 -0.041707817    3545.8451    1576.8875    937.60937    877.37272    28.379549     18.84616    14.337683    0.2243862   0.22437668   0.19718343   0.19708664    301.74933     41.49527    35.978931    34.423473    90.016431    119.66323    90.107069    18.847573    14.336483    28.372063    18.847368     14.33348 
  146000    298.15147    1.2509986    2091.8702   -1218.0603   -211.49952    2080.1095   -2309.5643   -2594.4133    44657.537 -0.067234084   -17.036218 -0.041707817    3539.3853    1581.9612    925.77838    880.25343    28.379601    18.846099     14.33771   0.24756337   0.24755748   0.21920689   0.21913017    298.15147     41.49527    35.978931    34.423473    90.016431    119.66323    90.107069    18.844376    14.337498    28.374471     18.84288    14.335999 
  147000    296.28119    1.2509986    2093.2165   -1186.1831   -211.49952    2071.5264   -2309.5402   -322.04097    44657.537 -0.067234084   -17.036218 -0.041707817    3517.4135    1546.7016    932.81975    883.17612    28.379655    18.846159    14.337738   0.23715855     0.237153   0.19517269   0.19503553    296.28119     41.49527    35.978931    34.423473    90.016431    119.66323    90.107069    18.845671    14.340038    28.378637    18.845577    14.350797 
  148000    297.23913    1.2509986    2106.2698   -1236.9917   -211.49952    2076.3941   -2309.2379   -1652.6137    44657.537 -0.067234084   -17.036218 -0.041707817    3576.1053    1582.0126    934.54583    899.70233    28.379648    18.846121    14.337731   0.24356185   0.24355489   0.18545395   0.18531558    297.23913     41.49527    35.978931    34.423473    90.016431    119.66323    90.107069    18.844006    14.339107     28.38327     18.84108    14.347489 
  149000    294.87867    1.2509986    2183.9302   -1189.4485   -211.49952    2072.7554   -2309.5299   -246.87257    44657.537 -0.067234084   -17.036218 -0.041707817    3610.1532    1593.8994    998.26153    865.92985    28.379743    18.846106    14.337728   0.25354769   0.25354584    0.2078618   0.20780741    294.87867     41.49527    35.978931    34.423473    90.016431    119.66323    90.107069    18.847021    14.337852     28.38663    18.847038    14.340317 
  150000    297.56464    1.2509986    2125.6948   -1217.8152   -211.49952    2072.7286   -2309.5608    -612.1143    44657.537 -0.067234084   -17.036218 -0.041707817    3580.3422    1643.4537    918.26685     865.4191    28.379805    18.846086    14.337735   0.22264502   0.22263641   0.18380739   0.18375736    297.56464     41.49527    35.978931    34.423473    90.016431    119.66323    90.107069    18.844251    14.338605    28.378948    18.843191     14.34361 
  151000    299.18149    1.2509986    2058.1681   -1219.5758   -211.49952    2071.1494   -2309.4041   -2290.8676    44657.537 -0.067234084   -17.036218 -0.041707817    3515.9986    1581.8195    920.50258    862.14274    28.379894    18.846096    14.337735   0.24421024   0.24420463   0.20098097   0.20089675    299.18149     41.49527    35.978931    34.423473    90.016431    119.66323    90.107069    18.845959    14.339129    28.372713    18.847536    14.345571 
  152000    304.94638    1.2509986    2030.4172   -1227.9513   -211.49952    2078.1461   -2309.7909   -920.70669    44657.537 -0.067234084   -17.036218 -0.041707817    3490.0133    1566.0415    917.11084    857.69377    28.379825    18.846001    14.337689   0.24286396    0.2428623   0.20923929   0.20912465    304.94638     41.49527    35.978931    34.423473    90.016431    119.66323    90.107069    18.845446    14.336976    28.385816    18.848595    14.330962 
  153000    301.42462    1.2509986    2009.4227   -1195.8192   -211.49952    2073.9393   -2309.2656   -1872.8541    44657.537 -0.067234084   -17.036218 -0.041707817    3440.5681    1560.7232    888.62715    845.44142    28.379858    18.846018    14.337785   0.25163029   0.25162315   0.21205815   0.21197795    301.42462     41.49527    35.978931    34.423473    90.016431    119.66323    90.107069    18.847407    14.336286     28.37418    18.847323    14.332679 
  154000    298.97286    1.2509986    2166.5776   -1196.4598   -211.49952    2071.6394   -2309.7692   -769.60345    44657.537 -0.067234084   -17.036218 -0.041707817    3601.1671     1598.227    949.15729     897.2692    28.379918    18.846092    14.337792   0.24449167   0.24448229   0.20403093   0.20401159    298.97286     41.49527    35.978931    34.423473    90.016431    119.66323    90.107069    18.845622    14.337038    28.376201    18.846171    14.339695 
  155000    296.16542    1.2509986    1996.5525   -1187.6623   -211.49952    2080.8835   -2309.2961      1008.18    44657.537 -0.067234084   -17.036218 -0.041707817    3412.6274    1521.2483    871.08568     869.4283    28.380002    18.846055    14.337782   0.22443798   0.22443775   0.18665571   0.18660188    296.16542     41.49527    35.978931    34.423473    90.016431    119.66323    90.107069    18.846481    14.337371    28.380816    18.850022    14.332482 
  156000    303.29226    1.2509986    2129.7938   -1182.6053   -211.49952    2077.2226    -2309.762    1199.0998    44657.537 -0.067234084   -17.036218 -0.041707817    3544.9385     1540.681    944.60781    901.76303    28.379953    18.846084    14.337783   0.23069436   0.23068472   0.19640618   0.19629235    303.29226     41.49527    35.978931    34.423473    90.016431    119.66323    90.107069    18.845032    14.337052    28.370817    18.844181    14.335882 
  157000     301.3292    1.2509986    2118.2535   -1202.6172   -211.49952    2076.8816   -2309.5094   -657.25237    44657.537 -0.067234084   -17.036218 -0.041707817    3553.4984    1532.5447    975.38813    889.41497    28.379978    18.846177    14.337822   0.22741764   0.22741742    0.1859169   0.18585801     301.3292     41.49527    35.978931    34.423473    90.016431    119.66323    90.107069    18.846189    14.337377    28.382836      18.8464    14.333211 
  158000    297.65996    1.2509986      2112.67    -1209.567   -211.49952    2080.6227   -2309.1525   -579.97407    44657.537 -0.067234084   -17.036218 -0.041707817    3550.7668     1585.081    952.49761    863.21876    28.379931    18.846205    14.337804   0.23044343    0.2304278   0.19344284   0.19337643    297.65996     41.49527    35.978931    34.423473    90.016431    119.66323    90.107069    18.847175    14.340063    28.383258    18.846541    14.346465 
  159000    306.47293    1.2509986    2057.9892   -1176.3312   -211.49952    2072.4063   -2310.0041    719.94811    44657.537 -0.067234084   -17.036218 -0.041707817    3471.9182    1543.1109    936.67029    845.31784    28.379826    18.846126    14.337778   0.23501703   0.23501583    0.1907742   0.19068964    306.47293     41.49527    35.978931    34.423473    90.016431    119.66323    90.107069    18.846476    14.336734    28.382798    18.843684    14.332881 
  160000    299.03094    1.2509986    2191.1135    -1190.819   -211.49952     2078.229   -2309.4027   -5.1049332    44657.537 -0.067234084   -17.036218 -0.041707817    3613.1062      1618.24    956.46786    883.62028    28.379738    18.846147    14.337747    0.2410343   0.24102073   0.19139892   0.19128767    299.03094     41.49527    35.978931    34.423473    90.016431    119.66323    90.107069    18.847972    14.337561    28.370561    18.844394    14.336639 
  161000    300.90742    1.2509986    2005.7326    -1197.911   -211.49952    2072.8714   -2309.7106    782.66115    44657.537 -0.067234084   -17.036218 -0.041707817    3440.4828    1515.7325    927.42261    850.54305    28.379823    18.846143    14.337795   0.22472864   0.22472839   0.17950617   0.17943318    300.90742     41.49527    35.978931    34.423473    90.016431    119.66323    90.107069    18.845791     14.33802    28.375961    18.842485    14.335461 
  162000    298.65944    1.2509986    2035.3315   -1194.2921   -211.49952    2070.4133   -2309.6517   -612.42818    44657.537 -0.067234084   -17.036218 -0.041707817    3468.8621    1535.1384    958.18737    827.86902    28.379797    18.846116    14.337771   0.22848214   0.22848027   0.18389188   0.18388028    298.65944     41.49527    35.978931    34.423473    90.016431    119.66323    90.107069    18.847452    14.337893    28.379768    18.850629    14.336648 
  163000        300.6    1.2509986    2133.6085   -1208.6249   -211.49952    2074.5304   -2309.9561   -354.97329    44657.537 -0.067234084   -17.036218 -0.041707817     3577.659    1580.1535    926.66814    914.68968    28.379875    18.846101    14.337737   0.23243774   0.23243652   0.18587922   0.18583358        300.6     41.49527    35.978931    34.423473    90.016431    119.66323    90.107069    18.846705    14.337764    28.379353    18.842978     14.33661 
  164000    301.69043    1.2509986     2134.985    -1211.754   -211.49952    2075.2032   -2310.0045   -755.69825    44657.537 -0.067234084   -17.036218 -0.041707817    3581.5403    1590.6567     933.4613    897.14805    28.379931    18.846104    14.337775   0.22205261   0.22205157   0.18442428   0.18440708    301.69043     41.49527    35.978931    34.423473    90.016431    119.66323    90.107069    18.847082    14.337361    28.378788    18.849408    14.335582 
  165000    291.40091    1.2509986    2120.7459   -1211.5084   -211.49952    2081.0995   -2309.2362   -1712.8809    44657.537 -0.067234084   -17.036218 -0.041707817    3560.3909    1573.3935    931.32286    903.28775    28.379843    18.846088    14.337757   0.23991105   0.23991095   0.19502731   0.19491647    291.40091     41.49527    35.978931    34.423473    90.016431    119.66323    90.107069    18.846172    14.337804    28.389652    18.849332    14.336667 
[...]
  961000    296.81267    1.2509986    2120.8453   -1207.4475   -211.49952    2073.7197   -2309.8047    635.91197    44657.537 -0.067234084   -17.036218 -0.041707817    3564.3778    1614.0856    939.60663    860.23094    28.379815    18.846206      14.3378   0.23806687   0.23806507   0.19880855   0.19868256    296.81267     41.49527    35.978931    34.423473    90.016431    119.66323    90.107069    18.845352    14.336767    28.390382    18.846249    14.338559 
  962000    298.03333    1.2509986    2082.2842   -1238.5062   -211.49952    2077.9535   -2309.4239   -2001.9396    44657.537 -0.067234084   -17.036218 -0.041707817    3552.2608    1578.3871    959.87028    866.87147    28.379865    18.846196    14.337794   0.25123613   0.25123138   0.20479278   0.20456927    298.03333     41.49527    35.978931    34.423473    90.016431    119.66323    90.107069    18.846355    14.339832    28.381572    18.851724    14.354202 
  963000    294.38815    1.2509986    2048.3059   -1194.8254   -211.49952    2073.6061   -2309.9292   -658.49134    44657.537 -0.067234084   -17.036218 -0.041707817    3479.4544     1527.533    936.46591    865.39162    28.379793    18.846206     14.33771   0.24911151   0.24910851   0.21520627   0.21518603    294.38815     41.49527    35.978931    34.423473    90.016431    119.66323    90.107069    18.847088    14.337602    28.377533    18.848841    14.343652 
  964000    301.72008    1.2509986    2201.6923   -1204.0724   -211.49952    2080.2603   -2309.5653   -364.62609    44657.537 -0.067234084   -17.036218 -0.041707817    3635.0696    1626.2108    972.36143    880.99859    28.379804    18.846116    14.337684   0.25315047   0.25314253   0.22052812   0.22042511    301.72008     41.49527    35.978931    34.423473    90.016431    119.66323    90.107069    18.844633    14.338344    28.386487    18.841646    14.338797 
  965000    301.45226    1.2509986    2146.8673   -1203.8465   -211.49952    2074.5896   -2309.9001   -1690.2489    44657.537 -0.067234084   -17.036218 -0.041707817    3586.0243    1615.7377    948.59905    868.39181     28.37971     18.84609    14.337748   0.24422418   0.24422213   0.20544698   0.20538002    301.45226     41.49527    35.978931    34.423473    90.016431    119.66323    90.107069     18.84554    14.337449    28.373557    18.844597    14.336253 
  966000    298.48603    1.2509986    2058.3023   -1191.8608   -211.49952    2071.8805    -2309.524    251.63426    44657.537 -0.067234084   -17.036218 -0.041707817    3487.8066    1578.3939    934.11188    829.39235    28.379747    18.846099    14.337728    0.2360204   0.23601145   0.20407048   0.20388843    298.48603     41.49527    35.978931    34.423473    90.016431    119.66323    90.107069    18.846217    14.338492    28.371904    18.841654    14.347965 
  967000    293.63147    1.2509986    2072.2211   -1236.8206   -211.49952    2074.3897   -2309.9852   -2116.2547    44657.537 -0.067234084   -17.036218 -0.041707817    3544.6372    1580.3786    937.63767    875.25941    28.379806    18.846114    14.337696   0.22821905   0.22821882   0.19028401   0.19023526    293.63147     41.49527    35.978931    34.423473    90.016431    119.66323    90.107069    18.846571    14.337873    28.382798    18.842853    14.339088 
  968000    298.85718    1.2509986     2097.989   -1205.2261   -211.49952     2078.949   -2309.3958    411.31125    44657.537 -0.067234084   -17.036218 -0.041707817    3533.6619     1564.416    940.91207    881.94191    28.379745    18.846088    14.337642   0.22984056   0.22983879   0.18757228   0.18750831    298.85718     41.49527    35.978931    34.423473    90.016431    119.66323    90.107069    18.846893    14.336853    28.381071    18.843524    14.334023 
  969000    297.92094    1.2509986    2206.1561   -1180.5924   -211.49952    2074.3323   -2309.7647   -500.51978    44657.537 -0.067234084   -17.036218 -0.041707817    3622.1809    1601.8679    1022.2163    849.47403    28.379879    18.846094    14.337703   0.24144892   0.24144516   0.19884224    0.1988173    297.92094     41.49527    35.978931    34.423473    90.016431    119.66323    90.107069    18.847593    14.337915    28.374866    18.849341    14.341319 
  970000    306.06685    1.2509986    2124.6162   -1234.3984   -211.49952    2079.5832   -2309.2331   -1588.3419    44657.537 -0.067234084   -17.036218 -0.041707817    3588.6645    1587.0649    948.73023    898.91923    28.379885    18.846077     14.33777   0.25043054   0.25042822   0.21385913   0.21377769    306.06685     41.49527    35.978931    34.423473    90.016431    119.66323    90.107069       18.847     14.33767    28.386474    18.843299    14.338671 
  971000    297.46687    1.2509986     2034.429   -1216.4574   -211.49952    2080.2089   -2309.5095   -1276.3844    44657.537 -0.067234084   -17.036218 -0.041707817     3480.187    1554.4127    928.31919    849.92735    28.379839    18.846133    14.337769   0.24565132   0.24564723   0.20797655   0.20793383    297.46687     41.49527    35.978931    34.423473    90.016431    119.66323    90.107069    18.845199    14.336871    28.375941    18.845637    14.335366 
  972000    298.29071    1.2509986    2069.0366   -1195.5368   -211.49952    2077.3608   -2308.8762    1277.1228    44657.537 -0.067234084   -17.036218 -0.041707817    3496.0888    1562.5829    909.09511    875.28881    28.379912    18.846175    14.337821   0.23723924   0.23721967   0.19009884   0.18965352    298.29071     41.49527    35.978931    34.423473    90.016431    119.66323    90.107069    18.845667    14.335613    28.361327    18.843069    14.330825 
  973000    298.49561    1.2509986    2113.9193     -1219.59   -211.49952    2074.7867   -2309.9662   -364.09067    44657.537 -0.067234084   -17.036218 -0.041707817    3568.6888    1596.4217    973.25498    851.33739    28.379967    18.846152    14.337753   0.24078532   0.24078426   0.20936157   0.20934989    298.49561     41.49527    35.978931    34.423473    90.016431    119.66323    90.107069    18.845516    14.337479    28.380377    18.845915    14.338452 
  974000    293.60474    1.2509986    2113.7458    -1228.691   -211.49952    2071.6302   -2309.7981   -992.75693    44657.537 -0.067234084   -17.036218 -0.041707817    3580.6047    1593.0007     959.5273    877.00433     28.37997    18.846152    14.337692   0.24218326   0.24217847   0.20000822   0.19987596    293.60474     41.49527    35.978931    34.423473    90.016431    119.66323    90.107069    18.846948    14.337377    28.370762    18.844942    14.333447 
  975000    293.11446    1.2509986    2061.5723    -1212.763   -211.49952    2078.9175   -2309.2071    386.14102    44657.537 -0.067234084   -17.036218 -0.041707817    3504.6249    1549.3908    906.38165    892.96701    28.380057    18.846124    14.337718   0.25430537   0.25430469   0.21484221   0.21477343    293.11446     41.49527    35.978931    34.423473    90.016431    119.66323    90.107069    18.845472    14.337642    28.381864    18.841787    14.342991 
  976000    288.85333    1.2509986    2165.6026   -1192.3497   -211.49952    2078.5586   -2309.1203     444.6184    44657.537 -0.067234084   -17.036218 -0.041707817     3588.514     1592.276    963.00438    881.33229    28.379961    18.846193    14.337723   0.24697177   0.24694656   0.20110795    0.2009525    288.85333     41.49527    35.978931    34.423473    90.016431    119.66323    90.107069    18.846294    14.339874    28.388971    18.848804     14.34781 
  977000    303.48285    1.2509986    2180.7104   -1227.9409   -211.49952    2073.9705   -2310.0739   -1572.7604    44657.537 -0.067234084   -17.036218 -0.041707817    3644.7547    1665.8524    958.32899    867.13654    28.379891    18.846262    14.337707    0.2432196   0.24321557   0.20741387   0.20727093    303.48285     41.49527    35.978931    34.423473    90.016431    119.66323    90.107069    18.846287    14.336642     28.39102     18.84996    14.336378 
  978000    300.12757    1.2509986    2091.3755   -1201.3357   -211.49952    2071.5272   -2309.4416   -14.974284    44657.537 -0.067234084   -17.036218 -0.041707817    3530.6256    1556.5555    964.76413    859.39914    28.379862    18.846305     14.33767   0.23921519   0.23921494   0.19860772   0.19858478    300.12757     41.49527    35.978931    34.423473    90.016431    119.66323    90.107069    18.846609    14.337489    28.376368     18.85095    14.336634 
  979000    295.66309    1.2509986    2000.9037   -1209.3803   -211.49952     2079.041   -2309.8669    525.12677    44657.537 -0.067234084   -17.036218 -0.041707817      3441.11    1521.8118    933.57283     842.4365    28.379799     18.84626    14.337681   0.23382606     0.233823   0.20229589   0.20221328    295.66309     41.49527    35.978931    34.423473    90.016431    119.66323    90.107069    18.845185    14.337464    28.373042    18.842682    14.339944 
  980000    299.26627    1.2509986    2178.3645   -1212.3596   -211.49952    2073.0824   -2309.7337   -414.20604    44657.537 -0.067234084   -17.036218 -0.041707817    3627.3753     1646.935    942.97589    884.27547    28.379747    18.846193    14.337675   0.24023422   0.24022631   0.20396042   0.20382629    299.26627     41.49527    35.978931    34.423473    90.016431    119.66323    90.107069    18.847427    14.338274     28.36945    18.854606    14.340482 
  981000    297.89635    1.2509986    2102.8437   -1227.0052   -211.49952    2075.8125   -2309.2739   -2498.6483    44657.537 -0.067234084   -17.036218 -0.041707817    3563.3102     1588.533    945.71556    878.62728      28.3797     18.84619    14.337644   0.24618779   0.24618091   0.19902107   0.19897448    297.89635     41.49527    35.978931    34.423473    90.016431    119.66323    90.107069    18.846694    14.337322     28.38627    18.850045    14.338961 
  982000    297.23294    1.2509986    2065.7258   -1207.4271   -211.49952    2078.4246   -2309.2395    69.787966    44657.537 -0.067234084   -17.036218 -0.041707817    3503.9678    1596.5587    886.45918    869.77002    28.379728    18.846266    14.337634   0.25526276   0.25525967   0.20133283   0.20131815    297.23294     41.49527    35.978931    34.423473    90.016431    119.66323    90.107069    18.844431    14.337761    28.381839    18.846474    14.341378 
  983000    296.90977    1.2509986    2143.7609   -1200.7757   -211.49952    2078.0822   -2309.4025   -928.36405    44657.537 -0.067234084   -17.036218 -0.041707817    3575.8569    1551.4443    974.15865     894.0733    28.379742    18.846294    14.337605   0.27070649   0.27069373   0.23167028   0.23139875    296.90977     41.49527    35.978931    34.423473    90.016431    119.66323    90.107069    18.844361    14.338324    28.392076    18.838299    14.339483 
  984000    299.93331    1.2509986    2146.9491   -1200.8456   -211.49952    2074.5814   -2309.5715   -688.52948    44657.537 -0.067234084   -17.036218 -0.041707817    3582.7847    1607.7308    953.16584    871.22511    28.379888    18.846307    14.337686    0.2670345   0.26703189   0.22702808    0.2267794    299.93331     41.49527    35.978931    34.423473    90.016431    119.66323    90.107069    18.846073    14.336775    28.388546    18.846878    14.326859 
  985000    302.88043    1.2509986    2100.0156   -1169.9233   -211.49952     2077.262   -2309.1892    1102.5537    44657.537 -0.067234084   -17.036218 -0.041707817    3501.8663    1513.7551    946.31959    888.81002    28.379778    18.846307    14.337702   0.24717271   0.24716618   0.21141296   0.21136678    302.88043     41.49527    35.978931    34.423473    90.016431    119.66323    90.107069    18.844214    14.337522    28.379961    18.846647    14.333281 
  986000    307.86869    1.2509986    2171.1639   -1195.4278   -211.49952     2076.516    -2309.256   -315.24645    44657.537 -0.067234084   -17.036218 -0.041707817    3599.3317    1638.2657    959.60157    853.38394    28.379752    18.846336    14.337702   0.24785363   0.24785242   0.20898984   0.20888084    307.86869     41.49527    35.978931    34.423473    90.016431    119.66323    90.107069    18.847165    14.338219    28.387494    18.847251    14.346187 
  987000    297.77278    1.2509986    2124.3733   -1167.7747   -211.49952    2076.0127   -2309.3926    1492.2179    44657.537 -0.067234084   -17.036218 -0.041707817    3525.5278    1521.5837    930.76296    915.69265    28.379668    18.846331    14.337667   0.23134505   0.23134399   0.19273145   0.19260105    297.77278     41.49527    35.978931    34.423473    90.016431    119.66323    90.107069    18.846745    14.337583    28.388433    18.842825     14.33599 
  988000    292.02601    1.2509986    2080.7289   -1208.5926   -211.49952     2072.082   -2309.9743   -1310.7943    44657.537 -0.067234084   -17.036218 -0.041707817    3527.2139     1614.501    896.46482    865.76004    28.379647    18.846255    14.337625   0.23038384   0.23037599   0.19722419   0.19715889    292.02601     41.49527    35.978931    34.423473    90.016431    119.66323    90.107069    18.847297    14.337683    28.376546     18.85232    14.346369 
  989000    302.07414    1.2509986    2109.9743   -1215.9241   -211.49952    2077.2949   -2309.0782   -1444.9712    44657.537 -0.067234084   -17.036218 -0.041707817    3557.6817    1591.1691    971.58591    844.64107    28.379709    18.846147    14.337665    0.2399052   0.23990167   0.19041391    0.1903265    302.07414     41.49527    35.978931    34.423473    90.016431    119.66323    90.107069    18.847436    14.337931    28.388745    18.850562    14.338868 
  990000    300.61744    1.2509986    2083.5794   -1210.7325   -211.49952    2075.0496   -2309.9958   -1092.5686    44657.537 -0.067234084   -17.036218 -0.041707817    3529.2581    1564.7358    958.27254    858.47839    28.379773    18.846043    14.337767   0.24134727   0.24134612    0.1987922    0.1987465    300.61744     41.49527    35.978931    34.423473    90.016431    119.66323    90.107069    18.845984    14.338429    28.375739    18.843893    14.341855 
  991000    297.40109    1.2509986    2114.7212   -1221.0033   -211.49952    2076.1648   -2309.7589   -1424.9707    44657.537 -0.067234084   -17.036218 -0.041707817    3569.3187    1594.2187    944.77548    876.72454    28.379811    18.846047    14.337775   0.22960147     0.229591   0.19069392   0.19047088    297.40109     41.49527    35.978931    34.423473    90.016431    119.66323    90.107069    18.847804    14.335996    28.377482    18.854422    14.325873 
  992000    298.18972    1.2509986    2099.8242   -1198.2893   -211.49952    2077.3721    -2309.551    894.95143    44657.537 -0.067234084   -17.036218 -0.041707817    3530.2924    1544.3076    973.26476    862.06635    28.379847    18.846051    14.337769   0.23780111   0.23779119   0.19096984   0.19085023    298.18972     41.49527    35.978931    34.423473    90.016431    119.66323    90.107069     18.84704    14.340111    28.383025    18.853278    14.349093 
  993000    290.42177    1.2509986    2077.2814   -1221.1183   -211.49952    2071.1212   -2309.3265   -1963.3841    44657.537 -0.067234084   -17.036218 -0.041707817     3536.605    1622.4368    923.40622    844.16768    28.379796    18.846043    14.337771   0.23639079   0.23639065   0.19604794   0.19603869    290.42177     41.49527    35.978931    34.423473    90.016431    119.66323    90.107069    18.845907     14.33768    28.381595    18.847021    14.338577 
  994000    303.88871    1.2509986    2119.2947   -1191.1338   -211.49952    2078.1243   -2309.2557    23.371763    44657.537 -0.067234084   -17.036218 -0.041707817    3541.5599    1579.4617    925.90641    884.02621    28.379946    18.846102    14.337861    0.2559872   0.25598501   0.21544745   0.21541467    303.88871     41.49527    35.978931    34.423473    90.016431    119.66323    90.107069    18.845622     14.33832    28.377108    18.843851    14.340019 
  995000    291.74617    1.2509986    2073.6037   -1239.4573   -211.49952    2072.6837   -2309.9588    -2792.734    44657.537 -0.067234084   -17.036218 -0.041707817    3550.3361    1629.1469    940.85803    836.93638    28.379992    18.846133    14.337818   0.24986303   0.24985834    0.2076064   0.20741125    291.74617     41.49527    35.978931    34.423473    90.016431    119.66323    90.107069    18.847605    14.338587    28.366239    18.850745    14.343486 
  996000    294.41699    1.2509986    2077.7594   -1224.7631   -211.49952    2075.0399   -2309.4247    -1728.714    44657.537 -0.067234084   -17.036218 -0.041707817    3536.9073    1574.4764    917.96655    891.66988    28.380011    18.846096    14.337818   0.24591924   0.24591327   0.20810917   0.20797522    294.41699     41.49527    35.978931    34.423473    90.016431    119.66323    90.107069      18.8465    14.338556    28.389224    18.842657    14.339339 
  997000    293.95851    1.2509986    2180.2818   -1187.0533   -211.49952    2073.8539   -2310.1921    -1260.636    44657.537 -0.067234084   -17.036218 -0.041707817    3603.6733    1596.1179    982.69756    874.63366    28.379895    18.846082    14.337801   0.23535268   0.23535051   0.18485815    0.1848139    293.95851     41.49527    35.978931    34.423473    90.016431    119.66323    90.107069    18.845453    14.337973    28.386182    18.848829    14.339066 
  998000    293.96285    1.2509986    2128.5678   -1182.3993   -211.49952    2069.0291   -2310.1625   -662.32261    44657.537 -0.067234084   -17.036218 -0.041707817    3552.1005    1572.3767    932.57219     889.5587    28.379939    18.846071    14.337749   0.23044755   0.23044643   0.18689396   0.18679659    293.96285     41.49527    35.978931    34.423473    90.016431    119.66323    90.107069    18.845778    14.337684    28.373944    18.847093    14.331753 
  999000    299.22729    1.2509986    2129.2892   -1204.8561   -211.49952    2067.7142   -2310.3341    -810.9357    44657.537 -0.067234084   -17.036218 -0.041707817    3576.7652    1626.1287    927.72579    869.29892    28.379823    18.846061    14.337728   0.25631831   0.25631699   0.21091365   0.21086888    299.22729     41.49527    35.978931    34.423473    90.016431    119.66323    90.107069    18.846749    14.337371    28.378881    18.855539    14.338326 
 1000000    298.97355    1.2509986    2112.1975   -1183.3908   -211.49952    2068.5434   -2309.9907    -10.30134    44657.537 -0.067234084   -17.036218 -0.041707817    3537.0356    1593.2385    928.94215    860.28663    28.379936    18.846075    14.337805   0.25939367   0.25938898   0.20758115   0.20752203    298.97355     41.49527    35.978931    34.423473    90.016431    119.66323    90.107069    18.847409    14.338399    28.374277     18.84834    14.345187 
Loop time of 3045.26 on 60 procs for 1000000 steps with 4560 atoms

Pair  time (%) = 552.462 (18.1417)
Bond  time (%) = 59.4502 (1.95222)
Kspce time (%) = 1580.85 (51.9116)
Neigh time (%) = 14.8217 (0.486713)
Comm  time (%) = 573.565 (18.8346)
Outpt time (%) = 3.12717 (0.10269)
Other time (%) = 260.992 (8.57043)

Nlocal:    76 ave 85 max 69 min
Histogram: 6 4 4 12 7 15 4 4 3 1
Nghost:    3990.57 ave 4076 max 3898 min
Histogram: 8 7 4 1 1 5 15 9 7 3
Neighs:    28099.5 ave 31434 max 25178 min
Histogram: 4 6 3 7 13 10 8 4 4 1

Total # of neighbors = 1685973
Ave neighs/atom = 369.731
Ave special neighs/atom = 10.6316
Neighbor list builds = 6620
Dangerous builds = 0
System init for write_data ...
PPPM initialization ...
  G vector (1/distance) = 0.246499
  grid = 16 16 20
  stencil order = 5
  estimated absolute RMS force accuracy = 0.00242397
  estimated relative force accuracy = 7.2997e-06
  using double precision FFTs
  3d grid and FFT values/proc = 1053 112
