 Data file for a-pineneO2, ver. a, dimer

          58  atoms
          58  bonds
         110  angles
          68  dihedrals
           4  impropers

          29  atom types
          29  bond types
          55  angle types
          34  dihedral types
           2  improper types

   -75.0 75.0      xlo xhi
   -75.0 75.0      ylo yhi
   -75.0 75.0      zlo zhi

 Masses

   1   12.011
   2   12.011
   3   12.011
   4   12.011
   5    1.008
   6    1.008
   7    1.008
   8    1.008
   9   12.011
  10    1.008
  11    1.008
  12    1.008
  13   12.011
  14    1.008
  15    1.008
  16    1.008
  17   12.011
  18    1.008
  19   15.999
  20   12.011
  21    1.008
  22   15.999
  23   12.011
  24   15.999
  25   12.011
  26    1.008
  27    1.008
  28    1.008
  29   15.999

 Pair Coeffs

   1    0.0830    3.4500
   2    0.0830    3.4500
   3    0.0830    3.4500
   4    0.0830    3.4500
   5    0.0300    2.5000
   6    0.0300    2.5000
   7    0.0300    2.5000
   8    0.0300    2.5000
   9    0.0660    3.5000
  10    0.0300    2.5000
  11    0.0300    2.5000
  12    0.0300    2.5000
  13    0.0660    3.5000
  14    0.0300    2.5000
  15    0.0300    2.5000
  16    0.0300    2.5000
  17    0.0660    3.5000
  18    0.0300    2.5000
  19    0.1400    2.9000
  20    0.0700    3.5500
  21    0.0300    2.5000
  22    0.2100    2.9600
  23    0.0700    3.5500
  24    0.2100    2.9600
  25    0.0660    3.5000
  26    0.0300    2.5000
  27    0.0300    2.5000
  28    0.0300    2.5000
  29    0.1400    2.9000

 Bond Coeffs

   1  260.0000    1.5200
   2  260.0000    1.5200
   3  260.0000    1.5200
   4  340.0000    1.0880
   5  340.0000    1.0880
   6  340.0000    1.0880
   7  340.0000    1.0880
   8  280.0000    1.5100
   9  340.0000    1.0900
  10  340.0000    1.0900
  11  340.0000    1.0900
  12  280.0000    1.5100
  13  340.0000    1.0900
  14  340.0000    1.0900
  15  340.0000    1.0900
  16  280.0000    1.5100
  17  340.0000    1.0900
  18  320.0000    1.4100
  19  317.0000    1.5220
  20  340.0000    1.0900
  21  570.0000    1.2290
  22  317.0000    1.5220
  23  570.0000    1.2290
  24  317.0000    1.5220
  25  340.0000    1.0900
  26  340.0000    1.0900
  27  340.0000    1.0900
  28  469.2840    1.3226
  29  260.0000    1.5200

 Angle Coeffs

   1   30.0000   83.0000
   2   30.0000   83.0000
   3   37.5000  117.2000
   4   37.5000  117.2000
   5   37.5000  117.2000
   6   37.5000  117.2000
   7   37.5000  117.2000
   8   37.5000  110.7000
   9   37.5000  110.7000
  10   37.5000  110.7000
  11   37.5000  117.2000
  12   37.5000  110.7000
  13   37.5000  110.7000
  14   37.5000  110.7000
  15   37.5000  117.2000
  16   37.5000  110.7000
  17   50.0000  109.5000
  18   63.0000  111.1000
  19   35.0000  115.0000
  20   80.0000  120.4000
  21   63.0000  111.1000
  22   80.0000  120.4000
  23   70.0000  116.0000
  24   35.0000  109.5000
  25   35.0000  109.5000
  26   35.0000  109.5000
  27   85.0220  110.0400
  28   35.0000  114.3000
  29   35.0000  114.3000
  30   37.5000  117.2000
  31   50.0000  109.5000
  32   35.0000  114.3000
  33   30.0000   83.0000
  34   33.0000  107.8000
  35   33.0000  107.8000
  36   33.0000  107.8000
  37   30.0000   83.0000
  38   33.0000  107.8000
  39   35.0000  109.5000
  40   37.5000  117.2000
  41   33.0000  107.8000
  42   37.5000  117.2000
  43   33.0000  107.8000
  44   80.0000  120.4000
  45   35.0000  109.5000
  46   33.0000  107.8000
  47   37.5000  117.2000
  48   63.0000  111.1000
  49   33.0000  107.8000
  50   33.0000  107.8000
  51   37.5000  117.2000
  52   35.0000  109.5000
  53   37.5000  117.2000
  54   37.5000  117.2000
  55   35.0000  123.0000

 Dihedral Coeffs

   1    0.0000    0.0000    0.3000    0.0000
   2    0.0000    0.0000    0.3000    0.0000
   3    0.0000    0.0000    0.3000    0.0000
   4    0.0000    0.0000    0.2750    0.0000
   5    0.6500   -0.2500    0.6700    0.0000
   6   -2.0600   -0.3130    0.3150    0.0000
   7    0.0000    0.0000    0.3000    0.0000
   8    0.0000    0.0000    0.3000    0.0000
   9    0.0000    0.0000    0.2750    0.0000
  10    0.6500   -0.2500    0.6700    0.0000
  11    0.0000    0.0000    0.4680    0.0000
  12    0.0000    0.0000    0.3000    0.0000
  13    0.0000    0.0000    0.3600    0.0000
  14    0.0000    0.0000    0.3000    0.0000
  15    0.0000    0.0000    0.3000    0.0000
  16    0.0000    0.0000    0.3000    0.0000
  17    0.0000    0.0000    0.3000    0.0000
  18    0.0000    0.0000    0.3000    0.0000
  19    0.0000    0.0000    0.3000    0.0000
  20    0.0000    0.0000    0.3000    0.0000
  21   -2.0600   -0.3130    0.3150    0.0000
  22    0.0000    0.0000    0.2750    0.0000
  23    0.0000    0.0000    0.3000    0.0000
  24    0.0000    0.0000    0.4680    0.0000
  25    0.0000    0.0000    0.3000    0.0000
  26    0.0000    0.0000    0.2750    0.0000
  27    0.0000    0.0000    0.3000    0.0000
  28    0.0000    0.0000    0.3000    0.0000
  29    0.0000    0.0000    0.3000    0.0000
  30    0.0000    0.0000    0.7600    0.0000
  31    0.0000    0.0000    0.3000    0.0000
  32    0.0000    0.0000   -0.1000    0.0000
  33    0.0000    0.0000    0.3000    0.0000
  34    0.0000    0.0000    0.3000    0.0000

 Improper Coeffs

   1   10.5000  -1   2
   2   10.5000  -1   2

 Atoms

   1  1  1    -0.0396     1.0838    -0.3474    -0.9716
   2  1  2    -0.2069     1.8388     0.0183     0.4006
   3  1  3    -0.1216     0.0915     0.8555    -0.7017
   4  1  4    -0.1689     1.0367     1.3582     0.4449
   5  1  5     0.1277     0.5349     1.5611     1.4070
   6  1  6     0.1277     1.6391     2.2345     0.1454
   7  1  7     0.1259    -0.0167     1.5460    -1.5617
   8  1  8     0.1297     2.9362     0.1031     0.2725
   9  1  9    -0.2308     1.9938    -0.0275    -2.1700
  10  1 10     0.0902     2.8302    -0.7566    -2.2287
  11  1 11     0.0902     2.4243     0.9923    -2.0851
  12  1 12     0.0902     1.4123    -0.0837    -3.1152
  13  1 13    -0.2280     0.4977    -1.7607    -1.1084
  14  1 14     0.0941     1.3174    -2.5087    -1.1699
  15  1 15     0.0941    -0.1106    -1.8295    -2.0327
  16  1 16     0.0941    -0.1534    -2.0253    -0.2528
  17  1 17     0.0656    -1.2906     0.4932    -0.1697
  18  1 18     0.1592    -1.2251    -0.1964     0.6987
  19  1 19    -0.1540    -2.0511    -0.2041    -1.2397
  20  1 20     0.2649    -2.1381     1.7112     0.2504
  21  1 21     0.1246    -3.2465     1.5063     0.1898
  22  1 22    -0.3720    -1.6722     2.7770     0.6131
  23  1 23     0.3386     1.5177    -0.9538     1.5312
  24  1 24    -0.3955     0.4477    -0.9218     2.1440
  25  1 25    -0.3052     2.5728    -2.0179     1.8147
  26  1 26     0.1169     2.8137    -2.5547     0.8704
  27  1 27     0.1169     2.2110    -2.7294     2.5808
  28  1 28     0.1169     3.5153    -1.5333     2.1533
  29  1 29    -0.1450    -3.1828    -0.7557    -0.7497
  30  2  1    -0.0396    61.2686    -0.3236    -0.7247
  31  2  2    -0.2069    61.6066     0.9640     0.1777
  32  2  3    -0.1216    59.8621     0.3231    -1.0532
  33  2  4    -0.1689    60.3552     1.6754    -0.4294
  34  2  5     0.1277    59.6735     2.1205     0.3161
  35  2  6     0.1277    60.6132     2.4278    -1.1961
  36  2  7     0.1259    59.6298     0.3593    -2.1362
  37  2  8     0.1297    62.5931     1.4064    -0.0653
  38  2  9    -0.2308    62.1575    -0.3297    -1.9803
  39  2 10     0.0902    63.2079    -0.5727    -1.7119
  40  2 11     0.0902    62.1453     0.6593    -2.4845
  41  2 12     0.0902    61.7936    -1.0936    -2.7006
  42  2 13    -0.2280    61.2980    -1.6999    -0.0430
  43  2 14     0.0941    62.3410    -1.9654     0.2345
  44  2 15     0.0941    60.9114    -2.4734    -0.7368
  45  2 16     0.0941    60.6760    -1.7236     0.8728
  46  2 17     0.0656    58.6612    -0.2367    -0.2988
  47  2 18     0.1592    58.8530    -0.2850     0.7942
  48  2 19    -0.1540    58.3993    -1.6219    -0.7700
  49  2 20     0.2649    57.3579     0.5574    -0.5205
  50  2 21     0.1246    56.4363    -0.0773    -0.3722
  51  2 22    -0.3720    57.3179     1.7384    -0.8175
  52  2 23     0.3386    61.5147     0.6804     1.6735
  53  2 24    -0.3955    60.4344     0.5867     2.2614
  54  2 25    -0.3052    62.8407     0.4485     2.3903
  55  2 26     0.1169    63.4102    -0.3454     1.8582
  56  2 27     0.1169    62.6673     0.1580     3.4437
  57  2 28     0.1169    63.4614     1.3706     2.3420
  58  2 29    -0.1450    57.5056    -2.2451     0.0287

 Bonds

           1           1           2           1
           2           2           3           1
           3           3           4           2
           4           4           5           4
           5           5           6           4
           6           6           7           3
           7           7           8           2
           8           8           9           1
           9           9          10           9
          10          10          11           9
          11          11          12           9
          12          12          13           1
          13          13          14          13
          14          14          15          13
          15          15          16          13
          16          16          17           3
          17          17          18          17
          18          18          19          17
          19          19          20          17
          20          20          21          20
          21          21          22          20
          22          22          23           2
          23          23          24          23
          24          24          25          23
          25          25          26          25
          26          26          27          25
          27          27          28          25
          28          28          29          19
          29          29           4           3
30 1 31 30
31 2 32 30
32 3 33 31
33 4 34 33
34 5 35 33
35 6 36 32
36 7 37 31
37 8 38 30
38 9 39 38
39 10 40 38
40 11 41 38
41 12 42 30
42 13 43 42
43 14 44 42
44 15 45 42
45 16 46 32
46 17 47 46
47 18 48 46
48 19 49 46
49 20 50 49
50 21 51 49
51 22 52 31
52 23 53 52
53 24 54 52
54 25 55 54
55 26 56 54
56 27 57 54
57 28 58 48
58 29 33 32

 Angles

           1           1           2           1           3
           2           2           1           2           4
           3           3           2           4           5
           4           4           2           4           6
           5           5           1           3           7
           6           6           1           2           8
           7           7           2           1           9
           8           8           1           9          10
           9           9           1           9          11
          10          10           1           9          12
          11          11           2           1          13
          12          12           1          13          14
          13          13           1          13          15
          14          14           1          13          16
          15          15           1           3          17
          16          16           3          17          18
          17          17           3          17          19
          18          18           3          17          20
          19          19          17          20          21
          20          20          17          20          22
          21          21           1           2          23
          22          22           2          23          24
          23          23           2          23          25
          24          24          23          25          26
          25          25          23          25          27
          26          26          23          25          28
          27          27          17          19          29
          28          28           9           1          13
          29          29           5           4           6
          30          30           4           2           8
          31          31          19          17          20
          32          32           7           3          17
          33          33           2           4           3
          34          34          15          13          16
          35          35          10           9          12
          36          36          11           9          12
          37          37           1           3           4
          38          38          26          25          27
          39          39          18          17          20
          40          40           4           3           7
          41          41          14          13          15
          42          42           3           1          13
          43          43          26          25          28
          44          44          24          23          25
          45          45          18          17          19
          46          46          27          25          28
          47          47           3           4           6
          48          48           4           2          23
          49          49          10           9          11
          50          50          14          13          16
          51          51           4           3          17
          52          52           8           2          23
          53          53           3           1           9
          54          54           3           4           5
          55          55          21          20          22
56 1 31 30 32
57 2 30 31 33
58 3 31 33 34
59 4 31 33 35
60 5 30 32 36
61 6 30 31 37
62 7 31 30 38
63 8 30 38 39
64 9 30 38 40
65 10 30 38 41
66 11 31 30 42
67 12 30 42 43
68 13 30 42 44
69 14 30 42 45
70 15 30 32 46
71 16 32 46 47
72 17 32 46 48
73 18 32 46 49
74 19 46 49 50
75 20 46 49 51
76 21 30 31 52
77 22 31 52 53
78 23 31 52 54
79 24 52 54 55
80 25 52 54 56
81 26 52 54 57
82 27 46 48 58
83 28 38 30 42
84 29 34 33 35
85 30 33 31 37
86 31 48 46 49
87 32 36 32 46
88 33 31 33 32
89 34 44 42 45
90 35 39 38 41
91 36 40 38 41
92 37 30 32 33
93 38 55 54 56
94 39 47 46 49
95 40 33 32 36
96 41 43 42 44
97 42 32 30 42
98 43 55 54 57
99 44 53 52 54
100 45 47 46 48
101 46 56 54 57
102 47 32 33 35
103 48 33 31 52
104 49 39 38 40
105 50 43 42 45
106 51 33 32 46
107 52 37 31 52
108 53 32 30 38
109 54 32 33 34
110 55 50 49 51

 Dihedrals

           1           1          10           9           1           2
           2           2          14          13           1           2
           3           3          18          17           3           1
           4           4          26          25          23           2
           5           5          29          19          17           3
           6           6          20          17           3           4
           7           7          14          13           1           9
           8           8          13           1           9          11
           9           9          28          25          23           2
          10          10          29          19          17          20
          11          11          21          20          17          19
          12          12          15          13           1           2
          13          13          21          20          17          18
          14          14          15          13           1           9
          15          15          14          13           1           3
          16          16          13           1           9          10
          17          17          11           9           1           2
          18          18          10           9           1           3
          19          19          16          13           1           2
          20          20          15          13           1           3
          21          21          20          17           3           1
          22          22          25          23           2           8
          23          23          16          13           1           9
          24          24          19          17           3           7
          25          25          18          17           3           4
          26          26          27          25          23           2
          27          27          12           9           1           3
          28          28          13           1           9          12
          29          29          16          13           1           3
          30          30          29          19          17          18
          31          31          18          17           3           7
          32          32          20          17           3           7
          33          33          12           9           1           2
          34          34          11           9           1           3
35 1 39 38 30 31
36 2 43 42 30 31
37 3 47 46 32 30
38 4 55 54 52 31
39 5 58 48 46 32
40 6 49 46 32 33
41 7 43 42 30 38
42 8 42 30 38 40
43 9 57 54 52 31
44 10 58 48 46 49
45 11 50 49 46 48
46 12 44 42 30 31
47 13 50 49 46 47
48 14 44 42 30 38
49 15 43 42 30 32
50 16 42 30 38 39
51 17 40 38 30 31
52 18 39 38 30 32
53 19 45 42 30 31
54 20 44 42 30 32
55 21 49 46 32 30
56 22 54 52 31 37
57 23 45 42 30 38
58 24 48 46 32 36
59 25 47 46 32 33
60 26 56 54 52 31
61 27 41 38 30 32
62 28 42 30 38 41
63 29 45 42 30 32
64 30 58 48 46 47
65 31 47 46 32 36
66 32 49 46 32 36
67 33 41 38 30 31
68 34 40 38 30 32

 Impropers

           1           1          20          17          21          22
           2           2          23          25           2          24
3 1 49 46 50 51
4 2 52 54 31 53
