Created on Wed Jul 27 11:38:35 2022

3078 atoms
7 atom types

0.000000  44.018010 xlo xhi
0.000000  38.120715 ylo yhi
0.000000  35.940555 zlo zhi
22.009005  22.009005  12.706905 xy xz yz

Masses

    1    91.224000000 # Zr3+4
    2     1.007940000 # H_
    3    12.010700000 # C_R
    4    15.999400000 # O_3
    5    15.999400000 # O_R
    6    15.999400000 # O_2
    7    16.04        # CH4

Atoms

       1      444        1     0.00000   14.67267   14.91289   10.54501
       2      444        1     0.00000   14.67267    2.02965    1.43518
       3      444        1     0.00000    9.09406    5.25046   10.54501
       4      444        1     0.00000    9.09406   11.69208    1.43518
       5      444        1     0.00000   20.25128    5.25046   10.54501
       6      444        1     0.00000   20.25128   11.69208    1.43518
       7      444        2     0.00000    7.33634    9.50830    1.13088
       8      444        2     0.00000   11.90259    1.59930    1.13088
       9      444        2     0.00000    2.77008    1.59930    1.13088
      10      444        2     0.00000    7.33634    4.23563    8.58755
      11      444        2     0.00000    9.91381   12.67907   12.87456
      12      444        2     0.00000   18.81724   12.38008    5.59729
      13      444        2     0.00000   12.01449    8.54570   11.08430
      14      444        2     0.00000   17.89257   17.19242    6.42733
      15      444        2     0.00000   12.84631   19.60611    6.42733
      16      444        2     0.00000    8.64918   15.63447    5.59729
      17      444        2     0.00000   20.74437   14.95298   12.87456
      18      444        2     0.00000   20.69616   10.48866   12.87456
      19      444        2     0.00000    8.60097   18.83891   11.08430
      20      444        2     0.00000   13.27913   14.02908    6.42733
      21      444        2     0.00000   16.55159   14.34180   17.57747
      22      444        2     0.00000   16.06621   10.73610   11.08430
      23      444        2     0.00000   12.84631   12.59511   16.34238
      24      444        2     0.00000    8.60097   14.95298   12.87456
      25      444        2     0.00000   16.55159   21.35280    7.66242
      26      444        2     0.00000   20.74437   18.83891   11.08430
      27      444        2     0.00000    8.64918   10.48866   12.87456
      28      444        2     0.00000    9.91381   16.36461    7.66242
      29      444        2     0.00000   17.55260   13.11022    7.66242
      30      444        2     0.00000   17.33085    8.54570   11.08430
      31      444        2     0.00000   19.15720   16.46229    4.36219
      32      444        2     0.00000   12.01449   13.29895    4.36219
      33      444        2     0.00000   13.27913   10.73610   11.08430
      34      444        2     0.00000   19.43153   12.67907   12.87456
      35      444        3     0.00000   11.60549   11.84055   11.90575
      36      444        3     0.00000   11.78781   18.60812   16.91444
      37      444        3     0.00000   17.55753   22.14979   11.90575
      38      444        3     0.00000   17.73985   15.17170    7.19479
      39      444        3     0.00000   14.67267   20.48421    7.19479
      40      444        3     0.00000   17.55753   18.60812   16.91444
      41      444        3     0.00000   20.62471   16.83728   11.90575
      42      444        3     0.00000   11.78781   22.14979   11.90575
      43      444        3     0.00000    8.72063   16.83728   11.90575
      44      444        3     0.00000   11.60549   15.17170    7.19479
      45      444        3     0.00000   14.67267   13.61139   16.91444
      46      444        3     0.00000   17.73985   11.84055   11.90575
      47      444        3     0.00000   10.35883   11.75893   12.48665
      48      444        3     0.00000   18.60272   13.43330    5.79699
      49      444        3     0.00000   11.57053    9.46523   11.47484
      50      444        3     0.00000   18.10459   16.13898    6.22617
      51      444        3     0.00000   13.65262   20.31645    6.22617
      52      444        3     0.00000    9.66855   15.29364    5.79699
      53      444        3     0.00000   21.31873   15.79845   12.48665
      54      444        3     0.00000   19.67679   10.56334   12.48665
      55      444        3     0.00000    8.02661   17.99467   11.47484
      56      444        3     0.00000   12.26081   14.37219    6.22617
      57      444        3     0.00000   15.74674   13.62942   17.77718
      58      444        3     0.00000   17.08453   10.66082   11.47484
      59      444        3     0.00000   13.65262   12.64224   17.07914
      60      444        3     0.00000    8.02661   15.79845   12.48665
      61      444        3     0.00000   15.74674   21.30363    6.92421
      62      444        3     0.00000   21.31873   17.99467   11.47484
      63      444        3     0.00000    9.66855   10.56334   12.48665
      64      444        3     0.00000   10.35883   15.69217    6.92421
      65      444        3     0.00000   17.91245   13.83183    6.92421
      66      444        3     0.00000   17.77481    9.46523   11.47484
      67      444        3     0.00000   18.79486   15.74045    5.09895
      68      444        3     0.00000   11.57053   13.97366    5.09895
      69      444        3     0.00000   12.26081   10.66082   11.47484
      70      444        3     0.00000   18.98651   11.75893   12.48665
      71      444        3     0.00000   16.96795   15.61736    8.37750
      72      444        3     0.00000   16.84916   20.84950   11.93169
      73      444        3     0.00000   12.49618   18.19913   15.67986
      74      444        3     0.00000   12.37739   13.10417   11.93169
      75      444        3     0.00000   19.14444   16.87395   11.93169
      76      444        3     0.00000   16.96795   13.10417   11.93169
      77      444        3     0.00000   14.67267   19.59290    8.37750
      78      444        3     0.00000   12.37739   15.61736    8.37750
      79      444        3     0.00000   14.67267   14.42935   15.67986
      80      444        3     0.00000   12.49618   20.84950   11.93169
      81      444        3     0.00000   10.20090   16.87395   11.93169
      82      444        3     0.00000   16.84916   18.19913   15.67986
      83      444        4     0.00000    7.33634    4.23564    9.56110
      84      444        4     0.00000    1.97518    1.14037    0.80636
      85      444        4     0.00000   12.69749    1.14037    0.80636
      86      444        4     0.00000    7.33634   10.42617    0.80636
      87      444        5     0.00000   13.26027   13.27390   11.02306
      88      444        5     0.00000   13.33607   19.02404   15.18186
      89      444        5     0.00000   16.00927   20.65494   12.87542
      90      444        5     0.00000   16.08507   14.81728    8.84040
      91      444        5     0.00000   15.80700   19.22834    8.84040
      92      444        5     0.00000   17.14360   17.05932   15.18186
      93      444        5     0.00000   18.55600   17.55369   11.02306
      94      444        5     0.00000   12.20174   20.00003   11.02306
      95      444        5     0.00000   10.78934   16.24387   12.87542
      96      444        5     0.00000   12.12594   16.78200    8.84040
      97      444        5     0.00000   13.53834   14.74426   15.18186
      98      444        5     0.00000   17.21940   13.92881   12.87542
      99      444        5     0.00000   15.80700   14.74426   15.18186
     100      444        5     0.00000   10.78934   17.55369   11.02306
     101      444        5     0.00000   13.53834   19.22834    8.84040
     102      444        5     0.00000   18.55600   16.24387   12.87542
     103      444        5     0.00000   17.14360   20.00003   11.02306
     104      444        5     0.00000   13.26027   14.81728    8.84040
     105      444        5     0.00000   17.21940   16.78200    8.84040
     106      444        5     0.00000   13.33607   20.65494   12.87542
     107      444        5     0.00000   12.20174   17.05932   15.18186
     108      444        5     0.00000   16.00927   19.02404   15.18186
     109      444        5     0.00000   12.12594   13.92881   12.87542
     110      444        5     0.00000   16.08507   13.27390   11.02306
     111      444        6     0.00000   22.00901   12.70690    1.81205
     112      444        6     0.00000   27.86581   16.08833   11.37617
     113      444        6     0.00000   16.15220   16.08833   11.37617
     114      444        6     0.00000   22.00901    5.94405   11.37617
     115      444        1     0.00000   22.00901   19.14853   22.52519
     116      444        1     0.00000   22.00901    6.26528   13.41536
     117      444        1     0.00000   16.43039    9.48609   22.52519
     118      444        1     0.00000   16.43039   15.92772   13.41536
     119      444        1     0.00000   27.58762    9.48609   22.52519
     120      444        1     0.00000   27.58762   15.92772   13.41536
     121      444        2     0.00000   14.67267   13.74393   13.11106
     122      444        2     0.00000   19.23893    5.83494   13.11106
     123      444        2     0.00000   10.10641    5.83494   13.11106
     124      444        2     0.00000   14.67267    8.47127   20.56773
     125      444        2     0.00000   17.25015   16.91470   24.85474
     126      444        2     0.00000   26.15357   16.61572   17.57747
     127      444        2     0.00000   19.35083   12.78133   23.06449
     128      444        2     0.00000   25.22891   21.42806   18.40751
     129      444        2     0.00000   20.18265   23.84175   18.40751
     130      444        2     0.00000   15.98552   19.87010   17.57747
     131      444        2     0.00000   28.08071   19.18862   24.85474
     132      444        2     0.00000   28.03249   14.72430   24.85474
     133      444        2     0.00000   15.93730   23.07455   23.06449
     134      444        2     0.00000   20.61546   18.26472   18.40751
     135      444        2     0.00000   23.88793   18.57743   29.55766
     136      444        2     0.00000   23.40255   14.97174   23.06449
     137      444        2     0.00000   20.18265   16.83075   28.32256
     138      444        2     0.00000   15.93730   19.18862   24.85474
     139      444        2     0.00000   23.88793   25.58843   19.64261
     140      444        2     0.00000   28.08071   23.07455   23.06449
     141      444        2     0.00000   15.98552   14.72430   24.85474
     142      444        2     0.00000   17.25015   20.60024   19.64261
     143      444        2     0.00000   24.88894   17.34585   19.64261
     144      444        2     0.00000   24.66718   12.78133   23.06449
     145      444        2     0.00000   26.49354   20.69792   16.34238
     146      444        2     0.00000   19.35083   17.53458   16.34238
     147      444        2     0.00000   20.61546   14.97174   23.06449
     148      444        2     0.00000   26.76786   16.91470   24.85474
     149      444        3     0.00000   18.94183   16.07619   23.88594
     150      444        3     0.00000   19.12414   22.84375   28.89462
     151      444        3     0.00000   24.89387   26.38542   23.88594
     152      444        3     0.00000   25.07618   19.40734   19.17498
     153      444        3     0.00000   22.00901   24.71985   19.17498
     154      444        3     0.00000   24.89387   22.84375   28.89462
     155      444        3     0.00000   27.96105   21.07292   23.88594
     156      444        3     0.00000   19.12414   26.38542   23.88594
     157      444        3     0.00000   16.05696   21.07292   23.88594
     158      444        3     0.00000   18.94183   19.40734   19.17498
     159      444        3     0.00000   22.00901   17.84702   28.89462
     160      444        3     0.00000   25.07618   16.07619   23.88594
     161      444        3     0.00000   17.69516   15.99457   24.46683
     162      444        3     0.00000   25.93906   17.66893   17.77718
     163      444        3     0.00000   18.90687   13.70086   23.45503
     164      444        3     0.00000   25.44092   20.37461   18.20636
     165      444        3     0.00000   20.98895   24.55208   18.20636
     166      444        3     0.00000   17.00488   19.52927   17.77718
     167      444        3     0.00000   28.65506   20.03408   24.46683
     168      444        3     0.00000   27.01313   14.79897   24.46683
     169      444        3     0.00000   15.36295   22.23030   23.45503
     170      444        3     0.00000   19.59714   18.60783   18.20636
     171      444        3     0.00000   23.08307   17.86505   29.75736
     172      444        3     0.00000   24.42087   14.89646   23.45503
     173      444        3     0.00000   20.98895   16.87787   29.05932
     174      444        3     0.00000   15.36295   20.03408   24.46683
     175      444        3     0.00000   23.08307   25.53926   18.90440
     176      444        3     0.00000   28.65506   22.23030   23.45503
     177      444        3     0.00000   17.00488   14.79897   24.46683
     178      444        3     0.00000   17.69516   19.92780   18.90440
     179      444        3     0.00000   25.24878   18.06746   18.90440
     180      444        3     0.00000   25.11114   13.70086   23.45503
     181      444        3     0.00000   26.13120   19.97608   17.07914
     182      444        3     0.00000   18.90687   18.20930   17.07914
     183      444        3     0.00000   19.59714   14.89646   23.45503
     184      444        3     0.00000   26.32285   15.99457   24.46683
     185      444        3     0.00000   24.30429   19.85299   20.35769
     186      444        3     0.00000   24.18549   25.08513   23.91187
     187      444        3     0.00000   19.83252   22.43477   27.66005
     188      444        3     0.00000   19.71372   17.33980   23.91187
     189      444        3     0.00000   26.48077   21.10959   23.91187
     190      444        3     0.00000   24.30429   17.33980   23.91187
     191      444        3     0.00000   22.00900   23.82854   20.35769
     192      444        3     0.00000   19.71372   19.85299   20.35769
     193      444        3     0.00000   22.00901   18.66499   27.66005
     194      444        3     0.00000   19.83252   25.08513   23.91187
     195      444        3     0.00000   17.53724   21.10959   23.91187
     196      444        3     0.00000   24.18549   22.43477   27.66005
     197      444        4     0.00000   14.67267    8.47127   21.54128
     198      444        4     0.00000    9.31151    5.37600   12.78655
     199      444        4     0.00000   20.03383    5.37600   12.78655
     200      444        4     0.00000   14.67267   14.66180   12.78655
     201      444        5     0.00000   20.59661   17.50954   23.00324
     202      444        5     0.00000   20.67241   23.25968   27.16204
     203      444        5     0.00000   23.34560   24.89057   24.85561
     204      444        5     0.00000   23.42140   19.05291   20.82059
     205      444        5     0.00000   23.14334   23.46398   20.82059
     206      444        5     0.00000   24.47994   21.29495   27.16204
     207      444        5     0.00000   25.89234   21.78932   23.00324
     208      444        5     0.00000   19.53807   24.23567   23.00324
     209      444        5     0.00000   18.12567   20.47950   24.85561
     210      444        5     0.00000   19.46227   21.01764   20.82059
     211      444        5     0.00000   20.87467   18.97989   27.16204
     212      444        5     0.00000   24.55574   18.16445   24.85561
     213      444        5     0.00000   23.14334   18.97989   27.16204
     214      444        5     0.00000   18.12567   21.78932   23.00324
     215      444        5     0.00000   20.87467   23.46398   20.82059
     216      444        5     0.00000   25.89234   20.47950   24.85561
     217      444        5     0.00000   24.47994   24.23567   23.00324
     218      444        5     0.00000   20.59661   19.05291   20.82059
     219      444        5     0.00000   24.55574   21.01764   20.82059
     220      444        5     0.00000   20.67241   24.89057   24.85561
     221      444        5     0.00000   19.53807   21.29495   27.16204
     222      444        5     0.00000   23.34560   23.25968   27.16204
     223      444        5     0.00000   19.46227   18.16445   24.85561
     224      444        5     0.00000   23.42140   17.50954   23.00324
     225      444        6     0.00000   29.34534   16.94254   13.79223
     226      444        6     0.00000   35.20214   20.32397   23.35635
     227      444        6     0.00000   23.48854   20.32397   23.35635
     228      444        6     0.00000   29.34534   10.17969   23.35635
     229      444        1     0.00000   29.34534   23.38416   34.50538
     230      444        1     0.00000   29.34534   10.50092   25.39555
     231      444        1     0.00000   23.76673   13.72173   34.50538
     232      444        1     0.00000   23.76673   20.16335   25.39555
     233      444        1     0.00000   34.92395   13.72173   34.50538
     234      444        1     0.00000   34.92395   20.16335   25.39555
     235      444        2     0.00000   22.00901   17.97957   25.09125
     236      444        2     0.00000   26.57526   10.07057   25.09125
     237      444        2     0.00000   17.44275   10.07057   25.09125
     238      444        2     0.00000   22.00901   12.70690   32.54792
     239      444        2     0.00000   24.58648   21.15034   36.83493
     240      444        2     0.00000   33.48991   20.85135   29.55766
     241      444        2     0.00000   26.68716   17.01697   35.04467
     242      444        2     0.00000   32.56524   25.66369   30.38770
     243      444        2     0.00000   27.51898   28.07738   30.38770
     244      444        2     0.00000   23.32185   24.10574   29.55766
     245      444        2     0.00000   35.41704   23.42425   36.83493
     246      444        2     0.00000   35.36883   18.95993   36.83493
     247      444        2     0.00000   23.27364   27.31018   35.04467
     248      444        2     0.00000   27.95180   22.50035   30.38770
     249      444        2     0.00000   31.22426   22.81307   41.53784
     250      444        2     0.00000   30.73888   19.20737   35.04467
     251      444        2     0.00000   27.51898   21.06638   40.30275
     252      444        2     0.00000   23.27364   23.42425   36.83493
     253      444        2     0.00000   31.22426   29.82407   31.62279
     254      444        2     0.00000   35.41704   27.31018   35.04467
     255      444        2     0.00000   23.32185   18.95993   36.83493
     256      444        2     0.00000   24.58648   24.83588   31.62279
     257      444        2     0.00000   32.22527   21.58149   31.62279
     258      444        2     0.00000   32.00352   17.01697   35.04467
     259      444        2     0.00000   33.82987   24.93356   28.32256
     260      444        2     0.00000   26.68716   21.77022   28.32256
     261      444        2     0.00000   27.95180   19.20737   35.04467
     262      444        2     0.00000   34.10420   21.15034   36.83493
     263      444        3     0.00000   26.27816   20.31182   35.86612
     264      444        3     0.00000   26.46048   27.07939   40.87481
     265      444        3     0.00000   32.23020   30.62106   35.86612
     266      444        3     0.00000   32.41252   23.64297   31.15516
     267      444        3     0.00000   29.34534   28.95548   31.15516
     268      444        3     0.00000   32.23020   27.07939   40.87481
     269      444        3     0.00000   35.29738   25.30855   35.86612
     270      444        3     0.00000   26.46048   30.62106   35.86612
     271      444        3     0.00000   23.39330   25.30855   35.86612
     272      444        3     0.00000   26.27816   23.64297   31.15516
     273      444        3     0.00000   29.34534   22.08266   40.87481
     274      444        3     0.00000   32.41252   20.31182   35.86612
     275      444        3     0.00000   25.03150   20.23020   36.44702
     276      444        3     0.00000   33.27539   21.90457   29.75736
     277      444        3     0.00000   26.24320   17.93650   35.43521
     278      444        3     0.00000   32.77726   24.61025   30.18654
     279      444        3     0.00000   28.32529   28.78772   30.18654
     280      444        3     0.00000   24.34122   23.76491   29.75736
     281      444        3     0.00000   35.99140   24.26972   36.44702
     282      444        3     0.00000   34.34946   19.03461   36.44702
     283      444        3     0.00000   22.69928   26.46594   35.43521
     284      444        3     0.00000   26.93348   22.84346   30.18654
     285      444        3     0.00000   30.41941   22.10069   41.73755
     286      444        3     0.00000   31.75720   19.13209   35.43521
     287      444        3     0.00000   28.32529   21.11351   41.03951
     288      444        3     0.00000   22.69928   24.26972   36.44702
     289      444        3     0.00000   30.41941   29.77490   30.88458
     290      444        3     0.00000   35.99140   26.46594   35.43521
     291      444        3     0.00000   24.34122   19.03461   36.44702
     292      444        3     0.00000   25.03150   24.16344   30.88458
     293      444        3     0.00000   32.58512   22.30310   30.88458
     294      444        3     0.00000   32.44748   17.93650   35.43521
     295      444        3     0.00000   33.46753   24.21172   29.05932
     296      444        3     0.00000   26.24320   22.44493   29.05932
     297      444        3     0.00000   26.93348   19.13209   35.43521
     298      444        3     0.00000   33.65918   20.23020   36.44702
     299      444        3     0.00000   31.64062   24.08863   32.33787
     300      444        3     0.00000   31.52183   29.32077   35.89206
     301      444        3     0.00000   27.16885   26.67040   39.64023
     302      444        3     0.00000   27.05006   21.57544   35.89206
     303      444        3     0.00000   33.81711   25.34522   35.89206
     304      444        3     0.00000   31.64062   21.57544   35.89206
     305      444        3     0.00000   29.34534   28.06417   32.33787
     306      444        3     0.00000   27.05006   24.08863   32.33787
     307      444        3     0.00000   29.34534   22.90062   39.64023
     308      444        3     0.00000   27.16885   29.32077   35.89206
     309      444        3     0.00000   24.87357   25.34522   35.89206
     310      444        3     0.00000   31.52183   26.67040   39.64023
     311      444        4     0.00000   22.00901   12.70691   33.52147
     312      444        4     0.00000   16.64785    9.61164   24.76673
     313      444        4     0.00000   27.37016    9.61164   24.76673
     314      444        4     0.00000   22.00901   18.89744   24.76673
     315      444        5     0.00000   27.93294   21.74517   34.98343
     316      444        5     0.00000   28.00874   27.49531   39.14223
     317      444        5     0.00000   30.68194   29.12621   36.83579
     318      444        5     0.00000   30.75774   23.28855   32.80077
     319      444        5     0.00000   30.47967   27.69961   32.80077
     320      444        5     0.00000   31.81627   25.53059   39.14223
     321      444        5     0.00000   33.22867   26.02496   34.98343
     322      444        5     0.00000   26.87441   28.47130   34.98343
     323      444        5     0.00000   25.46201   24.71514   36.83579
     324      444        5     0.00000   26.79861   25.25327   32.80077
     325      444        5     0.00000   28.21101   23.21553   39.14223
     326      444        5     0.00000   31.89207   22.40008   36.83579
     327      444        5     0.00000   30.47967   23.21553   39.14223
     328      444        5     0.00000   25.46201   26.02496   34.98343
     329      444        5     0.00000   28.21101   27.69961   32.80077
     330      444        5     0.00000   33.22867   24.71514   36.83579
     331      444        5     0.00000   31.81627   28.47130   34.98343
     332      444        5     0.00000   27.93294   23.28855   32.80077
     333      444        5     0.00000   31.89207   25.25327   32.80077
     334      444        5     0.00000   28.00874   29.12621   36.83579
     335      444        5     0.00000   26.87441   25.53059   39.14223
     336      444        5     0.00000   30.68194   27.49531   39.14223
     337      444        5     0.00000   26.79861   22.40008   36.83579
     338      444        5     0.00000   30.75774   21.74517   34.98343
     339      444        6     0.00000   36.68168   21.17817   25.77242
     340      444        6     0.00000   42.53848   24.55960   35.33654
     341      444        6     0.00000   30.82487   24.55960   35.33654
     342      444        6     0.00000   36.68168   14.41532   35.33654
     343      444        1     0.00000   22.00901   27.61980   10.54501
     344      444        1     0.00000   22.00901   14.73655    1.43518
     345      444        1     0.00000   16.43039   17.95736   10.54501
     346      444        1     0.00000   16.43039   24.39899    1.43518
     347      444        1     0.00000   27.58762   17.95736   10.54501
     348      444        1     0.00000   27.58762   24.39899    1.43518
     349      444        2     0.00000   14.67267   22.21520    1.13088
     350      444        2     0.00000   19.23893   14.30621    1.13088
     351      444        2     0.00000   10.10641   14.30621    1.13088
     352      444        2     0.00000   14.67267   16.94254    8.58755
     353      444        2     0.00000   17.25015   25.38597   12.87456
     354      444        2     0.00000   26.15357   25.08699    5.59729
     355      444        2     0.00000   19.35083   21.25260   11.08430
     356      444        2     0.00000   25.22891   29.89933    6.42733
     357      444        2     0.00000   20.18265   32.31302    6.42733
     358      444        2     0.00000   15.98552   28.34137    5.59729
     359      444        2     0.00000   28.08071   27.65989   12.87456
     360      444        2     0.00000   28.03249   23.19557   12.87456
     361      444        2     0.00000   15.93730   31.54582   11.08430
     362      444        2     0.00000   20.61546   26.73599    6.42733
     363      444        2     0.00000   23.88793   27.04870   17.57747
     364      444        2     0.00000   23.40255   23.44301   11.08430
     365      444        2     0.00000   20.18265   25.30202   16.34238
     366      444        2     0.00000   15.93730   27.65989   12.87456
     367      444        2     0.00000   23.88793   34.05970    7.66242
     368      444        2     0.00000   28.08071   31.54582   11.08430
     369      444        2     0.00000   15.98552   23.19557   12.87456
     370      444        2     0.00000   17.25015   29.07151    7.66242
     371      444        2     0.00000   24.88894   25.81712    7.66242
     372      444        2     0.00000   24.66718   21.25260   11.08430
     373      444        2     0.00000   26.49354   29.16919    4.36219
     374      444        2     0.00000   19.35083   26.00585    4.36219
     375      444        2     0.00000   20.61546   23.44301   11.08430
     376      444        2     0.00000   26.76786   25.38597   12.87456
     377      444        3     0.00000   18.94183   24.54746   11.90575
     378      444        3     0.00000   19.12414   31.31502   16.91444
     379      444        3     0.00000   24.89387   34.85669   11.90575
     380      444        3     0.00000   25.07618   27.87861    7.19479
     381      444        3     0.00000   22.00901   33.19112    7.19479
     382      444        3     0.00000   24.89387   31.31502   16.91444
     383      444        3     0.00000   27.96105   29.54418   11.90575
     384      444        3     0.00000   19.12414   34.85669   11.90575
     385      444        3     0.00000   16.05696   29.54418   11.90575
     386      444        3     0.00000   18.94183   27.87861    7.19479
     387      444        3     0.00000   22.00901   26.31829   16.91444
     388      444        3     0.00000   25.07618   24.54746   11.90575
     389      444        3     0.00000   17.69516   24.46584   12.48665
     390      444        3     0.00000   25.93906   26.14020    5.79699
     391      444        3     0.00000   18.90687   22.17213   11.47484
     392      444        3     0.00000   25.44092   28.84588    6.22617
     393      444        3     0.00000   20.98895   33.02335    6.22617
     394      444        3     0.00000   17.00488   28.00054    5.79699
     395      444        3     0.00000   28.65506   28.50535   12.48665
     396      444        3     0.00000   27.01313   23.27024   12.48665
     397      444        3     0.00000   15.36295   30.70157   11.47484
     398      444        3     0.00000   19.59714   27.07910    6.22617
     399      444        3     0.00000   23.08307   26.33632   17.77718
     400      444        3     0.00000   24.42087   23.36773   11.47484
     401      444        3     0.00000   20.98895   25.34914   17.07914
     402      444        3     0.00000   15.36295   28.50535   12.48665
     403      444        3     0.00000   23.08307   34.01053    6.92421
     404      444        3     0.00000   28.65506   30.70157   11.47484
     405      444        3     0.00000   17.00488   23.27024   12.48665
     406      444        3     0.00000   17.69516   28.39907    6.92421
     407      444        3     0.00000   25.24878   26.53873    6.92421
     408      444        3     0.00000   25.11114   22.17213   11.47484
     409      444        3     0.00000   26.13120   28.44735    5.09895
     410      444        3     0.00000   18.90687   26.68057    5.09895
     411      444        3     0.00000   19.59714   23.36773   11.47484