Created on Sat Aug 20 13:57:35 2022

3078 atoms
8 atom types

0.000000  44.018010 xlo xhi
0.000000  38.120715 ylo yhi
0.000000  35.940555 zlo zhi
22.009005  22.009005  12.706905 xy xz yz

Masses

    1    91.224000000 # Zr3+4
    2     1.007940000 # H_
    3    12.010700000 # C_R
    4    15.999400000 # O_3
    5    15.999400000 # O_R
    6    15.999400000 # O_2
    7    79.904000000 # Br
    8    16.04        # CH4

Atoms

       1      444        1     0.00000   14.67267   14.91289   10.54501
       2      444        1     0.00000   14.67267    2.02965    1.43518
       3      444        1     0.00000    9.09406    5.25046   10.54501
       4      444        1     0.00000    9.09406   11.69208    1.43518
       5      444        1     0.00000   20.25128    5.25046   10.54501
       6      444        1     0.00000   20.25128   11.69208    1.43518
       7      444        2     0.00000    7.33634    9.50830    1.13088
       8      444        2     0.00000   11.90259    1.59930    1.13088
       9      444        2     0.00000    2.77008    1.59930    1.13088
      10      444        2     0.00000    7.33634    4.23563    8.58755
      11      444        2     0.00000    9.20600   10.16718   13.64802
      12      444        2     0.00000   16.73547   13.28140    7.10151
      13      444        2     0.00000    8.60097   15.59594   13.64802
      14      444        2     0.00000   10.47063   16.98668    7.10151
      15      444        2     0.00000   12.53343   13.54855   17.01656
      16      444        2     0.00000   18.87471   12.35759   13.64802
      17      444        2     0.00000   16.81191   13.54855   17.01656
      18      444        2     0.00000    8.60097   18.06613   10.15465
      19      444        2     0.00000   12.53343   20.55954    7.10151
      20      444        2     0.00000   20.74437   15.59594   13.64802
      21      444        2     0.00000   11.34524    8.93209   10.15465
      22      444        2     0.00000   12.60987   13.28140    7.10151
      23      444        2     0.00000   18.87471   16.98668    7.10151
      24      444        2     0.00000   20.13934   10.16718   13.64802
      25      444        2     0.00000   18.00010   12.55126    5.03637
      26      444        2     0.00000    9.20600   16.25654    5.03637
      27      444        2     0.00000   10.47063   12.35759   13.64802
      28      444        2     0.00000   16.73547   11.12250   10.15465
      29      444        3     0.00000   11.60549   11.84055   11.90575
      30      444        3     0.00000   11.78781   18.60812   16.91444
      31      444        3     0.00000   17.55753   22.14979   11.90575
      32      444        3     0.00000   17.73985   15.17170    7.19479
      33      444        3     0.00000   14.67267   20.48421    7.19479
      34      444        3     0.00000   17.55753   18.60812   16.91444
      35      444        3     0.00000   20.62471   16.83728   11.90575
      36      444        3     0.00000   11.78781   22.14979   11.90575
      37      444        3     0.00000    8.72063   16.83728   11.90575
      38      444        3     0.00000   11.60549   15.17170    7.19479
      39      444        3     0.00000   14.67267   13.61139   16.91444
      40      444        3     0.00000   17.73985   11.84055   11.90575
      41      444        3     0.00000   11.85657   10.89421   10.91332
      42      444        3     0.00000   19.38809   15.61617    5.50617
      43      444        3     0.00000    9.95725   10.39665   12.88768
      44      444        3     0.00000   17.48877   13.92058    6.63338
      45      444        3     0.00000   15.88171   20.89233    6.63338
      46      444        3     0.00000   11.16629   13.52205    5.50617
      47      444        3     0.00000   21.31873   17.52789   10.91332
      48      444        3     0.00000   18.17905    9.69861   10.91332
      49      444        3     0.00000    8.02661   16.13181   12.88768
      50      444        3     0.00000   10.64753   16.01470    6.63338
      51      444        3     0.00000   13.46363   13.21812   17.48635
      52      444        3     0.00000   18.69781   11.59225   12.88768
      53      444        3     0.00000   15.88171   13.21812   17.48635
      54      444        3     0.00000    8.02661   17.52789   10.91332
      55      444        3     0.00000   13.46363   20.89233    6.63338
      56      444        3     0.00000   21.31873   16.13181   12.88768
      57      444        3     0.00000   11.16629    9.69861   10.91332
      58      444        3     0.00000   11.85657   13.92058    6.63338
      59      444        3     0.00000   18.69781   16.01470    6.63338
      60      444        3     0.00000   19.38809   10.39665   12.88768
      61      444        3     0.00000   18.17905   13.52205    5.50617
      62      444        3     0.00000    9.95725   15.61617    5.50617
      63      444        3     0.00000   10.64753   11.59225   12.88768
      64      444        3     0.00000   17.48877   10.89421   10.91332
      65      444        3     0.00000   16.96795   15.61736    8.37750
      66      444        3     0.00000   16.84916   20.84950   11.93169
      67      444        3     0.00000   12.49618   18.19913   15.67986
      68      444        3     0.00000   12.37739   13.10417   11.93169
      69      444        3     0.00000   19.14444   16.87395   11.93169
      70      444        3     0.00000   16.96795   13.10417   11.93169
      71      444        3     0.00000   14.67267   19.59290    8.37750
      72      444        3     0.00000   12.37739   15.61736    8.37750
      73      444        3     0.00000   14.67267   14.42935   15.67986
      74      444        3     0.00000   12.49618   20.84950   11.93169
      75      444        3     0.00000   10.20090   16.87395   11.93169
      76      444        3     0.00000   16.84916   18.19913   15.67986
      77      444        4     0.00000    7.33634    4.23564    9.56110
      78      444        4     0.00000    1.97518    1.14037    0.80636
      79      444        4     0.00000   12.69749    1.14037    0.80636
      80      444        4     0.00000    7.33634   10.42617    0.80636
      81      444        5     0.00000   13.26027   13.27390   11.02306
      82      444        5     0.00000   13.33607   19.02404   15.18186
      83      444        5     0.00000   16.00927   20.65494   12.87542
      84      444        5     0.00000   16.08507   14.81728    8.84040
      85      444        5     0.00000   15.80700   19.22834    8.84040
      86      444        5     0.00000   17.14360   17.05932   15.18186
      87      444        5     0.00000   18.55600   17.55369   11.02306
      88      444        5     0.00000   12.20174   20.00003   11.02306
      89      444        5     0.00000   10.78934   16.24387   12.87542
      90      444        5     0.00000   12.12594   16.78200    8.84040
      91      444        5     0.00000   13.53834   14.74426   15.18186
      92      444        5     0.00000   17.21940   13.92881   12.87542
      93      444        5     0.00000   15.80700   14.74426   15.18186
      94      444        5     0.00000   10.78934   17.55369   11.02306
      95      444        5     0.00000   13.53834   19.22834    8.84040
      96      444        5     0.00000   18.55600   16.24387   12.87542
      97      444        5     0.00000   17.14360   20.00003   11.02306
      98      444        5     0.00000   13.26027   14.81728    8.84040
      99      444        5     0.00000   17.21940   16.78200    8.84040
     100      444        5     0.00000   13.33607   20.65494   12.87542
     101      444        5     0.00000   12.20174   17.05932   15.18186
     102      444        5     0.00000   16.00927   19.02404   15.18186
     103      444        5     0.00000   12.12594   13.92881   12.87542
     104      444        5     0.00000   16.08507   13.27390   11.02306
     105      444        6     0.00000   22.00900   12.70690    1.81205
     106      444        6     0.00000   27.86581   16.08833   11.37617
     107      444        6     0.00000   16.15220   16.08833   11.37617
     108      444        6     0.00000   22.00901    5.94405   11.37617
     109      444        7     0.00000   13.23097   11.25812    9.46436
     110      444        7     0.00000   20.78127   16.85012    4.69542
     111      444        7     0.00000   17.64693   20.32447    7.45947
     112      444        7     0.00000   11.53834   11.69855    4.69542
     113      444        7     0.00000   20.31638   18.53620    9.46436
     114      444        7     0.00000   17.80700    8.32640    9.46436
     115      444        1     0.00000   22.00901   19.14853   22.52519
     116      444        1     0.00000   22.00900    6.26528   13.41536
     117      444        1     0.00000   16.43039    9.48609   22.52519
     118      444        1     0.00000   16.43039   15.92772   13.41536
     119      444        1     0.00000   27.58762    9.48609   22.52519
     120      444        1     0.00000   27.58762   15.92772   13.41536
     121      444        2     0.00000   14.67267   13.74393   13.11106
     122      444        2     0.00000   19.23893    5.83494   13.11106
     123      444        2     0.00000   10.10641    5.83494   13.11106
     124      444        2     0.00000   14.67267    8.47127   20.56773
     125      444        2     0.00000   16.54233   14.40282   25.62821
     126      444        2     0.00000   24.07180   17.51703   19.08169
     127      444        2     0.00000   15.93730   19.83158   25.62821
     128      444        2     0.00000   17.80696   21.22231   19.08169
     129      444        2     0.00000   19.86976   17.78418   28.99674
     130      444        2     0.00000   26.21105   16.59323   25.62821
     131      444        2     0.00000   24.14825   17.78418   28.99674
     132      444        2     0.00000   15.93730   22.30176   22.13484
     133      444        2     0.00000   19.86976   24.79518   19.08169
     134      444        2     0.00000   28.08071   19.83158   25.62821
     135      444        2     0.00000   18.68158   13.16773   22.13484
     136      444        2     0.00000   19.94621   17.51703   19.08169
     137      444        2     0.00000   26.21105   21.22231   19.08169
     138      444        2     0.00000   27.47568   14.40282   25.62821
     139      444        2     0.00000   25.33643   16.78690   17.01656
     140      444        2     0.00000   16.54233   20.49218   17.01656
     141      444        2     0.00000   17.80696   16.59323   25.62821
     142      444        2     0.00000   24.07180   15.35813   22.13484
     143      444        3     0.00000   18.94183   16.07619   23.88594
     144      444        3     0.00000   19.12414   22.84375   28.89462
     145      444        3     0.00000   24.89387   26.38542   23.88594
     146      444        3     0.00000   25.07618   19.40734   19.17498
     147      444        3     0.00000   22.00900   24.71985   19.17498
     148      444        3     0.00000   24.89387   22.84375   28.89462
     149      444        3     0.00000   27.96105   21.07292   23.88594
     150      444        3     0.00000   19.12414   26.38542   23.88594
     151      444        3     0.00000   16.05696   21.07292   23.88594
     152      444        3     0.00000   18.94183   19.40734   19.17498
     153      444        3     0.00000   22.00901   17.84702   28.89462
     154      444        3     0.00000   25.07618   16.07619   23.88594
     155      444        3     0.00000   19.19291   15.12984   22.89351
     156      444        3     0.00000   26.72442   19.85181   17.48635
     157      444        3     0.00000   17.29359   14.63229   24.86787
     158      444        3     0.00000   24.82510   18.15622   18.61357
     159      444        3     0.00000   23.21805   25.12797   18.61357
     160      444        3     0.00000   18.50263   17.75769   17.48635
     161      444        3     0.00000   28.65506   21.76353   22.89351
     162      444        3     0.00000   25.51538   13.93425   22.89351
     163      444        3     0.00000   15.36295   20.36745   24.86787
     164      444        3     0.00000   17.98386   20.25034   18.61357
     165      444        3     0.00000   20.79996   17.45376   29.46654
     166      444        3     0.00000   26.03415   15.82788   24.86787
     167      444        3     0.00000   23.21805   17.45376   29.46654
     168      444        3     0.00000   15.36295   21.76353   22.89351
     169      444        3     0.00000   20.79996   25.12797   18.61357
     170      444        3     0.00000   28.65506   20.36745   24.86787
     171      444        3     0.00000   18.50263   13.93425   22.89351
     172      444        3     0.00000   19.19291   18.15622   18.61357
     173      444        3     0.00000   26.03415   20.25034   18.61357
     174      444        3     0.00000   26.72442   14.63229   24.86787
     175      444        3     0.00000   25.51538   17.75769   17.48635
     176      444        3     0.00000   17.29359   19.85181   17.48635
     177      444        3     0.00000   17.98386   15.82788   24.86787
     178      444        3     0.00000   24.82510   15.12984   22.89351
     179      444        3     0.00000   24.30429   19.85299   20.35769
     180      444        3     0.00000   24.18549   25.08513   23.91187
     181      444        3     0.00000   19.83252   22.43477   27.66005
     182      444        3     0.00000   19.71372   17.33980   23.91187
     183      444        3     0.00000   26.48077   21.10959   23.91187
     184      444        3     0.00000   24.30429   17.33980   23.91187
     185      444        3     0.00000   22.00900   23.82854   20.35769
     186      444        3     0.00000   19.71372   19.85299   20.35769
     187      444        3     0.00000   22.00901   18.66499   27.66005
     188      444        3     0.00000   19.83252   25.08513   23.91187
     189      444        3     0.00000   17.53724   21.10959   23.91187
     190      444        3     0.00000   24.18549   22.43477   27.66005
     191      444        4     0.00000   14.67267    8.47127   21.54128
     192      444        4     0.00000    9.31151    5.37600   12.78655
     193      444        4     0.00000   20.03383    5.37600   12.78655
     194      444        4     0.00000   14.67267   14.66180   12.78655
     195      444        5     0.00000   20.59661   17.50954   23.00324
     196      444        5     0.00000   20.67241   23.25968   27.16204
     197      444        5     0.00000   23.34560   24.89057   24.85561
     198      444        5     0.00000   23.42140   19.05291   20.82059
     199      444        5     0.00000   23.14334   23.46398   20.82059
     200      444        5     0.00000   24.47994   21.29495   27.16204
     201      444        5     0.00000   25.89234   21.78932   23.00324
     202      444        5     0.00000   19.53807   24.23567   23.00324
     203      444        5     0.00000   18.12567   20.47950   24.85561
     204      444        5     0.00000   19.46227   21.01764   20.82059
     205      444        5     0.00000   20.87467   18.97989   27.16204
     206      444        5     0.00000   24.55574   18.16445   24.85561
     207      444        5     0.00000   23.14334   18.97989   27.16204
     208      444        5     0.00000   18.12567   21.78932   23.00324
     209      444        5     0.00000   20.87467   23.46398   20.82059
     210      444        5     0.00000   25.89234   20.47950   24.85561
     211      444        5     0.00000   24.47994   24.23567   23.00324
     212      444        5     0.00000   20.59661   19.05291   20.82059
     213      444        5     0.00000   24.55574   21.01764   20.82059
     214      444        5     0.00000   20.67241   24.89057   24.85561
     215      444        5     0.00000   19.53807   21.29495   27.16204
     216      444        5     0.00000   23.34560   23.25968   27.16204
     217      444        5     0.00000   19.46227   18.16445   24.85561
     218      444        5     0.00000   23.42140   17.50954   23.00324
     219      444        6     0.00000   29.34534   16.94254   13.79223
     220      444        6     0.00000   35.20214   20.32397   23.35635
     221      444        6     0.00000   23.48854   20.32397   23.35635
     222      444        6     0.00000   29.34534   10.17969   23.35635
     223      444        7     0.00000   20.56730   15.49375   21.44454
     224      444        7     0.00000   28.11760   21.08576   16.67560
     225      444        7     0.00000   24.98327   24.56010   19.43965
     226      444        7     0.00000   18.87467   15.93418   16.67560
     227      444        7     0.00000   27.65271   22.77183   21.44454
     228      444        7     0.00000   25.14334   12.56203   21.44454
     229      444        1     0.00000   29.34534   23.38416   34.50538
     230      444        1     0.00000   29.34534   10.50092   25.39555
     231      444        1     0.00000   23.76673   13.72173   34.50538
     232      444        1     0.00000   23.76673   20.16335   25.39555
     233      444        1     0.00000   34.92395   13.72173   34.50538
     234      444        1     0.00000   34.92395   20.16335   25.39555
     235      444        2     0.00000   22.00901   17.97957   25.09125
     236      444        2     0.00000   26.57526   10.07057   25.09125
     237      444        2     0.00000   17.44275   10.07057   25.09125
     238      444        2     0.00000   22.00901   12.70690   32.54792
     239      444        2     0.00000   23.87867   18.63845   37.60839
     240      444        2     0.00000   31.40814   21.75267   31.06188
     241      444        2     0.00000   23.27364   24.06721   37.60839
     242      444        2     0.00000   25.14330   25.45795   31.06188
     243      444        2     0.00000   27.20610   22.01982   40.97693
     244      444        2     0.00000   33.54738   20.82886   37.60839
     245      444        2     0.00000   31.48458   22.01982   40.97693
     246      444        2     0.00000   23.27364   26.53740   34.11502
     247      444        2     0.00000   27.20610   29.03081   31.06188
     248      444        2     0.00000   35.41704   24.06721   37.60839
     249      444        2     0.00000   26.01791   17.40336   34.11502
     250      444        2     0.00000   27.28254   21.75267   31.06188
     251      444        2     0.00000   33.54738   25.45795   31.06188
     252      444        2     0.00000   34.81201   18.63845   37.60839
     253      444        2     0.00000   32.67277   21.02253   28.99674
     254      444        2     0.00000   23.87867   24.72781   28.99674
     255      444        2     0.00000   25.14330   20.82886   37.60839
     256      444        2     0.00000   31.40814   19.59377   34.11502
     257      444        3     0.00000   26.27816   20.31182   35.86612
     258      444        3     0.00000   26.46048   27.07939   40.87481
     259      444        3     0.00000   32.23020   30.62106   35.86612
     260      444        3     0.00000   32.41252   23.64297   31.15516
     261      444        3     0.00000   29.34534   28.95548   31.15516
     262      444        3     0.00000   32.23020   27.07939   40.87481
     263      444        3     0.00000   35.29738   25.30855   35.86612
     264      444        3     0.00000   26.46048   30.62106   35.86612
     265      444        3     0.00000   23.39330   25.30855   35.86612
     266      444        3     0.00000   26.27816   23.64297   31.15516
     267      444        3     0.00000   29.34534   22.08266   40.87481
     268      444        3     0.00000   32.41252   20.31182   35.86612
     269      444        3     0.00000   26.52924   19.36548   34.87369
     270      444        3     0.00000   34.06076   24.08744   29.46654
     271      444        3     0.00000   24.62992   18.86792   36.84805
     272      444        3     0.00000   32.16144   22.39185   30.59375
     273      444        3     0.00000   30.55438   29.36360   30.59375
     274      444        3     0.00000   25.83896   21.99332   29.46654
     275      444        3     0.00000   35.99140   25.99916   34.87369
     276      444        3     0.00000   32.85172   18.16988   34.87369
     277      444        3     0.00000   22.69928   24.60308   36.84805
     278      444        3     0.00000   25.32020   24.48597   30.59375
     279      444        3     0.00000   28.13630   21.68939   41.44672
     280      444        3     0.00000   33.37048   20.06352   36.84805
     281      444        3     0.00000   30.55438   21.68939   41.44672
     282      444        3     0.00000   22.69928   25.99916   34.87369
     283      444        3     0.00000   28.13630   29.36360   30.59375
     284      444        3     0.00000   35.99140   24.60308   36.84805
     285      444        3     0.00000   25.83896   18.16988   34.87369
     286      444        3     0.00000   26.52924   22.39185   30.59375
     287      444        3     0.00000   33.37048   24.48597   30.59375
     288      444        3     0.00000   34.06076   18.86792   36.84805
     289      444        3     0.00000   32.85172   21.99332   29.46654
     290      444        3     0.00000   24.62992   24.08744   29.46654
     291      444        3     0.00000   25.32020   20.06352   36.84805
     292      444        3     0.00000   32.16144   19.36548   34.87369
     293      444        3     0.00000   31.64062   24.08863   32.33787
     294      444        3     0.00000   31.52183   29.32077   35.89206
     295      444        3     0.00000   27.16885   26.67040   39.64023
     296      444        3     0.00000   27.05006   21.57544   35.89206
     297      444        3     0.00000   33.81711   25.34522   35.89206
     298      444        3     0.00000   31.64062   21.57544   35.89206
     299      444        3     0.00000   29.34534   28.06417   32.33787
     300      444        3     0.00000   27.05006   24.08863   32.33787
     301      444        3     0.00000   29.34534   22.90062   39.64023
     302      444        3     0.00000   27.16885   29.32077   35.89206
     303      444        3     0.00000   24.87357   25.34522   35.89206
     304      444        3     0.00000   31.52183   26.67040   39.64023
     305      444        4     0.00000   22.00901   12.70691   33.52147
     306      444        4     0.00000   16.64785    9.61164   24.76673
     307      444        4     0.00000   27.37016    9.61164   24.76673
     308      444        4     0.00000   22.00901   18.89744   24.76673
     309      444        5     0.00000   27.93294   21.74517   34.98343
     310      444        5     0.00000   28.00874   27.49531   39.14223
     311      444        5     0.00000   30.68194   29.12621   36.83579
     312      444        5     0.00000   30.75774   23.28855   32.80077
     313      444        5     0.00000   30.47967   27.69961   32.80077
     314      444        5     0.00000   31.81627   25.53059   39.14223
     315      444        5     0.00000   33.22867   26.02496   34.98343
     316      444        5     0.00000   26.87441   28.47130   34.98343
     317      444        5     0.00000   25.46201   24.71514   36.83579
     318      444        5     0.00000   26.79861   25.25327   32.80077
     319      444        5     0.00000   28.21101   23.21553   39.14223
     320      444        5     0.00000   31.89207   22.40008   36.83579
     321      444        5     0.00000   30.47967   23.21553   39.14223
     322      444        5     0.00000   25.46201   26.02496   34.98343
     323      444        5     0.00000   28.21101   27.69961   32.80077
     324      444        5     0.00000   33.22867   24.71514   36.83579
     325      444        5     0.00000   31.81627   28.47130   34.98343
     326      444        5     0.00000   27.93294   23.28855   32.80077
     327      444        5     0.00000   31.89207   25.25327   32.80077
     328      444        5     0.00000   28.00874   29.12621   36.83579
     329      444        5     0.00000   26.87441   25.53059   39.14223
     330      444        5     0.00000   30.68194   27.49531   39.14223
     331      444        5     0.00000   26.79861   22.40008   36.83579
     332      444        5     0.00000   30.75774   21.74517   34.98343
     333      444        6     0.00000   36.68167   21.17817   25.77242
     334      444        6     0.00000   42.53848   24.55960   35.33654
     335      444        6     0.00000   30.82487   24.55960   35.33654
     336      444        6     0.00000   36.68168   14.41532   35.33654
     337      444        7     0.00000   27.90364   19.72939   33.42473
     338      444        7     0.00000   35.45394   25.32139   28.65579
     339      444        7     0.00000   32.31960   28.79574   31.41984
     340      444        7     0.00000   26.21101   20.16982   28.65579
     341      444        7     0.00000   34.98905   27.00747   33.42473
     342      444        7     0.00000   32.47967   16.79767   33.42473
     343      444        1     0.00000   22.00901   27.61980   10.54501
     344      444        1     0.00000   22.00900   14.73655    1.43518
     345      444        1     0.00000   16.43039   17.95736   10.54501
     346      444        1     0.00000   16.43039   24.39899    1.43518
     347      444        1     0.00000   27.58762   17.95736   10.54501
     348      444        1     0.00000   27.58762   24.39899    1.43518
     349      444        2     0.00000   14.67267   22.21520    1.13088
     350      444        2     0.00000   19.23893   14.30621    1.13088
     351      444        2     0.00000   10.10641   14.30621    1.13088
     352      444        2     0.00000   14.67267   16.94254    8.58755
     353      444        2     0.00000   16.54233   22.87409   13.64802
     354      444        2     0.00000   24.07180   25.98830    7.10151
     355      444        2     0.00000   15.93730   28.30285   13.64802
     356      444        2     0.00000   17.80696   29.69358    7.10151
     357      444        2     0.00000   19.86976   26.25545   17.01656
     358      444        2     0.00000   26.21105   25.06450   13.64802
     359      444        2     0.00000   24.14825   26.25545   17.01656
     360      444        2     0.00000   15.93730   30.77303   10.15465
     361      444        2     0.00000   19.86976   33.26645    7.10151
     362      444        2     0.00000   28.08071   28.30285   13.64802
     363      444        2     0.00000   18.68158   21.63900   10.15465
     364      444        2     0.00000   19.94621   25.98830    7.10151
     365      444        2     0.00000   26.21105   29.69358    7.10151
     366      444        2     0.00000   27.47568   22.87409   13.64802
     367      444        2     0.00000   25.33643   25.25817    5.03637
     368      444        2     0.00000   16.54233   28.96345    5.03637
     369      444        2     0.00000   17.80696   25.06450   13.64802
     370      444        2     0.00000   24.07180   23.82940   10.15465
     371      444        3     0.00000   18.94183   24.54746   11.90575
     372      444        3     0.00000   19.12414   31.31502   16.91444
     373      444        3     0.00000   24.89387   34.85669   11.90575
     374      444        3     0.00000   25.07618   27.87861    7.19479
     375      444        3     0.00000   22.00900   33.19112    7.19479
     376      444        3     0.00000   24.89387   31.31502   16.91444
     377      444        3     0.00000   27.96105   29.54418   11.90575
     378      444        3     0.00000   19.12414   34.85669   11.90575
     379      444        3     0.00000   16.05696   29.54418   11.90575
     380      444        3     0.00000   18.94183   27.87861    7.19479
     381      444        3     0.00000   22.00901   26.31829   16.91444
     382      444        3     0.00000   25.07618   24.54746   11.90575
     383      444        3     0.00000   19.19291   23.60111   10.91332
     384      444        3     0.00000   26.72442   28.32308    5.50617
     385      444        3     0.00000   17.29359   23.10356   12.88768
     386      444        3     0.00000   24.82510   26.62749    6.63338
     387      444        3     0.00000   23.21805   33.59924    6.63338
     388      444        3     0.00000   18.50263   26.22896    5.50617
     389      444        3     0.00000   28.65506   30.23480   10.91332
     390      444        3     0.00000   25.51538   22.40552   10.91332
     391      444        3     0.00000   15.36295   28.83872   12.88768
     392      444        3     0.00000   17.98386   28.72161    6.63338
     393      444        3     0.00000   20.79996   25.92503   17.48635
     394      444        3     0.00000   26.03415   24.29915   12.88768
     395      444        3     0.00000   23.21805   25.92503   17.48635
     396      444        3     0.00000   15.36295   30.23480   10.91332
     397      444        3     0.00000   20.79996   33.59924    6.63338
     398      444        3     0.00000   28.65506   28.83872   12.88768
     399      444        3     0.00000   18.50263   22.40552   10.91332
     400      444        3     0.00000   19.19291   26.62749    6.63338
     401      444        3     0.00000   26.03415   28.72161    6.63338
     402      444        3     0.00000   26.72442   23.10356   12.88768
     403      444        3     0.00000   25.51538   26.22896    5.50617
     404      444        3     0.00000   17.29359   28.32308    5.50617
     405      444        3     0.00000   17.98386   24.29915   12.88768
     406      444        3     0.00000   24.82510   23.60111   10.91332
     407      444        3     0.00000   24.30429   28.32426    8.37750
     408      444        3     0.00000   24.18549   33.55640   11.93169
     409      444        3     0.00000   19.83252   30.90604   15.67986
     410      444        3     0.00000   19.71372   25.81107   11.93169