Created on Wed Jul 27 11:38:35 2022

3078 atoms
7 atom types

0.000000  44.018010 xlo xhi
0.000000  38.120715 ylo yhi
0.000000  35.940555 zlo zhi
22.009005  22.009005  12.706905 xy xz yz

Masses

    1    91.224000000 # Zr3+4
    2     1.007940000 # H_
    3    12.010700000 # C_R
    4    15.999400000 # O_3
    5    15.999400000 # O_R
    6    15.999400000 # O_2
    7    16.04        # CH4

Atoms

       1      444        1     0.00000   14.67267   14.91289   10.54501
       2      444        1     0.00000   14.67267    2.02965    1.43518
       3      444        1     0.00000    9.09406    5.25046   10.54501
       4      444        1     0.00000    9.09406   11.69208    1.43518
       5      444        1     0.00000   20.25128    5.25046   10.54501
       6      444        1     0.00000   20.25128   11.69208    1.43518
       7      444        2     0.00000    7.33634    9.50830    1.13088
       8      444        2     0.00000   11.90259    1.59930    1.13088
       9      444        2     0.00000    2.77008    1.59930    1.13088
      10      444        2     0.00000    7.33634    4.23563    8.58755
      11      444        2     0.00000   11.70207   11.64662    9.79664
      12      444        2     0.00000   20.73426   15.55178    5.64985
      13      444        2     0.00000   10.09748    9.65249   14.05708
      14      444        2     0.00000   16.10431   13.94639    6.47989
      15      444        2     0.00000   16.55159   19.68045    6.47989
      16      444        2     0.00000   10.43744   12.38843    5.64985
      17      444        2     0.00000   20.74437   17.01789    9.79664
      18      444        2     0.00000   18.90790    9.45621    9.79664
      19      444        2     0.00000    8.60097   16.62533   14.05708
      20      444        2     0.00000   11.36211   17.20078    6.47989
      21      444        2     0.00000   12.84631   14.41614   17.63004
      22      444        2     0.00000   17.98323   11.84290   14.05708
      23      444        2     0.00000   16.55159   12.66945   16.39494
      24      444        2     0.00000    8.60097   17.01789    9.79664
      25      444        2     0.00000   12.84631   21.42714    7.71499
      26      444        2     0.00000   20.74437   16.62533   14.05708
      27      444        2     0.00000   10.43744    9.45621    9.79664
      28      444        2     0.00000   11.70207   13.11857    7.71499
      29      444        2     0.00000   19.46962   16.28191    7.71499
      30      444        2     0.00000   19.24786    9.65249   14.05708
      31      444        2     0.00000   17.36894   13.21625    4.41476
      32      444        2     0.00000   10.09748   16.47064    4.41476
      33      444        2     0.00000   11.36211   11.84290   14.05708
      34      444        2     0.00000   17.64327   11.64662    9.79664
      35      444        3     0.00000   11.60549   11.84055   11.90575
      36      444        3     0.00000   11.78781   18.60812   16.91444
      37      444        3     0.00000   17.55753   22.14979   11.90575
      38      444        3     0.00000   17.73985   15.17170    7.19479
      39      444        3     0.00000   14.67267   20.48421    7.19479
      40      444        3     0.00000   17.55753   18.60812   16.91444
      41      444        3     0.00000   20.62471   16.83728   11.90575
      42      444        3     0.00000   11.78781   22.14979   11.90575
      43      444        3     0.00000    8.72063   16.83728   11.90575
      44      444        3     0.00000   11.60549   15.17170    7.19479
      45      444        3     0.00000   14.67267   13.61139   16.91444
      46      444        3     0.00000   17.73985   11.84055   11.90575
      47      444        3     0.00000   11.33973   11.19260   10.72279
      48      444        3     0.00000   19.71594   15.20866    5.85101
      49      444        3     0.00000   10.45732   10.10794   13.13067
      50      444        3     0.00000   17.12368   14.28722    6.28019
      51      444        3     0.00000   15.74674   20.39283    6.28019
      52      444        3     0.00000   10.64946   13.44188    5.85101
      53      444        3     0.00000   21.31873   16.93110   10.72279
      54      444        3     0.00000   18.69588    9.99701   10.72279
      55      444        3     0.00000    8.02661   16.70924   13.13067
      56      444        3     0.00000   11.14759   16.14756    6.28019
      57      444        3     0.00000   13.65262   13.70580   17.83119
      58      444        3     0.00000   18.19775   11.30354   13.13067
      59      444        3     0.00000   15.74674   12.71863   17.13315
      60      444        3     0.00000    8.02661   16.93110   10.72279
      61      444        3     0.00000   13.65262   21.38001    6.97823
      62      444        3     0.00000   21.31873   16.70924   13.13067
      63      444        3     0.00000   10.64946    9.99701   10.72279
      64      444        3     0.00000   11.33973   13.84041    6.97823
      65      444        3     0.00000   19.02566   15.60720    6.97823
      66      444        3     0.00000   18.88802   10.10794   13.13067
      67      444        3     0.00000   17.81395   13.88869    5.15297
      68      444        3     0.00000   10.45732   15.74903    5.15297
      69      444        3     0.00000   11.14759   11.30354   13.13067
      70      444        3     0.00000   18.00561   11.19260   10.72279
      71      444        3     0.00000   16.96795   15.61736    8.37750
      72      444        3     0.00000   16.84916   20.84950   11.93169
      73      444        3     0.00000   12.49618   18.19913   15.67986
      74      444        3     0.00000   12.37739   13.10417   11.93169
      75      444        3     0.00000   19.14444   16.87395   11.93169
      76      444        3     0.00000   16.96795   13.10417   11.93169
      77      444        3     0.00000   14.67267   19.59290    8.37750
      78      444        3     0.00000   12.37739   15.61736    8.37750
      79      444        3     0.00000   14.67267   14.42935   15.67986
      80      444        3     0.00000   12.49618   20.84950   11.93169
      81      444        3     0.00000   10.20090   16.87395   11.93169
      82      444        3     0.00000   16.84916   18.19913   15.67986
      83      444        4     0.00000    7.33634    4.23564    9.56110
      84      444        4     0.00000    1.97518    1.14037    0.80636
      85      444        4     0.00000   12.69749    1.14037    0.80636
      86      444        4     0.00000    7.33634   10.42617    0.80636
      87      444        5     0.00000   13.26027   13.27390   11.02306
      88      444        5     0.00000   13.33607   19.02404   15.18186
      89      444        5     0.00000   16.00927   20.65494   12.87542
      90      444        5     0.00000   16.08507   14.81728    8.84040
      91      444        5     0.00000   15.80700   19.22834    8.84040
      92      444        5     0.00000   17.14360   17.05932   15.18186
      93      444        5     0.00000   18.55600   17.55369   11.02306
      94      444        5     0.00000   12.20174   20.00003   11.02306
      95      444        5     0.00000   10.78934   16.24387   12.87542
      96      444        5     0.00000   12.12594   16.78200    8.84040
      97      444        5     0.00000   13.53834   14.74426   15.18186
      98      444        5     0.00000   17.21940   13.92881   12.87542
      99      444        5     0.00000   15.80700   14.74426   15.18186
     100      444        5     0.00000   10.78934   17.55369   11.02306
     101      444        5     0.00000   13.53834   19.22834    8.84040
     102      444        5     0.00000   18.55600   16.24387   12.87542
     103      444        5     0.00000   17.14360   20.00003   11.02306
     104      444        5     0.00000   13.26027   14.81728    8.84040
     105      444        5     0.00000   17.21940   16.78200    8.84040
     106      444        5     0.00000   13.33607   20.65494   12.87542
     107      444        5     0.00000   12.20174   17.05932   15.18186
     108      444        5     0.00000   16.00927   19.02404   15.18186
     109      444        5     0.00000   12.12594   13.92881   12.87542
     110      444        5     0.00000   16.08507   13.27390   11.02306
     111      444        6     0.00000   22.00901   12.70690    1.81205
     112      444        6     0.00000   27.86581   16.08833   11.37617
     113      444        6     0.00000   16.15220   16.08833   11.37617
     114      444        6     0.00000   22.00901    5.94405   11.37617
     115      444        1     0.00000   22.00901   19.14853   22.52519
     116      444        1     0.00000   22.00901    6.26528   13.41536
     117      444        1     0.00000   16.43039    9.48609   22.52519
     118      444        1     0.00000   16.43039   15.92772   13.41536
     119      444        1     0.00000   27.58762    9.48609   22.52519
     120      444        1     0.00000   27.58762   15.92772   13.41536
     121      444        2     0.00000   14.67267   13.74393   13.11106
     122      444        2     0.00000   19.23893    5.83494   13.11106
     123      444        2     0.00000   10.10641    5.83494   13.11106
     124      444        2     0.00000   14.67267    8.47127   20.56773
     125      444        2     0.00000   19.03841   15.88225   21.77683
     126      444        2     0.00000   28.07059   19.78741   17.63004
     127      444        2     0.00000   17.43381   13.88812   26.03727
     128      444        2     0.00000   23.44065   18.18202   18.46008
     129      444        2     0.00000   23.88793   23.91609   18.46008
     130      444        2     0.00000   17.77378   16.62407   17.63004
     131      444        2     0.00000   28.08071   21.25352   21.77683
     132      444        2     0.00000   26.24423   13.69184   21.77683
     133      444        2     0.00000   15.93730   20.86097   26.03727
     134      444        2     0.00000   18.69844   21.43641   18.46008
     135      444        2     0.00000   20.18265   18.65177   29.61022
     136      444        2     0.00000   25.31957   16.07853   26.03727
     137      444        2     0.00000   23.88793   16.90509   28.37513
     138      444        2     0.00000   15.93730   21.25352   21.77683
     139      444        2     0.00000   20.18265   25.66277   19.69517
     140      444        2     0.00000   28.08071   20.86097   26.03727
     141      444        2     0.00000   17.77378   13.69184   21.77683
     142      444        2     0.00000   19.03841   17.35420   19.69517
     143      444        2     0.00000   26.80596   20.51755   19.69517
     144      444        2     0.00000   26.58420   13.88812   26.03727
     145      444        2     0.00000   24.70528   17.45189   16.39494
     146      444        2     0.00000   17.43381   20.70628   16.39494
     147      444        2     0.00000   18.69844   16.07853   26.03727
     148      444        2     0.00000   24.97960   15.88225   21.77683
     149      444        3     0.00000   18.94183   16.07619   23.88594
     150      444        3     0.00000   19.12414   22.84375   28.89462
     151      444        3     0.00000   24.89387   26.38542   23.88594
     152      444        3     0.00000   25.07618   19.40734   19.17498
     153      444        3     0.00000   22.00901   24.71985   19.17498
     154      444        3     0.00000   24.89387   22.84375   28.89462
     155      444        3     0.00000   27.96105   21.07292   23.88594
     156      444        3     0.00000   19.12414   26.38542   23.88594
     157      444        3     0.00000   16.05696   21.07292   23.88594
     158      444        3     0.00000   18.94183   19.40734   19.17498
     159      444        3     0.00000   22.00901   17.84702   28.89462
     160      444        3     0.00000   25.07618   16.07619   23.88594
     161      444        3     0.00000   18.67607   15.42824   22.70297
     162      444        3     0.00000   27.05227   19.44430   17.83119
     163      444        3     0.00000   17.79365   14.34358   25.11086
     164      444        3     0.00000   24.46001   18.52286   18.26037
     165      444        3     0.00000   23.08307   24.62847   18.26037
     166      444        3     0.00000   17.98579   17.67752   17.83119
     167      444        3     0.00000   28.65506   21.16673   22.70297
     168      444        3     0.00000   26.03222   14.23265   22.70297
     169      444        3     0.00000   15.36295   20.94487   25.11086
     170      444        3     0.00000   18.48393   20.38320   18.26037
     171      444        3     0.00000   20.98895   17.94144   29.81138
     172      444        3     0.00000   25.53408   15.53917   25.11086
     173      444        3     0.00000   23.08307   16.95426   29.11334
     174      444        3     0.00000   15.36295   21.16673   22.70297
     175      444        3     0.00000   20.98895   25.61565   18.95841
     176      444        3     0.00000   28.65506   20.94487   25.11086
     177      444        3     0.00000   17.98579   14.23265   22.70297
     178      444        3     0.00000   18.67607   18.07605   18.95841
     179      444        3     0.00000   26.36200   19.84283   18.95841
     180      444        3     0.00000   26.22436   14.34358   25.11086
     181      444        3     0.00000   25.15029   18.12433   17.13315
     182      444        3     0.00000   17.79365   19.98467   17.13315
     183      444        3     0.00000   18.48393   15.53917   25.11086
     184      444        3     0.00000   25.34194   15.42824   22.70297
     185      444        3     0.00000   24.30429   19.85299   20.35769
     186      444        3     0.00000   24.18549   25.08513   23.91187
     187      444        3     0.00000   19.83252   22.43477   27.66005
     188      444        3     0.00000   19.71372   17.33980   23.91187
     189      444        3     0.00000   26.48077   21.10959   23.91187
     190      444        3     0.00000   24.30429   17.33980   23.91187
     191      444        3     0.00000   22.00900   23.82854   20.35769
     192      444        3     0.00000   19.71372   19.85299   20.35769
     193      444        3     0.00000   22.00901   18.66499   27.66005
     194      444        3     0.00000   19.83252   25.08513   23.91187
     195      444        3     0.00000   17.53724   21.10959   23.91187
     196      444        3     0.00000   24.18549   22.43477   27.66005
     197      444        4     0.00000   14.67267    8.47127   21.54128
     198      444        4     0.00000    9.31151    5.37600   12.78655
     199      444        4     0.00000   20.03383    5.37600   12.78655
     200      444        4     0.00000   14.67267   14.66180   12.78655
     201      444        5     0.00000   20.59661   17.50954   23.00324
     202      444        5     0.00000   20.67241   23.25968   27.16204
     203      444        5     0.00000   23.34560   24.89057   24.85561
     204      444        5     0.00000   23.42140   19.05291   20.82059
     205      444        5     0.00000   23.14334   23.46398   20.82059
     206      444        5     0.00000   24.47994   21.29495   27.16204
     207      444        5     0.00000   25.89234   21.78932   23.00324
     208      444        5     0.00000   19.53807   24.23567   23.00324
     209      444        5     0.00000   18.12567   20.47950   24.85561
     210      444        5     0.00000   19.46227   21.01764   20.82059
     211      444        5     0.00000   20.87467   18.97989   27.16204
     212      444        5     0.00000   24.55574   18.16445   24.85561
     213      444        5     0.00000   23.14334   18.97989   27.16204
     214      444        5     0.00000   18.12567   21.78932   23.00324
     215      444        5     0.00000   20.87467   23.46398   20.82059
     216      444        5     0.00000   25.89234   20.47950   24.85561
     217      444        5     0.00000   24.47994   24.23567   23.00324
     218      444        5     0.00000   20.59661   19.05291   20.82059
     219      444        5     0.00000   24.55574   21.01764   20.82059
     220      444        5     0.00000   20.67241   24.89057   24.85561
     221      444        5     0.00000   19.53807   21.29495   27.16204
     222      444        5     0.00000   23.34560   23.25968   27.16204
     223      444        5     0.00000   19.46227   18.16445   24.85561
     224      444        5     0.00000   23.42140   17.50954   23.00324
     225      444        6     0.00000   29.34534   16.94254   13.79223
     226      444        6     0.00000   35.20214   20.32397   23.35635
     227      444        6     0.00000   23.48854   20.32397   23.35635
     228      444        6     0.00000   29.34534   10.17969   23.35635
     229      444        1     0.00000   29.34534   23.38416   34.50538
     230      444        1     0.00000   29.34534   10.50092   25.39555
     231      444        1     0.00000   23.76673   13.72173   34.50538
     232      444        1     0.00000   23.76673   20.16335   25.39555
     233      444        1     0.00000   34.92395   13.72173   34.50538
     234      444        1     0.00000   34.92395   20.16335   25.39555
     235      444        2     0.00000   22.00901   17.97957   25.09125
     236      444        2     0.00000   26.57526   10.07057   25.09125
     237      444        2     0.00000   17.44275   10.07057   25.09125
     238      444        2     0.00000   22.00901   12.70690   32.54792
     239      444        2     0.00000   26.37474   20.11789   33.75701
     240      444        2     0.00000   35.40693   24.02305   29.61022
     241      444        2     0.00000   24.77015   18.12376   38.01745
     242      444        2     0.00000   30.77698   22.41766   30.44026
     243      444        2     0.00000   31.22426   28.15172   30.44026
     244      444        2     0.00000   25.11011   20.85970   29.61022
     245      444        2     0.00000   35.41704   25.48916   33.75701
     246      444        2     0.00000   33.58057   17.92748   33.75701
     247      444        2     0.00000   23.27364   25.09660   38.01745
     248      444        2     0.00000   26.03478   25.67205   30.44026
     249      444        2     0.00000   27.51898   22.88741   41.59041
     250      444        2     0.00000   32.65590   20.31417   38.01745
     251      444        2     0.00000   31.22426   21.14072   40.35531
     252      444        2     0.00000   23.27364   25.48916   33.75701
     253      444        2     0.00000   27.51898   29.89841   31.67536
     254      444        2     0.00000   35.41704   25.09660   38.01745
     255      444        2     0.00000   25.11011   17.92748   33.75701
     256      444        2     0.00000   26.37474   21.58984   31.67536
     257      444        2     0.00000   34.14229   24.75318   31.67536
     258      444        2     0.00000   33.92053   18.12376   38.01745
     259      444        2     0.00000   32.04161   21.68752   28.37513
     260      444        2     0.00000   24.77015   24.94191   28.37513
     261      444        2     0.00000   26.03478   20.31417   38.01745
     262      444        2     0.00000   32.31594   20.11789   33.75701
     263      444        3     0.00000   26.27816   20.31182   35.86612
     264      444        3     0.00000   26.46048   27.07939   40.87481
     265      444        3     0.00000   32.23020   30.62106   35.86612
     266      444        3     0.00000   32.41252   23.64297   31.15516
     267      444        3     0.00000   29.34534   28.95548   31.15516
     268      444        3     0.00000   32.23020   27.07939   40.87481
     269      444        3     0.00000   35.29738   25.30855   35.86612
     270      444        3     0.00000   26.46048   30.62106   35.86612
     271      444        3     0.00000   23.39330   25.30855   35.86612
     272      444        3     0.00000   26.27816   23.64297   31.15516
     273      444        3     0.00000   29.34534   22.08266   40.87481
     274      444        3     0.00000   32.41252   20.31182   35.86612
     275      444        3     0.00000   26.01240   19.66387   34.68316
     276      444        3     0.00000   34.38861   23.67993   29.81138
     277      444        3     0.00000   25.12999   18.57921   37.09104
     278      444        3     0.00000   31.79635   22.75849   30.24055
     279      444        3     0.00000   30.41941   28.86410   30.24055
     280      444        3     0.00000   25.32213   21.91315   29.81138
     281      444        3     0.00000   35.99140   25.40237   34.68316
     282      444        3     0.00000   33.36855   18.46828   34.68316
     283      444        3     0.00000   22.69928   25.18051   37.09104
     284      444        3     0.00000   25.82026   24.61883   30.24055
     285      444        3     0.00000   28.32529   22.17707   41.79156
     286      444        3     0.00000   32.87042   19.77481   37.09104
     287      444        3     0.00000   30.41941   21.18990   41.09352
     288      444        3     0.00000   22.69928   25.40237   34.68316
     289      444        3     0.00000   28.32529   29.85128   30.93860
     290      444        3     0.00000   35.99140   25.18051   37.09104
     291      444        3     0.00000   25.32213   18.46828   34.68316
     292      444        3     0.00000   26.01240   22.31168   30.93860
     293      444        3     0.00000   33.69833   24.07847   30.93860
     294      444        3     0.00000   33.56069   18.57921   37.09104
     295      444        3     0.00000   32.48662   22.35996   29.11334
     296      444        3     0.00000   25.12999   24.22030   29.11334
     297      444        3     0.00000   25.82026   19.77481   37.09104
     298      444        3     0.00000   32.67828   19.66387   34.68316
     299      444        3     0.00000   31.64062   24.08863   32.33787
     300      444        3     0.00000   31.52183   29.32077   35.89206
     301      444        3     0.00000   27.16885   26.67040   39.64023
     302      444        3     0.00000   27.05006   21.57544   35.89206
     303      444        3     0.00000   33.81711   25.34522   35.89206
     304      444        3     0.00000   31.64062   21.57544   35.89206
     305      444        3     0.00000   29.34534   28.06417   32.33787
     306      444        3     0.00000   27.05006   24.08863   32.33787
     307      444        3     0.00000   29.34534   22.90062   39.64023
     308      444        3     0.00000   27.16885   29.32077   35.89206
     309      444        3     0.00000   24.87357   25.34522   35.89206
     310      444        3     0.00000   31.52183   26.67040   39.64023
     311      444        4     0.00000   22.00901   12.70691   33.52147
     312      444        4     0.00000   16.64785    9.61164   24.76673
     313      444        4     0.00000   27.37016    9.61164   24.76673
     314      444        4     0.00000   22.00901   18.89744   24.76673
     315      444        5     0.00000   27.93294   21.74517   34.98343
     316      444        5     0.00000   28.00874   27.49531   39.14223
     317      444        5     0.00000   30.68194   29.12621   36.83579
     318      444        5     0.00000   30.75774   23.28855   32.80077
     319      444        5     0.00000   30.47967   27.69961   32.80077
     320      444        5     0.00000   31.81627   25.53059   39.14223
     321      444        5     0.00000   33.22867   26.02496   34.98343
     322      444        5     0.00000   26.87441   28.47130   34.98343
     323      444        5     0.00000   25.46201   24.71514   36.83579
     324      444        5     0.00000   26.79861   25.25327   32.80077
     325      444        5     0.00000   28.21101   23.21553   39.14223
     326      444        5     0.00000   31.89207   22.40008   36.83579
     327      444        5     0.00000   30.47967   23.21553   39.14223
     328      444        5     0.00000   25.46201   26.02496   34.98343
     329      444        5     0.00000   28.21101   27.69961   32.80077
     330      444        5     0.00000   33.22867   24.71514   36.83579
     331      444        5     0.00000   31.81627   28.47130   34.98343
     332      444        5     0.00000   27.93294   23.28855   32.80077
     333      444        5     0.00000   31.89207   25.25327   32.80077
     334      444        5     0.00000   28.00874   29.12621   36.83579
     335      444        5     0.00000   26.87441   25.53059   39.14223
     336      444        5     0.00000   30.68194   27.49531   39.14223
     337      444        5     0.00000   26.79861   22.40008   36.83579
     338      444        5     0.00000   30.75774   21.74517   34.98343
     339      444        6     0.00000   36.68168   21.17817   25.77242
     340      444        6     0.00000   42.53848   24.55960   35.33654
     341      444        6     0.00000   30.82487   24.55960   35.33654
     342      444        6     0.00000   36.68168   14.41532   35.33654
     343      444        1     0.00000   22.00901   27.61980   10.54501
     344      444        1     0.00000   22.00901   14.73655    1.43518
     345      444        1     0.00000   16.43039   17.95736   10.54501
     346      444        1     0.00000   16.43039   24.39899    1.43518
     347      444        1     0.00000   27.58762   17.95736   10.54501
     348      444        1     0.00000   27.58762   24.39899    1.43518
     349      444        2     0.00000   14.67267   22.21520    1.13088
     350      444        2     0.00000   19.23893   14.30621    1.13088
     351      444        2     0.00000   10.10641   14.30621    1.13088
     352      444        2     0.00000   14.67267   16.94254    8.58755
     353      444        2     0.00000   19.03841   24.35352    9.79664
     354      444        2     0.00000   28.07059   28.25868    5.64985
     355      444        2     0.00000   17.43381   22.35939   14.05708
     356      444        2     0.00000   23.44065   26.65329    6.47989
     357      444        2     0.00000   23.88793   32.38736    6.47989
     358      444        2     0.00000   17.77378   25.09534    5.64985
     359      444        2     0.00000   28.08071   29.72479    9.79664
     360      444        2     0.00000   26.24423   22.16311    9.79664
     361      444        2     0.00000   15.93730   29.33224   14.05708
     362      444        2     0.00000   18.69844   29.90768    6.47989
     363      444        2     0.00000   20.18265   27.12304   17.63004
     364      444        2     0.00000   25.31957   24.54980   14.05708
     365      444        2     0.00000   23.88793   25.37636   16.39494
     366      444        2     0.00000   15.93730   29.72479    9.79664
     367      444        2     0.00000   20.18265   34.13404    7.71499
     368      444        2     0.00000   28.08071   29.33224   14.05708
     369      444        2     0.00000   17.77378   22.16311    9.79664
     370      444        2     0.00000   19.03841   25.82547    7.71499
     371      444        2     0.00000   26.80596   28.98882    7.71499
     372      444        2     0.00000   26.58420   22.35939   14.05708
     373      444        2     0.00000   24.70528   25.92316    4.41476
     374      444        2     0.00000   17.43381   29.17755    4.41476
     375      444        2     0.00000   18.69844   24.54980   14.05708
     376      444        2     0.00000   24.97960   24.35352    9.79664
     377      444        3     0.00000   18.94183   24.54746   11.90575
     378      444        3     0.00000   19.12414   31.31502   16.91444
     379      444        3     0.00000   24.89387   34.85669   11.90575
     380      444        3     0.00000   25.07618   27.87861    7.19479
     381      444        3     0.00000   22.00901   33.19112    7.19479
     382      444        3     0.00000   24.89387   31.31502   16.91444
     383      444        3     0.00000   27.96105   29.54418   11.90575
     384      444        3     0.00000   19.12414   34.85669   11.90575
     385      444        3     0.00000   16.05696   29.54418   11.90575
     386      444        3     0.00000   18.94183   27.87861    7.19479
     387      444        3     0.00000   22.00901   26.31829   16.91444
     388      444        3     0.00000   25.07618   24.54746   11.90575
     389      444        3     0.00000   18.67607   23.89951   10.72279
     390      444        3     0.00000   27.05227   27.91557    5.85101
     391      444        3     0.00000   17.79365   22.81485   13.13067
     392      444        3     0.00000   24.46001   26.99413    6.28019
     393      444        3     0.00000   23.08307   33.09974    6.28019
     394      444        3     0.00000   17.98579   26.14879    5.85101
     395      444        3     0.00000   28.65506   29.63800   10.72279
     396      444        3     0.00000   26.03222   22.70392   10.72279
     397      444        3     0.00000   15.36295   29.41614   13.13067
     398      444        3     0.00000   18.48393   28.85447    6.28019
     399      444        3     0.00000   20.98895   26.41271   17.83119
     400      444        3     0.00000   25.53408   24.01044   13.13067
     401      444        3     0.00000   23.08307   25.42553   17.13315
     402      444        3     0.00000   15.36295   29.63800   10.72279
     403      444        3     0.00000   20.98895   34.08692    6.97823
     404      444        3     0.00000   28.65506   29.41614   13.13067
     405      444        3     0.00000   17.98579   22.70392   10.72279
     406      444        3     0.00000   18.67607   26.54732    6.97823
     407      444        3     0.00000   26.36200   28.31410    6.97823
     408      444        3     0.00000   26.22436   22.81485   13.13067
     409      444        3     0.00000   25.15029   26.59560    5.15297
     410      444        3     0.00000   17.79365   28.45594    5.15297
     411      444        3     0.00000   18.48393   24.01044   13.13067