Created on Wed Jul 27 03:45:17 2022

3402 atoms
7 atom types

0.000000  44.018010 xlo xhi
0.000000  38.120715 ylo yhi
0.000000  35.940555 zlo zhi
22.009005  22.009005  12.706905 xy xz yz

Masses

    1    91.224000000 # Zr3+4
    2     1.007940000 # H_
    3    12.010700000 # C_R
    4    15.999400000 # O_3
    5    15.999400000 # O_R
    6    15.999400000 # O_2
    7    16.04        # CH4

Atoms

       1      444        1     0.00000   14.67267   14.91289   10.54501
       2      444        1     0.00000   14.67267    2.02965    1.43518
       3      444        1     0.00000    9.09406    5.25046   10.54501
       4      444        1     0.00000    9.09406   11.69208    1.43518
       5      444        1     0.00000   20.25128    5.25046   10.54501
       6      444        1     0.00000   20.25128   11.69208    1.43518
       7      444        2     0.00000    7.33634    9.50830    1.13088
       8      444        2     0.00000   11.90259    1.59930    1.13088
       9      444        2     0.00000    2.77008    1.59930    1.13088
      10      444        2     0.00000    7.33634    4.23563    8.58755
      11      444        2     0.00000   12.81621   14.41023   17.62586
      12      444        2     0.00000    8.60097   14.89752   12.80783
      13      444        2     0.00000   16.52148   19.67455    6.47572
      14      444        2     0.00000   20.74437   18.78345   11.01758
      15      444        2     0.00000   10.11764    9.64084   14.03668
      16      444        2     0.00000   11.38227   17.17766    6.47572
      17      444        2     0.00000   16.11425   13.97542    6.47572
      18      444        2     0.00000   17.37888    8.57343   11.01758
      19      444        2     0.00000   20.74420   15.58080    5.64568
      20      444        2     0.00000   10.45761   12.36531    5.64568
      21      444        2     0.00000   11.72224   11.63497    9.77624
      22      444        2     0.00000   19.47956   12.70680   12.80783
      23      444        3     0.00000   11.60549   11.84055   11.90575
      24      444        3     0.00000   11.78781   18.60812   16.91444
      25      444        3     0.00000   17.55753   22.14979   11.90575
      26      444        3     0.00000   17.73985   15.17170    7.19479
      27      444        3     0.00000   14.67267   20.48421    7.19479
      28      444        3     0.00000   17.55753   18.60812   16.91444
      29      444        3     0.00000   20.62471   16.83728   11.90575
      30      444        3     0.00000   11.78781   22.14979   11.90575
      31      444        3     0.00000    8.72063   16.83728   11.90575
      32      444        3     0.00000   11.60549   15.17170    7.19479
      33      444        3     0.00000   14.67267   13.61139   16.91444
      34      444        3     0.00000   17.73985   11.84055   11.90575
      35      444        3     0.00000   11.17026   11.29045   13.11053
      36      444        3     0.00000   17.82285   13.92000    5.14735
      37      444        3     0.00000   10.67212    9.98393   10.70265
      38      444        3     0.00000   19.03455   15.63850    6.97260
      39      444        3     0.00000   13.62106   21.37206    6.97260
      40      444        3     0.00000   10.47998   15.72568    5.14735
      41      444        3     0.00000   21.31873   15.74298   12.41992
      42      444        3     0.00000   19.72483   10.59107   12.41992
      43      444        3     0.00000    8.02661   17.93920   11.40812
      44      444        3     0.00000   11.36240   13.81706    6.97260
      45      444        3     0.00000   15.71518   12.71067   17.12753
      46      444        3     0.00000   17.13257   10.68856   11.40812
      47      444        3     0.00000   13.62106   13.69785   17.82557
      48      444        3     0.00000    8.02661   15.74298   12.41992
      49      444        3     0.00000   15.71518   20.38488    6.27456
      50      444        3     0.00000   21.31873   17.93920   11.40812
      51      444        3     0.00000   10.47998   10.09486   13.11053
      52      444        3     0.00000   11.17026   16.12421    6.27456
      53      444        3     0.00000   17.13257   14.31853    6.27456
      54      444        3     0.00000   17.82285    9.49296   11.40812
      55      444        3     0.00000   19.72483   15.23997    5.84539
      56      444        3     0.00000   10.67212   13.41853    5.84539
      57      444        3     0.00000   11.36240   11.17952   10.70265
      58      444        3     0.00000   19.03455   11.78667   12.41992
      59      444        3     0.00000   16.96795   15.61736    8.37750
      60      444        3     0.00000   16.84916   20.84950   11.93169
      61      444        3     0.00000   12.49618   18.19913   15.67986
      62      444        3     0.00000   12.37739   13.10417   11.93169
      63      444        3     0.00000   19.14444   16.87395   11.93169
      64      444        3     0.00000   16.96795   13.10417   11.93169
      65      444        3     0.00000   14.67267   19.59290    8.37750
      66      444        3     0.00000   12.37739   15.61736    8.37750
      67      444        3     0.00000   14.67267   14.42935   15.67986
      68      444        3     0.00000   12.49618   20.84950   11.93169
      69      444        3     0.00000   10.20090   16.87395   11.93169
      70      444        3     0.00000   16.84916   18.19913   15.67986
      71      444        4     0.00000    7.33634    4.23564    9.56110
      72      444        4     0.00000    1.97518    1.14037    0.80636
      73      444        4     0.00000   12.69749    1.14037    0.80636
      74      444        4     0.00000    7.33634   10.42617    0.80636
      75      444        5     0.00000   13.26027   13.27390   11.02306
      76      444        5     0.00000   13.33607   19.02404   15.18186
      77      444        5     0.00000   16.00927   20.65494   12.87542
      78      444        5     0.00000   16.08507   14.81728    8.84040
      79      444        5     0.00000   15.80700   19.22834    8.84040
      80      444        5     0.00000   17.14360   17.05932   15.18186
      81      444        5     0.00000   18.55600   17.55369   11.02306
      82      444        5     0.00000   12.20174   20.00003   11.02306
      83      444        5     0.00000   10.78934   16.24387   12.87542
      84      444        5     0.00000   12.12594   16.78200    8.84040
      85      444        5     0.00000   13.53834   14.74426   15.18186
      86      444        5     0.00000   17.21940   13.92881   12.87542
      87      444        5     0.00000   15.80700   14.74426   15.18186
      88      444        5     0.00000   10.78934   17.55369   11.02306
      89      444        5     0.00000   13.53834   19.22834    8.84040
      90      444        5     0.00000   18.55600   16.24387   12.87542
      91      444        5     0.00000   17.14360   20.00003   11.02306
      92      444        5     0.00000   13.26027   14.81728    8.84040
      93      444        5     0.00000   17.21940   16.78200    8.84040
      94      444        5     0.00000   13.33607   20.65494   12.87542
      95      444        5     0.00000   12.20174   17.05932   15.18186
      96      444        5     0.00000   16.00927   19.02404   15.18186
      97      444        5     0.00000   12.12594   13.92881   12.87542
      98      444        5     0.00000   16.08507   13.27390   11.02306
      99      444        6     0.00000   22.00900   12.70690    1.81205
     100      444        6     0.00000   27.86581   16.08833   11.37617
     101      444        6     0.00000   16.15220   16.08833   11.37617
     102      444        6     0.00000   22.00901    5.94405   11.37617
     103      444        4     0.00000   11.41973   11.92183   14.28897
     104      444        2     0.00000   10.97495   11.26207   14.94303
     105      444        4     0.00000   10.43800    9.34368    9.52584
     106      444        2     0.00000   10.89130    9.99853    8.87269
     107      444        4     0.00000   17.22518   13.08758    4.25321
     108      444        2     0.00000   16.31023   12.96231    4.70936
     109      444        4     0.00000   19.62577   16.48491    7.85784
     110      444        2     0.00000   20.53713   16.61796    7.39675
     111      444        4     0.00000   12.59244   21.46086    7.85784
     112      444        2     0.00000   12.02153   22.18361    7.39675
     113      444        4     0.00000   16.73490   12.60929   16.23339
     114      444        2     0.00000   17.30087   11.87956   16.68954
     115      444        4     0.00000   10.05792   16.65948    4.25321
     116      444        2     0.00000   10.40691   17.51448    4.70936
     117      444        4     0.00000   11.79981   12.88185    7.85784
     118      444        2     0.00000   11.45934   12.02606    7.39675
     119      444        4     0.00000   20.64720   14.67259   12.92284
     120      444        2     0.00000   21.44096   14.07851   13.20198
     121      444        4     0.00000    8.69814   19.01703   10.92136
     122      444        2     0.00000    7.90438   19.61524   10.65120
     123      444        4     0.00000   20.98757   10.54470   12.92284
     124      444        2     0.00000   21.10518   11.52916   13.20198
     125      444        4     0.00000   15.86338   10.73120   10.92136
     126      444        2     0.00000   15.74219    9.74468   10.65120
     127      444        1     0.00000   22.00901   19.14853   22.52519
     128      444        1     0.00000   22.00900    6.26528   13.41536
     129      444        1     0.00000   16.43039    9.48609   22.52519
     130      444        1     0.00000   16.43039   15.92772   13.41536
     131      444        1     0.00000   27.58762    9.48609   22.52519
     132      444        1     0.00000   27.58762   15.92772   13.41536
     133      444        2     0.00000   14.67267   13.74393   13.11106
     134      444        2     0.00000   19.23893    5.83494   13.11106
     135      444        2     0.00000   10.10641    5.83494   13.11106
     136      444        2     0.00000   14.67267    8.47127   20.56773
     137      444        2     0.00000   20.15254   18.64587   29.60605
     138      444        2     0.00000   15.93730   19.13315   24.78801
     139      444        2     0.00000   23.85782   23.91018   18.45590
     140      444        2     0.00000   28.08071   23.01908   22.99776
     141      444        2     0.00000   17.45398   13.87648   26.01686
     142      444        2     0.00000   18.71861   21.41329   18.45590
     143      444        2     0.00000   23.45059   18.21105   18.45590
     144      444        2     0.00000   24.71522   12.80907   22.99776
     145      444        2     0.00000   28.08053   19.81644   17.62586
     146      444        2     0.00000   17.79394   16.60095   17.62586
     147      444        2     0.00000   19.05858   15.87061   21.75642
     148      444        2     0.00000   26.81590   16.94244   24.78801
     149      444        3     0.00000   18.94183   16.07619   23.88594
     150      444        3     0.00000   19.12414   22.84375   28.89462
     151      444        3     0.00000   24.89387   26.38542   23.88594
     152      444        3     0.00000   25.07618   19.40734   19.17498
     153      444        3     0.00000   22.00900   24.71985   19.17498
     154      444        3     0.00000   24.89387   22.84375   28.89462
     155      444        3     0.00000   27.96105   21.07292   23.88594
     156      444        3     0.00000   19.12414   26.38542   23.88594
     157      444        3     0.00000   16.05696   21.07292   23.88594
     158      444        3     0.00000   18.94183   19.40734   19.17498
     159      444        3     0.00000   22.00901   17.84702   28.89462
     160      444        3     0.00000   25.07618   16.07619   23.88594
     161      444        3     0.00000   18.50659   15.52609   25.09072
     162      444        3     0.00000   25.15918   18.15563   17.12753
     163      444        3     0.00000   18.00846   14.21956   22.68283
     164      444        3     0.00000   26.37089   19.87414   18.95279
     165      444        3     0.00000   20.95740   25.60769   18.95279
     166      444        3     0.00000   17.81632   19.96131   17.12753
     167      444        3     0.00000   28.65506   19.97861   24.40010
     168      444        3     0.00000   27.06116   14.82671   24.40010
     169      444        3     0.00000   15.36295   22.17483   23.38830
     170      444        3     0.00000   18.69873   18.05269   18.95279
     171      444        3     0.00000   23.05152   16.94631   29.10771
     172      444        3     0.00000   24.46890   14.92419   23.38830
     173      444        3     0.00000   20.95740   17.93349   29.80576
     174      444        3     0.00000   15.36295   19.97861   24.40010
     175      444        3     0.00000   23.05152   24.62052   18.25475
     176      444        3     0.00000   28.65506   22.17483   23.38830
     177      444        3     0.00000   17.81632   14.33049   25.09072
     178      444        3     0.00000   18.50659   20.35985   18.25475
     179      444        3     0.00000   24.46890   18.55416   18.25475
     180      444        3     0.00000   25.15918   13.72860   23.38830
     181      444        3     0.00000   27.06116   19.47560   17.82557
     182      444        3     0.00000   18.00846   17.65416   17.82557
     183      444        3     0.00000   18.69873   15.41515   22.68283
     184      444        3     0.00000   26.37089   16.02230   24.40010
     185      444        3     0.00000   24.30429   19.85299   20.35769
     186      444        3     0.00000   24.18549   25.08513   23.91187
     187      444        3     0.00000   19.83252   22.43477   27.66005
     188      444        3     0.00000   19.71372   17.33980   23.91187
     189      444        3     0.00000   26.48077   21.10959   23.91187
     190      444        3     0.00000   24.30429   17.33980   23.91187
     191      444        3     0.00000   22.00900   23.82854   20.35769
     192      444        3     0.00000   19.71372   19.85299   20.35769
     193      444        3     0.00000   22.00901   18.66499   27.66005
     194      444        3     0.00000   19.83252   25.08513   23.91187
     195      444        3     0.00000   17.53724   21.10959   23.91187
     196      444        3     0.00000   24.18549   22.43477   27.66005
     197      444        4     0.00000   14.67267    8.47127   21.54128
     198      444        4     0.00000    9.31151    5.37600   12.78655
     199      444        4     0.00000   20.03383    5.37600   12.78655
     200      444        4     0.00000   14.67267   14.66180   12.78655
     201      444        5     0.00000   20.59661   17.50954   23.00324
     202      444        5     0.00000   20.67241   23.25968   27.16204
     203      444        5     0.00000   23.34560   24.89057   24.85561
     204      444        5     0.00000   23.42140   19.05291   20.82059
     205      444        5     0.00000   23.14334   23.46398   20.82059
     206      444        5     0.00000   24.47994   21.29495   27.16204
     207      444        5     0.00000   25.89234   21.78932   23.00324
     208      444        5     0.00000   19.53807   24.23567   23.00324
     209      444        5     0.00000   18.12567   20.47950   24.85561
     210      444        5     0.00000   19.46227   21.01764   20.82059
     211      444        5     0.00000   20.87467   18.97989   27.16204
     212      444        5     0.00000   24.55574   18.16445   24.85561
     213      444        5     0.00000   23.14334   18.97989   27.16204
     214      444        5     0.00000   18.12567   21.78932   23.00324
     215      444        5     0.00000   20.87467   23.46398   20.82059
     216      444        5     0.00000   25.89234   20.47950   24.85561
     217      444        5     0.00000   24.47994   24.23567   23.00324
     218      444        5     0.00000   20.59661   19.05291   20.82059
     219      444        5     0.00000   24.55574   21.01764   20.82059
     220      444        5     0.00000   20.67241   24.89057   24.85561
     221      444        5     0.00000   19.53807   21.29495   27.16204
     222      444        5     0.00000   23.34560   23.25968   27.16204
     223      444        5     0.00000   19.46227   18.16445   24.85561
     224      444        5     0.00000   23.42140   17.50954   23.00324
     225      444        6     0.00000   29.34534   16.94254   13.79223
     226      444        6     0.00000   35.20214   20.32397   23.35635
     227      444        6     0.00000   23.48854   20.32397   23.35635
     228      444        6     0.00000   29.34534   10.17969   23.35635
     229      444        4     0.00000   18.75606   16.15747   26.26916
     230      444        2     0.00000   18.31129   15.49771   26.92321
     231      444        4     0.00000   17.77434   13.57932   21.50603
     232      444        2     0.00000   18.22763   14.23416   20.85288
     233      444        4     0.00000   24.56152   17.32322   16.23339
     234      444        2     0.00000   23.64657   17.19794   16.68954
     235      444        4     0.00000   26.96210   20.72055   19.83803
     236      444        2     0.00000   27.87347   20.85359   19.37694
     237      444        4     0.00000   19.92877   25.69650   19.83803
     238      444        2     0.00000   19.35787   26.41924   19.37694
     239      444        4     0.00000   24.07124   16.84492   28.21358
     240      444        2     0.00000   24.63720   16.11519   28.66973
     241      444        4     0.00000   17.39426   20.89511   16.23339
     242      444        2     0.00000   17.74324   21.75012   16.68954
     243      444        4     0.00000   19.13614   17.11748   19.83803
     244      444        2     0.00000   18.79568   16.26169   19.37694
     245      444        4     0.00000   27.98354   18.90823   24.90303
     246      444        2     0.00000   28.77730   18.31415   25.18216
     247      444        4     0.00000   16.03447   23.25266   22.90154
     248      444        2     0.00000   15.24071   23.85088   22.63138
     249      444        4     0.00000   28.32390   14.78034   24.90303
     250      444        2     0.00000   28.44151   15.76479   25.18216
     251      444        4     0.00000   23.19971   14.96684   22.90154
     252      444        2     0.00000   23.07852   13.98031   22.63138
     253      444        1     0.00000   29.34534   23.38416   34.50538
     254      444        1     0.00000   29.34534   10.50092   25.39555
     255      444        1     0.00000   23.76673   13.72173   34.50538
     256      444        1     0.00000   23.76673   20.16335   25.39555
     257      444        1     0.00000   34.92395   13.72173   34.50538
     258      444        1     0.00000   34.92395   20.16335   25.39555
     259      444        2     0.00000   22.00901   17.97957   25.09125
     260      444        2     0.00000   26.57526   10.07057   25.09125
     261      444        2     0.00000   17.44275   10.07057   25.09125
     262      444        2     0.00000   22.00901   12.70690   32.54792
     263      444        2     0.00000   27.48888   22.88150   41.58623
     264      444        2     0.00000   23.27364   23.36879   36.76820
     265      444        2     0.00000   31.19415   28.14582   30.43609
     266      444        2     0.00000   35.41704   27.25472   34.97794
     267      444        2     0.00000   24.79031   18.11211   37.99705
     268      444        2     0.00000   26.05494   25.64893   30.43609
     269      444        2     0.00000   30.78692   22.44669   30.43609
     270      444        2     0.00000   32.05155   17.04470   34.97794
     271      444        2     0.00000   35.41687   24.05207   29.60605
     272      444        2     0.00000   25.13028   20.83658   29.60605
     273      444        2     0.00000   26.39491   20.10624   33.73661
     274      444        2     0.00000   34.15223   21.17807   36.76820
     275      444        3     0.00000   26.27816   20.31182   35.86612
     276      444        3     0.00000   26.46048   27.07939   40.87481
     277      444        3     0.00000   32.23020   30.62106   35.86612
     278      444        3     0.00000   32.41252   23.64297   31.15516
     279      444        3     0.00000   29.34534   28.95548   31.15516
     280      444        3     0.00000   32.23020   27.07939   40.87481
     281      444        3     0.00000   35.29738   25.30855   35.86612
     282      444        3     0.00000   26.46048   30.62106   35.86612
     283      444        3     0.00000   23.39330   25.30855   35.86612
     284      444        3     0.00000   26.27816   23.64297   31.15516
     285      444        3     0.00000   29.34534   22.08266   40.87481
     286      444        3     0.00000   32.41252   20.31182   35.86612
     287      444        3     0.00000   25.84293   19.76172   37.07090
     288      444        3     0.00000   32.49552   22.39127   29.10771
     289      444        3     0.00000   25.34479   18.45520   34.66302
     290      444        3     0.00000   33.70722   24.10977   30.93297
     291      444        3     0.00000   28.29373   29.84333   30.93297
     292      444        3     0.00000   25.15265   24.19695   29.10771
     293      444        3     0.00000   35.99140   24.21425   36.38029
     294      444        3     0.00000   34.39750   19.06234   36.38029
     295      444        3     0.00000   22.69928   26.41047   35.36849
     296      444        3     0.00000   26.03507   22.28833   30.93297
     297      444        3     0.00000   30.38785   21.18194   41.08790
     298      444        3     0.00000   31.80524   19.15983   35.36849
     299      444        3     0.00000   28.29373   22.16912   41.78594
     300      444        3     0.00000   22.69928   24.21425   36.38029
     301      444        3     0.00000   30.38785   28.85615   30.23493
     302      444        3     0.00000   35.99140   26.41047   35.36849
     303      444        3     0.00000   25.15265   18.56613   37.07090
     304      444        3     0.00000   25.84293   24.59548   30.23493
     305      444        3     0.00000   31.80524   22.78980   30.23493
     306      444        3     0.00000   32.49552   17.96423   35.36849
     307      444        3     0.00000   34.39750   23.71124   29.80576
     308      444        3     0.00000   25.34479   21.88980   29.80576
     309      444        3     0.00000   26.03507   19.65079   34.66302
     310      444        3     0.00000   33.70722   20.25794   36.38029
     311      444        3     0.00000   31.64062   24.08863   32.33787
     312      444        3     0.00000   31.52183   29.32077   35.89206
     313      444        3     0.00000   27.16885   26.67040   39.64023
     314      444        3     0.00000   27.05006   21.57544   35.89206
     315      444        3     0.00000   33.81711   25.34522   35.89206
     316      444        3     0.00000   31.64062   21.57544   35.89206
     317      444        3     0.00000   29.34534   28.06417   32.33787
     318      444        3     0.00000   27.05006   24.08863   32.33787
     319      444        3     0.00000   29.34534   22.90062   39.64023
     320      444        3     0.00000   27.16885   29.32077   35.89206
     321      444        3     0.00000   24.87357   25.34522   35.89206
     322      444        3     0.00000   31.52183   26.67040   39.64023
     323      444        4     0.00000   22.00901   12.70691   33.52147
     324      444        4     0.00000   16.64785    9.61164   24.76673
     325      444        4     0.00000   27.37016    9.61164   24.76673
     326      444        4     0.00000   22.00901   18.89744   24.76673
     327      444        5     0.00000   27.93294   21.74517   34.98343
     328      444        5     0.00000   28.00874   27.49531   39.14223
     329      444        5     0.00000   30.68194   29.12621   36.83579
     330      444        5     0.00000   30.75774   23.28855   32.80077
     331      444        5     0.00000   30.47967   27.69961   32.80077
     332      444        5     0.00000   31.81627   25.53059   39.14223
     333      444        5     0.00000   33.22867   26.02496   34.98343
     334      444        5     0.00000   26.87441   28.47130   34.98343
     335      444        5     0.00000   25.46201   24.71514   36.83579
     336      444        5     0.00000   26.79861   25.25327   32.80077
     337      444        5     0.00000   28.21101   23.21553   39.14223
     338      444        5     0.00000   31.89207   22.40008   36.83579
     339      444        5     0.00000   30.47967   23.21553   39.14223
     340      444        5     0.00000   25.46201   26.02496   34.98343
     341      444        5     0.00000   28.21101   27.69961   32.80077
     342      444        5     0.00000   33.22867   24.71514   36.83579
     343      444        5     0.00000   31.81627   28.47130   34.98343
     344      444        5     0.00000   27.93294   23.28855   32.80077
     345      444        5     0.00000   31.89207   25.25327   32.80077
     346      444        5     0.00000   28.00874   29.12621   36.83579
     347      444        5     0.00000   26.87441   25.53059   39.14223
     348      444        5     0.00000   30.68194   27.49531   39.14223
     349      444        5     0.00000   26.79861   22.40008   36.83579
     350      444        5     0.00000   30.75774   21.74517   34.98343
     351      444        6     0.00000   36.68167   21.17817   25.77242
     352      444        6     0.00000   42.53848   24.55960   35.33654
     353      444        6     0.00000   30.82487   24.55960   35.33654
     354      444        6     0.00000   36.68168   14.41532   35.33654
     355      444        4     0.00000   26.09240   20.39310   38.24934
     356      444        2     0.00000   25.64762   19.73334   38.90340
     357      444        4     0.00000   25.11067   17.81495   33.48621
     358      444        2     0.00000   25.56397   18.46980   32.83306
     359      444        4     0.00000   31.89785   21.55885   28.21358
     360      444        2     0.00000   30.98290   21.43358   28.66973
     361      444        4     0.00000   34.29844   24.95618   31.81821
     362      444        2     0.00000   35.20980   25.08923   31.35712
     363      444        4     0.00000   27.26511   29.93213   31.81821
     364      444        2     0.00000   26.69420   30.65488   31.35712
     365      444        4     0.00000   31.40757   21.08056   40.19376
     366      444        2     0.00000   31.97354   20.35083   40.64991
     367      444        4     0.00000   24.73059   25.13075   28.21358
     368      444        2     0.00000   25.07958   25.98575   28.66973
     369      444        4     0.00000   26.47248   21.35312   31.81821
     370      444        2     0.00000   26.13201   20.49733   31.35712
     371      444        4     0.00000   35.31987   23.14386   36.88321
     372      444        2     0.00000   36.11363   22.54978   37.16235
     373      444        4     0.00000   23.37081   27.48830   34.88173
     374      444        2     0.00000   22.57705   28.08651   34.61157
     375      444        4     0.00000   35.66024   19.01597   36.88321
     376      444        2     0.00000   35.77785   20.00043   37.16235
     377      444        4     0.00000   30.53605   19.20247   34.88173
     378      444        2     0.00000   30.41486   18.21595   34.61157
     379      444        1     0.00000   22.00901   27.61980   10.54501
     380      444        1     0.00000   22.00900   14.73655    1.43518
     381      444        1     0.00000   16.43039   17.95736   10.54501
     382      444        1     0.00000   16.43039   24.39899    1.43518
     383      444        1     0.00000   27.58762   17.95736   10.54501
     384      444        1     0.00000   27.58762   24.39899    1.43518
     385      444        2     0.00000   14.67267   22.21520    1.13088
     386      444        2     0.00000   19.23893   14.30621    1.13088
     387      444        2     0.00000   10.10641   14.30621    1.13088
     388      444        2     0.00000   14.67267   16.94254    8.58755
     389      444        2     0.00000   20.15254   27.11714   17.62586
     390      444        2     0.00000   15.93730   27.60442   12.80783
     391      444        2     0.00000   23.85782   32.38145    6.47572
     392      444        2     0.00000   28.08071   31.49035   11.01758
     393      444        2     0.00000   17.45398   22.34775   14.03668
     394      444        2     0.00000   18.71861   29.88456    6.47572
     395      444        2     0.00000   23.45059   26.68232    6.47572
     396      444        2     0.00000   24.71522   21.28034   11.01758
     397      444        2     0.00000   28.08053   28.28771    5.64568
     398      444        2     0.00000   17.79394   25.07222    5.64568
     399      444        2     0.00000   19.05858   24.34188    9.77624
     400      444        2     0.00000   26.81590   25.41371   12.80783
     401      444        3     0.00000   18.94183   24.54746   11.90575
     402      444        3     0.00000   19.12414   31.31502   16.91444
     403      444        3     0.00000   24.89387   34.85669   11.90575
     404      444        3     0.00000   25.07618   27.87861    7.19479
     405      444        3     0.00000   22.00900   33.19112    7.19479
     406      444        3     0.00000   24.89387   31.31502   16.91444
     407      444        3     0.00000   27.96105   29.54418   11.90575
     408      444        3     0.00000   19.12414   34.85669   11.90575
     409      444        3     0.00000   16.05696   29.54418   11.90575
     410      444        3     0.00000   18.94183   27.87861    7.19479
     411      444        3     0.00000   22.00901   26.31829   16.91444