Created on Fri Aug 26 10:03:39 2022

3564 atoms
8 atom types

0.000000  44.018010 xlo xhi
0.000000  38.120715 ylo yhi
0.000000  35.940555 zlo zhi
22.009005  22.009005  12.706905 xy xz yz

Masses

    1    91.224000000 # Zr3+4
    2     1.007940000 # H_
    3    12.010700000 # C_R
    4    15.999400000 # O_3
    5    15.999400000 # O_R
    6    15.999400000 # O_2
    7    12.010700000 # C_2
    8    16.04        # CH4

Atoms

       1      444        1     0.00000   14.67267   14.91289   10.54501
       2      444        1     0.00000   14.67267    2.02965    1.43518
       3      444        1     0.00000    9.09406    5.25046   10.54501
       4      444        1     0.00000    9.09406   11.69208    1.43518
       5      444        1     0.00000   20.25128    5.25046   10.54501
       6      444        1     0.00000   20.25128   11.69208    1.43518
       7      444        2     0.00000    7.33634    9.50830    1.13088
       8      444        2     0.00000   11.90259    1.59930    1.13088
       9      444        2     0.00000    2.77008    1.59930    1.13088
      10      444        2     0.00000    7.33634    4.23563    8.58755
      11      444        2     0.00000   11.35606    8.92584   10.16349
      12      444        2     0.00000   18.86389   16.99292    7.09267
      13      444        2     0.00000    8.60097   18.07862   10.16349
      14      444        2     0.00000   12.62069   13.28764    7.09267
      15      444        2     0.00000   16.81191   13.53605   17.00772
      16      444        2     0.00000   16.72465   11.11625   10.16349
      17      444        2     0.00000   12.53343   13.53605   17.00772
      18      444        2     0.00000    8.60097   15.60843   13.65686
      19      444        2     0.00000   16.81191   20.54705    7.09267
      20      444        2     0.00000   20.74437   18.07862   10.16349
      21      444        2     0.00000    9.21682   10.16094   13.65686
      22      444        2     0.00000   10.48145   16.99292    7.09267
      23      444        2     0.00000   16.72465   13.28764    7.09267
      24      444        2     0.00000   17.98928    8.92584   10.16349
      25      444        2     0.00000   20.12852   16.26279    5.02754
      26      444        2     0.00000   11.35606   12.55751    5.02754
      27      444        2     0.00000   12.62069   11.11625   10.16349
      28      444        2     0.00000   18.86389   12.35134   13.65686
      29      444        3     0.00000   11.60549   11.84055   11.90575
      30      444        3     0.00000   11.78781   18.60812   16.91444
      31      444        3     0.00000   17.55753   22.14979   11.90575
      32      444        3     0.00000   17.73985   15.17170    7.19479
      33      444        3     0.00000   14.67267   20.48421    7.19479
      34      444        3     0.00000   17.55753   18.60812   16.91444
      35      444        3     0.00000   20.62471   16.83728   11.90575
      36      444        3     0.00000   11.78781   22.14979   11.90575
      37      444        3     0.00000    8.72063   16.83728   11.90575
      38      444        3     0.00000   11.60549   15.17170    7.19479
      39      444        3     0.00000   14.67267   13.61139   16.91444
      40      444        3     0.00000   17.73985   11.84055   11.90575
      41      444        3     0.00000   10.66040   11.58482   12.89819
      42      444        3     0.00000   18.16618   13.52948    5.49566
      43      444        3     0.00000   11.17916    9.69119   10.92383
      44      444        3     0.00000   18.68494   16.02213    6.62288
      45      444        3     0.00000   13.46363   20.87748    6.62288
      46      444        3     0.00000    9.97012   15.62360    5.49566
      47      444        3     0.00000   21.31873   16.14667   12.89819
      48      444        3     0.00000   19.37522   10.38923   12.89819
      49      444        3     0.00000    8.02661   17.54275   10.92383
      50      444        3     0.00000   11.86944   13.92801    6.62288
      51      444        3     0.00000   15.88171   13.20327   17.47585
      52      444        3     0.00000   17.47590   10.88678   10.92383
      53      444        3     0.00000   13.46363   13.20327   17.47585
      54      444        3     0.00000    8.02661   16.14667   12.89819
      55      444        3     0.00000   15.88171   20.87748    6.62288
      56      444        3     0.00000   21.31873   17.54275   10.92383
      57      444        3     0.00000    9.97012   10.38923   12.89819
      58      444        3     0.00000   10.66040   16.02213    6.62288
      59      444        3     0.00000   17.47590   13.92801    6.62288
      60      444        3     0.00000   18.16618    9.69119   10.92383
      61      444        3     0.00000   19.37522   15.62360    5.49566
      62      444        3     0.00000   11.17916   13.52948    5.49566
      63      444        3     0.00000   11.86944   10.88678   10.92383
      64      444        3     0.00000   18.68494   11.58482   12.89819
      65      444        3     0.00000   16.96795   15.61736    8.37750
      66      444        3     0.00000   16.84916   20.84950   11.93169
      67      444        3     0.00000   12.49618   18.19913   15.67986
      68      444        3     0.00000   12.37739   13.10417   11.93169
      69      444        3     0.00000   19.14444   16.87395   11.93169
      70      444        3     0.00000   16.96795   13.10417   11.93169
      71      444        3     0.00000   14.67267   19.59290    8.37750
      72      444        3     0.00000   12.37739   15.61736    8.37750
      73      444        3     0.00000   14.67267   14.42935   15.67986
      74      444        3     0.00000   12.49618   20.84950   11.93169
      75      444        3     0.00000   10.20090   16.87395   11.93169
      76      444        3     0.00000   16.84916   18.19913   15.67986
      77      444        4     0.00000    7.33634    4.23564    9.56110
      78      444        4     0.00000    1.97518    1.14037    0.80636
      79      444        4     0.00000   12.69749    1.14037    0.80636
      80      444        4     0.00000    7.33634   10.42617    0.80636
      81      444        5     0.00000   13.26027   13.27390   11.02306
      82      444        5     0.00000   13.33607   19.02404   15.18186
      83      444        5     0.00000   16.00927   20.65494   12.87542
      84      444        5     0.00000   16.08507   14.81728    8.84040
      85      444        5     0.00000   15.80700   19.22834    8.84040
      86      444        5     0.00000   17.14360   17.05932   15.18186
      87      444        5     0.00000   18.55600   17.55369   11.02306
      88      444        5     0.00000   12.20174   20.00003   11.02306
      89      444        5     0.00000   10.78934   16.24387   12.87542
      90      444        5     0.00000   12.12594   16.78200    8.84040
      91      444        5     0.00000   13.53834   14.74426   15.18186
      92      444        5     0.00000   17.21940   13.92881   12.87542
      93      444        5     0.00000   15.80700   14.74426   15.18186
      94      444        5     0.00000   10.78934   17.55369   11.02306
      95      444        5     0.00000   13.53834   19.22834    8.84040
      96      444        5     0.00000   18.55600   16.24387   12.87542
      97      444        5     0.00000   17.14360   20.00003   11.02306
      98      444        5     0.00000   13.26027   14.81728    8.84040
      99      444        5     0.00000   17.21940   16.78200    8.84040
     100      444        5     0.00000   13.33607   20.65494   12.87542
     101      444        5     0.00000   12.20174   17.05932   15.18186
     102      444        5     0.00000   16.00927   19.02404   15.18186
     103      444        5     0.00000   12.12594   13.92881   12.87542
     104      444        5     0.00000   16.08507   13.27390   11.02306
     105      444        6     0.00000   22.00900   12.70690    1.81205
     106      444        6     0.00000   27.86581   16.08833   11.37617
     107      444        6     0.00000   16.15220   16.08833   11.37617
     108      444        6     0.00000   22.00901    5.94405   11.37617
     109      444        7     0.00000   10.38732   12.59201   13.96171
     110      444        6     0.00000    9.54835   12.40074   14.86838
     111      444        6     0.00000   10.98011   13.69128   14.01383
     112      444        2     0.00000    9.36508   13.07671   15.58216
     113      444        7     0.00000   17.87932   12.19901    4.88932
     114      444        6     0.00000   17.02859   11.41473    5.36228
     115      444        6     0.00000   18.47143   11.78384    3.86974
     116      444        2     0.00000   16.83607   10.52180    4.95534
     117      444        7     0.00000   12.16797   20.44475    7.21796
     118      444        6     0.00000   11.06341   20.77579    6.73540
     119      444        6     0.00000   12.10449   19.72360    8.23699
     120      444        2     0.00000   10.19384   20.48537    7.13479
     121      444        7     0.00000    8.96133   16.53727    4.88932
     122      444        6     0.00000    8.70749   17.66615    5.36228
     123      444        6     0.00000    8.30573   16.23207    3.86974
     124      444        2     0.00000    8.03045   18.27935    4.95534
     125      444        7     0.00000   20.58301   15.40658   13.96171
     126      444        6     0.00000   21.16814   14.77565   14.86838
     127      444        6     0.00000   19.33462   15.37032   14.01383
     128      444        2     0.00000   20.67437   14.27895   15.58216
     129      444        7     0.00000   20.38401   10.12212   13.96171
     130      444        6     0.00000   20.63785   10.94432   14.86838
     131      444        6     0.00000   21.03961    9.05912   14.01383
     132      444        2     0.00000   21.31489   10.76506   15.58216
     133      444        1     0.00000   22.00901   19.14853   22.52519
     134      444        1     0.00000   22.00900    6.26528   13.41536
     135      444        1     0.00000   16.43039    9.48609   22.52519
     136      444        1     0.00000   16.43039   15.92772   13.41536
     137      444        1     0.00000   27.58762    9.48609   22.52519
     138      444        1     0.00000   27.58762   15.92772   13.41536
     139      444        2     0.00000   14.67267   13.74393   13.11106
     140      444        2     0.00000   19.23893    5.83494   13.11106
     141      444        2     0.00000   10.10641    5.83494   13.11106
     142      444        2     0.00000   14.67267    8.47127   20.56773
     143      444        2     0.00000   18.69239   13.16148   22.14367
     144      444        2     0.00000   26.20023   21.22856   19.07286
     145      444        2     0.00000   15.93730   22.31425   22.14367
     146      444        2     0.00000   19.95703   17.52328   19.07286
     147      444        2     0.00000   24.14825   17.77169   28.98791
     148      444        2     0.00000   24.06098   15.35189   22.14367
     149      444        2     0.00000   19.86976   17.77169   28.98791
     150      444        2     0.00000   15.93730   19.84407   25.63704
     151      444        2     0.00000   24.14825   24.78269   19.07286
     152      444        2     0.00000   28.08071   22.31425   22.14367
     153      444        2     0.00000   16.55315   14.39657   25.63704
     154      444        2     0.00000   17.81778   21.22856   19.07286
     155      444        2     0.00000   24.06098   17.52328   19.07286
     156      444        2     0.00000   25.32562   13.16148   22.14367
     157      444        2     0.00000   27.46486   20.49842   17.00772
     158      444        2     0.00000   18.69239   16.79314   17.00772
     159      444        2     0.00000   19.95703   15.35189   22.14367
     160      444        2     0.00000   26.20023   16.58698   25.63704
     161      444        3     0.00000   18.94183   16.07619   23.88594
     162      444        3     0.00000   19.12414   22.84375   28.89462
     163      444        3     0.00000   24.89387   26.38542   23.88594
     164      444        3     0.00000   25.07618   19.40734   19.17498
     165      444        3     0.00000   22.00900   24.71985   19.17498
     166      444        3     0.00000   24.89387   22.84375   28.89462
     167      444        3     0.00000   27.96105   21.07292   23.88594
     168      444        3     0.00000   19.12414   26.38542   23.88594
     169      444        3     0.00000   16.05696   21.07292   23.88594
     170      444        3     0.00000   18.94183   19.40734   19.17498
     171      444        3     0.00000   22.00901   17.84702   28.89462
     172      444        3     0.00000   25.07618   16.07619   23.88594
     173      444        3     0.00000   17.99673   15.82046   24.87837
     174      444        3     0.00000   25.50251   17.76512   17.47585
     175      444        3     0.00000   18.51550   13.92682   22.90401
     176      444        3     0.00000   26.02128   20.25777   18.60306
     177      444        3     0.00000   20.79996   25.11311   18.60306
     178      444        3     0.00000   17.30645   19.85924   17.47585
     179      444        3     0.00000   28.65506   20.38230   24.87837
     180      444        3     0.00000   26.71156   14.62486   24.87837
     181      444        3     0.00000   15.36295   21.77838   22.90401
     182      444        3     0.00000   19.20577   18.16365   18.60306
     183      444        3     0.00000   23.21805   17.43890   29.45603
     184      444        3     0.00000   24.81224   15.12241   22.90401
     185      444        3     0.00000   20.79996   17.43890   29.45603
     186      444        3     0.00000   15.36295   20.38230   24.87837
     187      444        3     0.00000   23.21805   25.11311   18.60306
     188      444        3     0.00000   28.65506   21.77838   22.90401
     189      444        3     0.00000   17.30645   14.62486   24.87837
     190      444        3     0.00000   17.99673   20.25777   18.60306
     191      444        3     0.00000   24.81224   18.16365   18.60306
     192      444        3     0.00000   25.50251   13.92682   22.90401
     193      444        3     0.00000   26.71156   19.85924   17.47585
     194      444        3     0.00000   18.51550   17.76512   17.47585
     195      444        3     0.00000   19.20577   15.12241   22.90401
     196      444        3     0.00000   26.02128   15.82046   24.87837
     197      444        3     0.00000   24.30429   19.85299   20.35769
     198      444        3     0.00000   24.18549   25.08513   23.91187
     199      444        3     0.00000   19.83252   22.43477   27.66005
     200      444        3     0.00000   19.71372   17.33980   23.91187
     201      444        3     0.00000   26.48077   21.10959   23.91187
     202      444        3     0.00000   24.30429   17.33980   23.91187
     203      444        3     0.00000   22.00900   23.82854   20.35769
     204      444        3     0.00000   19.71372   19.85299   20.35769
     205      444        3     0.00000   22.00901   18.66499   27.66005
     206      444        3     0.00000   19.83252   25.08513   23.91187
     207      444        3     0.00000   17.53724   21.10959   23.91187
     208      444        3     0.00000   24.18549   22.43477   27.66005
     209      444        4     0.00000   14.67267    8.47127   21.54128
     210      444        4     0.00000    9.31151    5.37600   12.78655
     211      444        4     0.00000   20.03383    5.37600   12.78655
     212      444        4     0.00000   14.67267   14.66180   12.78655
     213      444        5     0.00000   20.59661   17.50954   23.00324
     214      444        5     0.00000   20.67241   23.25968   27.16204
     215      444        5     0.00000   23.34560   24.89057   24.85561
     216      444        5     0.00000   23.42140   19.05291   20.82059
     217      444        5     0.00000   23.14334   23.46398   20.82059
     218      444        5     0.00000   24.47994   21.29495   27.16204
     219      444        5     0.00000   25.89234   21.78932   23.00324
     220      444        5     0.00000   19.53807   24.23567   23.00324
     221      444        5     0.00000   18.12567   20.47950   24.85561
     222      444        5     0.00000   19.46227   21.01764   20.82059
     223      444        5     0.00000   20.87467   18.97989   27.16204
     224      444        5     0.00000   24.55574   18.16445   24.85561
     225      444        5     0.00000   23.14334   18.97989   27.16204
     226      444        5     0.00000   18.12567   21.78932   23.00324
     227      444        5     0.00000   20.87467   23.46398   20.82059
     228      444        5     0.00000   25.89234   20.47950   24.85561
     229      444        5     0.00000   24.47994   24.23567   23.00324
     230      444        5     0.00000   20.59661   19.05291   20.82059
     231      444        5     0.00000   24.55574   21.01764   20.82059
     232      444        5     0.00000   20.67241   24.89057   24.85561
     233      444        5     0.00000   19.53807   21.29495   27.16204
     234      444        5     0.00000   23.34560   23.25968   27.16204
     235      444        5     0.00000   19.46227   18.16445   24.85561
     236      444        5     0.00000   23.42140   17.50954   23.00324
     237      444        6     0.00000   29.34534   16.94254   13.79223
     238      444        6     0.00000   35.20214   20.32397   23.35635
     239      444        6     0.00000   23.48854   20.32397   23.35635
     240      444        6     0.00000   29.34534   10.17969   23.35635
     241      444        7     0.00000   17.72365   16.82765   25.94190
     242      444        6     0.00000   16.88469   16.63638   26.84857
     243      444        6     0.00000   18.31644   17.92692   25.99401
     244      444        2     0.00000   16.70141   17.31235   27.56234
     245      444        7     0.00000   25.21565   16.43464   16.86951
     246      444        6     0.00000   24.36493   15.65037   17.34247
     247      444        6     0.00000   25.80776   16.01948   15.84993
     248      444        2     0.00000   24.17240   14.75743   16.93553
     249      444        7     0.00000   19.50431   24.68038   19.19814
     250      444        6     0.00000   18.39975   25.01142   18.71559
     251      444        6     0.00000   19.44082   23.95924   20.21717
     252      444        2     0.00000   17.53018   24.72100   19.11497
     253      444        7     0.00000   16.29766   20.77290   16.86951
     254      444        6     0.00000   16.04382   21.90179   17.34247
     255      444        6     0.00000   15.64206   20.46770   15.84993
     256      444        2     0.00000   15.36678   22.51499   16.93553
     257      444        7     0.00000   27.91935   19.64222   25.94190
     258      444        6     0.00000   28.50448   19.01128   26.84857
     259      444        6     0.00000   26.67096   19.60595   25.99401
     260      444        2     0.00000   28.01071   18.51458   27.56234
     261      444        7     0.00000   27.72035   14.35776   25.94190
     262      444        6     0.00000   27.97419   15.17996   26.84857
     263      444        6     0.00000   28.37595   13.29475   25.99401
     264      444        2     0.00000   28.65123   15.00069   27.56234
     265      444        1     0.00000   29.34534   23.38416   34.50538
     266      444        1     0.00000   29.34534   10.50092   25.39555
     267      444        1     0.00000   23.76673   13.72173   34.50538
     268      444        1     0.00000   23.76673   20.16335   25.39555
     269      444        1     0.00000   34.92395   13.72173   34.50538
     270      444        1     0.00000   34.92395   20.16335   25.39555
     271      444        2     0.00000   22.00901   17.97957   25.09125
     272      444        2     0.00000   26.57526   10.07057   25.09125
     273      444        2     0.00000   17.44275   10.07057   25.09125
     274      444        2     0.00000   22.00901   12.70690   32.54792
     275      444        2     0.00000   26.02873   17.39711   34.12386
     276      444        2     0.00000   33.53656   25.46419   31.05304
     277      444        2     0.00000   23.27364   26.54989   34.12386
     278      444        2     0.00000   27.29336   21.75891   31.05304
     279      444        2     0.00000   31.48458   22.00732   40.96809
     280      444        2     0.00000   31.39732   19.58752   34.12386
     281      444        2     0.00000   27.20610   22.00732   40.96809
     282      444        2     0.00000   23.27364   24.07970   37.61723
     283      444        2     0.00000   31.48458   29.01832   31.05304
     284      444        2     0.00000   35.41704   26.54989   34.12386
     285      444        2     0.00000   23.88949   18.63221   37.61723
     286      444        2     0.00000   25.15412   25.46419   31.05304
     287      444        2     0.00000   31.39732   21.75891   31.05304
     288      444        2     0.00000   32.66195   17.39711   34.12386
     289      444        2     0.00000   34.80119   24.73406   28.98791
     290      444        2     0.00000   26.02873   21.02878   28.98791
     291      444        2     0.00000   27.29336   19.58752   34.12386
     292      444        2     0.00000   33.53656   20.82261   37.61723
     293      444        3     0.00000   26.27816   20.31182   35.86612
     294      444        3     0.00000   26.46048   27.07939   40.87481
     295      444        3     0.00000   32.23020   30.62106   35.86612
     296      444        3     0.00000   32.41252   23.64297   31.15516
     297      444        3     0.00000   29.34534   28.95548   31.15516
     298      444        3     0.00000   32.23020   27.07939   40.87481
     299      444        3     0.00000   35.29738   25.30855   35.86612
     300      444        3     0.00000   26.46048   30.62106   35.86612
     301      444        3     0.00000   23.39330   25.30855   35.86612
     302      444        3     0.00000   26.27816   23.64297   31.15516
     303      444        3     0.00000   29.34534   22.08266   40.87481
     304      444        3     0.00000   32.41252   20.31182   35.86612
     305      444        3     0.00000   25.33307   20.05609   36.85856
     306      444        3     0.00000   32.83885   22.00075   29.45603
     307      444        3     0.00000   25.85183   18.16246   34.88420
     308      444        3     0.00000   33.35761   24.49340   30.58325
     309      444        3     0.00000   28.13630   29.34875   30.58325
     310      444        3     0.00000   24.64279   24.09487   29.45603
     311      444        3     0.00000   35.99140   24.61794   36.85856
     312      444        3     0.00000   34.04789   18.86050   36.85856
     313      444        3     0.00000   22.69928   26.01402   34.88420
     314      444        3     0.00000   26.54211   22.39928   30.58325
     315      444        3     0.00000   30.55438   21.67454   41.43622
     316      444        3     0.00000   32.14857   19.35805   34.88420
     317      444        3     0.00000   28.13630   21.67454   41.43622
     318      444        3     0.00000   22.69928   24.61794   36.85856
     319      444        3     0.00000   30.55438   29.34875   30.58325
     320      444        3     0.00000   35.99140   26.01402   34.88420
     321      444        3     0.00000   24.64279   18.86050   36.85856
     322      444        3     0.00000   25.33307   24.49340   30.58325
     323      444        3     0.00000   32.14857   22.39928   30.58325
     324      444        3     0.00000   32.83885   18.16246   34.88420
     325      444        3     0.00000   34.04789   24.09487   29.45603
     326      444        3     0.00000   25.85183   22.00075   29.45603
     327      444        3     0.00000   26.54211   19.35805   34.88420
     328      444        3     0.00000   33.35761   20.05609   36.85856
     329      444        3     0.00000   31.64062   24.08863   32.33787
     330      444        3     0.00000   31.52183   29.32077   35.89206
     331      444        3     0.00000   27.16885   26.67040   39.64023
     332      444        3     0.00000   27.05006   21.57544   35.89206
     333      444        3     0.00000   33.81711   25.34522   35.89206
     334      444        3     0.00000   31.64062   21.57544   35.89206
     335      444        3     0.00000   29.34534   28.06417   32.33787
     336      444        3     0.00000   27.05006   24.08863   32.33787
     337      444        3     0.00000   29.34534   22.90062   39.64023
     338      444        3     0.00000   27.16885   29.32077   35.89206
     339      444        3     0.00000   24.87357   25.34522   35.89206
     340      444        3     0.00000   31.52183   26.67040   39.64023
     341      444        4     0.00000   22.00901   12.70691   33.52147
     342      444        4     0.00000   16.64785    9.61164   24.76673
     343      444        4     0.00000   27.37016    9.61164   24.76673
     344      444        4     0.00000   22.00901   18.89744   24.76673
     345      444        5     0.00000   27.93294   21.74517   34.98343
     346      444        5     0.00000   28.00874   27.49531   39.14223
     347      444        5     0.00000   30.68194   29.12621   36.83579
     348      444        5     0.00000   30.75774   23.28855   32.80077
     349      444        5     0.00000   30.47967   27.69961   32.80077
     350      444        5     0.00000   31.81627   25.53059   39.14223
     351      444        5     0.00000   33.22867   26.02496   34.98343
     352      444        5     0.00000   26.87441   28.47130   34.98343
     353      444        5     0.00000   25.46201   24.71514   36.83579
     354      444        5     0.00000   26.79861   25.25327   32.80077
     355      444        5     0.00000   28.21101   23.21553   39.14223
     356      444        5     0.00000   31.89207   22.40008   36.83579
     357      444        5     0.00000   30.47967   23.21553   39.14223
     358      444        5     0.00000   25.46201   26.02496   34.98343
     359      444        5     0.00000   28.21101   27.69961   32.80077
     360      444        5     0.00000   33.22867   24.71514   36.83579
     361      444        5     0.00000   31.81627   28.47130   34.98343
     362      444        5     0.00000   27.93294   23.28855   32.80077
     363      444        5     0.00000   31.89207   25.25327   32.80077
     364      444        5     0.00000   28.00874   29.12621   36.83579
     365      444        5     0.00000   26.87441   25.53059   39.14223
     366      444        5     0.00000   30.68194   27.49531   39.14223
     367      444        5     0.00000   26.79861   22.40008   36.83579
     368      444        5     0.00000   30.75774   21.74517   34.98343
     369      444        6     0.00000   36.68167   21.17817   25.77242
     370      444        6     0.00000   42.53848   24.55960   35.33654
     371      444        6     0.00000   30.82487   24.55960   35.33654
     372      444        6     0.00000   36.68168   14.41532   35.33654
     373      444        7     0.00000   25.05999   21.06328   37.92208
     374      444        6     0.00000   24.22102   20.87201   38.82875
     375      444        6     0.00000   25.65278   22.16255   37.97420
     376      444        2     0.00000   24.03775   21.54798   39.54253
     377      444        7     0.00000   32.55199   20.67028   28.84969
     378      444        6     0.00000   31.70126   19.88600   29.32265
     379      444        6     0.00000   33.14410   20.25511   27.83011
     380      444        2     0.00000   31.50874   18.99307   28.91571
     381      444        7     0.00000   26.84064   28.91602   31.17833
     382      444        6     0.00000   25.73608   29.24706   30.69577
     383      444        6     0.00000   26.77716   28.19487   32.19736
     384      444        2     0.00000   24.86651   28.95664   31.09516
     385      444        7     0.00000   23.63400   25.00854   28.84969
     386      444        6     0.00000   23.38016   26.13742   29.32265
     387      444        6     0.00000   22.97840   24.70334   27.83011
     388      444        2     0.00000   22.70312   26.75062   28.91571
     389      444        7     0.00000   35.25568   23.87785   37.92208
     390      444        6     0.00000   35.84081   23.24692   38.82875
     391      444        6     0.00000   34.00729   23.84159   37.97420
     392      444        2     0.00000   35.34704   22.75022   39.54253
     393      444        7     0.00000   35.05668   18.59339   37.92208
     394      444        6     0.00000   35.31052   19.41559   38.82875
     395      444        6     0.00000   35.71228   17.53039   37.97420
     396      444        2     0.00000   35.98756   19.23633   39.54253
     397      444        1     0.00000   22.00901   27.61980   10.54501
     398      444        1     0.00000   22.00900   14.73655    1.43518
     399      444        1     0.00000   16.43039   17.95736   10.54501
     400      444        1     0.00000   16.43039   24.39899    1.43518
     401      444        1     0.00000   27.58762   17.95736   10.54501
     402      444        1     0.00000   27.58762   24.39899    1.43518
     403      444        2     0.00000   14.67267   22.21520    1.13088
     404      444        2     0.00000   19.23893   14.30621    1.13088
     405      444        2     0.00000   10.10641   14.30621    1.13088
     406      444        2     0.00000   14.67267   16.94254    8.58755
     407      444        2     0.00000   18.69239   21.63275   10.16349
     408      444        2     0.00000   26.20023   29.69983    7.09267
     409      444        2     0.00000   15.93730   30.78552   10.16349
     410      444        2     0.00000   19.95703   25.99455    7.09267