Created on Sat Aug 20 08:40:37 2022 

3240 atoms
7 atom types

0.000000  44.018010 xlo xhi
0.000000  38.120715 ylo yhi
0.000000  35.940555 zlo zhi
22.009005  22.009005  12.706905 xy xz yz

Masses

    1    91.224000000 # Zr3+4
    2     1.007940000 # H_
    3    12.010700000 # C_R
    4    15.999400000 # O_3
    5    15.999400000 # O_R
    6    15.999400000 # O_2
    7    16.04        # CH4

Atoms

       1      444        1     0.00000   14.67267   14.91289   10.54501
       2      444        1     0.00000   14.67267    2.02965    1.43518
       3      444        1     0.00000    9.09406    5.25046   10.54501
       4      444        1     0.00000    9.09406   11.69208    1.43518
       5      444        1     0.00000   20.25128    5.25046   10.54501
       6      444        1     0.00000   20.25128   11.69208    1.43518
       7      444        2     0.00000    7.33634    9.50830    1.13088
       8      444        2     0.00000   11.90259    1.59930    1.13088
       9      444        2     0.00000    2.77008    1.59930    1.13088
      10      444        2     0.00000    7.33634    4.23563    8.58755
      11      444        2     0.00000   11.05021    9.10242   13.85192
      12      444        2     0.00000   18.58090   13.45868    8.16892
      13      444        2     0.00000    8.60097   17.72546   13.85192
      14      444        2     0.00000    9.70144   15.29984    8.16892
      15      444        2     0.00000   13.60967   15.05810   18.08397
      16      444        2     0.00000   19.64390   12.80168   11.70186
      17      444        2     0.00000   15.74892   12.03275   15.94473
      18      444        2     0.00000    8.60097   15.93521    9.96599
      19      444        2     0.00000   13.60967   22.06910    8.16892
      20      444        2     0.00000   20.74437   17.72546   13.85192
      21      444        2     0.00000    9.49981    9.99755    9.96599
      22      444        2     0.00000   13.39109   14.95988    6.02968
      23      444        2     0.00000   17.03049   16.82399    6.02968
      24      444        2     0.00000   20.90853   10.61127   11.70186
      25      444        2     0.00000   19.84553   12.72854    6.10378
      26      444        2     0.00000    8.43681   14.56971    6.10378
      27      444        2     0.00000   12.31485   11.29283   13.85192
      28      444        2     0.00000   15.95425   10.67146   12.09442
      29      444        3     0.00000   11.60549   11.84055   11.90575
      30      444        3     0.00000   11.78781   18.60812   16.91444
      31      444        3     0.00000   17.55753   22.14979   11.90575
      32      444        3     0.00000   17.73985   15.17170    7.19479
      33      444        3     0.00000   14.67267   20.48421    7.19479
      34      444        3     0.00000   17.55753   18.60812   16.91444
      35      444        3     0.00000   20.62471   16.83728   11.90575
      36      444        3     0.00000   11.78781   22.14979   11.90575
      37      444        3     0.00000    8.72063   16.83728   11.90575
      38      444        3     0.00000   11.60549   15.17170    7.19479
      39      444        3     0.00000   14.67267   13.61139   16.91444
      40      444        3     0.00000   17.73985   11.84055   11.90575
      41      444        3     0.00000   10.81320   11.49660   10.81145
      42      444        3     0.00000   18.34617   15.52878    4.89902
      43      444        3     0.00000   10.99917    9.79510   13.00767
      44      444        3     0.00000   18.53214   14.02533    7.23528
      45      444        3     0.00000   15.28507   20.03370    6.02624
      46      444        3     0.00000   11.61157   14.46808    4.89902
      47      444        3     0.00000   21.31873   16.32312   10.81145
      48      444        3     0.00000   17.73377    9.44153   12.00763
      49      444        3     0.00000    8.02661   17.33492   13.00767
      50      444        3     0.00000   10.21656   15.05875    7.23528
      51      444        3     0.00000   14.07603   14.06933   18.08825
      52      444        3     0.00000   19.12878   11.84107   11.78576
      53      444        3     0.00000   15.28507   12.35949   16.87920
      54      444        3     0.00000    8.02661   16.32312   10.81145
      55      444        3     0.00000   14.07603   21.74354    7.23528
      56      444        3     0.00000   21.31873   17.33492   13.00767
      57      444        3     0.00000   10.12293   10.30100   10.81145
      58      444        3     0.00000   12.30185   14.86661    6.02624
      59      444        3     0.00000   17.65589   15.92732    6.02624
      60      444        3     0.00000   19.81905   10.64547   11.78576
      61      444        3     0.00000   19.22241   13.62680    6.10806
      62      444        3     0.00000    9.52629   14.66022    6.10806
      63      444        3     0.00000   11.68945   10.99070   13.00767
      64      444        3     0.00000   17.04349   10.63713   12.00763
      65      444        3     0.00000   16.96795   15.61736    8.37750
      66      444        3     0.00000   16.84916   20.84950   11.93169
      67      444        3     0.00000   12.49618   18.19913   15.67986
      68      444        3     0.00000   12.37739   13.10417   11.93169
      69      444        3     0.00000   19.14444   16.87395   11.93169
      70      444        3     0.00000   16.96795   13.10417   11.93169
      71      444        3     0.00000   14.67267   19.59290    8.37750
      72      444        3     0.00000   12.37739   15.61736    8.37750
      73      444        3     0.00000   14.67267   14.42935   15.67986
      74      444        3     0.00000   12.49618   20.84950   11.93169
      75      444        3     0.00000   10.20090   16.87395   11.93169
      76      444        3     0.00000   16.84916   18.19913   15.67986
      77      444        4     0.00000    7.33634    4.23564    9.56110
      78      444        4     0.00000    1.97518    1.14037    0.80636
      79      444        4     0.00000   12.69749    1.14037    0.80636
      80      444        4     0.00000    7.33634   10.42617    0.80636
      81      444        5     0.00000   13.26027   13.27390   11.02306
      82      444        5     0.00000   13.33607   19.02404   15.18186
      83      444        5     0.00000   16.00927   20.65494   12.87542
      84      444        5     0.00000   16.08507   14.81728    8.84040
      85      444        5     0.00000   15.80700   19.22834    8.84040
      86      444        5     0.00000   17.14360   17.05932   15.18186
      87      444        5     0.00000   18.55600   17.55369   11.02306
      88      444        5     0.00000   12.20174   20.00003   11.02306
      89      444        5     0.00000   10.78934   16.24387   12.87542
      90      444        5     0.00000   12.12594   16.78200    8.84040
      91      444        5     0.00000   13.53834   14.74426   15.18186
      92      444        5     0.00000   17.21940   13.92881   12.87542
      93      444        5     0.00000   15.80700   14.74426   15.18186
      94      444        5     0.00000   10.78934   17.55369   11.02306
      95      444        5     0.00000   13.53834   19.22834    8.84040
      96      444        5     0.00000   18.55600   16.24387   12.87542
      97      444        5     0.00000   17.14360   20.00003   11.02306
      98      444        5     0.00000   13.26027   14.81728    8.84040
      99      444        5     0.00000   17.21940   16.78200    8.84040
     100      444        5     0.00000   13.33607   20.65494   12.87542
     101      444        5     0.00000   12.20174   17.05932   15.18186
     102      444        5     0.00000   16.00927   19.02404   15.18186
     103      444        5     0.00000   12.12594   13.92881   12.87542
     104      444        5     0.00000   16.08507   13.27390   11.02306
     105      444        6     0.00000   22.00900   12.70690    1.81205
     106      444        6     0.00000   27.86581   16.08833   11.37617
     107      444        6     0.00000   16.15220   16.08833   11.37617
     108      444        6     0.00000   22.00901    5.94405   11.37617
     109      444        4     0.00000   10.71342   12.32962    9.74107
     110      444        2     0.00000   10.07481   11.78177    9.14699
     111      444        4     0.00000   18.26038   16.26999    3.76198
     112      444        2     0.00000   17.62954   17.01811    4.08332
     113      444        4     0.00000   15.88408   18.81339    5.98580
     114      444        2     0.00000   16.21655   18.80956    5.01094
     115      444        4     0.00000   12.29637   14.17176    3.76198
     116      444        2     0.00000   13.25968   14.34403    4.08332
     117      444        4     0.00000   20.64720   15.82019    9.74107
     118      444        2     0.00000   21.44096   15.54106    9.14699
     119      444        4     0.00000   17.04897    8.27075   12.10727
     120      444        2     0.00000   16.08566    8.63114   12.16258
     121      444        1     0.00000   22.00901   19.14853   22.52519
     122      444        1     0.00000   22.00900    6.26528   13.41536
     123      444        1     0.00000   16.43039    9.48609   22.52519
     124      444        1     0.00000   16.43039   15.92772   13.41536
     125      444        1     0.00000   27.58762    9.48609   22.52519
     126      444        1     0.00000   27.58762   15.92772   13.41536
     127      444        2     0.00000   14.67267   13.74393   13.11106
     128      444        2     0.00000   19.23893    5.83494   13.11106
     129      444        2     0.00000   10.10641    5.83494   13.11106
     130      444        2     0.00000   14.67267    8.47127   20.56773
     131      444        2     0.00000   18.38655   13.33806   25.83211
     132      444        2     0.00000   25.91723   17.69431   20.14911
     133      444        2     0.00000   15.93730   21.96109   25.83211
     134      444        2     0.00000   17.03778   19.53548   20.14911
     135      444        2     0.00000   20.94601   19.29373   30.06415
     136      444        2     0.00000   26.98023   17.03732   23.68204
     137      444        2     0.00000   23.08525   16.26838   27.92491
     138      444        2     0.00000   15.93730   20.17084   21.94618
     139      444        2     0.00000   20.94601   26.30473   20.14911
     140      444        2     0.00000   28.08071   21.96109   25.83211
     141      444        2     0.00000   16.83614   14.23319   21.94618
     142      444        2     0.00000   20.72743   19.19551   18.00986
     143      444        2     0.00000   24.36683   21.05963   18.00986
     144      444        2     0.00000   28.24486   14.84691   23.68204
     145      444        2     0.00000   27.18187   16.96418   18.08397
     146      444        2     0.00000   15.77315   18.80534   18.08397
     147      444        2     0.00000   19.65118   15.52847   25.83211
     148      444        2     0.00000   23.29058   14.90709   24.07460
     149      444        3     0.00000   18.94183   16.07619   23.88594
     150      444        3     0.00000   19.12414   22.84375   28.89462
     151      444        3     0.00000   24.89387   26.38542   23.88594
     152      444        3     0.00000   25.07618   19.40734   19.17498
     153      444        3     0.00000   22.00900   24.71985   19.17498
     154      444        3     0.00000   24.89387   22.84375   28.89462
     155      444        3     0.00000   27.96105   21.07292   23.88594
     156      444        3     0.00000   19.12414   26.38542   23.88594
     157      444        3     0.00000   16.05696   21.07292   23.88594
     158      444        3     0.00000   18.94183   19.40734   19.17498
     159      444        3     0.00000   22.00901   17.84702   28.89462
     160      444        3     0.00000   25.07618   16.07619   23.88594
     161      444        3     0.00000   18.14954   15.73223   22.79164
     162      444        3     0.00000   25.68250   19.76442   16.87920
     163      444        3     0.00000   18.33551   14.03074   24.98786
     164      444        3     0.00000   25.86847   18.26097   19.21546
     165      444        3     0.00000   22.62140   24.26933   18.00642
     166      444        3     0.00000   18.94791   18.70371   16.87920
     167      444        3     0.00000   28.65506   20.55875   22.79164
     168      444        3     0.00000   25.07010   13.67717   23.98781
     169      444        3     0.00000   15.36295   21.57055   24.98786
     170      444        3     0.00000   17.55290   19.29438   19.21546
     171      444        3     0.00000   21.41236   18.30497   30.06843
     172      444        3     0.00000   26.46511   16.07670   23.76595
     173      444        3     0.00000   22.62140   16.59512   28.85939
     174      444        3     0.00000   15.36295   20.55875   22.79164
     175      444        3     0.00000   21.41236   25.97917   19.21546
     176      444        3     0.00000   28.65506   21.57055   24.98786
     177      444        3     0.00000   17.45926   14.53664   22.79164
     178      444        3     0.00000   19.63818   19.10224   18.00642
     179      444        3     0.00000   24.99222   20.16295   18.00642
     180      444        3     0.00000   27.15539   14.88111   23.76595
     181      444        3     0.00000   26.55875   17.86244   18.08825
     182      444        3     0.00000   16.86262   18.89585   18.08825
     183      444        3     0.00000   19.02579   15.22633   24.98786
     184      444        3     0.00000   24.37983   14.87276   23.98781
     185      444        3     0.00000   24.30429   19.85299   20.35769
     186      444        3     0.00000   24.18549   25.08513   23.91187
     187      444        3     0.00000   19.83252   22.43477   27.66005
     188      444        3     0.00000   19.71372   17.33980   23.91187
     189      444        3     0.00000   26.48077   21.10959   23.91187
     190      444        3     0.00000   24.30429   17.33980   23.91187
     191      444        3     0.00000   22.00900   23.82854   20.35769
     192      444        3     0.00000   19.71372   19.85299   20.35769
     193      444        3     0.00000   22.00901   18.66499   27.66005
     194      444        3     0.00000   19.83252   25.08513   23.91187
     195      444        3     0.00000   17.53724   21.10959   23.91187
     196      444        3     0.00000   24.18549   22.43477   27.66005
     197      444        4     0.00000   14.67267    8.47127   21.54128
     198      444        4     0.00000    9.31151    5.37600   12.78655
     199      444        4     0.00000   20.03383    5.37600   12.78655
     200      444        4     0.00000   14.67267   14.66180   12.78655
     201      444        5     0.00000   20.59661   17.50954   23.00324
     202      444        5     0.00000   20.67241   23.25968   27.16204
     203      444        5     0.00000   23.34560   24.89057   24.85561
     204      444        5     0.00000   23.42140   19.05291   20.82059
     205      444        5     0.00000   23.14334   23.46398   20.82059
     206      444        5     0.00000   24.47994   21.29495   27.16204
     207      444        5     0.00000   25.89234   21.78932   23.00324
     208      444        5     0.00000   19.53807   24.23567   23.00324
     209      444        5     0.00000   18.12567   20.47950   24.85561
     210      444        5     0.00000   19.46227   21.01764   20.82059
     211      444        5     0.00000   20.87467   18.97989   27.16204
     212      444        5     0.00000   24.55574   18.16445   24.85561
     213      444        5     0.00000   23.14334   18.97989   27.16204
     214      444        5     0.00000   18.12567   21.78932   23.00324
     215      444        5     0.00000   20.87467   23.46398   20.82059
     216      444        5     0.00000   25.89234   20.47950   24.85561
     217      444        5     0.00000   24.47994   24.23567   23.00324
     218      444        5     0.00000   20.59661   19.05291   20.82059
     219      444        5     0.00000   24.55574   21.01764   20.82059
     220      444        5     0.00000   20.67241   24.89057   24.85561
     221      444        5     0.00000   19.53807   21.29495   27.16204
     222      444        5     0.00000   23.34560   23.25968   27.16204
     223      444        5     0.00000   19.46227   18.16445   24.85561
     224      444        5     0.00000   23.42140   17.50954   23.00324
     225      444        6     0.00000   29.34534   16.94254   13.79223
     226      444        6     0.00000   35.20214   20.32397   23.35635
     227      444        6     0.00000   23.48854   20.32397   23.35635
     228      444        6     0.00000   29.34534   10.17969   23.35635
     229      444        4     0.00000   18.04976   16.56525   21.72125
     230      444        2     0.00000   17.41114   16.01740   21.12717
     231      444        4     0.00000   25.59672   20.50563   15.74217
     232      444        2     0.00000   24.96587   21.25374   16.06351
     233      444        4     0.00000   23.22042   23.04902   17.96598
     234      444        2     0.00000   23.55288   23.04519   16.99112
     235      444        4     0.00000   19.63270   18.40740   15.74217
     236      444        2     0.00000   20.59601   18.57967   16.06351
     237      444        4     0.00000   27.98354   20.05583   21.72125
     238      444        2     0.00000   28.77730   19.77669   21.12717
     239      444        4     0.00000   24.38531   12.50639   24.08746
     240      444        2     0.00000   23.42200   12.86677   24.14276
     241      444        1     0.00000   29.34534   23.38416   34.50538
     242      444        1     0.00000   29.34534   10.50092   25.39555
     243      444        1     0.00000   23.76673   13.72173   34.50538
     244      444        1     0.00000   23.76673   20.16335   25.39555
     245      444        1     0.00000   34.92395   13.72173   34.50538
     246      444        1     0.00000   34.92395   20.16335   25.39555
     247      444        2     0.00000   22.00901   17.97957   25.09125
     248      444        2     0.00000   26.57526   10.07057   25.09125
     249      444        2     0.00000   17.44275   10.07057   25.09125
     250      444        2     0.00000   22.00901   12.70690   32.54792
     251      444        2     0.00000   25.72288   17.57369   37.81229
     252      444        2     0.00000   33.25357   21.92995   32.12929
     253      444        2     0.00000   23.27364   26.19673   37.81229
     254      444        2     0.00000   24.37411   23.77111   32.12929
     255      444        2     0.00000   28.28234   23.52937   42.04434
     256      444        2     0.00000   34.31657   21.27295   35.66223
     257      444        2     0.00000   30.42159   20.50402   39.90510
     258      444        2     0.00000   23.27364   24.40648   33.92636
     259      444        2     0.00000   28.28234   30.54037   32.12929
     260      444        2     0.00000   35.41704   26.19673   37.81229
     261      444        2     0.00000   24.17248   18.46882   33.92636
     262      444        2     0.00000   28.06376   23.43115   29.99005
     263      444        2     0.00000   31.70316   25.29526   29.99005
     264      444        2     0.00000   35.58120   19.08254   35.66223
     265      444        2     0.00000   34.51820   21.19981   30.06415
     266      444        2     0.00000   23.10948   23.04098   30.06415
     267      444        2     0.00000   26.98752   19.76410   37.81229
     268      444        2     0.00000   30.62692   19.14273   36.05479
     269      444        3     0.00000   26.27816   20.31182   35.86612
     270      444        3     0.00000   26.46048   27.07939   40.87481
     271      444        3     0.00000   32.23020   30.62106   35.86612
     272      444        3     0.00000   32.41252   23.64297   31.15516
     273      444        3     0.00000   29.34534   28.95548   31.15516
     274      444        3     0.00000   32.23020   27.07939   40.87481
     275      444        3     0.00000   35.29738   25.30855   35.86612
     276      444        3     0.00000   26.46048   30.62106   35.86612
     277      444        3     0.00000   23.39330   25.30855   35.86612
     278      444        3     0.00000   26.27816   23.64297   31.15516
     279      444        3     0.00000   29.34534   22.08266   40.87481
     280      444        3     0.00000   32.41252   20.31182   35.86612
     281      444        3     0.00000   25.48587   19.96787   34.77182
     282      444        3     0.00000   33.01884   24.00005   28.85939
     283      444        3     0.00000   25.67184   18.26637   36.96804
     284      444        3     0.00000   33.20481   22.49660   31.19565
     285      444        3     0.00000   29.95774   28.50497   29.98661
     286      444        3     0.00000   26.28424   22.93935   28.85939
     287      444        3     0.00000   35.99140   24.79439   34.77182
     288      444        3     0.00000   32.40644   17.91280   35.96800
     289      444        3     0.00000   22.69928   25.80619   36.96804
     290      444        3     0.00000   24.88923   23.53002   31.19565
     291      444        3     0.00000   28.74870   22.54060   42.04862
     292      444        3     0.00000   33.80145   20.31234   35.74613
     293      444        3     0.00000   29.95774   20.83076   40.83957
     294      444        3     0.00000   22.69928   24.79439   34.77182
     295      444        3     0.00000   28.74870   30.21481   31.19565
     296      444        3     0.00000   35.99140   25.80619   36.96804
     297      444        3     0.00000   24.79560   18.77227   34.77182
     298      444        3     0.00000   26.97452   23.33788   29.98661
     299      444        3     0.00000   32.32856   24.39859   29.98661
     300      444        3     0.00000   34.49172   19.11674   35.74613
     301      444        3     0.00000   33.89508   22.09807   30.06843
     302      444        3     0.00000   24.19896   23.13149   30.06843
     303      444        3     0.00000   26.36212   19.46197   36.96804
     304      444        3     0.00000   31.71616   19.10840   35.96800
     305      444        3     0.00000   31.64062   24.08863   32.33787
     306      444        3     0.00000   31.52183   29.32077   35.89206
     307      444        3     0.00000   27.16885   26.67040   39.64023
     308      444        3     0.00000   27.05006   21.57544   35.89206
     309      444        3     0.00000   33.81711   25.34522   35.89206
     310      444        3     0.00000   31.64062   21.57544   35.89206
     311      444        3     0.00000   29.34534   28.06417   32.33787
     312      444        3     0.00000   27.05006   24.08863   32.33787
     313      444        3     0.00000   29.34534   22.90062   39.64023
     314      444        3     0.00000   27.16885   29.32077   35.89206
     315      444        3     0.00000   24.87357   25.34522   35.89206
     316      444        3     0.00000   31.52183   26.67040   39.64023
     317      444        4     0.00000   22.00901   12.70691   33.52147
     318      444        4     0.00000   16.64785    9.61164   24.76673
     319      444        4     0.00000   27.37016    9.61164   24.76673
     320      444        4     0.00000   22.00901   18.89744   24.76673
     321      444        5     0.00000   27.93294   21.74517   34.98343
     322      444        5     0.00000   28.00874   27.49531   39.14223
     323      444        5     0.00000   30.68194   29.12621   36.83579
     324      444        5     0.00000   30.75774   23.28855   32.80077
     325      444        5     0.00000   30.47967   27.69961   32.80077
     326      444        5     0.00000   31.81627   25.53059   39.14223
     327      444        5     0.00000   33.22867   26.02496   34.98343
     328      444        5     0.00000   26.87441   28.47130   34.98343
     329      444        5     0.00000   25.46201   24.71514   36.83579
     330      444        5     0.00000   26.79861   25.25327   32.80077
     331      444        5     0.00000   28.21101   23.21553   39.14223
     332      444        5     0.00000   31.89207   22.40008   36.83579
     333      444        5     0.00000   30.47967   23.21553   39.14223
     334      444        5     0.00000   25.46201   26.02496   34.98343
     335      444        5     0.00000   28.21101   27.69961   32.80077
     336      444        5     0.00000   33.22867   24.71514   36.83579
     337      444        5     0.00000   31.81627   28.47130   34.98343
     338      444        5     0.00000   27.93294   23.28855   32.80077
     339      444        5     0.00000   31.89207   25.25327   32.80077
     340      444        5     0.00000   28.00874   29.12621   36.83579
     341      444        5     0.00000   26.87441   25.53059   39.14223
     342      444        5     0.00000   30.68194   27.49531   39.14223
     343      444        5     0.00000   26.79861   22.40008   36.83579
     344      444        5     0.00000   30.75774   21.74517   34.98343
     345      444        6     0.00000   36.68167   21.17817   25.77242
     346      444        6     0.00000   42.53848   24.55960   35.33654
     347      444        6     0.00000   30.82487   24.55960   35.33654
     348      444        6     0.00000   36.68168   14.41532   35.33654
     349      444        4     0.00000   25.38609   20.80089   33.70144
     350      444        2     0.00000   24.74748   20.25304   33.10736
     351      444        4     0.00000   32.93305   24.74126   27.72235
     352      444        2     0.00000   32.30221   25.48938   28.04369
     353      444        4     0.00000   30.55675   27.28466   29.94617
     354      444        2     0.00000   30.88922   27.28083   28.97131
     355      444        4     0.00000   26.96904   22.64303   27.72235
     356      444        2     0.00000   27.93235   22.81530   28.04369
     357      444        4     0.00000   35.31987   24.29146   33.70144
     358      444        2     0.00000   36.11363   24.01233   33.10736
     359      444        4     0.00000   31.72164   16.74202   36.06764
     360      444        2     0.00000   30.75833   17.10241   36.12295
     361      444        1     0.00000   22.00901   27.61980   10.54501
     362      444        1     0.00000   22.00900   14.73655    1.43518
     363      444        1     0.00000   16.43039   17.95736   10.54501
     364      444        1     0.00000   16.43039   24.39899    1.43518
     365      444        1     0.00000   27.58762   17.95736   10.54501
     366      444        1     0.00000   27.58762   24.39899    1.43518
     367      444        2     0.00000   14.67267   22.21520    1.13088
     368      444        2     0.00000   19.23893   14.30621    1.13088
     369      444        2     0.00000   10.10641   14.30621    1.13088
     370      444        2     0.00000   14.67267   16.94254    8.58755
     371      444        2     0.00000   18.38655   21.80933   13.85192
     372      444        2     0.00000   25.91723   26.16558    8.16892
     373      444        2     0.00000   15.93730   30.43236   13.85192
     374      444        2     0.00000   17.03778   28.00675    8.16892
     375      444        2     0.00000   20.94601   27.76500   18.08397
     376      444        2     0.00000   26.98023   25.50859   11.70186
     377      444        2     0.00000   23.08525   24.73965   15.94473
     378      444        2     0.00000   15.93730   28.64211    9.96599
     379      444        2     0.00000   20.94601   34.77600    8.16892
     380      444        2     0.00000   28.08071   30.43236   13.85192
     381      444        2     0.00000   16.83614   22.70446    9.96599
     382      444        2     0.00000   20.72743   27.66678    6.02968
     383      444        2     0.00000   24.36683   29.53090    6.02968
     384      444        2     0.00000   28.24486   23.31818   11.70186
     385      444        2     0.00000   27.18187   25.43545    6.10378
     386      444        2     0.00000   15.77315   27.27661    6.10378
     387      444        2     0.00000   19.65118   23.99974   13.85192
     388      444        2     0.00000   23.29058   23.37836   12.09442
     389      444        3     0.00000   18.94183   24.54746   11.90575
     390      444        3     0.00000   19.12414   31.31502   16.91444
     391      444        3     0.00000   24.89387   34.85669   11.90575
     392      444        3     0.00000   25.07618   27.87861    7.19479
     393      444        3     0.00000   22.00900   33.19112    7.19479
     394      444        3     0.00000   24.89387   31.31502   16.91444
     395      444        3     0.00000   27.96105   29.54418   11.90575
     396      444        3     0.00000   19.12414   34.85669   11.90575
     397      444        3     0.00000   16.05696   29.54418   11.90575
     398      444        3     0.00000   18.94183   27.87861    7.19479
     399      444        3     0.00000   22.00901   26.31829   16.91444
     400      444        3     0.00000   25.07618   24.54746   11.90575
     401      444        3     0.00000   18.14954   24.20350   10.81145
     402      444        3     0.00000   25.68250   28.23569    4.89902
     403      444        3     0.00000   18.33551   22.50201   13.00767
     404      444        3     0.00000   25.86847   26.73224    7.23528
     405      444        3     0.00000   22.62140   32.74060    6.02624
     406      444        3     0.00000   18.94791   27.17498    4.89902
     407      444        3     0.00000   28.65506   29.03002   10.81145
     408      444        3     0.00000   25.07010   22.14844   12.00763
     409      444        3     0.00000   15.36295   30.04182   13.00767
     410      444        3     0.00000   17.55290   27.76565    7.23528
     411      444        3     0.00000   21.41236   26.77624   18.08825