Created on Sat Aug 20 13:57:35 2022

3078 atoms
8 atom types

0.000000  44.018010 xlo xhi
0.000000  38.120715 ylo yhi
0.000000  35.940555 zlo zhi
22.009005  22.009005  12.706905 xy xz yz

Masses

    1    91.224000000 # Zr3+4
    2     1.007940000 # H_
    3    12.010700000 # C_R
    4    15.999400000 # O_3
    5    15.999400000 # O_R
    6    15.999400000 # O_2
    7    79.904000000 # Br
    8    16.04        # CH4

Atoms

       1      444        1     0.00000   14.67267   14.91289   10.54501
       2      444        1     0.00000   14.67267    2.02965    1.43518
       3      444        1     0.00000    9.09406    5.25046   10.54501
       4      444        1     0.00000    9.09406   11.69208    1.43518
       5      444        1     0.00000   20.25128    5.25046   10.54501
       6      444        1     0.00000   20.25128   11.69208    1.43518
       7      444        2     0.00000    7.33634    9.50830    1.13088
       8      444        2     0.00000   11.90259    1.59930    1.13088
       9      444        2     0.00000    2.77008    1.59930    1.13088
      10      444        2     0.00000    7.33634    4.23563    8.58755
      11      444        2     0.00000    9.51184    9.99060    9.95959
      12      444        2     0.00000   19.64511   15.31444    8.16450
      13      444        2     0.00000    8.60097   18.96680   12.10965
      14      444        2     0.00000   10.77647   13.45033    8.16450
      15      444        2     0.00000   15.74892   15.05185   18.07955
      16      444        2     0.00000   18.56887   12.18101    9.95959
      17      444        2     0.00000   13.60967   12.02650   15.94031
      18      444        2     0.00000    8.60097   14.70636   11.71709
      19      444        2     0.00000   15.74892   22.06285    8.16450
      20      444        2     0.00000   20.74437   18.96680   12.10965
      21      444        2     0.00000   11.06225    9.09548   13.84552
      22      444        2     0.00000   12.32688   16.81564    6.02526
      23      444        2     0.00000   15.95546   14.97448    6.02526
      24      444        2     0.00000   19.83350    9.99060    9.95959
      25      444        2     0.00000   20.90974   14.58431    6.09937
      26      444        2     0.00000    9.51184   12.72019    6.09937
      27      444        2     0.00000   10.77647   12.18101    9.95959
      28      444        2     0.00000   17.01846   11.28588   13.84552
      29      444        3     0.00000   11.60549   11.84055   11.90575
      30      444        3     0.00000   11.78781   18.60812   16.91444
      31      444        3     0.00000   17.55753   22.14979   11.90575
      32      444        3     0.00000   17.73985   15.17170    7.19479
      33      444        3     0.00000   14.67267   20.48421    7.19479
      34      444        3     0.00000   17.55753   18.60812   16.91444
      35      444        3     0.00000   20.62471   16.83728   11.90575
      36      444        3     0.00000   11.78781   22.14979   11.90575
      37      444        3     0.00000    8.72063   16.83728   11.90575
      38      444        3     0.00000   11.60549   15.17170    7.19479
      39      444        3     0.00000   14.67267   13.61139   16.91444
      40      444        3     0.00000   17.73985   11.84055   11.90575
      41      444        3     0.00000   11.70376   10.98243   13.00006
      42      444        3     0.00000   17.73521   14.48544    4.89377
      43      444        3     0.00000   10.13724   10.29274   10.80384
      44      444        3     0.00000   19.13022   15.07611    7.23003
      45      444        3     0.00000   14.07603   20.02627    6.02098
      46      444        3     0.00000   11.01349   15.51885    4.89377
      47      444        3     0.00000   21.31873   15.63250   11.80388
      48      444        3     0.00000   18.33185    9.78684   13.00006
      49      444        3     0.00000    8.02661   18.04039   12.02575
      50      444        3     0.00000   10.82752   14.01540    7.23003
      51      444        3     0.00000   15.28507   14.06190   18.08299
      52      444        3     0.00000   18.51782   11.48833   10.80384
      53      444        3     0.00000   14.07603   12.35206   16.87395
      54      444        3     0.00000    8.02661   15.63250   11.80388
      55      444        3     0.00000   15.28507   21.73611    7.23003
      56      444        3     0.00000   21.31873   18.04039   12.02575
      57      444        3     0.00000   11.01349    9.78684   13.00006
      58      444        3     0.00000   11.70376   15.91738    6.02098
      59      444        3     0.00000   17.04494   14.88397    6.02098
      60      444        3     0.00000   19.20810   10.29274   10.80384
      61      444        3     0.00000   19.82050   14.67758    6.10281
      62      444        3     0.00000   10.13724   13.61687    6.10281
      63      444        3     0.00000   10.82752   11.48833   10.80384
      64      444        3     0.00000   17.64158   10.98243   13.00006
      65      444        3     0.00000   16.96795   15.61736    8.37750
      66      444        3     0.00000   16.84916   20.84950   11.93169
      67      444        3     0.00000   12.49618   18.19913   15.67986
      68      444        3     0.00000   12.37739   13.10417   11.93169
      69      444        3     0.00000   19.14444   16.87395   11.93169
      70      444        3     0.00000   16.96795   13.10417   11.93169
      71      444        3     0.00000   14.67267   19.59290    8.37750
      72      444        3     0.00000   12.37739   15.61736    8.37750
      73      444        3     0.00000   14.67267   14.42935   15.67986
      74      444        3     0.00000   12.49618   20.84950   11.93169
      75      444        3     0.00000   10.20090   16.87395   11.93169
      76      444        3     0.00000   16.84916   18.19913   15.67986
      77      444        4     0.00000    7.33634    4.23564    9.56110
      78      444        4     0.00000    1.97518    1.14037    0.80636
      79      444        4     0.00000   12.69749    1.14037    0.80636
      80      444        4     0.00000    7.33634   10.42617    0.80636
      81      444        5     0.00000   13.26027   13.27390   11.02306
      82      444        5     0.00000   13.33607   19.02404   15.18186
      83      444        5     0.00000   16.00927   20.65494   12.87542
      84      444        5     0.00000   16.08507   14.81728    8.84040
      85      444        5     0.00000   15.80700   19.22834    8.84040
      86      444        5     0.00000   17.14360   17.05932   15.18186
      87      444        5     0.00000   18.55600   17.55369   11.02306
      88      444        5     0.00000   12.20174   20.00003   11.02306
      89      444        5     0.00000   10.78934   16.24387   12.87542
      90      444        5     0.00000   12.12594   16.78200    8.84040
      91      444        5     0.00000   13.53834   14.74426   15.18186
      92      444        5     0.00000   17.21940   13.92881   12.87542
      93      444        5     0.00000   15.80700   14.74426   15.18186
      94      444        5     0.00000   10.78934   17.55369   11.02306
      95      444        5     0.00000   13.53834   19.22834    8.84040
      96      444        5     0.00000   18.55600   16.24387   12.87542
      97      444        5     0.00000   17.14360   20.00003   11.02306
      98      444        5     0.00000   13.26027   14.81728    8.84040
      99      444        5     0.00000   17.21940   16.78200    8.84040
     100      444        5     0.00000   13.33607   20.65494   12.87542
     101      444        5     0.00000   12.20174   17.05932   15.18186
     102      444        5     0.00000   16.00927   19.02404   15.18186
     103      444        5     0.00000   12.12594   13.92881   12.87542
     104      444        5     0.00000   16.08507   13.27390   11.02306
     105      444        6     0.00000   22.00900   12.70690    1.81205
     106      444        6     0.00000   27.86581   16.08833   11.37617
     107      444        6     0.00000   16.15220   16.08833   11.37617
     108      444        6     0.00000   22.00901    5.94405   11.37617
     109      444        7     0.00000   12.85505   11.47515   14.59776
     110      444        7     0.00000   16.71516   14.06849    3.18890
     111      444        7     0.00000   13.20492   18.19394    5.95296
     112      444        7     0.00000   11.16243   16.61071    3.18890
     113      444        7     0.00000   20.31638   13.87351   11.65515
     114      444        7     0.00000   18.18291    8.54343   14.59776
     115      444        1     0.00000   22.00901   19.14853   22.52519
     116      444        1     0.00000   22.00900    6.26528   13.41536
     117      444        1     0.00000   16.43039    9.48609   22.52519
     118      444        1     0.00000   16.43039   15.92772   13.41536
     119      444        1     0.00000   27.58762    9.48609   22.52519
     120      444        1     0.00000   27.58762   15.92772   13.41536
     121      444        2     0.00000   14.67267   13.74393   13.11106
     122      444        2     0.00000   19.23893    5.83494   13.11106
     123      444        2     0.00000   10.10641    5.83494   13.11106
     124      444        2     0.00000   14.67267    8.47127   20.56773
     125      444        2     0.00000   16.84818   14.22624   21.93977
     126      444        2     0.00000   26.98145   19.55008   20.14469
     127      444        2     0.00000   15.93730   23.20243   24.08984
     128      444        2     0.00000   18.11281   17.68596   20.14469
     129      444        2     0.00000   23.08525   19.28749   30.05974
     130      444        2     0.00000   25.90520   16.41665   21.93977
     131      444        2     0.00000   20.94601   16.26214   27.92049
     132      444        2     0.00000   15.93730   18.94199   23.69728
     133      444        2     0.00000   23.08525   26.29849   20.14469
     134      444        2     0.00000   28.08071   23.20243   24.08984
     135      444        2     0.00000   18.39858   13.33111   25.82570
     136      444        2     0.00000   19.66322   21.05128   18.00544
     137      444        2     0.00000   23.29180   19.21011   18.00544
     138      444        2     0.00000   27.16983   14.22624   21.93977
     139      444        2     0.00000   28.24608   18.81994   18.07955
     140      444        2     0.00000   16.84818   16.95583   18.07955
     141      444        2     0.00000   18.11281   16.41665   21.93977
     142      444        2     0.00000   24.35479   15.52152   25.82570
     143      444        3     0.00000   18.94183   16.07619   23.88594
     144      444        3     0.00000   19.12414   22.84375   28.89462
     145      444        3     0.00000   24.89387   26.38542   23.88594
     146      444        3     0.00000   25.07618   19.40734   19.17498
     147      444        3     0.00000   22.00900   24.71985   19.17498
     148      444        3     0.00000   24.89387   22.84375   28.89462
     149      444        3     0.00000   27.96105   21.07292   23.88594
     150      444        3     0.00000   19.12414   26.38542   23.88594
     151      444        3     0.00000   16.05696   21.07292   23.88594
     152      444        3     0.00000   18.94183   19.40734   19.17498
     153      444        3     0.00000   22.00901   17.84702   28.89462
     154      444        3     0.00000   25.07618   16.07619   23.88594
     155      444        3     0.00000   19.04010   15.21807   24.98024
     156      444        3     0.00000   25.07155   18.72107   16.87395
     157      444        3     0.00000   17.47357   14.52837   22.78402
     158      444        3     0.00000   26.46656   19.31174   19.21021
     159      444        3     0.00000   21.41236   24.26190   18.00117
     160      444        3     0.00000   18.34982   19.75449   16.87395
     161      444        3     0.00000   28.65506   19.86814   23.78407
     162      444        3     0.00000   25.66819   14.02247   24.98024
     163      444        3     0.00000   15.36295   22.27602   24.00593
     164      444        3     0.00000   18.16385   18.25104   19.21021
     165      444        3     0.00000   22.62140   18.29754   30.06318
     166      444        3     0.00000   25.85416   15.72397   22.78402
     167      444        3     0.00000   21.41236   16.58770   28.85414
     168      444        3     0.00000   15.36295   19.86814   23.78407
     169      444        3     0.00000   22.62140   25.97175   19.21021
     170      444        3     0.00000   28.65506   22.27602   24.00593
     171      444        3     0.00000   18.34982   14.02247   24.98024
     172      444        3     0.00000   19.04010   20.15302   18.00117
     173      444        3     0.00000   24.38127   19.11960   18.00117
     174      444        3     0.00000   26.54444   14.52837   22.78402
     175      444        3     0.00000   27.15684   18.91321   18.08299
     176      444        3     0.00000   17.47357   17.85250   18.08299
     177      444        3     0.00000   18.16385   15.72397   22.78402
     178      444        3     0.00000   24.97791   15.21807   24.98024
     179      444        3     0.00000   24.30429   19.85299   20.35769
     180      444        3     0.00000   24.18549   25.08513   23.91187
     181      444        3     0.00000   19.83252   22.43477   27.66005
     182      444        3     0.00000   19.71372   17.33980   23.91187
     183      444        3     0.00000   26.48077   21.10959   23.91187
     184      444        3     0.00000   24.30429   17.33980   23.91187
     185      444        3     0.00000   22.00900   23.82854   20.35769
     186      444        3     0.00000   19.71372   19.85299   20.35769
     187      444        3     0.00000   22.00901   18.66499   27.66005
     188      444        3     0.00000   19.83252   25.08513   23.91187
     189      444        3     0.00000   17.53724   21.10959   23.91187
     190      444        3     0.00000   24.18549   22.43477   27.66005
     191      444        4     0.00000   14.67267    8.47127   21.54128
     192      444        4     0.00000    9.31151    5.37600   12.78655
     193      444        4     0.00000   20.03383    5.37600   12.78655
     194      444        4     0.00000   14.67267   14.66180   12.78655
     195      444        5     0.00000   20.59661   17.50954   23.00324
     196      444        5     0.00000   20.67241   23.25968   27.16204
     197      444        5     0.00000   23.34560   24.89057   24.85561
     198      444        5     0.00000   23.42140   19.05291   20.82059
     199      444        5     0.00000   23.14334   23.46398   20.82059
     200      444        5     0.00000   24.47994   21.29495   27.16204
     201      444        5     0.00000   25.89234   21.78932   23.00324
     202      444        5     0.00000   19.53807   24.23567   23.00324
     203      444        5     0.00000   18.12567   20.47950   24.85561
     204      444        5     0.00000   19.46227   21.01764   20.82059
     205      444        5     0.00000   20.87467   18.97989   27.16204
     206      444        5     0.00000   24.55574   18.16445   24.85561
     207      444        5     0.00000   23.14334   18.97989   27.16204
     208      444        5     0.00000   18.12567   21.78932   23.00324
     209      444        5     0.00000   20.87467   23.46398   20.82059
     210      444        5     0.00000   25.89234   20.47950   24.85561
     211      444        5     0.00000   24.47994   24.23567   23.00324
     212      444        5     0.00000   20.59661   19.05291   20.82059
     213      444        5     0.00000   24.55574   21.01764   20.82059
     214      444        5     0.00000   20.67241   24.89057   24.85561
     215      444        5     0.00000   19.53807   21.29495   27.16204
     216      444        5     0.00000   23.34560   23.25968   27.16204
     217      444        5     0.00000   19.46227   18.16445   24.85561
     218      444        5     0.00000   23.42140   17.50954   23.00324
     219      444        6     0.00000   29.34534   16.94254   13.79223
     220      444        6     0.00000   35.20214   20.32397   23.35635
     221      444        6     0.00000   23.48854   20.32397   23.35635
     222      444        6     0.00000   29.34534   10.17969   23.35635
     223      444        7     0.00000   20.19139   15.71079   26.57795
     224      444        7     0.00000   24.05150   18.30413   15.16909
     225      444        7     0.00000   20.54125   22.42957   17.93314
     226      444        7     0.00000   18.49876   20.84635   15.16909
     227      444        7     0.00000   27.65271   18.10914   23.63533
     228      444        7     0.00000   25.51925   12.77907   26.57795
     229      444        1     0.00000   29.34534   23.38416   34.50538
     230      444        1     0.00000   29.34534   10.50092   25.39555
     231      444        1     0.00000   23.76673   13.72173   34.50538
     232      444        1     0.00000   23.76673   20.16335   25.39555
     233      444        1     0.00000   34.92395   13.72173   34.50538
     234      444        1     0.00000   34.92395   20.16335   25.39555
     235      444        2     0.00000   22.00901   17.97957   25.09125
     236      444        2     0.00000   26.57526   10.07057   25.09125
     237      444        2     0.00000   17.44275   10.07057   25.09125
     238      444        2     0.00000   22.00901   12.70690   32.54792
     239      444        2     0.00000   24.18451   18.46187   33.91996
     240      444        2     0.00000   34.31778   23.78571   32.12487
     241      444        2     0.00000   23.27364   27.43807   36.07002
     242      444        2     0.00000   25.44914   21.92160   32.12487
     243      444        2     0.00000   30.42159   23.52312   42.03992
     244      444        2     0.00000   33.24154   20.65228   33.91996
     245      444        2     0.00000   28.28234   20.49777   39.90068
     246      444        2     0.00000   23.27364   23.17763   35.67746
     247      444        2     0.00000   30.42159   30.53412   32.12487
     248      444        2     0.00000   35.41704   27.43807   36.07002
     249      444        2     0.00000   25.73492   17.56675   37.80589
     250      444        2     0.00000   26.99955   25.28691   29.98563
     251      444        2     0.00000   30.62813   23.44575   29.98563
     252      444        2     0.00000   34.50617   18.46187   33.91996
     253      444        2     0.00000   35.58241   23.05558   30.05974
     254      444        2     0.00000   24.18451   21.19146   30.05974
     255      444        2     0.00000   25.44914   20.65228   33.91996
     256      444        2     0.00000   31.69113   19.75715   37.80589
     257      444        3     0.00000   26.27816   20.31182   35.86612
     258      444        3     0.00000   26.46048   27.07939   40.87481
     259      444        3     0.00000   32.23020   30.62106   35.86612
     260      444        3     0.00000   32.41252   23.64297   31.15516
     261      444        3     0.00000   29.34534   28.95548   31.15516
     262      444        3     0.00000   32.23020   27.07939   40.87481
     263      444        3     0.00000   35.29738   25.30855   35.86612
     264      444        3     0.00000   26.46048   30.62106   35.86612
     265      444        3     0.00000   23.39330   25.30855   35.86612
     266      444        3     0.00000   26.27816   23.64297   31.15516
     267      444        3     0.00000   29.34534   22.08266   40.87481
     268      444        3     0.00000   32.41252   20.31182   35.86612
     269      444        3     0.00000   26.37643   19.45370   36.96043
     270      444        3     0.00000   32.40788   22.95671   28.85414
     271      444        3     0.00000   24.80991   18.76401   34.76421
     272      444        3     0.00000   33.80289   23.54738   31.19039
     273      444        3     0.00000   28.74870   28.49754   29.98135
     274      444        3     0.00000   25.68616   23.99012   28.85414
     275      444        3     0.00000   35.99140   24.10377   35.76425
     276      444        3     0.00000   33.00452   18.25811   36.96043
     277      444        3     0.00000   22.69928   26.51166   35.98612
     278      444        3     0.00000   25.50019   22.48667   31.19039
     279      444        3     0.00000   29.95774   22.53317   42.04336
     280      444        3     0.00000   33.19049   19.95960   34.76421
     281      444        3     0.00000   28.74870   20.82333   40.83432
     282      444        3     0.00000   22.69928   24.10377   35.76425
     283      444        3     0.00000   29.95774   30.20738   31.19039
     284      444        3     0.00000   35.99140   26.51166   35.98612
     285      444        3     0.00000   25.68616   18.25811   36.96043
     286      444        3     0.00000   26.37643   24.38865   29.98135
     287      444        3     0.00000   31.71761   23.35524   29.98135
     288      444        3     0.00000   33.88077   18.76401   34.76421
     289      444        3     0.00000   34.49317   23.14885   30.06318
     290      444        3     0.00000   24.80991   22.08814   30.06318
     291      444        3     0.00000   25.50019   19.95960   34.76421
     292      444        3     0.00000   32.31425   19.45370   36.96043
     293      444        3     0.00000   31.64062   24.08863   32.33787
     294      444        3     0.00000   31.52183   29.32077   35.89206
     295      444        3     0.00000   27.16885   26.67040   39.64023
     296      444        3     0.00000   27.05006   21.57544   35.89206
     297      444        3     0.00000   33.81711   25.34522   35.89206
     298      444        3     0.00000   31.64062   21.57544   35.89206
     299      444        3     0.00000   29.34534   28.06417   32.33787
     300      444        3     0.00000   27.05006   24.08863   32.33787
     301      444        3     0.00000   29.34534   22.90062   39.64023
     302      444        3     0.00000   27.16885   29.32077   35.89206
     303      444        3     0.00000   24.87357   25.34522   35.89206
     304      444        3     0.00000   31.52183   26.67040   39.64023
     305      444        4     0.00000   22.00901   12.70691   33.52147
     306      444        4     0.00000   16.64785    9.61164   24.76673
     307      444        4     0.00000   27.37016    9.61164   24.76673
     308      444        4     0.00000   22.00901   18.89744   24.76673
     309      444        5     0.00000   27.93294   21.74517   34.98343
     310      444        5     0.00000   28.00874   27.49531   39.14223
     311      444        5     0.00000   30.68194   29.12621   36.83579
     312      444        5     0.00000   30.75774   23.28855   32.80077
     313      444        5     0.00000   30.47967   27.69961   32.80077
     314      444        5     0.00000   31.81627   25.53059   39.14223
     315      444        5     0.00000   33.22867   26.02496   34.98343
     316      444        5     0.00000   26.87441   28.47130   34.98343
     317      444        5     0.00000   25.46201   24.71514   36.83579
     318      444        5     0.00000   26.79861   25.25327   32.80077
     319      444        5     0.00000   28.21101   23.21553   39.14223
     320      444        5     0.00000   31.89207   22.40008   36.83579
     321      444        5     0.00000   30.47967   23.21553   39.14223
     322      444        5     0.00000   25.46201   26.02496   34.98343
     323      444        5     0.00000   28.21101   27.69961   32.80077
     324      444        5     0.00000   33.22867   24.71514   36.83579
     325      444        5     0.00000   31.81627   28.47130   34.98343
     326      444        5     0.00000   27.93294   23.28855   32.80077
     327      444        5     0.00000   31.89207   25.25327   32.80077
     328      444        5     0.00000   28.00874   29.12621   36.83579
     329      444        5     0.00000   26.87441   25.53059   39.14223
     330      444        5     0.00000   30.68194   27.49531   39.14223
     331      444        5     0.00000   26.79861   22.40008   36.83579
     332      444        5     0.00000   30.75774   21.74517   34.98343
     333      444        6     0.00000   36.68167   21.17817   25.77242
     334      444        6     0.00000   42.53848   24.55960   35.33654
     335      444        6     0.00000   30.82487   24.55960   35.33654
     336      444        6     0.00000   36.68168   14.41532   35.33654
     337      444        7     0.00000   27.52772   19.94642   38.55813
     338      444        7     0.00000   31.38783   22.53976   27.14927
     339      444        7     0.00000   27.87759   26.66521   29.91333
     340      444        7     0.00000   25.83510   25.08198   27.14927
     341      444        7     0.00000   34.98905   22.34478   35.61552
     342      444        7     0.00000   32.85558   17.01470   38.55813
     343      444        1     0.00000   22.00901   27.61980   10.54501
     344      444        1     0.00000   22.00900   14.73655    1.43518
     345      444        1     0.00000   16.43039   17.95736   10.54501
     346      444        1     0.00000   16.43039   24.39899    1.43518
     347      444        1     0.00000   27.58762   17.95736   10.54501
     348      444        1     0.00000   27.58762   24.39899    1.43518
     349      444        2     0.00000   14.67267   22.21520    1.13088
     350      444        2     0.00000   19.23893   14.30621    1.13088
     351      444        2     0.00000   10.10641   14.30621    1.13088
     352      444        2     0.00000   14.67267   16.94254    8.58755
     353      444        2     0.00000   16.84818   22.69751    9.95959
     354      444        2     0.00000   26.98145   28.02135    8.16450
     355      444        2     0.00000   15.93730   31.67370   12.10965
     356      444        2     0.00000   18.11281   26.15723    8.16450
     357      444        2     0.00000   23.08525   27.75876   18.07955
     358      444        2     0.00000   25.90520   24.88792    9.95959
     359      444        2     0.00000   20.94601   24.73341   15.94031
     360      444        2     0.00000   15.93730   27.41326   11.71709
     361      444        2     0.00000   23.08525   34.76976    8.16450
     362      444        2     0.00000   28.08071   31.67370   12.10965
     363      444        2     0.00000   18.39858   21.80238   13.84552
     364      444        2     0.00000   19.66322   29.52255    6.02526
     365      444        2     0.00000   23.29180   27.68138    6.02526
     366      444        2     0.00000   27.16983   22.69751    9.95959
     367      444        2     0.00000   28.24608   27.29121    6.09937
     368      444        2     0.00000   16.84818   25.42710    6.09937
     369      444        2     0.00000   18.11281   24.88792    9.95959
     370      444        2     0.00000   24.35479   23.99279   13.84552
     371      444        3     0.00000   18.94183   24.54746   11.90575
     372      444        3     0.00000   19.12414   31.31502   16.91444
     373      444        3     0.00000   24.89387   34.85669   11.90575
     374      444        3     0.00000   25.07618   27.87861    7.19479
     375      444        3     0.00000   22.00900   33.19112    7.19479
     376      444        3     0.00000   24.89387   31.31502   16.91444
     377      444        3     0.00000   27.96105   29.54418   11.90575
     378      444        3     0.00000   19.12414   34.85669   11.90575
     379      444        3     0.00000   16.05696   29.54418   11.90575
     380      444        3     0.00000   18.94183   27.87861    7.19479
     381      444        3     0.00000   22.00901   26.31829   16.91444
     382      444        3     0.00000   25.07618   24.54746   11.90575
     383      444        3     0.00000   19.04010   23.68934   13.00006
     384      444        3     0.00000   25.07155   27.19234    4.89377
     385      444        3     0.00000   17.47357   22.99964   10.80384
     386      444        3     0.00000   26.46656   27.78301    7.23003
     387      444        3     0.00000   21.41236   32.73317    6.02098
     388      444        3     0.00000   18.34982   28.22576    4.89377
     389      444        3     0.00000   28.65506   28.33941   11.80388
     390      444        3     0.00000   25.66819   22.49374   13.00006
     391      444        3     0.00000   15.36295   30.74729   12.02575
     392      444        3     0.00000   18.16385   26.72231    7.23003
     393      444        3     0.00000   22.62140   26.76881   18.08299
     394      444        3     0.00000   25.85416   24.19524   10.80384
     395      444        3     0.00000   21.41236   25.05897   16.87395
     396      444        3     0.00000   15.36295   28.33941   11.80388
     397      444        3     0.00000   22.62140   34.44302    7.23003
     398      444        3     0.00000   28.65506   30.74729   12.02575
     399      444        3     0.00000   18.34982   22.49374   13.00006
     400      444        3     0.00000   19.04010   28.62429    6.02098
     401      444        3     0.00000   24.38127   27.59087    6.02098
     402      444        3     0.00000   26.54444   22.99964   10.80384
     403      444        3     0.00000   27.15684   27.38448    6.10281
     404      444        3     0.00000   17.47357   26.32377    6.10281
     405      444        3     0.00000   18.16385   24.19524   10.80384
     406      444        3     0.00000   24.97791   23.68934   13.00006
     407      444        3     0.00000   24.30429   28.32426    8.37750
     408      444        3     0.00000   24.18549   33.55640   11.93169
     409      444        3     0.00000   19.83252   30.90604   15.67986
     410      444        3     0.00000   19.71372   25.81107   11.93169