Created on Wed Jul 27 03:45:17 2022

3402 atoms
7 atom types

0.000000  44.018010 xlo xhi
0.000000  38.120715 ylo yhi
0.000000  35.940555 zlo zhi
22.009005  22.009005  12.706905 xy xz yz

Masses

    1    91.224000000 # Zr3+4
    2     1.007940000 # H_
    3    12.010700000 # C_R
    4    15.999400000 # O_3
    5    15.999400000 # O_R
    6    15.999400000 # O_2
    7    16.04        # CH4

Atoms

       1      444        1     0.00000   14.67267   14.91289   10.54501
       2      444        1     0.00000   14.67267    2.02965    1.43518
       3      444        1     0.00000    9.09406    5.25046   10.54501
       4      444        1     0.00000    9.09406   11.69208    1.43518
       5      444        1     0.00000   20.25128    5.25046   10.54501
       6      444        1     0.00000   20.25128   11.69208    1.43518
       7      444        2     0.00000    7.33634    9.50830    1.13088
       8      444        2     0.00000   11.90259    1.59930    1.13088
       9      444        2     0.00000    2.77008    1.59930    1.13088
      10      444        2     0.00000    7.33634    4.23563    8.58755
      11      444        2     0.00000   15.73567   15.05810   18.08397
      12      444        2     0.00000    8.60097   15.93521    9.96599
      13      444        2     0.00000   13.59642   19.04375    6.02968
      14      444        2     0.00000   20.74437   17.72546   13.85192
      15      444        2     0.00000   12.12646    8.48105   12.09442
      16      444        2     0.00000   13.39109   14.95988    6.02968
      17      444        2     0.00000   17.03049   16.82399    6.02968
      18      444        2     0.00000   18.29513    9.10242   13.85192
      19      444        2     0.00000   19.84553   12.72854    6.10378
      20      444        2     0.00000    8.43681   14.56971    6.10378
      21      444        2     0.00000    9.70144   12.80168   11.70186
      22      444        2     0.00000   18.58090   12.18796    9.96599
      23      444        3     0.00000   11.60549   11.84055   11.90575
      24      444        3     0.00000   11.78781   18.60812   16.91444
      25      444        3     0.00000   17.55753   22.14979   11.90575
      26      444        3     0.00000   17.73985   15.17170    7.19479
      27      444        3     0.00000   14.67267   20.48421    7.19479
      28      444        3     0.00000   17.55753   18.60812   16.91444
      29      444        3     0.00000   20.62471   16.83728   11.90575
      30      444        3     0.00000   11.78781   22.14979   11.90575
      31      444        3     0.00000    8.72063   16.83728   11.90575
      32      444        3     0.00000   11.60549   15.17170    7.19479
      33      444        3     0.00000   14.67267   13.61139   16.91444
      34      444        3     0.00000   17.73985   11.84055   11.90575
      35      444        3     0.00000   12.30185   10.63713   12.00763
      36      444        3     0.00000   18.34617   15.52878    4.89902
      37      444        3     0.00000    9.52629   10.64547   11.78576
      38      444        3     0.00000   18.53214   14.02533    7.23528
      39      444        3     0.00000   15.26931   21.74354    7.23528
      40      444        3     0.00000   11.61157   14.46808    4.89902
      41      444        3     0.00000   21.31873   16.32312   10.81145
      42      444        3     0.00000   19.22241   10.30100   10.81145
      43      444        3     0.00000    8.02661   17.33492   13.00767
      44      444        3     0.00000   10.21656   15.05875    7.23528
      45      444        3     0.00000   14.06027   12.35949   16.87920
      46      444        3     0.00000   17.65589   10.99070   13.00767
      47      444        3     0.00000   15.26931   14.06933   18.08825
      48      444        3     0.00000    8.02661   16.32312   10.81145
      49      444        3     0.00000   14.06027   20.03370    6.02624
      50      444        3     0.00000   21.31873   17.33492   13.00767
      51      444        3     0.00000   11.61157    9.44153   12.00763
      52      444        3     0.00000   12.30185   14.86661    6.02624
      53      444        3     0.00000   17.65589   15.92732    6.02624
      54      444        3     0.00000   18.34617    9.79510   13.00767
      55      444        3     0.00000   19.22241   13.62680    6.10806
      56      444        3     0.00000    9.52629   14.66022    6.10806
      57      444        3     0.00000   10.21656   11.84107   11.78576
      58      444        3     0.00000   18.53214   11.49660   10.81145
      59      444        3     0.00000   16.96795   15.61736    8.37750
      60      444        3     0.00000   16.84916   20.84950   11.93169
      61      444        3     0.00000   12.49618   18.19913   15.67986
      62      444        3     0.00000   12.37739   13.10417   11.93169
      63      444        3     0.00000   19.14444   16.87395   11.93169
      64      444        3     0.00000   16.96795   13.10417   11.93169
      65      444        3     0.00000   14.67267   19.59290    8.37750
      66      444        3     0.00000   12.37739   15.61736    8.37750
      67      444        3     0.00000   14.67267   14.42935   15.67986
      68      444        3     0.00000   12.49618   20.84950   11.93169
      69      444        3     0.00000   10.20090   16.87395   11.93169
      70      444        3     0.00000   16.84916   18.19913   15.67986
      71      444        4     0.00000    7.33634    4.23564    9.56110
      72      444        4     0.00000    1.97518    1.14037    0.80636
      73      444        4     0.00000   12.69749    1.14037    0.80636
      74      444        4     0.00000    7.33634   10.42617    0.80636
      75      444        5     0.00000   13.26027   13.27390   11.02306
      76      444        5     0.00000   13.33607   19.02404   15.18186
      77      444        5     0.00000   16.00927   20.65494   12.87542
      78      444        5     0.00000   16.08507   14.81728    8.84040
      79      444        5     0.00000   15.80700   19.22834    8.84040
      80      444        5     0.00000   17.14360   17.05932   15.18186
      81      444        5     0.00000   18.55600   17.55369   11.02306
      82      444        5     0.00000   12.20174   20.00003   11.02306
      83      444        5     0.00000   10.78934   16.24387   12.87542
      84      444        5     0.00000   12.12594   16.78200    8.84040
      85      444        5     0.00000   13.53834   14.74426   15.18186
      86      444        5     0.00000   17.21940   13.92881   12.87542
      87      444        5     0.00000   15.80700   14.74426   15.18186
      88      444        5     0.00000   10.78934   17.55369   11.02306
      89      444        5     0.00000   13.53834   19.22834    8.84040
      90      444        5     0.00000   18.55600   16.24387   12.87542
      91      444        5     0.00000   17.14360   20.00003   11.02306
      92      444        5     0.00000   13.26027   14.81728    8.84040
      93      444        5     0.00000   17.21940   16.78200    8.84040
      94      444        5     0.00000   13.33607   20.65494   12.87542
      95      444        5     0.00000   12.20174   17.05932   15.18186
      96      444        5     0.00000   16.00927   19.02404   15.18186
      97      444        5     0.00000   12.12594   13.92881   12.87542
      98      444        5     0.00000   16.08507   13.27390   11.02306
      99      444        6     0.00000   22.00900   12.70690    1.81205
     100      444        6     0.00000   27.86581   16.08833   11.37617
     101      444        6     0.00000   16.15220   16.08833   11.37617
     102      444        6     0.00000   22.00901    5.94405   11.37617
     103      444        4     0.00000   13.65817   10.62947   12.10727
     104      444        2     0.00000   13.82772    9.61502   12.16258
     105      444        4     0.00000    8.17138   10.65232   11.66840
     106      444        2     0.00000    8.00261   11.66631   11.60325
     107      444        4     0.00000   18.26038   16.26999    3.76198
     108      444        2     0.00000   17.62954   17.01811    4.08332
     109      444        4     0.00000   18.63192   13.29384    8.37745
     110      444        2     0.00000   19.27053   12.55112    8.05896
     111      444        4     0.00000   15.85291   22.19570    8.37745
     112      444        2     0.00000   16.17682   23.12012    8.05896
     113      444        4     0.00000   13.46126   11.91459   15.74217
     114      444        2     0.00000   13.12879   10.99421   16.06351
     115      444        4     0.00000   12.29637   14.17176    3.76198
     116      444        2     0.00000   13.25968   14.34403    4.08332
     117      444        4     0.00000    9.53318   15.33808    8.37745
     118      444        2     0.00000    8.57066   15.15638    8.05896
     119      444        4     0.00000   20.64720   15.82019    9.74107
     120      444        2     0.00000   21.44096   15.54106    9.14699
     121      444        4     0.00000    8.69814   17.82168   14.08550
     122      444        2     0.00000    7.90438   18.09184   14.68372
     123      444        4     0.00000   19.99372    9.97091    9.74107
     124      444        2     0.00000   19.83858   10.79789    9.14699
     125      444        4     0.00000   16.89858   11.32887   14.08550
     126      444        2     0.00000   17.06149   10.50638   14.68372
     127      444        1     0.00000   22.00901   19.14853   22.52519
     128      444        1     0.00000   22.00900    6.26528   13.41536
     129      444        1     0.00000   16.43039    9.48609   22.52519
     130      444        1     0.00000   16.43039   15.92772   13.41536
     131      444        1     0.00000   27.58762    9.48609   22.52519
     132      444        1     0.00000   27.58762   15.92772   13.41536
     133      444        2     0.00000   14.67267   13.74393   13.11106
     134      444        2     0.00000   19.23893    5.83494   13.11106
     135      444        2     0.00000   10.10641    5.83494   13.11106
     136      444        2     0.00000   14.67267    8.47127   20.56773
     137      444        2     0.00000   23.07200   19.29373   30.06415
     138      444        2     0.00000   15.93730   20.17084   21.94618
     139      444        2     0.00000   20.93276   23.27938   18.00986
     140      444        2     0.00000   28.08071   21.96109   25.83211
     141      444        2     0.00000   19.46280   12.71669   24.07460
     142      444        2     0.00000   20.72743   19.19551   18.00986
     143      444        2     0.00000   24.36683   21.05963   18.00986
     144      444        2     0.00000   25.63146   13.33806   25.83211
     145      444        2     0.00000   27.18187   16.96418   18.08397
     146      444        2     0.00000   15.77315   18.80534   18.08397
     147      444        2     0.00000   17.03778   17.03732   23.68204
     148      444        2     0.00000   25.91723   16.42359   21.94618
     149      444        3     0.00000   18.94183   16.07619   23.88594
     150      444        3     0.00000   19.12414   22.84375   28.89462
     151      444        3     0.00000   24.89387   26.38542   23.88594
     152      444        3     0.00000   25.07618   19.40734   19.17498
     153      444        3     0.00000   22.00900   24.71985   19.17498
     154      444        3     0.00000   24.89387   22.84375   28.89462
     155      444        3     0.00000   27.96105   21.07292   23.88594
     156      444        3     0.00000   19.12414   26.38542   23.88594
     157      444        3     0.00000   16.05696   21.07292   23.88594
     158      444        3     0.00000   18.94183   19.40734   19.17498
     159      444        3     0.00000   22.00901   17.84702   28.89462
     160      444        3     0.00000   25.07618   16.07619   23.88594
     161      444        3     0.00000   19.63818   14.87276   23.98781
     162      444        3     0.00000   25.68250   19.76442   16.87920
     163      444        3     0.00000   16.86262   14.88111   23.76595
     164      444        3     0.00000   25.86847   18.26097   19.21546
     165      444        3     0.00000   22.60565   25.97917   19.21546
     166      444        3     0.00000   18.94791   18.70371   16.87920
     167      444        3     0.00000   28.65506   20.55875   22.79164
     168      444        3     0.00000   26.55875   14.53664   22.79164
     169      444        3     0.00000   15.36295   21.57055   24.98786
     170      444        3     0.00000   17.55290   19.29438   19.21546
     171      444        3     0.00000   21.39661   16.59512   28.85939
     172      444        3     0.00000   24.99222   15.22633   24.98786
     173      444        3     0.00000   22.60565   18.30497   30.06843
     174      444        3     0.00000   15.36295   20.55875   22.79164
     175      444        3     0.00000   21.39661   24.26933   18.00642
     176      444        3     0.00000   28.65506   21.57055   24.98786
     177      444        3     0.00000   18.94791   13.67717   23.98781
     178      444        3     0.00000   19.63818   19.10224   18.00642
     179      444        3     0.00000   24.99222   20.16295   18.00642
     180      444        3     0.00000   25.68250   14.03074   24.98786
     181      444        3     0.00000   26.55875   17.86244   18.08825
     182      444        3     0.00000   16.86262   18.89585   18.08825
     183      444        3     0.00000   17.55290   16.07670   23.76595
     184      444        3     0.00000   25.86847   15.73223   22.79164
     185      444        3     0.00000   24.30429   19.85299   20.35769
     186      444        3     0.00000   24.18549   25.08513   23.91187
     187      444        3     0.00000   19.83252   22.43477   27.66005
     188      444        3     0.00000   19.71372   17.33980   23.91187
     189      444        3     0.00000   26.48077   21.10959   23.91187
     190      444        3     0.00000   24.30429   17.33980   23.91187
     191      444        3     0.00000   22.00900   23.82854   20.35769
     192      444        3     0.00000   19.71372   19.85299   20.35769
     193      444        3     0.00000   22.00901   18.66499   27.66005
     194      444        3     0.00000   19.83252   25.08513   23.91187
     195      444        3     0.00000   17.53724   21.10959   23.91187
     196      444        3     0.00000   24.18549   22.43477   27.66005
     197      444        4     0.00000   14.67267    8.47127   21.54128
     198      444        4     0.00000    9.31151    5.37600   12.78655
     199      444        4     0.00000   20.03383    5.37600   12.78655
     200      444        4     0.00000   14.67267   14.66180   12.78655
     201      444        5     0.00000   20.59661   17.50954   23.00324
     202      444        5     0.00000   20.67241   23.25968   27.16204
     203      444        5     0.00000   23.34560   24.89057   24.85561
     204      444        5     0.00000   23.42140   19.05291   20.82059
     205      444        5     0.00000   23.14334   23.46398   20.82059
     206      444        5     0.00000   24.47994   21.29495   27.16204
     207      444        5     0.00000   25.89234   21.78932   23.00324
     208      444        5     0.00000   19.53807   24.23567   23.00324
     209      444        5     0.00000   18.12567   20.47950   24.85561
     210      444        5     0.00000   19.46227   21.01764   20.82059
     211      444        5     0.00000   20.87467   18.97989   27.16204
     212      444        5     0.00000   24.55574   18.16445   24.85561
     213      444        5     0.00000   23.14334   18.97989   27.16204
     214      444        5     0.00000   18.12567   21.78932   23.00324
     215      444        5     0.00000   20.87467   23.46398   20.82059
     216      444        5     0.00000   25.89234   20.47950   24.85561
     217      444        5     0.00000   24.47994   24.23567   23.00324
     218      444        5     0.00000   20.59661   19.05291   20.82059
     219      444        5     0.00000   24.55574   21.01764   20.82059
     220      444        5     0.00000   20.67241   24.89057   24.85561
     221      444        5     0.00000   19.53807   21.29495   27.16204
     222      444        5     0.00000   23.34560   23.25968   27.16204
     223      444        5     0.00000   19.46227   18.16445   24.85561
     224      444        5     0.00000   23.42140   17.50954   23.00324
     225      444        6     0.00000   29.34534   16.94254   13.79223
     226      444        6     0.00000   35.20214   20.32397   23.35635
     227      444        6     0.00000   23.48854   20.32397   23.35635
     228      444        6     0.00000   29.34534   10.17969   23.35635
     229      444        4     0.00000   20.99451   14.86510   24.08746
     230      444        2     0.00000   21.16406   13.85066   24.14276
     231      444        4     0.00000   15.50771   14.88795   23.64858
     232      444        2     0.00000   15.33895   15.90194   23.58344
     233      444        4     0.00000   25.59672   20.50563   15.74217
     234      444        2     0.00000   24.96587   21.25374   16.06351
     235      444        4     0.00000   25.96825   17.52948   20.35764
     236      444        2     0.00000   26.60687   16.78675   20.03915
     237      444        4     0.00000   23.18925   26.43133   20.35764
     238      444        2     0.00000   23.51315   27.35575   20.03915
     239      444        4     0.00000   20.79759   16.15023   27.72235
     240      444        2     0.00000   20.46513   15.22985   28.04369
     241      444        4     0.00000   19.63270   18.40740   15.74217
     242      444        2     0.00000   20.59601   18.57967   16.06351
     243      444        4     0.00000   16.86951   19.57371   20.35764
     244      444        2     0.00000   15.90699   19.39202   20.03915
     245      444        4     0.00000   27.98354   20.05583   21.72125
     246      444        2     0.00000   28.77730   19.77669   21.12717
     247      444        4     0.00000   16.03447   22.05731   26.06569
     248      444        2     0.00000   15.24071   22.32747   26.66390
     249      444        4     0.00000   27.33006   14.20654   21.72125
     250      444        2     0.00000   27.17491   15.03352   21.12717
     251      444        4     0.00000   24.23491   15.56451   26.06569
     252      444        2     0.00000   24.39783   14.74201   26.66390
     253      444        1     0.00000   29.34534   23.38416   34.50538
     254      444        1     0.00000   29.34534   10.50092   25.39555
     255      444        1     0.00000   23.76673   13.72173   34.50538
     256      444        1     0.00000   23.76673   20.16335   25.39555
     257      444        1     0.00000   34.92395   13.72173   34.50538
     258      444        1     0.00000   34.92395   20.16335   25.39555
     259      444        2     0.00000   22.00901   17.97957   25.09125
     260      444        2     0.00000   26.57526   10.07057   25.09125
     261      444        2     0.00000   17.44275   10.07057   25.09125
     262      444        2     0.00000   22.00901   12.70690   32.54792
     263      444        2     0.00000   30.40834   23.52937   42.04434
     264      444        2     0.00000   23.27364   24.40648   33.92636
     265      444        2     0.00000   28.26909   27.51502   29.99005
     266      444        2     0.00000   35.41704   26.19673   37.81229
     267      444        2     0.00000   26.79913   16.95232   36.05479
     268      444        2     0.00000   28.06376   23.43115   29.99005
     269      444        2     0.00000   31.70316   25.29526   29.99005
     270      444        2     0.00000   32.96780   17.57369   37.81229
     271      444        2     0.00000   34.51820   21.19981   30.06415
     272      444        2     0.00000   23.10948   23.04098   30.06415
     273      444        2     0.00000   24.37411   21.27295   35.66223
     274      444        2     0.00000   33.25357   20.65923   33.92636
     275      444        3     0.00000   26.27816   20.31182   35.86612
     276      444        3     0.00000   26.46048   27.07939   40.87481
     277      444        3     0.00000   32.23020   30.62106   35.86612
     278      444        3     0.00000   32.41252   23.64297   31.15516
     279      444        3     0.00000   29.34534   28.95548   31.15516
     280      444        3     0.00000   32.23020   27.07939   40.87481
     281      444        3     0.00000   35.29738   25.30855   35.86612
     282      444        3     0.00000   26.46048   30.62106   35.86612
     283      444        3     0.00000   23.39330   25.30855   35.86612
     284      444        3     0.00000   26.27816   23.64297   31.15516
     285      444        3     0.00000   29.34534   22.08266   40.87481
     286      444        3     0.00000   32.41252   20.31182   35.86612
     287      444        3     0.00000   26.97452   19.10840   35.96800
     288      444        3     0.00000   33.01884   24.00005   28.85939
     289      444        3     0.00000   24.19896   19.11674   35.74613
     290      444        3     0.00000   33.20481   22.49660   31.19565
     291      444        3     0.00000   29.94198   30.21481   31.19565
     292      444        3     0.00000   26.28424   22.93935   28.85939
     293      444        3     0.00000   35.99140   24.79439   34.77182
     294      444        3     0.00000   33.89508   18.77227   34.77182
     295      444        3     0.00000   22.69928   25.80619   36.96804
     296      444        3     0.00000   24.88923   23.53002   31.19565
     297      444        3     0.00000   28.73294   20.83076   40.83957
     298      444        3     0.00000   32.32856   19.46197   36.96804
     299      444        3     0.00000   29.94198   22.54060   42.04862
     300      444        3     0.00000   22.69928   24.79439   34.77182
     301      444        3     0.00000   28.73294   28.50497   29.98661
     302      444        3     0.00000   35.99140   25.80619   36.96804
     303      444        3     0.00000   26.28424   17.91280   35.96800
     304      444        3     0.00000   26.97452   23.33788   29.98661
     305      444        3     0.00000   32.32856   24.39859   29.98661
     306      444        3     0.00000   33.01884   18.26637   36.96804
     307      444        3     0.00000   33.89508   22.09807   30.06843
     308      444        3     0.00000   24.19896   23.13149   30.06843
     309      444        3     0.00000   24.88923   20.31234   35.74613
     310      444        3     0.00000   33.20481   19.96787   34.77182
     311      444        3     0.00000   31.64062   24.08863   32.33787
     312      444        3     0.00000   31.52183   29.32077   35.89206
     313      444        3     0.00000   27.16885   26.67040   39.64023
     314      444        3     0.00000   27.05006   21.57544   35.89206
     315      444        3     0.00000   33.81711   25.34522   35.89206
     316      444        3     0.00000   31.64062   21.57544   35.89206
     317      444        3     0.00000   29.34534   28.06417   32.33787
     318      444        3     0.00000   27.05006   24.08863   32.33787
     319      444        3     0.00000   29.34534   22.90062   39.64023
     320      444        3     0.00000   27.16885   29.32077   35.89206
     321      444        3     0.00000   24.87357   25.34522   35.89206
     322      444        3     0.00000   31.52183   26.67040   39.64023
     323      444        4     0.00000   22.00901   12.70691   33.52147
     324      444        4     0.00000   16.64785    9.61164   24.76673
     325      444        4     0.00000   27.37016    9.61164   24.76673
     326      444        4     0.00000   22.00901   18.89744   24.76673
     327      444        5     0.00000   27.93294   21.74517   34.98343
     328      444        5     0.00000   28.00874   27.49531   39.14223
     329      444        5     0.00000   30.68194   29.12621   36.83579
     330      444        5     0.00000   30.75774   23.28855   32.80077
     331      444        5     0.00000   30.47967   27.69961   32.80077
     332      444        5     0.00000   31.81627   25.53059   39.14223
     333      444        5     0.00000   33.22867   26.02496   34.98343
     334      444        5     0.00000   26.87441   28.47130   34.98343
     335      444        5     0.00000   25.46201   24.71514   36.83579
     336      444        5     0.00000   26.79861   25.25327   32.80077
     337      444        5     0.00000   28.21101   23.21553   39.14223
     338      444        5     0.00000   31.89207   22.40008   36.83579
     339      444        5     0.00000   30.47967   23.21553   39.14223
     340      444        5     0.00000   25.46201   26.02496   34.98343
     341      444        5     0.00000   28.21101   27.69961   32.80077
     342      444        5     0.00000   33.22867   24.71514   36.83579
     343      444        5     0.00000   31.81627   28.47130   34.98343
     344      444        5     0.00000   27.93294   23.28855   32.80077
     345      444        5     0.00000   31.89207   25.25327   32.80077
     346      444        5     0.00000   28.00874   29.12621   36.83579
     347      444        5     0.00000   26.87441   25.53059   39.14223
     348      444        5     0.00000   30.68194   27.49531   39.14223
     349      444        5     0.00000   26.79861   22.40008   36.83579
     350      444        5     0.00000   30.75774   21.74517   34.98343
     351      444        6     0.00000   36.68167   21.17817   25.77242
     352      444        6     0.00000   42.53848   24.55960   35.33654
     353      444        6     0.00000   30.82487   24.55960   35.33654
     354      444        6     0.00000   36.68168   14.41532   35.33654
     355      444        4     0.00000   28.33084   19.10074   36.06764
     356      444        2     0.00000   28.50039   18.08629   36.12295
     357      444        4     0.00000   22.84405   19.12359   35.62877
     358      444        2     0.00000   22.67528   20.13758   35.56362
     359      444        4     0.00000   32.93305   24.74126   27.72235
     360      444        2     0.00000   32.30221   25.48938   28.04369
     361      444        4     0.00000   33.30459   21.76511   32.33782
     362      444        2     0.00000   33.94320   21.02239   32.01933
     363      444        4     0.00000   30.52558   30.66697   32.33782
     364      444        2     0.00000   30.84949   31.59139   32.01933
     365      444        4     0.00000   28.13393   20.38586   39.70254
     366      444        2     0.00000   27.80146   19.46548   40.02388
     367      444        4     0.00000   26.96904   22.64303   27.72235
     368      444        2     0.00000   27.93235   22.81530   28.04369
     369      444        4     0.00000   24.20585   23.80935   32.33782
     370      444        2     0.00000   23.24333   23.62765   32.01933
     371      444        4     0.00000   35.31987   24.29146   33.70144
     372      444        2     0.00000   36.11363   24.01233   33.10736
     373      444        4     0.00000   23.37081   26.29295   38.04587
     374      444        2     0.00000   22.57705   26.56311   38.64409
     375      444        4     0.00000   34.66639   18.44218   33.70144
     376      444        2     0.00000   34.51125   19.26916   33.10736
     377      444        4     0.00000   31.57125   19.80014   38.04587
     378      444        2     0.00000   31.73416   18.97765   38.64409
     379      444        1     0.00000   22.00901   27.61980   10.54501
     380      444        1     0.00000   22.00900   14.73655    1.43518
     381      444        1     0.00000   16.43039   17.95736   10.54501
     382      444        1     0.00000   16.43039   24.39899    1.43518
     383      444        1     0.00000   27.58762   17.95736   10.54501
     384      444        1     0.00000   27.58762   24.39899    1.43518
     385      444        2     0.00000   14.67267   22.21520    1.13088
     386      444        2     0.00000   19.23893   14.30621    1.13088
     387      444        2     0.00000   10.10641   14.30621    1.13088
     388      444        2     0.00000   14.67267   16.94254    8.58755
     389      444        2     0.00000   23.07200   27.76500   18.08397
     390      444        2     0.00000   15.93730   28.64211    9.96599
     391      444        2     0.00000   20.93276   31.75065    6.02968
     392      444        2     0.00000   28.08071   30.43236   13.85192
     393      444        2     0.00000   19.46280   21.18796   12.09442
     394      444        2     0.00000   20.72743   27.66678    6.02968
     395      444        2     0.00000   24.36683   29.53090    6.02968
     396      444        2     0.00000   25.63146   21.80933   13.85192
     397      444        2     0.00000   27.18187   25.43545    6.10378
     398      444        2     0.00000   15.77315   27.27661    6.10378
     399      444        2     0.00000   17.03778   25.50859   11.70186
     400      444        2     0.00000   25.91723   24.89486    9.96599
     401      444        3     0.00000   18.94183   24.54746   11.90575
     402      444        3     0.00000   19.12414   31.31502   16.91444
     403      444        3     0.00000   24.89387   34.85669   11.90575
     404      444        3     0.00000   25.07618   27.87861    7.19479
     405      444        3     0.00000   22.00900   33.19112    7.19479
     406      444        3     0.00000   24.89387   31.31502   16.91444
     407      444        3     0.00000   27.96105   29.54418   11.90575
     408      444        3     0.00000   19.12414   34.85669   11.90575
     409      444        3     0.00000   16.05696   29.54418   11.90575
     410      444        3     0.00000   18.94183   27.87861    7.19479
     411      444        3     0.00000   22.00901   26.31829   16.91444