Created on Wed Jul 27 11:38:35 2022

3078 atoms
7 atom types

0.000000  44.018010 xlo xhi
0.000000  38.120715 ylo yhi
0.000000  35.940555 zlo zhi
22.009005  22.009005  12.706905 xy xz yz

Masses

    1    91.224000000 # Zr3+4
    2     1.007940000 # H_
    3    12.010700000 # C_R
    4    15.999400000 # O_3
    5    15.999400000 # O_R
    6    15.999400000 # O_2
    7    16.04        # CH4

Atoms

       1      444        1     0.00000   14.67267   14.91289   10.54501
       2      444        1     0.00000   14.67267    2.02965    1.43518
       3      444        1     0.00000    9.09406    5.25046   10.54501
       4      444        1     0.00000    9.09406   11.69208    1.43518
       5      444        1     0.00000   20.25128    5.25046   10.54501
       6      444        1     0.00000   20.25128   11.69208    1.43518
       7      444        2     0.00000    7.33634    9.50830    1.13088
       8      444        2     0.00000   11.90259    1.59930    1.13088
       9      444        2     0.00000    2.77008    1.59930    1.13088
      10      444        2     0.00000    7.33634    4.23563    8.58755
      11      444        2     0.00000    9.72842   12.78611   11.78775
      12      444        2     0.00000   19.76641   12.71401    6.06047
      13      444        2     0.00000   12.15344    8.46548   12.18031
      14      444        2     0.00000   16.95137   16.80946    5.98636
      15      444        2     0.00000   13.64857   18.98249    5.98636
      16      444        2     0.00000    8.46379   14.64550    6.06047
      17      444        2     0.00000   20.74437   14.73891   11.78775
      18      444        2     0.00000   20.88155   10.59570   11.78775
      19      444        2     0.00000    8.60097   18.99935   12.18031
      20      444        2     0.00000   13.41807   15.03567    5.98636
      21      444        2     0.00000   15.78782   14.99684   18.04065
      22      444        2     0.00000   15.92727   10.65589   12.18031
      23      444        2     0.00000   13.64857   11.97149   15.90141
      24      444        2     0.00000    8.60097   14.73891   11.78775
      25      444        2     0.00000   15.78782   22.00784    8.12561
      26      444        2     0.00000   20.74437   18.99935   12.18031
      27      444        2     0.00000    8.46379   10.59570   11.78775
      28      444        2     0.00000    9.72842   15.37563    8.12561
      29      444        2     0.00000   18.50178   13.44415    8.12561
      30      444        2     0.00000   17.19190    8.46548   12.18031
      31      444        2     0.00000   18.21600   16.07932    3.92123
      32      444        2     0.00000   12.15344   14.30553    3.92123
      33      444        2     0.00000   13.41807   10.65589   12.18031
      34      444        2     0.00000   19.61692   12.78611   11.78775
      35      444        3     0.00000   11.60549   11.84055   11.90575
      36      444        3     0.00000   11.78781   18.60812   16.91444
      37      444        3     0.00000   17.55753   22.14979   11.90575
      38      444        3     0.00000   17.73985   15.17170    7.19479
      39      444        3     0.00000   14.67267   20.48421    7.19479
      40      444        3     0.00000   17.55753   18.60812   16.91444
      41      444        3     0.00000   20.62471   16.83728   11.90575
      42      444        3     0.00000   11.78781   22.14979   11.90575
      43      444        3     0.00000    8.72063   16.83728   11.90575
      44      444        3     0.00000   11.60549   15.17170    7.19479
      45      444        3     0.00000   14.67267   13.61139   16.91444
      46      444        3     0.00000   17.73985   11.84055   11.90575
      47      444        3     0.00000   10.24331   11.82563   11.87454
      48      444        3     0.00000   19.14101   13.61069    6.06391
      49      444        3     0.00000   11.63832    9.42609   12.09641
      50      444        3     0.00000   17.57449   15.91120    5.98209
      51      444        3     0.00000   14.11493   19.97126    5.98209
      52      444        3     0.00000    9.55303   14.73877    6.06391
      53      444        3     0.00000   21.31873   15.66506   11.87454
      54      444        3     0.00000   19.79231   10.63003   11.87454
      55      444        3     0.00000    8.02661   18.07294   12.09641
      56      444        3     0.00000   12.32860   14.94516    5.98209
      57      444        3     0.00000   15.32397   14.00689   18.04409
      58      444        3     0.00000   17.01674   10.62168   12.09641
      59      444        3     0.00000   14.11493   12.29705   16.83505
      60      444        3     0.00000    8.02661   15.66506   11.87454
      61      444        3     0.00000   15.32397   21.68110    7.19113
      62      444        3     0.00000   21.31873   18.07294   12.09641
      63      444        3     0.00000    9.55303   10.63003   11.87454
      64      444        3     0.00000   10.24331   15.13730    7.19113
      65      444        3     0.00000   18.45073   14.00922    7.19113
      66      444        3     0.00000   17.70702    9.42609   12.09641
      67      444        3     0.00000   18.26476   15.51267    4.85487
      68      444        3     0.00000   11.63832   14.54663    4.85487
      69      444        3     0.00000   12.32860   10.62168   12.09641
      70      444        3     0.00000   19.10203   11.82563   11.87454
      71      444        3     0.00000   16.96795   15.61736    8.37750
      72      444        3     0.00000   16.84916   20.84950   11.93169
      73      444        3     0.00000   12.49618   18.19913   15.67986
      74      444        3     0.00000   12.37739   13.10417   11.93169
      75      444        3     0.00000   19.14444   16.87395   11.93169
      76      444        3     0.00000   16.96795   13.10417   11.93169
      77      444        3     0.00000   14.67267   19.59290    8.37750
      78      444        3     0.00000   12.37739   15.61736    8.37750
      79      444        3     0.00000   14.67267   14.42935   15.67986
      80      444        3     0.00000   12.49618   20.84950   11.93169
      81      444        3     0.00000   10.20090   16.87395   11.93169
      82      444        3     0.00000   16.84916   18.19913   15.67986
      83      444        4     0.00000    7.33634    4.23564    9.56110
      84      444        4     0.00000    1.97518    1.14037    0.80636
      85      444        4     0.00000   12.69749    1.14037    0.80636
      86      444        4     0.00000    7.33634   10.42617    0.80636
      87      444        5     0.00000   13.26027   13.27390   11.02306
      88      444        5     0.00000   13.33607   19.02404   15.18186
      89      444        5     0.00000   16.00927   20.65494   12.87542
      90      444        5     0.00000   16.08507   14.81728    8.84040
      91      444        5     0.00000   15.80700   19.22834    8.84040
      92      444        5     0.00000   17.14360   17.05932   15.18186
      93      444        5     0.00000   18.55600   17.55369   11.02306
      94      444        5     0.00000   12.20174   20.00003   11.02306
      95      444        5     0.00000   10.78934   16.24387   12.87542
      96      444        5     0.00000   12.12594   16.78200    8.84040
      97      444        5     0.00000   13.53834   14.74426   15.18186
      98      444        5     0.00000   17.21940   13.92881   12.87542
      99      444        5     0.00000   15.80700   14.74426   15.18186
     100      444        5     0.00000   10.78934   17.55369   11.02306
     101      444        5     0.00000   13.53834   19.22834    8.84040
     102      444        5     0.00000   18.55600   16.24387   12.87542
     103      444        5     0.00000   17.14360   20.00003   11.02306
     104      444        5     0.00000   13.26027   14.81728    8.84040
     105      444        5     0.00000   17.21940   16.78200    8.84040
     106      444        5     0.00000   13.33607   20.65494   12.87542
     107      444        5     0.00000   12.20174   17.05932   15.18186
     108      444        5     0.00000   16.00927   19.02404   15.18186
     109      444        5     0.00000   12.12594   13.92881   12.87542
     110      444        5     0.00000   16.08507   13.27390   11.02306
     111      444        6     0.00000   22.00901   12.70690    1.81205
     112      444        6     0.00000   27.86581   16.08833   11.37617
     113      444        6     0.00000   16.15220   16.08833   11.37617
     114      444        6     0.00000   22.00901    5.94405   11.37617
     115      444        1     0.00000   22.00901   19.14853   22.52519
     116      444        1     0.00000   22.00901    6.26528   13.41536
     117      444        1     0.00000   16.43039    9.48609   22.52519
     118      444        1     0.00000   16.43039   15.92772   13.41536
     119      444        1     0.00000   27.58762    9.48609   22.52519
     120      444        1     0.00000   27.58762   15.92772   13.41536
     121      444        2     0.00000   14.67267   13.74393   13.11106
     122      444        2     0.00000   19.23893    5.83494   13.11106
     123      444        2     0.00000   10.10641    5.83494   13.11106
     124      444        2     0.00000   14.67267    8.47127   20.56773
     125      444        2     0.00000   17.06475   17.02174   23.76794
     126      444        2     0.00000   27.10274   16.94965   18.04065
     127      444        2     0.00000   19.48977   12.70111   24.16050
     128      444        2     0.00000   24.28770   21.04509   17.96655
     129      444        2     0.00000   20.98491   23.21813   17.96655
     130      444        2     0.00000   15.80012   18.88113   18.04065
     131      444        2     0.00000   28.08071   18.97455   23.76794
     132      444        2     0.00000   28.21789   14.83133   23.76794
     133      444        2     0.00000   15.93730   23.23499   24.16050
     134      444        2     0.00000   20.75440   19.27130   17.96655
     135      444        2     0.00000   23.12415   19.23248   30.02084
     136      444        2     0.00000   23.26361   14.89152   24.16050
     137      444        2     0.00000   20.98491   16.20713   27.88160
     138      444        2     0.00000   15.93730   18.97455   23.76794
     139      444        2     0.00000   23.12415   26.24347   20.10579
     140      444        2     0.00000   28.08071   23.23499   24.16050
     141      444        2     0.00000   15.80012   14.83133   23.76794
     142      444        2     0.00000   17.06475   19.61127   20.10579
     143      444        2     0.00000   25.83811   17.67978   20.10579
     144      444        2     0.00000   24.52824   12.70111   24.16050
     145      444        2     0.00000   25.55234   20.31496   15.90141
     146      444        2     0.00000   19.48977   18.54117   15.90141
     147      444        2     0.00000   20.75440   14.89152   24.16050
     148      444        2     0.00000   26.95326   17.02174   23.76794
     149      444        3     0.00000   18.94183   16.07619   23.88594
     150      444        3     0.00000   19.12414   22.84375   28.89462
     151      444        3     0.00000   24.89387   26.38542   23.88594
     152      444        3     0.00000   25.07618   19.40734   19.17498
     153      444        3     0.00000   22.00901   24.71985   19.17498
     154      444        3     0.00000   24.89387   22.84375   28.89462
     155      444        3     0.00000   27.96105   21.07292   23.88594
     156      444        3     0.00000   19.12414   26.38542   23.88594
     157      444        3     0.00000   16.05696   21.07292   23.88594
     158      444        3     0.00000   18.94183   19.40734   19.17498
     159      444        3     0.00000   22.00901   17.84702   28.89462
     160      444        3     0.00000   25.07618   16.07619   23.88594
     161      444        3     0.00000   17.57964   16.06126   23.85473
     162      444        3     0.00000   26.47735   17.84632   18.04409
     163      444        3     0.00000   18.97465   13.66173   24.07659
     164      444        3     0.00000   24.91082   20.14684   17.96227
     165      444        3     0.00000   21.45126   24.20689   17.96227
     166      444        3     0.00000   16.88937   18.97440   18.04409
     167      444        3     0.00000   28.65506   19.90069   23.85473
     168      444        3     0.00000   27.12864   14.86567   23.85473
     169      444        3     0.00000   15.36295   22.30857   24.07659
     170      444        3     0.00000   19.66493   19.18080   17.96227
     171      444        3     0.00000   22.66030   18.24253   30.02428
     172      444        3     0.00000   24.35308   14.85732   24.07659
     173      444        3     0.00000   21.45126   16.53268   28.81524
     174      444        3     0.00000   15.36295   19.90069   23.85473
     175      444        3     0.00000   22.66030   25.91673   19.17131
     176      444        3     0.00000   28.65506   22.30857   24.07659
     177      444        3     0.00000   16.88937   14.86567   23.85473
     178      444        3     0.00000   17.57964   19.37294   19.17131
     179      444        3     0.00000   25.78707   18.24485   19.17131
     180      444        3     0.00000   25.04336   13.66173   24.07659
     181      444        3     0.00000   25.60110   19.74830   16.83505
     182      444        3     0.00000   18.97465   18.78227   16.83505
     183      444        3     0.00000   19.66493   14.85732   24.07659
     184      444        3     0.00000   26.43837   16.06126   23.85473
     185      444        3     0.00000   24.30429   19.85299   20.35769
     186      444        3     0.00000   24.18549   25.08513   23.91187
     187      444        3     0.00000   19.83252   22.43477   27.66005
     188      444        3     0.00000   19.71372   17.33980   23.91187
     189      444        3     0.00000   26.48077   21.10959   23.91187
     190      444        3     0.00000   24.30429   17.33980   23.91187
     191      444        3     0.00000   22.00900   23.82854   20.35769
     192      444        3     0.00000   19.71372   19.85299   20.35769
     193      444        3     0.00000   22.00901   18.66499   27.66005
     194      444        3     0.00000   19.83252   25.08513   23.91187
     195      444        3     0.00000   17.53724   21.10959   23.91187
     196      444        3     0.00000   24.18549   22.43477   27.66005
     197      444        4     0.00000   14.67267    8.47127   21.54128
     198      444        4     0.00000    9.31151    5.37600   12.78655
     199      444        4     0.00000   20.03383    5.37600   12.78655
     200      444        4     0.00000   14.67267   14.66180   12.78655
     201      444        5     0.00000   20.59661   17.50954   23.00324
     202      444        5     0.00000   20.67241   23.25968   27.16204
     203      444        5     0.00000   23.34560   24.89057   24.85561
     204      444        5     0.00000   23.42140   19.05291   20.82059
     205      444        5     0.00000   23.14334   23.46398   20.82059
     206      444        5     0.00000   24.47994   21.29495   27.16204
     207      444        5     0.00000   25.89234   21.78932   23.00324
     208      444        5     0.00000   19.53807   24.23567   23.00324
     209      444        5     0.00000   18.12567   20.47950   24.85561
     210      444        5     0.00000   19.46227   21.01764   20.82059
     211      444        5     0.00000   20.87467   18.97989   27.16204
     212      444        5     0.00000   24.55574   18.16445   24.85561
     213      444        5     0.00000   23.14334   18.97989   27.16204
     214      444        5     0.00000   18.12567   21.78932   23.00324
     215      444        5     0.00000   20.87467   23.46398   20.82059
     216      444        5     0.00000   25.89234   20.47950   24.85561
     217      444        5     0.00000   24.47994   24.23567   23.00324
     218      444        5     0.00000   20.59661   19.05291   20.82059
     219      444        5     0.00000   24.55574   21.01764   20.82059
     220      444        5     0.00000   20.67241   24.89057   24.85561
     221      444        5     0.00000   19.53807   21.29495   27.16204
     222      444        5     0.00000   23.34560   23.25968   27.16204
     223      444        5     0.00000   19.46227   18.16445   24.85561
     224      444        5     0.00000   23.42140   17.50954   23.00324
     225      444        6     0.00000   29.34534   16.94254   13.79223
     226      444        6     0.00000   35.20214   20.32397   23.35635
     227      444        6     0.00000   23.48854   20.32397   23.35635
     228      444        6     0.00000   29.34534   10.17969   23.35635
     229      444        1     0.00000   29.34534   23.38416   34.50538
     230      444        1     0.00000   29.34534   10.50092   25.39555
     231      444        1     0.00000   23.76673   13.72173   34.50538
     232      444        1     0.00000   23.76673   20.16335   25.39555
     233      444        1     0.00000   34.92395   13.72173   34.50538
     234      444        1     0.00000   34.92395   20.16335   25.39555
     235      444        2     0.00000   22.00901   17.97957   25.09125
     236      444        2     0.00000   26.57526   10.07057   25.09125
     237      444        2     0.00000   17.44275   10.07057   25.09125
     238      444        2     0.00000   22.00901   12.70690   32.54792
     239      444        2     0.00000   24.40109   21.25738   35.74812
     240      444        2     0.00000   34.43908   21.18528   30.02084
     241      444        2     0.00000   26.82611   16.93675   36.14068
     242      444        2     0.00000   31.62404   25.28073   29.94673
     243      444        2     0.00000   28.32124   27.45376   29.94673
     244      444        2     0.00000   23.13646   23.11677   30.02084
     245      444        2     0.00000   35.41704   23.21018   35.74812
     246      444        2     0.00000   35.55422   19.06697   35.74812
     247      444        2     0.00000   23.27364   27.47062   36.14068
     248      444        2     0.00000   28.09074   23.50694   29.94673
     249      444        2     0.00000   30.46049   23.46811   42.00102
     250      444        2     0.00000   30.59994   19.12716   36.14068
     251      444        2     0.00000   28.32124   20.44276   39.86178
     252      444        2     0.00000   23.27364   23.21018   35.74812
     253      444        2     0.00000   30.46049   30.47911   32.08598
     254      444        2     0.00000   35.41704   27.47062   36.14068
     255      444        2     0.00000   23.13646   19.06697   35.74812
     256      444        2     0.00000   24.40109   23.84690   32.08598
     257      444        2     0.00000   33.17445   21.91542   32.08598
     258      444        2     0.00000   31.86457   16.93675   36.14068
     259      444        2     0.00000   32.88867   24.55059   27.88160
     260      444        2     0.00000   26.82611   22.77680   27.88160
     261      444        2     0.00000   28.09074   19.12716   36.14068
     262      444        2     0.00000   34.28959   21.25738   35.74812
     263      444        3     0.00000   26.27816   20.31182   35.86612
     264      444        3     0.00000   26.46048   27.07939   40.87481
     265      444        3     0.00000   32.23020   30.62106   35.86612
     266      444        3     0.00000   32.41252   23.64297   31.15516
     267      444        3     0.00000   29.34534   28.95548   31.15516
     268      444        3     0.00000   32.23020   27.07939   40.87481
     269      444        3     0.00000   35.29738   25.30855   35.86612
     270      444        3     0.00000   26.46048   30.62106   35.86612
     271      444        3     0.00000   23.39330   25.30855   35.86612
     272      444        3     0.00000   26.27816   23.64297   31.15516
     273      444        3     0.00000   29.34534   22.08266   40.87481
     274      444        3     0.00000   32.41252   20.31182   35.86612
     275      444        3     0.00000   24.91598   20.29690   35.83491
     276      444        3     0.00000   33.81368   22.08196   30.02428
     277      444        3     0.00000   26.31099   17.89736   36.05677
     278      444        3     0.00000   32.24716   24.38247   29.94245
     279      444        3     0.00000   28.78760   28.44253   29.94245
     280      444        3     0.00000   24.22570   23.21004   30.02428
     281      444        3     0.00000   35.99140   24.13633   35.83491
     282      444        3     0.00000   34.46498   19.10130   35.83491
     283      444        3     0.00000   22.69928   26.54421   36.05677
     284      444        3     0.00000   27.00127   23.41643   29.94245
     285      444        3     0.00000   29.99664   22.47816   42.00446
     286      444        3     0.00000   31.68941   19.09295   36.05677
     287      444        3     0.00000   28.78760   20.76832   40.79542
     288      444        3     0.00000   22.69928   24.13633   35.83491
     289      444        3     0.00000   29.99664   30.15237   31.15150
     290      444        3     0.00000   35.99140   26.54421   36.05677
     291      444        3     0.00000   24.22570   19.10130   35.83491
     292      444        3     0.00000   24.91598   23.60857   31.15150
     293      444        3     0.00000   33.12340   22.48049   31.15150
     294      444        3     0.00000   32.37969   17.89736   36.05677
     295      444        3     0.00000   32.93743   23.98394   28.81524
     296      444        3     0.00000   26.31099   23.01790   28.81524
     297      444        3     0.00000   27.00127   19.09295   36.05677
     298      444        3     0.00000   33.77470   20.29690   35.83491
     299      444        3     0.00000   31.64062   24.08863   32.33787
     300      444        3     0.00000   31.52183   29.32077   35.89206
     301      444        3     0.00000   27.16885   26.67040   39.64023
     302      444        3     0.00000   27.05006   21.57544   35.89206
     303      444        3     0.00000   33.81711   25.34522   35.89206
     304      444        3     0.00000   31.64062   21.57544   35.89206
     305      444        3     0.00000   29.34534   28.06417   32.33787
     306      444        3     0.00000   27.05006   24.08863   32.33787
     307      444        3     0.00000   29.34534   22.90062   39.64023
     308      444        3     0.00000   27.16885   29.32077   35.89206
     309      444        3     0.00000   24.87357   25.34522   35.89206
     310      444        3     0.00000   31.52183   26.67040   39.64023
     311      444        4     0.00000   22.00901   12.70691   33.52147
     312      444        4     0.00000   16.64785    9.61164   24.76673
     313      444        4     0.00000   27.37016    9.61164   24.76673
     314      444        4     0.00000   22.00901   18.89744   24.76673
     315      444        5     0.00000   27.93294   21.74517   34.98343
     316      444        5     0.00000   28.00874   27.49531   39.14223
     317      444        5     0.00000   30.68194   29.12621   36.83579
     318      444        5     0.00000   30.75774   23.28855   32.80077
     319      444        5     0.00000   30.47967   27.69961   32.80077
     320      444        5     0.00000   31.81627   25.53059   39.14223
     321      444        5     0.00000   33.22867   26.02496   34.98343
     322      444        5     0.00000   26.87441   28.47130   34.98343
     323      444        5     0.00000   25.46201   24.71514   36.83579
     324      444        5     0.00000   26.79861   25.25327   32.80077
     325      444        5     0.00000   28.21101   23.21553   39.14223
     326      444        5     0.00000   31.89207   22.40008   36.83579
     327      444        5     0.00000   30.47967   23.21553   39.14223
     328      444        5     0.00000   25.46201   26.02496   34.98343
     329      444        5     0.00000   28.21101   27.69961   32.80077
     330      444        5     0.00000   33.22867   24.71514   36.83579
     331      444        5     0.00000   31.81627   28.47130   34.98343
     332      444        5     0.00000   27.93294   23.28855   32.80077
     333      444        5     0.00000   31.89207   25.25327   32.80077
     334      444        5     0.00000   28.00874   29.12621   36.83579
     335      444        5     0.00000   26.87441   25.53059   39.14223
     336      444        5     0.00000   30.68194   27.49531   39.14223
     337      444        5     0.00000   26.79861   22.40008   36.83579
     338      444        5     0.00000   30.75774   21.74517   34.98343
     339      444        6     0.00000   36.68168   21.17817   25.77242
     340      444        6     0.00000   42.53848   24.55960   35.33654
     341      444        6     0.00000   30.82487   24.55960   35.33654
     342      444        6     0.00000   36.68168   14.41532   35.33654
     343      444        1     0.00000   22.00901   27.61980   10.54501
     344      444        1     0.00000   22.00901   14.73655    1.43518
     345      444        1     0.00000   16.43039   17.95736   10.54501
     346      444        1     0.00000   16.43039   24.39899    1.43518
     347      444        1     0.00000   27.58762   17.95736   10.54501
     348      444        1     0.00000   27.58762   24.39899    1.43518
     349      444        2     0.00000   14.67267   22.21520    1.13088
     350      444        2     0.00000   19.23893   14.30621    1.13088
     351      444        2     0.00000   10.10641   14.30621    1.13088
     352      444        2     0.00000   14.67267   16.94254    8.58755
     353      444        2     0.00000   17.06475   25.49301   11.78775
     354      444        2     0.00000   27.10274   25.42092    6.06047
     355      444        2     0.00000   19.48977   21.17238   12.18031
     356      444        2     0.00000   24.28770   29.51636    5.98636
     357      444        2     0.00000   20.98491   31.68940    5.98636
     358      444        2     0.00000   15.80012   27.35240    6.06047
     359      444        2     0.00000   28.08071   27.44582   11.78775
     360      444        2     0.00000   28.21789   23.30260   11.78775
     361      444        2     0.00000   15.93730   31.70626   12.18031
     362      444        2     0.00000   20.75440   27.74257    5.98636
     363      444        2     0.00000   23.12415   27.70375   18.04065
     364      444        2     0.00000   23.26361   23.36279   12.18031
     365      444        2     0.00000   20.98491   24.67840   15.90141
     366      444        2     0.00000   15.93730   27.44582   11.78775
     367      444        2     0.00000   23.12415   34.71474    8.12561
     368      444        2     0.00000   28.08071   31.70626   12.18031
     369      444        2     0.00000   15.80012   23.30260   11.78775
     370      444        2     0.00000   17.06475   28.08254    8.12561
     371      444        2     0.00000   25.83811   26.15105    8.12561
     372      444        2     0.00000   24.52824   21.17238   12.18031
     373      444        2     0.00000   25.55234   28.78623    3.92123
     374      444        2     0.00000   19.48977   27.01244    3.92123
     375      444        2     0.00000   20.75440   23.36279   12.18031
     376      444        2     0.00000   26.95326   25.49301   11.78775
     377      444        3     0.00000   18.94183   24.54746   11.90575
     378      444        3     0.00000   19.12414   31.31502   16.91444
     379      444        3     0.00000   24.89387   34.85669   11.90575
     380      444        3     0.00000   25.07618   27.87861    7.19479
     381      444        3     0.00000   22.00901   33.19112    7.19479
     382      444        3     0.00000   24.89387   31.31502   16.91444
     383      444        3     0.00000   27.96105   29.54418   11.90575
     384      444        3     0.00000   19.12414   34.85669   11.90575
     385      444        3     0.00000   16.05696   29.54418   11.90575
     386      444        3     0.00000   18.94183   27.87861    7.19479
     387      444        3     0.00000   22.00901   26.31829   16.91444
     388      444        3     0.00000   25.07618   24.54746   11.90575
     389      444        3     0.00000   17.57964   24.53253   11.87454
     390      444        3     0.00000   26.47735   26.31759    6.06391
     391      444        3     0.00000   18.97465   22.13300   12.09641
     392      444        3     0.00000   24.91082   28.61811    5.98209
     393      444        3     0.00000   21.45126   32.67816    5.98209
     394      444        3     0.00000   16.88937   27.44567    6.06391
     395      444        3     0.00000   28.65506   28.37196   11.87454
     396      444        3     0.00000   27.12864   23.33694   11.87454
     397      444        3     0.00000   15.36295   30.77984   12.09641
     398      444        3     0.00000   19.66493   27.65207    5.98209
     399      444        3     0.00000   22.66030   26.71380   18.04409
     400      444        3     0.00000   24.35308   23.32859   12.09641
     401      444        3     0.00000   21.45126   25.00395   16.83505
     402      444        3     0.00000   15.36295   28.37196   11.87454
     403      444        3     0.00000   22.66030   34.38800    7.19113
     404      444        3     0.00000   28.65506   30.77984   12.09641
     405      444        3     0.00000   16.88937   23.33694   11.87454
     406      444        3     0.00000   17.57964   27.84421    7.19113
     407      444        3     0.00000   25.78707   26.71612    7.19113
     408      444        3     0.00000   25.04336   22.13300   12.09641
     409      444        3     0.00000   25.60110   28.21957    4.85487
     410      444        3     0.00000   18.97465   27.25354    4.85487
     411      444        3     0.00000   19.66493   23.32859   12.09641