LAMMPS data file via write_data, version 15 May 2015, timestep = 2000000

4560 atoms
7 atom types
5040 bonds
3 bond types
7200 angles
2 angle types
10560 dihedrals
3 dihedral types
2400 impropers
1 improper types

-1.0763502675555259e-01 4.1387635026745990e+01 xlo xhi
-4.0433884491974936e-02 3.5938433884472119e+01 ylo yhi
-3.5711112484589691e-01 2.9555111124838550e+01 zlo zhi
-6.7234083837551181e-02 -1.7036217651000683e+01 -4.1707816797290791e-02 xy xz yz

Masses

1 12.0107
2 1.008
3 12.0107
4 12.0107
5 12.0107
6 12.0107
7 12.0107

Pair Coeffs # lj/cut/coul/cut

1 0 0
2 0 0
3 0 0
4 0 0
5 0 0
6 0 0
7 0 0

Bond Coeffs # harmonic

1 469 1.4
2 367 1.08
3 469 0.7

Angle Coeffs # harmonic

1 35 120
2 63 120

Dihedral Coeffs # opls

1 0 7.25 0 0
2 0 7.25 0 0
3 0 7.25 0 0

Improper Coeffs # cvff

1 2.5 -1 2

Atoms # full

219 13 3 0.0000000000000000e+00 -2.7955563067165157e-01 3.1047825165584766e+00 3.1920715581273860e+00 1 0 0
220 13 4 0.0000000000000000e+00 2.7346686919615237e-01 4.1190012859912501e+00 2.4123435705096403e+00 1 0 0
224 13 2 0.0000000000000000e+00 4.5590301420180479e-01 5.0846584506782229e+00 2.7970140753036299e+00 1 0 0
580 33 4 0.0000000000000000e+00 2.6685036146646635e+00 6.7488321952085970e+00 4.0038402097131973e+00 1 0 0
228 13 3 0.0000000000000000e+00 -5.9411959594577279e-01 1.8434404674058116e+00 2.5667513913281503e+00 1 0 0
989 53 4 0.0000000000000000e+00 -1.3392097304093791e+00 7.0410999050385943e+00 3.5193142822468761e+00 1 0 0
600 34 2 0.0000000000000000e+00 2.6013993240716804e-01 5.9274852364422035e+00 7.0145679596804937e+00 1 0 0
245 14 4 0.0000000000000000e+00 -4.9156132040541669e+00 1.4424053888800030e+00 9.0333433810076578e+00 1 0 0
227 13 4 0.0000000000000000e+00 -1.7113895361286746e-01 1.5844002842246232e+00 1.2392013181306065e+00 1 0 0
4390 233 1 0.0000000000000000e+00 2.4165770845683792e+00 7.2337875228366311e-01 5.5467679751277030e+00 1 1 0
733 13 6 0.0000000000000000e+00 -4.4789684383983208e-01 2.4554334088847365e+00 2.9473256804304961e+00 1 0 0
2131 114 2 0.0000000000000000e+00 1.0344785005500166e+00 1.4602818585672793e+01 9.8169086538986541e+00 1 0 0
230 13 1 0.0000000000000000e+00 6.5491293717344479e-01 3.8827184163668171e+00 1.1092101132708585e+00 1 0 0
217 13 7 0.0000000000000000e+00 -1.2365061621485471e+00 2.3710735118057196e+00 5.2567718806625763e+00 1 0 0
218 13 5 0.0000000000000000e+00 -5.7009935015126700e-01 3.3543146251497236e+00 4.5403671704529494e+00 1 0 0
221 13 1 0.0000000000000000e+00 -1.5389194350975837e+00 1.1377506977028247e+00 4.6730192032921503e+00 1 0 0
222 13 2 0.0000000000000000e+00 -1.5624820539680107e+00 2.5758857637369124e+00 6.2886549303788550e+00 1 0 0
223 13 2 0.0000000000000000e+00 -4.1193934009405053e-01 4.3114270043332485e+00 4.9942371470712548e+00 1 0 0
248 14 1 0.0000000000000000e+00 -3.6560767074492979e+00 3.4684983728291510e+00 8.6572104396247020e+00 1 0 0
4380 233 4 0.0000000000000000e+00 2.5625478479158521e+00 1.1166295439991767e+00 4.1680407605015413e+00 1 1 0
244 14 1 0.0000000000000000e+00 -4.2257818019405269e+00 2.2638023055912928e+00 8.1656838464068731e+00 1 0 0
603 34 2 0.0000000000000000e+00 1.1565693618471569e+00 3.7621685007374368e+00 7.6131556348575398e+00 1 0 0
4396 234 5 0.0000000000000000e+00 -7.8359917081254249e-01 1.9503261800239055e-01 9.2187457571360358e+00 1 1 0
4394 233 2 0.0000000000000000e+00 1.8648484062716935e+00 1.2890566832407864e+00 6.2512963719444468e+00 1 1 0
579 33 3 0.0000000000000000e+00 3.2871161335646439e+00 5.8218363927991579e+00 3.1913696200186510e+00 1 0 0
252 14 2 0.0000000000000000e+00 -3.1454565670398233e+00 4.1322764227196380e+00 7.9835817438455869e+00 1 0 0
581 33 1 0.0000000000000000e+00 4.6048672192534852e+00 4.0072065964695458e+00 1.5306833630597141e+00 1 0 0
596 34 5 0.0000000000000000e+00 -5.6633601589838456e-01 6.3065615492794631e+00 8.8788358382003612e+00 1 0 0
577 33 7 0.0000000000000000e+00 4.0481179312152138e+00 5.1962854610009073e+00 9.7773257417867354e-01 1 0 0
588 33 3 0.0000000000000000e+00 3.8560748363008455e+00 4.6833816581141114e+00 3.7574026890118208e+00 1 0 0
589 33 4 0.0000000000000000e+00 4.5408462441750164e+00 3.7686444268619113e+00 2.8801760475131344e+00 1 0 0
593 33 2 0.0000000000000000e+00 5.0204032927649855e+00 2.8667262734211461e+00 3.2491877412176056e+00 1 0 0
753 33 6 0.0000000000000000e+00 3.6292633721007528e+00 5.1755371152630936e+00 3.2943695305061866e+00 1 0 0
4383 233 2 0.0000000000000000e+00 3.0134762993053537e+00 1.4289203063664706e+00 1.4666802495808793e+00 1 1 0
4379 233 3 0.0000000000000000e+00 3.2838643106946885e+00 2.6592383280287846e-01 3.2996432486888372e+00 1 1 0
578 33 5 0.0000000000000000e+00 3.4762131917649191e+00 6.1244617382409707e+00 1.8261596300190144e+00 1 0 0
226 13 1 0.0000000000000000e+00 3.7052005511071717e-01 2.6585076118076878e+00 5.0357327084733017e-01 1 0 0
4384 233 2 0.0000000000000000e+00 2.1980838079486529e+00 2.0227769849435830e+00 3.7705041347911550e+00 1 1 0
586 33 1 0.0000000000000000e+00 3.2658868107140897e+00 5.4070458018528278e+00 6.0087647587061364e+00 1 0 0
587 33 4 0.0000000000000000e+00 3.7988010426577938e+00 4.4355310407163282e+00 5.1573475245234270e+00 1 0 0
585 33 2 0.0000000000000000e+00 5.1042259613499823e+00 3.3284924676061678e+00 8.4596144803802709e-01 1 0 0
591 33 2 0.0000000000000000e+00 3.3396251579672027e+00 5.2664508391234550e+00 7.0664429152408301e+00 1 0 0
592 33 2 0.0000000000000000e+00 4.3463741629714132e+00 3.5871285760430229e+00 5.4318705996694057e+00 1 0 0
590 33 1 0.0000000000000000e+00 2.6937494755488789e+00 6.5378155537416012e+00 5.4014270944528624e+00 1 0 0
1342 73 2 0.0000000000000000e+00 4.4527256138534543e+00 1.1816314593864472e+01 -1.6579506357303950e-01 1 0 0
234 13 2 0.0000000000000000e+00 1.1220772114862907e+00 4.7032025999225358e+00 5.7285489794530253e-01 1 0 0
229 13 4 0.0000000000000000e+00 -1.2367161525792116e+00 8.5295146375251363e-01 3.3267181700932928e+00 1 0 0
249 14 2 0.0000000000000000e+00 -4.1597056905011316e+00 1.9902123464467081e+00 7.1368250935614732e+00 1 0 0
985 53 2 0.0000000000000000e+00 -1.8286291422453962e+00 6.4009556896260884e+00 5.5845640086688437e+00 1 0 0
599 34 1 0.0000000000000000e+00 5.1766339456772315e-01 4.2654925057813351e+00 8.2632913210515841e+00 1 0 0
4401 234 2 0.0000000000000000e+00 -1.1010791491782665e+00 1.1594484760156172e+00 8.9792368436935508e+00 1 1 0
225 13 2 0.0000000000000000e+00 -2.0370430996701314e+00 3.2329416181981979e-01 5.2887848512741451e+00 1 0 0
595 34 7 0.0000000000000000e+00 1.0257690635718575e-01 5.5348299522659108e+00 7.9415887819674467e+00 1 0 0
981 53 1 0.0000000000000000e+00 -1.3615393401066982e+00 7.1569544987097249e+00 4.9267186896290536e+00 1 0 0
4378 233 5 0.0000000000000000e+00 3.4486833786014905e+00 5.1418218151322348e-01 1.9029720641430869e+00 1 1 0
582 33 2 0.0000000000000000e+00 4.1012787092725205e+00 5.4157225525078125e+00 -4.0197449836994081e-02 1 0 0
583 33 2 0.0000000000000000e+00 3.0801386116442684e+00 7.0283847363843615e+00 1.3927707328116281e+00 1 0 0
2513 133 2 0.0000000000000000e+00 -1.4989427087663723e+00 1.7798609515103809e+01 3.2283140657448839e+00 1 0 0
232 13 2 0.0000000000000000e+00 -4.2372942205169123e-01 6.3876223822657319e-01 8.5908987651945190e-01 1 0 0
235 14 7 0.0000000000000000e+00 -5.3299832244259022e+00 2.3238840004190831e+00 1.3149956548513845e+01 1 0 0
236 14 5 0.0000000000000000e+00 -4.5394338379131849e+00 3.1338259110254478e+00 1.2333674059802796e+01 1 0 0
597 34 3 0.0000000000000000e+00 -6.5576467822123696e-01 5.8752576241981442e+00 1.0221512877605273e+01 1 0 0
734 14 6 0.0000000000000000e+00 -4.6415397236338292e+00 2.3350260583899463e+00 1.0485115412867017e+01 1 0 0
239 14 1 0.0000000000000000e+00 -5.8929920266582840e+00 1.2077251529001760e+00 1.2593754954319463e+01 1 0 0
240 14 2 0.0000000000000000e+00 -5.3705706852125914e+00 2.5429856167584770e+00 1.4225931902805270e+01 1 0 0
243 14 2 0.0000000000000000e+00 -6.4159111598298413e+00 5.5760181860607505e-01 1.3177260420253489e+01 1 0 0
237 14 3 0.0000000000000000e+00 -4.4126452957862545e+00 2.8688681945489254e+00 1.0902776596256967e+01 1 0 0
4402 234 2 0.0000000000000000e+00 -2.0785994001327843e+00 1.6995934768910064e+00 1.1009553462859268e+01 1 1 0
2138 115 2 0.0000000000000000e+00 -3.6844197327850425e+00 1.7161568848370148e+01 1.4357772462235454e+01 1 0 0
242 14 2 0.0000000000000000e+00 -3.3074779345556968e+00 4.6387952114671593e+00 1.0549818701564563e+01 1 0 0
4408 234 1 0.0000000000000000e+00 -1.7989613217042155e+00 3.7757068301547803e-01 1.2702012027794261e+01 1 1 0
238 14 4 0.0000000000000000e+00 -3.7108732678273952e+00 3.7257019910700779e+00 1.0045142854409185e+01 1 0 0
246 14 3 0.0000000000000000e+00 -5.0115861243774376e+00 1.7316772918666186e+00 1.0378840905514465e+01 1 0 0
604 34 1 0.0000000000000000e+00 -9.1753323929197617e-01 4.9466179693430048e+00 1.2827166798116860e+01 1 0 0
605 34 4 0.0000000000000000e+00 -4.1140260149755647e-01 4.1025327232978519e+00 1.1870176758861849e+01 1 0 0
606 34 3 0.0000000000000000e+00 -1.8148077029004206e-01 4.5841062698382569e+00 1.0579669390766394e+01 1 0 0
607 34 4 0.0000000000000000e+00 4.0037004599679538e-01 3.7549427546713554e+00 9.5811364336191573e+00 1 0 0
611 34 2 0.0000000000000000e+00 7.0452729364829469e-01 2.8296858479367097e+00 9.8903057062919455e+00 1 0 0
610 34 2 0.0000000000000000e+00 -3.9963072308718317e-02 3.1293005379425560e+00 1.2088399895990227e+01 1 0 0
241 14 2 0.0000000000000000e+00 -3.9950780947738358e+00 4.0106322114131236e+00 1.2721169693840460e+01 1 0 0
1064 57 2 0.0000000000000000e+00 7.2310136444646638e+00 6.3339657243602812e+00 9.4546176819015182e-01 1 0 0
598 34 4 0.0000000000000000e+00 -1.1923307246631962e+00 6.7537412056340367e+00 1.1187343125400227e+01 1 0 0
754 34 6 0.0000000000000000e+00 -4.3195806803006764e-01 5.2627441490432680e+00 1.0506405936293541e+01 1 0 0
609 34 2 0.0000000000000000e+00 -8.5362947731626360e-01 4.5614645034254027e+00 1.3848316301233373e+01 1 0 0
4398 234 4 0.0000000000000000e+00 -1.6198467730045172e+00 7.5573531857619003e-01 1.1361115868661839e+01 1 1 0
4412 234 2 0.0000000000000000e+00 -2.1770365959503186e+00 1.0987029185214465e+00 1.3385502150070719e+01 1 1 0
247 14 4 0.0000000000000000e+00 -5.7400531529973380e+00 8.8925621854565906e-01 1.1221266056641523e+01 1 0 0
608 34 1 0.0000000000000000e+00 -1.2120163518816964e+00 6.2849036855418463e+00 1.2531517360158958e+01 1 0 0
612 34 2 0.0000000000000000e+00 -1.5887408692878893e+00 6.9986032252997292e+00 1.3283555019743673e+01 1 0 0
979 53 3 0.0000000000000000e+00 -1.1900655109306868e-01 9.1096963074110242e+00 3.3143990534728469e+00 1 0 0
980 53 4 0.0000000000000000e+00 5.7049758390550087e-01 1.0031416806277312e+01 2.5134874858317406e+00 1 0 0
984 53 2 0.0000000000000000e+00 1.1048282387645894e+00 1.0863360187303693e+01 2.9275386154257115e+00 1 0 0
1361 74 2 0.0000000000000000e+00 -1.2653445416942155e+00 1.3172716248524903e+01 8.5357865687657686e+00 1 0 0
990 53 1 0.0000000000000000e+00 5.4947216393303699e-01 9.8865472003917674e+00 1.1296496393356097e+00 1 0 0
2253 93 6 0.0000000000000000e+00 -3.5364364478226307e-01 1.4266867825132319e+01 3.0097288669015145e+00 1 0 0
1493 53 6 0.0000000000000000e+00 -5.6689973280561912e-01 8.6541557172541648e+00 2.9674168989720218e+00 1 0 0
986 53 1 0.0000000000000000e+00 -9.0505794195419598e-02 8.8390834545865893e+00 5.6126231968861329e-01 1 0 0
1005 54 4 0.0000000000000000e+00 -4.5092001984595935e+00 7.2106551913604839e+00 8.9015376443166456e+00 1 0 0
994 53 2 0.0000000000000000e+00 9.7019019290006403e-01 1.0616747414598583e+01 5.0238436238761108e-01 1 0 0
594 33 2 0.0000000000000000e+00 2.2260881708907845e+00 7.3578333548841446e+00 6.0496661548362649e+00 1 0 0
1741 93 1 0.0000000000000000e+00 -1.5803862927597305e+00 1.3590782124909259e+01 4.8792246258719727e+00 1 0 0
977 53 7 0.0000000000000000e+00 -7.6430171432694705e-01 8.2564135155447733e+00 5.5389884668229721e+00 1 0 0
978 53 5 0.0000000000000000e+00 -1.6609088783152615e-01 9.2675568609873764e+00 4.7385621641573694e+00 1 0 0
982 53 2 0.0000000000000000e+00 -7.0436974763313742e-01 8.2423980961943517e+00 6.6421098151910059e+00 1 0 0
983 53 2 0.0000000000000000e+00 2.9370563498452507e-01 1.0105733552748212e+01 5.2704700727884282e+00 1 0 0
1012 54 2 0.0000000000000000e+00 -2.1249651968013712e+00 9.2901794830566278e+00 7.6587141496056947e+00 1 0 0
1004 54 1 0.0000000000000000e+00 -3.5096011082349765e+00 7.7307579797768353e+00 8.1248391405164160e+00 1 0 0
1363 74 2 0.0000000000000000e+00 9.8964648880122486e-01 9.5089311358531017e+00 7.7883512940338520e+00 1 0 0
1745 93 2 0.0000000000000000e+00 -2.1411304948056689e+00 1.2957449712549010e+01 5.5603465341494669e+00 1 0 0
1008 54 1 0.0000000000000000e+00 -2.9080367367565008e+00 8.9806530347678226e+00 8.4144820829864653e+00 1 0 0
1338 73 5 0.0000000000000000e+00 3.6503909587742371e+00 1.2254548164594246e+01 1.7087436063333010e+00 1 0 0
1339 73 3 0.0000000000000000e+00 3.4716274601253181e+00 1.1916817629558441e+01 3.0625259892556334e+00 1 0 0
1340 73 4 0.0000000000000000e+00 2.7943534694140886e+00 1.2805142433787099e+01 3.9353420804614512e+00 1 0 0
1341 73 1 0.0000000000000000e+00 4.8032027035852423e+00 1.0233725324872539e+01 1.2415681879236906e+00 1 0 0
1337 73 7 0.0000000000000000e+00 4.3098374591169497e+00 1.1430071568178063e+01 7.8834732302127719e-01 1 0 0
1343 73 2 0.0000000000000000e+00 3.3768674752089094e+00 1.3213744319695341e+01 1.3528264194499766e+00 1 0 0
988 53 3 0.0000000000000000e+00 -8.0681689738812301e-01 8.0633967874649457e+00 2.7301613557411213e+00 1 0 0
1348 73 3 0.0000000000000000e+00 3.9139985815378200e+00 1.0636400895680122e+01 3.4776479195228083e+00 1 0 0
1349 73 4 0.0000000000000000e+00 4.6476946069568692e+00 9.8164478174229171e+00 2.5632205011241491e+00 1 0 0
1353 73 2 0.0000000000000000e+00 4.9618969604800363e+00 8.8045918620275856e+00 2.8529792527753206e+00 1 0 0
1513 73 6 0.0000000000000000e+00 3.7135232524159085e+00 1.1279745059363332e+01 3.2402814846371530e+00 1 0 0
1356 74 5 0.0000000000000000e+00 -6.7006985952172560e-01 1.2319898690084649e+01 8.8248998233317408e+00 1 0 0
1354 73 2 0.0000000000000000e+00 2.1611689368176847e+00 1.3115236052432374e+01 5.9821807462146861e+00 1 0 0
1346 73 1 0.0000000000000000e+00 3.0783357682278454e+00 1.1177275236136396e+01 5.7046429905131397e+00 1 0 0
1347 73 4 0.0000000000000000e+00 3.6276523435610062e+00 1.0265948947030527e+01 4.7675812848477319e+00 1 0 0
1350 73 1 0.0000000000000000e+00 2.5995068858355879e+00 1.2440141964538842e+01 5.2442610087093460e+00 1 0 0
1351 73 2 0.0000000000000000e+00 2.9643201838667723e+00 1.0914384530334074e+01 6.7719164459647141e+00 1 0 0
1352 73 2 0.0000000000000000e+00 3.9531116055045308e+00 9.3179986399434167e+00 5.1140484589374600e+00 1 0 0
1345 73 2 0.0000000000000000e+00 5.2257115150936926e+00 9.5063362748580538e+00 5.4381131668342853e-01 1 0 0
1355 74 7 0.0000000000000000e+00 -4.4217701922955044e-02 1.1453742566444459e+01 7.9378682030770182e+00 1 0 0
1359 74 1 0.0000000000000000e+00 5.5296859716582158e-01 1.0316174291683945e+01 8.3823048457431515e+00 1 0 0
1360 74 2 0.0000000000000000e+00 -1.2801836193471994e-01 1.1683396280091326e+01 6.8459312199817601e+00 1 0 0
1747 93 4 0.0000000000000000e+00 -5.9345922944909646e-01 1.3219271306720476e+01 1.3067926986704836e+00 1 0 0
1748 93 3 0.0000000000000000e+00 -7.1768099549177033e-01 1.3787674418293538e+01 2.6449894514039602e+00 1 0 0
601 34 2 0.0000000000000000e+00 -1.0301007692701099e+00 7.2292263984912353e+00 8.6518431224743733e+00 1 0 0
1756 94 5 0.0000000000000000e+00 -4.6236385989204321e+00 1.5178793565512246e+01 1.2006164906688340e+01 1 0 0
1746 93 1 0.0000000000000000e+00 1.7088007450067766e-01 1.3899818649848287e+01 4.1517277830249144e-01 1 0 0
584 33 2 0.0000000000000000e+00 2.3277248099439833e+00 7.6348882587028255e+00 3.5891153685633630e+00 1 0 0
2129 114 2 0.0000000000000000e+00 -5.2432978367977690e-01 1.6890107417885201e+01 1.3728809145571203e+01 1 0 0
1749 93 4 0.0000000000000000e+00 -1.4410516393479236e+00 1.3046558416879646e+01 3.5853964149201678e+00 1 0 0
1011 54 2 0.0000000000000000e+00 -6.2241684785623344e+00 6.2537981510628082e+00 1.0720568354386931e+01 1 0 0
1344 73 2 0.0000000000000000e+00 2.5097821352805960e+00 1.3826492378970446e+01 3.6244635532125042e+00 1 0 0
1009 54 2 0.0000000000000000e+00 -3.2415327346092768e+00 7.1848250290579125e+00 7.1873776057443068e+00 1 0 0
987 53 4 0.0000000000000000e+00 -8.1790241276688769e-01 7.9571946068409636e+00 1.3111516032685184e+00 1 0 0
995 54 7 0.0000000000000000e+00 -5.4036544779867945e+00 8.8822159946656374e+00 1.2628939252931080e+01 1 0 0
996 54 5 0.0000000000000000e+00 -4.5051473018375807e+00 9.5375186274534691e+00 1.1778759792145657e+01 1 0 0
997 54 3 0.0000000000000000e+00 -4.2400705735996764e+00 8.9841937660463174e+00 1.0486621476237291e+01 1 0 0
1001 54 2 0.0000000000000000e+00 -3.9804622166193662e+00 1.0421515150982088e+01 1.2072863410225549e+01 1 0 0
1371 74 2 0.0000000000000000e+00 1.0231068320510923e+00 9.1439948008879206e+00 1.0047396859606026e+01 1 0 0
1357 74 3 0.0000000000000000e+00 -6.8829197057143165e-01 1.2114634234390774e+01 1.0224530137438402e+01 1 0 0
1767 94 4 0.0000000000000000e+00 -5.9991313839089422e+00 1.3047412485074119e+01 1.0853298167470529e+01 1 0 0
998 54 4 0.0000000000000000e+00 -3.2421662276154470e+00 9.6046824759974410e+00 9.6366388096704352e+00 1 0 0
1494 54 6 0.0000000000000000e+00 -4.5440579035463609e+00 8.4055346006601592e+00 1.0299610364560182e+01 1 0 0
1362 74 2 0.0000000000000000e+00 -1.7717026278094243e+00 1.3956344163424429e+01 1.0870533531610663e+01 1 0 0
1003 54 2 0.0000000000000000e+00 -6.7260051997059245e+00 7.1251769515578838e+00 1.2880516784929076e+01 1 0 0
999 54 1 0.0000000000000000e+00 -6.0490462756386769e+00 7.7342658809272278e+00 1.2221109558241880e+01 1 0 0
1372 74 2 0.0000000000000000e+00 -1.5776635259989344e+00 1.3268477280011199e+01 1.3334399396799149e+01 1 0 0
1514 74 6 0.0000000000000000e+00 -2.5029725013278714e-01 1.1645540252765377e+01 1.0547802489977359e+01 1 0 0
602 34 2 0.0000000000000000e+00 -1.4903595414330972e+00 7.7334495975980344e+00 1.1007400972661843e+01 1 0 0
1358 74 4 0.0000000000000000e+00 -1.2853901003013997e+00 1.3032819746331494e+01 1.1112265267482181e+01 1 0 0
1364 74 1 0.0000000000000000e+00 -6.2820648738232965e-01 1.1490419601511226e+01 1.2884017994224648e+01 1 0 0
1365 74 4 0.0000000000000000e+00 -8.7627218588647082e-02 1.0579431891437830e+01 1.2007448635011645e+01 1 0 0
1366 74 3 0.0000000000000000e+00 -4.4931902405083157e-02 1.0947662218464838e+01 1.0648273839374546e+01 1 0 0
1759 94 1 0.0000000000000000e+00 -6.0802536712091166e+00 1.3204843044468033e+01 1.2199859158515039e+01 1 0 0
1368 74 1 0.0000000000000000e+00 -1.2063518520467458e+00 1.2670706994741900e+01 1.2528594805724293e+01 1 0 0
1369 74 2 0.0000000000000000e+00 -6.3705154818891785e-01 1.1132997338386042e+01 1.3959037136980417e+01 1 0 0
1370 74 2 0.0000000000000000e+00 3.8152742364846493e-01 9.6531347184392047e+00 1.2264056125241515e+01 1 0 0
1378 75 2 0.0000000000000000e+00 -4.1509042504054072e+00 1.1759176150175596e+01 1.4013168642383143e+01 1 0 0
1000 54 2 0.0000000000000000e+00 -5.6910585056656338e+00 9.2780319342983049e+00 1.3593056523455290e+01 1 0 0
1766 94 3 0.0000000000000000e+00 -5.2159187284080115e+00 1.3949314744638274e+01 1.0020711867827144e+01 1 0 0
1006 54 3 0.0000000000000000e+00 -4.8335240483149686e+00 7.7955295733674941e+00 1.0154226361703262e+01 1 0 0
1763 94 2 0.0000000000000000e+00 -6.6722745253107529e+00 1.2564028175846193e+01 1.2790930977398906e+01 1 0 0
1367 74 4 0.0000000000000000e+00 5.7749293556935921e-01 1.0078634970665250e+01 9.7518390418543870e+00 1 0 0
1002 54 2 0.0000000000000000e+00 -2.8365209073307716e+00 1.0555328534914127e+01 1.0031606100239070e+01 1 0 0
1755 94 7 0.0000000000000000e+00 -5.4335375940989223e+00 1.4325332284802174e+01 1.2786089723506299e+01 1 0 0
1007 54 4 0.0000000000000000e+00 -5.7263711196010032e+00 7.1455798152630390e+00 1.1043233175801616e+01 1 0 0
1737 93 7 0.0000000000000000e+00 -9.2936565698600893e-01 1.4809467429692637e+01 5.2854720187521442e+00 1 0 0
1740 93 4 0.0000000000000000e+00 6.7887876132633918e-01 1.5607092305281698e+01 2.0215711918615074e+00 1 0 0
1744 93 2 0.0000000000000000e+00 1.2058522147139339e+00 1.6475106578903361e+01 2.3085674984214992e+00 1 0 0
1768 94 1 0.0000000000000000e+00 -3.6654187846035655e+00 1.5723516543168300e+01 8.3828939445294992e+00 1 0 0
1750 93 1 0.0000000000000000e+00 6.9912432103298772e-01 1.5136243414085889e+01 7.1024362360176729e-01 1 0 0
2112 113 2 0.0000000000000000e+00 3.9877131084730100e+00 1.5539905088935830e+01 5.4576736328518001e+00 1 0 0
2119 114 1 0.0000000000000000e+00 6.2424988448435847e-01 1.5864256313726127e+01 8.1458479181557895e+00 1 0 0
1760 94 2 0.0000000000000000e+00 -5.6088679293122015e+00 1.4460431469436484e+01 1.3817127231806996e+01 1 0 0
1743 93 2 0.0000000000000000e+00 3.9775578176621229e-01 1.6322397252521913e+01 4.5726608350684588e+00 1 0 0
2127 114 4 0.0000000000000000e+00 6.2307442838865157e-01 1.5518991750570628e+01 9.5255505964495004e+00 1 0 0
1772 94 2 0.0000000000000000e+00 -3.1415478000089676e+00 1.6526945956793593e+01 7.8108102604454963e+00 1 0 0
1739 93 3 0.0000000000000000e+00 -5.6565444996672376e-02 1.4934459272721766e+01 3.0297748657562944e+00 1 0 0
1754 93 2 0.0000000000000000e+00 1.2137750182717426e+00 1.5765702109304938e+01 2.4570130574124605e-02 1 0 0
2097 113 7 0.0000000000000000e+00 4.3644810059756214e+00 1.7348749679595937e+01 1.0249771172794231e+00 1 0 0
1764 94 1 0.0000000000000000e+00 -4.4045792111416873e+00 1.4645432869555073e+01 7.8520069364125895e+00 1 0 0
2101 113 1 0.0000000000000000e+00 4.7850184923312238e+00 1.6125466246132440e+01 1.6301535086539334e+00 1 0 0
2113 113 2 0.0000000000000000e+00 4.7228821104887286e+00 1.4868284788244347e+01 3.4573182754919469e+00 1 0 0
1738 93 5 0.0000000000000000e+00 -1.1692787543137451e-01 1.5377825366569644e+01 4.3186144031503213e+00 1 0 0
2108 113 3 0.0000000000000000e+00 3.8263076420075923e+00 1.6767936732288874e+01 3.8027110315359991e+00 1 0 0
2109 113 4 0.0000000000000000e+00 4.5131048953718711e+00 1.5841732377710448e+01 3.0310647411045646e+00 1 0 0
2273 113 6 0.0000000000000000e+00 3.6627112030439579e+00 1.7317159716544221e+01 3.4043732163544456e+00 1 0 0
2106 113 1 0.0000000000000000e+00 2.7690522421734425e+00 1.7306942650370612e+01 5.8927593497987498e+00 1 0 0
2107 113 4 0.0000000000000000e+00 3.5952032593249013e+00 1.6459562890034793e+01 5.1351197951802012e+00 1 0 0
2111 113 2 0.0000000000000000e+00 2.4631791695338254e+00 1.7123495888807408e+01 6.8984486144467212e+00 1 0 0
2115 114 7 0.0000000000000000e+00 7.7415899332977212e-02 1.7116744997415015e+01 7.7061569383580633e+00 1 0 0
2102 113 2 0.0000000000000000e+00 4.5182289148981249e+00 1.7732047991903055e+01 4.9146745844043271e-02 1 0 0
2120 114 2 0.0000000000000000e+00 1.5979001863034803e-02 1.7500343537349448e+01 6.6731063352996030e+00 1 0 0
2123 114 2 0.0000000000000000e+00 9.1045750163822081e-01 1.5126321293532873e+01 7.4125501419966513e+00 1 0 0
1758 94 4 0.0000000000000000e+00 -3.8302899202418854e+00 1.5967962523333597e+01 9.7690179171618929e+00 1 0 0
2105 113 2 0.0000000000000000e+00 5.2242183513600189e+00 1.5303012228423306e+01 1.0532998571792171e+00 1 0 0
1742 93 2 0.0000000000000000e+00 -1.0456606672087871e+00 1.5038415319210635e+01 6.3709081341820637e+00 1 0 0
1762 94 2 0.0000000000000000e+00 -3.3824657114821957e+00 1.6797669298413854e+01 1.0191492742830542e+01 1 0 0
2117 114 3 0.0000000000000000e+00 -5.4330040303003013e-01 1.7640416418067726e+01 9.9963075561118124e+00 1 0 0
1761 94 2 0.0000000000000000e+00 -4.0267496750286416e+00 1.5998518911544146e+01 1.2500149521290020e+01 1 0 0
2274 114 6 0.0000000000000000e+00 -2.7690465225140759e-01 1.7044062805190752e+01 1.0282507138571091e+01 1 0 0
2254 94 6 0.0000000000000000e+00 -5.0372133989505272e+00 1.4613525650996788e+01 1.0298254651978946e+01 1 0 0
2130 114 2 0.0000000000000000e+00 7.6330871977811210e-01 1.5443653196925519e+01 1.2113859282235044e+01 1 0 0
2124 114 1 0.0000000000000000e+00 -4.9425427381662157e-01 1.7193248086077251e+01 1.2676157662175868e+01 1 0 0
2125 114 4 0.0000000000000000e+00 1.6685681503350214e-01 1.6302810204876860e+01 1.1798523017471815e+01 1 0 0
2126 114 3 0.0000000000000000e+00 9.3292695277088278e-02 1.6464966036126182e+01 1.0437490087444036e+01 1 0 0
1010 54 2 0.0000000000000000e+00 -4.9619171809131615e+00 6.2488647334455489e+00 8.6249266720177715e+00 1 0 0
1757 94 3 0.0000000000000000e+00 -4.5570392590070936e+00 1.5044869847447824e+01 1.0646580605420755e+01 1 0 0
1753 93 2 0.0000000000000000e+00 -1.8947933608420859e+00 1.2059041473529211e+01 3.2905728072312539e+00 1 0 0
1765 94 4 0.0000000000000000e+00 -5.1765827973872884e+00 1.3785931428365135e+01 8.6246407175197550e+00 1 0 0
2099 113 3 0.0000000000000000e+00 3.3405144770369888e+00 1.7918940364306554e+01 3.1913695139111402e+00 1 0 0
993 53 2 0.0000000000000000e+00 -1.7511943347051233e+00 6.2194989179858551e+00 2.9437663759146306e+00 1 0 0
322 18 2 0.0000000000000000e+00 2.7489799620740767e+00 1.9954437348881962e-01 9.0747207031153536e+00 1 0 0
4416 235 4 0.0000000000000000e+00 -5.8769406085536309e+00 8.4343265219517116e-01 1.9047827409465068e+01 1 1 0
4420 235 2 0.0000000000000000e+00 -6.1164578219730172e+00 1.8581497860351033e+00 1.8787568231929981e+01 1 1 0
255 15 3 0.0000000000000000e+00 -8.7480916334821242e+00 3.0808959353694121e+00 1.8219377213122605e+01 1 0 0
256 15 4 0.0000000000000000e+00 -8.0557519126675441e+00 3.8192208893899577e+00 1.7195829033011684e+01 1 0 0
260 15 2 0.0000000000000000e+00 -7.6971642240277953e+00 4.7818280613419315e+00 1.7483283432398562e+01 1 0 0
1751 93 2 0.0000000000000000e+00 -1.6656509089956813e+01 1.3351361019022839e+01 2.9353291343441821e+01 1 0 -1
4414 235 5 0.0000000000000000e+00 -4.8808031765548314e+00 3.5521387955543671e-01 1.6859987804122976e+01 1 1 0
264 15 3 0.0000000000000000e+00 -9.3043477624295452e+00 1.8574097228052575e+00 1.7837407153112618e+01 1 0 0
262 15 1 0.0000000000000000e+00 -8.3737351899010690e+00 2.0449032125557167e+00 1.5643234846929733e+01 1 0 0
266 15 1 0.0000000000000000e+00 -7.8049166736672362e+00 3.2861426564842589e+00 1.5964508435232407e+01 1 0 0
263 15 4 0.0000000000000000e+00 -9.1365995767226220e+00 1.3986247608550235e+00 1.6543463820845083e+01 1 0 0
735 15 6 0.0000000000000000e+00 -8.9195145482638623e+00 2.4054796727592542e+00 1.8050569227294705e+01 1 0 0
265 15 4 0.0000000000000000e+00 -1.0061609341573922e+01 1.0949195404180658e+00 1.8753755408730971e+01 1 0 0
2148 115 2 0.0000000000000000e+00 -4.3752806931518382e+00 1.5125035515556894e+01 1.9721054469805367e+01 1 0 0
613 35 7 0.0000000000000000e+00 -4.4424972690543836e+00 5.6457137907148178e+00 1.6156551022382367e+01 1 0 0
618 35 2 0.0000000000000000e+00 -4.3710658508784128e+00 6.0135770677327729e+00 1.5137069147234421e+01 1 0 0
615 35 3 0.0000000000000000e+00 -5.2741347442375117e+00 5.7341559321852831e+00 1.8413625683540552e+01 1 0 0
617 35 1 0.0000000000000000e+00 -3.8478403845729927e+00 4.4042519591821705e+00 1.6421220489423185e+01 1 0 0
621 35 2 0.0000000000000000e+00 -3.4167918641165729e+00 3.8623817690443452e+00 1.5639901367587889e+01 1 0 0
624 35 3 0.0000000000000000e+00 -4.6723026386275714e+00 4.5002018190018731e+00 1.8659998092797206e+01 1 0 0
625 35 4 0.0000000000000000e+00 -4.0280378692275232e+00 3.8159758617234889e+00 1.7667170048475995e+01 1 0 0
629 35 2 0.0000000000000000e+00 -3.7018869892874813e+00 2.8194576541641392e+00 1.7772094456596555e+01 1 0 0
755 35 6 0.0000000000000000e+00 -4.9542200524095001e+00 5.1263754330367197e+00 1.8425449545385622e+01 1 0 0
270 15 2 0.0000000000000000e+00 -7.0993893607616734e+00 3.7740333443842089e+00 1.5266505649581179e+01 1 0 0
614 35 5 0.0000000000000000e+00 -5.2151011674751926e+00 6.3318093758997662e+00 1.7120506258986570e+01 1 0 0
4419 235 2 0.0000000000000000e+00 -5.1946211269957709e+00 1.2569688673475894e+00 1.6509621817415340e+01 1 1 0
1025 55 4 0.0000000000000000e+00 -9.8042913378221126e+00 6.7686146117579513e+00 1.8358321235651683e+01 1 0 0
616 35 4 0.0000000000000000e+00 -5.9650208638394178e+00 6.5260154734023432e+00 1.9388765846499012e+01 1 0 0
231 13 2 0.0000000000000000e+00 -1.6427229841173585e+01 2.4549794736931827e+00 2.9393624669174205e+01 1 0 -1
1045 56 2 0.0000000000000000e+00 -1.2647069366444617e+01 7.6517359682906054e+00 2.2076748595321092e+01 1 0 0
254 15 5 0.0000000000000000e+00 -8.8842711765105715e+00 3.5477714261720976e+00 1.9521133039272122e+01 1 0 0
280 16 1 0.0000000000000000e+00 -1.2727921760497857e+01 2.3558327387827074e+00 2.3134435424572171e+01 1 0 0
2153 116 3 0.0000000000000000e+00 -9.5497367184388082e+00 1.7862487250032942e+01 2.5719880969543727e+01 1 0 0
258 15 2 0.0000000000000000e+00 -9.8066376852184902e+00 3.2125926353577086e+00 2.1405738441430042e+01 1 0 0
634 36 4 0.0000000000000000e+00 -1.0176125873788109e+01 6.3949125828484013e+00 2.6146094511626263e+01 1 0 0
4433 236 3 0.0000000000000000e+00 -9.5399295547132930e+00 6.4540392574139308e-02 2.5588864643808684e+01 1 1 0
257 15 1 0.0000000000000000e+00 -1.0222122732710618e+01 1.5456275501466248e+00 2.0064416477637838e+01 1 0 0
284 16 1 0.0000000000000000e+00 -1.2193861774445466e+01 3.5338957553032584e+00 2.3603804958464899e+01 1 0 0
279 16 2 0.0000000000000000e+00 -1.4867578935757628e+01 5.8006527587258661e-01 2.8165775018616273e+01 1 0 0
4415 235 3 0.0000000000000000e+00 -5.1385530287644299e+00 -5.1265704062473466e-02 1.8212028276542082e+01 1 1 0
288 16 2 0.0000000000000000e+00 -1.1651595277747059e+01 4.1567451263144362e+00 2.2934902905939531e+01 1 0 0
271 16 7 0.0000000000000000e+00 -1.3816667139219671e+01 2.5199281719200632e+00 2.8089631035870912e+01 1 0 0
272 16 5 0.0000000000000000e+00 -1.3186525873122401e+01 3.4043678881531290e+00 2.7175833363241768e+01 1 0 0
273 16 3 0.0000000000000000e+00 -1.3047131786820831e+01 3.0822267883195784e+00 2.5799285744865333e+01 1 0 0
274 16 4 0.0000000000000000e+00 -1.2316730367464320e+01 3.9467145662405643e+00 2.4946352182322872e+01 1 0 0
275 16 1 0.0000000000000000e+00 -1.4292455805153210e+01 1.2925250476980079e+00 2.7602014087118526e+01 1 0 0