LAMMPS (15 May 2015)
Reading data file ...
  triclinic box = (-0.107635 -0.0404339 -0.357111) to (41.3876 35.9384 29.5551) with tilt (-0.0672341 -17.0362 -0.0417078)
  5 by 2 by 2 MPI processor grid
  reading atoms ...
  4560 atoms
  reading velocities ...
  4560 velocities
  scanning bonds ...
  3 = max bonds/atom
  scanning angles ...
  3 = max angles/atom
  scanning dihedrals ...
  8 = max dihedrals/atom
  scanning impropers ...
  1 = max impropers/atom
  reading bonds ...
  5040 bonds
  reading angles ...
  7200 angles
  reading dihedrals ...
  10560 dihedrals
  reading impropers ...
  2400 impropers
Finding 1-2 1-3 1-4 neighbors ...
 Special bond factors lj:   0          0          0         
 Special bond factors coul: 0          0          0         
  4 = max # of 1-2 neighbors
  8 = max # of 1-3 neighbors
  20 = max # of 1-4 neighbors
  16 = max # of special neighbors
4560 atoms in group all
720 atoms in group C
480 atoms in group S
1920 atoms in group H
720 atoms in group Si
240 atoms in group Na
240 atoms in group Ba
240 atoms in group O
4560 atoms in group naphthalene
2400 atoms in group carbon
960 atoms in group CO
Setting atom values ...
  720 settings made for charge
Setting atom values ...
  720 settings made for charge
Setting atom values ...
  1920 settings made for charge
Setting atom values ...
  480 settings made for charge
Setting atom values ...
  240 settings made for charge
Setting atom values ...
  240 settings made for charge
Setting atom values ...
  240 settings made for charge
Finding 1-2 1-3 1-4 neighbors ...
 Special bond factors lj:   0          0          0.5       
 Special bond factors coul: 0          0          0.5       
  4 = max # of 1-2 neighbors
  8 = max # of 1-3 neighbors
  20 = max # of 1-4 neighbors
  16 = max # of special neighbors
Neighbor list info ...
  4 neighbor list requests
  update every 1 steps, delay 0 steps, check yes
  master list distance cutoff = 12
Setting up run ...
Memory usage per processor = 13.4064 Mbytes
Step Temp Density PotEng E_vdwl E_tail E_coul E_long Press Volume Xy Xz Yz E_mol E_bond E_angle E_dihed 14[1] 14[2] 14[3] msd[4] msd2[4] msd3[4] msd4[4] naphthal Cella Cellb Cellc CellAlpha CellBeta CellGamma 2 3 27[1] 27[2] 27[3] 28[1] 28[2] 28[3] 
       0          298    1.2509986     3498.833            0            0            0            0   -15873.524    44657.537 -0.067234084   -17.036218 -0.041707817     3498.833    1521.0094     935.4334    889.67826    28.379601    18.846571    14.337846 7.7711016e-30 8.8746852e-30 6.8181724e-30 5.7534156e-30          298     41.49527    35.978931    34.423473    90.016431    119.66323    90.107069 4.9135018e-24 4.9466509e-24    28.379557    18.849013    14.339638    28.379812    18.845474    14.337264 
   10000     296.4057    1.2509986    3537.8691            0            0            0            0   -4339.9812    44657.537 -0.067234084   -17.036218 -0.041707817    3537.8691    1469.8134    983.20584    926.83392    28.378856    18.845201    14.337317 0.00033216361 0.0003287375 0.0013420502 0.0013379849     296.4057     41.49527    35.978931    34.423473    90.016431    119.66323    90.107069    852.09751    199.29817    28.379003    18.847654    14.340767    28.378006    18.845262    14.336394 
   20000    297.10409    1.2509986    3453.8313            0            0            0            0   -4068.7005    44657.537 -0.067234084   -17.036218 -0.041707817    3453.8313    1449.4322    939.54638    908.22849    28.378478    18.845047    14.337328 0.00035241824 0.0003514223 0.0013142112 0.0013136916    297.10409     41.49527    35.978931    34.423473    90.016431    119.66323    90.107069    834.42188    211.45095    28.378701    18.848585    14.339922    28.379171    18.845737    14.337465 
   30000    298.89883    1.2509986    3439.2034            0            0            0            0    -7439.189    44657.537 -0.067234084   -17.036218 -0.041707817    3439.2034    1422.2663    930.24447    920.24082    28.380752    18.845513    14.337337 0.00033351663 0.00033061652 0.0013316587   0.00133097    298.89883     41.49527    35.978931    34.423473    90.016431    119.66323    90.107069     845.4997    200.10998    28.380362    18.848068    14.340804    28.379955     18.84498    14.336613 
   40000    295.73287    1.2509986     3500.447            0            0            0            0    -6856.584    44657.537 -0.067234084   -17.036218 -0.041707817     3500.447    1461.4588    964.43086    917.06335    28.380263    18.846295     14.33717 0.00036898898 0.00036253312 0.0013074328 0.0013064067    295.73287     41.49527    35.978931    34.423473    90.016431    119.66323    90.107069     830.1181    221.39339    28.378495    18.850232    14.337678    28.380258    18.845889    14.336455 
   50000    294.68318    1.2509986    3387.0614            0            0            0            0   -5029.5649    44657.537 -0.067234084   -17.036218 -0.041707817    3387.0614    1423.0379    913.02553    897.89655    28.377821    18.845059    14.337763 0.00037797352 0.00037554705  0.001344024 0.0013418317    294.68318     41.49527    35.978931    34.423473    90.016431    119.66323    90.107069    853.35073    226.78411    28.379863    18.849003    14.341165    28.378802    18.844732    14.336476 
   60000    296.07553    1.2509986    3461.7392            0            0            0            0   -6914.3916    44657.537 -0.067234084   -17.036218 -0.041707817    3461.7392    1447.5216    965.27838    897.65596    28.378882    18.847872    14.337564 0.00034537742 0.0003448954 0.0013218185 0.0013217321    296.07553     41.49527    35.978931    34.423473    90.016431    119.66323    90.107069    839.25195    207.22645    28.379479    18.849038    14.340328    28.379914    18.845749    14.337286 
   70000    299.40097    1.2509986    3461.5746            0            0            0            0     -6910.59    44657.537 -0.067234084   -17.036218 -0.041707817    3461.5746    1421.0272    955.21986    923.42205    28.379419    18.845675    14.337327 0.00040407291 0.00040234416 0.0013238745 0.0013229118    299.40097     41.49527    35.978931    34.423473    90.016431    119.66323    90.107069    840.55731    242.44374    28.379219    18.849196    14.340895    28.380372    18.845117    14.336542 
   80000    296.73633    1.2509986    3480.1006            0            0            0            0   -4768.6586    44657.537 -0.067234084   -17.036218 -0.041707817    3480.1006     1475.657     954.9604    892.58847    28.380047     18.84485    14.336735 0.00036091956 0.00035955765 0.0013286479 0.0013280697    296.73633     41.49527    35.978931    34.423473    90.016431    119.66323    90.107069    843.58806    216.55174    28.379913    18.847923    14.339422    28.380049    18.844823    14.336951 
   90000    299.45037    1.2509986    3453.2758            0            0            0            0   -5018.6447    44657.537 -0.067234084   -17.036218 -0.041707817    3453.2758     1440.939    954.37713    907.60242    28.378527    18.846187    14.335939 0.00036614438 0.00036559282 0.0012872248  0.001285259    299.45037     41.49527    35.978931    34.423473    90.016431    119.66323    90.107069    817.28762    219.68663    28.379151    18.849128    14.339026    28.379984    18.846535    14.336363 
  100000    291.91999    1.2509986    3419.2419            0            0            0            0   -6251.7493    44657.537 -0.067234084   -17.036218 -0.041707817    3419.2419     1457.099    917.16648    888.93567    28.378394    18.845382    14.336783 0.00035386463 0.00035354714 0.0012816409 0.0012798839    291.91999     41.49527    35.978931    34.423473    90.016431    119.66323    90.107069     813.7423    212.31878    28.379019    18.848892     14.33952    28.380558    18.844613    14.336587 
  110000     301.2171    1.2509986     3430.887            0            0            0            0   -5108.7717    44657.537 -0.067234084   -17.036218 -0.041707817     3430.887    1430.5725    948.23483    899.82369    28.379911    18.845218    14.337768 0.00035479157 0.0003508486 0.0012654684 0.0012642464     301.2171     41.49527    35.978931    34.423473    90.016431    119.66323    90.107069    803.47403    212.87494    28.379272    18.847098    14.340082    28.378994    18.845248    14.336556 
  120000    294.36509    1.2509986    3467.4249            0            0            0            0   -4865.1182    44657.537 -0.067234084   -17.036218 -0.041707817    3467.4249    1420.5615    965.18824    921.46454    28.380066    18.844638    14.337677 0.0003548432 0.00035372476 0.0012676824 0.0012668552    294.36509     41.49527    35.978931    34.423473    90.016431    119.66323    90.107069    804.87974    212.90592    28.379364    18.850047    14.339752    28.380307    18.844911    14.337779 
  130000    295.67806    1.2509986    3371.5699            0            0            0            0   -3346.7229    44657.537 -0.067234084   -17.036218 -0.041707817    3371.5699    1392.4829    913.31594    906.71161    28.379029    18.846597    14.337306 0.00036178879 0.00036012518 0.0012595079 0.0012571268    295.67806     41.49527    35.978931    34.423473    90.016431    119.66323    90.107069    799.68952    217.07327    28.378302    18.849305    14.339708    28.378458    18.846043    14.336791 
  140000    298.32063    1.2509986    3402.1108            0            0            0            0   -6114.1411    44657.537 -0.067234084   -17.036218 -0.041707817    3402.1108    1479.5925    924.11443    851.32675    28.382125    18.844187    14.338995 0.00035816349 0.00035768628 0.0012579607 0.0012555024    298.32063     41.49527    35.978931    34.423473    90.016431    119.66323    90.107069    798.70718    214.89809    28.379691     18.84835    14.339498    28.380874    18.845113    14.338359 
  150000    293.94956    1.2509986    3475.6709            0            0            0            0   -6463.2696    44657.537 -0.067234084   -17.036218 -0.041707817    3475.6709    1436.8812    957.98109    922.26567    28.376411    18.845442    14.336031 0.00036397372 0.00036394776 0.0013014751 0.0013008077    293.94956     41.49527    35.978931    34.423473    90.016431    119.66323    90.107069    826.33543    218.38423    28.379416    18.848959    14.339581    28.379074     18.84577    14.337077 
  160000    295.60656    1.2509986    3463.5887            0            0            0            0   -5206.1451    44657.537 -0.067234084   -17.036218 -0.041707817    3463.5887    1434.0327    942.85903    923.29034    28.378924    18.846638    14.337204 0.00038412564 0.00038168449 0.0013410137 0.0013409118    295.60656     41.49527    35.978931    34.423473    90.016431    119.66323    90.107069    851.43937    230.47539    28.378528    18.850163    14.339392    28.379759    18.845781    14.337195 
  170000    296.02172    1.2509986     3387.386            0            0            0            0   -5986.1739    44657.537 -0.067234084   -17.036218 -0.041707817     3387.386     1431.325    938.01977    867.80637    28.380047     18.84477    14.337344 0.00034396414 0.00034328274 0.0012358311  0.001234732    296.02172     41.49527    35.978931    34.423473    90.016431    119.66323    90.107069    784.65665    206.37849     28.37885    18.848948    14.340061    28.379177    18.845027     14.33656 
  180000    295.05765    1.2509986    3475.0511            0            0            0            0   -6057.9082    44657.537 -0.067234084   -17.036218 -0.041707817    3475.0511    1473.7526    963.65255    883.51712     28.37936    18.846623    14.336902 0.00032548179 0.00032238849  0.001329939 0.0013284612    295.05765     41.49527    35.978931    34.423473    90.016431    119.66323    90.107069    844.40784    195.28907     28.37992    18.847876     14.34093    28.380647    18.846083    14.336623 
  190000    301.83668    1.2509986    3437.3582            0            0            0            0   -4368.7374    44657.537 -0.067234084   -17.036218 -0.041707817    3437.3582    1458.4582    931.70823    890.69242    28.380849    18.847093    14.337744 0.00032141715 0.00032124037 0.0012626456 0.0012582095    301.83668     41.49527    35.978931    34.423473    90.016431    119.66323    90.107069    801.68176    192.85029    28.379519    18.849353    14.339882    28.381645    18.846159    14.338043 
  200000    299.46415    1.2509986    3416.0813            0            0            0            0   -3832.9651    44657.537 -0.067234084   -17.036218 -0.041707817    3416.0813     1433.297    934.98177    895.10817    28.379636    18.845072    14.337511 0.00036040534 0.00035875929 0.0013466575 0.0013461924    299.46415     41.49527    35.978931    34.423473    90.016431    119.66323    90.107069    855.02278     216.2432    28.379214    18.848271    14.338649    28.379175    18.845356    14.337478 
  210000    305.46307    1.2509986    3442.8891            0            0            0            0   -5579.8202    44657.537 -0.067234084   -17.036218 -0.041707817    3442.8891    1437.6163    954.34983    895.13511     28.38193    18.844546    14.338337 0.00036966483 0.00036909666 0.0013062997 0.0013047208    305.46307     41.49527    35.978931    34.423473    90.016431    119.66323    90.107069    829.39869     221.7989    28.380229     18.84868    14.339706    28.380545     18.84515    14.338232 
  220000    299.28463    1.2509986    3399.7222            0            0            0            0    -6925.997    44657.537 -0.067234084   -17.036218 -0.041707817    3399.7222    1409.2771    923.87723    910.82071    28.378651    18.846597    14.337207 0.0003542031 0.00035015038 0.0013216385 0.0013214537    299.28463     41.49527    35.978931    34.423473    90.016431    119.66323    90.107069    839.13767    212.52186    28.378523    18.847942    14.338283    28.379574    18.845697    14.336983 
  230000    300.28596    1.2509986    3517.1604            0            0            0            0    -5142.269    44657.537 -0.067234084   -17.036218 -0.041707817    3517.1604    1478.2823    960.20184    924.15781    28.380888    18.846341    14.337216 0.00036904666 0.00036657718 0.0013155605 0.0013141698    300.28596     41.49527    35.978931    34.423473    90.016431    119.66323    90.107069    835.27859      221.428    28.379302    18.848422    14.341072    28.380368    18.844643    14.336639 
  240000    303.50956    1.2509986    3376.3811            0            0            0            0   -4967.9462    44657.537 -0.067234084   -17.036218 -0.041707817    3376.3811    1412.8909    932.82862    877.77844    28.378941    18.845693    14.337268 0.0003531188 0.00035173593 0.0012693573 0.0012671044    303.50956     41.49527    35.978931    34.423473    90.016431    119.66323    90.107069    805.94315    211.87128     28.38041    18.848283    14.339288    28.380744    18.845837    14.338384 
  250000    301.72193    1.2509986    3508.3708            0            0            0            0   -6065.5104    44657.537 -0.067234084   -17.036218 -0.041707817    3508.3708    1466.0129    994.72495    892.81365    28.378148    18.845476    14.337032 0.00035595188 0.00035532638 0.0012948688 0.0012932347    301.72193     41.49527    35.978931    34.423473    90.016431    119.66323    90.107069    822.14095    213.57113    28.379183    18.849069    14.338943    28.378761    18.845095    14.337886 
  260000    292.80127    1.2509986    3425.2262            0            0            0            0   -5526.4953    44657.537 -0.067234084   -17.036218 -0.041707817    3425.2262    1432.2083    929.14212    904.29558    28.379139     18.84561    14.337007 0.00036166113 0.00036041483 0.0012625894 0.0012623821    292.80127     41.49527    35.978931    34.423473    90.016431    119.66323    90.107069    801.64608    216.99668    28.380398    18.849598    14.339195    28.379525    18.845216    14.337023 
  270000      302.541    1.2509986    3447.0458            0            0            0            0   -5995.6549    44657.537 -0.067234084   -17.036218 -0.041707817    3447.0458    1426.1376    953.37753    908.79807    28.379388    18.845019    14.337824 0.0003251226 0.00032202246   0.00125081 0.0012502508      302.541     41.49527    35.978931    34.423473    90.016431    119.66323    90.107069    794.16704    195.07356    28.378698    18.847962    14.338516    28.379287    18.845399    14.337791 
  280000    298.48778    1.2509986    3508.2387            0            0            0            0   -4849.7399    44657.537 -0.067234084   -17.036218 -0.041707817    3508.2387    1473.8809    962.97974     918.5836       28.381    18.845371     14.33788 0.00035223365 0.00035131138 0.0013166734 0.0013150975    298.48778     41.49527    35.978931    34.423473    90.016431    119.66323    90.107069    835.98518    211.34019    28.378755     18.84938    14.339258    28.380334     18.84661    14.337145 
  290000     295.1838    1.2509986      3488.09            0            0            0            0   -4400.3354    44657.537 -0.067234084   -17.036218 -0.041707817      3488.09     1449.403    956.88477    917.98652    28.382459    18.845907    14.337667 0.00036087908 0.0003602939 0.0013043707 0.0013035464     295.1838     41.49527    35.978931    34.423473    90.016431    119.66323    90.107069    828.17397    216.52745     28.38027    18.848747    14.339565    28.380151    18.845209    14.336465 
  300000    297.38611    1.2509986    3419.0783            0            0            0            0   -5169.2755    44657.537 -0.067234084   -17.036218 -0.041707817    3419.0783    1393.5229    934.23043    928.69986    28.380002    18.844761    14.338119 0.00034905419 0.00034725123 0.0013142008 0.0013133511    297.38611     41.49527    35.978931    34.423473    90.016431    119.66323    90.107069    834.41529    209.43251    28.378876    18.849057    14.340795     28.37901    18.845596    14.337703 
  310000     295.9343    1.2509986    3452.0626            0            0            0            0   -6478.6841    44657.537 -0.067234084   -17.036218 -0.041707817    3452.0626    1461.3664    929.96792      903.458    28.379131    18.846102    14.336867 0.00035592969 0.00035340185 0.0013054508 0.0013053574     295.9343     41.49527    35.978931    34.423473    90.016431    119.66323    90.107069    828.85975    213.55781    28.379001    18.850281    14.338856    28.379784    18.845375    14.337552 
  320000    295.22997    1.2509986     3459.338            0            0            0            0   -5483.7671    44657.537 -0.067234084   -17.036218 -0.041707817     3459.338    1449.8951    967.37162    892.21325    28.382895      18.8459    14.337955 0.00030731552 0.00030501734 0.0013011476 0.0013004346    295.22997     41.49527    35.978931    34.423473    90.016431    119.66323    90.107069    826.12752    184.38931    28.380335    18.850152    14.339009    28.380511    18.845027    14.337108 
  330000     292.9774    1.2509986    3498.6769            0            0            0            0   -4694.3857    44657.537 -0.067234084   -17.036218 -0.041707817    3498.6769    1468.9734     985.6405    891.24995    28.380858    18.846815    14.337661 0.00033937194 0.00033812591 0.0012878013 0.0012872414     292.9774     41.49527    35.978931    34.423473    90.016431    119.66323    90.107069    817.65365    203.62316     28.37949     18.84811    14.338986    28.379823    18.846204    14.337432 
  340000    302.36538    1.2509986    3444.0871            0            0            0            0   -7336.6422    44657.537 -0.067234084   -17.036218 -0.041707817    3444.0871     1414.532    983.68587     891.5562    28.379029    18.844173    14.336272 0.00035958759 0.00035820692  0.001319464 0.0013181332    302.36538     41.49527    35.978931    34.423473    90.016431    119.66323    90.107069    837.75698    215.75255    28.378471      18.8486    14.339818    28.380811    18.845296    14.336715 
  350000    302.70105    1.2509986    3411.3349            0            0            0            0    -4506.547    44657.537 -0.067234084   -17.036218 -0.041707817    3411.3349    1390.1824    936.62708    922.24643    28.381543    18.845865    14.337869 0.00037387932 0.00037220645 0.0013015095 0.0013001249    302.70105     41.49527    35.978931    34.423473    90.016431    119.66323    90.107069    826.35729    224.32759    28.379939    18.849844    14.340552    28.380766     18.84602    14.337686 
  360000    296.69362    1.2509986     3431.201            0            0            0            0   -5972.8217    44657.537 -0.067234084   -17.036218 -0.041707817     3431.201    1433.7466    950.36208    893.58114    28.380485    18.844959     14.33769 0.00034068548 0.00034032178 0.0012711608 0.0012704891    296.69362     41.49527    35.978931    34.423473    90.016431    119.66323    90.107069    807.08825    204.41129    28.379084    18.849256    14.339353    28.380574    18.845611    14.337533 
  370000    295.67909    1.2509986    3421.2544            0            0            0            0   -6255.7545    44657.537 -0.067234084   -17.036218 -0.041707817    3421.2544    1432.9639    946.08794    887.10086     28.38103    18.846798    14.338227 0.00034154857 0.00034080078 0.0012760425 0.0012754381    295.67909     41.49527    35.978931    34.423473    90.016431    119.66323    90.107069    810.18774    204.92914    28.379769    18.849835    14.339477    28.379934    18.845764    14.337976 
  380000    297.34886    1.2509986    3416.6266            0            0            0            0   -4574.4596    44657.537 -0.067234084   -17.036218 -0.041707817    3416.6266    1380.1076    944.40859    931.99762    28.379606     18.84586    14.337172 0.00039391519 0.00039297123  0.001311124 0.0013105385    297.34886     41.49527    35.978931    34.423473    90.016431    119.66323    90.107069    832.46176    236.34911    28.379271    18.848106    14.339437    28.380183    18.845085     14.33672 
  390000    297.54633    1.2509986    3418.2114            0            0            0            0   -5022.7942    44657.537 -0.067234084   -17.036218 -0.041707817    3418.2114    1431.4488    911.78252    912.32716    28.377116    18.845507    14.336796 0.0003547845  0.000353511 0.0012925429 0.0012923608    297.54633     41.49527    35.978931    34.423473    90.016431    119.66323    90.107069     820.6642     212.8707    28.380256    18.848196    14.339295    28.379598    18.845823    14.337388 
  400000    299.44109    1.2509986    3376.7291            0            0            0            0   -5087.6901    44657.537 -0.067234084   -17.036218 -0.041707817    3376.7291    1389.0695    948.92911    881.57887    28.382199    18.846485    14.337678 0.0003508084 0.00035049569 0.0012651599 0.0012630426    299.44109     41.49527    35.978931    34.423473    90.016431    119.66323    90.107069    803.27815    210.48504    28.379512    18.848656    14.340066    28.380267    18.844584    14.336207 
  410000    295.22476    1.2509986    3469.0213            0            0            0            0   -6679.4834    44657.537 -0.067234084   -17.036218 -0.041707817    3469.0213    1485.8439    925.37016    902.18234    28.380646    18.846789    14.337835 0.00031521165 0.00031336895  0.001331118 0.0013307462    295.22476     41.49527    35.978931    34.423473    90.016431    119.66323    90.107069     845.1564    189.12699    28.379701    18.847663     14.33961    28.379698    18.845802    14.337766 
  420000    297.43607    1.2509986    3435.0836            0            0            0            0   -7048.2744    44657.537 -0.067234084   -17.036218 -0.041707817    3435.0836    1418.5835    940.23304     912.7964     28.38019    18.845398    14.337232 0.00035544057 0.00035496083 0.0012464921 0.0012458913    297.43607     41.49527    35.978931    34.423473    90.016431    119.66323    90.107069    791.42555    213.26434    28.379132    18.848902    14.339102    28.380024    18.845354    14.336529 
  430000    300.33667    1.2509986    3443.6024            0            0            0            0   -4754.2893    44657.537 -0.067234084   -17.036218 -0.041707817    3443.6024    1445.8501    942.85593    902.75274    28.377094    18.845429     14.33616 0.00035749072 0.0003563887  0.001276298 0.0012750186    300.33667     41.49527    35.978931    34.423473    90.016431    119.66323    90.107069    810.34996    214.49443     28.37946    18.848948    14.340681    28.378736    18.845207    14.337039 
  440000    303.30786    1.2509986    3324.9126            0            0            0            0    -3703.229    44657.537 -0.067234084   -17.036218 -0.041707817    3324.9126    1405.1407    902.10727    869.22371    28.379961    18.846752    14.336833 0.00033265416 0.00033114666 0.0012660599 0.0012648154    303.30786     41.49527    35.978931    34.423473    90.016431    119.66323    90.107069    803.84956     199.5925     28.37971    18.847859    14.340028    28.380683    18.845827    14.336663 
  450000    293.78691    1.2509986    3480.8504            0            0            0            0   -6558.5614    44657.537 -0.067234084   -17.036218 -0.041707817    3480.8504    1429.4945    962.42893    930.92897    28.381715    18.843221    14.338277 0.00035280374 0.00035131729 0.0012906998 0.0012895445    293.78691     41.49527    35.978931    34.423473    90.016431    119.66323    90.107069    819.49401    211.68225    28.379646    18.847798    14.339676    28.380868    18.845272    14.337259 
  460000    299.68592    1.2509986    3444.6181            0            0            0            0   -6211.6778    44657.537 -0.067234084   -17.036218 -0.041707817    3444.6181    1439.3103    944.77823    899.77784    28.377128    18.847404    14.336197 0.00033461227 0.0003325787  0.001294055 0.0012926482    299.68592     41.49527    35.978931    34.423473    90.016431    119.66323    90.107069     821.6243    200.76736    28.379341    18.849491    14.338312    28.380084    18.846599    14.337524 
  470000    291.30834    1.2509986    3544.9931            0            0            0            0   -6161.0427    44657.537 -0.067234084   -17.036218 -0.041707817    3544.9931    1477.0421    954.65634    946.42921    28.377305    18.846695    14.336105 0.00037105121 0.00036809591 0.0012370441 0.0012351398    291.30834     41.49527    35.978931    34.423473    90.016431    119.66323    90.107069    785.42678    222.63072    28.379966    18.848938     14.33797    28.378679    18.846231    14.337487 
  480000    300.95202    1.2509986    3471.7784            0            0            0            0   -6542.0206    44657.537 -0.067234084   -17.036218 -0.041707817    3471.7784    1438.7058    977.24979    899.71247    28.378179    18.846397    14.336814 0.00033030085 0.00032873731 0.0012974359 0.0012966257    300.95202     41.49527    35.978931    34.423473    90.016431    119.66323    90.107069    823.77091    198.18051    28.379878    18.848951    14.340845    28.379315    18.846221    14.337192 
  490000    296.56158    1.2509986    3463.0924            0            0            0            0   -6771.7228    44657.537 -0.067234084   -17.036218 -0.041707817    3463.0924    1436.1764    931.77542    935.95164    28.379425     18.84587    14.337461 0.00034192207 0.0003409533 0.0012382468 0.0012370819    296.56158     41.49527    35.978931    34.423473    90.016431    119.66323    90.107069    786.19043    205.15324    28.378863    18.848342    14.339832    28.380415    18.845006    14.338027 
  500000    298.71276    1.2509986    3383.2557            0            0            0            0   -5052.7601    44657.537 -0.067234084   -17.036218 -0.041707817    3383.2557    1411.9279    929.59867     887.8696    28.380976    18.845702    14.337816 0.00037669714 0.00037244201 0.0013051131 0.0013041576    298.71276     41.49527    35.978931    34.423473    90.016431    119.66323    90.107069     828.6453    226.01829     28.38131     18.84897    14.340724    28.379381    18.846346    14.337363 
  510000    305.46286    1.2509986     3419.134            0            0            0            0   -4491.6782    44657.537 -0.067234084   -17.036218 -0.041707817     3419.134    1439.4578    937.47672    885.20873    28.379179    18.845384    14.336788 0.00031537474 0.00031260198 0.0012394243 0.0012387091    305.46286     41.49527    35.978931    34.423473    90.016431    119.66323    90.107069      786.938    189.22485    28.379485    18.850592    14.340163    28.379401    18.844821    14.336919 
  520000    299.26311    1.2509986    3481.9134            0            0            0            0   -5806.5832    44657.537 -0.067234084   -17.036218 -0.041707817    3481.9134    1462.5237    928.51722    929.05433    28.379715    18.845302    14.336905 0.00037864541 0.0003785139 0.0012857494 0.0012852866    299.26311     41.49527    35.978931    34.423473    90.016431    119.66323    90.107069    816.35089    227.18725    28.379574    18.849268    14.339895    28.380091    18.845469    14.336644 
  530000     292.5134    1.2509986    3469.8139            0            0            0            0   -7392.7825    44657.537 -0.067234084   -17.036218 -0.041707817    3469.8139    1460.0702     961.0629    892.90949    28.380776    18.845614       14.338 0.0003193097 0.00031912231 0.0012422702 0.0012419559     292.5134     41.49527    35.978931    34.423473    90.016431    119.66323    90.107069    788.74498    191.58582     28.37977    18.848843    14.339302    28.379764    18.845302    14.337796 
  540000     301.4199    1.2509986     3448.485            0            0            0            0   -6433.0685    44657.537 -0.067234084   -17.036218 -0.041707817     3448.485    1424.1471    975.62831    895.93253    28.379663    18.846192    14.337283 0.00035280198 0.00035071134   0.00127389 0.0012728022     301.4199     41.49527    35.978931    34.423473    90.016431    119.66323    90.107069    808.82104    211.68119    28.379359    18.850418     14.33936    28.380792    18.845632    14.336944 
  550000    302.98308    1.2509986    3431.5861            0            0            0            0   -6149.0306    44657.537 -0.067234084   -17.036218 -0.041707817    3431.5861    1420.1464    940.72692    912.68722    28.378903     18.84436    14.337024 0.00036142603 0.00036007735 0.0013055526 0.0013050077    302.98308     41.49527    35.978931    34.423473    90.016431    119.66323    90.107069    828.92437    216.85562    28.380162    18.848283    14.338968    28.379452    18.844901    14.337558 
  560000    304.61239    1.2509986    3392.2973            0            0            0            0   -6212.7371    44657.537 -0.067234084   -17.036218 -0.041707817    3392.2973    1420.2685    920.74827    894.72409    28.378691    18.845108    14.336883  0.000348589 0.00034815579 0.0013182005 0.0013179028    304.61239     41.49527    35.978931    34.423473    90.016431    119.66323    90.107069    836.95476     209.1534    28.380199    18.849157    14.339632    28.379566    18.845958    14.337203 
  570000    295.05334    1.2509986     3456.823            0            0            0            0   -5644.9079    44657.537 -0.067234084   -17.036218 -0.041707817     3456.823    1432.3041    977.29364    891.40878    28.379615    18.845937    14.337754 0.00032386722 0.00032298787 0.0012508989 0.0012502674    295.05334     41.49527    35.978931    34.423473    90.016431    119.66323    90.107069    794.22348    194.32033    28.380144    18.848358    14.339963    28.379643    18.846248    14.337192 
  580000     294.4582    1.2509986    3522.4915            0            0            0            0   -6074.8843    44657.537 -0.067234084   -17.036218 -0.041707817    3522.4915    1442.7775     968.0446    946.11418    28.378019      18.8465    14.336579 0.00035376549 0.00035263565 0.0012009341 0.0012009045     294.4582     41.49527    35.978931    34.423473    90.016431    119.66323    90.107069    762.49974     212.2593    28.380528    18.849325    14.339342    28.379692    18.845367    14.337203 
  590000     296.8062    1.2509986    3454.5777            0            0            0            0   -4983.9742    44657.537 -0.067234084   -17.036218 -0.041707817    3454.5777    1423.2716    956.94903    917.74523    28.376814    18.844676    14.336832 0.00036232351 0.0003614502 0.0012256969  0.001224997     296.8062     41.49527    35.978931    34.423473    90.016431    119.66323    90.107069     778.2222    217.39411    28.378655    18.849214     14.33978    28.379352    18.845506    14.336566 
  600000    297.91725    1.2509986    3509.7667            0            0            0            0   -6703.0519    44657.537 -0.067234084   -17.036218 -0.041707817    3509.7667    1460.9277    981.15888     910.6968    28.379445     18.84679    14.337405 0.00032613313 0.00032560314 0.0012838403 0.0012823012    297.91725     41.49527    35.978931    34.423473    90.016431    119.66323    90.107069    815.13875    195.67988    28.380153    18.848605    14.339555    28.380971    18.845039    14.337343 
  610000    293.32279    1.2509986    3391.8906            0            0            0            0   -4198.7318    44657.537 -0.067234084   -17.036218 -0.041707817    3391.8906     1429.672    901.30765    903.97458    28.380298    18.847592     14.33657 0.00032063554 0.00031828081 0.0012862296 0.0012858544    293.32279     41.49527    35.978931    34.423473    90.016431    119.66323    90.107069    816.65573    192.38132    28.379183    18.850467    14.339319    28.379966      18.8457    14.336716 
  620000    298.11599    1.2509986    3482.4703            0            0            0            0   -4938.5943    44657.537 -0.067234084   -17.036218 -0.041707817    3482.4703    1464.6023    978.12993    885.87659    28.380493    18.846339    14.338569 0.00035884742 0.0003561101 0.0012955245  0.001294636    298.11599     41.49527    35.978931    34.423473    90.016431    119.66323    90.107069    822.55728    215.30845     28.38119     18.84926     14.33955    28.380536    18.846056    14.337425 
  630000    297.92042    1.2509986    3454.3838            0            0            0            0   -7922.7047    44657.537 -0.067234084   -17.036218 -0.041707817    3454.3838    1457.1896    927.92373    913.18162    28.381496     18.84677    14.337144 0.00033579845 0.00033304509 0.0013245834 0.0013238808    297.92042     41.49527    35.978931    34.423473    90.016431    119.66323    90.107069    841.00742    201.47907     28.37952    18.847426    14.340121    28.380248    18.846019    14.336799 
  640000    298.81255    1.2509986    3434.5165            0            0            0            0   -4547.3892    44657.537 -0.067234084   -17.036218 -0.041707817    3434.5165    1468.8008    948.26135    867.35086    28.380201    18.845094    14.337078 0.00035228838 0.00035107822 0.0013400406 0.0013390108    298.81255     41.49527    35.978931    34.423473    90.016431    119.66323    90.107069    850.82155    211.37303      28.3792    18.848551    14.338705    28.380374    18.845994    14.336598 
  650000     296.1021    1.2509986    3476.9985            0            0            0            0   -6472.9157    44657.537 -0.067234084   -17.036218 -0.041707817    3476.9985    1462.7341    954.95209    904.90455    28.379435    18.846631    14.337344 0.00038712022 0.00038651103 0.0012751773 0.0012747477     296.1021     41.49527    35.978931    34.423473    90.016431    119.66323    90.107069    809.63839    232.27213    28.379971    18.848779    14.340256    28.380082    18.845228     14.33672 
  660000    298.36052    1.2509986     3473.399            0            0            0            0   -5589.1532    44657.537 -0.067234084   -17.036218 -0.041707817     3473.399    1456.6375    946.02861    913.32159    28.380542    18.845653    14.337814 0.00035385706 0.00035364141 0.0012499356 0.0012493704    298.36052     41.49527    35.978931    34.423473    90.016431    119.66323    90.107069    793.61186    212.31424    28.379514    18.848888    14.340083    28.380085    18.844779    14.337178 
  670000    299.01109    1.2509986    3457.8762            0            0            0            0   -5325.5654    44657.537 -0.067234084   -17.036218 -0.041707817    3457.8762     1407.771    939.63491    948.41535     28.37948    18.844772    14.336631 0.00032730608 0.00032641323 0.0013118088 0.0013106759    299.01109     41.49527    35.978931    34.423473    90.016431    119.66323    90.107069    832.89655    196.38365     28.37863    18.848831    14.339614    28.380119    18.845477    14.336245 
  680000    300.02474    1.2509986    3416.1279            0            0            0            0   -5772.8707    44657.537 -0.067234084   -17.036218 -0.041707817    3416.1279    1405.7235    927.06316     923.5582    28.379655    18.844103    14.336418 0.00034920277 0.00034861746 0.0012975722 0.0012963455    300.02474     41.49527    35.978931    34.423473    90.016431    119.66323    90.107069    823.85743    209.52166    28.379282    18.848303    14.339714    28.379744    18.844977    14.336277 
  690000    300.57873    1.2509986    3423.4447            0            0            0            0   -5721.3992    44657.537 -0.067234084   -17.036218 -0.041707817    3423.4447    1412.3758    934.37611    915.00433    28.379514    18.846608    14.336616 0.00035639246 0.00035367093 0.0012780406   0.00127796    300.57873     41.49527    35.978931    34.423473    90.016431    119.66323    90.107069    811.45637    213.83548    28.378488    18.849289    14.340864    28.380092    18.845495    14.337222 
  700000    299.58147    1.2509986    3460.9264            0            0            0            0   -5226.8996    44657.537 -0.067234084   -17.036218 -0.041707817    3460.9264    1421.7307    970.27898    908.18207     28.37893    18.845524    14.336722 0.00039256712 0.00039020253 0.0012700953 0.0012690159    299.58147     41.49527    35.978931    34.423473    90.016431    119.66323    90.107069    806.41174    235.54027    28.380125     18.84823    14.338443    28.379924     18.84616    14.336492 
  710000    298.15093    1.2509986    3457.5858            0            0            0            0   -4809.2099    44657.537 -0.067234084   -17.036218 -0.041707817    3457.5858    1438.0964    976.07037    888.67427    28.380435      18.8466    14.337227 0.00034892706 0.00034874928 0.0012680424 0.0012676374    298.15093     41.49527    35.978931    34.423473    90.016431    119.66323    90.107069     805.1083    209.35623     28.37917     18.84917     14.33958    28.380277    18.845878    14.337102 
  720000    299.68449    1.2509986    3429.5241            0            0            0            0    -5485.034    44657.537 -0.067234084   -17.036218 -0.041707817    3429.5241    1441.7924     958.7036    879.90978    28.380618    18.845637    14.337897 0.00034050571 0.00033916283 0.0012743644 0.0012741971    299.68449     41.49527    35.978931    34.423473    90.016431    119.66323    90.107069    809.12226    204.30343    28.379455    18.848392    14.340611    28.379528    18.845395    14.337548 
  730000    301.28686    1.2509986    3460.7364            0            0            0            0   -5125.6052    44657.537 -0.067234084   -17.036218 -0.041707817    3460.7364    1418.5382    974.45894    914.72526    28.379178    18.845367    14.337247 0.0003416013 0.00034059054 0.0012774524 0.0012768756    301.28686     41.49527    35.978931    34.423473    90.016431    119.66323    90.107069    811.08294    204.96078    28.378976    18.849603    14.339068    28.379643    18.844746    14.337131 
  740000    296.52015    1.2509986    3430.2838            0            0            0            0   -5234.1464    44657.537 -0.067234084   -17.036218 -0.041707817    3430.2838    1401.6309    969.92104    901.89844    28.379867     18.84597    14.337543 0.00034241931 0.00033940421 0.0013007759 0.0012984641    296.52015     41.49527    35.978931    34.423473    90.016431    119.66323    90.107069    825.89155    205.45158    28.379159    18.849263     14.34131    28.378497    18.845821    14.336585 
  750000    297.57626    1.2509986    3473.3375            0            0            0            0   -4331.4039    44657.537 -0.067234084   -17.036218 -0.041707817    3473.3375    1465.5671    936.74124     910.2713    28.380254    18.845188    14.337724 0.00036442953 0.00036252777 0.0013752479 0.0013740552    297.57626     41.49527    35.978931    34.423473    90.016431    119.66323    90.107069    873.17546    218.65772    28.380755    18.849688    14.339735    28.380511    18.845941    14.337961 
  760000    294.37536    1.2509986    3393.5692            0            0            0            0   -4764.4259    44657.537 -0.067234084   -17.036218 -0.041707817    3393.5692    1391.0108    980.38565    870.83669    28.382437    18.845436    14.337945 0.00036826238 0.00036782193 0.0012834571 0.0012811133    294.37536     41.49527    35.978931    34.423473    90.016431    119.66323    90.107069    814.89545    220.95743    28.379711    18.848441    14.339937    28.381139    18.844838    14.337686 
  770000    302.09337    1.2509986    3489.1047            0            0            0            0    -4458.442    44657.537 -0.067234084   -17.036218 -0.041707817    3489.1047     1443.548    982.46585    907.24481    28.377972    18.846273     14.33661 0.00034802691 0.00034589582 0.0013456398 0.0013454821    302.09337     41.49527    35.978931    34.423473    90.016431    119.66323    90.107069    854.37658    208.81615    28.378145    18.848679    14.339476    28.380174    18.845618    14.337342 
  780000    295.28271    1.2509986    3402.2117            0            0            0            0   -5057.8513    44657.537 -0.067234084   -17.036218 -0.041707817    3402.2117    1484.7344    892.94666    870.72997    28.380376    18.846725    14.337392 0.00036271211 0.00036141687 0.0012959728 0.0012938263    295.28271     41.49527    35.978931    34.423473    90.016431    119.66323    90.107069    822.84191    217.62727    28.378508    18.849455    14.339632    28.378957    18.846663    14.337217 
  790000     290.2416    1.2509986    3418.7645            0            0            0            0   -7556.7207    44657.537 -0.067234084   -17.036218 -0.041707817    3418.7645    1408.8404    934.41192    911.42633    28.378606    18.845613    14.336537 0.00035151936 0.00035095789 0.0012888335 0.0012868008     290.2416     41.49527    35.978931    34.423473    90.016431    119.66323    90.107069      818.309    210.91161     28.37923    18.848563    14.339136    28.380855    18.845712    14.336322 
  800000    292.57149    1.2509986    3430.1715            0            0            0            0   -6069.5867    44657.537 -0.067234084   -17.036218 -0.041707817    3430.1715     1428.704    952.61044    891.28075    28.379248    18.845175    14.338235 0.00032782847 0.0003272784    0.0013452 0.0013449312    292.57149     41.49527    35.978931    34.423473    90.016431    119.66323    90.107069    854.09734    196.69708    28.379818    18.848739    14.340276    28.379991    18.845399    14.337745 
  810000    303.14237    1.2509986    3453.2899            0            0            0            0    -4759.247    44657.537 -0.067234084   -17.036218 -0.041707817    3453.2899    1482.6589    940.20618    881.34933    28.379634    18.846023    14.337648 0.00034355999 0.00034291496 0.0012554575 0.0012543753    303.14237     41.49527    35.978931    34.423473    90.016431    119.66323    90.107069    797.11789    206.13599       28.379    18.849511    14.339342    28.380791    18.845567    14.337604 
  820000    302.89888    1.2509986    3483.3275            0            0            0            0   -7456.8795    44657.537 -0.067234084   -17.036218 -0.041707817    3483.3275    1475.1816    966.69052     888.0441    28.380456    18.845261    14.338317 0.00034402911 0.00034293074 0.0012307974 0.0012296039    302.89888     41.49527    35.978931    34.423473    90.016431    119.66323    90.107069    781.46063    206.41746    28.380102    18.849886    14.339441    28.380343    18.844534    14.337428 
  830000    294.72162    1.2509986    3456.7179            0            0            0            0    -4751.695    44657.537 -0.067234084   -17.036218 -0.041707817    3456.7179    1427.9461    1011.2814    867.41178    28.381936    18.846022     14.33786 0.00039389962 0.00039250834 0.0013791774 0.0013786487    294.72162     41.49527    35.978931    34.423473    90.016431    119.66323    90.107069    875.67039    236.33977    28.380462    18.849128    14.340385    28.380518    18.845306    14.337312 
  840000    296.47375    1.2509986    3390.4143            0            0            0            0   -4974.1658    44657.537 -0.067234084   -17.036218 -0.041707817    3390.4143     1444.772    939.63923    856.32636    28.380786    18.846031     14.33791 0.00035023666 0.00034890057 0.0013081413 0.0013070628    296.47375     41.49527    35.978931    34.423473    90.016431    119.66323    90.107069    830.56794    210.14199    28.380326     18.84943    14.340392    28.379066    18.846196    14.337311 
  850000    294.87063    1.2509986    3497.3608            0            0            0            0   -5056.2135    44657.537 -0.067234084   -17.036218 -0.041707817    3497.3608    1458.2115    966.14994    914.34009    28.380583    18.844307    14.338388 0.00035639669 0.00035528056  0.001302047 0.0013008576    294.87063     41.49527    35.978931    34.423473    90.016431    119.66323    90.107069    826.69857    213.83801    28.379895    18.848012    14.339606    28.379836    18.845028    14.338259 
  860000     291.2548    1.2509986    3433.1188            0            0            0            0   -4986.4789    44657.537 -0.067234084   -17.036218 -0.041707817    3433.1188    1428.4207     978.0199    876.98432    28.379417    18.846969    14.336839 0.00034706372 0.00034637078 0.0012681356 0.0012676843     291.2548     41.49527    35.978931    34.423473    90.016431    119.66323    90.107069    805.16745    208.23823    28.379461    18.848771    14.338847    28.379975    18.846101    14.337086 
  870000    296.15994    1.2509986    3468.8016            0            0            0            0   -5846.7487    44657.537 -0.067234084   -17.036218 -0.041707817    3468.8016    1475.2046    949.67396    892.15463    28.377334    18.847304    14.336287 0.00037907189 0.00037757837 0.0012790303 0.0012780752    296.15994     41.49527    35.978931    34.423473    90.016431    119.66323    90.107069    812.08478    227.44313    28.380297    18.849539    14.338821    28.379085    18.846069    14.336996 
  880000    293.67083    1.2509986    3448.6265            0            0            0            0   -5073.2425    44657.537 -0.067234084   -17.036218 -0.041707817    3448.6265     1424.276    930.49411     933.3649    28.377937    18.847554    14.336293 0.00033221525 0.00033183969 0.0012816507 0.0012813215    293.67083     41.49527    35.978931    34.423473    90.016431    119.66323    90.107069    813.74853    199.32915    28.380029      18.8491    14.339257     28.37976    18.845978    14.336994 
  890000    306.40124    1.2509986    3407.8765            0            0            0            0    -4313.274    44657.537 -0.067234084   -17.036218 -0.041707817    3407.8765    1412.3231    964.11507    881.83308    28.378576    18.845746    14.337079 0.00039089844 0.00038987172 0.0012342424 0.0012333386    306.40124     41.49527    35.978931    34.423473    90.016431    119.66323    90.107069    783.64792    234.53906    28.379329    18.848452    14.338826    28.380178      18.8448    14.337826 
  900000    296.73923    1.2509986    3470.1662            0            0            0            0   -6572.6166    44657.537 -0.067234084   -17.036218 -0.041707817    3470.1662    1470.6851    938.88684    904.07737    28.381844    18.846254    14.337568 0.0003349821 0.00033383417 0.0013320975  0.001330858    296.73923     41.49527    35.978931    34.423473    90.016431    119.66323    90.107069     845.7783    200.98926    28.380029    18.848728    14.338719    28.379722    18.846162    14.336394 
  910000    299.74015    1.2509986    3419.5241            0            0            0            0   -7028.4223    44657.537 -0.067234084   -17.036218 -0.041707817    3419.5241    1437.3958    917.09802    902.46574    28.378434    18.846555    14.336919 0.00034363505 0.00034251979 0.0012660613 0.0012653799    299.74015     41.49527    35.978931    34.423473    90.016431    119.66323    90.107069    803.85048    206.18103    28.380117    18.849438    14.340426     28.37902    18.845662    14.337399 
  920000      298.743    1.2509986    3468.5957            0            0            0            0   -5961.2485    44657.537 -0.067234084   -17.036218 -0.041707817    3468.5957    1471.2274    965.79168    879.03944    28.377143    18.846417    14.337869 0.00036842422 0.0003669618 0.0012832667 0.0012823234      298.743     41.49527    35.978931    34.423473    90.016431    119.66323    90.107069    814.77456    221.05453    28.379799    18.847828    14.339636     28.37962    18.845523    14.338215 
  930000    295.89468    1.2509986    3458.6999            0            0            0            0   -4125.5622    44657.537 -0.067234084   -17.036218 -0.041707817    3458.6999    1450.1862    962.48679    891.29542    28.377813    18.846502    14.336671 0.00035397631 0.00035049711 0.0013548476 0.0013524639    295.89468     41.49527    35.978931    34.423473    90.016431    119.66323    90.107069    860.22286    212.38579    28.378029    18.848309    14.338832    28.379235    18.846381    14.336155 
  940000    300.32164    1.2509986    3462.6315            0            0            0            0   -4469.6588    44657.537 -0.067234084   -17.036218 -0.041707817    3462.6315    1455.2207    978.12542    878.70321    28.381855    18.846384    14.338446 0.0003541492 0.00034929144 0.0012873296 0.0012844975    300.32164     41.49527    35.978931    34.423473    90.016431    119.66323    90.107069    817.35419    212.48952    28.380287    18.850209    14.337937    28.380257    18.846984    14.337861 
  950000    301.15959    1.2509986    3389.3564            0            0            0            0   -5864.1959    44657.537 -0.067234084   -17.036218 -0.041707817    3389.3564    1414.7906    910.61951     905.2423    28.381081    18.846417    14.337548 0.00036712672 0.00036614032  0.001302364 0.0013012173    301.15959     41.49527    35.978931    34.423473    90.016431    119.66323    90.107069    826.89987    220.27603    28.380542    18.849067     14.33953    28.379114     18.84531    14.336469 
  960000    293.68665    1.2509986    3422.1421            0            0            0            0   -5521.7269    44657.537 -0.067234084   -17.036218 -0.041707817    3422.1421    1459.6124    945.02518    864.57653    28.379401    18.845573    14.336413 0.00033036988 0.00032873823 0.0013134582 0.0013102415    293.68665     41.49527    35.978931    34.423473    90.016431    119.66323    90.107069     833.9438    198.22193    28.380468    18.849866     14.33937    28.381226    18.846334    14.336572 
  970000    289.63512    1.2509986    3512.2964            0            0            0            0   -4786.9628    44657.537 -0.067234084   -17.036218 -0.041707817    3512.2964    1445.6307     968.7683    939.57472    28.380936    18.845894     14.33815 0.00038059825 0.00037790184 0.0013254798 0.0013237191    289.63512     41.49527    35.978931    34.423473    90.016431    119.66323    90.107069    841.57657    228.35895      28.3793    18.847588    14.338864    28.380957    18.845226    14.337887 
  980000     300.2343    1.2509986     3436.539            0            0            0            0   -5488.7222    44657.537 -0.067234084   -17.036218 -0.041707817     3436.539    1441.5034    959.36335    882.82326    28.378481    18.845529    14.336414 0.00036994471 0.00036830977 0.0012373814 0.0012355863     300.2343     41.49527    35.978931    34.423473    90.016431    119.66323    90.107069    785.64094    221.96683    28.380257    18.847978    14.339909    28.379651    18.845237    14.335956 
  990000    299.31891    1.2509986    3439.2443            0            0            0            0   -4062.9561    44657.537 -0.067234084   -17.036218 -0.041707817    3439.2443    1424.2574    939.50629    918.44126    28.379206    18.846169    14.338075 0.00034684635 0.00034376138 0.0013087137 0.0013079438    299.31891     41.49527    35.978931    34.423473    90.016431    119.66323    90.107069    830.93139    208.10781    28.381082    18.848242    14.339235    28.379112    18.845807    14.337676 
 1000000    297.30525    1.2509986    3456.5154            0            0            0            0   -4422.8872    44657.537 -0.067234084   -17.036218 -0.041707817    3456.5154     1458.867    964.05963    885.64462    28.379036     18.84503    14.337567 0.0003532221 0.00035279136 0.0012843979 0.0012818113    297.30525     41.49527    35.978931    34.423473    90.016431    119.66323    90.107069    815.49278    211.93326    28.379451    18.848517    14.340055    28.379484     18.84436    14.338377 
 1010000    298.07932    1.2509986    3427.8578            0            0            0            0   -5076.6594    44657.537 -0.067234084   -17.036218 -0.041707817    3427.8578    1460.3045    932.08066    885.85968    28.380716    18.846374    14.337251 0.00038386288 0.00038194574 0.0012696726 0.0012683363    298.07932     41.49527    35.978931    34.423473    90.016431    119.66323    90.107069    806.14332    230.31773    28.379459    18.847735    14.340162     28.37962    18.846573    14.336962 
 1020000    300.56369    1.2509986    3387.5541            0            0            0            0    -4583.739    44657.537 -0.067234084   -17.036218 -0.041707817    3387.5541    1432.2539    933.89409    870.74578    28.378592    18.844424    14.337225 0.00037374271 0.00037137754 0.0013308663 0.0013307701    300.56369     41.49527    35.978931    34.423473    90.016431    119.66323    90.107069    844.99656    224.24563    28.378629    18.847792    14.339759    28.379719    18.845179    14.337252 
 1030000    293.41404    1.2509986    3396.0492            0            0            0            0   -4789.1474    44657.537 -0.067234084   -17.036218 -0.041707817    3396.0492    1410.6805    926.52289    899.26789     28.37656    18.845498    14.337249 0.00036324842 0.00036225356 0.0013079691 0.0013074844    293.41404     41.49527    35.978931    34.423473    90.016431    119.66323    90.107069    830.45865    217.94905    28.378924    18.849647    14.340078    28.379716    18.845738    14.337901 
 1040000    301.24531    1.2509986    3463.2286            0            0            0            0   -4777.2467    44657.537 -0.067234084   -17.036218 -0.041707817    3463.2286    1462.7394    951.05716    895.87391    28.379644    18.845425    14.337289 0.00035160867 0.00035086727 0.0013443077 0.0013430179    301.24531     41.49527    35.978931    34.423473    90.016431    119.66323    90.107069     853.5308     210.9652    28.378975    18.848588     14.34011    28.379077    18.845829    14.336475 
 1050000    295.40349    1.2509986    3454.4684            0            0            0            0   -4941.7485    44657.537 -0.067234084   -17.036218 -0.041707817    3454.4684    1463.9079    898.81853    929.17289     28.38121    18.846415    14.338666 0.00033547622 0.00033511485 0.0013355583 0.0013351202    295.40349     41.49527    35.978931    34.423473    90.016431    119.66323    90.107069    847.97566    201.28573    28.379112    18.849238    14.339974    28.380058    18.845573    14.337871 
 1060000    295.44301    1.2509986     3468.383            0            0            0            0   -5119.5512    44657.537 -0.067234084   -17.036218 -0.041707817     3468.383    1449.0909    974.45842    891.01043    28.380199    18.845553    14.336569 0.00033703628 0.00033650158  0.001285116 0.0012839874    295.44301     41.49527    35.978931    34.423473    90.016431    119.66323    90.107069    815.94869    202.22177    28.380179    18.849271    14.339922    28.379898    18.846011    14.336352 
 1070000    296.29354    1.2509986    3388.2046            0            0            0            0   -3461.3173    44657.537 -0.067234084   -17.036218 -0.041707817    3388.2046    1430.5996    920.49659    884.85692    28.378478    18.846839    14.336374 0.00035127518 0.00034997511  0.001331022 0.0013304081    296.29354     41.49527    35.978931    34.423473    90.016431    119.66323    90.107069    845.09545    210.76511    28.379547    18.849105    14.338502    28.379953     18.84557      14.3365 
 1080000    300.20179    1.2509986     3433.242            0            0            0            0   -4436.1574    44657.537 -0.067234084   -17.036218 -0.041707817     3433.242    1414.7425    982.18606    884.40525    28.380575    18.845516    14.336526 0.00038589377 0.00038409574 0.0013090517 0.0013074035    300.20179     41.49527    35.978931    34.423473    90.016431    119.66323    90.107069    831.14602    231.53626    28.378925     18.84845    14.340678    28.380578    18.846186    14.336519 
 1090000    295.50008    1.2509986     3387.752            0            0            0            0    -5717.565    44657.537 -0.067234084   -17.036218 -0.041707817     3387.752    1411.6904    964.10937    866.83399    28.381845    18.845837    14.338355 0.00034138906 0.00034098114 0.0012442447 0.0012430298    295.50008     41.49527    35.978931    34.423473    90.016431    119.66323    90.107069    789.99857    204.83343     28.37913     18.84854    14.339585    28.380788    18.845443    14.337776 
 1100000    300.27779    1.2509986    3416.6692            0            0            0            0   -4952.5957    44657.537 -0.067234084   -17.036218 -0.041707817    3416.6692    1410.0411    942.33447    907.96272    28.378919     18.84569    14.336608 0.00038626839 0.00038577999 0.0012520873 0.0012509067    300.27779     41.49527    35.978931    34.423473    90.016431    119.66323    90.107069    794.97804    231.76103    28.378867    18.848926    14.339562    28.379145    18.845631    14.336421 
 1110000    292.95163    1.2509986    3426.9662            0            0            0            0   -5869.2623    44657.537 -0.067234084   -17.036218 -0.041707817    3426.9662    1433.8556    959.16391    879.57045    28.376706    18.845184    14.335723 0.00035620221 0.00035566684 0.0012671908 0.0012655089    292.95163     41.49527    35.978931    34.423473    90.016431    119.66323    90.107069    804.56757    213.72133    28.379909    18.849083    14.340275    28.378692    18.845602    14.336623 
 1120000    298.69767    1.2509986    3444.2304            0            0            0            0   -4284.0539    44657.537 -0.067234084   -17.036218 -0.041707817    3444.2304    1412.7148    988.13678    885.95452    28.379839    18.844463     14.33807 0.00037238782 0.00036944891 0.0013478551  0.001346881    298.69767     41.49527    35.978931    34.423473    90.016431    119.66323    90.107069    855.78312    223.43269    28.380349    18.847505    14.339831     28.37918    18.845295    14.338001 
 1130000    302.51264    1.2509986    3427.7026            0            0            0            0   -5242.4853    44657.537 -0.067234084   -17.036218 -0.041707817    3427.7026    1376.9567    975.27893     919.8233    28.379562    18.846188    14.337935 0.00034402484 0.00034213381 0.0012876961 0.0012841091    302.51264     41.49527    35.978931    34.423473    90.016431    119.66323    90.107069    817.58683     206.4149    28.379936    18.847777    14.340108    28.380163    18.847196    14.337971 
 1140000    295.78325    1.2509986    3398.3577            0            0            0            0   -4718.3671    44657.537 -0.067234084   -17.036218 -0.041707817    3398.3577    1420.6614     938.7289    886.37372    28.377938    18.844732    14.336898 0.00036681065 0.00036530871 0.0012889199  0.001288387    295.78325     41.49527    35.978931    34.423473    90.016431    119.66323    90.107069    818.36391    220.08639    28.380752    18.848827     14.33944    28.379611    18.845257    14.336597 
 1150000    304.39027    1.2509986    3491.2777            0            0            0            0   -5720.0665    44657.537 -0.067234084   -17.036218 -0.041707817    3491.2777    1469.0303    942.98056    923.09563    28.379403    18.846584    14.337328 0.00036569304 0.00036465479 0.0013162586 0.0013147267    304.39027     41.49527    35.978931    34.423473    90.016431    119.66323    90.107069     835.7218    219.41582     28.37949    18.849972      14.3393    28.380178    18.846378    14.338027 
 1160000    299.91057    1.2509986    3483.5348            0            0            0            0   -7670.0849    44657.537 -0.067234084   -17.036218 -0.041707817    3483.5348    1455.6075    922.20406    941.04308     28.38102    18.845554     14.33776 0.00035081797 0.00034943622 0.0013103033  0.001309176    299.91057     41.49527    35.978931    34.423473    90.016431    119.66323    90.107069    831.94065    210.49078    28.378806    18.848186    14.339272    28.380687    18.846027    14.337026 
 1170000    298.54673    1.2509986     3416.627            0            0            0            0   -4344.3547    44657.537 -0.067234084   -17.036218 -0.041707817     3416.627    1437.0648    976.68828    857.18596    28.380059    18.845944    14.337539 0.00033847815 0.00033762764 0.0013068516  0.001306695    298.54673     41.49527    35.978931    34.423473    90.016431    119.66323    90.107069    829.74912    203.08689    28.378894    18.848373    14.339684    28.379583    18.845589    14.336962 
 1180000    303.04901    1.2509986    3411.2787            0            0            0            0   -6604.1605    44657.537 -0.067234084   -17.036218 -0.041707817    3411.2787    1455.6335    939.82909    867.31072    28.379181    18.845414    14.336765 0.00034940927 0.0003490025 0.0012665061 0.0012661213    303.04901     41.49527    35.978931    34.423473    90.016431    119.66323    90.107069    804.13288    209.64556    28.378974    18.849264    14.339703    28.379875    18.845104    14.336771 
 1190000    296.48236    1.2509986    3409.5166            0            0            0            0   -5004.5142    44657.537 -0.067234084   -17.036218 -0.041707817    3409.5166    1455.7097    930.75105    866.95997    28.378777    18.845305    14.337187  0.000336285 0.00033434858 0.0012541853 0.0012539387    296.48236     41.49527    35.978931    34.423473    90.016431    119.66323    90.107069    796.31013      201.771    28.378848    18.848218    14.340534    28.379804    18.845954    14.337135 
 1200000    294.27887    1.2509986    3431.0525            0            0            0            0   -5127.2482    44657.537 -0.067234084   -17.036218 -0.041707817    3431.0525    1468.8328    947.78652    863.75767    28.379909    18.846757    14.337827 0.00035566606 0.00035520373 0.0013096898 0.0013078657    294.27887     41.49527    35.978931    34.423473    90.016431    119.66323    90.107069    831.55112    213.39964    28.380164    18.849297     14.33975    28.381077    18.845897    14.337477 
 1210000    301.23376    1.2509986    3475.7689            0            0            0            0   -5358.4936    44657.537 -0.067234084   -17.036218 -0.041707817    3475.7689    1449.6273    951.82326    913.72716    28.378774    18.844884    14.337108 0.00032105167 0.00031852792 0.0012970237 0.0012957303    301.23376     41.49527    35.978931    34.423473    90.016431    119.66323    90.107069    823.50915      192.631    28.379081    18.847628    14.339022    28.380475    18.846388    14.337401 
 1220000    300.33994    1.2509986    3550.2431            0            0            0            0     -5273.04    44657.537 -0.067234084   -17.036218 -0.041707817    3550.2431    1464.5635    985.53894     939.0355    28.379517    18.847695    14.336869 0.00038189666 0.00037979497 0.0013142182 0.0013122854    300.33994     41.49527    35.978931    34.423473    90.016431    119.66323    90.107069    834.42631    229.13799    28.380757    18.848202    14.339589    28.378755     18.84622    14.336755 
 1230000    297.71004    1.2509986    3445.5239            0            0            0            0   -4833.0371    44657.537 -0.067234084   -17.036218 -0.041707817    3445.5239    1465.8722     953.1762    872.16455    28.381112    18.846282    14.337574 0.00036415848 0.00036225411  0.001240551 0.0012395631    297.71004     41.49527    35.978931    34.423473    90.016431    119.66323    90.107069    787.65341    218.49509    28.380714     18.84965    14.340037     28.37905    18.845992    14.336892 
 1240000    294.73714    1.2509986    3481.1765            0            0            0            0   -4804.3297    44657.537 -0.067234084   -17.036218 -0.041707817    3481.1765    1454.2983    976.39602    892.09678    28.378266    18.845707    14.336572 0.00034450402 0.00034336975 0.0012388295 0.0012381359    294.73714     41.49527    35.978931    34.423473    90.016431    119.66323    90.107069    786.56039    206.70241    28.380152    18.849436    14.340413    28.379566    18.844934     14.33668 
 1250000    298.80889    1.2509986    3519.0365            0            0            0            0   -5238.6736    44657.537 -0.067234084   -17.036218 -0.041707817    3519.0365     1472.851    986.77789    901.24829    28.378915    18.846128    14.336319 0.00033680816 0.00033608766 0.0012950606 0.0012947309    298.80889     41.49527    35.978931    34.423473    90.016431    119.66323    90.107069    822.26278    202.08489    28.379784    18.848438    14.339057     28.38024    18.845472    14.336881 
 1260000    296.11897    1.2509986    3448.6626            0            0            0            0   -4412.4793    44657.537 -0.067234084   -17.036218 -0.041707817    3448.6626    1465.6751    923.75371    904.04692    28.379094    18.845189    14.337055 0.0003415927 0.00033805019 0.0012844435 0.0012838044    296.11897     41.49527    35.978931    34.423473    90.016431    119.66323    90.107069    815.52171    204.95562    28.379626    18.847631    14.338363    28.379065    18.845611    14.337015 
 1270000    299.29502    1.2509986    3416.9456            0            0            0            0   -5804.2528    44657.537 -0.067234084   -17.036218 -0.041707817    3416.9456     1397.724    935.82134    923.27342    28.379865    18.845425     14.33763 0.00036251769 0.00036092854 0.0013090842 0.0013090227    299.29502     41.49527    35.978931    34.423473    90.016431    119.66323    90.107069    831.16663    217.51061    28.379462    18.847826    14.339224    28.379907    18.845639    14.337106 
 1280000    298.44153    1.2509986    3543.8118            0            0            0            0   -4649.2169    44657.537 -0.067234084   -17.036218 -0.041707817    3543.8118    1489.8571    946.70024    942.92309    28.379336    18.845521    14.337896 0.00031220721 0.00031177611 0.0013026812 0.0013021367    298.44153     41.49527    35.978931    34.423473    90.016431    119.66323    90.107069    827.10126    187.32433    28.379998    18.848732    14.340034    28.379081    18.845496    14.337366 
 1290000    303.77441    1.2509986    3404.3262            0            0            0            0   -3806.9067    44657.537 -0.067234084   -17.036218 -0.041707817    3404.3262    1409.6462    945.53653    895.76443      28.3799     18.84619    14.337108 0.0003552177 0.0003543896 0.0013376571 0.0013348608    303.77441     41.49527    35.978931    34.423473    90.016431    119.66323    90.107069    849.30819    213.13062    28.379517    18.848841    14.340531    28.381384     18.84579    14.337739 
 1300000    297.83341    1.2509986    3497.7524            0            0            0            0   -3715.9297    44657.537 -0.067234084   -17.036218 -0.041707817    3497.7524    1475.2268    946.92651    921.53414     28.38085    18.845814    14.337849 0.00036087467 0.00035859775 0.0014137223 0.0014134002    297.83341     41.49527    35.978931    34.423473    90.016431    119.66323    90.107069    897.60372     216.5248     28.37971    18.847676    14.340322    28.379638    18.845891     14.33692 
 1310000    292.62107    1.2509986    3503.8014            0            0            0            0   -6498.3411    44657.537 -0.067234084   -17.036218 -0.041707817    3503.8014    1461.4551    984.25492    901.80565    28.382753    18.845092    14.338129 0.00031216357 0.00031028808 0.0012615065 0.0012610386    292.62107     41.49527    35.978931    34.423473    90.016431    119.66323    90.107069    800.95851    187.29814    28.380327    18.848255    14.338797    28.380347    18.845267    14.337636 
 1320000    297.60046    1.2509986    3406.7498            0            0            0            0   -5179.1122    44657.537 -0.067234084   -17.036218 -0.041707817    3406.7498    1381.4747    1003.4426    871.19404    28.380679    18.847476     14.33661  0.000361071 0.00035928106 0.0012355143 0.0012340066    297.60046     41.49527    35.978931    34.423473    90.016431    119.66323    90.107069    784.45551     216.6426     28.37909    18.848524    14.340793    28.380187    18.845659     14.33611 
 1330000     299.5833    1.2509986    3525.4975            0            0            0            0   -6145.3767    44657.537 -0.067234084   -17.036218 -0.041707817    3525.4975    1454.1963    995.58384    918.72511    28.378946    18.846558    14.336991 0.00034210716 0.00034117857 0.0012781192 0.0012768939     299.5833     41.49527    35.978931    34.423473    90.016431    119.66323    90.107069    811.50625     205.2643    28.379093    18.848795    14.340454     28.37907    18.844892    14.336685 
 1340000    295.75117    1.2509986    3436.3671            0            0            0            0   -5267.3322    44657.537 -0.067234084   -17.036218 -0.041707817    3436.3671    1423.1869     970.4331    888.61702    28.378925    18.846965    14.337245 0.00035767921 0.00035718745 0.0012767657 0.0012760575    295.75117     41.49527    35.978931    34.423473    90.016431    119.66323    90.107069    810.64694    214.60753    28.380064    18.849347    14.339989    28.380152    18.846211    14.337041 
 1350000    297.59526    1.2509986    3414.2491            0            0            0            0   -4986.3824    44657.537 -0.067234084   -17.036218 -0.041707817    3414.2491    1457.1971    916.07497    887.15927    28.378161    18.845565      14.3371 0.00034706152 0.00034583523 0.0013035804 0.0013028511    297.59526     41.49527    35.978931    34.423473    90.016431    119.66323    90.107069    827.67215    208.23691    28.379983    18.849981    14.339309    28.378961    18.845522     14.33722 
 1360000    297.65542    1.2509986     3467.704            0            0            0            0   -6884.3844    44657.537 -0.067234084   -17.036218 -0.041707817     3467.704    1447.4202    964.44006     899.6604    28.379253    18.845412    14.337591 0.00037778733 0.00037590963 0.0013110618 0.0013105788    297.65542     41.49527    35.978931    34.423473    90.016431    119.66323    90.107069    832.42229     226.6724    28.378412    18.849142    14.340381    28.379493      18.8449    14.337036 
 1370000    293.19455    1.2509986    3479.7224            0            0            0            0   -6402.5759    44657.537 -0.067234084   -17.036218 -0.041707817    3479.7224    1486.1605    964.56478    872.57626      28.3793    18.846227    14.337315 0.00034161275 0.00034100739 0.0013059721 0.0013049429    293.19455     41.49527    35.978931    34.423473    90.016431    119.66323    90.107069    829.19071    204.96765    28.380203     18.84917    14.339234    28.380489    18.846225    14.337346 
 1380000    297.13815    1.2509986    3454.8989            0            0            0            0   -4824.4173    44657.537 -0.067234084   -17.036218 -0.041707817    3454.8989    1444.1428    941.36099    910.82346    28.378192    18.846378    14.336843 0.00040143296 0.00040113791 0.0012656387 0.0012627885    297.13815     41.49527    35.978931    34.423473    90.016431    119.66323    90.107069    803.58212    240.85977    28.379893    18.848625    14.339815    28.379718    18.846969    14.336486 
 1390000    299.48062    1.2509986    3404.8449            0            0            0            0   -6823.1428    44657.537 -0.067234084   -17.036218 -0.041707817    3404.8449    1424.8237    935.10816    894.04093    28.379095     18.84485    14.336981 0.0003398681 0.00033802613 0.0012797422 0.0012782747    299.48062     41.49527    35.978931    34.423473    90.016431    119.66323    90.107069    812.53674    203.92086    28.380436    18.848062    14.339232    28.380668    18.845884    14.336511 
 1400000    299.46036    1.2509986    3494.5789            0            0            0            0   -4349.6584    44657.537 -0.067234084   -17.036218 -0.041707817    3494.5789    1462.4501    966.55948    911.23742    28.381086    18.844267    14.337275 0.00037513377 0.00037380159  0.001277926 0.0012761072    299.46036     41.49527    35.978931    34.423473    90.016431    119.66323    90.107069    811.38364    225.08026    28.378778    18.848161     14.33961    28.380822    18.844811    14.337864 
 1410000    297.67489    1.2509986    3418.9525            0            0            0            0   -4615.4073    44657.537 -0.067234084   -17.036218 -0.041707817    3418.9525    1429.1969    941.95403    894.09555    28.378597    18.845534    14.336676 0.00037165679 0.0003653845 0.0013017894 0.0013000203    297.67489     41.49527    35.978931    34.423473    90.016431    119.66323    90.107069    826.53503    222.99407    28.378442    18.850409    14.341393    28.378958    18.845061    14.336332 
 1420000    301.54972    1.2509986    3436.3979            0            0            0            0   -4914.2387    44657.537 -0.067234084   -17.036218 -0.041707817    3436.3979    1463.8519    936.36525    888.38449    28.381197    18.843936    14.338231 0.00036692029 0.00036507131   0.00138148 0.0013807763    301.54972     41.49527    35.978931    34.423473    90.016431    119.66323    90.107069    877.13233    220.15217    28.379175    18.848173    14.340637    28.379952    18.845365    14.338084 
 1430000    296.18489    1.2509986    3351.4634            0            0            0            0   -5759.3581    44657.537 -0.067234084   -17.036218 -0.041707817    3351.4634    1383.4074    914.22845    896.01727    28.380231    18.844478    14.337092 0.00037148636 0.00037043421  0.001305387 0.0013050505    296.18489     41.49527    35.978931    34.423473    90.016431    119.66323    90.107069     828.8192    222.89182    28.379023     18.84956    14.340322    28.379627    18.845775    14.336804 
 1440000    294.56227    1.2509986    3483.9021            0            0            0            0   -7522.0698    44657.537 -0.067234084   -17.036218 -0.041707817    3483.9021    1496.2327    930.52897    902.43535    28.380968    18.846719    14.338164 0.00038306931 0.00038190368 0.0012545439 0.0012514845    294.56227     41.49527    35.978931    34.423473    90.016431    119.66323    90.107069    796.53779    229.84159    28.380076     18.84873    14.340541    28.378418     18.84653    14.337233 
 1450000    300.88828    1.2509986    3462.1572            0            0            0            0   -4621.8327    44657.537 -0.067234084   -17.036218 -0.041707817    3462.1572    1418.2882    951.95779    928.60626    28.379414    18.846136    14.337368 0.00035175123 0.0003513479 0.0012727466 0.0012718352    300.88828     41.49527    35.978931    34.423473    90.016431    119.66323    90.107069    808.09509    211.05074    28.379862    18.849016    14.340195    28.380229    18.846223    14.337685 
 1460000    299.40211    1.2509986    3400.1421            0            0            0            0   -5320.8606    44657.537 -0.067234084   -17.036218 -0.041707817    3400.1421    1403.0924    968.27823    881.60662    28.378282    18.844266    14.337318 0.00036531776 0.00036053145 0.0013314675 0.0013310423    299.40211     41.49527    35.978931    34.423473    90.016431    119.66323    90.107069    845.37829    219.19066    28.379478    18.847555    14.341268    28.379913    18.844917    14.337587 
 1470000    303.15992    1.2509986    3419.8152            0            0            0            0   -6267.5081    44657.537 -0.067234084   -17.036218 -0.041707817    3419.8152    1429.6865    946.65812    888.58041    28.380509    18.844611    14.337728 0.00034193518 0.00034176459 0.0013120642 0.0013118066    303.15992     41.49527    35.978931    34.423473    90.016431    119.66323    90.107069     833.0587    205.16111     28.37936    18.849203    14.339948    28.379962    18.845005    14.337144 
 1480000    297.58859    1.2509986    3469.8799            0            0            0            0   -6671.1284    44657.537 -0.067234084   -17.036218 -0.041707817    3469.8799    1475.7205     952.3746     889.3616    28.380613    18.844538    14.338057 0.00036609723 0.00036560095 0.0013129946 0.0013116865    297.58859     41.49527    35.978931    34.423473    90.016431    119.66323    90.107069    833.64947    219.65834    28.379871    18.848395    14.339765    28.380583    18.845446    14.338109 
 1490000    292.42679    1.2509986    3346.8201            0            0            0            0   -5895.7848    44657.537 -0.067234084   -17.036218 -0.041707817    3346.8201    1372.0423    918.11836    899.72263    28.378704    18.847435    14.337101 0.00036252004 0.00035925186 0.0013653506 0.0013634317    292.42679     41.49527    35.978931    34.423473    90.016431    119.66323    90.107069    866.89141    217.51203    28.378315    18.848445    14.338453    28.381041    18.846095    14.337111 
 1500000    298.90152    1.2509986    3442.8209            0            0            0            0   -5455.9237    44657.537 -0.067234084   -17.036218 -0.041707817    3442.8209    1434.0178    941.87861    907.99011    28.380657    18.847094    14.338066 0.00037113996 0.00037012132 0.0012572092 0.0012553339    298.90152     41.49527    35.978931    34.423473    90.016431    119.66323    90.107069    798.23007    222.68398    28.380055    18.849886    14.339546    28.380568    18.845973    14.338292 
 1510000    299.82725    1.2509986    3584.6557            0            0            0            0   -6771.2221    44657.537 -0.067234084   -17.036218 -0.041707817    3584.6557    1478.7473    1047.2585    901.51522    28.377647    18.847038    14.336639 0.00036763636 0.00036714269 0.0013392242  0.001337853    299.82725     41.49527    35.978931    34.423473    90.016431    119.66323    90.107069     850.3032    220.58182    28.379119    18.848517    14.339874    28.379388    18.846363    14.336631 
 1520000    305.68888    1.2509986    3435.8074            0            0            0            0   -4891.8933    44657.537 -0.067234084   -17.036218 -0.041707817    3435.8074    1469.5136    946.53684    868.02538    28.383606     18.84469    14.338132 0.00035278531 0.0003516271 0.0012641335 0.0012620187    305.68888     41.49527    35.978931    34.423473    90.016431    119.66323    90.107069    802.62646    211.67119    28.379341    18.848079    14.340127    28.380018    18.844106    14.336816 
[...]
 1630000    294.91453    1.2509986    3395.1933            0            0            0            0    -6752.414    44657.537 -0.067234084   -17.036218 -0.041707817    3395.1933    1429.0907     926.6796    888.41919     28.38001    18.845231    14.337742 0.00032882397 0.00032600774 0.0013450688 0.0013446186    294.91453     41.49527    35.978931    34.423473    90.016431    119.66323    90.107069    854.01408    197.29438    28.379718    18.849794    14.341115    28.379172    18.845483    14.337467 
 1640000    298.19892    1.2509986    3426.6226            0            0            0            0   -7423.7214    44657.537 -0.067234084   -17.036218 -0.041707817    3426.6226    1439.6815    984.79897    855.95369    28.380014    18.844393    14.337564 0.00037620519 0.00037525555 0.0013348696 0.0013345485    298.19892     41.49527    35.978931    34.423473    90.016431    119.66323    90.107069    847.53836    225.72311    28.378878    18.849006    14.338939    28.380228    18.845646    14.337609 
 1650000    300.86285    1.2509986    3370.6964            0            0            0            0   -4485.4154    44657.537 -0.067234084   -17.036218 -0.041707817    3370.6964    1407.5729    924.35058    885.86812    28.381052    18.845751    14.337673 0.0003464136 0.00034165163 0.0013225914 0.0013216309    300.86285     41.49527    35.978931    34.423473    90.016431    119.66323    90.107069    839.74269    207.84816    28.378714     18.84804    14.337876    28.379883    18.846409    14.336979 
 1660000    303.17416    1.2509986    3400.2314            0            0            0            0   -6561.9208    44657.537 -0.067234084   -17.036218 -0.041707817    3400.2314     1441.173    932.12919     874.7929    28.380448    18.846143    14.337284 0.00037924183 0.00037792973 0.0012985111 0.0012979018    303.17416     41.49527    35.978931    34.423473    90.016431    119.66323    90.107069    824.45353     227.5451    28.378779    18.848542    14.340335    28.380393    18.845452    14.336744 
 1670000    296.90681    1.2509986    3376.1714            0            0            0            0   -4291.6363    44657.537 -0.067234084   -17.036218 -0.041707817    3376.1714    1410.1895    964.29849    854.96139    28.378728    18.845214     14.33711 0.00032980741 0.00032951315 0.0012109739 0.0012107395    296.90681     41.49527    35.978931    34.423473    90.016431    119.66323    90.107069    768.87423    197.88444    28.379954    18.848682    14.339801    28.379361    18.845327    14.337166 
 1680000    296.68763    1.2509986    3458.6757            0            0            0            0   -6333.8391    44657.537 -0.067234084   -17.036218 -0.041707817    3458.6757     1427.492    947.99205    923.51171    28.381046    18.845653     14.33727 0.00036890781 0.00036470042 0.0013129595  0.001311846    296.68763     41.49527    35.978931    34.423473    90.016431    119.66323    90.107069    833.62716    221.34469    28.379074    18.847144    14.340332     28.38085     18.84559    14.337111 
 1690000    303.56274    1.2509986    3506.8108            0            0            0            0   -6878.1177    44657.537 -0.067234084   -17.036218 -0.041707817    3506.8108    1466.2198    965.66695    911.81919    28.379945    18.845252    14.337397 0.00031386007 0.00031285145  0.001269641 0.0012693922    303.56274     41.49527    35.978931    34.423473    90.016431    119.66323    90.107069    806.12329    188.31604    28.378626    18.848635    14.339666    28.379516    18.845184    14.337542 
 1700000    295.65442    1.2509986    3525.5677            0            0            0            0   -4724.4793    44657.537 -0.067234084   -17.036218 -0.041707817    3525.5677    1423.5045    1013.1207    929.30722    28.378985    18.844647    14.337716 0.00038394136 0.00038310745 0.0013329389 0.0013310172    295.65442     41.49527    35.978931    34.423473    90.016431    119.66323    90.107069     846.3125    230.36482    28.379585    18.849654    14.340288    28.380083    18.844353    14.338033 
 1710000    295.71626    1.2509986    3398.6337            0            0            0            0   -6274.3692    44657.537 -0.067234084   -17.036218 -0.041707817    3398.6337    1412.7642    938.63167     893.0701    28.376735    18.845368    14.336797 0.00033137448 0.00033085171 0.0012546053 0.0012542742    295.71626     41.49527    35.978931    34.423473    90.016431    119.66323    90.107069    796.57677    198.82469    28.379756    18.849581    14.339238    28.379506    18.845814    14.336915 
 1720000    300.21163    1.2509986    3402.0914            0            0            0            0    -3859.456    44657.537 -0.067234084   -17.036218 -0.041707817    3402.0914    1439.3027    906.19071    899.30202    28.378313    18.846445    14.336222 0.00037386149 0.00036787569 0.0012337472 0.0012301235    300.21163     41.49527    35.978931    34.423473    90.016431    119.66323    90.107069    783.33349    224.31689    28.379514    18.846576    14.339425    28.378501    18.845957    14.335971 
 1730000    297.01664    1.2509986    3440.1768            0            0            0            0   -2819.7775    44657.537 -0.067234084   -17.036218 -0.041707817    3440.1768    1433.6541    957.50875     894.0867    28.380621    18.845199    14.337407 0.00038910609 0.00038694489 0.0013385493 0.0013376089    297.01664     41.49527    35.978931    34.423473    90.016431    119.66323    90.107069    849.87472    233.46365    28.379972    18.847692    14.339144    28.380677    18.845602    14.336844 
 1740000    296.71897    1.2509986    3508.0952            0            0            0            0   -5423.9439    44657.537 -0.067234084   -17.036218 -0.041707817    3508.0952     1448.373    982.45164    921.28882    28.380834    18.845353    14.337548 0.00037432637 0.00037412367 0.0012944871 0.0012934722    296.71897     41.49527    35.978931    34.423473    90.016431    119.66323    90.107069    821.89864    224.59582     28.37931    18.849225    14.339326    28.379346    18.846296    14.337614 
 1750000    303.63976    1.2509986    3484.4606            0            0            0            0   -5054.5768    44657.537 -0.067234084   -17.036218 -0.041707817    3484.4606    1457.8355    973.69696    897.58543    28.378043    18.846125     14.33725 0.0003379082 0.00033690966 0.0012953622 0.0012944933    303.63976     41.49527    35.978931    34.423473    90.016431    119.66323    90.107069    822.45425    202.74492    28.378918    18.849741    14.339393    28.378891    18.845617    14.337275 
 1760000    297.69451    1.2509986    3449.9343            0            0            0            0   -5785.4475    44657.537 -0.067234084   -17.036218 -0.041707817    3449.9343    1452.7876    974.46859    875.60753    28.379789    18.846961    14.336697 0.00037033044 0.00036798433 0.0012945642 0.0012909461    297.69451     41.49527    35.978931    34.423473    90.016431    119.66323    90.107069    821.94759    222.19827    28.380751    18.849888    14.339248    28.379846    18.846387    14.335596 
 1770000    302.54258    1.2509986    3453.8867            0            0            0            0   -6748.8275    44657.537 -0.067234084   -17.036218 -0.041707817    3453.8867     1447.736     988.4089    869.71969    28.379333    18.846217    14.337522 0.00035349938 0.00035240306 0.0013161729 0.0013154131    302.54258     41.49527    35.978931    34.423473    90.016431    119.66323    90.107069    835.66743    212.09963    28.379711    18.848219    14.340303    28.379671     18.84504    14.336522 
 1780000    296.12673    1.2509986    3405.7862            0            0            0            0   -5582.1354    44657.537 -0.067234084   -17.036218 -0.041707817    3405.7862    1413.8978    923.85449    913.83159    28.378937    18.845533    14.336609 0.00036469014 0.00036418661 0.0012462346 0.0012455435    296.12673     41.49527    35.978931    34.423473    90.016431    119.66323    90.107069    791.26207    218.81409    28.380137    18.849407    14.339741    28.380549    18.845454     14.33688 
 1790000    301.16894    1.2509986     3517.232            0            0            0            0   -6541.7233    44657.537 -0.067234084   -17.036218 -0.041707817     3517.232    1467.9376    959.83731    930.36263    28.378288    18.844744     14.33757 0.00035905249 0.00035669939 0.0012932259 0.0012922297    301.16894     41.49527    35.978931    34.423473    90.016431    119.66323    90.107069    821.09787    215.43149    28.379767    18.847519    14.339915    28.379066    18.844926    14.337637 
 1800000    301.15974    1.2509986    3420.3872            0            0            0            0   -6352.8245    44657.537 -0.067234084   -17.036218 -0.041707817    3420.3872    1416.1898    961.67436    889.08293    28.380277    18.846791    14.336757 0.00032944564 0.00032727993 0.0012705003  0.001269472    301.15974     41.49527    35.978931    34.423473    90.016431    119.66323    90.107069    806.66884    197.66738    28.379394    18.848802    14.341085    28.379601    18.845761    14.336315 
 1810000    299.39446    1.2509986    3497.3875            0            0            0            0   -5347.6551    44657.537 -0.067234084   -17.036218 -0.041707817    3497.3875    1487.7617    957.04633    899.42752    28.378842    18.844815    14.337657 0.00036198632 0.00036187558 0.0012793765 0.0012776166    299.39446     41.49527    35.978931    34.423473    90.016431    119.66323    90.107069    812.30454    217.19179    28.379367    18.848891    14.339883    28.378687    18.844788    14.337417 
 1820000     303.0526    1.2509986    3458.1903            0            0            0            0     -6287.92    44657.537 -0.067234084   -17.036218 -0.041707817    3458.1903     1473.215    970.96743    867.42122    28.380288       18.845    14.337065 0.00035144223 0.00034971279 0.0013048034 0.0013037268     303.0526     41.49527    35.978931    34.423473    90.016431    119.66323    90.107069    828.44866    210.86534    28.380624    18.848776    14.340369    28.379129    18.845815    14.336561 
 1830000    300.22743    1.2509986    3392.9186            0            0            0            0   -4819.6393    44657.537 -0.067234084   -17.036218 -0.041707817    3392.9186    1417.0097     921.8593    901.85262    28.378513     18.84729    14.336442 0.00031483546 0.00031457923 0.0012450109 0.0012440103    300.22743     41.49527    35.978931    34.423473    90.016431    119.66323    90.107069    790.48505    188.90128     28.37948    18.849279    14.339214     28.37917    18.846229    14.337126 
 1840000    298.03995    1.2509986     3496.037            0            0            0            0   -4423.2262    44657.537 -0.067234084   -17.036218 -0.041707817     3496.037    1469.2918    970.69761    897.93206    28.379729    18.844827    14.338022 0.00036234077 0.00035981332 0.0012835917 0.0012829448    298.03995     41.49527    35.978931    34.423473    90.016431    119.66323    90.107069    814.98091    217.40446    28.378887    18.850137    14.340541    28.379816    18.844878    14.337804 
 1850000     294.9418    1.2509986     3553.728            0            0            0            0   -5516.9048    44657.537 -0.067234084   -17.036218 -0.041707817     3553.728    1466.9456    982.77936    939.50455    28.378727    18.845805    14.336912 0.00034873997 0.00034741197 0.0012752844 0.0012739914     294.9418     41.49527    35.978931    34.423473    90.016431    119.66323    90.107069    809.70641    209.24398    28.380296    18.848977    14.338755    28.379205     18.84454    14.337493 
 1860000    298.87738    1.2509986    3493.5509            0            0            0            0   -4395.1762    44657.537 -0.067234084   -17.036218 -0.041707817    3493.5509     1470.264    950.18164    914.08736    28.380697    18.847183    14.337574 0.00037602228 0.00037380167 0.0012934346 0.0012906627    298.87738     41.49527    35.978931    34.423473    90.016431    119.66323    90.107069    821.23036    225.61337    28.378757     18.84844    14.338519    28.379582    18.847052    14.337744 
 1870000    301.23877    1.2509986    3438.8674            0            0            0            0   -5153.3585    44657.537 -0.067234084   -17.036218 -0.041707817    3438.8674    1468.2294     930.4265    886.72966    28.379809    18.846137    14.336441 0.0003654198 0.00036446793 0.0013093907 0.0013081073    301.23877     41.49527    35.978931    34.423473    90.016431    119.66323    90.107069    831.36122    219.25188    28.379001    18.849784    14.339859    28.380796    18.844918    14.337195 
 1880000    302.68688    1.2509986    3471.8863            0            0            0            0   -6770.5117    44657.537 -0.067234084   -17.036218 -0.041707817    3471.8863    1464.4525    975.40362    874.67517    28.379074    18.844355    14.336768 0.00032626668 0.00032589743 0.0012805131 0.0012789621    302.68688     41.49527    35.978931    34.423473    90.016431    119.66323    90.107069     813.0262    195.76001    28.378966    18.848903    14.339731    28.380551    18.845152    14.336315 
 1890000    295.60423    1.2509986    3405.5344            0            0            0            0   -4899.0239    44657.537 -0.067234084   -17.036218 -0.041707817    3405.5344    1430.3676    940.83094    884.84022    28.380046    18.845712    14.338418 0.00032845361 0.00032538421 0.0013128762 0.0013114697    295.60423     41.49527    35.978931    34.423473    90.016431    119.66323    90.107069    833.57428    197.07217    28.378971    18.849359    14.341252    28.378648     18.84525     14.33731 
 1900000     301.8976    1.2509986    3438.3079            0            0            0            0   -4909.5863    44657.537 -0.067234084   -17.036218 -0.041707817    3438.3079    1407.5846    963.81663    904.39017    28.379323    18.846431    14.337506 0.00034614303 0.00034537474 0.0012807939 0.0012797451     301.8976     41.49527    35.978931    34.423473    90.016431    119.66323    90.107069    813.20451    207.68582     28.37997    18.848401     14.34011    28.379163     18.84556    14.338052 
 1910000    302.98598    1.2509986    3371.0168            0            0            0            0   -6630.6703    44657.537 -0.067234084   -17.036218 -0.041707817    3371.0168    1453.4422    906.94774    859.47722    28.379062    18.845128    14.337069 0.00036477169 0.00036449186   0.00128377 0.0012832284    302.98598     41.49527    35.978931    34.423473    90.016431    119.66323    90.107069     815.0941    218.86302    28.379824     18.84883    14.340056    28.379344     18.84596    14.337559 
 1920000    298.22117    1.2509986    3401.5599            0            0            0            0   -6045.6615    44657.537 -0.067234084   -17.036218 -0.041707817    3401.5599    1462.4528    926.06411    862.66121    28.379682    18.844658    14.337031 0.00035917384 0.00035725919 0.0012633645 0.0012628006    298.22117     41.49527    35.978931    34.423473    90.016431    119.66323    90.107069     802.1382     215.5043    28.380202     18.84869    14.340819    28.380393    18.845792    14.337619 
 1930000    297.14422    1.2509986    3365.7649            0            0            0            0   -3591.0705    44657.537 -0.067234084   -17.036218 -0.041707817    3365.7649    1433.4735    928.61665    855.43018    28.376472    18.845917    14.336625 0.00034481741 0.00034404679  0.001260879 0.0012572383    297.14422     41.49527    35.978931    34.423473    90.016431    119.66323    90.107069     800.5601    206.89044     28.38021     18.84942    14.340061    28.378025    18.846004    14.336854 
 1940000    296.81642    1.2509986    3472.7724            0            0            0            0   -6079.1663    44657.537 -0.067234084   -17.036218 -0.041707817    3472.7724    1460.3664    929.32251    927.18802    28.379722    18.845688    14.336988 0.00035288539 0.00035242987 0.0013116622 0.0013098094    296.81642     41.49527    35.978931    34.423473    90.016431    119.66323    90.107069    832.80344    211.73123    28.379356    18.849642    14.339778    28.381126    18.845553    14.336919 
 1950000    303.04902    1.2509986    3431.4639            0            0            0            0   -4946.9114    44657.537 -0.067234084   -17.036218 -0.041707817    3431.4639    1442.3383    920.67299    906.77244    28.382047    18.844756     14.33844 0.00035977936 0.00035786603 0.0013308481 0.0013295719    303.04902     41.49527    35.978931    34.423473    90.016431    119.66323    90.107069    844.98504    215.86762    28.379358    18.847765    14.340201    28.380537    18.844627    14.337448 
 1960000    303.18318    1.2509986    3471.6206            0            0            0            0   -6087.0805    44657.537 -0.067234084   -17.036218 -0.041707817    3471.6206     1437.503    950.38234    926.93385    28.379286    18.846639    14.338052 0.00036098284 0.00035984441 0.0012237727 0.0012217854    303.18318     41.49527    35.978931    34.423473    90.016431    119.66323    90.107069    777.00048    216.58971     28.37974    18.848001    14.339924    28.378413      18.8453    14.337286 
 1970000    297.12625    1.2509986    3426.3355            0            0            0            0   -5268.0447    44657.537 -0.067234084   -17.036218 -0.041707817    3426.3355    1426.4668    933.31917    907.19536     28.37868    18.845174     14.33707 0.00036666024 0.00036516573 0.0012771668 0.0012767883    297.12625     41.49527    35.978931    34.423473    90.016431    119.66323    90.107069    810.90157    219.99614    28.380596    18.849008    14.340281    28.380356    18.845189    14.337234 
 1980000     297.2726    1.2509986    3367.8267            0            0            0            0   -4555.3678    44657.537 -0.067234084   -17.036218 -0.041707817    3367.8267    1382.1975    910.47012      916.315    28.379877    18.844912    14.337817 0.00032612785 0.00032363967 0.0012522003 0.0012521091     297.2726     41.49527    35.978931    34.423473    90.016431    119.66323    90.107069    795.04977    195.67671    28.379017     18.84761    14.340118    28.379975    18.845705    14.337371 
 1990000    297.61703    1.2509986    3470.9973            0            0            0            0   -6468.5837    44657.537 -0.067234084   -17.036218 -0.041707817    3470.9973    1407.5626    989.65643     916.3103     28.38005    18.845375    14.337335 0.00037980044 0.00037816669 0.0012887525 0.0012885444    297.61703     41.49527    35.978931    34.423473    90.016431    119.66323    90.107069    818.25762    227.88026    28.378705    18.848504    14.338832    28.379461    18.845221    14.337408 
 2000000    292.41046    1.2509986    3518.0165            0            0            0            0   -3921.4528    44657.537 -0.067234084   -17.036218 -0.041707817    3518.0165    1461.8476     973.0497    922.94897    28.379519    18.846276    14.337367 0.00032836008 0.0003280226 0.0013162631 0.0013142099    292.41046     41.49527    35.978931    34.423473    90.016431    119.66323    90.107069    835.72467    197.01605    28.379955    18.848591    14.339673    28.380812    18.846448    14.337588 
Loop time of 3664.71 on 20 procs for 2000000 steps with 4560 atoms

Pair  time (%) = 2685.04 (73.2673)
Bond  time (%) = 343.07 (9.36145)
Neigh time (%) = 42.3344 (1.15519)
Comm  time (%) = 445.15 (12.1469)
Outpt time (%) = 0.525086 (0.0143282)
Other time (%) = 148.597 (4.05481)

Nlocal:    228 ave 236 max 223 min
Histogram: 4 1 3 4 0 3 3 0 0 2
Nghost:    5775.25 ave 5829 max 5729 min
Histogram: 2 0 2 5 2 5 0 2 1 1
Neighs:    83669.2 ave 87288 max 80306 min
Histogram: 1 1 2 4 4 2 2 1 1 2

Total # of neighbors = 1673384
Ave neighs/atom = 366.97
Ave special neighs/atom = 10.6316
Neighbor list builds = 8892
Dangerous builds = 0
System init for write_data ...
