LAMMPS data file via write_data, version 15 May 2015, timestep = 1190000

4560 atoms
7 atom types
5040 bonds
3 bond types
7200 angles
2 angle types
10560 dihedrals
3 dihedral types
2400 impropers
1 improper types

-1.0763502675555259e-01 4.1387635026745990e+01 xlo xhi
-4.0433884491974936e-02 3.5938433884472119e+01 ylo yhi
-3.5711112484589691e-01 2.9555111124838550e+01 zlo zhi
-6.7234083837551181e-02 -1.7036217651000683e+01 -4.1707816797290791e-02 xy xz yz

Masses

1 12.0107
2 1.008
3 12.0107
4 12.0107
5 12.0107
6 12.0107
7 12.0107

Pair Coeffs # lj/cut/coul/long

1 0 3.55
2 0 2.42
3 0 3.55
4 0 3.55
5 0 3.55
6 0 0
7 0 3.55

Bond Coeffs # harmonic

1 469 1.4
2 367 1.08
3 469 0.7

Angle Coeffs # harmonic

1 35 120
2 63 120

Dihedral Coeffs # opls

1 0 7.25 0 0
2 0 7.25 0 0
3 0 7.25 0 0

Improper Coeffs # cvff

1 2.5 -1 2

Atoms # full

219 13 3 0.0000000000000000e+00 -2.3795353002957675e-01 3.0936062643810995e+00 3.1280814415630203e+00 1 0 0
220 13 4 -1.0630000000000001e-01 3.0445037699404520e-01 4.0954905801265173e+00 2.3557101676619414e+00 1 0 0
224 13 2 1.0630000000000001e-01 4.8964260039519569e-01 5.1074790551715594e+00 2.8030198536575797e+00 1 0 0
580 33 4 -1.0630000000000001e-01 2.6806745259720399e+00 6.7531039665752175e+00 3.9855757444261712e+00 1 0 0
228 13 3 0.0000000000000000e+00 -5.3226054977569537e-01 1.8339544022266123e+00 2.5855058274953575e+00 1 0 0
989 53 4 -1.0630000000000001e-01 -1.3739578420374403e+00 7.0342840262651718e+00 3.5075735146010674e+00 1 0 0
600 34 2 1.0630000000000001e-01 -7.7353515339751766e-02 5.7287551900285152e+00 6.9133426562407987e+00 1 0 0
245 14 4 -1.0630000000000001e-01 -4.9381048591088081e+00 1.4355872082651173e+00 9.0437216517670809e+00 1 0 0
227 13 4 -1.0630000000000001e-01 -1.7799630585335591e-01 1.5704911857590378e+00 1.2617627982586721e+00 1 0 0
4390 233 1 -1.0630000000000001e-01 2.4716934547342291e+00 8.4124796806862279e-01 5.5519405201615584e+00 1 1 0
733 13 6 0.0000000000000000e+00 -4.3359340181463124e-01 2.4412180450294425e+00 2.9452284023956197e+00 1 0 0
987 53 4 -1.0630000000000001e-01 -8.1678866407211970e-01 7.9682423827648678e+00 1.3297671403980580e+00 1 0 0
230 13 1 -1.0630000000000001e-01 8.1285476398006418e-01 3.7769325241043106e+00 1.1134517870080740e+00 1 0 0
217 13 7 -1.0630000000000001e-01 -1.1522040019779531e+00 2.4465937143181966e+00 5.2926037676840165e+00 1 0 0
218 13 5 -1.0630000000000001e-01 -5.7083860977925882e-01 3.4121379665736944e+00 4.5047967635591686e+00 1 0 0
221 13 1 -1.0630000000000001e-01 -1.4456762584308092e+00 1.1606619627398191e+00 4.7097118528833031e+00 1 0 0
222 13 2 1.0630000000000001e-01 -1.3888558223030016e+00 2.6126325348124051e+00 6.3536297656487539e+00 1 0 0
223 13 2 1.0630000000000001e-01 -2.6299638628108379e-01 4.3482536313825229e+00 4.9616913935760678e+00 1 0 0
248 14 1 -1.0630000000000001e-01 -3.5483772634743849e+00 3.4323860587647292e+00 8.6537348022393843e+00 1 0 0
4380 233 4 -1.0630000000000001e-01 2.5640539500117532e+00 1.1235411423992125e+00 4.1635733128219679e+00 1 1 0
244 14 1 -1.0630000000000001e-01 -4.1676573374060490e+00 2.2356135909222927e+00 8.1528565248569329e+00 1 0 0
603 34 2 1.0630000000000001e-01 9.2531966402772525e-01 3.5719631845694209e+00 7.5872897883402031e+00 1 0 0
4396 234 5 -1.0630000000000001e-01 -7.6369478381985445e-01 2.0086509312722489e-01 9.2559728433339608e+00 1 1 0
4394 233 2 1.0630000000000001e-01 1.8436397156363888e+00 1.4097106231549379e+00 6.2940592647015823e+00 1 1 0
579 33 3 0.0000000000000000e+00 3.3095644170384229e+00 5.8095570246954145e+00 3.1493217183624043e+00 1 0 0
252 14 2 1.0630000000000001e-01 -2.9103145006786137e+00 4.0343007394857917e+00 8.0167754262796720e+00 1 0 0
581 33 1 -1.0630000000000001e-01 4.6635631203009007e+00 4.0294813001965650e+00 1.4911196565498135e+00 1 0 0
596 34 5 -1.0630000000000001e-01 -5.4815915815437677e-01 6.3371982305364281e+00 8.8695918759688723e+00 1 0 0
577 33 7 -1.0630000000000001e-01 4.0821890811507613e+00 5.1879200090727817e+00 9.6275588281997004e-01 1 0 0
588 33 3 0.0000000000000000e+00 3.8143389765606273e+00 4.6288358432845094e+00 3.7107125780631804e+00 1 0 0
589 33 4 -1.0630000000000001e-01 4.5317217512592674e+00 3.7281508848411771e+00 2.8712895910306173e+00 1 0 0
593 33 2 1.0630000000000001e-01 4.8673670126687121e+00 2.8048822317210202e+00 3.1652123561112422e+00 1 0 0
753 33 6 0.0000000000000000e+00 3.6319992685256257e+00 5.1782002424102558e+00 3.3029855288775831e+00 1 0 0
4383 233 2 1.0630000000000001e-01 3.1718111067601740e+00 1.4321901627973479e+00 1.5421895454657020e+00 1 1 0
4379 233 3 0.0000000000000000e+00 3.2339801241732995e+00 2.1543751384067086e-01 3.2804232340907427e+00 1 1 0
578 33 5 -1.0630000000000001e-01 3.4854561224556422e+00 6.1250734286675259e+00 1.8122983043773706e+00 1 0 0
226 13 1 -1.0630000000000001e-01 5.5249077484482545e-01 2.5379820447661690e+00 5.6617578138385327e-01 1 0 0
4384 233 2 1.0630000000000001e-01 2.1680845406170168e+00 2.0549839244210606e+00 3.8246383998451421e+00 1 1 0
586 33 1 -1.0630000000000001e-01 3.1905041508565826e+00 5.3913916550243313e+00 5.9222540419248411e+00 1 0 0
587 33 4 -1.0630000000000001e-01 3.7716060762314698e+00 4.4094762094981901e+00 5.1482310573823336e+00 1 0 0
585 33 2 1.0630000000000001e-01 5.1699096515856731e+00 3.3438975467096999e+00 8.5369531585677283e-01 1 0 0
591 33 2 1.0630000000000001e-01 3.1481894299544075e+00 5.2884758216044201e+00 6.9890488569842200e+00 1 0 0
592 33 2 1.0630000000000001e-01 4.3272494032531323e+00 3.5537448613090636e+00 5.5743711332359602e+00 1 0 0
590 33 1 -1.0630000000000001e-01 2.5924614981312111e+00 6.5069878309079785e+00 5.3730996077120707e+00 1 0 0
1064 57 2 1.0630000000000001e-01 7.2506094859813013e+00 6.3645958759303811e+00 9.1992472267655279e-01 1 0 0
234 13 2 1.0630000000000001e-01 1.3405113367057639e+00 4.4834079760503416e+00 4.9227463111767833e-01 1 0 0
229 13 4 -1.0630000000000001e-01 -1.2392368169179515e+00 8.6263742367979102e-01 3.3413193579871563e+00 1 0 0
584 33 2 1.0630000000000001e-01 2.3141046569240080e+00 7.7186474824977926e+00 3.6034180944810807e+00 1 0 0
985 53 2 1.0630000000000001e-01 -1.5417785724992970e+00 6.3914343257643047e+00 5.5195522764850518e+00 1 0 0
599 34 1 -1.0630000000000001e-01 4.7156246733363005e-01 4.1748914131616877e+00 8.3340232705549617e+00 1 0 0
4401 234 2 1.0630000000000001e-01 -1.1336101534549048e+00 1.2138598131832739e+00 8.9424991354419259e+00 1 1 0
225 13 2 1.0630000000000001e-01 -1.9584309854195352e+00 4.6296183772639860e-01 5.3702793696018691e+00 1 0 0
595 34 7 -1.0630000000000001e-01 -4.4416590497347030e-03 5.4407183108248605e+00 7.9822805734384623e+00 1 0 0
981 53 1 -1.0630000000000001e-01 -1.1444527377812976e+00 7.1274424796271951e+00 4.8903470753053391e+00 1 0 0
4378 233 5 -1.0630000000000001e-01 3.4303636576756240e+00 4.9088991577354885e-01 1.9214017594105468e+00 1 1 0
582 33 2 1.0630000000000001e-01 4.0999896977680432e+00 5.4861336849069859e+00 -5.8197442052534742e-02 1 0 0
583 33 2 1.0630000000000001e-01 3.1378565359542696e+00 7.0711566613877874e+00 1.5070785990081916e+00 1 0 0
993 53 2 1.0630000000000001e-01 -1.8240735290960191e+00 6.1134847731356148e+00 3.1550030704600238e+00 1 0 0
232 13 2 1.0630000000000001e-01 -5.0427063218001744e-01 6.8289738168896119e-01 7.1308756902686143e-01 1 0 0
1493 53 6 0.0000000000000000e+00 -5.5005245842269956e-01 8.6524503622015363e+00 2.9772836578677087e+00 1 0 0
1009 54 2 1.0630000000000001e-01 -3.3414951000182866e+00 7.2385540585793811e+00 7.1511870751222153e+00 1 0 0
1005 54 4 -1.0630000000000001e-01 -4.5038798387370598e+00 7.2104084522899878e+00 8.8776289328909108e+00 1 0 0
594 33 2 1.0630000000000001e-01 2.1603936002634727e+00 7.2483884491668658e+00 5.9253695819701440e+00 1 0 0
977 53 7 -1.0630000000000001e-01 -6.0268323623794906e-01 8.2469198126291072e+00 5.4863995235527403e+00 1 0 0
982 53 2 1.0630000000000001e-01 -4.7120685632156967e-01 8.3164836547073371e+00 6.5721913501896889e+00 1 0 0
1004 54 1 -1.0630000000000001e-01 -3.4872551502090405e+00 7.6808189329477123e+00 8.0949017014400972e+00 1 0 0
988 53 3 0.0000000000000000e+00 -8.1494140119214820e-01 8.0387443140644166e+00 2.7420905360611449e+00 1 0 0
1353 73 2 1.0630000000000001e-01 4.9606282665470465e+00 8.7970368439233813e+00 2.9122034741992597e+00 1 0 0
601 34 2 1.0630000000000001e-01 -9.3118617893789057e-01 7.2569749269302974e+00 8.6192749867338048e+00 1 0 0
249 14 2 1.0630000000000001e-01 -4.0411417731216028e+00 1.9397780585397946e+00 7.1436688378448610e+00 1 0 0
1010 54 2 1.0630000000000001e-01 -5.0121515996672352e+00 6.2752710821086826e+00 8.5025986455058966e+00 1 0 0
322 18 2 1.0630000000000001e-01 2.8153912950125886e+00 1.5647074669774694e-01 9.0635312784162352e+00 1 0 0
1008 54 1 -1.0630000000000001e-01 -2.9658262045883612e+00 8.9353673601139612e+00 8.3926800868258233e+00 1 0 0
986 53 1 -1.0630000000000001e-01 -1.6387114973208688e-01 8.8542206000593193e+00 4.9710396043092109e-01 1 0 0
235 14 7 -1.0630000000000001e-01 -5.4170905763958812e+00 2.4011143157178365e+00 1.3066687476832938e+01 1 0 0
236 14 5 -1.0630000000000001e-01 -4.5496998973801173e+00 3.1293285687349601e+00 1.2320195862188552e+01 1 0 0
597 34 3 0.0000000000000000e+00 -6.3958343357917347e-01 5.8985135997213183e+00 1.0214252931658978e+01 1 0 0
734 14 6 0.0000000000000000e+00 -4.6392873109257886e+00 2.3422868782421831e+00 1.0498638507080342e+01 1 0 0
239 14 1 -1.0630000000000001e-01 -6.0930450569043773e+00 1.3030846415047206e+00 1.2516616656859011e+01 1 0 0
240 14 2 1.0630000000000001e-01 -5.5872556586215270e+00 2.6537136933426377e+00 1.4130391660437912e+01 1 0 0
243 14 2 1.0630000000000001e-01 -6.7220002897004267e+00 6.2853769515860658e-01 1.3122472738060054e+01 1 0 0
4416 235 4 -1.0630000000000001e-01 -5.8474260906925259e+00 8.6535100127090081e-01 1.9070746296111547e+01 1 1 0
4420 235 2 1.0630000000000001e-01 -6.2044177439695876e+00 1.8492549146218504e+00 1.8809098260959075e+01 1 1 0
237 14 3 0.0000000000000000e+00 -4.4337027681252792e+00 2.8884444451306814e+00 1.0928921941217357e+01 1 0 0
4402 234 2 1.0630000000000001e-01 -1.8417193468720177e+00 1.7691298973565048e+00 1.1186684456918462e+01 1 1 0
607 34 4 -1.0630000000000001e-01 4.4547059548784684e-01 3.7358717212917121e+00 9.6149428334083442e+00 1 0 0
242 14 2 1.0630000000000001e-01 -3.2352001576010312e+00 4.6110305610651432e+00 1.0330683590502810e+01 1 0 0
255 15 3 0.0000000000000000e+00 -8.7873400446294365e+00 3.1169444762115863e+00 1.8190817947075487e+01 1 0 0
256 15 4 -1.0630000000000001e-01 -8.0676022802496341e+00 3.8567094489839984e+00 1.7190249989119259e+01 1 0 0
260 15 2 1.0630000000000001e-01 -7.8001530038503777e+00 4.8898157075520041e+00 1.7406988144468588e+01 1 0 0
1024 55 3 0.0000000000000000e+00 -9.1821635604042129e+00 7.6692319138694280e+00 1.7512159232186615e+01 1 0 0
4414 235 5 -1.0630000000000001e-01 -4.8996661824144354e+00 3.3587829362942595e-01 1.6841049107466105e+01 1 1 0
264 15 3 0.0000000000000000e+00 -9.3254271915012090e+00 1.9154780304473911e+00 1.7801641419908560e+01 1 0 0
262 15 1 -1.0630000000000001e-01 -8.4083406542717256e+00 2.0694157584016240e+00 1.5538784192288649e+01 1 0 0
266 15 1 -1.0630000000000001e-01 -7.8687612704151029e+00 3.2842631636141486e+00 1.5917360611463163e+01 1 0 0
4408 234 1 -1.0630000000000001e-01 -1.7907478790755604e+00 3.4573243835426715e-01 1.2782833871783726e+01 1 1 0
238 14 4 -1.0630000000000001e-01 -3.7051973699478600e+00 3.7327953123940976e+00 1.0022006717671815e+01 1 0 0
263 15 4 -1.0630000000000001e-01 -9.1421278099893595e+00 1.3835916984659107e+00 1.6518560157064300e+01 1 0 0
735 15 6 0.0000000000000000e+00 -8.9332847824243942e+00 2.4223360273783827e+00 1.8055942705483826e+01 1 0 0
246 14 3 0.0000000000000000e+00 -5.0373018720063891e+00 1.7584622759819564e+00 1.0388203488184200e+01 1 0 0
265 15 4 -1.0630000000000001e-01 -1.0063292949624927e+01 1.1232652619634156e+00 1.8732635731933474e+01 1 0 0
604 34 1 -1.0630000000000001e-01 -8.7727824764947293e-01 4.9697937880044813e+00 1.2849520190134884e+01 1 0 0
605 34 4 -1.0630000000000001e-01 -3.8044578365672166e-01 4.1004482347428750e+00 1.1872152287570961e+01 1 0 0
606 34 3 0.0000000000000000e+00 -2.2093137194303480e-01 4.6150147721363339e+00 1.0576268125367916e+01 1 0 0
1022 55 1 -1.0630000000000001e-01 -8.5061790679177136e+00 8.3757775162167576e+00 1.5241063417750057e+01 1 0 0
1007 54 4 -1.0630000000000001e-01 -5.7149690271169220e+00 7.1407980090094920e+00 1.1034776824957438e+01 1 0 0
611 34 2 1.0630000000000001e-01 8.1564561588339135e-01 2.7561089349124117e+00 9.8810789814228830e+00 1 0 0
610 34 2 1.0630000000000001e-01 1.0692578517858209e-02 3.1553410187520599e+00 1.2145390810587301e+01 1 0 0
241 14 2 1.0630000000000001e-01 -3.9482625325511962e+00 3.9741163895574605e+00 1.2730688035686853e+01 1 0 0
620 35 2 1.0630000000000001e-01 -6.2805332295910858e+00 7.4934515121031149e+00 1.9201977730598401e+01 1 0 0
598 34 4 -1.0630000000000001e-01 -1.1671956039098861e+00 6.8035701240238291e+00 1.1202014398449114e+01 1 0 0
754 34 6 0.0000000000000000e+00 -4.5768616788023841e-01 5.2670356415423703e+00 1.0494419487095444e+01 1 0 0
609 34 2 1.0630000000000001e-01 -9.0323288987212269e-01 4.5798100650341373e+00 1.3800229356460326e+01 1 0 0
613 35 7 -1.0630000000000001e-01 -4.5276387571048780e+00 5.5833545093971875e+00 1.6150830957295558e+01 1 0 0
618 35 2 1.0630000000000001e-01 -4.3250310472642761e+00 5.9498640574995836e+00 1.5206883629003091e+01 1 0 0
615 35 3 0.0000000000000000e+00 -5.2832698362769888e+00 5.7630259909339481e+00 1.8412312122751025e+01 1 0 0
617 35 1 -1.0630000000000001e-01 -3.9261870646704722e+00 4.3050488328725258e+00 1.6385778875400536e+01 1 0 0
621 35 2 1.0630000000000001e-01 -3.4131538236674812e+00 3.7187794847746245e+00 1.5655021156398718e+01 1 0 0
624 35 3 0.0000000000000000e+00 -4.6811699837029765e+00 4.4783208993122301e+00 1.8705477092539983e+01 1 0 0
625 35 4 -1.0630000000000001e-01 -4.0342731509840357e+00 3.7916848988474086e+00 1.7657903063494551e+01 1 0 0
629 35 2 1.0630000000000001e-01 -3.6195281149566156e+00 2.8489842689324019e+00 1.7748132923108663e+01 1 0 0
755 35 6 0.0000000000000000e+00 -4.9517446780584242e+00 5.0971715075993593e+00 1.8434938357476373e+01 1 0 0
270 15 2 1.0630000000000001e-01 -7.2346839281082156e+00 3.8680996332938613e+00 1.5319587429843933e+01 1 0 0
4398 234 4 -1.0630000000000001e-01 -1.6110056446681300e+00 7.5361119174462510e-01 1.1411763182815099e+01 1 1 0
4412 234 2 1.0630000000000001e-01 -2.2005456007000879e+00 1.0026702775322469e+00 1.3525043795205665e+01 1 1 0
614 35 5 -1.0630000000000001e-01 -5.2116018160378044e+00 6.3082061652181940e+00 1.7112972842209970e+01 1 0 0
247 14 4 -1.0630000000000001e-01 -5.7534153056003641e+00 8.9489666960256797e-01 1.1241479214772879e+01 1 0 0
4419 235 2 1.0630000000000001e-01 -5.2534692414899151e+00 1.3143311725908586e+00 1.6364457468996910e+01 1 1 0
1025 55 4 -1.0630000000000001e-01 -9.7954417268668728e+00 6.7589966238907655e+00 1.8342693358713365e+01 1 0 0
608 34 1 -1.0630000000000001e-01 -1.2051343937153254e+00 6.2620078130211070e+00 1.2508031499339898e+01 1 0 0
616 35 4 -1.0630000000000001e-01 -5.9284639832079780e+00 6.5402111973746333e+00 1.9407108598438597e+01 1 0 0
612 34 2 1.0630000000000001e-01 -1.5740388592344301e+00 6.8647263126735298e+00 1.3313173392449256e+01 1 0 0
267 15 2 1.0630000000000001e-01 -8.2199641695774073e+00 1.6823486186565362e+00 1.4468769915960543e+01 1 0 0
269 15 2 1.0630000000000001e-01 -1.0439803511320124e+01 1.5944506289735405e-01 1.8421348129990449e+01 1 0 0
254 15 5 -1.0630000000000001e-01 -8.9691962189355188e+00 3.5664592479830870e+00 1.9520718863065511e+01 1 0 0
1006 54 3 0.0000000000000000e+00 -4.8153397793296371e+00 7.7937215825077892e+00 1.0118841353088854e+01 1 0 0
1023 55 4 -1.0630000000000001e-01 -9.1521722105006411e+00 7.4426928076506140e+00 1.6110768424335820e+01 1 0 0
619 35 2 1.0630000000000001e-01 -5.7457721085299456e+00 7.1434416712823650e+00 1.6791812115312812e+01 1 0 0
1015 55 3 0.0000000000000000e+00 -8.5529110275387197e+00 8.7701813025361393e+00 1.8039191479987199e+01 1 0 0
1494 54 6 0.0000000000000000e+00 -4.5585132160724804e+00 8.3995169181226643e+00 1.0293849489011286e+01 1 0 0
1003 54 2 1.0630000000000001e-01 -6.7537038187987140e+00 7.2099155312699486e+00 1.2985714998891641e+01 1 0 0
1495 55 6 0.0000000000000000e+00 -8.8308984516254032e+00 8.2574962932493232e+00 1.7640638819902030e+01 1 0 0
999 54 1 -1.0630000000000001e-01 -6.0239763333536533e+00 7.6350084322850069e+00 1.2339156334001700e+01 1 0 0
602 34 2 1.0630000000000001e-01 -1.6342026966175487e+00 7.7263288125468081e+00 1.0927917818651684e+01 1 0 0
1011 54 2 1.0630000000000001e-01 -6.1758748692948489e+00 6.2417243582215276e+00 1.0659155916429116e+01 1 0 0
1029 55 2 1.0630000000000001e-01 -1.0287551523691214e+01 5.9086645348074374e+00 1.7837198316575567e+01 1 0 0
4415 235 3 0.0000000000000000e+00 -5.1325170265419793e+00 -5.1285564647323353e-02 1.8175710251004091e+01 1 1 0
251 14 2 1.0630000000000001e-01 -6.1444587593539053e+00 -4.5097516115419449e-02 1.0823023895433350e+01 1 0 0
995 54 7 -1.0630000000000001e-01 -5.4501247471587497e+00 8.9288389443597822e+00 1.2628757475950867e+01 1 0 0
280 16 1 -1.0630000000000001e-01 -1.2616417291903023e+01 2.2951723635851438e+00 2.3084578409954307e+01 1 0 0
4436 236 2 1.0630000000000001e-01 -8.9002729094561559e+00 1.5669646805882553e-01 2.2295087593730102e+01 1 1 0
258 15 2 1.0630000000000001e-01 -9.9177483425026303e+00 3.3008615542121897e+00 2.1372359990885343e+01 1 0 0
634 36 4 -1.0630000000000001e-01 -1.0192946113328089e+01 6.4135556712248274e+00 2.6165501658482871e+01 1 0 0
4433 236 3 0.0000000000000000e+00 -9.5614583866567386e+00 5.2719262246750387e-02 2.5590861218257924e+01 1 1 0
257 15 1 -1.0630000000000001e-01 -1.0373622361888669e+01 1.6885067747257565e+00 1.9991175916991985e+01 1 0 0
284 16 1 -1.0630000000000001e-01 -1.2095615976265409e+01 3.5342713190709931e+00 2.3595508343170337e+01 1 0 0
279 16 2 1.0630000000000001e-01 -1.4770482046948443e+01 7.1855340380194765e-01 2.8248167329802278e+01 1 0 0
1042 56 3 0.0000000000000000e+00 -1.3610015560339207e+01 7.7989721401913190e+00 2.5282592189524774e+01 1 0 0
288 16 2 1.0630000000000001e-01 -1.1583043532644428e+01 4.0662912056903355e+00 2.2843143249975526e+01 1 0 0
271 16 7 -1.0630000000000001e-01 -1.3871386010171879e+01 2.5948997592240874e+00 2.8002402656120012e+01 1 0 0
272 16 5 -1.0630000000000001e-01 -1.3194865707296664e+01 3.4347141410294117e+00 2.7151021761396262e+01 1 0 0
273 16 3 0.0000000000000000e+00 -1.2991900742290923e+01 3.0792411402377455e+00 2.5821164168102108e+01 1 0 0
274 16 4 -1.0630000000000001e-01 -1.2318320803145967e+01 3.9368456240007634e+00 2.4934513384059525e+01 1 0 0
275 16 1 -1.0630000000000001e-01 -1.4255440497523225e+01 1.3675407052453545e+00 2.7525359869319463e+01 1 0 0
1045 56 2 1.0630000000000001e-01 -1.2648987464004749e+01 7.6684760763441595e+00 2.2038769683419677e+01 1 0 0
277 16 2 1.0630000000000001e-01 -1.2792109588301090e+01 4.3460900012222163e+00 2.7573444554523661e+01 1 0 0
278 16 2 1.0630000000000001e-01 -1.1869411039029782e+01 4.8618582946482762e+00 2.5193964665074311e+01 1 0 0
261 15 2 1.0630000000000001e-01 -1.1014040229401299e+01 1.0221697519032895e+00 2.0552073944633765e+01 1 0 0
282 16 3 0.0000000000000000e+00 -1.3525606124238898e+01 1.8601423216489503e+00 2.5338258257655887e+01 1 0 0
1043 56 4 -1.0630000000000001e-01 -1.4404784974091157e+01 7.1160193455768592e+00 2.6232170912530062e+01 1 0 0
736 16 6 0.0000000000000000e+00 -1.3221242810809178e+01 2.3945695145451342e+00 2.5718949757834704e+01 1 0 0
632 36 5 -1.0630000000000001e-01 -9.2378295478474755e+00 6.1003213416846860e+00 2.3889541495002788e+01 1 0 0
636 36 2 1.0630000000000001e-01 -8.1617916850086765e+00 5.5521508151322356e+00 2.1965777857888735e+01 1 0 0
4438 236 2 1.0630000000000001e-01 -1.0833350137560121e+01 1.6431236272264169e+00 2.6260769350682295e+01 1 1 0
253 15 7 -1.0630000000000001e-01 -9.8238420218867901e+00 2.8801801512879028e+00 2.0377565644706348e+01 1 0 0
623 35 4 -1.0630000000000001e-01 -4.8008363028267063e+00 3.9772093997614890e+00 2.0037446327486773e+01 1 0 0
627 35 2 1.0630000000000001e-01 -5.3046566929312142e+00 4.5358408391843312e+00 2.2155275811351913e+01 1 0 0
644 36 1 -1.0630000000000001e-01 -1.0294678869465692e+01 5.9721437527728982e+00 2.7479125502157835e+01 1 0 0
631 36 7 -1.0630000000000001e-01 -8.4676312367048734e+00 5.2920689409471704e+00 2.3027261137931490e+01 1 0 0
635 36 1 -1.0630000000000001e-01 -7.9637076916160838e+00 4.0127178654293383e+00 2.3421356369885316e+01 1 0 0
628 35 2 1.0630000000000001e-01 -4.3746464252332684e+00 3.0160318211800434e+00 2.0180526248637374e+01 1 0 0
639 36 2 1.0630000000000001e-01 -7.5291938344031850e+00 3.4181195091969534e+00 2.2635086858253700e+01 1 0 0
283 16 4 -1.0630000000000001e-01 -1.4101454049396533e+01 9.4467916546484965e-01 2.6243730519623313e+01 1 0 0
4430 235 2 1.0630000000000001e-01 -6.8104938506664636e+00 1.0487925529741853e+00 2.0945138814149360e+01 1 1 0
4444 236 1 -1.0630000000000001e-01 -1.0160333257122918e+01 4.7045388906111918e-01 2.7915503747203044e+01 1 1 0
638 36 2 1.0630000000000001e-01 -1.0626987541594396e+01 7.3527562630860936e+00 2.5853104102803918e+01 1 0 0
633 36 3 0.0000000000000000e+00 -9.4097207978526747e+00 5.6830822070755405e+00 2.5232421040713245e+01 1 0 0
4437 236 2 1.0630000000000001e-01 -9.9439149701301162e+00 1.4310538277414393e+00 2.4081441817049654e+01 1 1 0
640 36 1 -1.0630000000000001e-01 -9.7720332280216802e+00 4.7368077331976162e+00 2.7890468647226637e+01 1 0 0
641 36 4 -1.0630000000000001e-01 -8.9868419601477072e+00 4.0093280334596866e+00 2.7024557976997677e+01 1 0 0
642 36 3 0.0000000000000000e+00 -8.8433184970058072e+00 4.4782592068548759e+00 2.5665744698817839e+01 1 0 0
643 36 4 -1.0630000000000001e-01 -8.0733847694192544e+00 3.6934776621349212e+00 2.4733475879461309e+01 1 0 0
622 35 1 -1.0630000000000001e-01 -5.3555913342340622e+00 4.8037426540541723e+00 2.1086541852308891e+01 1 0 0
646 36 2 1.0630000000000001e-01 -8.6469038266715437e+00 2.9965257315952609e+00 2.7247894223883975e+01 1 0 0
647 36 2 1.0630000000000001e-01 -7.6168835041466538e+00 2.7285736435210066e+00 2.5001130472523148e+01 1 0 0
756 36 6 0.0000000000000000e+00 -9.3125099808828598e+00 4.9548470287619946e+00 2.5386062982147557e+01 1 0 0
281 16 4 -1.0630000000000001e-01 -1.3369420882923082e+01 1.4710021955993449e+00 2.3969013950831982e+01 1 0 0
4434 236 4 -1.0630000000000001e-01 -1.0211487801839208e+01 8.2002274571301115e-01 2.6555653312206726e+01 1 1 0
1047 56 2 1.0630000000000001e-01 -1.4816533234887245e+01 6.1456460748786998e+00 2.5999953345040527e+01 1 0 0
285 16 2 1.0630000000000001e-01 -1.2356903965900420e+01 2.0566295123231666e+00 2.2105210852981884e+01 1 0 0
648 36 2 1.0630000000000001e-01 -1.0857896766393651e+01 6.6079542948294865e+00 2.8180509677160934e+01 1 0 0
4432 236 5 -1.0630000000000001e-01 -9.5527324770570221e+00 4.9834656004453926e-01 2.4280441334956464e+01 1 1 0
1039 56 2 1.0630000000000001e-01 -1.4971537264678625e+01 7.1582059588559721e+00 2.8285968649342689e+01 1 0 0
626 35 1 -1.0630000000000001e-01 -5.9440834665120335e+00 6.0552593490847162e+00 2.0732442019359354e+01 1 0 0
4448 236 2 1.0630000000000001e-01 -1.0624674656351491e+01 9.8349376446804981e-01 2.8713284837669033e+01 1 1 0
4426 235 1 -1.0630000000000001e-01 -6.1551496152543965e+00 4.8063059669760122e-01 2.0368535863195810e+01 1 1 0
276 16 2 1.0630000000000001e-01 -1.4012109936592626e+01 2.7537000468669031e+00 2.9047039943653562e+01 1 0 0
630 35 2 1.0630000000000001e-01 -6.4360045538872024e+00 6.5808571914274863e+00 2.1574087282194458e+01 1 0 0
1021 55 2 1.0630000000000001e-01 -1.0297934373486271e+01 6.3029079069152791e+00 2.0316399425554064e+01 1 0 0
637 36 2 1.0630000000000001e-01 -9.7094660894830795e+00 7.0164363329377126e+00 2.3558861186674452e+01 1 0 0
645 36 2 1.0630000000000001e-01 -9.7769041184212089e+00 4.4336914068749396e+00 2.8888162910588004e+01 1 0 0
1013 55 7 -1.0630000000000001e-01 -9.1103925769807628e+00 8.0393498784039306e+00 2.0263061727316526e+01 1 0 0
1017 55 1 -1.0630000000000001e-01 -9.8225609754462138e+00 6.9752130030623354e+00 1.9718989866634317e+01 1 0 0
1035 56 1 -1.0630000000000001e-01 -1.4464324026954207e+01 7.7050525050935992e+00 2.7546728998484401e+01 1 0 0
1018 55 2 1.0630000000000001e-01 -9.1054575110839728e+00 8.0769397161892336e+00 2.1337892836915636e+01 1 0 0
1496 56 6 0.0000000000000000e+00 -1.3362815573914133e+01 8.4390796281928981e+00 2.5458315086858626e+01 1 0 0
1040 56 1 -1.0630000000000001e-01 -1.2690932308461679e+01 7.9683890661397321e+00 2.3075055025929188e+01 1 0 0
1041 56 4 -1.0630000000000001e-01 -1.3474923667663049e+01 7.2882430123980750e+00 2.3976702845531435e+01 1 0 0
1407 76 2 1.0630000000000001e-01 -8.1986640738354861e+00 8.7327022740593332e+00 2.4343350195364668e+01 1 0 0
259 15 2 1.0630000000000001e-01 -8.4429900135599301e+00 4.5082105893374349e+00 1.9856030153278585e+01 1 0 0
231 13 2 1.0630000000000001e-01 -1.6137085043386968e+01 2.2934150553869608e+00 2.9465134607760188e+01 1 0 -1
287 16 2 1.0630000000000001e-01 -1.4395009342669187e+01 -1.8909963847509245e-03 2.5851751008438161e+01 1 0 0
286 16 2 1.0630000000000001e-01 -1.3679934670343155e+01 4.6832798993932828e-01 2.3655419447965922e+01 1 0 0
979 53 3 0.0000000000000000e+00 -1.6140799501344372e-01 9.1277743737407597e+00 3.3394737985214840e+00 1 0 0
980 53 4 -1.0630000000000001e-01 5.5689571205136001e-01 9.9997274578394748e+00 2.5203681474868951e+00 1 0 0
984 53 2 1.0630000000000001e-01 9.6164978924314459e-01 1.0830267350467205e+01 2.9864355861351477e+00 1 0 0
1361 74 2 1.0630000000000001e-01 -1.1195119701377072e+00 1.3247098990758095e+01 8.4065399156458600e+00 1 0 0
990 53 1 -1.0630000000000001e-01 6.0177298916306032e-01 9.8724353048700060e+00 1.1195715318764938e+00 1 0 0
2253 93 6 0.0000000000000000e+00 -3.7505010275503681e-01 1.4274548184423161e+01 2.9859773066410518e+00 1 0 0
994 53 2 1.0630000000000001e-01 1.1733090156509585e+00 1.0588082835031399e+01 4.9385380390855838e-01 1 0 0
1741 93 1 -1.0630000000000001e-01 -1.5407079920533675e+00 1.3540624037505427e+01 4.8871970909563931e+00 1 0 0
978 53 5 -1.0630000000000001e-01 -1.6677349689226206e-01 9.2983036605389824e+00 4.7218977517754777e+00 1 0 0
983 53 2 1.0630000000000001e-01 3.8727899858634585e-01 1.0159058522655313e+01 5.0378348336667811e+00 1 0 0
1012 54 2 1.0630000000000001e-01 -2.3319268196594169e+00 9.3491567295740268e+00 7.6609766075871253e+00 1 0 0
1363 74 2 1.0630000000000001e-01 1.2003750873593226e+00 9.5420027606838467e+00 7.6670204553215306e+00 1 0 0
1745 93 2 1.0630000000000001e-01 -2.1123584273734441e+00 1.3050122030237530e+01 5.6581954135868262e+00 1 0 0
1742 93 2 1.0630000000000001e-01 -9.4180317050454931e-01 1.4964780419743661e+01 6.3604936689595961e+00 1 0 0
1338 73 5 -1.0630000000000001e-01 3.6771181088761740e+00 1.2262390132099851e+01 1.6821206106813782e+00 1 0 0
1339 73 3 0.0000000000000000e+00 3.4778757313061082e+00 1.1920965379142507e+01 3.0477048200595114e+00 1 0 0
1340 73 4 -1.0630000000000001e-01 2.8084419356097348e+00 1.2782150185962930e+01 3.9328534825973556e+00 1 0 0
1341 73 1 -1.0630000000000001e-01 4.9103410743046512e+00 1.0137312175490443e+01 1.3116083801302367e+00 1 0 0
1337 73 7 -1.0630000000000001e-01 4.4071759067888552e+00 1.1379576645727569e+01 8.3562898296036670e-01 1 0 0
1343 73 2 1.0630000000000001e-01 3.2213151003966858e+00 1.3133695423649444e+01 1.2177188539352741e+00 1 0 0
1348 73 3 0.0000000000000000e+00 3.9477997300895580e+00 1.0658360448361151e+01 3.4704320230266306e+00 1 0 0
1349 73 4 -1.0630000000000001e-01 4.6493348097765086e+00 9.8130539098433776e+00 2.6133379647813166e+00 1 0 0
1513 73 6 0.0000000000000000e+00 3.7064318066665916e+00 1.1284733490453203e+01 3.2473711601834045e+00 1 0 0
1356 74 5 -1.0630000000000001e-01 -6.7920795594456340e-01 1.2335882093814558e+01 8.8295256044809154e+00 1 0 0
1354 73 2 1.0630000000000001e-01 2.1280263648992492e+00 1.3071247308733827e+01 6.0492190187850881e+00 1 0 0
1346 73 1 -1.0630000000000001e-01 3.0201182154203141e+00 1.1138307282551040e+01 5.6458543321676622e+00 1 0 0
1347 73 4 -1.0630000000000001e-01 3.6400599283180926e+00 1.0258130274506930e+01 4.7699921702295125e+00 1 0 0
1350 73 1 -1.0630000000000001e-01 2.5768565166621831e+00 1.2449514065665898e+01 5.2929742499872079e+00 1 0 0
1351 73 2 1.0630000000000001e-01 2.7806910829943328e+00 1.0793561143288146e+01 6.6161771899704007e+00 1 0 0
1352 73 2 1.0630000000000001e-01 4.0289318052375283e+00 9.3137686896803054e+00 5.0028325773215778e+00 1 0 0
1345 73 2 1.0630000000000001e-01 5.5089777952981525e+00 9.5878231798075078e+00 6.4329591116716522e-01 1 0 0
1355 74 7 -1.0630000000000001e-01 8.0893708886180526e-02 1.1493083934218438e+01 7.9726788314531731e+00 1 0 0
1359 74 1 -1.0630000000000001e-01 6.3250908434181952e-01 1.0297951085718511e+01 8.3541278972582802e+00 1 0 0
1360 74 2 1.0630000000000001e-01 2.0783720041243736e-01 1.1766282670477796e+01 7.0091224964985246e+00 1 0 0
1747 93 4 -1.0630000000000001e-01 -6.1572032478792860e-01 1.3203514535191511e+01 1.2936112113068996e+00 1 0 0
1748 93 3 0.0000000000000000e+00 -7.1431230211163510e-01 1.3748113007768238e+01 2.6252300446603316e+00 1 0 0
2099 113 3 0.0000000000000000e+00 3.3543157838849034e+00 1.7930661410459312e+01 3.1956605731176912e+00 1 0 0
1746 93 1 -1.0630000000000001e-01 1.9247911472930818e-01 1.3853941024900291e+01 3.4723890601639396e-01 1 0 0
1765 94 4 -1.0630000000000001e-01 -5.2172019234561953e+00 1.3752544223314374e+01 8.6337816066690110e+00 1 0 0
1749 93 4 -1.0630000000000001e-01 -1.4990365905207474e+00 1.3031297471749223e+01 3.5694067729229144e+00 1 0 0
2513 133 2 1.0630000000000001e-01 -1.6294228581550967e+00 1.7864398274942587e+01 3.0988441106094928e+00 1 0 0
1344 73 2 1.0630000000000001e-01 2.3447371532433414e+00 1.3708954477259423e+01 3.5665847127412342e+00 1 0 0
1737 93 7 -1.0630000000000001e-01 -8.3479309577748229e-01 1.4684701316085917e+01 5.3083026433375640e+00 1 0 0
1740 93 4 -1.0630000000000001e-01 6.7379296539442279e-01 1.5585441741918654e+01 2.0212639393188825e+00 1 0 0
1744 93 2 1.0630000000000001e-01 1.1000389768993597e+00 1.6556243497256620e+01 2.4228330964860869e+00 1 0 0