LAMMPS (15 May 2015)
Reading data file ...
  triclinic box = (-0.107635 -0.0404339 -0.357111) to (41.3876 35.9384 29.5551) with tilt (-0.0672341 -17.0362 -0.0417078)
  5 by 4 by 3 MPI processor grid
  reading atoms ...
  4560 atoms
  reading velocities ...
  4560 velocities
  scanning bonds ...
  3 = max bonds/atom
  scanning angles ...
  3 = max angles/atom
  scanning dihedrals ...
  8 = max dihedrals/atom
  scanning impropers ...
  1 = max impropers/atom
  reading bonds ...
  5040 bonds
  reading angles ...
  7200 angles
  reading dihedrals ...
  10560 dihedrals
  reading impropers ...
  2400 impropers
Finding 1-2 1-3 1-4 neighbors ...
 Special bond factors lj:   0          0          0         
 Special bond factors coul: 0          0          0         
  4 = max # of 1-2 neighbors
  8 = max # of 1-3 neighbors
  20 = max # of 1-4 neighbors
  16 = max # of special neighbors
4560 atoms in group all
720 atoms in group C
480 atoms in group S
1920 atoms in group H
720 atoms in group Si
240 atoms in group Na
240 atoms in group Ba
240 atoms in group O
4560 atoms in group naphthalene
1200 atoms in group fixed
960 atoms in group CO
Setting atom values ...
  720 settings made for charge
Setting atom values ...
  720 settings made for charge
Setting atom values ...
  1920 settings made for charge
Setting atom values ...
  480 settings made for charge
Setting atom values ...
  240 settings made for charge
Setting atom values ...
  240 settings made for charge
Setting atom values ...
  240 settings made for charge
Finding 1-2 1-3 1-4 neighbors ...
 Special bond factors lj:   0          0          0.5       
 Special bond factors coul: 0          0          0.5       
  4 = max # of 1-2 neighbors
  8 = max # of 1-3 neighbors
  20 = max # of 1-4 neighbors
  16 = max # of special neighbors
PPPM initialization ...
  G vector (1/distance) = 0.253736
  grid = 18 18 24
  stencil order = 5
  estimated absolute RMS force accuracy = 0.00128391
  estimated relative force accuracy = 3.86645e-06
  using double precision FFTs
  3d grid and FFT values/proc = 1650 162
Neighbor list info ...
  6 neighbor list requests
  update every 1 steps, delay 0 steps, check yes
  master list distance cutoff = 12
Setting up run ...
Memory usage per processor = 14.0743 Mbytes
Step Temp Density PotEng E_vdwl E_tail E_coul E_long Press Volume Xy Xz Yz E_mol E_bond E_angle E_dihed 14[1] 14[2] 14[3] msd[4] msd2[4] msd3[4] msd4[4] naphthal Cella Cellb Cellc CellAlpha CellBeta CellGamma 2 27[1] 27[2] 27[3] 
       0          298    1.2509986    3295.6142            0            0    1822.8717   -2026.0905   -15981.293    44657.537 -0.067234084   -17.036218 -0.041707817     3498.833    1521.0094     935.4334    889.67826    28.379601    18.846571    14.337846 2.3535127e-29 2.3910021e-29 2.2534249e-29 2.2900766e-29          298     41.49527    35.978931    34.423473    90.016431    119.66323    90.107069 7.2177013e-23    28.379761    18.846182    14.337739 
   10000    298.30396    1.2509986    3478.9672            0            0    1821.7697   -2026.5853    -11039.39    44657.537 -0.067234084   -17.036218 -0.041707817    3683.7828    1507.0169    1037.2683    966.76698    28.381589    18.845351    14.337798 0.00030029592 0.00030017056 0.00030907792 0.00030897989    298.30396     41.49527    35.978931    34.423473    90.016431    119.66323    90.107069    900.88776    28.379727    18.846375    14.338034 
   20000    302.53559    1.2509986    3404.4611            0            0    1826.9998   -2026.5863    -8929.619    44657.537 -0.067234084   -17.036218 -0.041707817    3604.0476    1484.6119    1000.8648    952.50289    28.378849    18.845873    14.336585 0.00032809154 0.00032792026 0.0003323509 0.00033222992    302.53559     41.49527    35.978931    34.423473    90.016431    119.66323    90.107069    984.27461    28.379837     18.84629    14.337347 
   30000    293.60149    1.2509986    3379.1452            0            0    1827.7508    -2026.341   -8725.4707    44657.537 -0.067234084   -17.036218 -0.041707817    3577.7354    1522.9448    979.26745    916.46681    28.379809    18.844437    14.336962 0.00033106622 0.00033098778 0.00034011494 0.00033999629    293.60149     41.49527    35.978931    34.423473    90.016431    119.66323    90.107069    993.19867    28.379961    18.846201    14.337544 
   40000    297.49501    1.2509986    3313.9415            0            0    1825.0551   -2026.5575   -8161.0543    44657.537 -0.067234084   -17.036218 -0.041707817    3515.4439    1503.8327     948.8549     905.3485    28.381088    18.846675    14.336924 0.00032383661 0.0003236222 0.00033060733 0.00033017326    297.49501     41.49527    35.978931    34.423473    90.016431    119.66323    90.107069    971.50984    28.379963    18.846224    14.337325 
   50000    298.19935    1.2509986     3404.344            0            0    1824.3134   -2026.4428   -10257.751    44657.537 -0.067234084   -17.036218 -0.041707817    3606.4735    1542.5878    994.16051    913.32171    28.378514    18.845317     14.33786 0.00032998524 0.00032985792 0.00033083021 0.00033049678    298.19935     41.49527    35.978931    34.423473    90.016431    119.66323    90.107069    989.95571    28.379667    18.845844    14.337806 
   60000    293.93403    1.2509986    3417.2044            0            0    1829.7744   -2026.0336   -9815.2521    44657.537 -0.067234084   -17.036218 -0.041707817    3613.4637    1560.6242     969.6422    921.99301    28.381152     18.84447    14.338398 0.00032515053 0.00032505379 0.00032653077 0.00032646098    293.93403     41.49527    35.978931    34.423473    90.016431    119.66323    90.107069     975.4516    28.380038    18.846053    14.337681 
   70000    294.05709    1.2509986    3320.2769            0            0     1826.223   -2026.2258   -8924.1763    44657.537 -0.067234084   -17.036218 -0.041707817    3520.2797    1513.0016    952.78527    902.31069    28.381062    18.845049    14.337914 0.00033925739 0.00033915409 0.00034655607 0.00034642984    294.05709     41.49527    35.978931    34.423473    90.016431    119.66323    90.107069    1017.7722    28.379791    18.845863    14.337759 
   80000    290.71977    1.2509986    3382.1459            0            0    1827.7702   -2026.6585   -10106.853    44657.537 -0.067234084   -17.036218 -0.041707817    3581.0342    1539.7004    968.15901    916.12923    28.378546    18.845475    14.338091 0.00034299885 0.00034276682 0.00035007361 0.00034951213    290.71977     41.49527    35.978931    34.423473    90.016431    119.66323    90.107069    1028.9966    28.379293    18.846224    14.337847 
   90000    298.56431    1.2509986    3329.5651            0            0    1825.2761   -2026.4124   -8309.9667    44657.537 -0.067234084   -17.036218 -0.041707817    3530.7013    1519.9837    987.67252    871.89961    28.378198    18.844188    14.336138 0.00034336105 0.00034326468 0.00034315872 0.00034308737    298.56431     41.49527    35.978931    34.423473    90.016431    119.66323    90.107069    1030.0831     28.37995    18.846071    14.337959 
  100000    296.51892    1.2509986     3299.613            0            0    1827.6402    -2026.472    -8516.086    44657.537 -0.067234084   -17.036218 -0.041707817    3498.4447    1494.3814    939.76555    910.83584    28.380141    18.846269    14.338025 0.00034058359 0.00034044607 0.0003349371 0.00033454558    296.51892     41.49527    35.978931    34.423473    90.016431    119.66323    90.107069    1021.7508    28.379995     18.84647    14.337726 
  110000    295.98369    1.2509986    3353.8847            0            0    1828.7944   -2026.2899     -9008.51    44657.537 -0.067234084   -17.036218 -0.041707817    3551.3803    1536.9514    944.97197    916.68754    28.380086    18.845191    14.337938 0.00033917139 0.00033871212 0.0003361491 0.00033540366    295.98369     41.49527    35.978931    34.423473    90.016431    119.66323    90.107069    1017.5142    28.379188    18.846525    14.337857 
  120000    298.37536    1.2509986    3352.4109            0            0    1827.5347   -2026.1732   -8101.3497    44657.537 -0.067234084   -17.036218 -0.041707817    3551.0494     1505.871    937.48691    942.90768    28.378396    18.847406    14.335769 0.00034320603 0.00034260326 0.00034723773 0.00034683941    298.37536     41.49527    35.978931    34.423473    90.016431    119.66323    90.107069    1029.6181    28.380244    18.846452    14.337195 
  130000    292.97319    1.2509986    3227.1542            0            0    1826.9961    -2026.404   -9014.5798    44657.537 -0.067234084   -17.036218 -0.041707817    3426.5622     1467.141    932.89569    877.15816     28.37906    18.844685    14.337643 0.00034196242 0.00034171455 0.00033809751 0.00033794076    292.97319     41.49527    35.978931    34.423473    90.016431    119.66323    90.107069    1025.8873    28.379839     18.84569    14.337731 
  140000    299.28934    1.2509986    3296.2889            0            0    1827.5456    -2026.184   -9018.8663    44657.537 -0.067234084   -17.036218 -0.041707817    3494.9274    1501.1501    977.28787     862.8449     28.37961    18.845311    14.337397 0.00034799198 0.00034777236 0.00034700587 0.00034685669    299.28934     41.49527    35.978931    34.423473    90.016431    119.66323    90.107069    1043.9759    28.379421     18.84608    14.337433 
  150000    296.67205    1.2509986    3320.0305            0            0     1825.222   -2026.6589   -10840.253    44657.537 -0.067234084   -17.036218 -0.041707817    3521.4674    1512.0471    1003.2013    857.57158    28.378792    18.845918    14.336764 0.0003515295 0.00035149385 0.00035526671 0.00035513959    296.67205     41.49527    35.978931    34.423473    90.016431    119.66323    90.107069    1054.5885     28.37972    18.846105    14.337571 
  160000    289.16142    1.2509986    3312.6647            0            0    1828.5626   -2026.1035   -9383.4134    44657.537 -0.067234084   -17.036218 -0.041707817    3510.2056    1502.7565    983.90028    871.17664    28.380663    18.845186    14.337115 0.00034951514 0.00034936009 0.00035072366 0.00035045982    289.16142     41.49527    35.978931    34.423473    90.016431    119.66323    90.107069    1048.5454    28.379372    18.846205    14.337684 
  170000    301.40129    1.2509986    3279.5405            0            0    1826.4442   -2026.6199   -8213.1213    44657.537 -0.067234084   -17.036218 -0.041707817    3479.7161    1499.2186    958.00232    871.87112    28.378793    18.846662    14.337887 0.00034748366 0.00034712717 0.00035228634 0.00035199912    301.40129     41.49527    35.978931    34.423473    90.016431    119.66323    90.107069     1042.451    28.379901    18.846528    14.338205 
  180000     292.9303    1.2509986    3296.3871            0            0    1824.6851   -2026.7378   -9227.3023    44657.537 -0.067234084   -17.036218 -0.041707817    3498.4398    1485.5222    988.03806    870.10546    28.382467    18.846489    14.338803 0.00034403873 0.00034365631 0.00034934496 0.00034909349     292.9303     41.49527    35.978931    34.423473    90.016431    119.66323    90.107069    1032.1162    28.379681    18.845967    14.338313 
  190000    298.95612    1.2509986     3315.525            0            0    1828.3124   -2026.3127   -9244.9317    44657.537 -0.067234084   -17.036218 -0.041707817    3513.5253    1471.0201    1001.2096    885.75058    28.377974     18.84485    14.337182 0.00034140511 0.00034115481 0.00034021145 0.00034005147    298.95612     41.49527    35.978931    34.423473    90.016431    119.66323    90.107069    1024.2153    28.379477    18.846519    14.337975 
  200000    301.68876    1.2509986    3359.3808            0            0    1825.3028   -2026.2945   -9303.3697    44657.537 -0.067234084   -17.036218 -0.041707817    3560.3725    1514.0848      984.906    905.85312     28.38065    18.846531    14.338087 0.0003400454 0.00033997791 0.00034470022 0.00034453506    301.68876     41.49527    35.978931    34.423473    90.016431    119.66323    90.107069    1020.1362    28.379805    18.846018    14.337543 
  210000    299.39511    1.2509986    3324.6806            0            0    1827.7445    -2026.216   -8849.8437    44657.537 -0.067234084   -17.036218 -0.041707817    3523.1521    1480.0441    968.97461    919.57505    28.378841    18.844575    14.336961 0.00034547673 0.00034527108 0.00034950735 0.00034924625    299.39511     41.49527    35.978931    34.423473    90.016431    119.66323    90.107069    1036.4302     28.37988    18.845946    14.337371 
  220000    290.60132    1.2509986    3301.1408            0            0    1832.6541   -2025.7559   -9727.4667    44657.537 -0.067234084   -17.036218 -0.041707817    3494.2426    1477.2996    963.33376    902.51075    28.378852    18.847013    14.337141 0.00035613457 0.00035588772 0.00034989232 0.00034951924    290.60132     41.49527    35.978931    34.423473    90.016431    119.66323    90.107069    1068.4037    28.379597    18.846318    14.338188 
  230000     297.7299    1.2509986    3398.4277            0            0    1823.6161   -2026.4059   -10377.838    44657.537 -0.067234084   -17.036218 -0.041707817    3601.2174    1550.7582    986.69811    906.70595    28.381728    18.845312    14.337278 0.00034582696 0.00034487415 0.00035358131 0.00035257909     297.7299     41.49527    35.978931    34.423473    90.016431    119.66323    90.107069    1037.4809    28.380654    18.846576    14.337717 
  240000    302.67453    1.2509986    3336.1493            0            0    1825.0206   -2026.2881   -7623.1832    44657.537 -0.067234084   -17.036218 -0.041707817    3537.4167    1488.1796    970.38697    923.80391     28.37968    18.845281    14.337128 0.00034821532  0.000348086 0.00035301491 0.00035268493    302.67453     41.49527    35.978931    34.423473    90.016431    119.66323    90.107069     1044.646    28.379498    18.845988    14.337589 
  250000     289.5416    1.2509986    3269.3616            0            0    1828.3899   -2026.3631   -8081.8462    44657.537 -0.067234084   -17.036218 -0.041707817    3467.3349     1474.019    969.71069    869.96514    28.379568    18.844827    14.337416 0.0003442352 0.00034379801 0.00034255901 0.00034203692     289.5416     41.49527    35.978931    34.423473    90.016431    119.66323    90.107069    1032.7056    28.379341    18.845687    14.337864 
  260000    302.70132    1.2509986    3327.4512            0            0    1828.5336   -2026.1457   -9037.6004    44657.537 -0.067234084   -17.036218 -0.041707817    3525.0634    1486.4412    1000.8155    887.82108    28.378885    18.844607      14.3371 0.00034060406 0.0003404823 0.00034498873 0.00034479601    302.70132     41.49527    35.978931    34.423473    90.016431    119.66323    90.107069    1021.8122    28.379445     18.84622    14.337883 
  270000    294.99349    1.2509986    3370.1123            0            0    1829.1986   -2026.5233   -9392.0595    44657.537 -0.067234084   -17.036218 -0.041707817     3567.437    1534.2864    968.45413    908.12949     28.37875    18.846119    14.337196 0.00033946359 0.00033934015 0.00034538764 0.00034508855    294.99349     41.49527    35.978931    34.423473    90.016431    119.66323    90.107069    1018.3908    28.379664    18.845851    14.337671 
  280000     297.1914    1.2509986    3398.6265            0            0    1829.7456   -2026.2833   -8199.7706    44657.537 -0.067234084   -17.036218 -0.041707817    3595.1642    1495.7359    995.61524    941.32251    28.378858    18.846749    14.336808 0.00035212892 0.00035198592 0.00035605634 0.00035583861     297.1914     41.49527    35.978931    34.423473    90.016431    119.66323    90.107069    1056.3867    28.379403    18.846266    14.337649 
  290000    300.27231    1.2509986    3350.6825            0            0    1825.3458   -2026.0621   -10752.842    44657.537 -0.067234084   -17.036218 -0.041707817    3551.3988     1487.115     975.6928    928.30884      28.3795    18.846198    14.337618 0.00037113946 0.00037055281 0.00037452968 0.00037380327    300.27231     41.49527    35.978931    34.423473    90.016431    119.66323    90.107069    1113.4184     28.37918    18.846061    14.337255 
  300000    290.88362    1.2509986     3325.082            0            0    1828.3907   -2026.1804   -8952.4796    44657.537 -0.067234084   -17.036218 -0.041707817    3522.8717     1528.529    972.84741    877.16636    28.379487    18.844203    14.337944 0.00034509489 0.00034460776 0.00034507903 0.0003446722    290.88362     41.49527    35.978931    34.423473    90.016431    119.66323    90.107069    1035.2847    28.379895    18.845685     14.33821 
  310000     300.4756    1.2509986    3328.0991            0            0    1825.7641   -2026.4979   -8418.1349    44657.537 -0.067234084   -17.036218 -0.041707817     3528.833    1517.4611    983.18028    876.51543    28.381296    18.845212    14.339301 0.00033502568 0.00033460677 0.00033506729 0.00033443533     300.4756     41.49527    35.978931    34.423473    90.016431    119.66323    90.107069     1005.077    28.379894    18.845734    14.338187 
  320000    303.31415    1.2509986    3291.8237            0            0    1823.8393   -2026.7586   -9943.1318    44657.537 -0.067234084   -17.036218 -0.041707817     3494.743    1510.3059     945.6585    879.64491    28.379723    18.845078    14.337472 0.00035681464 0.00035667136 0.00036653897 0.00036642532    303.31415     41.49527    35.978931    34.423473    90.016431    119.66323    90.107069    1070.4439    28.379767    18.845823    14.337857 
  330000    293.88597    1.2509986     3299.245            0            0      1825.08   -2026.3727   -8745.6457    44657.537 -0.067234084   -17.036218 -0.041707817    3500.5376    1459.3322    973.31932    914.94332    28.377741    18.844359    14.337333 0.00035990995 0.00035950619 0.00035811795 0.00035764115    293.88597     41.49527    35.978931    34.423473    90.016431    119.66323    90.107069    1079.7299    28.379137    18.846222    14.337853 
  340000     304.9312    1.2509986    3346.8596            0            0    1830.2263   -2026.4135   -9302.5127    44657.537 -0.067234084   -17.036218 -0.041707817    3543.0467    1505.0381    980.09192    901.08329     28.37993    18.845916    14.336775 0.0003536267 0.00035346547 0.00035705893 0.00035686218     304.9312     41.49527    35.978931    34.423473    90.016431    119.66323    90.107069    1060.8801    28.379775    18.846199    14.337338 
  350000    293.71934    1.2509986    3261.6804            0            0    1828.7914    -2026.079   -8147.0815    44657.537 -0.067234084   -17.036218 -0.041707817    3458.9681    1459.2154    955.51903    890.47917     28.38052    18.845383    14.337921 0.00035711686 0.00035698267 0.00035471567 0.00035465022    293.71934     41.49527    35.978931    34.423473    90.016431    119.66323    90.107069    1071.3506    28.379888     18.84604    14.338052 
  360000    301.35818    1.2509986    3212.4938            0            0    1828.3314   -2026.2752   -8303.2047    44657.537 -0.067234084   -17.036218 -0.041707817    3410.4375    1418.3538    942.39528    896.77819    28.378607    18.845123    14.335859 0.00035738652 0.00035677393 0.00035296724 0.00035254223    301.35818     41.49527    35.978931    34.423473    90.016431    119.66323    90.107069    1072.1596    28.380042    18.845976    14.337038 
  370000    302.47219    1.2509986    3372.7376            0            0    1823.9591   -2026.2074   -10379.127    44657.537 -0.067234084   -17.036218 -0.041707817    3574.9859    1523.0949    999.20758    896.65172    28.379605    18.844527    14.337556 0.00036923227 0.00036904214 0.00036702984 0.00036683958    302.47219     41.49527    35.978931    34.423473    90.016431    119.66323    90.107069    1107.6968     28.37987    18.846603    14.337705 
  380000    295.82588    1.2509986    3305.6043            0            0    1826.8689   -2026.3643   -8816.9221    44657.537 -0.067234084   -17.036218 -0.041707817    3505.0996    1495.8288    948.86961    902.71603    28.377642    18.846585    14.336867 0.00036409583 0.00036408075 0.00036698698 0.00036693714    295.82588     41.49527    35.978931    34.423473    90.016431    119.66323    90.107069    1092.2875    28.379804    18.846136    14.337844 
  390000    297.58493    1.2509986    3322.7733            0            0     1829.116   -2026.0551   -8595.3598    44657.537 -0.067234084   -17.036218 -0.041707817    3519.7123    1532.4705    915.88053    912.87392    28.380475    18.845175     14.33778  0.000357651 0.00035762571 0.00036156599 0.00036155552    297.58493     41.49527    35.978931    34.423473    90.016431    119.66323    90.107069     1072.953    28.379738    18.846053     14.33783 
  400000    297.13499    1.2509986     3316.001            0            0    1826.3457   -2026.2167   -8700.6906    44657.537 -0.067234084   -17.036218 -0.041707817     3515.872    1466.2951    991.58605    907.64698    28.378774    18.845517    14.337333 0.00035215633 0.00035167815 0.00035108507 0.00035067472    297.13499     41.49527    35.978931    34.423473    90.016431    119.66323    90.107069     1056.469    28.380359    18.846526    14.337686 
  410000    302.14413    1.2509986    3256.2732            0            0    1828.7859   -2026.3231   -8301.4407    44657.537 -0.067234084   -17.036218 -0.041707817    3453.8103    1449.2714    954.47077     896.0999    28.379279    18.845429    14.337335 0.00035466741 0.00035441759 0.00035802808 0.00035778992    302.14413     41.49527    35.978931    34.423473    90.016431    119.66323    90.107069    1064.0022    28.379369     18.84626    14.337439 
  420000     295.6407    1.2509986    3289.8932            0            0    1825.1126   -2026.4058   -8737.2986    44657.537 -0.067234084   -17.036218 -0.041707817    3491.1865    1513.0766    930.48653    895.62963    28.380957    18.844515    14.338027 0.00036163242 0.00036124774 0.00036523598 0.00036507423     295.6407     41.49527    35.978931    34.423473    90.016431    119.66323    90.107069    1084.8973    28.380225    18.846354    14.338113 
  430000    294.12482    1.2509986    3256.6628            0            0    1824.4596   -2026.6378   -8724.7071    44657.537 -0.067234084   -17.036218 -0.041707817     3458.841    1454.8928    950.34817    897.70359    28.378148    18.845959    14.337275 0.00033679206 0.00033666842 0.00033805494 0.00033787196    294.12482     41.49527    35.978931    34.423473    90.016431    119.66323    90.107069    1010.3762    28.379583    18.846017    14.337485 
  440000    297.67072    1.2509986    3349.2859            0            0    1829.4881   -2025.9066   -9040.3115    44657.537 -0.067234084   -17.036218 -0.041707817    3545.7043    1497.2575    964.18943    924.56067    28.382115    18.845918    14.337618 0.00032928629 0.00032905065 0.00033495498 0.00033477612    297.67072     41.49527    35.978931    34.423473    90.016431    119.66323    90.107069    987.85888    28.379498     18.84656    14.337587 
  450000    298.38891    1.2509986     3286.927            0            0    1825.0719   -2026.0083   -10311.489    44657.537 -0.067234084   -17.036218 -0.041707817    3487.8634    1485.7199    933.89331     910.0232    28.378582    18.844169    14.336874 0.00034484003 0.0003445149 0.00034533561 0.00034479306    298.38891     41.49527    35.978931    34.423473    90.016431    119.66323    90.107069    1034.5201    28.380079    18.845709    14.337721 
  460000     299.8897    1.2509986    3300.4369            0            0    1824.3513   -2026.3714   -8654.8233    44657.537 -0.067234084   -17.036218 -0.041707817    3502.4569    1490.4844    972.81891    884.63299    28.379027    18.845602    14.337651 0.00035299324 0.00035198073 0.0003515166 0.00035061596     299.8897     41.49527    35.978931    34.423473    90.016431    119.66323    90.107069    1058.9797    28.380218    18.846697    14.338472 
  470000    296.43155    1.2509986    3384.5652            0            0    1826.2101   -2026.1883   -9416.1717    44657.537 -0.067234084   -17.036218 -0.041707817    3584.5434     1517.619    975.06607    925.11271    28.379533    18.844784    14.337494 0.00036454025 0.00036425094 0.00036617121 0.00036588238    296.43155     41.49527    35.978931    34.423473    90.016431    119.66323    90.107069    1093.6207    28.380057    18.846375    14.337333 
  480000     299.4178    1.2509986    3272.7199            0            0     1827.698   -2026.2679   -9541.0331    44657.537 -0.067234084   -17.036218 -0.041707817    3471.2898    1469.6786    934.66796     908.8137    28.379396    18.845849    14.337518 0.00036076351 0.00036033041 0.00036233204 0.00036172666     299.4178     41.49527    35.978931    34.423473    90.016431    119.66323    90.107069    1082.2905    28.379984    18.845671    14.338089 
  490000    295.52544    1.2509986    3263.2229            0            0    1829.1685   -2026.2985   -8185.7018    44657.537 -0.067234084   -17.036218 -0.041707817    3460.3528    1465.6263    925.71267    910.58773    28.378822    18.844594    14.336899 0.00036040744 0.00036032887 0.00035599002 0.00035586248    295.52544     41.49527    35.978931    34.423473    90.016431    119.66323    90.107069    1081.2223     28.38002    18.846114    14.337821 
  500000    306.38731    1.2509986    3294.8083            0            0    1828.1784   -2026.3127    -10055.16    44657.537 -0.067234084   -17.036218 -0.041707817    3492.9426    1500.0783    963.37748    875.59689    28.381917    18.845508    14.338199 0.00036002836 0.00035951467 0.0003730122 0.00037238125    306.38731     41.49527    35.978931    34.423473    90.016431    119.66323    90.107069    1080.0851    28.380224    18.845635    14.337728 
  510000    299.98334    1.2509986    3314.2594            0            0    1826.3448    -2026.307   -9654.4628    44657.537 -0.067234084   -17.036218 -0.041707817    3514.2216    1467.9782     961.6952    920.12751    28.379831     18.84609    14.338501 0.00034138643 0.00034098669 0.0003364216 0.00033596617    299.98334     41.49527    35.978931    34.423473    90.016431    119.66323    90.107069    1024.1593    28.379588    18.846466    14.338277 
  520000    299.29444    1.2509986     3282.563            0            0    1828.5923   -2026.4881    -8261.282    44657.537 -0.067234084   -17.036218 -0.041707817    3480.4587    1510.1094    928.12779    889.80692    28.379447    18.844851    14.337935 0.00035084648 0.0003507461 0.00035191221 0.00035174924    299.29444     41.49527    35.978931    34.423473    90.016431    119.66323    90.107069    1052.5394    28.379624    18.846096    14.338011 
  530000    304.69298    1.2509986    3309.1592            0            0     1827.406   -2026.5183   -8951.0049    44657.537 -0.067234084   -17.036218 -0.041707817    3508.2715    1470.1307    992.78054    892.49195    28.378854    18.845737    14.337612 0.00034428443 0.00034397295 0.00034738856 0.00034708435    304.69298     41.49527    35.978931    34.423473    90.016431    119.66323    90.107069    1032.8533    28.379393    18.846102    14.338151 
  540000    292.38497    1.2509986    3247.4871            0            0    1825.7878    -2026.335   -8400.4179    44657.537 -0.067234084   -17.036218 -0.041707817    3448.0343    1454.9423    951.49099    888.75418    28.382828    18.845256    14.338538 0.00036601943 0.00036549222 0.00036782514 0.00036728705    292.38497     41.49527    35.978931    34.423473    90.016431    119.66323    90.107069    1098.0583    28.379957    18.846113    14.337043 
  550000    297.97131    1.2509986    3266.1633            0            0    1827.9953   -2026.3485   -8547.9753    44657.537 -0.067234084   -17.036218 -0.041707817    3464.5164    1448.1744     964.2267    899.65678    28.379692    18.845895    14.338182 0.00035315445 0.00035280736 0.00035260243 0.00035239097    297.97131     41.49527    35.978931    34.423473    90.016431    119.66323    90.107069    1059.4633    28.379337    18.846159    14.338147 
  560000    298.11759    1.2509986    3287.4565            0            0    1828.5982   -2026.3259   -8065.3269    44657.537 -0.067234084   -17.036218 -0.041707817    3485.1842    1471.1851    975.14969    883.29696    28.379866    18.845969    14.336693 0.00036461779 0.00036440422 0.00036900537 0.00036865586    298.11759     41.49527    35.978931    34.423473    90.016431    119.66323    90.107069    1093.8534    28.380222      18.8462    14.337717 
  570000    298.78779    1.2509986    3304.9013            0            0    1827.4347   -2026.1887   -8756.8272    44657.537 -0.067234084   -17.036218 -0.041707817    3503.6553    1461.0005    1004.2916    885.90799    28.382422    18.845407    14.337939 0.00034234779 0.00034194398 0.00034715795 0.00034654483    298.78779     41.49527    35.978931    34.423473    90.016431    119.66323    90.107069    1027.0434    28.380369    18.846324    14.337619 
  580000    296.53279    1.2509986    3395.1602            0            0    1829.1381   -2026.4424   -9016.5954    44657.537 -0.067234084   -17.036218 -0.041707817    3592.4645    1523.6984    1009.1408    904.66212    28.378768    18.845206     14.33729 0.0003465722 0.00034610468 0.00035706884 0.00035639542    296.53279     41.49527    35.978931    34.423473    90.016431    119.66323    90.107069    1039.7166    28.379699    18.845873    14.338346 
  590000    300.81358    1.2509986    3308.6612            0            0     1827.064   -2026.3125   -7849.2887    44657.537 -0.067234084   -17.036218 -0.041707817    3507.9097    1462.3166    1009.4467    887.70278    28.380701    18.846041    14.338284 0.00034136263 0.0003411895 0.00034839253 0.00034810832    300.81358     41.49527    35.978931    34.423473    90.016431    119.66323    90.107069    1024.0879    28.379533    18.846417    14.337997 
  600000    292.75097    1.2509986    3322.7005            0            0    1828.5181   -2026.1099    -8714.633    44657.537 -0.067234084   -17.036218 -0.041707817    3520.2923    1488.0376    968.46182    907.48598    28.378673     18.84466    14.337843 0.00035128444 0.00035059687 0.00035996243 0.00035904586    292.75097     41.49527    35.978931    34.423473    90.016431    119.66323    90.107069    1053.8533    28.379556    18.845461    14.338092 
  610000    302.85792    1.2509986    3316.1365            0            0    1828.6643   -2026.0656   -9168.0412    44657.537 -0.067234084   -17.036218 -0.041707817    3513.5377    1500.2689    939.35109    917.57753    28.381259     18.84443    14.338129 0.00034986136 0.00034961027 0.00035410872 0.00035385375    302.85792     41.49527    35.978931    34.423473    90.016431    119.66323    90.107069    1049.5841     28.38001    18.845773    14.337886 
  620000    298.74164    1.2509986     3312.046            0            0    1827.9885   -2026.4829   -9950.5909    44657.537 -0.067234084   -17.036218 -0.041707817    3510.5404    1471.5517    985.27416    899.14313    28.380054    18.845705    14.337847 0.00033925833 0.00033909197 0.00034186943 0.00034160143    298.74164     41.49527    35.978931    34.423473    90.016431    119.66323    90.107069     1017.775    28.379663    18.846415     14.33806 
  630000     293.1278    1.2509986    3303.4774            0            0     1824.242   -2026.8748   -9774.9752    44657.537 -0.067234084   -17.036218 -0.041707817    3506.1102    1487.9712    1002.9971    865.35179    28.378388    18.845188    14.336539 0.00034323448 0.00034315424 0.00034695203 0.00034658765     293.1278     41.49527    35.978931    34.423473    90.016431    119.66323    90.107069    1029.7034    28.379516    18.846303    14.337815 
  640000    298.81372    1.2509986    3324.2968            0            0    1828.6648   -2026.1435   -9259.2326    44657.537 -0.067234084   -17.036218 -0.041707817    3521.7755    1482.1586    924.93567    950.00034     28.38155     18.84677     14.33727 0.00036818489 0.00036811944 0.00037047863 0.00037030145    298.81372     41.49527    35.978931    34.423473    90.016431    119.66323    90.107069    1104.5547    28.379561    18.846085    14.337612 
  650000    302.01775    1.2509986    3254.6505            0            0    1828.1505    -2025.815   -8968.6826    44657.537 -0.067234084   -17.036218 -0.041707817    3452.3149    1425.3735    953.30076    912.21819    28.379626    18.845437    14.337088 0.00035434132 0.00035422886 0.00035611434 0.00035606288    302.01775     41.49527    35.978931    34.423473    90.016431    119.66323    90.107069     1063.024    28.379561    18.846385    14.337562 
  660000    298.90539    1.2509986     3270.254            0            0    1824.3844    -2026.619   -7582.8035    44657.537 -0.067234084   -17.036218 -0.041707817    3472.4885     1466.016    951.97804     899.1377     28.38126    18.845769    14.338199 0.00034065733 0.00033993763 0.00034082685 0.00033996578    298.90539     41.49527    35.978931    34.423473    90.016431    119.66323    90.107069     1021.972    28.380242    18.846273    14.338432 
  670000    299.28153    1.2509986    3387.2194            0            0    1825.9517   -2026.3224   -9960.8138    44657.537 -0.067234084   -17.036218 -0.041707817    3587.5902    1514.2375    1004.7131    914.36527    28.379443    18.845145    14.337607 0.00036515106 0.00036456983 0.00037027445 0.00036969557    299.28153     41.49527    35.978931    34.423473    90.016431    119.66323    90.107069    1095.4532    28.379899    18.845433    14.337759 
  680000    295.57673    1.2509986    3292.8272            0            0    1825.1606   -2026.5507    -8837.936    44657.537 -0.067234084   -17.036218 -0.041707817    3494.2173    1478.2326    992.66304    871.02202    28.379322    18.844604    14.337273 0.00036152505 0.00036144178 0.00036053584 0.00036034113    295.57673     41.49527    35.978931    34.423473    90.016431    119.66323    90.107069    1084.5752    28.379883    18.846051    14.337965 
  690000    298.60645    1.2509986    3301.2364            0            0    1827.4743   -2026.2981   -8302.0114    44657.537 -0.067234084   -17.036218 -0.041707817    3500.0602    1512.4173    951.19428    881.97501    28.378632    18.842984    14.336769 0.00036656639 0.00036612871 0.00036936378 0.00036835481    298.60645     41.49527    35.978931    34.423473    90.016431    119.66323    90.107069    1099.6992    28.379869    18.845534    14.337817 
  700000    290.87051    1.2509986    3274.8497            0            0    1829.8049   -2026.6395   -8567.7488    44657.537 -0.067234084   -17.036218 -0.041707817    3471.6843    1465.5018    974.81557    876.92725    28.381438    18.843867    14.338704 0.00036001714 0.00035968959 0.00035639066 0.00035610205    290.87051     41.49527    35.978931    34.423473    90.016431    119.66323    90.107069    1080.0514    28.379543    18.845761     14.33806 
  710000    300.82565    1.2509986    3378.7045            0            0    1830.0201   -2026.5173   -8435.2543    44657.537 -0.067234084   -17.036218 -0.041707817    3575.2017    1549.9586    998.42975    875.44766    28.381602    18.844859    14.338211 0.00034802244 0.00034776817 0.0003417567 0.00034149858    300.82565     41.49527    35.978931    34.423473    90.016431    119.66323    90.107069    1044.0673    28.380146    18.845996    14.337472 
  720000    302.04429    1.2509986    3253.8392            0            0    1825.0294   -2026.6058   -8019.6718    44657.537 -0.067234084   -17.036218 -0.041707817    3455.4156    1445.5205    970.38798    883.09926    28.378642     18.84663    14.336633 0.00035372864 0.00035324201 0.00035606601 0.00035576105    302.04429     41.49527    35.978931    34.423473    90.016431    119.66323    90.107069    1061.1859    28.379258    18.845699    14.337724 
  730000    301.36805    1.2509986    3308.3237            0            0    1821.0313   -2026.8275   -8871.9574    44657.537 -0.067234084   -17.036218 -0.041707817      3514.12    1472.3467    982.63662    900.56878    28.381478    18.846177    14.337118 0.00035456097 0.00035392335 0.00036041623 0.00035945065    301.36805     41.49527    35.978931    34.423473    90.016431    119.66323    90.107069    1063.6829     28.38053    18.846121    14.337535 
  740000    295.33001    1.2509986    3269.9886            0            0    1825.9256   -2026.4913   -9374.6575    44657.537 -0.067234084   -17.036218 -0.041707817    3470.5543    1462.8705    961.90061    895.45548    28.379283     18.84498    14.336731 0.00033685566 0.00033666544 0.00033537153 0.00033516866    295.33001     41.49527    35.978931    34.423473    90.016431    119.66323    90.107069     1010.567    28.380154    18.846341    14.337639 
  750000    300.12795    1.2509986    3274.7078            0            0    1825.9637   -2026.2064   -9224.2708    44657.537 -0.067234084   -17.036218 -0.041707817    3474.9506    1470.2035    973.83004    878.79265    28.377635    18.846018    14.336816 0.00034971051 0.00034970954 0.00035153816 0.0003514872    300.12795     41.49527    35.978931    34.423473    90.016431    119.66323    90.107069    1049.1315    28.379741    18.846161    14.337727 
  760000    301.60021    1.2509986    3327.0665            0            0    1826.9736   -2026.3844   -8146.6977    44657.537 -0.067234084   -17.036218 -0.041707817    3526.4773    1509.4981    960.64206    900.74346    28.380646      18.8471    14.338284 0.00034993305 0.00034930365 0.0003510711 0.00035023544    301.60021     41.49527    35.978931    34.423473    90.016431    119.66323    90.107069    1049.7991    28.380254    18.846675    14.338117 
  770000    296.72366    1.2509986    3232.4688            0            0    1825.3461   -2026.3258    -10022.32    44657.537 -0.067234084   -17.036218 -0.041707817    3433.4485    1470.4307    912.83225     896.3245    28.379463    18.845366    14.337151 0.00035319274 0.00035272548 0.00035214467 0.00035177401    296.72366     41.49527    35.978931    34.423473    90.016431    119.66323    90.107069    1059.5782    28.379286    18.846647    14.337581 
  780000    296.11992    1.2509986    3296.7516            0            0    1826.5144   -2026.3216   -9410.8239    44657.537 -0.067234084   -17.036218 -0.041707817    3496.5588    1498.6796    967.82277    881.33548    28.379613    18.844986    14.338123 0.0003674011 0.00036695222 0.00036601527 0.00036557123    296.11992     41.49527    35.978931    34.423473    90.016431    119.66323    90.107069    1102.2033     28.37922    18.846427     14.33805 
  790000    298.17265    1.2509986    3428.4286            0            0    1825.6692   -2026.6948     -9053.15    44657.537 -0.067234084   -17.036218 -0.041707817    3629.4542    1522.0988    1022.5873    924.02103    28.380056    18.845718    14.337262 0.00034449324 0.00034446864 0.00034264201 0.00034235055    298.17265     41.49527    35.978931    34.423473    90.016431    119.66323    90.107069    1033.4797    28.379749    18.846292    14.337628 
  800000    297.90921    1.2509986    3292.7387            0            0    1831.0809   -2026.1554   -8477.1003    44657.537 -0.067234084   -17.036218 -0.041707817    3487.8132    1468.2818    993.60234    881.98922    28.380875     18.84666    14.337743 0.0003486536 0.00034824515 0.00034495477 0.00034442715    297.90921     41.49527    35.978931    34.423473    90.016431    119.66323    90.107069    1045.9608    28.379295    18.846306     14.33732 
Loop time of 2762.68 on 60 procs for 800000 steps with 4560 atoms

Pair  time (%) = 439.503 (15.9086)
Bond  time (%) = 47.2421 (1.71001)
Kspce time (%) = 1418.24 (51.3357)
Neigh time (%) = 11.8799 (0.430012)
Comm  time (%) = 590.417 (21.3712)
Outpt time (%) = 0.601862 (0.0217855)
Other time (%) = 254.794 (9.2227)

Nlocal:    76 ave 85 max 68 min
Histogram: 1 3 14 9 10 6 2 10 4 1
Nghost:    3993.78 ave 4079 max 3884 min
Histogram: 3 9 6 2 1 3 7 15 10 4
Neighs:    28108.9 ave 31692 max 25285 min
Histogram: 2 6 13 11 7 4 6 7 2 2

Total # of neighbors = 1686532
Ave neighs/atom = 369.854
Ave special neighs/atom = 10.6316
Neighbor list builds = 5176
Dangerous builds = 0
System init for write_data ...
PPPM initialization ...
  G vector (1/distance) = 0.253736
  grid = 18 18 24
  stencil order = 5
  estimated absolute RMS force accuracy = 0.00128391
  estimated relative force accuracy = 3.86645e-06
  using double precision FFTs
  3d grid and FFT values/proc = 1650 162
