LAMMPS data file via write_data, version 15 May 2015, timestep = 23005000

2611 atoms
6 atom types
1749 bonds
4 bond types
894 angles
3 angle types
44 dihedrals
3 dihedral types
10 impropers
1 improper types

-1.4889733887760285e+01 1.4889733887760285e+01 xlo xhi
-1.4889733887760285e+01 1.4889733887760285e+01 ylo yhi
-1.4889733887760285e+01 1.4889733887760285e+01 zlo zhi

Masses

1 15.9994
2 1.00794
3 12.0107
4 1.00794
5 12.0107
6 12.0107

Bond Coeffs # harmonic

1 1000 1
2 469 1.4
3 367 1.08
4 469 0.7

Angle Coeffs # harmonic

1 100 109.47
2 35 120
3 63 120

Dihedral Coeffs # opls

1 0 7.25 0 0
2 0 7.25 0 0
3 0 7.25 0 0

Improper Coeffs # cvff

1 2.5 -1 2

Atoms # full

2419 807 1 -8.1999999999999995e-01 -1.1691735286592651e+01 -8.2483464708565339e+00 -8.2177881603973759e+00 5 -4 0
536 179 2 4.0999999999999998e-01 -1.4353657935181969e+01 -5.5475872587275887e+00 -1.0745394538044334e+01 3 -3 5
750 250 2 4.0999999999999998e-01 -1.0967564229119159e+01 -1.1445758625269962e+01 -1.2554546145290878e+01 2 0 4
748 250 1 -8.1999999999999995e-01 -1.1001356715489219e+01 -1.2409493697734433e+01 -1.2289764362412628e+01 2 0 4
1585 529 1 -8.1999999999999995e-01 -1.2043943050603971e+01 -1.2840596355261727e+01 -9.0371131136757743e+00 3 -2 3
150 50 2 4.0999999999999998e-01 -1.3642677167680924e+01 -8.4079752597055482e+00 -1.2067291633076776e+01 -3 1 -5
1949 650 2 4.0999999999999998e-01 -9.0255040527206436e+00 -8.2719595772312395e+00 -1.0486891596838717e+01 0 -8 5
1682 561 2 4.0999999999999998e-01 -1.4833043210056269e+01 -1.4004479896994743e+01 -9.0585734449989239e+00 -3 -7 2
826 276 1 -8.1999999999999995e-01 -1.2267515142641168e+01 -7.9663929837603078e+00 -1.0844920270212157e+01 2 1 5
827 276 2 4.0999999999999998e-01 -1.1431433573764314e+01 -7.9392273989015738e+00 -1.1392885832570958e+01 2 1 5
375 125 2 4.0999999999999998e-01 -1.2836240099330533e+01 -1.3053029878335607e+01 -1.2511263245318920e+01 2 -4 0
1948 650 1 -8.1999999999999995e-01 -9.1611891359523057e+00 -9.1065085685999136e+00 -1.1020889874072230e+01 0 -8 5
148 50 1 -8.1999999999999995e-01 -1.4274919003153865e+01 -8.6157852442828577e+00 -1.2813697612971866e+01 -3 1 -5
1950 650 2 4.0999999999999998e-01 -8.5339089753893376e+00 -9.8149347833303509e+00 -1.0697333794996606e+01 0 -8 5
828 276 2 4.0999999999999998e-01 -1.2029502321603754e+01 -8.0588391067849656e+00 -9.8780489001709704e+00 2 1 5
2094 698 2 4.0999999999999998e-01 -1.0985201605342665e+01 -9.3641423223682807e+00 -1.3639351560438394e+01 0 4 -1
724 242 1 -8.1999999999999995e-01 -1.3192781326615121e+01 -1.0545851518585323e+01 -9.7610651509371458e+00 2 2 1
2092 698 1 -8.1999999999999995e-01 -1.0375063318203853e+01 -1.0011274803099896e+01 -1.3182200133912188e+01 0 4 -1
1683 561 2 4.0999999999999998e-01 -1.4225695646876842e+01 -1.3764184046470236e+01 -7.5618734158993872e+00 -3 -7 2
726 242 2 4.0999999999999998e-01 -1.2587674185556075e+01 -9.9955681192470021e+00 -1.0336452092434882e+01 2 2 1
1093 365 1 -8.1999999999999995e-01 -1.2142700030409316e+01 -7.6605732702714899e+00 -1.4394700100921828e+01 3 1 1
1720 574 1 -8.1999999999999995e-01 -1.4536662420020054e+01 -5.2134659858954482e+00 -7.9475487534190270e+00 -1 0 -2
1094 365 2 4.0999999999999998e-01 -1.3005237249567664e+01 -7.9943506489498812e+00 -1.4014359647347142e+01 3 1 1
374 125 2 4.0999999999999998e-01 -1.3724407765657336e+01 -1.3935605959779869e+01 -1.3559567477372891e+01 2 -4 0
929 310 2 4.0999999999999998e-01 -7.9102141859724044e+00 -6.0675079074743010e+00 -1.0218653421686131e+01 3 -1 -4
373 125 1 -8.1999999999999995e-01 -1.3612872094892506e+01 -1.3676718102106911e+01 -1.2600102272882179e+01 2 -4 0
1692 564 2 4.0999999999999998e-01 -9.6831620081102638e+00 -5.4881554526847101e+00 -1.3603569629942697e+01 5 -2 3
2325 775 2 4.0999999999999998e-01 -1.0138138802653799e+01 -1.1478826040677124e+01 -7.7627344607801314e+00 -4 -4 1
725 242 2 4.0999999999999998e-01 -1.2644268987892014e+01 -1.1146588122385285e+01 -9.1794412548434074e+00 2 2 1
991 331 1 -8.1999999999999995e-01 -7.7383575269123241e+00 -1.3489565853274339e+01 -1.2111575722718445e+01 -1 1 -1
2093 698 2 4.0999999999999998e-01 -1.0021067291775157e+01 -9.5994115939198501e+00 -1.2342502489924403e+01 0 4 -1
2532 844 2 4.0999999999999998e-01 -7.8734385833576557e+00 -1.1161801784249432e+01 -9.1453732028186714e+00 -1 -2 4
1587 529 2 4.0999999999999998e-01 -1.2625176956060745e+01 -1.3500335661075081e+01 -9.5135035149941487e+00 3 -2 3
648 216 2 4.0999999999999998e-01 -1.2930051120915472e+01 -1.0497935695509090e+01 -1.4885670731594397e+01 0 6 6
537 179 2 4.0999999999999998e-01 -1.2892443734242070e+01 -6.2393547892992185e+00 -1.0515101536446295e+01 3 -3 5
1690 564 1 -8.1999999999999995e-01 -1.0099403023711780e+01 -5.6097880478432796e+00 -1.4504672038238290e+01 5 -2 3
749 250 2 4.0999999999999998e-01 -1.0219888841641669e+01 -1.2621531051908015e+01 -1.1702921344235460e+01 2 0 4
1586 529 2 4.0999999999999998e-01 -1.1095967347425688e+01 -1.3158565101944786e+01 -9.0536829575739795e+00 3 -2 3
928 310 1 -8.1999999999999995e-01 -8.8959506137532678e+00 -6.1994638316119417e+00 -1.0114021024479687e+01 3 -1 -4
1047 349 2 4.0999999999999998e-01 -9.4509312484360670e+00 -6.1632536523468140e+00 -8.2243074663064348e+00 0 -4 1
206 69 2 4.0999999999999998e-01 -8.7948233443598145e+00 -7.5884667525663225e+00 -1.2393241514836280e+01 3 0 5
2540 847 2 4.0999999999999998e-01 -8.1665269330588046e+00 -1.2398473584832685e+01 -1.4277098824193796e+01 5 0 6
207 69 2 4.0999999999999998e-01 -7.9224065832308286e+00 -7.7836237412126819e+00 -1.3759816366093210e+01 3 0 5
205 69 1 -8.1999999999999995e-01 -8.2951951359455158e+00 -7.1136541510844333e+00 -1.3117783614411893e+01 3 0 5
1691 564 2 4.0999999999999998e-01 -1.0850150910924814e+01 -6.2671384036228108e+00 -1.4439061436831174e+01 5 -2 3
1721 574 2 4.0999999999999998e-01 -1.4305507856292243e+01 -5.4132370959026161e+00 -8.8997544640768247e+00 -1 0 -2
2323 775 1 -8.1999999999999995e-01 -9.3430502062917959e+00 -1.1893904754086236e+01 -8.2049791852254899e+00 -4 -4 1
930 310 2 4.0999999999999998e-01 -9.3827286327162298e+00 -5.5667645909513457e+00 -1.0716329452391864e+01 3 -1 -4
535 179 1 -8.1999999999999995e-01 -1.3405585304566950e+01 -5.3820255753418298e+00 -1.0473761963346718e+01 3 -3 5
2420 807 2 4.0999999999999998e-01 -1.1504422915118475e+01 -9.0864928350267604e+00 -7.7054783035014331e+00 5 -4 0
1515 505 2 4.0999999999999998e-01 -1.4488984024560791e+01 -9.5091993422685128e+00 -8.3449109410635316e+00 0 2 -2
2421 807 2 4.0999999999999998e-01 -1.1694999931552195e+01 -7.4686422061277780e+00 -7.5916194650823092e+00 5 -4 0
2324 775 2 4.0999999999999998e-01 -8.9764744439946398e+00 -1.2617676998149847e+01 -7.6203317815174270e+00 -4 -4 1
2541 847 2 4.0999999999999998e-01 -9.5965689748451268e+00 -1.1807221960805197e+01 -1.4798755233991143e+01 5 0 6
966 322 2 4.0999999999999998e-01 -5.4572853319208825e-01 -1.1850420769793855e+01 -9.0814151023852929e+00 -1 -2 1
713 238 2 4.0999999999999998e-01 -6.3555418079403978e+00 -1.4087969534595668e+01 -7.7392897505770888e+00 -2 0 -2
421 141 1 -8.1999999999999995e-01 -4.9480789399109764e+00 -1.3342834734852428e+01 -1.4727404685287748e+01 -4 -1 6
992 331 2 4.0999999999999998e-01 -7.3528364532438779e+00 -1.2610437357553678e+01 -1.2391831412954888e+01 -1 1 -1
2001 667 2 4.0999999999999998e-01 -7.0346837861519971e+00 -1.0362452008103382e+01 -1.3655862188727390e+01 6 -3 3
1999 667 1 -8.1999999999999995e-01 -6.7207324028286966e+00 -1.1056253107138891e+01 -1.3007702335971786e+01 6 -3 3
993 331 2 4.0999999999999998e-01 -7.4332317360181452e+00 -1.3706949177563393e+01 -1.1184386764386279e+01 -1 1 -1
2530 844 1 -8.1999999999999995e-01 -7.2942549326695163e+00 -1.0784707315130916e+01 -9.8681336626444391e+00 -1 -2 4
395 132 2 4.0999999999999998e-01 -3.4544761858752793e-01 -1.3730060345281903e+01 -7.5635439261229829e+00 -1 1 0
20 7 2 4.0999999999999998e-01 -5.7235222175696698e+00 -6.1915429772702772e+00 -9.4840322529597945e+00 0 1 7
19 7 1 -8.1999999999999995e-01 -5.4954225752241435e+00 -7.1249130261171603e+00 -9.2068544461822146e+00 0 1 7
1167 389 2 4.0999999999999998e-01 -2.3945016999321851e+00 -1.0411699501904410e+01 -1.2748453778028750e+01 1 3 -9
2000 667 2 4.0999999999999998e-01 -6.3168337092616067e+00 -1.0608591779914335e+01 -1.2209891702726983e+01 6 -3 3
1165 389 1 -8.1999999999999995e-01 -2.0131205081946568e+00 -9.5439148770857400e+00 -1.2429808439725655e+01 1 3 -9
21 7 2 4.0999999999999998e-01 -6.1111263281354091e+00 -7.4149160249088064e+00 -8.4741581810455067e+00 0 1 7
2561 854 2 4.0999999999999998e-01 -4.2373124365995771e+00 -9.2415630303268959e+00 -9.6024514021438492e+00 2 -3 3
864 288 2 4.0999999999999998e-01 -3.2527593226459910e+00 -1.3954684338535532e+01 -1.0939489433179936e+01 4 4 2
2165 722 2 4.0999999999999998e-01 -1.4838047116588271e-01 -1.0600316445934206e+01 -1.3803689410830685e+01 5 1 5
326 109 2 4.0999999999999998e-01 -1.3073165833616276e+00 -7.9751250496742792e+00 -1.3176169850931650e+01 -1 2 1
598 200 1 -8.1999999999999995e-01 -4.5191119131004367e+00 -1.2495041989405093e+01 -1.1164038700802838e+01 -1 4 -5
2562 854 2 4.0999999999999998e-01 -3.7323266707259357e+00 -1.0386183152968876e+01 -8.5528999070490599e+00 2 -3 3
1166 389 2 4.0999999999999998e-01 -2.7256838703524977e+00 -9.0165935045853800e+00 -1.1966966908891823e+01 1 3 -9
2089 697 1 -8.1999999999999995e-01 -7.0226912129318828e+00 -8.8378853056072106e+00 -1.4754310720458303e+01 2 -1 1
785 262 2 4.0999999999999998e-01 -2.8983336210340553e+00 -5.4782510084544764e+00 -1.2942926192107155e+01 0 1 5
1062 354 2 4.0999999999999998e-01 -3.0403144469489085e-01 -1.3229513589167192e+01 -1.3489629058068767e+01 -2 3 0
980 327 2 4.0999999999999998e-01 -3.5768826849283197e+00 -1.2691175441867948e+01 -1.3959789864174789e+01 -3 -1 -5
1129 377 1 -8.1999999999999995e-01 -6.5349556317096944e+00 -1.4118338840359101e+01 -9.6225899293025865e+00 6 3 -5
1061 354 2 4.0999999999999998e-01 -2.9396213054265985e-01 -1.2533795435222476e+01 -1.2012266872039511e+01 -2 3 0
1131 377 2 4.0999999999999998e-01 -5.9385933163759450e+00 -1.3383625838652577e+01 -9.9459865969395214e+00 6 3 -5
2560 854 1 -8.1999999999999995e-01 -4.2594349351516865e+00 -1.0217586280908634e+01 -9.3858276404895413e+00 2 -3 3
2531 844 2 4.0999999999999998e-01 -6.4201077942138092e+00 -1.0495497385084860e+01 -9.4779272878942677e+00 -1 -2 4
1403 468 2 4.0999999999999998e-01 -4.0558478754587881e+00 -7.2263742916003002e+00 -1.1898755240651697e+01 1 6 -2
1404 468 2 4.0999999999999998e-01 -4.9473485093118690e+00 -7.9993299703170173e+00 -1.0769822012595396e+01 1 6 -2
697 233 1 -8.1999999999999995e-01 -5.8009075196001980e-01 -8.1409007655336119e+00 -1.0582411990749392e+01 4 -2 -2
821 274 2 4.0999999999999998e-01 -3.7471328012408929e+00 -6.9521222048820972e+00 -8.4524401913336025e+00 -6 -5 7
699 233 2 4.0999999999999998e-01 -5.3639578124840703e-01 -8.5030380841586215e+00 -9.6512922710284741e+00 4 -2 -2
423 141 2 4.0999999999999998e-01 -5.8762207645793705e+00 -1.3706947266407552e+01 -1.4804938114433916e+01 -4 -1 6
981 327 2 4.0999999999999998e-01 -2.2257996163547311e+00 -1.2372470815794637e+01 -1.3099716615799171e+01 -3 -1 -5
820 274 1 -8.1999999999999995e-01 -3.1197784947023131e+00 -6.9656862236097083e+00 -7.6738008686681036e+00 -6 -5 7
979 327 1 -8.1999999999999995e-01 -3.0854634569473323e+00 -1.1991912673264801e+01 -1.3440583434926378e+01 -3 -1 -5
327 109 2 4.0999999999999998e-01 -7.9437512807828092e-01 -6.5965347164472110e+00 -1.2466871595359525e+01 -1 2 1
965 322 2 4.0999999999999998e-01 -1.3717342859315487e+00 -1.1541905358312313e+01 -7.7069127100675301e+00 -1 -2 1
599 200 2 4.0999999999999998e-01 -4.3892004546777894e+00 -1.2310703069963088e+01 -1.2138296768855826e+01 -1 4 -5
1402 468 1 -8.1999999999999995e-01 -4.1385469491542430e+00 -8.0613323498413365e+00 -1.1354657338580857e+01 1 6 -2
1060 354 1 -8.1999999999999995e-01 -8.6976890583326671e-01 -1.2801480247129859e+01 -1.2784813331037082e+01 -2 3 0
600 200 2 4.0999999999999998e-01 -4.2616099563804397e+00 -1.1686682172806627e+01 -1.0634620384621693e+01 -1 4 -5
698 233 2 4.0999999999999998e-01 -1.1060877948579311e+00 -8.7662104100532723e+00 -1.1158911400852293e+01 4 -2 -2
325 109 1 -8.1999999999999995e-01 -1.0927672706049343e+00 -7.0101205657956616e+00 -1.3327072453469462e+01 -1 2 1
784 262 1 -8.1999999999999995e-01 -3.8317325073777049e+00 -5.7314251478793672e+00 -1.2688552492214336e+01 0 1 5
822 274 2 4.0999999999999998e-01 -2.3090113884327259e+00 -6.4214630811240987e+00 -7.8894731994906468e+00 -6 -5 7
1532 511 2 4.0999999999999998e-01 -5.1371934986996450e+00 -6.4358120982096434e+00 -1.4114862807315642e+01 -6 3 1
2395 799 1 -8.1999999999999995e-01 -2.8468370152987532e-01 -8.8412037455479968e+00 -7.8830571707117461e+00 2 -3 4
964 322 1 -8.1999999999999995e-01 -5.3083945371767705e-01 -1.1929530270852958e+01 -8.0846420071406833e+00 -1 -2 1
1961 654 2 4.0999999999999998e-01 -7.3640712122751468e+00 -5.1514223427891537e+00 -1.2624546506615056e+01 3 2 4
585 195 2 4.0999999999999998e-01 -3.0286404891997396e+00 -1.4106824304627061e+01 -7.6380751850055466e+00 0 -2 3
1829 610 2 4.0999999999999998e-01 -8.6496727789672967e-01 -6.1310165901714502e+00 -1.4833400496589169e+01 0 0 7
261 87 2 4.0999999999999998e-01 -1.0205505105663160e+01 -1.2332546039382823e+01 -2.4880558906052901e+00 -2 -3 -1
690 230 2 4.0999999999999998e-01 -1.1529439513451505e+01 -7.7001506954236874e+00 -4.4359948408673837e+00 2 0 5
688 230 1 -8.1999999999999995e-01 -1.1930586261035632e+01 -8.6103017484297819e+00 -4.3323466138483848e+00 2 0 5
1399 467 1 -8.1999999999999995e-01 -1.4323405674899368e+01 -7.4615587078174457e+00 -3.4132309267535259e+00 -2 -3 -4
751 251 1 -8.1999999999999995e-01 -1.3255587787168874e+01 -1.2857806828671144e+01 -5.9029361846338215e+00 -2 5 11
260 87 2 4.0999999999999998e-01 -1.0009346617007317e+01 -1.1205384517937073e+01 -3.6532824259945063e+00 -2 -3 -1
259 87 1 -8.1999999999999995e-01 -1.0531852602819669e+01 -1.2012168476356971e+01 -3.3773770605458164e+00 -2 -3 -1
2107 703 1 -8.1999999999999995e-01 -1.1630247557134229e+01 -1.0631602298857150e+01 -6.3518805508355989e+00 -2 -5 -2
2108 703 2 4.0999999999999998e-01 -1.1875167510633077e+01 -1.0073914294201472e+01 -5.5587632572900212e+00 -2 -5 -2
231 77 2 4.0999999999999998e-01 -9.3649397239545422e+00 -9.7698417980855243e+00 -5.1167238087848190e+00 -1 -5 -4
2271 757 2 4.0999999999999998e-01 -9.6307273360288512e+00 -5.9547272879929327e+00 -5.5554101020712245e+00 -2 7 5
2125 709 1 -8.1999999999999995e-01 -8.3073124831568279e+00 -1.4831991247491050e+01 -1.5190297783866349e+00 2 -2 0
227 76 2 4.0999999999999998e-01 -8.7763317748109380e+00 -1.4026940368084100e+01 -5.3228185395246275e+00 0 -1 -5
226 76 1 -8.1999999999999995e-01 -9.2768782694809957e+00 -1.3234438200884769e+01 -5.6712868171956092e+00 0 -1 -5
228 76 2 4.0999999999999998e-01 -9.5992892475011207e+00 -1.2680080799447241e+01 -4.9039696455035937e+00 0 -1 -5
753 251 2 4.0999999999999998e-01 -1.3084897914005822e+01 -1.2453352131235860e+01 -5.0044274043167505e+00 -2 5 11
230 77 2 4.0999999999999998e-01 -8.3822792753057271e+00 -9.2564259499212387e+00 -3.9177631089997664e+00 -1 -5 -4
2269 757 1 -8.1999999999999995e-01 -1.0010364193173203e+01 -6.0555661804531198e+00 -4.6357666940272040e+00 -2 7 5
1045 349 1 -8.1999999999999995e-01 -9.2830236462580977e+00 -6.3150770973454762e+00 -7.2502472596152803e+00 0 -4 1
229 77 1 -8.1999999999999995e-01 -8.9912770986631401e+00 -9.9914206051267733e+00 -4.2159931559497039e+00 -1 -5 -4
689 230 2 4.0999999999999998e-01 -1.2814180311144806e+01 -8.5344654684786505e+00 -3.8702351279096927e+00 2 0 5
1137 379 2 4.0999999999999998e-01 -1.3897338769301033e+01 -1.1799689951132688e+01 -2.4251142699670094e+00 -1 0 2
1365 455 2 4.0999999999999998e-01 -8.8168298537389163e+00 -7.0068018119649302e+00 -3.7494725389830990e+00 -1 -5 -1
2270 757 2 4.0999999999999998e-01 -1.0415779456760529e+01 -5.1886806425440994e+00 -4.3456209383587812e+00 -2 7 5
1136 379 2 4.0999999999999998e-01 -1.2388310440216504e+01 -1.1649855601482574e+01 -3.0310080890565594e+00 -1 0 2
1135 379 1 -8.1999999999999995e-01 -1.3356294924603695e+01 -1.1742908436187930e+01 -3.2642114472553061e+00 -1 0 2
1046 349 2 4.0999999999999998e-01 -8.5195852952521705e+00 -6.9513008652780233e+00 -7.1388120042083862e+00 0 -4 1
321 107 2 4.0999999999999998e-01 -1.1695114413210344e+01 -9.5825509587444646e+00 -2.4529345953486601e+00 -7 -3 1
1712 571 2 4.0999999999999998e-01 -1.0253209018034010e+01 -9.6701384274736952e+00 -5.4129655287129275e-01 8 3 1
590 197 2 4.0999999999999998e-01 -8.0397318296069074e+00 -8.8759682026052911e+00 -3.8794142441519064e-01 1 8 -3
319 107 1 -8.1999999999999995e-01 -1.1663195588096224e+01 -9.3457236786950997e+00 -1.4818884253382034e+00 -7 -3 1
1074 358 2 4.0999999999999998e-01 -1.4554358487685821e+01 -1.3884492807370433e+01 -3.7124842646314349e+00 0 -5 4
1939 647 1 -8.1999999999999995e-01 -1.0800978858210806e+01 -1.4308848228177560e+01 -6.4051390494691951e-01 2 -1 5
752 251 2 4.0999999999999998e-01 -1.3009581519447050e+01 -1.3826916945850742e+01 -5.8844111458499153e+00 -2 5 11
617 206 2 4.0999999999999998e-01 -1.4816429406613320e+01 -6.5652958227042557e+00 -6.8570016959891973e+00 -7 3 2
2149 717 1 -8.1999999999999995e-01 -1.2310830406602719e+01 -1.2102532124826226e+01 -3.2034739154247660e-01 2 -3 3
1799 600 2 4.0999999999999998e-01 -7.7527776914144413e+00 -1.2423714205715484e+01 -1.4837740886868414e+00 2 5 -4
1364 455 2 4.0999999999999998e-01 -8.1663745161843444e+00 -7.9643538502270887e+00 -2.5976365648384583e+00 -1 -5 -1
320 107 2 4.0999999999999998e-01 -1.2120280090414226e+01 -8.4680524854657975e+00 -1.3376537056394824e+00 -7 -3 1
1363 455 1 -8.1999999999999995e-01 -8.0291214619953415e+00 -7.5735094272649413e+00 -3.5078227218513920e+00 -1 -5 -1
1941 647 2 4.0999999999999998e-01 -1.1433425684124538e+01 -1.3575524660198187e+01 -3.9094592930939065e-01 2 -1 5
2112 704 2 4.0999999999999998e-01 -7.6128240709050230e+00 -1.0857697804118887e+01 -7.0605640237434342e+00 3 -5 -3
1383 461 2 4.0999999999999998e-01 -1.4099188091072756e+01 -5.4376774618736103e+00 -5.5889715856435274e-01 -5 2 -5
2126 709 2 4.0999999999999998e-01 -9.2750594665741577e+00 -1.4797015369757169e+01 -1.2694719882652024e+00 2 -2 0
2109 703 2 4.0999999999999998e-01 -1.2162738198503483e+01 -1.1477995435748397e+01 -6.3414403790663076e+00 -2 -5 -2
1400 467 2 4.0999999999999998e-01 -1.4459708407775263e+01 -6.7581744063822313e+00 -2.7155858236415717e+00 -2 -3 -4
2151 717 2 4.0999999999999998e-01 -1.2185135259486842e+01 -1.1138549699997428e+01 -5.5481533810931793e-01 2 -3 3
1381 461 1 -8.1999999999999995e-01 -1.3239020710630665e+01 -5.2525212485352064e+00 -8.3643688937845795e-02 -5 2 -5
1401 467 2 4.0999999999999998e-01 -1.4773304381002790e+01 -7.1814960615784891e+00 -4.2612832238997829e+00 -2 -3 -4
932 311 2 4.0999999999999998e-01 -1.0058564593401591e+01 -5.0806852794807416e+00 -2.3749485558892047e-01 -1 -4 -5
1722 574 2 4.0999999999999998e-01 -1.3697748029146496e+01 -5.0523684165858977e+00 -7.4276382780602281e+00 -1 0 -2
1145 382 2 4.0999999999999998e-01 -9.1694935618694906e-01 -9.5380698987582200e+00 -4.6462775953466355e+00 -5 -2 8
2088 696 2 4.0999999999999998e-01 -7.2930070277972270e-01 -7.7946312013155437e+00 -1.4122990373969966e+00 0 -4 5
912 304 2 4.0999999999999998e-01 -3.4116925607406614e+00 -5.2632230798739652e+00 -6.8283005886457708e+00 -6 -2 5
2547 849 2 4.0999999999999998e-01 -4.0400363256054401e+00 -1.4404743591734714e+01 -5.3104855377650839e+00 1 0 0
396 132 2 4.0999999999999998e-01 -4.1934604317444801e-01 -1.4830110115313184e+01 -6.3589055105026198e+00 -1 1 0
917 306 2 4.0999999999999998e-01 -4.1370721804782029e-01 -4.9857880441604507e+00 -3.9339434611193287e+00 -1 -1 5
394 132 1 -8.1999999999999995e-01 -4.7706301703558474e-01 -1.4697762099177126e+01 -7.3484455119624021e+00 -1 1 0
2546 849 2 4.0999999999999998e-01 -4.1688269784573908e+00 -1.4349881079328783e+01 -3.6834861066149713e+00 1 0 0
174 58 2 4.0999999999999998e-01 -3.1268142052839831e+00 -1.1746745123186971e+01 -6.6841907896317068e+00 -3 5 2
1146 382 2 4.0999999999999998e-01 -7.1807636689946364e-01 -1.1116591331839944e+01 -5.0143043761069812e+00 -5 -2 8
1353 451 2 4.0999999999999998e-01 -6.1386073842451303e+00 -7.3732897707949041e+00 -3.5642340189270580e+00 3 0 3
2397 799 2 4.0999999999999998e-01 -3.3601602244641704e-01 -9.3450693945463605e+00 -7.0207805158727341e+00 2 -3 4
2062 688 1 -8.1999999999999995e-01 -6.8589858660412553e+00 -7.6520614356280179e+00 -6.9471289799841038e+00 8 0 1
1351 451 1 -8.1999999999999995e-01 -5.4183604752254926e+00 -6.6809002934518169e+00 -3.6075679713805329e+00 3 0 3
2087 696 2 4.0999999999999998e-01 -1.3076885414948620e+00 -7.1931406192835006e+00 -2.8160086692159894e+00 0 -4 5
1798 600 1 -8.1999999999999995e-01 -7.0466212082370241e+00 -1.2168297092266510e+01 -2.1441843705735604e+00 2 5 -4
843 281 2 4.0999999999999998e-01 -2.1512199719084091e+00 -9.2052865257376002e+00 -2.8033779080264623e+00 2 -1 4
1800 600 2 4.0999999999999998e-01 -6.6077878359252225e+00 -1.1318833190153935e+01 -1.8511434549019352e+00 2 5 -4
583 195 1 -8.1999999999999995e-01 -3.4678611847875498e+00 -1.3554225739902407e+01 -6.9297273490683837e+00 0 -2 3
712 238 1 -8.1999999999999995e-01 -6.0322535193283304e+00 -1.4353536505004806e+01 -6.8309971151174533e+00 -2 0 -2
2017 673 1 -8.1999999999999995e-01 -3.5483417037582630e+00 -1.2359730896158403e+01 -3.3078572033945477e+00 1 1 2
2057 686 2 4.0999999999999998e-01 -6.7224287190619840e+00 -6.3786086228249790e+00 -8.3342589038276493e-01 2 3 2
584 195 2 4.0999999999999998e-01 -4.4448684768005062e+00 -1.3765460593784050e+01 -6.9001773474051982e+00 0 -2 3
1504 502 1 -8.1999999999999995e-01 -5.0738155386361754e+00 -9.9885664153562281e+00 -1.1920499785965557e+00 2 -2 6
1078 360 1 -8.1999999999999995e-01 -6.0945224918891530e+00 -1.2296626519236835e+01 -4.8940565679271320e+00 3 -1 -3
591 197 2 4.0999999999999998e-01 -6.5649380853891248e+00 -8.7993834656839773e+00 -1.0849653597167741e+00 1 8 -3
2086 696 1 -8.1999999999999995e-01 -1.4795199424254424e+00 -7.8389033149424190e+00 -2.0720320928059994e+00 0 -4 5
477 159 2 4.0999999999999998e-01 -1.9235401716853868e+00 -7.1101106542946386e+00 -4.8964567570802107e+00 -3 1 3
2064 688 2 4.0999999999999998e-01 -6.5115225737364675e+00 -7.0876912110164607e+00 -6.1982684330579332e+00 8 0 1
1506 502 2 4.0999999999999998e-01 -4.4627583092680130e+00 -1.0467264624631721e+01 -5.6157897628429509e-01 2 -2 6
1913 638 2 4.0999999999999998e-01 -6.0613867259882248e-01 -1.3495809670445853e+01 -4.5341886733428272e+00 2 0 2
172 58 1 -8.1999999999999995e-01 -2.7804236086616747e+00 -1.0814170439315223e+01 -6.7859485555001449e+00 -3 5 2
1505 502 2 4.0999999999999998e-01 -4.7198975424022134e+00 -9.0695908525568463e+00 -1.3660114109441714e+00 2 -2 6
2018 673 2 4.0999999999999998e-01 -2.8570049798800738e+00 -1.1643463391000157e+01 -3.2127203340698944e+00 1 1 2
2019 673 2 4.0999999999999998e-01 -4.2771516818559281e+00 -1.2041146492224398e+01 -3.9139732017423636e+00 1 1 2
1912 638 1 -8.1999999999999995e-01 -1.1588904439028003e+00 -1.2668690726364531e+01 -4.6360530674827469e+00 2 0 2
651 217 2 4.0999999999999998e-01 -3.4195833090658834e+00 -7.7879480431715775e+00 -6.1774173904529643e+00 1 2 -4
649 217 1 -8.1999999999999995e-01 -3.6388748230523333e+00 -8.1011920848751302e+00 -5.2533903188294655e+00 1 2 -4
2111 704 2 4.0999999999999998e-01 -6.7047250793360256e+00 -1.0664507247050526e+01 -5.7171512851568735e+00 3 -5 -3
1914 638 2 4.0999999999999998e-01 -2.0777254572359496e+00 -1.2835697047182194e+01 -4.2784391160298352e+00 2 0 2
2063 688 2 4.0999999999999998e-01 -6.7268626876949664e+00 -8.6182013843243261e+00 -6.7254225034791073e+00 8 0 1
1079 360 2 4.0999999999999998e-01 -6.4180614511901375e+00 -1.3086743079512715e+01 -5.4147051671830262e+00 3 -1 -3
842 281 2 4.0999999999999998e-01 -3.0536163799918175e+00 -9.2355075098987705e+00 -4.1640731417012251e+00 2 -1 4
1173 391 2 4.0999999999999998e-01 -4.6948572278051603e+00 -7.1620310492703254e+00 -2.1305818005925605e+00 0 -1 4
1352 451 2 4.0999999999999998e-01 -5.7821223894629394e+00 -5.8470805004838500e+00 -4.0228491344155728e+00 3 0 3
1080 360 2 4.0999999999999998e-01 -6.5612105524052620e+00 -1.2266115247389315e+01 -4.0101403284603094e+00 3 -1 -3
475 159 1 -8.1999999999999995e-01 -1.2053789842955780e+00 -6.4854507322377550e+00 -4.5897303179944942e+00 -3 1 3
650 217 2 4.0999999999999998e-01 -4.3264471380795086e+00 -7.4967796303419885e+00 -4.8509397006336119e+00 1 2 -4
589 197 1 -8.1999999999999995e-01 -7.4388194901612588e+00 -8.3272036443549151e+00 -9.6914573393325831e-01 1 8 -3
1172 391 2 4.0999999999999998e-01 -3.1706150322240969e+00 -7.4836620175816178e+00 -1.6407212463289138e+00 0 -1 4
841 281 1 -8.1999999999999995e-01 -2.5509665699699013e+00 -9.7950727010165153e+00 -3.5050840733217878e+00 2 -1 4
1171 391 1 -8.1999999999999995e-01 -4.1236793087339247e+00 -7.4080783178349385e+00 -1.3474769751249500e+00 0 -1 4
1297 433 1 -8.1999999999999995e-01 -5.3650968275251607e+00 -1.4420822599751626e+01 -2.0531877355003179e+00 2 2 2
1299 433 2 4.0999999999999998e-01 -4.6040550569925269e+00 -1.3772177529906147e+01 -2.0426233869649906e+00 2 2 2
2110 704 1 -8.1999999999999995e-01 -7.1829666947925181e+00 -1.0188034646358325e+01 -6.4549151039056056e+00 3 -5 -3
476 159 2 4.0999999999999998e-01 -6.2076344760082769e-01 -6.2436743794958183e+00 -5.3642014746798186e+00 -3 1 3
173 58 2 4.0999999999999998e-01 -2.2282927556288925e+00 -1.0574682032549418e+01 -5.9873037879823379e+00 -3 5 2
1298 433 2 4.0999999999999998e-01 -6.2303050938695286e+00 -1.3919969301689862e+01 -2.0287489113541604e+00 2 2 2
2056 686 1 -8.1999999999999995e-01 -6.3593075270737369e+00 -5.4750016170827838e+00 -6.0610670729112215e-01 2 3 2
1144 382 1 -8.1999999999999995e-01 -4.8679924378041228e-01 -1.0180749584985108e+01 -5.2802888745730012e+00 -5 -2 8
2545 849 1 -8.1999999999999995e-01 -3.8026673914676863e+00 -1.4867882802924504e+01 -4.4565565858874621e+00 1 0 0
2158 720 1 -8.1999999999999995e-01 -8.3337778942228482e+00 -1.1897094151620433e+01 3.9199677724692723e+00 -1 0 1
776 259 2 4.0999999999999998e-01 -8.0547081936823304e+00 -6.9341210864094665e+00 3.3126851811790470e+00 -1 11 3
775 259 1 -8.1999999999999995e-01 -8.7392195320590176e+00 -7.4046918554507783e+00 3.8695011419812584e+00 -1 11 3
777 259 2 4.0999999999999998e-01 -9.4717533354449355e+00 -6.7666414494460643e+00 4.1068248171642399e+00 -1 11 3
2150 717 2 4.0999999999999998e-01 -1.3211652116057532e+01 -1.2229878771514173e+01 9.4790775953384809e-02 2 -3 3
1893 631 2 4.0999999999999998e-01 -8.7699590089510551e+00 -6.0548651977871462e+00 1.4665816998350305e+00 3 1 -9
1215 405 2 4.0999999999999998e-01 -1.0154297590095677e+01 -8.2593797786389676e+00 6.5566340066329740e+00 -3 2 -3
2368 790 1 -8.1999999999999995e-01 -1.2126407082902126e+01 -6.0236505279092256e+00 4.5316475723504208e+00 1 3 -2
759 253 2 4.0999999999999998e-01 -8.3758812468760091e+00 -7.8096129512441008e+00 6.1355960082520316e+00 -6 3 -1
1866 622 2 4.0999999999999998e-01 -1.0742309136200360e+01 -9.8951116765854277e+00 3.1048134579453137e+00 2 3 5
1865 622 2 4.0999999999999998e-01 -9.5089983195406269e+00 -8.8568360484256310e+00 3.3649141798457816e+00 2 3 5
1864 622 1 -8.1999999999999995e-01 -9.7900916098474298e+00 -9.6861651886901985e+00 2.8819686496407204e+00 2 3 5
2160 720 2 4.0999999999999998e-01 -8.9116601090329013e+00 -1.1121539132138050e+01 3.6657962596973217e+00 -1 0 1
812 271 2 4.0999999999999998e-01 -8.5424430995128624e+00 -1.2736594846533038e+01 1.1471872303912267e+00 1 -1 4
2370 790 2 4.0999999999999998e-01 -1.2960551902048497e+01 -6.1076664675479471e+00 3.9865050489560279e+00 1 3 -2
811 271 1 -8.1999999999999995e-01 -8.0570515159362444e+00 -1.2125561207516352e+01 5.2183163332943749e-01 1 -1 4
472 158 1 -8.1999999999999995e-01 -1.2501817613554840e+01 -1.0982598354627248e+01 3.3964129942508858e+00 -3 -2 2
473 158 2 4.0999999999999998e-01 -1.2195483428910638e+01 -1.1192303022169542e+01 4.3249709779443730e+00 -3 -2 2
2369 790 2 4.0999999999999998e-01 -1.1951625663446753e+01 -6.8851442184031946e+00 5.0084249840731534e+00 1 3 -2
1214 405 2 4.0999999999999998e-01 -1.1238587565824524e+01 -9.3247251509958744e+00 5.9599107985850335e+00 -3 2 -3
1213 405 1 -8.1999999999999995e-01 -1.0999440942097007e+01 -8.3563230117791605e+00 6.0309236374720978e+00 -3 2 -3
813 271 2 4.0999999999999998e-01 -8.5220171748482016e+00 -1.1240697387217846e+01 4.9251343758684563e-01 1 -1 4
1382 461 2 4.0999999999999998e-01 -1.3385028922757240e+01 -5.3091318637831986e+00 9.0403715011653141e-01 -5 2 -5
474 158 2 4.0999999999999998e-01 -1.3401558379851423e+01 -1.0547626276455423e+01 3.4325029222577665e+00 -3 -2 2
286 96 1 -8.1999999999999995e-01 -1.4663881535367887e+01 -1.2256890303456537e+01 1.1114853476722306e+00 1 -4 0
1211 404 2 4.0999999999999998e-01 -9.5144421783529776e+00 -1.4478506330575245e+01 6.3394405932223261e+00 2 0 3
551 184 2 4.0999999999999998e-01 -1.2582690077036297e+01 -1.1065065257246873e+01 6.8616666690514432e+00 -1 5 10
2034 678 2 4.0999999999999998e-01 -9.1644724619818128e+00 -1.3401904302121096e+01 4.1755463832333870e+00 2 3 5
2189 730 2 4.0999999999999998e-01 -1.4868640919940828e+01 -1.0292307367166771e+01 6.7398996124155506e+00 1 0 -1
2032 678 1 -8.1999999999999995e-01 -9.7535566126803968e+00 -1.4107962272103869e+01 4.5686095187375653e+00 2 3 5
2179 727 1 -8.1999999999999995e-01 -1.2014577627882463e+01 -1.3951476329729358e+01 3.1436469394201563e+00 4 0 -2
1713 571 2 4.0999999999999998e-01 -9.6926708260934369e+00 -9.7130276061600576e+00 9.9189670725983881e-01 8 3 1
1294 432 1 -8.1999999999999995e-01 -9.1185585632607484e+00 -1.4452674471170916e+01 1.5860983528131474e+00 4 2 -5
2180 727 2 4.0999999999999998e-01 -1.2817721779177546e+01 -1.4495017247225627e+01 3.3876948916898488e+00 4 0 -2
757 253 1 -8.1999999999999995e-01 -8.5345118781252793e+00 -8.2191833602600486e+00 7.0339973676041527e+00 -6 3 -1
1891 631 1 -8.1999999999999995e-01 -9.5353163624303257e+00 -6.4872146065069423e+00 9.8978118955880667e-01 3 1 -9
1711 571 1 -8.1999999999999995e-01 -9.4356146633498277e+00 -9.7640094157230202e+00 2.6826965560005078e-02 8 3 1