LAMMPS data file via write_data, version 15 May 2015, timestep = 8008000

2611 atoms
6 atom types
1749 bonds
4 bond types
894 angles
3 angle types
44 dihedrals
3 dihedral types
10 impropers
1 improper types

-1.4882757985389963e+01 1.4882757985389963e+01 xlo xhi
-1.4882757985389963e+01 1.4882757985389963e+01 ylo yhi
-1.4882757985389963e+01 1.4882757985389963e+01 zlo zhi

Masses

1 15.9994
2 1.00794
3 12.0107
4 1.00794
5 12.0107
6 12.0107

Bond Coeffs # harmonic

1 1000 1
2 469 1.4
3 367 1.08
4 469 0.7

Angle Coeffs # harmonic

1 100 109.47
2 35 120
3 63 120

Dihedral Coeffs # opls

1 0 7.25 0 0
2 0 7.25 0 0
3 0 7.25 0 0

Improper Coeffs # cvff

1 2.5 -1 2

Atoms # full

1375 459 1 -8.1999999999999995e-01 -1.2925256521552702e+01 -1.2605137484971106e+01 -1.1192861454711892e+01 -5 1 0
2338 780 1 -8.1999999999999995e-01 -9.3313278565334521e+00 -1.3828035490537511e+01 -1.3115208134698285e+01 -3 3 2
193 65 1 -8.1999999999999995e-01 -6.6583530616524271e+00 -1.0895945724259819e+01 -1.1862981158984876e+01 -1 4 0
800 267 2 4.0999999999999998e-01 -1.2424499137967686e+01 -9.7130996146216688e+00 -9.8724082853389739e+00 -3 -2 0
1778 593 2 4.0999999999999998e-01 -1.3703805345444362e+01 -8.0808410982243153e+00 -1.0759504116450525e+01 2 2 0
76 26 1 -8.1999999999999995e-01 -9.5646398273967250e+00 -8.7874451052806890e+00 -1.1425157895395396e+01 1 1 4
2340 780 2 4.0999999999999998e-01 -9.0062169845286064e+00 -1.4143529340489227e+01 -1.2223740805230914e+01 -3 3 2
1280 427 2 4.0999999999999998e-01 -1.1301615226227561e+01 -1.1494372181100282e+01 -1.1577608959387240e+01 1 -1 2
1279 427 1 -8.1999999999999995e-01 -1.0336592125124714e+01 -1.1435908048020053e+01 -1.1833069055776553e+01 1 -1 2
1281 427 2 4.0999999999999998e-01 -1.0056582890002577e+01 -1.0476326942393356e+01 -1.1860389381066133e+01 1 -1 2
1915 639 1 -8.1999999999999995e-01 -1.0510318262514083e+01 -7.6815925613434386e+00 -1.3671211716729825e+01 -3 2 3
1916 639 2 4.0999999999999998e-01 -9.7783411496316646e+00 -8.0059867983075108e+00 -1.4270315562901645e+01 -3 2 3
1070 357 2 4.0999999999999998e-01 -9.2044958341021594e+00 -1.2199595456260003e+01 -9.0816260197267571e+00 1 0 3
1377 459 2 4.0999999999999998e-01 -1.3517320903588724e+01 -1.2829651078990995e+01 -1.1966812932425016e+01 -5 1 0
77 26 2 4.0999999999999998e-01 -8.5857173345522355e+00 -8.5839273438533770e+00 -1.1440609082111665e+01 1 1 4
1069 357 1 -8.1999999999999995e-01 -1.0118896480161094e+01 -1.2545501989564290e+01 -8.8714651008372627e+00 1 0 3
1071 357 2 4.0999999999999998e-01 -1.0351812015915737e+01 -1.3280331908614855e+01 -9.5084288871629212e+00 1 0 3
1917 639 2 4.0999999999999998e-01 -1.0234636063405095e+01 -7.7949292701091268e+00 -1.2716695184193085e+01 -3 2 3
78 26 2 4.0999999999999998e-01 -9.9741428354825885e+00 -8.3929549362374196e+00 -1.0602581293909633e+01 1 1 4
1376 459 2 4.0999999999999998e-01 -1.2531311657279922e+01 -1.3445170201405285e+01 -1.0819900418068439e+01 -5 1 0
799 267 1 -8.1999999999999995e-01 -1.2981555123189555e+01 -9.5144467998820872e+00 -1.0678741454212879e+01 -3 -2 0
801 267 2 4.0999999999999998e-01 -1.2971241841953693e+01 -1.0303060561357556e+01 -1.1293501114145736e+01 -3 -2 0
2339 780 2 4.0999999999999998e-01 -9.6868885303791004e+00 -1.2897300749890578e+01 -1.3030020468881620e+01 -3 3 2
739 247 1 -8.1999999999999995e-01 -1.1331229119743323e+01 -1.4835165938735608e+01 -1.0350137109421535e+01 -1 1 1
236 79 2 4.0999999999999998e-01 -7.0997094728457100e+00 -1.1986506609307886e+01 -1.0408374017341613e+01 1 3 -1
235 79 1 -8.1999999999999995e-01 -7.3022903340926737e+00 -1.2362086344429951e+01 -9.5040243196201377e+00 1 3 -1
1808 603 2 4.0999999999999998e-01 -1.0832035230111067e+01 -8.6256195080872118e+00 -8.5472952743290307e+00 -2 1 1
1751 584 2 4.0999999999999998e-01 -5.3522600543403183e+00 -1.4426574883723777e+01 -1.1673457096314543e+01 0 2 1
195 65 2 4.0999999999999998e-01 -6.9355343134696490e+00 -1.0998925373754711e+01 -1.2818236766606143e+01 -1 4 0
237 79 2 4.0999999999999998e-01 -6.5188448367087144e+00 -1.2892500225346621e+01 -9.1802623652908579e+00 1 3 -1
194 65 2 4.0999999999999998e-01 -6.4910424609122561e+00 -9.9297892750078205e+00 -1.1666776144840860e+01 -1 4 0
960 320 2 4.0999999999999998e-01 -1.3962127767978112e+01 -1.2578357408195826e+01 -1.4409487386282464e+01 -1 -2 -1
1112 371 2 4.0999999999999998e-01 -1.2257240255270069e+01 -7.5400504210866588e+00 -1.3843472463925298e+01 -2 -3 1
1992 664 2 4.0999999999999998e-01 -7.8030425209286953e+00 -9.8563940570485684e+00 -1.4771856318534544e+01 0 1 1
1561 521 1 -8.1999999999999995e-01 -5.1749910291428645e+00 -1.3014678315080833e+01 -7.7230959842950559e+00 -1 2 2
2362 788 1 -8.1999999999999995e-01 -7.4978518202027500e+00 -9.5540310644072122e+00 -8.8146612021712549e+00 0 3 -1
1111 371 1 -8.1999999999999995e-01 -1.3243788164456801e+01 -7.5614929017096815e+00 -1.4005370312154403e+01 -2 -3 1
1113 371 2 4.0999999999999998e-01 -1.3634192491091810e+01 -8.3764414458267851e+00 -1.3577128820437869e+01 -2 -3 1
1286 429 2 4.0999999999999998e-01 -6.7354126511981676e+00 -8.6200676053878347e+00 -1.0253029958079932e+01 -3 -2 0
958 320 1 -8.1999999999999995e-01 -1.4441047217482788e+01 -1.2711235374986021e+01 -1.3541773684784308e+01 -1 -2 -1
883 295 1 -8.1999999999999995e-01 -7.1097944546297862e+00 -1.1660793713607063e+01 -1.4621333224372426e+01 -1 -4 0
1253 418 2 4.0999999999999998e-01 -8.1678980568089337e+00 -1.3786406315042015e+01 -1.0017222891677029e+01 -1 0 1
2363 788 2 4.0999999999999998e-01 -7.9397724115060750e+00 -1.0449485674536568e+01 -8.7616072881747691e+00 0 3 -1
1285 429 1 -8.1999999999999995e-01 -6.6179088688531138e+00 -8.2628366040025032e+00 -1.1179596966087976e+01 -3 -2 0
85 29 1 -8.1999999999999995e-01 -1.1620975455704013e+01 -1.0134173715919196e+01 -8.5688227894871076e+00 -2 -1 3
1529 510 2 4.0999999999999998e-01 -5.0579977149585940e+00 -8.4012060726866267e+00 -1.1787212171848580e+01 1 -1 -1
2364 788 2 4.0999999999999998e-01 -6.8593738364896080e+00 -9.4517283836576489e+00 -8.0518850327718496e+00 0 3 -1
1991 664 2 4.0999999999999998e-01 -7.6468254598121375e+00 -8.2356785663065857e+00 -1.4647905152914111e+01 0 1 1
87 29 2 4.0999999999999998e-01 -1.2208365660183089e+01 -1.0178727495732755e+01 -7.7607787309911425e+00 -2 -1 3
1252 418 1 -8.1999999999999995e-01 -8.5278134530627998e+00 -1.4701094905363691e+01 -1.0200943252113596e+01 -1 0 1
1807 603 1 -8.1999999999999995e-01 -1.0456568510916760e+01 -7.6998904193320543e+00 -8.5919929105688091e+00 -2 1 1
1842 614 2 4.0999999999999998e-01 -8.1623441155935659e+00 -7.7025409919977497e+00 -8.3555380412024860e+00 0 0 0
1990 664 1 -8.1999999999999995e-01 -8.2990850516065073e+00 -8.9929335012061848e+00 -1.4680613659348699e+01 0 1 1
86 29 2 4.0999999999999998e-01 -1.1023095160660421e+01 -1.0935423405518673e+01 -8.5908579963330745e+00 -2 -1 3
2130 710 2 4.0999999999999998e-01 -1.0708285883445832e+01 -1.4836458086704901e+01 -1.3578731233804895e+01 2 3 -1
885 295 2 4.0999999999999998e-01 -7.2953006389779551e+00 -1.2642017827418995e+01 -1.4569044042963302e+01 -1 -4 0
242 81 2 4.0999999999999998e-01 -8.5627259886178617e+00 -1.4749717342603867e+01 -1.4740568561443984e+01 -1 2 -2
1777 593 1 -8.1999999999999995e-01 -1.4231574679967231e+01 -7.2432327067857845e+00 -1.0618722731914700e+01 2 2 0
2047 683 1 -8.1999999999999995e-01 -8.7233734276862052e+00 -1.0117168061272004e+00 -7.9461030500327814e+00 2 1 -3
2000 667 2 4.0999999999999998e-01 -1.1851808642105018e+01 -3.6974223567463049e-01 -8.2426588131564280e+00 2 -3 0
1994 665 2 4.0999999999999998e-01 -1.4670514192143347e+01 -5.3959230356786101e+00 -1.0803999944313418e+01 -3 -1 0
1433 478 2 4.0999999999999998e-01 -8.8748611850878341e+00 -5.1001507725823050e+00 -7.5652368818731190e+00 -1 0 2
1841 614 2 4.0999999999999998e-01 -7.1431851563557967e+00 -6.7340453914267382e+00 -7.5249853562630058e+00 0 0 0
93 31 2 4.0999999999999998e-01 -1.4188058639612212e+01 -1.3718808504605509e+00 -8.7280121539152713e+00 2 3 -2
1145 382 2 4.0999999999999998e-01 -1.3255819399870306e+01 -3.8240191912688370e+00 -7.5561264010280311e+00 0 -2 5
1287 429 2 4.0999999999999998e-01 -6.9822864374461409e+00 -7.3328184696536809e+00 -1.1226954732749324e+01 -3 -2 0
1515 505 2 4.0999999999999998e-01 -5.7315485557745536e+00 -7.1637954600519249e+00 -1.4643287850601912e+01 -2 2 -1
1892 631 2 4.0999999999999998e-01 -1.3282851920708104e+01 -5.8109143819007212e+00 -1.3522718879038493e+01 0 1 -3
1809 603 2 4.0999999999999998e-01 -1.0362110436576762e+01 -7.3334736532212998e+00 -7.6663774703758216e+00 -2 1 1
1104 368 2 4.0999999999999998e-01 -7.0108841991931534e+00 -1.7976898648339379e-01 -1.0730706473430931e+01 0 0 2
1891 631 1 -8.1999999999999995e-01 -1.3480992015187940e+01 -4.8548934964868113e+00 -1.3738848920755348e+01 0 1 -3
67 23 1 -8.1999999999999995e-01 -5.3258004036542310e+00 -3.3919425675040316e+00 -1.3815168141627943e+01 -2 1 2
1833 611 2 4.0999999999999998e-01 -7.4327890384191839e+00 -5.9543066861619582e+00 -1.2956836999553325e+01 -1 1 3
1103 368 2 4.0999999999999998e-01 -7.7372746474370988e+00 -1.2749457895084273e+00 -9.7614639702136525e+00 0 0 2
1831 611 1 -8.1999999999999995e-01 -7.2275704715287707e+00 -5.5771130673163398e+00 -1.3859919451366324e+01 -1 1 3
1312 438 1 -8.1999999999999995e-01 -1.3111636641814831e+01 -1.8191731942292524e+00 -1.3166502323171517e+01 1 2 2
1314 438 2 4.0999999999999998e-01 -1.3032172231208889e+01 -2.7938614206100620e+00 -1.2957658409280938e+01 1 2 2
92 31 2 4.0999999999999998e-01 -1.4463888484310340e+01 -2.9219562268282591e+00 -9.1612219756293207e+00 2 3 -2
2049 683 2 4.0999999999999998e-01 -9.5891461916474121e+00 -1.4869119221384342e+00 -8.1028658202572945e+00 2 1 -3
1102 368 1 -8.1999999999999995e-01 -7.3298966342159844e+00 -1.1250200763164688e+00 -1.0662304070510618e+01 0 0 2
1893 631 2 4.0999999999999998e-01 -1.4449669046227468e+01 -4.6696716088989021e+00 -1.3573605850953314e+01 0 1 -3
68 23 2 4.0999999999999998e-01 -5.0851719087498815e+00 -2.7397601325116838e+00 -1.3096347255203382e+01 -2 1 2
1832 611 2 4.0999999999999998e-01 -6.7181725373205143e+00 -4.7228585809070562e+00 -1.3756427831283192e+01 -1 1 3
230 77 2 4.0999999999999998e-01 -1.1380419961929789e+01 -2.4953366974681934e-01 -1.3589618286518892e+01 -2 -2 -1
91 31 1 -8.1999999999999995e-01 -1.3818567398455510e+01 -2.3010132346535119e+00 -8.7163196425499123e+00 2 3 -2
2384 795 2 4.0999999999999998e-01 -8.0924774866464269e+00 -2.4629164373463208e+00 -1.1538880897581496e+01 -1 -1 0
2385 795 2 4.0999999999999998e-01 -9.5408774430975178e+00 -3.1152749665380544e+00 -1.1917103587344887e+01 -1 -1 0
1430 477 2 4.0999999999999998e-01 -1.1927382127317600e+01 -2.7831403483943848e+00 -8.4219858913740850e+00 -1 5 5
1631 544 2 4.0999999999999998e-01 -1.1104885774930500e+01 -3.0419471286617981e+00 -1.0225887261538402e+01 0 -1 1
2383 795 1 -8.1999999999999995e-01 -8.5527258736785399e+00 -3.1869048786206555e+00 -1.2052650977476976e+01 -1 -1 0
1431 477 2 4.0999999999999998e-01 -1.0599764675677488e+01 -3.5592801917670389e+00 -7.8728726770665727e+00 -1 5 5
1429 477 1 -8.1999999999999995e-01 -1.0932749732658184e+01 -2.7349806719266017e+00 -8.3306922552221572e+00 -1 5 5
2483 828 2 4.0999999999999998e-01 -8.8384606332711222e+00 -3.3487308260036546e+00 -1.4001116510509959e+01 -3 0 4
207 69 2 4.0999999999999998e-01 -1.1501787433935085e+01 -6.3971586195834735e+00 -9.1087499290350724e+00 -2 0 2
1664 555 2 4.0999999999999998e-01 -6.1273146330117196e+00 -1.9012446222178578e+00 -1.4595885333548967e+01 0 2 3
281 94 2 4.0999999999999998e-01 -8.0222654895885395e+00 -5.9714336918586390e+00 -1.0170622045847054e+01 -4 -1 3
282 94 2 4.0999999999999998e-01 -8.1287400666661895e+00 -5.0093677078922028e+00 -1.1485756519341335e+01 -4 -1 3
1630 544 1 -8.1999999999999995e-01 -1.1154068026478772e+01 -3.5553303815185178e+00 -1.1082605535693247e+01 0 -1 1
1541 514 2 4.0999999999999998e-01 -5.7830420419440660e+00 -1.4637438659613178e+00 -1.1670864349339386e+01 0 1 5
280 94 1 -8.1999999999999995e-01 -7.8588983532882244e+00 -5.9138281635421812e+00 -1.1155477544227153e+01 -4 -1 3
1632 544 2 4.0999999999999998e-01 -1.1605795136479339e+01 -4.4325238307581660e+00 -1.0920057737126394e+01 0 -1 1
206 69 2 4.0999999999999998e-01 -1.2807862055725067e+01 -5.8990123663739134e+00 -9.9528505338844067e+00 -2 0 2
205 69 1 -8.1999999999999995e-01 -1.1879216885734007e+01 -5.6600206244249502e+00 -9.6692158848440286e+00 -2 0 2
1313 438 2 4.0999999999999998e-01 -1.2930327063186789e+01 -1.2854618738746257e+00 -1.2340532248660352e+01 1 2 2
1840 614 1 -8.1999999999999995e-01 -7.8441327431326355e+00 -6.7619115857598562e+00 -8.2376166797915609e+00 0 0 0
965 322 2 4.0999999999999998e-01 -1.3672887132255493e+01 -1.2848998022071125e+00 -1.4755820327870167e+01 -4 -1 1
229 77 1 -8.1999999999999995e-01 -1.0713227871744628e+01 -1.3878491994210407e-01 -1.4326189371867056e+01 -2 -2 -1
1665 555 2 4.0999999999999998e-01 -7.6239089002381695e+00 -1.3118866674844103e+00 -1.4877575298125445e+01 0 2 3
2050 684 1 -8.1999999999999995e-01 -1.4298643594028755e+01 -1.2974573971204473e+01 -1.1844024374646498e+00 -2 0 -1
2051 684 2 4.0999999999999998e-01 -1.4680862910711856e+01 -1.3035500371164877e+01 -2.1064349535849445e+00 -2 0 -1
2435 812 2 4.0999999999999998e-01 -6.6641744232680029e+00 -1.2186269538266366e+01 -6.3076383501467905e+00 -5 4 -2
1685 562 2 4.0999999999999998e-01 -1.3192704665693164e+01 -1.3500165776514127e+01 -6.0773970101933852e+00 -1 2 0
745 249 1 -8.1999999999999995e-01 -1.3191209291724409e+01 -1.0093683711710746e+01 -2.1995704105894873e+00 0 1 0
746 249 2 4.0999999999999998e-01 -1.3077103306775385e+01 -1.1075482734578671e+01 -2.0479192582067167e+00 0 1 0
747 249 2 4.0999999999999998e-01 -1.2590849788370328e+01 -9.7992829588711654e+00 -2.9431052969857898e+00 0 1 0
871 291 1 -8.1999999999999995e-01 -1.1627042683405984e+01 -9.8767114618248204e+00 -4.5105437375203827e+00 1 5 4
873 291 2 4.0999999999999998e-01 -1.2335842914192749e+01 -1.0260096785078836e+01 -5.1026293679737975e+00 1 5 4
412 138 1 -8.1999999999999995e-01 -1.0188344747206486e+01 -1.2001930058358766e+01 -5.2328607469922872e+00 -4 2 2
872 291 2 4.0999999999999998e-01 -1.1055926398286701e+01 -9.2480835407297679e+00 -5.0383700178020074e+00 1 5 4
681 227 2 4.0999999999999998e-01 -1.3946941498665517e+01 -8.1986032573412828e+00 -5.9377229750132656e+00 -1 0 -1
2432 811 2 4.0999999999999998e-01 -1.1069812672387402e+01 -1.3790640941708793e+01 -2.7994723122042533e+00 3 4 -2
414 138 2 4.0999999999999998e-01 -1.0265411189597479e+01 -1.1171753740199083e+01 -4.6807597654207935e+00 -4 2 2
587 196 2 4.0999999999999998e-01 -1.1031199174510022e+01 -1.3373674136526745e+01 -6.0113460095073936e+00 2 1 2
1909 637 1 -8.1999999999999995e-01 -8.0438607689803696e+00 -1.2341868157366388e+01 -1.2229787743156546e+00 0 3 -1
823 275 1 -8.1999999999999995e-01 -8.0039618687805039e+00 -9.9158762085152929e+00 -4.3628125593948539e+00 -2 2 0
824 275 2 4.0999999999999998e-01 -8.4553457571842792e+00 -9.0396430791418680e+00 -4.5313818634552696e+00 -2 2 0
825 275 2 4.0999999999999998e-01 -7.1580888576908617e+00 -9.7622512769227416e+00 -3.8520820072198827e+00 -2 2 0
33 11 2 4.0999999999999998e-01 -5.5564226078521308e+00 -1.4138851420162514e+01 -2.7550904922803010e+00 1 0 1
586 196 1 -8.1999999999999995e-01 -1.1400150718779349e+01 -1.4243769684592058e+01 -6.3380813688827704e+00 2 1 2
31 11 1 -8.1999999999999995e-01 -6.3215009460612190e+00 -1.4133243152445056e+01 -3.3989624886581140e+00 1 0 1
2436 812 2 4.0999999999999998e-01 -7.6849228224304724e+00 -1.1148083782728765e+01 -5.5682265922472514e+00 -5 4 -2
413 138 2 4.0999999999999998e-01 -9.3149490434608264e+00 -1.1998489018072950e+01 -5.7198059243683197e+00 -4 2 2
378 126 2 4.0999999999999998e-01 -1.3637392678510603e+01 -8.4175794761810163e+00 -1.3544254015032156e+00 1 -1 -3
2434 812 1 -8.1999999999999995e-01 -7.6251425551361223e+00 -1.1966048478172283e+01 -6.1403346922867463e+00 -5 4 -2
1503 501 2 4.0999999999999998e-01 -6.6985629107954701e+00 -1.1036990108848652e+01 -2.6748245975623703e+00 1 -1 3
1686 562 2 4.0999999999999998e-01 -1.4697462115144976e+01 -1.3486826650005721e+01 -6.7114423289772791e+00 -1 2 0
2433 811 2 4.0999999999999998e-01 -1.0149005070429070e+01 -1.2887782146275166e+01 -3.8011937855945721e+00 3 4 -2
2431 811 1 -8.1999999999999995e-01 -1.0310561799631962e+01 -1.3141663396529058e+01 -2.8475735685316153e+00 3 4 -2
1321 441 1 -8.1999999999999995e-01 -5.3680918426677682e+00 -9.2104547594582655e+00 -7.0141575018539548e+00 -2 1 3
1323 441 2 4.0999999999999998e-01 -5.2744931591179327e+00 -8.2295118383398709e+00 -6.8440463306639714e+00 -2 1 3
32 11 2 4.0999999999999998e-01 -6.0716892833854317e+00 -1.3602515339314712e+01 -4.2088202507911401e+00 1 0 1
600 200 2 4.0999999999999998e-01 -8.9848825733088411e+00 -8.6129096517227630e+00 -2.7484784604407526e+00 -1 0 -2
1615 539 1 -8.1999999999999995e-01 -8.3104523053909709e+00 -1.4586569575778217e+01 -6.6051101066155908e+00 0 2 5
1621 541 1 -8.1999999999999995e-01 -1.3612689290898063e+01 -1.0523180282569449e+01 -6.2864364250711606e+00 3 3 1
782 261 2 4.0999999999999998e-01 -1.0737547832501333e+01 -1.3254592186449546e+01 -1.1748353809866998e+00 1 1 1
1911 637 2 4.0999999999999998e-01 -7.7592060814111008e+00 -1.3254853835289083e+01 -9.3078633538753763e-01 0 3 -1
1910 637 2 4.0999999999999998e-01 -8.5897905777866370e+00 -1.2414149418361800e+01 -2.0576544831149164e+00 0 3 -1
1501 501 1 -8.1999999999999995e-01 -5.8116226690640644e+00 -1.0626724668928322e+01 -2.8868784237120977e+00 1 -1 3
2052 684 2 4.0999999999999998e-01 -1.4412551035281892e+01 -1.3851619183142866e+01 -7.1775025022501637e-01 -2 0 -1
2559 853 2 4.0999999999999998e-01 -5.4733618025847388e+00 -8.9495403528800139e+00 -2.7755606161285833e+00 2 4 1
376 126 1 -8.1999999999999995e-01 -1.3934595821527765e+01 -7.4944965152332008e+00 -1.1104262310855919e+00 1 -1 -3
1502 501 2 4.0999999999999998e-01 -5.3020232829022600e+00 -1.1232047973069159e+01 -3.4983029159602328e+00 1 -1 3
1623 541 2 4.0999999999999998e-01 -1.4248270461244426e+01 -1.0032132117359509e+01 -6.8821341228376784e+00 3 3 1
1684 562 1 -8.1999999999999995e-01 -1.4119931208029858e+01 -1.3140863023417083e+01 -5.9720407661215429e+00 -1 2 0
1617 539 2 4.0999999999999998e-01 -9.2849969051331875e+00 -1.4533689518805486e+01 -6.8228577398332373e+00 0 2 5
1322 441 2 4.0999999999999998e-01 -5.0322670283607369e+00 -9.7196795766007344e+00 -6.2217817908434583e+00 -2 1 3
2557 853 1 -8.1999999999999995e-01 -5.3243192082253952e+00 -7.9656821119588983e+00 -2.6767841630232976e+00 2 4 1
598 200 1 -8.1999999999999995e-01 -8.8938200108610275e+00 -7.6552020756280985e+00 -3.0213361610661735e+00 -1 0 -2
2558 853 2 4.0999999999999998e-01 -5.5278967579556255e+00 -7.6904051937839055e+00 -1.7372490057049248e+00 2 4 1
588 196 2 4.0999999999999998e-01 -1.1211310903560419e+01 -1.4339922735761590e+01 -7.3153436512318120e+00 2 1 2
679 227 1 -8.1999999999999995e-01 -1.3291006447202919e+01 -7.4523494740238903e+00 -6.0508695194749009e+00 -1 0 -1
1622 541 2 4.0999999999999998e-01 -1.3768864352407322e+01 -1.1507216326474580e+01 -6.3714652311071323e+00 3 3 1
2072 691 2 4.0999999999999998e-01 -1.4414529671551989e+01 -8.4127651507914951e+00 -3.7031083313822482e+00 3 4 3
781 261 1 -8.1999999999999995e-01 -1.1311568038868122e+01 -1.3219562633512053e+01 -3.5677594151160363e-01 1 1 1
377 126 2 4.0999999999999998e-01 -1.4761316469471936e+01 -7.5476444309841444e+00 -5.5037647249550581e-01 1 -1 -3
2037 679 2 4.0999999999999998e-01 -7.9556656836110138e+00 -1.0660447327285123e+01 -7.0960701979402430e-01 0 0 0
1616 539 2 4.0999999999999998e-01 -7.9482349959411227e+00 -1.3664120010673201e+01 -6.4715702638375578e+00 0 2 5
2035 679 1 -8.1999999999999995e-01 -8.0093215620672016e+00 -9.7237642913277593e+00 -3.6363965444902568e-01 0 0 0
1425 475 2 4.0999999999999998e-01 -5.6200588830994764e+00 -1.4485573375459301e+01 -8.3152107165699896e-01 -2 2 1
62 21 2 4.0999999999999998e-01 -5.1528789952756284e+00 -1.0569884878521016e+01 -1.0395933807131819e+00 -1 1 1
1423 475 1 -8.1999999999999995e-01 -6.3715754040646573e+00 -1.4569942829648694e+01 -1.7726409697706913e-01 -2 2 1
2036 679 2 4.0999999999999998e-01 -8.9449979015360377e+00 -9.5305621765861854e+00 -6.8461366580953253e-02 0 0 0
783 261 2 4.0999999999999998e-01 -1.2215065568863846e+01 -1.3592793695185062e+01 -5.6734259259853914e-01 1 1 1
2358 786 2 4.0999999999999998e-01 -1.4657879201533193e+01 -1.3524702274932345e+01 -4.3836841122177859e+00 -1 1 3
2473 825 1 -8.1999999999999995e-01 -6.1815267565180250e+00 -7.5723912735932997e+00 -1.6967887359308875e-02 2 1 1
2475 825 2 4.0999999999999998e-01 -6.7442462082388985e+00 -8.3970289984988593e+00 -7.4124821985607880e-02 2 1 1
888 296 2 4.0999999999999998e-01 -5.9641368783644246e+00 -1.1873799867815453e+00 -6.8512157107330509e+00 -1 1 -2
1516 506 1 -8.1999999999999995e-01 -5.5936964803581173e+00 -3.9862708678680328e+00 -1.6292775878616279e+00 -2 0 0
2296 766 1 -8.1999999999999995e-01 -9.9058767220865960e+00 -3.0221619134105282e-01 -1.1168257009699776e+00 0 0 1
1956 652 2 4.0999999999999998e-01 -5.0330776505089556e+00 -6.1989097583695045e+00 -7.3544451158981214e+00 -3 1 -3
1932 644 2 4.0999999999999998e-01 -1.4211110701607582e+01 -6.0224982387358317e+00 -1.0774367279440931e+00 -1 -1 -1
1851 617 2 4.0999999999999998e-01 -1.2762634988238535e+01 -4.1750258636214781e+00 -6.8616408267644147e-01 -2 -1 3
1817 606 2 4.0999999999999998e-01 -1.4586412499229409e+01 -2.5620123074038386e+00 -3.5364686817803150e+00 -2 0 2
1518 506 2 4.0999999999999998e-01 -6.2099528282588228e+00 -4.7376451272632600e+00 -1.8651002001403256e+00 -2 0 0
1849 617 1 -8.1999999999999995e-01 -1.1867860666990900e+01 -4.1737774273102364e+00 -2.3970602076281899e-01 -2 -1 3
886 296 1 -8.1999999999999995e-01 -6.2755478695319713e+00 -2.1336781729855065e+00 -6.7646681894383853e+00 -1 1 -2
1509 503 2 4.0999999999999998e-01 -1.1213695713907187e+01 -5.8148835910091972e+00 -6.2767279033674761e-01 -4 1 -1
1146 382 2 4.0999999999999998e-01 -1.2205946507535856e+01 -4.9951920084002062e+00 -7.1172555437387999e+00 0 -2 5
1507 503 1 -8.1999999999999995e-01 -1.0614348510162994e+01 -6.5457113934953242e+00 -9.5420178581883697e-01 -4 1 -1
1850 617 2 4.0999999999999998e-01 -1.1309626778828061e+01 -3.4333717672245925e+00 -6.1403452782425383e-01 -2 -1 3
1415 472 2 4.0999999999999998e-01 -1.0138363702012485e+01 -4.2129922104145656e+00 -4.6792041090652443e+00 -1 0 0
1105 369 1 -8.1999999999999995e-01 -5.8095618308379748e+00 -2.1331143906429517e+00 -3.8314689910678457e+00 -6 2 1
1026 342 2 4.0999999999999998e-01 -1.0241806144844432e+01 -2.5412566069200739e+00 -6.1928190467236863e+00 -2 -1 2
1486 496 1 -8.1999999999999995e-01 -1.2474890317199637e+01 -1.5575566309479445e+00 -1.4101879305479699e+00 -1 -1 -3
1107 369 2 4.0999999999999998e-01 -6.5414339454727450e+00 -1.4976781214769410e+00 -3.5854373930163774e+00 -6 2 1
1508 503 2 4.0999999999999998e-01 -9.6665420955702803e+00 -6.3288616189171911e+00 -7.2056386491745883e-01 -4 1 -1
133 45 1 -8.1999999999999995e-01 -8.3622262496355013e+00 -3.4587691403982035e+00 -4.5496034465468167e+00 -2 0 3
680 227 2 4.0999999999999998e-01 -1.3757074658402345e+01 -6.6538124019336706e+00 -6.4317454290417171e+00 -1 0 -1
2097 699 2 4.0999999999999998e-01 -1.2640871303864085e+01 -3.6041845849468483e+00 -4.1991653426790343e+00 1 -2 4
1050 350 2 4.0999999999999998e-01 -1.0416192378245093e+01 -6.4965133503597290e+00 -5.3564906277678936e+00 -1 -1 4
1106 369 2 4.0999999999999998e-01 -5.9301796963479312e+00 -2.4297679985392726e+00 -4.7787785843098796e+00 -6 2 1
2229 743 2 4.0999999999999998e-01 -6.1498735933940161e+00 -6.1826734553921678e+00 -3.7911053970886623e+00 -3 -4 0
599 200 2 4.0999999999999998e-01 -9.2281664679207118e+00 -7.0658696982599922e+00 -2.2859129665584419e+00 -1 0 -2
2096 699 2 4.0999999999999998e-01 -1.3503245433322650e+01 -3.8456126873532348e+00 -5.5646358967538063e+00 1 -2 4
134 45 2 4.0999999999999998e-01 -8.3597496311575110e+00 -2.5420408819243043e+00 -4.1501654924397755e+00 -2 0 3
2518 840 1 -8.1999999999999995e-01 -9.5100007980501733e+00 -3.2092910048887084e+00 -1.3658813841272330e+00 1 -3 0
2519 840 2 4.0999999999999998e-01 -9.0662742015169471e+00 -2.3249327331406260e+00 -1.5106732753538079e+00 1 -3 0
2095 699 1 -8.1999999999999995e-01 -1.3524565675045331e+01 -3.4571096547426912e+00 -4.6434634906982737e+00 1 -2 4
2228 743 2 4.0999999999999998e-01 -7.7376273951290093e+00 -5.9963419844800239e+00 -3.4582316397900428e+00 -3 -4 0
1024 342 1 -8.1999999999999995e-01 -1.0465941566724108e+01 -1.7461082457988759e+00 -5.6293921258498418e+00 -2 -1 2
1144 382 1 -8.1999999999999995e-01 -1.3161021186111682e+01 -4.7007223848158670e+00 -7.0845838726830204e+00 0 -2 5
973 325 1 -8.1999999999999995e-01 -8.2094764967957694e+00 -7.9646445807158983e-01 -3.4770053557150042e+00 -1 2 3
1414 472 1 -8.1999999999999995e-01 -1.0909840352415262e+01 -4.5622247188722440e+00 -4.1474072332045306e+00 -1 0 0
1025 342 2 4.0999999999999998e-01 -1.0908421620541022e+01 -1.0505844975515242e+00 -6.1954359803901049e+00 -2 -1 2
408 136 2 4.0999999999999998e-01 -1.1526962984364561e+01 -6.7967060226823151e-01 -4.1099037148771504e+00 2 2 5
1954 652 1 -8.1999999999999995e-01 -5.5048218977039678e+00 -6.5172938162114722e+00 -6.5322307697031015e+00 -3 1 -3
1434 478 2 4.0999999999999998e-01 -9.0173534444793013e+00 -4.1514255362890236e+00 -6.2438350754418153e+00 -1 0 2
1416 472 2 4.0999999999999998e-01 -1.0682123022459884e+01 -4.5374040148461106e+00 -3.1740233365685047e+00 -1 0 0
1048 350 1 -8.1999999999999995e-01 -1.0740984241377198e+01 -7.3589684732492948e+00 -5.7445999531087040e+00 -1 -1 4
1049 350 2 4.0999999999999998e-01 -1.1736709613392733e+01 -7.3309650984987060e+00 -5.8323171404533269e+00 -1 -1 4
974 325 2 4.0999999999999998e-01 -8.7157613089601078e+00 -3.1800976082862675e-01 -4.1944342595296593e+00 -1 2 3
2227 743 1 -8.1999999999999995e-01 -6.8734138336709485e+00 -5.5166563671579372e+00 -3.6098370763610710e+00 -3 -4 0
1487 496 2 4.0999999999999998e-01 -1.2303076162944707e+01 -9.6217969111419599e-01 -2.1950150729105555e+00 -1 -1 -3
135 45 2 4.0999999999999998e-01 -7.6952610623193802e+00 -4.0316822468774074e+00 -4.0732889593903696e+00 -2 0 3
2297 766 2 4.0999999999999998e-01 -1.0638411045888713e+01 -9.3157224939973382e-01 -8.5749575739231432e-01 0 0 1
975 325 2 4.0999999999999998e-01 -8.3937548852956017e+00 -3.6437695829084049e-01 -2.5942316475316325e+00 -1 2 3
2520 840 2 4.0999999999999998e-01 -8.8804220475035791e+00 -3.8243506585218849e+00 -8.9124503508313246e-01 1 -3 0
1517 506 2 4.0999999999999998e-01 -5.6557842191146488e+00 -3.2727470757635846e+00 -2.3271145035792280e+00 -2 0 0
1488 496 2 4.0999999999999998e-01 -1.3343088563095352e+01 -1.3043511967563948e+00 -9.8349570046828028e-01 -1 -1 -3
887 296 2 4.0999999999999998e-01 -7.1998153793657078e+00 -2.2158169913092198e+00 -7.1374017572383259e+00 -1 1 -2
310 104 1 -8.1999999999999995e-01 -8.0551256070770556e+00 -5.4474730534610458e+00 -4.3442918902885630e-01 -2 0 4
1432 478 1 -8.1999999999999995e-01 -9.4469947174630651e+00 -4.4208844533751215e+00 -7.1056632189124631e+00 -1 0 2
2048 683 2 4.0999999999999998e-01 -8.7996712834203343e+00 -4.4103519613719300e-01 -7.1285159706093593e+00 2 1 -3
312 104 2 4.0999999999999998e-01 -7.4892794845230366e+00 -6.2573752872917972e+00 -2.8007895496227242e-01 -2 0 4
407 136 2 4.0999999999999998e-01 -1.0718727173512828e+01 -9.8492855043856409e-02 -2.8155028150795438e+00 2 2 5
1930 644 1 -8.1999999999999995e-01 -1.4425726710348261e+01 -5.0488252217168483e+00 -1.1539111970844740e+00 -1 -1 -1
1931 644 2 4.0999999999999998e-01 -1.4593768258329025e+01 -4.8188437047273212e+00 -2.1124611804716231e+00 -1 -1 -1
1999 667 1 -8.1999999999999995e-01 -1.1740321175930868e+01 -1.4709823549631196e-01 -7.2741818428706466e+00 2 -3 0
998 333 2 4.0999999999999998e-01 -8.1052731861336653e+00 -9.8523716219959319e+00 6.7278282176432906e+00 -1 -1 -2
507 169 2 4.0999999999999998e-01 -1.1278022390256332e+01 -8.6575300315222776e+00 7.2629462045050861e+00 -1 -4 3
95 32 2 4.0999999999999998e-01 -1.0937166316477866e+01 -9.8637688984952412e+00 8.0695197181073297e-01 -1 0 0
1120 374 1 -8.1999999999999995e-01 -1.2488592518462511e+01 -1.1913610003057833e+01 3.2936564847428702e+00 -3 1 3
1963 655 1 -8.1999999999999995e-01 -1.1474674250887656e+01 -8.2088760621580761e+00 1.0365079554862096e+00 -2 1 -2
1122 374 2 4.0999999999999998e-01 -1.2447532087629446e+01 -1.1240954127339364e+01 2.5548767043644229e+00 -3 1 3
1121 374 2 4.0999999999999998e-01 -1.1623388323104372e+01 -1.1911269099418153e+01 3.7950183151716654e+00 -3 1 3
1964 655 2 4.0999999999999998e-01 -1.2443869556883833e+01 -7.9678047893211632e+00 9.8658077652615184e-01 -2 1 -2
1754 585 2 4.0999999999999998e-01 -1.3815071343270793e+01 -1.3494141479358422e+01 2.5073568484126287e+00 -1 -3 2
55 19 1 -8.1999999999999995e-01 -6.9360807835909046e+00 -9.8294157145519101e+00 3.7191824167743679e+00 -2 -2 -1
152 51 2 4.0999999999999998e-01 -9.3714820780798700e+00 -1.2843604381322059e+01 2.0115005471715488e+00 -5 3 0
589 197 1 -8.1999999999999995e-01 -1.4656474230352746e+01 -9.5168704815829237e+00 4.6156012797775912e+00 0 1 -1
837 279 2 4.0999999999999998e-01 -9.7543607788400166e+00 -1.0694882093575867e+01 2.7401282892428807e+00 -1 2 3
836 279 2 4.0999999999999998e-01 -8.2738075990814544e+00 -1.0774530387168429e+01 3.4243101327383716e+00 -1 2 3
57 19 2 4.0999999999999998e-01 -7.2374693942392083e+00 -9.1582389848498238e+00 3.0419569974356993e+00 -2 -2 -1
835 279 1 -8.1999999999999995e-01 -9.2088873609103743e+00 -1.1127282063693420e+01 3.4580673401739386e+00 -1 2 3
96 32 2 4.0999999999999998e-01 -1.1015639610977484e+01 -1.1423087602288891e+01 3.2856561191056421e-01 -1 0 0
151 51 1 -8.1999999999999995e-01 -9.9166391461464993e+00 -1.3681682558163699e+01 2.0309008776663102e+00 -5 3 0
56 19 2 4.0999999999999998e-01 -6.2675830166451760e+00 -1.0445740379757162e+01 3.3030067785704080e+00 -2 -2 -1
94 32 1 -8.1999999999999995e-01 -1.0628438987308421e+01 -1.0794467826226899e+01 1.0029989385029019e+00 -1 0 0
1362 454 2 4.0999999999999998e-01 -9.6756895982949782e+00 -1.1578650363230585e+01 5.0260121737214742e+00 -2 2 -2