2611
Atoms. Timestep: 8000000
O 6.36697 -14.4565 5.50903
H 6.58037 -13.6368 6.04066
H 5.92154 14.8318 6.09911
O 13.6832 -3.52776 -10.3264
H 14.6464 -3.61528 -10.072
H 13.1789 -3.09607 -9.57854
O 13.0116 -10.4339 11.6056
H 13.2242 -10.162 10.667
H 13.1351 -11.4215 11.7027
O 10.1636 -9.45081 0.453371
H 10.5041 -9.30494 -0.475516
H 9.36507 -10.0522 0.425057
O -14.1456 -1.24137 -11.8708
H -13.3801 -1.88185 -11.8096
H -14.6815 -1.28084 -11.0274
O 0.669393 -14.1711 -4.07031
H 0.794281 14.8454 -4.37247
H 1.40011 -13.9255 -3.43328
O -6.73694 -8.24528 7.069
H -7.41734 -7.95073 6.39792
H -6.15554 -8.95212 6.66599
O 6.67372 -4.8854 -5.34613
H 7.03295 -4.93061 -6.27832
H 5.71351 -5.1648 -5.34502
O 2.85449 13.4248 3.53222
H 3.7025 12.9369 3.73924
H 2.47311 13.0811 2.67406
O 2.97916 -7.19879 -9.88551
H 2.12573 -7.70199 -9.74944
H 2.95639 -6.35341 -9.35175
O -5.20734 -13.1244 -2.43078
H -4.45998 -13.2171 -1.77281
H -5.97694 -12.6556 -1.9972
O -11.2603 14.8368 7.94441
H -11.8513 14.1014 8.27602
H -10.452 14.9043 8.52936
O -3.92087 -4.06298 5.57603
H -4.05176 -3.76774 4.62958
H -4.25441 -3.35268 6.19594
O -4.69618 3.4438 13.6019
H -4.92519 2.55642 14.0021
H -4.34676 3.31093 12.6743
O 5.55377 -5.81348 1.35066
H 6.18374 -6.58291 1.45638
H 5.69183 -5.39026 0.455181
O 4.95962 -0.954506 12.3264
H 4.76887 -1.32401 13.2359
H 4.12553 -0.552974 11.9481
O 0.309791 -14.0291 1.85132
H 0.691864 -13.9237 2.76946
H -0.425865 -14.7062 1.87216
O 11.5406 -7.86198 8.94791
H 12.261 -7.17554 8.84892
H 10.9183 -7.80709 8.16697
O -5.21019 -10.8348 5.1485
H -4.82233 -10.3952 4.3383
H -4.47412 -11.0785 5.78007
O -2.64865 8.55494 -1.18318
H -3.64688 8.53355 -1.23925
H -2.26801 8.74638 -2.08791
O -2.57686 -8.85276 0.426758
H -2.65919 -8.25773 -0.372758
H -1.67748 -9.29001 0.425651
O -13.6946 1.39094 -10.3962
H -13.7235 0.621449 -9.7581
H -14.0733 1.10764 -11.2773
O -6.14325 -3.80604 -12.5582
H -6.72117 -3.26242 -11.9494
H -5.3976 -4.21537 -12.0323
O 5.00119 1.06863 7.5892
H 5.55688 1.74687 8.07011
H 5.06803 0.188751 8.05975
O -10.512 9.01893 -7.18503
H -9.99489 8.16878 -7.28485
H -10.3656 9.59448 -7.98964
O -10.0545 -9.60391 -9.30818
H -9.30256 -9.12019 -8.86027
H -10.7332 -9.87142 -8.62413
O 6.04613 11.4309 0.872922
H 5.65547 10.5694 0.548478
H 6.62063 11.827 0.156633
O -9.44548 11.4423 -0.98184
H -9.60846 12.2974 -0.489627
H -8.59477 11.0282 -0.657968
O -9.0723 -12.268 -8.84242
H -9.37568 -12.3131 -7.89059
H -9.21798 -11.3436 -9.19522
O -11.4905 4.89544 0.530953
H -10.8086 5.61734 0.648812
H -11.6386 4.73284 -0.4446
O 14.8325 -0.907897 -8.80929
H 14.2934 -1.68674 -8.48868
H 14.5414 -0.080593 -8.32877
O -9.00044 -9.70249 0.853001
H -9.73895 -9.09609 1.14785
H -9.38965 -10.5445 0.479349
O 0.805442 9.24054 5.95567
H 1.33289 10.0716 5.77914
H -0.0416519 9.47806 6.43116
O -2.11748 -2.74168 14.8891
H -1.5828 -1.97053 14.5434
H -2.96412 -2.4029 -14.662
O 7.09511 9.00902 10.6378
H 7.01541 9.89321 10.1775
H 7.11974 9.14957 11.6276
O -6.51887 5.37946 6.16225
H -6.85639 6.06249 5.51447
H -6.06823 5.83964 6.92725
O 6.60561 1.59256 13.3984
H 6.21943 0.91002 12.7779
H 7.52906 1.83152 13.0981
O -2.1693 4.23315 -5.89937
H -2.74591 3.46203 -6.16947
H -1.91589 4.13871 -4.9366
O -4.67652 -13.9792 13.4542
H -4.10245 -13.3379 13.9634
H -5.3235 -13.4695 12.8871
O -0.179282 -8.19716 -11.1569
H 0.531806 -8.49355 -10.5193
H 0.164515 -8.26299 -12.0937
O -13.8884 -7.7061 7.24253
H -14.6577 -7.59322 6.6137
H -13.2888 -6.90806 7.18224
O -2.14296 -5.07085 1.05256
H -1.6367 -4.23675 0.833363
H -3.02554 -5.05833 0.582485
O 7.16379 9.32585 -8.96318
H 6.91157 8.42534 -9.31749
H 7.5432 9.22775 -8.04313
O 14.0149 -7.97638 5.28867
H 13.1547 -8.40951 5.55819
H 14.2788 -8.29701 4.37896
O -8.21489 -5.30809 -5.69495
H -8.69355 -5.19172 -4.82466
H -7.34689 -4.81227 -5.66687
O -5.94891 9.82589 -8.21484
H -6.70933 10.4678 -8.31393
H -5.16224 10.1582 -8.73521
O 13.5729 -10.5821 -12.605
H 13.1473 -11.4814 -12.7061
H 14.5174 -10.6218 -12.9312
O -14.3411 12.2644 0.178745
H -14.5823 12.1374 -0.783409
H -14.1746 11.3734 0.601092
O 7.03263 -14.5894 -8.88132
H 7.11084 14.5597 -9.45902
H 7.92349 -14.1398 -8.81617
O 13.958 1.66905 3.00827
H 14.6839 1.54349 2.33201
H 14.3068 2.20688 3.77581
O -6.88585 -12.5502 -0.161562
H -7.85008 -12.4783 0.0936495
H -6.44515 -13.254 0.395775
O 1.47195 4.25122 6.74559
H 1.08746 3.46492 7.22929
H 2.27611 4.58467 7.23773
O -2.96774 8.7241 -10.6975
H -2.86706 9.47914 -10.0495
H -2.06547 8.44286 -11.0244
O 4.7438 -4.4942 12.6561
H 4.73252 -4.16848 11.7106
H 4.1197 -5.27007 12.7488
O 14.7448 10.4071 4.42342
H -14.7517 11.27 4.2259
H -14.6323 9.83806 5.00185
O 8.6612 5.29927 3.88628
H 9.56708 5.53392 4.23897
H 8.75443 4.63906 3.14096
O 12.411 -2.67136 -8.08057
H 11.9391 -3.55237 -8.04627
H 12.3362 -2.21837 -7.19215
O 9.71743 12.9133 -2.09542
H 10.5183 12.7514 -1.51883
H 9.87816 12.5292 -3.00464
O -4.13458 -5.27022 12.2665
H -4.26293 -5.10988 13.2452
H -3.41397 -5.95042 12.1318
O -0.290627 -10.1672 -0.104349
H 0.439426 -10.0926 0.575008
H 0.087738 -10.0182 -1.01797
O 5.19582 -0.383269 -7.4323
H 4.65749 0.428492 -7.65883
H 6.06469 -0.355649 -7.92664
O -1.84887 -12.1778 -2.91643
H -1.10287 -11.583 -2.61691
H -1.59767 -12.6196 -3.77773
O -5.46734 -5.62054 14.9706
H -6.24741 -6.16568 14.6634
H -5.29047 -5.80683 -14.0246
O -8.77442 2.50724 -14.1033
H -8.51726 3.47303 -14.1378
H -7.95207 1.94662 -14.0058
O -7.69864 -9.83146 -11.3645
H -8.49007 -9.6336 -10.7861
H -7.54581 -10.8193 -11.3938
O 4.71895 10.2554 12.6607
H 4.53144 11.2377 12.6578
H 4.32982 9.83935 11.8388
O 9.15674 -13.9266 1.43348
H 9.13678 -13.9776 0.434948
H 10.0547 -13.6039 1.73289
O -14.5239 3.38468 -6.28561
H -14.3863 4.32272 -5.96747
H -14.7314 3.39156 -7.26385
O -10.9272 -7.34204 -10.6442
H -11.6579 -6.97841 -10.0663
H -10.506 -8.12901 -10.1933
O 0.730445 0.681457 13.9018
H 0.868181 -0.0769009 13.2647
H -0.248991 0.818583 14.0501
O 6.75955 -3.82311 -8.35993
H 6.62969 -2.89638 -8.00727
H 5.96559 -4.08528 -8.90854
O 2.83807 7.51049 6.35074
H 2.11041 8.12687 6.04965
H 2.88486 6.72406 5.73478
O 14.8128 -8.89861 2.78651
H -14.6236 -8.65002 1.97267
H 13.8505 -9.01377 2.53981
O 9.35955 1.22021 14.3957
H 9.58738 0.248926 14.4648
H 8.36944 1.33674 14.4743
O -12.3747 -12.4658 0.446219
H -11.5864 -13.0567 0.617785
H -12.9434 -12.4218 1.26765
O -7.8072 -6.13656 13.2124
H -8.34803 -6.69656 13.8401
H -7.9161 -5.17103 13.4489
O -10.9027 1.59505 -11.3774
H -11.8006 1.44318 -10.9641
H -11.0075 1.72649 -12.3632
O -2.99735 -13.1385 -0.405957
H -2.67002 -12.7967 0.474998
H -2.37549 -12.8415 -1.13063
O -5.05045 -12.0483 -11.313
H -5.16854 -12.1498 -10.3252
H -4.09367 -11.8385 -11.5145
O -9.97073 9.20678 9.35225
H -9.93849 9.10373 10.3464
H -9.14255 9.67108 9.03824
O -9.93808 13.9557 12.4436
H -10.026 14.456 13.305
H -9.83271 12.9797 12.6342
O 1.11042 -5.71854 -7.62443
H 1.4554 -6.16918 -6.80103
H 0.115402 -5.81091 -7.66293
O 4.54765 -10.2868 12.0802
H 5.39811 -10.6166 11.6703
H 3.77581 -10.8003 11.7051
O -4.61115 -2.41428 3.23899
H -4.59396 -2.10583 2.28787
H -4.89248 -1.65795 3.82965
O -11.1573 1.45992 -14.0622
H -10.2571 1.87727 -14.1863
H -11.0636 0.464466 -14.0437
O 2.99025 5.86696 -6.51212
H 3.69557 6.54069 -6.29146
H 3.33417 5.24158 -7.21261
O -3.77359 14.1306 11.5506
H -3.22865 14.6613 10.9013
H -3.96932 14.6895 12.3565
O 8.82345 2.33837 -3.95092
H 8.09512 2.7209 -4.5195
H 9.10158 3.01296 -3.26708
O -8.58191 -5.22038 7.11539
H -8.39987 -6.04105 6.57369
H -7.76103 -4.64986 7.14225
O -8.25381 -14.9762 6.49952
H -8.85179 14.6855 5.75622
H -8.15913 -13.9811 6.47017
O -7.28368 3.01056 10.1395
H -7.62902 2.19426 10.6026
H -6.29225 2.93772 10.0307
O 13.4674 13.9624 -14.6629
H 13.5363 14.9561 -14.7515
H 12.9423 13.5949 14.5311
O 13.0631 1.65319 -10.0193
H 12.5042 0.845872 -10.2087
H 12.9647 2.3097 -10.7672
O -7.62449 -6.3611 -12.6233
H -7.26324 -5.45895 -12.3873
H -7.59228 -6.95399 -11.8186
O 4.4216 8.40778 -6.637
H 4.05174 8.75203 -5.774
H 3.79393 8.6332 -7.38218
O -7.03638 -3.11248 8.28409
H -6.77896 -3.40812 9.20409
H -6.29493 -2.57044 7.88849
O -2.31373 -7.80918 14.3458
H -1.9079 -6.8964 14.3926
H -3.18499 -7.81218 14.8367
O -13.4646 8.58243 6.7807
H -14.4627 8.63858 6.75538
H -13.1782 7.64598 6.57799
O -2.406 -1.17061 8.66129
H -2.17462 -0.203555 8.55482
H -3.1604 -1.26324 9.31118
O 8.59251 11.3876 1.94201
H 8.61912 11.6454 2.90787
H 7.6416 11.2792 1.65204
O -4.59507 -5.62589 -11.2871
H -3.60363 -5.75487 -11.2656
H -5.02052 -6.19435 -10.5829
O -2.05525 9.3145 6.62813
H -2.39116 10.2518 6.7215
H -2.74809 8.67698 6.96518
O -1.05398 9.23585 9.70823
H -2.0144 9.45358 9.88215
H -0.979007 8.29148 9.3879
O -7.30207 -2.90564 0.393303
H -7.68838 -2.46808 1.20532
H -7.15169 -3.87695 0.57774
O 4.49342 -3.78657 10.1041
H 5.20719 -4.15254 9.50687
H 3.73802 -3.44073 9.54745
O -7.48386 11.6841 2.60083
H -7.44715 11.0071 1.86575
H -6.55562 11.891 2.91004
O 13.4805 -14.8331 3.10802
H 13.767 14.9753 4.05381
H 13.3031 14.2488 2.66678
O -0.231696 -12.5658 -6.12236
H 0.0593521 -12.8933 -5.22343
H 0.18042 -13.1349 -6.83395
O -1.01866 -10.0584 6.674
H -0.633014 -10.6336 5.95254
H -1.58297 -10.6183 7.28075
O -0.531074 2.39391 -11.4076
H 0.0911413 2.39181 -12.1905
H -1.40373 2.80165 -11.6765
O -1.34085 -6.59253 11.9592
H -0.474601 -6.97806 11.6413
H -1.75449 -7.20942 12.6289
O 1.78005 -7.12659 1.4422
H 1.99185 -6.26012 1.89436
H 0.906559 -7.0471 0.961825
O -14.0863 -4.76257 9.80818
H -13.4907 -4.13467 9.3071
H -13.5995 -5.11865 10.6059
O -13.1655 3.9605 2.95736
H -13.2822 4.35669 2.04659
H -12.2343 4.13236 3.27885
O 13.1039 8.4326 0.814239
H 13.4304 7.93423 0.0110636
H 12.3286 7.94549 1.21637
O 2.46341 -2.48116 8.78032
H 1.48441 -2.27897 8.75301
H 2.8291 -2.48483 7.84956
O -11.6783 -12.3976 14.3089
H -11.8976 -12.7752 -14.753
H -11.4917 -11.4189 14.3946
O 1.49974 -10.3521 -6.45597
H 2.29728 -10.7238 -6.93116
H 0.832704 -11.0814 -6.30349
O -5.72105 -0.211521 -11.0312
H -5.00413 -0.857209 -10.7682
H -5.41962 0.720823 -10.8314
O -12.1393 -5.31592 12.189
H -11.1724 -5.06323 12.2256
H -12.2209 -6.29919 12.0259
O -1.81821 -0.392525 11.7852
H -2.51142 -0.834502 11.2158
H -1.6893 0.551356 11.481
O -12.7254 4.98244 12.7439
H -12.4464 4.99396 11.7837
H -11.9533 5.25392 13.3186
O 1.1811 2.70821 4.27463
H 1.56654 3.07815 3.42926
H 1.2115 3.40755 4.98882
O 1.20038 4.55747 14.1573
H 1.23048 5.50598 13.8419
H 1.94808 4.04277 13.7376
O -0.277737 -6.48295 -0.364398
H -0.885683 -5.92999 0.205425
H -0.795455 -7.23553 -0.77142
O -13.7096 -5.82643 -1.88773
H -14.2872 -5.5948 -1.10489
H -12.7714 -5.52989 -1.70909
O 7.73968 8.83903 4.00047
H 8.13494 8.74397 4.91414
H 8.46748 8.79401 3.31611
O 3.01609 14.3122 10.4568
H 2.69236 14.1839 9.51933
H 2.6582 -14.7884 10.8181
O -14.5724 -13.4684 -13.3736
H 14.4798 -13.4516 -13.7891
H -14.1377 -12.5749 -13.4869
O 4.40564 -0.827278 -4.86829
H 4.00142 0.0696624 -4.68892
H 4.93662 -0.790319 -5.71491
O 10.0986 -13.8604 -7.65929
H 10.0833 -14.4802 -6.87465
H 9.98857 -12.9184 -7.34215
O -4.57775 2.73913 -5.84792
H -4.19925 1.82086 -5.96448
H -5.03692 3.01986 -6.69078
O 10.8597 5.56296 -4.08827
H 11.8016 5.57258 -3.75257
H 10.8591 5.40029 -5.07498
O 2.94243 12.0445 1.25868
H 3.86359 11.9061 1.62252
H 2.2997 11.4519 1.74427
O 5.28574 12.2975 3.62029
H 6.0609 12.5835 3.0569
H 5.34436 11.3143 3.79356
O -10.9471 -1.85798 -2.99389
H -10.586 -1.96619 -2.06761
H -10.8086 -2.70525 -3.50673
O 14.2869 7.50101 -1.40016
H 13.7879 6.99062 -2.10056
H -14.9027 7.97708 -1.82124
O -8.74582 -14.6566 -5.47164
H -8.21751 14.6037 -5.9502
H -8.17637 -13.8461 -5.33441
O 9.25571 11.3175 13.725
H 10.0048 11.1843 13.076
H 8.70992 12.1078 13.4466
O -14.2873 5.38221 -0.0908314
H -13.3878 5.78526 0.0779973
H -14.8788 6.0589 -0.529345
O -6.34618 -1.38342 12.5811
H -7.15435 -0.836271 12.7991
H -6.46745 -2.3118 12.9325
O 9.95203 -2.28616 -9.88143
H 10.6737 -2.1076 -9.21252
H 10.188 -3.09642 -10.418
O 7.54854 14.5847 3.21236
H 8.23368 -14.8681 2.69111
H 7.31152 -14.8663 4.03886
O -7.54407 10.7321 8.78205
H -6.60486 11.0416 8.63322
H -8.06911 11.4603 9.22275
O 12.6482 13.0959 1.85258
H 11.7394 13.339 1.51341
H 13.2892 13.0521 1.08628
O 10.9782 10.3227 0.339757
H 11.1265 11.3075 0.430814
H 11.8607 9.85251 0.326407
O -2.10173 9.39577 1.26256
H -2.89101 9.39318 1.87664
H -2.34493 8.94198 0.40524
O 0.308672 -11.3312 4.00724
H 0.812685 -10.5371 3.66759
H -0.421354 -11.5627 3.36416
O 2.83964 2.54414 13.1189
H 2.66407 1.58822 12.8835
H 3.21607 2.59583 14.044
O 5.13555 9.79919 4.59257
H 4.39837 9.16452 4.36056
H 6.01093 9.4149 4.29915
O 5.6597 -4.23893 -1.0015
H 6.3011 -3.95574 -1.71458
H 5.5863 -3.51701 -0.313375
O 12.2146 -2.74127 -12.8594
H 12.9112 -2.86452 -12.1526
H 11.3529 -3.14518 -12.5522
O 7.34676 -7.71367 14.0639
H 7.02478 -7.29956 14.9153
H 8.03319 -7.12032 13.6433
O 2.59383 -2.91316 -5.14116
H 3.22876 -2.15809 -4.97743
H 1.86008 -2.60618 -5.74733
O -11.0296 7.00003 14.1188
H -11.3013 7.28492 -14.9236
H -10.8995 7.80811 13.5443
O -0.26783 -2.83721 8.51546
H -1.04581 -2.24147 8.31568
H -0.314477 -3.13823 9.46797
O 13.471 5.02767 -10.5062
H 12.6064 5.3123 -10.0923
H 13.3688 4.9918 -11.5004
O 3.49564 6.81096 13.2085
H 4.19646 7.01906 12.5261
H 3.91404 6.33327 13.981
O 1.6837 -5.3553 13.3204
H 1.6373 -5.142 12.3445
H 1.79236 -6.34206 13.4411
O -11.0049 12.1416 -11.8698
H -10.2266 11.5599 -12.1064
H -11.7348 12.011 -12.5408
O 9.6973 -0.898189 3.47068
H 9.39095 -1.67551 2.92115
H 10.4772 -0.460465 3.02329
O -4.05337 -1.80241 -13.5079
H -4.83662 -2.41016 -13.3766
H -4.32874 -0.859045 -13.3227
O -13.8789 -10.3553 7.70738
H -13.8581 -9.39968 7.41333
H -13.0405 -10.5679 8.20936
O 6.33729 -6.99877 10.782
H 6.95035 -7.61265 11.2793
H 6.87165 -6.27243 10.3496
O -1.82825 -11.3122 9.65348
H -1.66571 -12.0881 10.2631
H -2.63454 -10.8082 9.96316
O -10.3574 -3.05332 2.52662
H -10.7392 -3.01095 3.44995
H -10.464 -2.16454 2.08076
O 11.017 8.77536 -10.0364
H 11.9698 8.99363 -10.2475
H 10.7377 9.26578 -9.21082
O 13.6895 -9.81065 9.00909
H 13.1416 -9.22406 8.41267
H 14.5327 -10.0701 8.53813
O -10.6466 -13.1759 6.00162
H -10.266 -12.3771 6.46765
H -10.9159 -13.8602 6.67927
O -5.01768 6.05036 8.97944
H -4.43753 6.60343 8.38145
H -4.88456 6.33464 9.92894
O -4.73307 -1.84734 7.12301
H -5.15015 -0.976937 6.86129
H -3.85038 -1.67576 7.56061
O -7.2553 -3.60353 14.1393
H -7.94416 -3.01137 14.5575
H -6.88055 -4.21975 14.8321
O 8.25066 2.44455 1.88515
H 8.5627 3.29729 1.46617
H 8.45354 1.67925 1.27424
O 7.73846 -4.75661 9.21598
H 8.52249 -4.1366 9.18528
H 7.31155 -4.79913 8.31265
O 13.4095 1.70102 -2.95844
H 13.6685 2.57731 -2.55211
H 13.7767 0.954673 -2.40327
O 5.40935 -12.1484 7.00152
H 4.86014 -11.9289 6.19513
H 5.03892 -11.6696 7.79751
O -6.52306 6.27767 -2.33701
H -5.73841 5.65825 -2.36362
H -6.85188 6.43926 -3.26751
O 8.28129 -2.76354 5.3741
H 8.94037 -2.10636 5.00832
H 7.39823 -2.31265 5.50436
O 1.30632 12.5226 -0.930331
H 1.78888 12.4964 -0.0548215
H 1.19351 13.473 -1.22041
O 7.64975 12.0687 9.18046
H 7.12617 12.8773 9.44895
H 7.73153 12.0403 8.18418
O -10.1859 4.88627 -6.17688
H -9.81971 3.95747 -6.11935
H -10.3003 5.25714 -5.25523
O -12.22 -5.27441 6.70747
H -11.3722 -4.80062 6.46922
H -13.0026 -4.71681 6.43051
O -14.9195 3.13979 11.834
H -14.4028 3.89377 12.2396
H 14.1926 3.00543 12.3442
O -2.60639 4.33761 7.15158
H -2.34191 5.15606 6.64143
H -3.60342 4.29121 7.21365
O 13.8048 -6.1697 -6.0322
H 13.2695 -5.60368 -6.65922
H 14.2904 -5.58221 -5.38487
O 12.2041 -0.890831 12.6154
H 11.7392 -0.370534 11.899
H 12.4529 -0.277261 13.3649
O 9.80793 -14.3076 -1.22944
H 10.5607 -13.8482 -1.70099
H 9.74298 14.7083 -1.54773
O -2.0497 -2.83752 -6.28564
H -2.80865 -2.18682 -6.2601
H -2.25056 -3.55801 -6.94943
O -13.4205 4.05866 7.23093
H -14.0236 3.8051 7.98721
H -12.4904 3.74846 7.42796
O 11.3994 -7.49389 -8.0446
H 10.7722 -7.31653 -7.28617
H 12.0181 -8.23991 -7.79803
O 11.8396 -13.038 2.0521
H 12.2941 -13.715 2.63105
H 11.6749 -12.2047 2.57994
O -3.91087 12.0098 -2.25763
H -3.95759 12.5945 -1.44771
H -2.95473 11.88 -2.52038
O -2.24942 5.81694 -9.96925
H -2.47121 5.59604 -10.919
H -3.0329 5.60331 -9.38565
O -0.663758 7.80058 -12.3038
H 0.22645 7.55984 -11.917
H -0.55193 8.54995 -12.9565
O 5.03862 -1.35618 -2.07322
H 5.73455 -1.98594 -2.41838
H 4.45119 -1.06266 -2.82744
O -11.5116 -14.3828 -5.35921
H -10.5217 -14.5251 -5.36812
H -11.9525 14.8908 -5.93562
O -11.8298 -12.1101 3.69126
H -12.4077 -12.7966 3.24989
H -11.5092 -12.4603 4.57145
O 14.7005 -5.14925 5.79493
H 14.2884 -6.02076 5.52893
H 13.981 -4.5083 6.06254
O 3.84292 12.8459 13.3483
H 3.04185 13.2425 13.7966
H 3.87406 13.1461 12.3949
O -8.17228 -7.7845 -1.16066
H -7.86577 -8.69671 -0.888647
H -9.15628 -7.70248 -1.00225
O -0.141512 -14.7905 10.0708
H 0.26363 -14.1992 10.7681
H -1.12834 -14.6331 10.0326
O -7.43524 12.3529 -12.6075
H -7.78524 11.4162 -12.594
H -6.93817 12.5107 -13.4608
O 6.40593 8.42691 -1.12366
H 6.47592 7.7177 -1.82522
H 7.30697 8.58697 -0.720443
O 11.1118 -9.00934 -2.29062
H 10.3874 -9.41564 -2.84756
H 11.5661 -8.28603 -2.81071
O -14.1176 0.142005 8.25312
H -13.2255 -0.00497384 8.68054
H -14.3748 -0.670865 7.73046
O -8.51236 4.02946 7.82744
H -7.82575 4.39334 7.19797
H -8.06872 3.74855 8.67852
O -11.8184 11.7018 -5.41125
H -11.1696 11.7216 -4.65045
H -12.5365 12.38 -5.25475
O -10.9578 2.81241 7.77999
H -10.1599 3.35813 7.5238
H -10.8982 2.56899 8.74812
O 11.1518 6.61478 1.53741
H 10.7471 5.82287 1.08014
H 11.6856 6.30787 2.32542
O -12.8094 14.1135 1.54653
H -13.3706 14.9411 1.53885
H -13.3479 13.3425 1.20642
O -8.33742 2.8495 2.63018
H -9.22184 2.55138 2.98934
H -8.13961 2.3586 1.78168
O -6.38649 13.321 7.05491
H -5.85819 13.6232 6.26142
H -7.14801 13.9509 7.20789
O -12.0113 4.26894 -2.06934
H -11.5273 4.84542 -2.72769
H -12.4144 3.48667 -2.54437
O -9.72622 0.517344 -3.37845
H -8.76865 0.273458 -3.22468
H -10.3022 -0.287767 -3.23653
O -7.05731 8.98877 -5.75691
H -7.38589 9.84318 -5.35432
H -6.68819 9.1701 -6.66846
O 13.2752 -10.6139 -2.16809
H 12.4998 -9.98794 -2.08473
H 14.1259 -10.0888 -2.1963
O 13.4848 5.30222 -2.9741
H 13.6353 4.50406 -2.39071
H 14.133 5.28567 -3.73539
O 8.96917 4.77261 -2.30215
H 8.24993 5.46544 -2.3545
H 9.68533 4.9847 -2.96713
O -13.0176 1.59137 12.7708
H -13.3267 0.646545 12.8796
H -13.7395 2.13035 12.3366
O -14.7156 -1.83099 6.17739
H 14.2683 -1.88765 5.97548
H -14.3532 -2.75025 6.33138
O -4.06987 10.1553 -13.6028
H -3.76888 9.40902 -14.1966
H -4.13887 9.82502 -12.6614
O 10.1277 -3.66024 9.89163
H 10.5418 -2.75112 9.93784
H 10.717 -4.31905 10.3594
O 3.03271 8.50885 -4.10112
H 3.33412 8.23955 -3.18641
H 2.27904 9.16173 -4.02498
O 13.6246 3.67387 -0.924796
H 13.0548 3.75393 -0.106914
H 14.5892 3.6771 -0.66066
O -2.91761 -14.609 9.1366
H -2.42609 -14.4995 8.27261
H -3.60745 -13.8899 9.22112
O 8.51708 -10.4559 -3.77015
H 8.2384 -11.164 -3.12131
H 7.96617 -9.63418 -3.6238
O -12.8004 -5.76622 -5.40668
H -13.5779 -5.46901 -4.85239
H -12.9926 -6.66783 -5.79426
O -11.4814 1.95664 0.482391
H -11.9636 2.79085 0.749956
H -10.8385 2.16514 -0.25467
O 12.8823 3.6113 1.61702
H 13.3589 2.85339 2.06257
H 12.8572 4.39798 2.23393
O -1.36467 12.4878 -2.80601
H -1.32602 12.945 -1.91745
H -0.453309 12.4817 -3.21766
O -4.99809 12.485 9.23461
H -5.50323 12.8754 8.46486
H -4.35235 13.1623 9.58734
O -3.29941 7.36936 -14.3687
H -2.47893 7.09695 -13.866
H -3.17321 7.17718 14.6198
O -1.61871 2.51705 3.61612
H -1.47166 3.50369 3.68671
H -0.742137 2.04271 3.69787
O -14.0622 -7.85618 14.0374
H -14.246 -7.96071 13.06
H -14.8734 -8.12028 14.5592
O 0.908284 -2.02977 -11.5236
H 0.984995 -1.65504 -12.4476
H 1.81939 -2.10753 -11.1187
O 12.3511 -0.968888 -5.98515
H 11.4875 -0.698171 -5.55974
H 12.9207 -0.159345 -6.12764
O 1.04319 7.57843 13.1493
H 0.776216 8.07345 13.9762
H 2.03094 7.42242 13.1585
O -10.1529 -2.89096 6.64965
H -9.42401 -3.57479 6.6151
H -9.77222 -2.01233 6.93804
O -8.24044 0.468135 10.3742
H -9.12159 0.927359 10.4871
H -8.07465 -0.132045 11.1567
O 3.57318 -7.81703 11.4738
H 4.20194 -7.22264 10.9724
H 4.07283 -8.60756 11.828
O -12.6213 7.46739 -6.69903
H -12.9768 7.3615 -7.62772
H -11.7055 7.86738 -6.7363
O 13.1107 -3.48873 -1.02593
H 12.6398 -3.16285 -1.84578
H 12.7479 -3.01575 -0.222979
O 3.34218 -10.8824 -10.8191
H 2.59603 -10.3439 -11.2108
H 4.15896 -10.783 -11.3875
O 13.6884 0.987637 -7.29362
H 14.1366 1.57031 -6.6156
H 13.4324 1.5376 -8.08863
O -4.43465 1.01105 0.924172
H -4.00915 1.23674 1.80058
H -4.61698 0.028541 0.885367
O 11.2258 11.3087 11.7082
H 10.8244 11.6088 10.8429
H 12.1168 10.8891 11.5346
O -12.6647 14.4246 -7.55821
H -12.6356 14.6936 -8.52094
H -13.2929 13.6546 -7.4461
O -11.9533 7.37154 -13.349
H -12.4375 8.21763 -13.126
H -11.1435 7.28802 -12.7682
O -11.0318 -8.73428 -2.42391
H -11.6637 -9.20456 -1.80776
H -10.7397 -9.36263 -3.14496
O 4.56396 -2.28725 -14.7537
H 5.24072 -3.00276 -14.9272
H 3.66203 -2.60297 14.9132
O 12.5501 5.97482 3.66103
H 13.4233 6.452 3.76039
H 12.1129 5.88988 4.55641
O -10.5698 8.90639 -4.18478
H -10.6292 8.87115 -5.18242
H -9.70621 9.33386 -3.91718
O -13.6554 2.83796 -13.932
H -13.664 3.78969 -14.2389
H -12.7819 2.4168 -14.1765
O -3.96723 14.319 -0.357974
H -3.66696 -14.6947 -0.251917
H -4.86405 14.3009 -0.80007
O -2.37567 -7.8806 6.21641
H -2.30827 -7.76756 5.22507
H -2.03676 -8.78593 6.47247
O 9.41871 -10.5187 -9.27936
H 9.30472 -10.0916 -8.38233
H 9.96067 -9.91866 -9.8678
O -6.86241 -4.41261 10.6906
H -6.39607 -4.45611 11.5742
H -6.80215 -5.3022 10.2377
O 8.60748 2.09135 11.4975
H 9.10879 1.22613 11.5093
H 9.2163 2.83322 11.7786
O -6.69172 7.23057 -9.53422
H -6.75318 8.11051 -9.06306
H -5.8053 6.81002 -9.34067
O -12.1956 -3.1101 8.82413
H -11.9357 -2.34128 9.40843
H -11.4519 -3.31038 8.18632
O -9.23723 -11.7669 -2.13088
H -8.94513 -12.7123 -2.2756
H -10.1813 -11.6583 -2.44245
O -4.97752 -5.53619 3.0812
H -4.32484 -5.87637 3.75822
H -5.10199 -4.55151 3.20361
O 9.11068 -5.39985 4.9859
H 8.80606 -4.48542 5.25255
H 8.92343 -6.04323 5.72823
O 8.09762 -14.2388 10.616
H 7.9261 -13.2914 10.3453
H 9.03868 -14.4862 10.3852
O -13.5776 5.43129 -14.5403
H -13.1114 6.15618 -14.0331
H -13.302 5.46644 14.4607
O 1.01316 13.0122 -4.7194
H 1.87878 12.9938 -4.21896
H 1.18481 12.8368 -5.68885
O -12.3598 -10.6773 -7.84278
H -11.6934 -10.9681 -7.15614
H -12.9964 -11.426 -8.02745
O -10.7152 -1.79288 12.3723
H -10.4116 -2.66961 11.9991
H -11.1479 -1.94103 13.2616
O -0.669876 6.79524 1.07466
H -0.0484481 7.10839 0.356439
H -1.45943 7.40712 1.1224
O -3.38239 11.3153 -9.20124
H -3.386 12.2659 -9.51192
H -3.00093 11.2679 -8.27804
O 3.87163 2.68397 -14.3586
H 3.23517 2.17544 -13.7786
H 4.80491 2.36953 -14.1849
O 3.65511 4.60768 -8.93863
H 4.24585 4.63437 -9.74509
H 2.78504 5.05407 -9.14786
O 11.1727 -2.2366 -2.63828
H 11.0205 -1.42115 -3.1968
H 10.5064 -2.25916 -1.89287
O 11.8776 -10.1106 5.61983
H 12.4758 -10.7602 6.08924
H 11.5479 -10.5169 4.76761
O -7.16624 -12.2008 -4.97029
H -6.30589 -12.703 -4.88289
H -7.32764 -11.6689 -4.13897
O 8.02426 -13.2715 -12.4382
H 8.25719 -13.1023 -13.3959
H 8.8428 -13.1688 -11.8729
O 4.35006 9.40556 0.282627
H 4.05253 8.72948 0.956757
H 5.017 8.98902 -0.33523
O -11.7723 14.3969 -10.6012
H -11.031 -14.9 -10.694
H -11.4592 13.502 -10.9193
O -9.85817 -10.0822 7.75127
H -9.81817 -9.19404 8.20906
H -9.15207 -10.125 7.0444
O -12.3644 -9.38708 3.4816
H -13.3555 -9.29698 3.58043
H -12.1023 -10.3436 3.60941
O 1.15721 10.6034 2.72741
H 0.31507 10.8596 3.20198
H 1.31999 9.62348 2.84293
O 7.34445 14.2529 -3.55885
H 7.44599 13.6141 -4.32157
H 7.50202 13.7707 -2.69703
O 0.41556 4.51592 -1.77227
H 0.0418705 5.44073 -1.84403
H 0.147991 4.11536 -0.895902
O 12.2939 12.2148 -1.90707
H 13.2587 12.179 -2.16786
H 11.7586 11.6459 -2.53145
O 3.40411 7.4344 1.93027
H 4.03681 6.69252 2.15245
H 2.55417 7.31238 2.4429
O 0.320377 -11.7864 -9.98946
H -0.0943682 -12.3997 -9.31721
H 0.874134 -12.319 -10.6296
O 3.49576 7.20046 -1.44981
H 3.97673 6.35136 -1.23127
H 3.67242 7.8771 -0.734952
O -11.5888 -13.8857 -13.4549
H -12.4795 -14.3013 -13.2703
H -11.1009 -13.7464 -12.5932
O -14.1478 -14.6127 7.78098
H -13.2648 -14.1705 7.62375
H -14.0064 14.4839 8.26236
O 8.06794 14.35 13.0049
H 8.91014 14.6254 13.4685
H 8.01212 14.8058 12.1165
O -9.63673 -9.76805 -4.56377
H -8.72043 -9.9582 -4.2112
H -9.66551 -8.83933 -4.93354
O 1.60748 -9.84134 1.73846
H 1.82956 -8.86838 1.67448
H 2.4359 -10.3825 1.59396
O 6.35978 6.84198 -10.2128
H 7.14491 6.89836 -10.8296
H 5.71656 6.15637 -10.5538
O 4.94551 4.4002 11.1661
H 4.19551 3.98036 11.6773
H 4.85723 5.39568 11.2021
O -3.69736 -12.3542 -14.4246
H -2.70019 -12.2979 -14.3742
H -4.08562 -12.2148 -13.5137
O -2.90302 0.483239 -5.81762
H -3.57097 0.19357 -5.13205
H -1.99194 0.171349 -5.54794
O -4.95777 12.5848 3.34993
H -5.12352 13.4294 3.85918
H -4.25919 12.7474 2.65307
O 7.54439 11.8368 -12.8673
H 7.99873 10.976 -13.0969
H 6.98464 12.1348 -13.6406
O -6.6684 4.02331 -10.5591
H -6.37437 4.81713 -10.0267
H -7.66758 3.9883 -10.5812
O 5.37108 5.6864 2.46229
H 5.68257 4.7774 2.73933
H 6.15556 6.30375 2.40267
O 10.1342 8.83169 2.51239
H 10.1805 9.67306 1.97385
H 10.4317 8.05961 1.95069
O -1.65803 14.5496 4.32974
H -1.23312 13.8353 4.88595
H -1.97875 14.1549 3.46866
O 4.28791 10.6386 7.89855
H 4.57318 9.70905 7.66487
H 3.83137 10.6334 8.78827
O 7.16686 -7.95358 3.11848
H 6.57229 -8.06257 3.91514
H 7.54396 -7.02743 3.10821
O -7.71798 8.75082 14.7813
H -7.13217 8.23637 -14.5541
H -7.84872 8.22593 13.9402
O 13.3952 5.30304 -13.6789
H 14.2053 5.78048 -14.0192
H 12.5731 5.73714 -14.0473
O -10.7103 2.13221 4.59327
H -10.1779 1.9092 5.40993
H -11.4382 1.45675 4.47517
O 11.2366 11.8099 -4.51357
H 10.8542 11.135 -5.14468
H 11.7664 12.4844 -5.02778
O -10.5122 2.30603 13.2294
H -11.4416 1.94887 13.3221
H -10.4458 3.18787 13.6963
O 9.11293 -12.5998 5.89478
H 8.91963 -12.4208 4.93007
H 8.62295 -11.9373 6.46139
O 3.53316 2.07801 -7.97528
H 2.87535 2.07948 -7.22205
H 3.58577 2.99376 -8.37366
O 4.59026 -14.2445 -8.00045
H 5.50283 -14.2353 -8.40935
H 4.49366 14.9094 -7.41894
O -14.7651 9.96681 1.63102
H 14.5683 9.3072 1.21845
H 14.8676 10.2158 2.54198
O 12.3072 -2.6107 6.79585
H 12.2678 -3.05489 7.69095
H 11.8123 -1.74249 6.83252
O -4.61967 9.2995 2.64669
H -5.20328 8.57528 3.01405
H -4.89993 10.1798 3.02953
O 1.25719 -9.4157 -9.03797
H 1.68548 -9.52827 -8.14132
H 0.881507 -10.2918 -9.34026
O 8.9136 7.91284 6.18156
H 9.39442 7.03747 6.13061
H 8.17165 7.84727 6.84886
O 7.37727 -2.67314 11.1971
H 7.44199 -3.40316 10.5167
H 6.44161 -2.62545 11.5469
O 12.061 -13.141 -12.0633
H 12.7849 -13.7561 -11.7507
H 11.3615 -13.0614 -11.3531
O -14.9641 -13.7277 -10.5531
H 14.475 -14.564 -10.3869
H -14.8055 -13.6234 -11.535
O -9.16952 -14.563 9.91847
H -9.02918 -13.5737 9.87875
H -9.60167 -14.8038 10.7876
O -13.6745 -0.152073 -14.5101
H -13.8022 -0.375606 -13.5437
H -13.6951 0.840759 -14.6281
O -2.12334 -14.8566 -12.4371
H -2.60226 14.9651 -13.3038
H -2.2061 -13.899 -12.1614
O 5.59107 4.09497 -2.9124
H 5.49403 3.73757 -3.84134
H 6.09276 3.43567 -2.35231
O -7.25188 -0.342536 -3.61181
H -7.34235 -0.351441 -4.60771
H -7.06148 -1.26868 -3.28612
O -13.7996 -10.8999 -13.741
H -13.1974 -10.4381 -14.3923
H -13.4332 -10.7955 -12.8164
O -9.33596 6.34981 -12.3768
H -9.35237 5.63813 -11.6744
H -8.47748 6.85903 -12.3154
O 1.93444 -7.04709 -4.95423
H 1.55299 -6.64196 -4.12331
H 2.35375 -7.92773 -4.73352
O -10.6333 1.69969 10.3197
H -11.414 1.08365 10.2143
H -10.5832 2.01513 11.2674
O -7.06217 4.39367 -6.99789
H -7.56891 3.61095 -6.63647
H -7.13991 5.1628 -6.36349
O -5.12694 4.0974 -13.5289
H -4.91623 3.9299 -14.4921
H -5.7444 4.88048 -13.4541
O 7.81616 -12.3901 3.68911
H 7.07095 -12.8644 4.15786
H 7.78273 -12.6004 2.71202
O -4.14337 -10.2691 10.6277
H -4.30859 -10.101 11.5996
H -4.69327 -9.63683 10.0819
O -3.46637 -5.90885 7.6005
H -3.69004 -5.20261 6.92873
H -3.13456 -6.7253 7.12788
O -6.54021 8.63919 6.63257
H -6.95773 9.15477 7.38085
H -7.25775 8.25143 6.05391
O 11.5267 4.07224 -7.02801
H 11.3341 4.5113 -7.90564
H 11.8366 3.13453 -7.1853
O -7.80447 -0.943169 2.22827
H -7.52284 -0.143208 1.69835
H -8.47749 -0.668084 2.91488
O 8.76499 11.7334 -9.79585
H 8.47151 10.7854 -9.67215
H 8.27932 12.134 -10.5728
O 11.3071 -4.77714 -6.80011
H 11.2541 -4.55792 -5.82585
H 10.5806 -5.4223 -7.03666
O 13.9934 -6.64969 9.56561
H 14.6591 -5.91397 9.6903
H 14.4745 -7.51945 9.45545
O 10.9969 -14.6795 10.2854
H 11.0314 -13.6888 10.1535
H 11.5054 14.8304 9.55229
O -13.3216 -1.86777 -4.50336
H -13.2973 -0.946828 -4.8924
H -12.5463 -1.98823 -3.88332
O 1.73428 -13.6414 -11.6316
H 2.22325 -14.3174 -11.0802
H 2.35723 -12.8991 -11.8786
O -9.0918 12.5764 9.91616
H -9.75066 12.2675 10.6021
H -9.0995 13.5755 9.87278
O 3.78272 -8.02347 -0.431375
H 3.1342 -7.68282 0.249391
H 3.76776 -7.42687 -1.23382
O 8.89289 4.83618 -10.2138
H 8.53698 3.98381 -10.597
H 8.78072 5.57359 -10.8799
O 9.97693 12.0779 -7.27292
H 9.44185 12.3612 -6.47701
H 9.36692 11.9428 -8.05375
O -7.63861 5.50985 1.96332
H -6.76857 5.25087 1.54376
H -8.10195 4.69107 2.3024
O 5.84555 10.9277 -3.50283
H 5.10021 10.7295 -2.86623
H 5.70908 10.4099 -4.34742
O -10.2178 -7.74452 -6.54809
H -11.1148 -8.17717 -6.45741
H -10.3354 -6.76754 -6.72624
O 13.9537 -12.9546 11.6339
H 13.8998 -13.9531 11.6281
H 14.8926 -12.6726 11.8317
O -11.1512 -7.49832 5.29048
H -11.7144 -8.16115 4.79692
H -11.7217 -6.7331 5.58903
O 6.2846 13.3307 -11.0661
H 5.90055 14.2121 -11.3412
H 6.6084 12.8409 -11.8757
O -6.35665 14.152 -1.92047
H -7.08552 13.9207 -1.27603
H -6.06478 13.3266 -2.40386
O -2.309 13.4094 -5.18902
H -2.98213 14.0699 -4.85621
H -1.89347 12.9366 -4.41193
O -4.32682 0.958292 4.27669
H -5.00718 1.67515 4.12405
H -3.40914 1.35011 4.21028
O -6.2476 -12.9089 -8.56702
H -7.06917 -12.4624 -8.92154
H -6.45579 -13.8613 -8.34387
O 13.6637 0.199208 10.1095
H 14.0764 -0.163385 10.9451
H 14.3828 0.414243 9.44871
O 7.25797 -13.3726 -6.30446
H 6.95971 -14.0357 -6.99105
H 8.1084 -13.6883 -5.88352
O 6.89882 0.0972966 -0.823786
H 6.57693 1.03919 -0.920208
H 6.15415 -0.53345 -1.04214
O -0.452573 11.0721 -12.3373
H -0.822009 11.0429 -13.2662
H -0.718384 11.9311 -11.8997
O -2.70735 5.72162 -1.26696
H -2.26895 5.49317 -2.13626
H -2.84758 6.71036 -1.21406
O 5.92042 -1.67541 6.30046
H 6.0005 -1.83749 7.28401
H 5.8143 -0.695448 6.13167
O 1.41642 2.39834 -6.19696
H 1.39824 3.29553 -5.75563
H 0.809645 2.40552 -6.99185
O 12.0479 4.40348 10.4156