2611
Atoms. Timestep: 23000000
O 2.61429 6.76813 -14.3943
H 2.58329 7.7396 -14.1592
H 3.39352 6.33931 -13.9372
O 4.56749 -6.90875 5.35314
H 4.83377 -6.62111 6.2731
H 5.21967 -7.58673 5.01404
O -3.3571 -3.31154 8.11529
H -4.17857 -2.75746 7.98052
H -3.31545 -3.6202 9.06554
O 9.27977 -9.64702 -12.3463
H 9.30064 -9.11107 -13.1902
H 9.50242 -9.05632 -11.5707
O -6.71445 -9.93311 3.12966
H -6.2397 -10.4319 2.40451
H -6.13286 -9.89247 3.94211
O 12.1714 -9.50014 -2.48692
H 12.1048 -9.87537 -3.41145
H 11.2677 -9.1972 -2.18434
O -4.63424 -5.98372 -5.63722
H -4.58439 -5.11098 -5.15161
H -4.36543 -6.72391 -5.02091
O 14.5508 -6.16017 -8.9049
H -14.6866 -5.64152 -9.40036
H 13.6423 -5.86218 -9.19788
O -3.97904 6.26713 -8.2504
H -3.31132 6.11885 -7.52092
H -4.90339 6.2011 -7.87465
O -2.06885 9.34352 -1.0699
H -1.22833 9.1045 -0.583705
H -2.17319 10.3379 -1.08621
O 2.65355 9.57044 -4.75677
H 3.11647 10.2867 -5.27897
H 2.24232 9.96868 -3.93684
O 4.99242 -2.74067 1.64072
H 4.09677 -3.1619 1.78343
H 4.88222 -1.75313 1.52844
O -2.60272 -12.9692 9.44079
H -2.34822 -13.309 10.3462
H -2.80213 -13.7423 8.83858
O 14.8804 6.25273 11.558
H -14.5997 7.09786 11.2758
H 14.239 6.45041 12.2993
O 8.33571 4.99301 7.40983
H 8.61137 4.16738 7.90211
H 8.11968 4.75935 6.46183
O -12.8156 5.11097 -5.0088
H -13.5454 5.18428 -4.32908
H -12.2301 4.33144 -4.78642
O 5.44917 -12.8432 -4.77426
H 5.86312 -12.6521 -3.88425
H 5.47206 -12.0167 -5.33682
O -7.07352 7.0854 -12.6396
H -7.78953 7.13027 -11.943
H -6.51912 7.91678 -12.6018
O 10.5991 -11.8775 13.5057
H 10.8812 -12.8033 13.7574
H 10.7361 -11.2643 14.2836
O 4.02833 1.91565 -2.09362
H 4.20368 2.05826 -3.06773
H 4.44887 1.05671 -1.8015
O 2.39336 1.07269 6.4073
H 1.48237 1.33522 6.72534
H 2.68398 1.69355 5.67925
O 2.57908 -8.13817 -8.61295
H 2.38682 -7.22082 -8.26439
H 3.40111 -8.49717 -8.17094
O 3.01951 8.78903 8.87408
H 2.58842 8.92267 7.98173
H 3.68459 9.51813 9.03549
O -14.53 1.61942 -13.0119
H 14.8399 2.4238 -13.198
H -13.6849 1.90271 -12.5586
O -3.03579 8.98261 -3.64098
H -2.771 8.97034 -2.67676
H -2.36675 8.46769 -4.17693
O -7.69511 2.39749 5.30945
H -8.4622 1.7839 5.12222
H -8.00013 3.14009 5.90569
O -4.25784 3.98073 -1.2444
H -4.58503 4.65707 -0.584482
H -3.26551 3.88813 -1.16256
O -13.3305 8.41058 10.7896
H -12.3986 8.35181 10.4318
H -13.5596 9.36764 10.9672
O 2.83573 -5.86626 9.78868
H 2.32857 -6.52146 9.22879
H 3.25751 -6.34305 10.5599
O -12.9205 -0.682174 7.63229
H -12.1155 -1.27364 7.58471
H -13.1622 -0.524624 8.58975
O 0.105537 -2.04965 -6.33632
H 0.887153 -2.33343 -5.78086
H 0.422856 -1.78159 -7.24595
O -4.56498 1.05712 -6.29726
H -4.12797 0.979288 -7.19333
H -4.81718 0.146756 -5.96921
O -10.9008 5.79678 11.7477
H -10.9793 6.75167 12.034
H -11.7155 5.29408 12.0367
O 1.73988 -7.99666 8.40434
H 1.75217 -8.03531 7.40517
H 2.5259 -8.49732 8.76696
O -14.4836 -12.1391 2.79565
H 14.8942 -11.6794 2.10349
H 14.8541 -12.5334 3.49472
O -4.63527 8.00141 2.58683
H -4.58342 8.27827 1.62732
H -5.53118 8.24734 2.95675
O 3.11311 -2.75712 11.8715
H 3.92769 -3.32018 11.7323
H 2.93865 -2.65988 12.8513
O -8.03695 -2.20205 -8.05166
H -7.77343 -2.85408 -8.76256
H -8.5472 -1.44739 -8.46412
O -3.36816 -0.706018 5.27002
H -3.00367 -1.39525 4.64385
H -4.07482 -0.173196 4.80449
O -2.62366 11.9106 -2.34187
H -2.27324 12.2337 -3.22094
H -3.53958 11.5296 -2.46787
O 8.89679 -2.02829 9.11295
H 9.40759 -1.259 8.72921
H 8.07603 -1.68777 9.57164
O 14.3199 -2.58597 -9.78573
H 14.4362 -3.52539 -9.46332
H 14.7461 -1.95571 -9.13682
O -9.96696 0.858501 10.3917
H -9.9516 0.999358 11.3816
H -10.1825 -0.0978533 10.1944
O 7.71702 8.67413 -1.44934
H 8.17755 7.87392 -1.0652
H 6.78761 8.42506 -1.72163
O 4.45293 5.51762 12.2178
H 4.14184 5.7275 11.2909
H 4.06161 4.64542 12.5112
O 7.96682 11.2224 4.50438
H 8.6681 10.8785 5.12884
H 7.50082 10.4518 4.06963
O 0.711558 -8.00139 11.5963
H 0.59775 -7.00807 11.6154
H 0.058407 -8.39938 10.9521
O 0.640174 -7.283 3.37824
H 0.884663 -6.40332 3.78612
H 1.35617 -7.95253 3.57588
O 5.71573 6.36322 -7.69919
H 6.57278 6.87109 -7.78592
H 5.73582 5.56926 -8.3068
O -10.8831 -8.42243 -13.8317
H -10.8202 -8.5656 -14.8194
H -11.6233 -7.7796 -13.6346
O -12.1915 2.43381 -4.64305
H -11.5382 2.09813 -3.96436
H -12.9859 1.82711 -4.66957
O 4.42713 11.5083 -6.40299
H 4.65093 12.3915 -5.99079
H 3.95405 11.6562 -7.27151
O 11.0341 -3.14574 3.51171
H 10.829 -2.90809 2.56226
H 10.411 -2.65448 4.12032
O 4.54846 -14.7194 4.33823
H 5.30622 14.5747 4.46504
H 4.14456 -14.856 3.4337
O -1.94688 5.86784 8.99986
H -2.93673 5.83754 8.86109
H -1.74734 5.86185 9.97972
O 11.2802 -4.95125 -3.01468
H 11.9669 -5.61833 -3.30338
H 11.7102 -4.05471 -2.90868
O -3.20598 -2.27098 -13.0216
H -3.64853 -1.47249 -13.4297
H -3.86788 -2.76884 -12.4612
O -1.46094 -10.3823 -7.35899
H -0.633554 -10.1271 -7.85928
H -1.65864 -11.3503 -7.51352
O -12.2816 11.8649 -10.4993
H -12.866 12.6701 -10.6004
H -11.3517 12.0893 -10.7908
O -3.09379 2.36206 7.96525
H -3.38502 2.67427 7.06099
H -2.9645 1.37058 7.94988
O -2.11557 12.5861 -5.15066
H -2.81632 12.1012 -5.67394
H -1.28297 12.6622 -5.69926
O -13.785 3.33583 -2.0826
H -13.5016 3.3426 -1.12363
H -13.0505 2.95542 -2.64453
O -11.5344 12.6165 -0.935402
H -12.1384 11.8539 -0.703782
H -11.3044 12.5761 -1.90773
O -0.999349 4.28593 -6.83632
H -0.341396 4.85177 -6.33943
H -1.57584 3.79419 -6.18377
O -12.7578 -5.268 5.24849
H -13.2982 -4.55196 4.80667
H -12.6871 -6.05687 4.63802
O 10.5355 -14.3973 6.01663
H 11.1355 -13.5995 5.95772
H 9.65847 -14.1262 6.41335
O -7.34917 -2.06241 8.36765
H -7.18725 -2.96717 7.97373
H -7.51962 -2.15176 9.34894
O 1.87718 -14.9449 8.33798
H 1.20082 14.773 7.63388
H 1.87661 -13.9597 8.5093
O -6.82604 -5.17097 -13.5465
H -7.71441 -4.76018 -13.3415
H -6.88972 -6.16488 -13.4567
O -10.9516 12.518 -7.41317
H -10.8394 12.9229 -8.3206
H -10.8945 11.5221 -7.48324
O -0.632696 -14.4259 6.48369
H -1.37487 -14.5238 5.82069
H -0.796515 14.8993 7.25976
O 14.2561 7.96964 -4.8798
H 14.4694 7.07916 -4.47787
H -14.845 8.37231 -5.25904
O 7.41983 -8.34992 9.51471
H 7.33483 -9.33736 9.64781
H 6.64878 -8.01936 8.97046
O 3.02563 -13.7631 -13.2058
H 2.56154 -14.0681 -12.3742
H 3.0397 -12.7636 -13.2321
O 8.76995 1.97448 8.58181
H 7.83376 1.62828 8.64247
H 9.27218 1.45765 7.88853
O -9.85023 -13.4249 -5.69593
H -9.06483 -13.1071 -6.22708
H -9.92016 -12.8917 -4.85281
O -7.66058 -8.63617 -7.54699
H -7.95537 -8.13709 -6.73213
H -7.93138 -8.12855 -8.3649
O 0.00481018 12.8687 12.4804
H 0.452268 13.5211 11.8687
H -0.736664 12.4085 11.992
O -4.19551 3.56331 10.5507
H -3.75517 3.50092 9.65504
H -4.93346 4.23711 10.5131
O -11.1312 12.2375 9.0738
H -10.4003 12.6568 8.5354
H -11.5022 11.4524 8.5778
O 10.7909 -9.70788 -8.00397
H 10.1245 -8.97168 -7.88619
H 11.7048 -9.31625 -8.1108
O -7.19939 10.3679 -9.35383
H -7.76444 9.63592 -8.97317
H -6.35514 9.97949 -9.72311
O -2.92908 -6.67419 10.1793
H -2.84292 -6.30782 11.1057
H -2.27224 -6.21876 9.57832
O -13.588 12.5873 6.49787
H -13.6735 12.6077 5.50175
H -13.0332 11.8007 6.76876
O -8.33839 5.98444 12.3952
H -9.21784 5.8027 11.9553
H -8.23795 5.39398 13.196
O -8.76865 6.7442 -10.1614
H -8.98661 7.3891 -9.4289
H -9.19077 5.8596 -9.96323
O -11.4292 -12.5025 -3.55963
H -10.8634 -12.3139 -2.75693
H -12.0352 -13.2741 -3.36641
O 8.64147 -4.78549 12.857
H 9.01394 -4.13814 12.192
H 8.48956 -5.66871 12.4133
O 11.4878 -4.03432 -12.5137
H 10.7298 -4.0754 -13.1647
H 11.7576 -3.08132 -12.376
O -3.28807 8.55142 7.7461
H -2.30002 8.42406 7.83283
H -3.48147 9.50157 7.50158
O -10.0571 4.20807 -0.960289
H -9.28066 4.8375 -0.930157
H -10.7754 4.53517 -0.346209
O 13.463 -3.35441 2.48763
H 12.5818 -3.3054 2.95773
H 13.4152 -2.83447 1.63478
O -2.74605 4.59628 5.01767
H -3.61432 4.17639 5.28183
H -2.14692 4.65357 5.81626
O -3.03907 13.1278 11.5872
H -2.31751 13.7965 11.7664
H -3.78666 13.569 11.0909
O -0.392073 1.17678 12.4822
H 0.421866 0.653141 12.7338
H -1.2072 0.713059 12.8294
O -11.5405 -14.3627 4.66575
H -11.1074 -14.8065 5.45018
H -11.9321 14.8759 4.06343
O 5.2398 -9.30616 13.7486
H 4.41563 -9.61253 13.2723
H 5.86703 -10.0771 13.859
O 2.95267 -12.4517 9.38319
H 2.44383 -12.2416 10.218
H 2.41075 -12.1845 8.58637
O 5.46394 7.63937 -11.0546
H 5.03585 7.94746 -11.9041
H 6.43159 7.89158 -11.0584
O -0.578549 -5.755 9.13922
H -0.366506 -5.39245 10.0467
H -0.287339 -5.09981 8.44215
O -1.6232 3.48747 -9.37526
H -0.822781 3.23518 -9.91901
H -1.34971 3.62433 -8.42318
O -0.79522 10.5558 1.49325
H -0.632915 9.60501 1.2295
H -1.04054 10.5958 2.46186
O 6.56267 -9.83325 -1.58011
H 7.38977 -9.44817 -1.17073
H 6.80286 -10.6387 -2.12195
O 11.1738 -11.8849 -0.314936
H 10.9162 -12.4153 -1.12263
H 11.1811 -12.4818 0.487342
O 8.63326 14.7276 -6.36376
H 9.01585 13.8824 -5.99069
H 9.36865 -14.5459 -6.5145
O 3.97903 -12.2662 -1.43907
H 4.38529 -12.7103 -0.640497
H 4.52965 -11.4715 -1.69468
O -12.0523 -10.9992 1.41069
H -12.6034 -11.3913 2.14726
H -12.6271 -10.8545 0.605241
O 10.9161 -0.386462 -5.71845
H 11.315 0.266267 -5.07442
H 11.295 -1.29617 -5.54874
O -3.02229 -5.33814 -13.6305
H -3.54633 -4.50888 -13.8247
H -2.21164 -5.10233 -13.0946
O -0.250853 11.2942 14.8779
H 0.294065 11.7972 -14.3854
H -0.171349 11.7367 13.9847
O -11.8165 -5.60566 12.7863
H -11.703 -6.50696 13.2044
H -12.7801 -5.4619 12.5606
O 14.5735 -2.0342 6.46984
H 13.6968 -2.28625 6.87942
H -14.6954 -1.84991 7.19339
O -7.3904 -12.8741 9.38391
H -6.99827 -12.4275 8.57973
H -8.3099 -12.5171 9.54832
O 6.99652 9.8047 12.0621
H 7.68738 9.12058 11.8283
H 6.31429 9.39579 12.6682
O 12.1666 14.6451 -0.00120655
H 11.8523 -14.5573 0.603514
H 13.0828 14.3549 0.275047
O -8.9335 9.58848 3.75051
H -8.48266 8.84901 4.25042
H -8.27379 10.0306 3.14279
O 7.07381 8.77508 3.81707
H 6.95333 8.36155 2.9146
H 6.90614 8.08771 4.52375
O 5.58311 4.97319 -10.1751
H 5.33835 5.86636 -10.5523
H 6.49548 4.71565 -10.4933
O 8.58789 -11.0637 7.71292
H 7.66959 -10.6692 7.68022
H 8.53726 -12.0427 7.51564
O 8.02217 14.2432 1.87373
H 8.7617 13.8928 2.44842
H 7.36479 13.5116 1.6935
O 8.38053 7.06572 -10.0047
H 8.6338 6.15723 -10.337
H 8.4607 7.72761 -10.75
O -12.893 -0.399402 -8.99827
H -12.2482 -0.977999 -9.49776
H -13.645 -0.138749 -9.60365
O 14.7244 7.84438 -14.2242
H -14.6769 7.00392 -14.1257
H 14.0249 7.88104 -13.5106
O 4.21192 2.01872 8.42846
H 4.19935 3.01642 8.36185
H 3.43256 1.64143 7.92822
O -12.4199 -14.2175 -11.172
H -12.9952 -13.5268 -10.7338
H -11.5183 -13.8287 -11.3616
O 3.63391 -2.392 -12.1509
H 4.33376 -2.74366 -12.7726
H 3.66706 -1.39259 -12.1428
O 13.8585 0.410778 5.19549
H 14.1811 -0.447287 5.59505
H 12.8596 0.440343 5.23127
O -10.5142 9.03266 9.32532
H -10.7172 8.47194 8.5226
H -9.52334 9.11092 9.43528
O 4.87074 11.4629 -1.07638
H 5.28545 12.0657 -1.75801
H 4.12117 10.9511 -1.49609
O -9.4063 13.404 -5.51384
H -9.48689 14.3953 -5.41014
H -10.0966 13.0793 -6.16041
O -8.2584 -3.23023 13.1267
H -9.0848 -2.66826 13.1619
H -8.49942 -4.18771 13.2852
O 1.55115 -14.4996 -11.2316
H 0.801858 -13.8425 -11.3139
H 2.10895 -14.2708 -10.4338
O 6.40661 -8.9034 4.81904
H 6.09077 -9.54267 4.11793
H 7.27834 -8.50299 4.53663
O -9.98288 12.784 3.59029
H -9.48234 12.9799 2.74704
H -9.33389 12.5842 4.32437
O 11.9644 1.29356 3.07137
H 12.6077 0.602205 3.40033
H 12.2327 1.58902 2.15447
O 12.6866 -2.87503 -6.0927
H 13.0018 -3.79539 -5.86127
H 13.4322 -2.36546 -6.52207
O 12.2691 -12.3805 6.33258
H 13.0574 -12.8543 5.94005
H 12.1482 -11.4994 5.87543
O 7.42481 5.3991 -2.10796
H 8.29351 5.606 -1.65792
H 6.78825 6.15762 -1.96857
O 9.5693 -10.8345 4.76072
H 8.69435 -10.9744 4.29718
H 9.4162 -10.7593 5.74605
O 8.57208 -9.71735 13.1323
H 8.40607 -9.01876 12.4363
H 9.42197 -10.201 12.923
O -3.53361 -12.1239 -14.8342
H -3.36641 -11.4475 14.3826
H -3.93617 -12.9454 14.6961
O -0.822429 7.21563 -8.57605
H -0.446546 7.79946 -7.85644
H -0.714392 6.25584 -8.31698
O -5.54066 5.26541 3.54811
H -4.83954 5.78495 3.05976
H -5.73883 4.42196 3.04881
O -1.42173 -13.0544 3.16434
H -0.880388 -12.2291 3.32486
H -0.810078 -13.823 2.97691
O 6.86388 -4.66496 14.8168
H 7.44877 -4.61789 14.0071
H 5.96456 -5.01768 14.5583
O -5.44631 9.32849 -13.6352
H -4.58802 8.96118 -13.9935
H -5.80289 10.0179 -14.2657
O -2.33675 -4.03245 -0.798672
H -3.24196 -4.44475 -0.695809
H -1.89109 -4.40549 -1.61244
O -0.125274 4.40273 -13.3948
H -0.469067 5.34149 -13.4174
H -0.895923 3.76549 -13.3934
O 7.00338 6.66123 -4.82911
H 7.39508 7.02652 -5.67357
H 6.04251 6.93036 -4.76368
O -0.739257 -12.1124 12.88
H 0.0982589 -12.6585 12.8964
H -0.720659 -11.4511 13.6299
O -3.82055 -3.55663 -4.53926
H -3.57449 -3.23089 -5.45213
H -4.26988 -2.82079 -4.03268
O -13.0778 -4.00871 2.04679
H -13.7269 -3.71882 2.75008
H -12.145 -3.83364 2.36167
O 7.94643 4.02551 -5.22787
H 8.32425 3.31101 -4.63904
H 7.89658 4.88494 -4.71908
O 13.3587 -6.34746 2.63755
H 13.736 -6.88756 1.88529
H 13.479 -5.37415 2.44215
O 5.65937 1.3204 -13.7948
H 5.58082 2.27572 -13.5099
H 5.26224 0.72944 -13.0926
O -4.22716 -10.6175 9.42002
H -3.4093 -11.1094 9.7186
H -4.61657 -11.0733 8.61961
O 4.15666 -4.98641 -11.6024
H 3.95433 -4.00959 -11.6722
H 3.60053 -5.49006 -12.2635
O -11.8864 -12.1558 6.37015
H -12.8542 -11.9188 6.28509
H -11.6876 -12.9543 5.80188
O 0.877361 -7.15722 -5.41067
H 1.28302 -8.05513 -5.23984
H 0.343954 -7.18782 -6.25596
O -1.64748 -1.85201 10.5034
H -1.94031 -1.0996 11.0934
H -2.33588 -2.57711 10.5215
O -9.72806 10.3095 -6.08543
H -10.1171 10.3187 -5.16426
H -9.1203 11.0955 -6.19848
O 8.4021 -13.4319 -13.4437
H 8.14343 -12.8762 -14.2338
H 8.29551 -14.4006 -13.6682
O 1.39845 -11.2315 -14.5791
H 2.2574 -10.898 -14.1906
H 0.979231 -10.5098 14.8043
O 11.1568 -1.55643 -8.28363
H 11.3846 -1.22906 -7.36662
H 10.824 -2.4978 -8.22835
O -10.1217 -2.2985 10.4548
H -10.502 -1.99496 11.3285
H -10.2336 -3.28847 10.3686
O 8.48263 -7.2597 11.7417
H 9.45647 -7.10578 11.5746
H 8.00779 -7.36904 10.8684
O -13.858 12.998 -14.074
H -14.2457 12.8145 14.9569
H -12.972 13.4501 -14.1771
O 9.41586 -6.9261 -7.4824
H 9.89087 -6.72406 -6.62593
H 9.52472 -6.15782 -8.11317
O -12.8895 6.83794 -8.16207
H -13.4544 7.62174 -8.4201
H -12.2567 7.10767 -7.43629
O 7.94673 -13.5199 6.61141
H 7.28132 -12.9941 6.08156
H 7.49497 -14.3121 7.02166
O -3.58753 -9.34817 13.6847
H -3.92572 -8.69805 14.3651
H -2.60054 -9.23158 13.574
O -3.35287 -3.64359 -9.54352
H -4.02838 -4.38043 -9.51656
H -2.91015 -3.62992 -10.4401
O -2.29175 10.117 11.7296
H -2.6012 10.9662 11.3018
H -2.56327 9.3397 11.162
O 1.47734 14.4638 10.9058
H 1.2207 14.3493 9.94613
H 2.11428 -14.7043 10.9914
O 6.48795 -6.1163 -10.8922
H 6.33076 -7.03045 -10.5186
H 5.62968 -5.75173 -11.2533
O 5.81713 -14.7472 -6.82042
H 5.41002 -14.3138 -6.01644
H 6.81084 -14.7808 -6.7137
O 5.75098 -4.44742 9.37276
H 5.80464 -3.45685 9.24675
H 5.48575 -4.64961 10.3155
O 4.92845 8.65928 -13.4628
H 4.27392 8.94059 -14.1645
H 5.55947 7.98513 -13.8466
O -13.6065 -4.95799 -10.7182
H -14.1434 -4.68584 -11.5168
H -13.0293 -5.73938 -10.9552
O -11.5326 0.582877 -0.139422
H -10.6738 0.521033 0.369133
H -12.1762 -0.0984202 0.209226
O -1.95314 5.78137 11.7664
H -2.14776 6.05965 12.7069
H -1.24904 5.07128 11.7678
O 10.1673 -5.35598 -14.9558
H 9.5443 -5.17303 -14.1953
H 9.69474 -5.18952 14.1129
O 11.5826 3.95207 -10.3513
H 11.4001 4.92144 -10.187
H 12.57 3.79397 -10.3504
O -9.93648 -11.4587 8.75969
H -10.8664 -11.6247 9.08796
H -9.85557 -11.7739 7.81414
O 12.788 7.91809 3.12914
H 12.5908 8.3772 3.99536
H 12.3857 7.00264 3.13799
O 8.44466 7.87189 -7.20507
H 8.6198 7.46345 -8.10089
H 8.07529 8.79334 -7.32535
O 14.7735 8.30576 1.25032
H -14.4525 7.62545 1.43909
H 14.0339 8.21067 1.91661
O 14.8875 -1.17004 -7.45655
H -14.1772 -1.12509 -7.94847
H 14.5121 -0.248409 -7.35834
O -2.00317 -7.05262 5.91337
H -1.78606 -8.00946 6.10654
H -1.15863 -6.54985 5.72912
O -5.29176 12.867 -11.5792
H -5.74779 12.6867 -12.4507
H -4.87983 12.0223 -11.2375
O 3.13178 7.82904 -7.43578
H 3.90171 7.19639 -7.3524
H 2.69507 7.94204 -6.54331
O 14.3833 4.98233 3.73438
H -14.7131 5.22397 4.22398
H 13.595 5.37291 4.20977
O -3.11775 -1.67053 -2.45106
H -2.86709 -2.55124 -2.04919
H -2.45979 -1.43051 -3.16482
O 13.4442 3.76501 -14.8229
H 14.0159 3.24537 14.4763
H 14.0272 4.27441 -14.19
O -2.70864 -13.1765 -7.08205
H -3.49024 -12.5749 -6.91739
H -2.63962 -13.8438 -6.34047
O 3.69759 12.4014 -8.99993
H 3.74895 11.8037 -9.80003
H 3.92191 13.3381 -9.26865
O -6.15616 -7.32673 -0.5803
H -6.17178 -7.81095 -1.4551
H -5.34342 -7.59702 -0.0641867
O -11.6908 9.26869 4.59484
H -10.8161 9.54377 4.19588
H -11.7757 8.27301 4.5576
O -7.64937 -9.65621 12.9273
H -6.79212 -10.0659 12.6153
H -8.416 -10.0786 12.4437
O -4.41385 -11.6332 -10.0295
H -5.13835 -11.4829 -10.7022
H -3.6026 -11.9952 -10.4886
O 9.02419 3.78815 -8.02847
H 9.13147 2.82647 -7.77619
H 8.53406 4.27052 -7.30246
O -5.30714 6.1786 0.119099
H -6.2739 6.11338 -0.128115
H -5.03603 7.14053 0.153362
O -2.06805 -5.13078 -3.37486
H -1.18079 -4.93839 -3.79407
H -2.78151 -4.62149 -3.85608
O 6.25375 14.057 7.78567
H 5.61729 13.7885 7.06261
H 6.51799 13.25 8.31371
O -2.73907 9.36476 14.3607
H -2.78529 10.1339 -14.936
H -2.24345 9.64308 13.5379
O -11.2909 -10.1656 -4.64775
H -10.416 -9.84884 -5.01421
H -11.1986 -11.1109 -4.33499
O 10.575 14.398 3.43437
H 11.0961 13.5598 3.27335
H 10.6778 14.6761 4.38941
O -6.97103 8.74307 -3.45546
H -7.2159 8.54309 -2.50676
H -7.24794 9.67701 -3.6814
O -2.4204 -0.391455 13.4215
H -3.06733 -0.760488 14.0888
H -2.92368 0.0205415 12.6619
O -1.61406 9.89114 -7.83088
H -2.54144 9.53639 -7.94967
H -1.52813 10.7658 -8.30791
O 11.448 -12.9391 9.48798
H 11.2587 -11.9977 9.20882
H 11.8426 -13.4418 8.7189
O -12.9744 5.95447 -14.1711
H -12.0119 6.1961 -14.0476
H -13.0394 5.06246 -14.6184
O 1.90886 7.27458 12.7556
H 1.32604 6.57181 12.3477
H 2.19788 6.98039 13.6666
O -7.35673 10.7123 1.62939
H -6.48167 10.6805 1.14644
H -7.66473 11.6612 1.69893
O -13.3109 5.51443 5.06461
H -12.4753 6.05486 4.96597
H -13.8893 5.92104 5.7718
O 14.0741 -13.3793 12.604
H 13.8779 -12.4541 12.9288
H 14.9657 -13.6718 12.9497
O -1.07376 -6.77421 -7.69138
H -1.23316 -5.91392 -7.20715
H -1.9458 -7.24171 -7.83617
O 10.3466 -7.55994 -1.36863
H 10.0642 -7.51553 -2.32689
H 10.3572 -6.63811 -0.981214
O 10.9178 -4.95612 -0.112073
H 10.7837 -4.01523 0.198922
H 11.5169 -4.9603 -0.912746
O 11.9519 6.30479 10.6761
H 12.3863 5.65992 11.3049
H 12.6367 6.94699 10.3316
O 14.2221 -10.6966 13.45
H 13.6171 -10.5797 12.6625
H 14.2145 -9.86336 14.0029
O -5.65523 -14.8492 -9.97808
H -4.73307 -14.5629 -9.718
H -5.61604 14.1807 -10.4032
O -3.25182 -14.5059 4.5691
H -2.57972 -13.972 4.05605
H -4.03021 -14.7181 3.97828
O -10.632 -1.28167 -13.2858
H -11.4204 -1.4481 -12.6936
H -10.4437 -2.10053 -13.828
O -11.7714 12.5958 -3.71927
H -12.4816 12.2385 -4.32581
H -11.1831 13.224 -4.22856
O -14.7707 2.72719 6.34319
H 14.6312 3.40107 5.8307
H 14.8206 1.80942 6.14275
O 8.74072 -11.9167 -4.75931
H 8.22698 -11.6307 -5.56818
H 9.53402 -12.4561 -5.04177
O -10.825 1.91006 -2.22018
H -11.1619 1.27295 -1.52695
H -10.6042 2.78513 -1.78947
O -10.7149 4.9668 -8.95273
H -10.7132 4.11686 -8.42588
H -11.232 5.6649 -8.45749
O -13.8038 -9.69428 -0.69301
H -13.8277 -8.69646 -0.631647
H -13.1246 -9.97021 -1.37312
O 5.53653 -13.1898 9.2203
H 5.48454 -14.1683 9.02105
H 4.61235 -12.817 9.30336
O -12.684 -2.92255 14.5881
H -13.1883 -3.07745 13.7386
H -13.3298 -2.7654 -14.5989
O -0.723947 -8.00613 -13.4557
H -1.34248 -8.72838 -13.1463
H -1.25798 -7.21474 -13.7532
O 14.6221 -5.68254 7.04406
H 13.8817 -5.01225 7.09389
H -14.4355 -5.22179 7.18282
O 12.2687 12.7787 -12.4082
H 11.6351 13.5524 -12.4068
H 12.7626 12.7508 -11.5391
O -13.5154 -7.03294 1.1637
H -13.2712 -7.63262 1.92574
H -13.5623 -6.0873 1.48549
O 1.6541 -2.03518 9.80638
H 0.659087 -1.95523 9.86587
H 2.00729 -2.43717 10.6512
O -5.51066 -11.5595 -7.56109
H -5.07205 -11.5667 -8.45973
H -6.48658 -11.7512 -7.66498
O 9.15048 -12.8183 11.4177
H 9.82881 -12.844 10.6834
H 9.59538 -12.5538 12.2733
O -9.35169 0.966798 -4.63078
H -8.35254 0.935691 -4.60415
H -9.69197 1.44505 -3.82118
O 0.946385 14.3897 14.6116
H 1.50529 13.764 -14.7783
H 0.703469 13.9523 13.7458
O -12.9017 -12.0095 -9.42893
H -12.5283 -12.4661 -8.62145
H -12.1794 -11.4838 -9.87844
O -0.126728 -7.05677 0.822493
H -0.916624 -7.60164 0.541142
H -0.0519231 -7.06837 1.81961
O 14.2273 9.73935 -11.6635
H 14.1759 10.5216 -11.0427
H 13.7718 9.9665 -12.5243
O -7.4559 -7.14518 3.58128
H -8.39462 -6.97003 3.28445
H -7.17603 -8.05705 3.28104
O 12.0823 -4.99686 -9.95729
H 11.7171 -4.68833 -10.8356
H 11.4671 -4.71232 -9.22209
O 7.38668 0.250793 14.1299
H 8.11042 -0.25442 14.5999
H 6.88101 0.802905 14.7928
O -11.3581 -8.47 13.3527
H -10.7003 -8.26689 12.6273
H -11.8508 -9.31113 13.1298
O -4.29699 6.28533 -12.9947
H -5.23227 6.62019 -12.8803
H -3.95991 5.93305 -12.1216
O -9.81176 -13.2422 -12.0211
H -8.88002 -13.4665 -11.7356
H -9.81972 -12.341 -12.4544
O 12.5438 -12.6752 -4.1545
H 12.1828 -13.1336 -3.34234
H 13.5404 -12.7556 -4.16735
O 3.09871 12.2644 11.7754
H 2.6156 11.437 12.0617
H 2.4508 13.0234 11.7114
O -11.6431 -7.87462 7.17098
H -11.9576 -7.81779 8.11853
H -10.7577 -7.41768 7.08566
O 6.57735 1.92561 12.121
H 6.93181 1.45289 12.9278
H 6.45505 2.89582 12.3301
O -9.20961 -6.47194 7.66667
H -9.44626 -6.35226 8.63086
H -8.4107 -7.06861 7.59112
O 13.7922 1.2151 -6.98674
H 13.7678 1.8778 -6.23826
H 13.1156 1.46829 -7.67826
O 7.40124 -12.085 14.4235
H 6.50474 -12.1852 13.992
H 7.86221 -11.2794 14.0512
O 3.28078 3.8029 -11.4661
H 3.73698 4.16882 -10.6549
H 3.91732 3.808 -12.2373
O -9.92006 -7.17802 2.66504
H -10.0713 -6.52309 1.92464
H -10.7938 -7.39881 3.09835
O -5.97898 6.01694 10.6648
H -5.3091 6.6621 11.0322
H -6.74354 5.9304 11.3035
O 2.66166 11.1868 5.02749
H 2.94175 11.6396 5.87397
H 3.46193 11.0448 4.44493
O -2.92239 -5.56168 12.5636
H -2.56176 -4.78346 13.0777
H -3.54441 -6.08592 13.1452
O 11.5889 -7.33665 -5.05419
H 10.6724 -7.60962 -4.76191
H 12.1558 -8.15112 -5.1774
O -13.1491 -1.93387 -4.92084
H -12.9056 -2.55578 -4.17658
H -13.1884 -2.44256 -5.78089
O -11.4255 14.5682 -14.4783
H -11.0354 13.7944 14.9567
H -10.6895 -14.8353 -14.0579
O -5.47521 0.48717 3.96807
H -6.11275 0.218563 4.69013
H -5.38077 -0.261136 3.31148
O -3.50323 5.04986 -10.7395
H -3.66876 5.46293 -9.84394
H -2.91968 4.24487 -10.6325
O 14.8868 6.71518 6.80752
H 14.7819 7.70587 6.89414
H -14.8812 6.31745 7.70984
O -12.2931 2.40632 -11.5469
H -12.6608 2.51669 -10.6235
H -11.4443 2.92812 -11.6322
O -4.88587 2.72986 -13.6565
H -4.73443 3.09195 -14.5762
H -5.30187 3.43667 -13.0843
O -7.66851 -13.7076 3.21895
H -8.52558 -13.5075 2.74423
H -7.8675 -14.0302 4.14433
O 11.2864 4.95184 -7.3407
H 10.6244 4.41286 -7.86153
H 11.4789 5.80404 -7.82723
O 8.3665 -2.75808 -1.54113
H 8.59023 -3.66957 -1.88626
H 7.39623 -2.72111 -1.30198
O -4.46687 -6.02077 -8.28131
H -4.66139 -5.84671 -7.31599
H -4.13568 -6.95794 -8.39088
O 11.0727 9.69996 -10.4033
H 11.0953 8.82404 -9.92137
H 10.5581 10.365 -9.86205
O -10.1101 -10.6209 -10.0877
H -9.81113 -10.871 -11.0087
H -10.1922 -9.62647 -10.0225
O -13.2921 3.05072 14.4894
H -13.9793 2.37479 14.2232
H -12.7271 2.67926 -14.708
O 1.67488 -13.7305 -0.0425556
H 1.96237 -12.9252 -0.561162
H 1.2019 -14.3675 -0.651187
O -4.76706 9.90121 -10.8278
H -3.92972 9.37803 -10.6693
H -5.06868 9.76947 -11.7721
O -1.56581 -11.1536 7.7471
H -2.10574 -11.8015 8.28438
H -1.69671 -10.2304 8.10847
O -0.515853 -10.5041 -4.26203
H -0.982827 -10.0256 -5.00564
H 0.0327915 -9.852 -3.73876
O 14.2153 3.01981 1.71235
H -14.8243 2.58663 1.60203
H 14.1623 3.45034 2.61336
O 0.0774976 -0.488946 -11.1074
H -0.0297399 -1.27691 -11.7137
H -0.811495 -0.241338 -10.7222
O 14.6231 13.5735 13.208
H 14.1168 13.4058 12.3622
H 14.0867 13.2498 13.9874
O -9.4701 11.2826 -11.0994
H -9.28281 10.349 -11.4047
H -8.76172 11.5711 -10.4553
O 2.37123 -5.6831 -7.38203
H 1.85548 -5.7885 -6.53181
H 3.30738 -6.00746 -7.24639
O 9.49457 -9.81135 0.0331336
H 9.87464 -9.04071 -0.478378
H 10.165 -10.5526 0.0660961
O -2.50585 14.496 -12.1777
H -2.70758 -14.7931 -11.4407
H -1.9138 14.9359 -12.853
O -10.5018 -1.4492 -4.82493
H -11.4556 -1.67467 -5.0234
H -10.4016 -0.456723 -4.75473
O 5.18067 -6.8216 8.20734
H 4.68082 -7.37295 8.87527
H 5.30935 -5.89758 8.56737
O 12.6492 -2.11184 8.83155
H 12.4648 -3.06892 8.60807
H 13.2546 -2.06579 9.62618
O 14.4602 1.84959 13.1961
H 14.0512 2.59287 12.6667
H 14.0926 0.974569 12.8811
O -8.05005 9.02878 -0.687843
H -8.99672 8.94646 -0.999322
H -7.87032 9.97351 -0.413674
O -0.552736 3.84007 13.2177
H -0.596511 2.85627 13.0439
H 0.401177 4.13958 13.1997
O 2.91384 -11.0698 4.31624
H 3.80085 -11.1733 3.86627
H 2.58386 -11.9661 4.6126
O 4.18153 -14.5226 -2.94801
H 4.73726 -14.1916 -3.71062
H 3.91951 -13.7518 -2.36732
O -14.523 11.2174 -2.10424
H -14.8572 11.2918 -3.04379
H -14.7064 12.071 -1.61664
O -0.0883622 1.87998 -4.22726
H -0.976867 1.97252 -4.67668
H 0.63909 2.08934 -4.88069
O 10.9368 11.055 10.7497
H 11.8494 11.2764 11.0934
H 10.3077 11.8004 10.9702
O -3.55621 1.62789 -8.76779
H -2.8364 2.31667 -8.85414
H -3.19059 0.730796 -9.01582
O -7.15149 -8.55692 7.00654
H -7.59769 -9.13228 6.32108
H -6.202 -8.39428 6.7382
O 0.496231 12.9469 5.14345
H 1.19301 12.2648 5.36531
H 0.145664 13.3521 5.98779
O -12.1401 10.2977 6.964
H -12.2896 9.33793 7.20154
H -11.5878 10.353 6.13217
O 0.946817 -6.08645 -9.98406
H 1.57084 -5.52694 -9.43859
H 0.0533014 -6.12199 -9.53645
O -4.60859 12.7814 13.9313
H -4.01217 12.5051 14.6849
H -4.23945 12.4338 13.0694
O 0.668744 -5.12245 -3.73198
H 0.662229 -5.85822 -4.40917
H 0.983454 -5.48108 -2.85316
O 8.43282 7.53225 12.1842
H 9.32932 7.80468 12.5335
H 8.40484 6.53842 12.0769
O 12.5985 12.8731 -14.9348
H 12.1589 12.1003 14.5416
H 12.4472 12.8063 -13.9486
O -14.0127 -7.8465 -13.5257
H -14.7078 -8.54303 -13.3478
H -13.3487 -7.83959 -12.778
O -9.10224 -4.99796 -9.28129
H -9.63283 -4.62205 -8.52159
H -9.52632 -4.73303 -10.1473
O -10.3104 -6.86826 -2.34367
H -9.61836 -6.97812 -1.63024
H -11.2213 -6.90235 -1.9325
O 0.110145 -10.7714 3.1494
H -0.186146 -10.0706 3.79836
H 1.08451 -10.9552 3.27909
O -6.51365 12.2268 -7.48763
H -5.7716 11.6756 -7.1061
H -6.89118 11.7669 -8.29134
O -8.18557 12.2162 5.37416
H -8.18214 11.2468 5.61926
H -7.34172 12.6447 5.69716
O 3.30883 0.0574074 11.7706
H 3.45093 0.120474 12.7584
H 3.5081 -0.87331 11.464
O -9.24017 -4.37558 -11.9957
H -8.79925 -3.50115 -11.7934
H -9.77426 -4.29276 -12.8371
O 10.6052 11.2114 6.61955
H 11.0214 12.0332 7.00854
H 9.98507 10.8029 7.28929
O 10.4145 -3.01536 11.2431
H 11.0853 -2.2835 11.3629
H 9.87577 -2.84202 10.4186
O -6.94863 6.74107 -7.16516
H -6.33386 6.98005 -6.41355
H -7.61352 6.0641 -6.84954
O 11.3646 11.1113 -4.46158
H 12.3565 10.9919 -4.41807
H 10.9158 10.2313 -4.30613
O 3.34346 6.27426 9.83713
H 3.52475 5.79111 8.98058
H 3.30315 7.25811 9.66276
O 0.347201 -11.8157 -11.2905
H 0.316651 -11.2145 -10.4921
H 0.563148 -11.2773 -12.1051
O 12.3628 -14.7482 11.1665
H 12.8944 -14.2936 11.8811
H 11.82 -14.0693 10.672
O 13.9135 -7.58171 -3.03465
H 14.4344 -8.07318 -3.73258
H 13.1335 -8.1378 -2.74767
O -8.77572 11.3219 -13.6128
H -8.86376 11.2768 -12.6177
H -7.97027 11.8641 -13.852
O 14.9565 4.33765 -12.7719
H -14.1628 4.85695 -13.0293
H 14.801 4.42747 -11.7881
O -2.38127 -12.2999 -11.6161
H -2.7651 -12.6524 -12.4695
H -1.40995 -12.5323 -11.5663
O 1.87707 -13.5107 4.74819
H 1.13883 -14.1843 4.71349
H 2.75391 -13.9695 4.60436
O -1.08175 13.8977 -1.21649
H -1.68614 13.1713 -1.54387
H -0.556914 13.5664 -0.4324
O -11.4589 7.99148 13.5071
H -12.412 8.2847 13.4327
H -11.2676 7.71554 14.449
O -7.03732 -13.5628 -12.1794
H -6.87177 -12.6048 -11.9452
H -6.52329 -14.152 -11.5561
O -11.3166 7.31321 7.51109
H -11.3021 6.48723 8.07459
H -10.9239 7.11151 6.61384
O 4.36832 6.95529 -4.53162
H 3.63353 6.27881 -4.48224
H 3.98033 7.85477 -4.73258
O 9.1776 -7.85038 4.34886
H 9.42886 -7.28164 3.56567
H 9.75064 -7.61048 5.13248
O -3.33895 -14.7101 7.66338
H -3.61222 -14.7393 6.7019
H -3.64557 14.3903 8.1225
O -7.40322 7.69009 4.69728
H -7.82657 6.94938 4.17565
H -6.74125 7.30774 5.34194
O -11.3564 5.3082 9.26109
H -10.8254 4.52752 8.93152
H -11.1656 5.45514 10.2317
O -9.16231 1.50109 -9.88748
H -8.3024 1.46869 -9.37808
H -9.75112 2.21185 -9.50264
O 0.277056 -10.907 0.200568
H 0.0276369 -10.6767 1.14118
H -0.203196 -11.7389 -0.0774693
O 10.5081 2.74451 0.0662044
H 11.3157 3.32876 0.14715
H 9.86945 2.95424 0.806514
O -10.6362 6.5501 2.30095
H -9.65955 6.47192 2.50094
H -10.762 6.76501 1.33246
O 4.62557 -5.34467 13.8072
H 3.81629 -5.16496 14.3665
H 4.38753 -5.97685 13.0699
O 4.08429 2.11952 -8.59966
H 4.78126 1.40509 -8.66146
H 4.48892 2.94714 -8.21068
O 14.7901 -10.5914 5.48032
H 14.0639 -10.8128 4.82949
H -14.8378 -9.65128 5.3309
O 14.5605 -4.90987 -2.55274
H 13.8197 -4.32259 -2.22673
H 14.2471 -5.85918 -2.57713
O 11.804 -4.521 7.29004
H 10.8459 -4.32304 7.49733
H 11.8767 -4.87687 6.35835
O 7.96044 -9.25751 2.04818
H 8.45928 -9.67159 1.28682
H 8.61005 -8.84936 2.68959
O 3.30352 0.532956 14.536
H 2.49797 0.675273 -14.823
H 4.0563 1.09987 14.8706
O -7.46951 -6.49315 -5.56866
H -6.47857 -6.48888 -5.43448
H -7.76589 -5.59467 -5.89251
O 10.5893 0.322492 12.6314
H 10.6538 0.703473 13.5537
H 9.83367 0.758612 12.1427
O 11.5988 13.8561 -4.25311
H 11.419 12.8741 -4.31046
H 12.2218 14.1244 -4.98793
O 3.78384 0.220823 3.44531
H 4.61373 0.0123709 2.9278
H 3.39129 -0.627155 3.80143
O 8.91388 0.882733 -7.29175
H 9.29214 -0.0287696 -7.1303
H 8.53086 1.24031 -6.44004
O -0.948128 -14.1044 -13.9299
H -1.06592 -13.2347 -14.4094
H -0.160741 -14.5902 -14.3093
O 6.57631 -7.78253 -14.4718
H 6.06742 -8.40579 14.8686
H 6.16552 -6.8718 -14.5143
O 1.20791 9.56373 6.89394
H 1.10021 8.66427 6.47043
H 1.69049 10.1728 6.26458
O 3.89251 4.94061 5.33187
H 3.46483 5.6936 4.83179
H 3.71291 4.07976 4.85577
O 14.7261 -13.9776 0.148889
H 14.5881 -13.235 -0.506538
H -14.6551 -13.6481 0.914218
O 1.8995 10.6169 -2.29524
H 1.88065 10.591 -1.29576
H 2.17227 11.5294 -2.59998
O -5.18574 -11.7344 -4.6965
H -5.44281 -11.4882 -5.631
H -5.9424 -12.221 -4.25987
O 10.2937 5.98118 -4.8585
H 10.9598 5.84538 -5.59188
H 9.42513 5.55686 -5.11437
O -12.9018 -14.737 -3.3105
H -12.3851 14.3415 -3.28153
H -13.7243 -14.863 -3.86509
O -9.89252 -1.69552 -1.80283
H -10.7561 -1.75828 -1.30249
H -10.0664 -1.35318 -2.72617
O -4.80963 6.73737 6.54501
H -4.33535 7.50027 6.98435
H -4.31433 6.46821 5.71904
O -7.88991 -8.00964 -13.8135