LAMMPS data file via write_data, version 15 May 2015, timestep = 23005000

2611 atoms
6 atom types
1749 bonds
4 bond types
894 angles
3 angle types
44 dihedrals
3 dihedral types
10 impropers
1 improper types

-1.5098902602979923e+01 1.5098902602979923e+01 xlo xhi
-1.5098902602979923e+01 1.5098902602979923e+01 ylo yhi
-1.5098902602979923e+01 1.5098902602979923e+01 zlo zhi

Masses

1 15.9994
2 1.00794
3 12.0107
4 1.00794
5 12.0107
6 12.0107

Bond Coeffs # harmonic

1 1000 1
2 469 1.4
3 367 1.08
4 469 0.7

Angle Coeffs # harmonic

1 100 109.47
2 35 120
3 63 120

Dihedral Coeffs # opls

1 0 7.25 0 0
2 0 7.25 0 0
3 0 7.25 0 0

Improper Coeffs # cvff

1 2.5 -1 2

Atoms # full

2140 714 1 -8.1999999999999995e-01 -1.1028903194010619e+01 -8.1578459476617979e+00 -1.2558815760297676e+01 0 1 1
2142 714 2 4.0999999999999998e-01 -1.0060141719907625e+01 -8.3564661658512378e+00 -1.2707374384345345e+01 0 1 1
764 255 2 4.0999999999999998e-01 -8.9626408645943858e+00 -6.5552406583573681e+00 -8.5275510201199545e+00 2 3 -2
763 255 1 -8.1999999999999995e-01 -9.5578355072636754e+00 -6.0686063768415810e+00 -7.8880599141555043e+00 2 3 -2
2141 714 2 4.0999999999999998e-01 -1.1382463093754851e+01 -7.6277042219233406e+00 -1.3329506096967318e+01 0 1 1
32 11 2 4.0999999999999998e-01 -1.2675176577976103e+01 -6.2450856742862122e+00 -1.0339041331509858e+01 2 -3 1
1681 561 1 -8.1999999999999995e-01 -1.1903220271758816e+01 -1.3187702157387401e+01 -1.2735903378466588e+01 -1 2 3
1504 502 1 -8.1999999999999995e-01 -1.2280620470741361e+01 -1.1109129903952180e+01 -8.7103673311925789e+00 1 -4 6
1660 554 1 -8.1999999999999995e-01 -9.2959797752393349e+00 -1.3748400904711678e+01 -1.2891482569576155e+01 3 2 0
1505 502 2 4.0999999999999998e-01 -1.2905057931130960e+01 -1.1608513873113122e+01 -8.1097742839596378e+00 1 -4 6
1506 502 2 4.0999999999999998e-01 -1.2785799417661993e+01 -1.0758273780921080e+01 -9.4988549166445946e+00 1 -4 6
152 51 2 4.0999999999999998e-01 -1.0920587791076516e+01 -9.2753950975356965e+00 -8.6227296181884299e+00 2 0 -1
31 11 1 -8.1999999999999995e-01 -1.2843673026945782e+01 -7.2301056361918725e+00 -1.0302121464196187e+01 2 -3 1
743 248 2 4.0999999999999998e-01 -8.3246308997486054e+00 -1.4489574764650152e+01 -1.4249473127128450e+01 1 1 -1
415 139 1 -8.1999999999999995e-01 -1.3878971649493687e+01 -1.4544338183176237e+01 -1.1397667597275479e+01 0 3 5
1501 501 1 -8.1999999999999995e-01 -8.6681632405876208e+00 -1.4454108004462414e+01 -1.0223666765924413e+01 0 -1 -6
1485 495 2 4.0999999999999998e-01 -1.1578292288266411e+01 -1.4321489921226988e+01 -9.1483245884885740e+00 4 -3 2
728 243 2 4.0999999999999998e-01 -1.3870461854658727e+01 -7.8937522493369077e+00 -9.0200819855053105e+00 7 4 3
1952 651 2 4.0999999999999998e-01 -7.8850916624407255e+00 -8.7742466450983017e+00 -1.3463250656523009e+01 -5 -1 -1
151 51 1 -8.1999999999999995e-01 -1.0578790049976163e+01 -8.8272554975704800e+00 -7.7966765063371790e+00 2 0 -1
586 196 1 -8.1999999999999995e-01 -9.7805946844131171e+00 -1.2064253231046749e+01 -9.4092079977299967e+00 4 1 0
588 196 2 4.0999999999999998e-01 -1.0525754338327795e+01 -1.1419185624836524e+01 -9.5784514081071954e+00 4 1 0
417 139 2 4.0999999999999998e-01 -1.4664433809064700e+01 -1.3939241345501765e+01 -1.1267569639840513e+01 0 3 5
587 196 2 4.0999999999999998e-01 -9.6649197008560428e+00 -1.2188799707655189e+01 -8.4237507705720098e+00 4 1 0
33 11 2 4.0999999999999998e-01 -1.2262504903563864e+01 -7.6929952770474257e+00 -1.0971445937618416e+01 2 -3 1
198 66 2 4.0999999999999998e-01 -1.3135320979813384e+01 -1.0220586336105136e+01 -1.2861115916161989e+01 5 -4 5
1503 501 2 4.0999999999999998e-01 -8.9842057182353194e+00 -1.3525601355107730e+01 -1.0028702554536713e+01 0 -1 -6
197 66 2 4.0999999999999998e-01 -1.1860680036930818e+01 -9.7121424603748814e+00 -1.1975988291024013e+01 5 -4 5
1661 554 2 4.0999999999999998e-01 -1.0276628126377258e+01 -1.3567663166160209e+01 -1.2816108839378465e+01 3 2 0
1573 525 1 -8.1999999999999995e-01 -1.1298443582581655e+01 -6.6322057253362452e+00 -1.4823819192644951e+01 3 -1 2
196 66 1 -8.1999999999999995e-01 -1.2570973275905242e+01 -1.0411280109773386e+01 -1.2057893667269131e+01 5 -4 5
1682 561 2 4.0999999999999998e-01 -1.2025367845891878e+01 -1.2258291217776504e+01 -1.2387630721516155e+01 -1 2 3
1483 495 1 -8.1999999999999995e-01 -1.1822314315741876e+01 -1.4818303966130122e+01 -8.3154695486110661e+00 4 -3 2
765 255 2 4.0999999999999998e-01 -9.4872540498721794e+00 -5.0843461057828527e+00 -8.0501352023946620e+00 2 3 -2
742 248 1 -8.1999999999999995e-01 -7.7620393710684263e+00 -1.4937708112207815e+01 -1.4944229017418413e+01 1 1 -1
1545 515 2 4.0999999999999998e-01 -7.9182397443748238e+00 -1.2151290131335109e+01 -1.1611899818500131e+01 0 -2 -3
236 79 2 4.0999999999999998e-01 -8.7275741043986876e+00 -1.1469182100847965e+01 -1.4151879826551728e+01 1 -1 -1
1683 561 2 4.0999999999999998e-01 -1.2555352318519255e+01 -1.3799706221277983e+01 -1.2288473714720446e+01 -1 2 3
1310 437 2 4.0999999999999998e-01 -1.0373014305961126e+01 -5.1840170221425943e+00 -1.2442269859029995e+01 5 -2 8
1238 413 2 4.0999999999999998e-01 -1.1877767315833903e+01 -1.4275799528821091e+01 -1.4152736058300084e+01 -2 2 1
235 79 1 -8.1999999999999995e-01 -8.6691881322388085e+00 -1.1789922253664065e+01 -1.5097255562991030e+01 1 -1 -1
153 51 2 4.0999999999999998e-01 -1.0262330454602278e+01 -7.9062246714958047e+00 -8.0237760058248426e+00 2 0 -1
1064 355 2 4.0999999999999998e-01 -8.0422924956961062e+00 -1.0972980934760507e+01 -8.7949425133667773e+00 1 4 2
1662 554 2 4.0999999999999998e-01 -8.9460449044232160e+00 -1.4062058052849906e+01 -1.2008768996416531e+01 3 2 0
339 113 2 4.0999999999999998e-01 -1.4979146781925266e+01 -9.5885520973460210e+00 -8.0171514628075364e+00 -1 -2 -4
1237 413 1 -8.1999999999999995e-01 -1.2285798285091676e+01 -1.4837260624649312e+01 -1.4872660106503146e+01 -2 2 1
1065 355 2 4.0999999999999998e-01 -7.8058687468727692e+00 -9.8850890701236125e+00 -7.6002581500894717e+00 1 4 2
1574 525 2 4.0999999999999998e-01 -1.2171662284003157e+01 -7.1002556398098555e+00 -1.4959601610547715e+01 3 -1 2
727 243 1 -8.1999999999999995e-01 -1.4422174644556467e+01 -7.9218495128203976e+00 -8.1865101185454296e+00 7 4 3
943 315 1 -8.1999999999999995e-01 -7.7729732836894554e+00 -7.6863419256019494e+00 -9.5030801847450128e+00 0 -5 3
944 315 2 4.0999999999999998e-01 -8.0385882436224954e+00 -8.5955285038440152e+00 -9.1823826226598442e+00 0 -5 3
1953 651 2 4.0999999999999998e-01 -8.2157369197749084e+00 -9.6730504850861259e+00 -1.2140563592520852e+01 -5 -1 -1
1951 651 1 -8.1999999999999995e-01 -8.2390924719476129e+00 -8.7515539097277415e+00 -1.2528271004899308e+01 -5 -1 -1
115 39 1 -8.1999999999999995e-01 -7.7618251116138000e+00 -8.9902059039997830e+00 -1.5066666773366650e+01 2 -3 0
1063 355 1 -8.1999999999999995e-01 -7.6236539994100543e+00 -1.0095535689395197e+01 -8.5607415928450123e+00 1 4 2
945 315 2 4.0999999999999998e-01 -7.9554520851714106e+00 -7.6122436053338696e+00 -1.0483503242209791e+01 0 -5 3
2556 852 2 4.0999999999999998e-01 -1.4414706084962019e+01 -6.7252517652818131e+00 -1.4892088201561341e+01 4 -3 -3
2352 784 2 4.0999999999999998e-01 -1.4544588928568340e+01 -1.1042765920250073e+01 -1.4806081415956365e+01 3 1 9
1502 501 2 4.0999999999999998e-01 -8.8707560760366455e+00 -1.5045882538171274e+01 -9.4434248037482895e+00 0 -1 -6
2554 852 1 -8.1999999999999995e-01 -1.3987609928880923e+01 -7.6278690602978987e+00 -1.4945840680837275e+01 4 -3 -3
2359 787 1 -8.1999999999999995e-01 -8.0145639947631864e-01 -8.9423556596240772e+00 -1.0769550651425600e+01 5 -2 5
968 323 2 4.0999999999999998e-01 -4.7380968335825528e+00 -5.3094816929043542e+00 -8.7956599050705613e+00 2 -2 0
2026 676 1 -8.1999999999999995e-01 -6.2051241372675925e-01 -6.1361866378592005e+00 -1.2756399787293756e+01 -4 -6 0
534 178 2 4.0999999999999998e-01 -5.8557899694120792e+00 -1.1555280465428259e+01 -8.5101009205161500e+00 4 5 4
2360 787 2 4.0999999999999998e-01 -3.6464656868712630e-01 -8.5769580907126652e+00 -9.9475407883021560e+00 5 -2 5
1964 655 2 4.0999999999999998e-01 -2.4441809255437974e-01 -1.4384725866635074e+01 -1.2460192780620261e+01 -1 -3 -1
2206 736 1 -8.1999999999999995e-01 -8.6508499336441247e-01 -7.6584566726423056e+00 -7.7643552854546281e+00 -2 2 -1
2208 736 2 4.0999999999999998e-01 -1.2611152412529538e+00 -8.5332035614885626e+00 -8.0436335888755206e+00 -2 2 -1
55 19 1 -8.1999999999999995e-01 -5.3012858214046314e+00 -5.1981372494107241e+00 -1.1961495155481529e+01 0 -1 2
1543 515 1 -8.1999999999999995e-01 -7.4584437061886764e+00 -1.1368970427294691e+01 -1.2032116445082472e+01 0 -2 -3
2328 776 2 4.0999999999999998e-01 -9.3149215047283285e-01 -1.3969920672832195e+01 -8.1257840153066034e+00 -1 4 1
1018 340 1 -8.1999999999999995e-01 -5.2204029234055245e+00 -1.4830250821629610e+01 -1.3695378116328598e+01 -3 -1 -2
2090 697 2 4.0999999999999998e-01 -3.9753383993395328e+00 -1.3509228746886720e+01 -1.3909030291219500e+01 1 4 -7
2361 787 2 4.0999999999999998e-01 -1.1807548308478744e-01 -9.0456166423615016e+00 -1.1492286023880698e+01 5 -2 5
2399 800 2 4.0999999999999998e-01 -6.2176959593250345e+00 -1.3051507415992955e+01 -1.0268195735415647e+01 5 -5 2
1020 340 2 4.0999999999999998e-01 -6.0715487863251987e+00 -1.4896590909938089e+01 -1.4216116217324828e+01 -3 -1 -2
272 91 2 4.0999999999999998e-01 -5.6886160903165184e+00 -9.5648968569030863e+00 -8.4839068850689099e+00 0 0 2
1965 655 2 4.0999999999999998e-01 -3.4174913429523102e-01 -1.4196700034170751e+01 -1.4079405133151932e+01 -1 -3 -1
2398 800 1 -8.1999999999999995e-01 -6.0418359296314232e+00 -1.3473167640711852e+01 -1.1157743046496385e+01 5 -5 2
1736 579 2 4.0999999999999998e-01 -7.8116921357251456e-01 -1.0842105500564056e+01 -1.0812338854366818e+01 4 -1 1
2400 800 2 4.0999999999999998e-01 -5.3473235119396030e+00 -1.2944476349687358e+01 -1.1645755865860995e+01 5 -5 2
2027 676 2 4.0999999999999998e-01 -3.2735764612402818e-01 -6.7783583188666388e+00 -1.3464703593704039e+01 -4 -6 0
56 19 2 4.0999999999999998e-01 -5.3500708862029427e+00 -6.1922605247740172e+00 -1.2058228852452995e+01 0 -1 2
2364 788 2 4.0999999999999998e-01 -4.5740525441411055e+00 -7.6459519166437540e+00 -1.4266318631753101e+01 3 0 0
1900 634 1 -8.1999999999999995e-01 -5.5921115157628005e+00 -6.7914120367004305e+00 -7.9614784569481944e+00 7 2 0
362 121 2 4.0999999999999998e-01 -3.9113648040446911e+00 -8.5581455253701684e+00 -1.0015386213298306e+01 4 -2 4
1032 344 2 4.0999999999999998e-01 -4.1703350158843904e+00 -1.0536508896851931e+01 -1.1382824650521069e+01 -2 2 -4
2089 697 1 -8.1999999999999995e-01 -3.2622739005643453e+00 -1.2825459224926044e+01 -1.3754056758725138e+01 1 4 -7
1902 634 2 4.0999999999999998e-01 -6.3080489180789687e+00 -7.0040413852740855e+00 -8.6264904227590087e+00 7 2 0
1125 375 2 4.0999999999999998e-01 -6.9898204863771873e-01 -6.7270758498386378e+00 -9.3655432337913744e+00 1 -7 -6
1030 344 1 -8.1999999999999995e-01 -4.6281789178508390e+00 -1.1287426698813164e+01 -1.1858765733373998e+01 -2 2 -4
2028 676 2 4.0999999999999998e-01 -7.5451363744875977e-01 -5.2316945530365953e+00 -1.3161314873043445e+01 -4 -6 0
1123 375 1 -8.1999999999999995e-01 -9.3883903642384858e-01 -5.9957937873119569e+00 -1.0004067802369001e+01 1 -7 -6
271 91 1 -8.1999999999999995e-01 -4.7536612493763499e+00 -9.8812434893295915e+00 -8.3232746349579045e+00 0 0 2
463 155 1 -8.1999999999999995e-01 -5.4546510885006381e+00 -7.7927242545354058e+00 -1.2655336097317571e+01 -1 1 -3
465 155 2 4.0999999999999998e-01 -6.4248842435802000e+00 -8.0289726301642208e+00 -1.2601924729442537e+01 -1 1 -3
2091 697 2 4.0999999999999998e-01 -2.4569716917545943e+00 -1.3267371210631671e+01 -1.3358809251038618e+01 1 4 -7
1019 340 2 4.0999999999999998e-01 -5.4286982386314051e+00 -1.4605626028488899e+01 -1.2743445764652316e+01 -3 -1 -2
363 121 2 4.0999999999999998e-01 -2.5397197932846076e+00 -8.8739329905357938e+00 -1.0843362016860205e+01 4 -2 4
1963 655 1 -8.1999999999999995e-01 -7.4440850763336996e-01 -1.3937150909202018e+01 -1.3201613489294934e+01 -1 -3 -1
361 121 1 -8.1999999999999995e-01 -3.5351695758910360e+00 -8.8043678370998286e+00 -1.0908622049670758e+01 4 -2 4
75 25 2 4.0999999999999998e-01 -1.8494202360781529e+00 -1.2679714646837841e+01 -9.8545195836415225e+00 0 3 1
73 25 1 -8.1999999999999995e-01 -2.1788105739893471e+00 -1.3301792408335299e+01 -9.1442099858802628e+00 0 3 1
1615 539 1 -8.1999999999999995e-01 -1.7601445695657958e+00 -1.0288621139938286e+01 -8.2809032569252548e+00 1 5 5
464 155 2 4.0999999999999998e-01 -4.9302183715713124e+00 -8.4008649935852535e+00 -1.2059388430673016e+01 -1 1 -3
74 25 2 4.0999999999999998e-01 -2.5259127502093435e+00 -1.4138201371323435e+01 -9.5684252046407323e+00 0 3 1
1735 579 1 -8.1999999999999995e-01 -1.0743738013316424e+00 -1.1759759682359334e+01 -1.1080593064232007e+01 4 -1 1
1544 515 2 4.0999999999999998e-01 -6.4763950191516368e+00 -1.1549517228391823e+01 -1.2086903996320435e+01 0 -2 -3
1737 579 2 4.0999999999999998e-01 -1.1807144616828396e+00 -1.1798562220302420e+01 -1.2074174751490316e+01 4 -1 1
1831 611 1 -8.1999999999999995e-01 -2.2652810774730270e-01 -1.0556661415842189e+01 -1.3554584345511465e+01 6 6 0
532 178 1 -8.1999999999999995e-01 -6.2302640195612717e+00 -1.2453339416812371e+01 -8.2792806855895087e+00 4 5 4
1031 344 2 4.0999999999999998e-01 -4.2175637203161749e+00 -1.1408895273504374e+01 -1.2762457605980060e+01 -2 2 -4
1124 375 2 4.0999999999999998e-01 -9.2908621189707752e-01 -6.3524821288361561e+00 -1.0938250265745594e+01 1 -7 -6
1616 539 2 4.0999999999999998e-01 -2.2389031909619508e+00 -1.0691592084557122e+01 -9.0609180750155893e+00 1 5 5
183 61 2 4.0999999999999998e-01 -2.1923104483571443e-01 -8.1671668050310942e+00 -1.4839783701126677e+01 -1 0 1
731 244 2 4.0999999999999998e-01 -6.1038376052687902e+00 -5.0378508011690055e+00 -1.3730049847928635e+01 1 -1 -1
1797 599 2 4.0999999999999998e-01 -6.1808126489974100e+00 -1.5006415085572510e+01 -9.9611849044549849e+00 6 -5 0
353 118 2 4.0999999999999998e-01 -1.0615965721980100e+01 -6.8781111011380123e+00 -3.9674850118171214e+00 1 -3 6
1824 608 2 4.0999999999999998e-01 -1.0332976865698804e+01 -1.1237448344994641e+01 -3.0695544726415545e+00 2 1 -3
1822 608 1 -8.1999999999999995e-01 -1.0005403531383706e+01 -1.2181600761609968e+01 -3.1054766264000264e+00 2 1 -3
352 118 1 -8.1999999999999995e-01 -1.0456425143849266e+01 -7.1644837938703345e+00 -3.0227332282264410e+00 1 -3 6
354 118 2 4.0999999999999998e-01 -1.0763750083207519e+01 -8.1086909443291812e+00 -2.9042311354983426e+00 1 -3 6
919 307 1 -8.1999999999999995e-01 -1.2066112659561398e+01 -1.0107122064624150e+01 -5.6746625727990168e+00 10 4 3
1972 658 1 -8.1999999999999995e-01 -1.0720027477518986e+01 -6.8710512629575025e+00 -5.5876780145362694e+00 -8 -5 0
1658 553 2 4.0999999999999998e-01 -9.3996279794274784e+00 -9.3479651207877659e+00 -2.2786858071421410e+00 -1 -7 6
1489 497 1 -8.1999999999999995e-01 -1.0571842697724300e+01 -1.3989944574947698e+01 -4.7002103465775207e+00 -3 -4 1
1823 608 2 4.0999999999999998e-01 -9.1257499696397524e+00 -1.2247363471691095e+01 -2.6344104871895802e+00 2 1 -3
1405 469 1 -8.1999999999999995e-01 -1.4063688666925458e+01 -1.4479321544024653e+01 -2.1307998816639362e-01 7 0 -1
1657 553 1 -8.1999999999999995e-01 -8.7038553165979842e+00 -9.4953633696416198e+00 -1.5756974813698488e+00 -1 -7 6
1490 497 2 4.0999999999999998e-01 -1.1405373005027268e+01 -1.4528267359020967e+01 -4.5758951729273196e+00 -3 -4 1
113 38 2 4.0999999999999998e-01 -1.2882136107780408e+01 -7.0597689017210943e+00 -2.4992355569446918e+00 3 1 4
1394 465 2 4.0999999999999998e-01 -1.2213857966484742e+01 -9.2319461251116479e+00 -3.0414912779281007e+00 6 -2 4
1243 415 1 -8.1999999999999995e-01 -1.3324892898345823e+01 -7.5919843245586334e+00 -5.6857039879064999e+00 1 1 -5
1393 465 1 -8.1999999999999995e-01 -1.1398258442141140e+01 -9.7907286403515812e+00 -3.1917508951508289e+00 6 -2 4
1395 465 2 4.0999999999999998e-01 -1.1428694338579549e+01 -1.0184630710965825e+01 -4.1104093213365580e+00 6 -2 4
1788 596 2 4.0999999999999998e-01 -1.1484289808652084e+01 -1.1698910043576184e+01 -1.6613270551653656e+00 1 -2 5
1407 469 2 4.0999999999999998e-01 -1.4927692755158146e+01 -1.4130224393519420e+01 -5.7591137411747262e-01 7 0 -1
112 38 1 -8.1999999999999995e-01 -1.3293761796714724e+01 -7.9563025337626554e+00 -2.3354971292438425e+00 3 1 4
1274 425 2 4.0999999999999998e-01 -7.9574506582433830e+00 -7.2266276887097618e+00 -2.6237498614737156e+00 0 -4 3
1589 530 2 4.0999999999999998e-01 -1.0112950633152129e+01 -6.4303338351510178e+00 -1.5777262493030300e+00 -4 -1 -3
1588 530 1 -8.1999999999999995e-01 -1.0047067196053947e+01 -5.8732686649390260e+00 -7.4986379636559697e-01 -4 -1 -3
1659 553 2 4.0999999999999998e-01 -9.1479985713263261e+00 -9.6251812155436234e+00 -6.8918604385074644e-01 -1 -7 6
1946 649 2 4.0999999999999998e-01 -8.7066354543881523e+00 -1.4194777399598753e+01 -4.5918465338084147e-01 6 2 3
2583 861 2 4.0999999999999998e-01 -9.5656764236050709e+00 -1.3460082840044505e+01 -6.1383510879749341e+00 2 3 -1
2582 861 2 4.0999999999999998e-01 -8.7845505224954525e+00 -1.4222371628419628e+01 -7.3530257066444218e+00 2 3 -1
1786 596 1 -8.1999999999999995e-01 -1.2182497665721232e+01 -1.2146264815299727e+01 -1.1024012973429187e+00 1 -2 5
1491 497 2 4.0999999999999998e-01 -1.0492092363798420e+01 -1.3323136580311377e+01 -3.9592478595323879e+00 -3 -4 1
1973 658 2 4.0999999999999998e-01 -1.1632810622253174e+01 -7.2185860148102554e+00 -5.8023055378883868e+00 -8 -5 0
2171 724 2 4.0999999999999998e-01 -7.7687041650747011e+00 -8.0063800302740429e+00 -5.5961292835950296e+00 4 2 1
920 307 2 4.0999999999999998e-01 -1.2686917797838586e+01 -1.0842002766026127e+01 -5.9477372408314331e+00 10 4 3
1787 596 2 4.0999999999999998e-01 -1.2211571873283480e+01 -1.3121264960471201e+01 -1.3227372366454215e+00 1 -2 5
1974 658 2 4.0999999999999998e-01 -1.0280447201802684e+01 -6.5487264739188813e+00 -6.4260659659612624e+00 -8 -5 0
2581 861 1 -8.1999999999999995e-01 -9.0789367978158673e+00 -1.3333219859981545e+01 -7.0026480017714405e+00 2 3 -1
1244 415 2 4.0999999999999998e-01 -1.3808052403355001e+01 -8.2529862370377138e+00 -5.1115508428598648e+00 1 1 -5
921 307 2 4.0999999999999998e-01 -1.1452081242648541e+01 -9.8902615767504898e+00 -6.4335798554810353e+00 10 4 3
2177 726 2 4.0999999999999998e-01 -1.4529498344014941e+01 -7.2536027864056569e+00 -6.1422209186369159e-01 0 2 -6
1945 649 1 -8.1999999999999995e-01 -8.2176737537253803e+00 -1.3328071071310578e+01 -5.5795228760854876e-01 6 2 3
885 295 2 4.0999999999999998e-01 -1.3777566573281222e+01 -5.9069328762823137e+00 -6.2693951317632255e+00 -4 0 -2
2172 724 2 4.0999999999999998e-01 -8.9711154491950360e+00 -8.8026345467425671e+00 -6.3621981308587596e+00 4 2 1
114 38 2 4.0999999999999998e-01 -1.4079664299447574e+01 -8.0779847806338800e+00 -2.9417720035000272e+00 3 1 4
2170 724 1 -8.1999999999999995e-01 -8.0309695669986780e+00 -8.8693563373019355e+00 -6.0279940694913829e+00 4 2 1
1236 412 2 4.0999999999999998e-01 -1.4519086460888865e+01 -1.1541981721219155e+01 -7.1366963565815826e+00 0 10 -3
1245 415 2 4.0999999999999998e-01 -1.3542679526682480e+01 -7.7631581240447733e+00 -6.6465822661707268e+00 1 1 -5
1234 412 1 -8.1999999999999995e-01 -1.3775605929371624e+01 -1.2034895069428380e+01 -6.6847099578593063e+00 0 10 -3
2313 771 2 4.0999999999999998e-01 -1.5000996119350503e+01 -1.0711790537896187e+01 -9.9034863286610175e-01 7 1 -1
5 2 2 4.0999999999999998e-01 -7.6862155578183629e+00 -1.4820632521015973e+01 -4.0221734372655771e+00 2 4 0
2519 840 2 4.0999999999999998e-01 -7.6227594982284632e+00 -5.1666327091166426e+00 -5.5100214947377086e+00 0 -1 -1
1235 412 2 4.0999999999999998e-01 -1.4141313704935522e+01 -1.2554890286951052e+01 -5.9127764527353399e+00 0 10 -3
2312 771 2 4.0999999999999998e-01 -1.3576607816967435e+01 -1.1368674904707859e+01 -5.3614955091533112e-01 7 1 -1
2311 771 1 -8.1999999999999995e-01 -1.4394253696476152e+01 -1.0890327486853440e+01 -2.1574758406466188e-01 7 1 -1
1955 652 2 4.0999999999999998e-01 -1.0749892828195861e+01 -1.1582168377679112e+01 -5.4228362960008880e-02 10 -3 0
1375 459 1 -8.1999999999999995e-01 -1.3605557094055065e+01 -5.2192754949283717e+00 -3.3476134071605266e+00 3 1 2
1376 459 2 4.0999999999999998e-01 -1.3982442959876400e+01 -5.2047881953082094e+00 -4.2737697795378455e+00 3 1 2
6 2 2 4.0999999999999998e-01 -9.2977111758213944e+00 -1.4924146523433429e+01 -4.2651598852231594e+00 2 4 0
1484 495 2 4.0999999999999998e-01 -1.1581812583549146e+01 -1.4267499218737697e+01 -7.5162252326196377e+00 4 -3 2
1590 530 2 4.0999999999999998e-01 -1.0613970937110619e+01 -5.0558494412944981e+00 -8.5215962011504587e-01 -4 -1 -3
2074 692 1 -8.1999999999999995e-01 -1.7253346238883651e+00 -1.4594532405833510e+01 -3.8394195666703972e+00 1 2 1
2156 719 2 4.0999999999999998e-01 -6.3040511488306930e+00 -1.3731118780751908e+01 -7.3215002461953738e-01 4 -1 5
449 150 2 4.0999999999999998e-01 -2.3384367476811718e-01 -1.3299190225755561e+01 -6.8465781618586341e-01 2 -4 -4
1555 519 1 -8.1999999999999995e-01 -5.6848337162306546e+00 -1.0700296068033008e+01 -5.6547296724140494e-02 2 -2 0
1904 635 2 4.0999999999999998e-01 -7.3597999958518567e+00 -9.9484377146044149e+00 -4.6726726335185607e+00 4 2 -2
1466 489 2 4.0999999999999998e-01 -6.8714994201639588e+00 -1.2117216496768460e+01 -3.7362909758259395e+00 3 -8 3
1467 489 2 4.0999999999999998e-01 -7.0819140151967002e+00 -1.2940584193124643e+01 -2.3418495056946842e+00 3 -8 3
1465 489 1 -8.1999999999999995e-01 -6.9130953424339410e+00 -1.3027190111178978e+01 -3.3236938553752271e+00 3 -8 3
1903 635 1 -8.1999999999999995e-01 -7.0382010451337305e+00 -1.0432301827040128e+01 -3.8587512105811346e+00 4 2 -2
1905 635 2 4.0999999999999998e-01 -7.3073872576140682e+00 -9.9240197245465076e+00 -3.0407006876244917e+00 4 2 -2
1470 490 2 4.0999999999999998e-01 -5.6716853311082041e+00 -1.4546613087859447e+01 -3.3341181133687847e+00 2 -4 1
1670 557 2 4.0999999999999998e-01 -2.6471494444972929e+00 -6.8775602036650909e+00 -7.9538662517255432e-01 5 -3 4
1306 436 1 -8.1999999999999995e-01 -2.9503415495390843e+00 -1.2980803115060944e+01 -2.1288385490377006e+00 0 -6 7
2076 692 2 4.0999999999999998e-01 -1.1568450820186538e+00 -1.3794157040443412e+01 -4.0297808427702400e+00 1 2 1
2520 840 2 4.0999999999999998e-01 -6.2476160155794922e+00 -5.9327324255267495e+00 -5.0755707847700897e+00 0 -1 -1
1556 519 2 4.0999999999999998e-01 -5.1684779008807702e+00 -1.0518369854349938e+01 -8.9338538153714886e-01 2 -2 0
2518 840 1 -8.1999999999999995e-01 -7.0473253676692966e+00 -5.9676888997730533e+00 -5.6749550513784968e+00 0 -1 -1
1901 634 2 4.0999999999999998e-01 -5.9966180106748475e+00 -6.3283469267573196e+00 -7.1728317142524833e+00 7 2 0
1273 425 1 -8.1999999999999995e-01 -6.9893339770085561e+00 -7.2060998009017103e+00 -2.3740557416362336e+00 0 -4 3
1275 425 2 4.0999999999999998e-01 -6.7713556862180972e+00 -8.0083950052572455e+00 -1.8183342985735731e+00 0 -4 3
1102 368 1 -8.1999999999999995e-01 -6.9164092496521334e-02 -1.2029371417448880e+01 -4.7104636482171625e+00 1 0 3
1669 557 1 -8.1999999999999995e-01 -2.4506634369818308e+00 -6.5064239954677010e+00 -1.7029491015244744e+00 5 -3 4
1671 557 2 4.0999999999999998e-01 -3.0295977861690151e+00 -5.7081486849611309e+00 -1.8691118062301832e+00 5 -3 4
2213 738 2 4.0999999999999998e-01 -1.8392637179910789e+00 -8.3190253332670956e+00 -2.5179231799136090e+00 4 0 -1
721 241 1 -8.1999999999999995e-01 -2.9668550626935595e+00 -9.1787511429200901e+00 -5.5176237924872460e+00 -1 0 6
293 98 2 4.0999999999999998e-01 -3.3410339405853211e+00 -6.0231884291414062e+00 -6.0308055857433640e+00 1 3 1
1297 433 1 -8.1999999999999995e-01 -3.8190721722731862e+00 -5.1151504811921527e+00 -4.6681536330757147e+00 7 -2 0
292 98 1 -8.1999999999999995e-01 -3.2156987764919389e+00 -6.5079112737821116e+00 -6.8964575779643535e+00 1 3 1
1298 433 2 4.0999999999999998e-01 -4.2616135053643394e+00 -5.2144684608359508e+00 -3.7769119813474159e+00 7 -2 0
1454 485 2 4.0999999999999998e-01 -5.6335026206924788e+00 -6.0605631616954607e+00 -1.9568239850284908e+00 3 -1 -3
2214 738 2 4.0999999999999998e-01 -6.9799222255090321e-01 -9.3986929157910950e+00 -2.9634489545268128e+00 4 0 -1
1453 485 1 -8.1999999999999995e-01 -4.9384086795782309e+00 -5.3739971669349131e+00 -2.1701080384717280e+00 3 -1 -3
1307 436 2 4.0999999999999998e-01 -3.8976692539710367e+00 -1.3152732968238309e+01 -1.8585997765074449e+00 0 -6 7
723 241 2 4.0999999999999998e-01 -2.5879664523064267e+00 -8.4653562484728759e+00 -6.1071403475779569e+00 -1 0 6
533 178 2 4.0999999999999998e-01 -6.5835319686635749e+00 -1.2436774526798857e+01 -7.3438953053161269e+00 4 5 4
2425 809 1 -8.1999999999999995e-01 -5.1162514517019204e+00 -1.0787964958800513e+01 -5.7738981252043633e+00 0 2 -1
1649 550 2 4.0999999999999998e-01 -3.4403698937577900e+00 -9.8823344894066913e+00 -2.6836287898444091e+00 3 0 2
1104 368 2 4.0999999999999998e-01 -8.9329461361458407e-01 -1.1950603654917670e+01 -5.2713762488134375e+00 1 0 3
1650 550 2 4.0999999999999998e-01 -3.3583066838945630e+00 -1.1397358250242169e+01 -2.0797709491338630e+00 3 0 2
2212 738 1 -8.1999999999999995e-01 -1.6743323587921175e+00 -9.1842308937829031e+00 -2.9914582627877735e+00 4 0 -1
722 241 2 4.0999999999999998e-01 -2.6167641282052365e+00 -9.0637095517151618e+00 -4.5879893282907727e+00 -1 0 6
2426 809 2 4.0999999999999998e-01 -4.3461200507001507e+00 -1.0232223854364561e+01 -5.4607401421953359e+00 0 2 -1
985 329 1 -8.1999999999999995e-01 -2.7236484939076213e+00 -1.2262105611335009e+01 -6.3841151544077483e+00 -4 3 -2
2427 809 2 4.0999999999999998e-01 -5.7554168216373185e+00 -1.0928118565855655e+01 -5.0176950204935888e+00 0 2 -1
1648 550 1 -8.1999999999999995e-01 -3.9158012794866153e+00 -1.0568909599811594e+01 -2.1335396498393067e+00 3 0 2
986 329 2 4.0999999999999998e-01 -3.6181759949704855e+00 -1.1821382077643491e+01 -6.3092699334227031e+00 -4 3 -2
2423 808 2 4.0999999999999998e-01 -2.7542998232655602e+00 -1.4693818890112727e+01 -5.6068574442867263e+00 -4 -3 1
1067 356 2 4.0999999999999998e-01 -2.4398666023036242e+00 -1.3121113052371078e+01 -4.5943853135265833e-01 1 2 3
273 91 2 4.0999999999999998e-01 -4.6074001389514976e+00 -1.0004202912863990e+01 -7.3416906565315649e+00 0 0 2
1103 368 2 4.0999999999999998e-01 -4.0883802277647874e-02 -1.1277157022886108e+01 -4.0521382982125029e+00 1 0 3
2155 719 1 -8.1999999999999995e-01 -5.3711241365762952e+00 -1.3434701077032457e+01 -5.2769420616584028e-01 4 -1 5
1308 436 2 4.0999999999999998e-01 -2.6681970553752610e+00 -1.3660668192613421e+01 -2.8057406177509971e+00 0 -6 7
2157 719 2 4.0999999999999998e-01 -5.3812424702669102e+00 -1.2477193155532282e+01 -2.3943274733561815e-01 4 -1 5
1617 539 2 4.0999999999999998e-01 -2.0616399118905591e+00 -1.0734569903901779e+01 -7.4381406743586842e+00 1 5 5
2207 736 2 4.0999999999999998e-01 -1.5980632413076297e+00 -7.0235069712900842e+00 -7.5202237154817970e+00 -2 2 -1
1557 519 2 4.0999999999999998e-01 -6.5881663628177343e+00 -1.0276593082135147e+01 -1.2351245756274309e-01 2 -2 0
294 98 2 4.0999999999999998e-01 -4.1079789703654690e+00 -6.6832039253045501e+00 -7.3125429648577578e+00 1 3 1
987 329 2 4.0999999999999998e-01 -2.7369625401422137e+00 -1.2917126741908834e+01 -7.1396206770961728e+00 -4 3 -2
2326 776 1 -8.1999999999999995e-01 -1.7685348411292701e-01 -1.4262510199610626e+01 -7.5384762791595978e+00 -1 4 1
777 259 2 4.0999999999999998e-01 -1.0942696665710644e+01 -8.3856993706313787e+00 5.3220256530107903e+00 -2 -1 -2
775 259 1 -8.1999999999999995e-01 -1.1065091780905135e+01 -9.3778454241751632e+00 5.2958708002820210e+00 -2 -1 -2
776 259 2 4.0999999999999998e-01 -1.1504410500982740e+01 -9.6818916467655072e+00 6.1411952325794594e+00 -2 -1 -2
2376 792 2 4.0999999999999998e-01 -8.2895589984264877e+00 -7.7240275736072403e+00 1.2057161503856122e+00 2 -1 3
2176 726 1 -8.1999999999999995e-01 -1.4806761671621683e+01 -7.0521724527076390e+00 3.2522952958602147e-01 0 2 -6
895 299 1 -8.1999999999999995e-01 -1.4830867372586154e+01 -5.0386822700658147e+00 4.0732056443246556e+00 1 2 2
1153 385 1 -8.1999999999999995e-01 -1.2231599590242315e+01 -1.0682008204372647e+01 7.3183045055467915e+00 -3 -1 0
1155 385 2 4.0999999999999998e-01 -1.2923977095745439e+01 -1.1387553708754485e+01 7.1671839175093588e+00 -3 -1 0
1459 487 1 -8.1999999999999995e-01 -1.3143844576965680e+01 -1.4793535554859835e+01 5.3101683813807590e+00 -2 -1 -2
2087 696 2 4.0999999999999998e-01 -1.0325596879774817e+01 -1.2645267479303225e+01 5.5230731672141431e+00 2 -1 -3
199 67 1 -8.1999999999999995e-01 -1.1810834008426925e+01 -6.7840698713947845e+00 1.1793684455938482e+00 -3 -1 1
1595 532 2 4.0999999999999998e-01 -1.1407201142887082e+01 -1.3510934488497277e+01 3.2595087570827168e+00 10 -2 1
2088 696 2 4.0999999999999998e-01 -8.8402076202125741e+00 -1.3139684209715885e+01 5.9876660066276912e+00 2 -1 -3
2290 764 1 -8.1999999999999995e-01 -1.4895202779668091e+01 -9.0212962788037210e+00 7.0699576450887314e+00 5 2 4
709 237 1 -8.1999999999999995e-01 -1.1047243593966442e+01 -6.7392993924186726e+00 4.6068384937909563e+00 2 8 4
1954 652 1 -8.1999999999999995e-01 -1.0366671732017757e+01 -1.0771031334883570e+01 3.8760503062593088e-01 10 -3 0
201 67 2 4.0999999999999998e-01 -1.2197282601295324e+01 -7.7063895140675562e+00 1.1777938071800413e+00 -3 -1 1
307 103 1 -8.1999999999999995e-01 -1.1313258402980253e+01 -1.0785630003667523e+01 2.9819881904379173e+00 4 -3 1
711 237 2 4.0999999999999998e-01 -1.2045954467777687e+01 -6.7077650583824013e+00 4.6468467408486340e+00 2 8 4
278 93 2 4.0999999999999998e-01 -1.3688623385605114e+01 -8.3789413622242268e+00 5.0183574727626912e+00 3 4 8
309 103 2 4.0999999999999998e-01 -1.1502061975299823e+01 -1.1699209017359410e+01 3.3421896312676012e+00 4 -3 1
2086 696 1 -8.1999999999999995e-01 -9.5218250461604406e+00 -1.2412687341304274e+01 6.0706823113701809e+00 2 -1 -3
1594 532 1 -8.1999999999999995e-01 -1.1213566762599754e+01 -1.3347135294642431e+01 4.2268216566622172e+00 10 -2 1
710 237 2 4.0999999999999998e-01 -1.0745191968206367e+01 -6.5562332609848095e+00 3.6712797926938485e+00 2 8 4