LAMMPS data file via write_data, version 15 May 2015, timestep = 8008000

2611 atoms
6 atom types
1749 bonds
4 bond types
894 angles
3 angle types
44 dihedrals
3 dihedral types
10 impropers
1 improper types

-1.5088970165370284e+01 1.5088970165370284e+01 xlo xhi
-1.5088970165370284e+01 1.5088970165370284e+01 ylo yhi
-1.5088970165370284e+01 1.5088970165370284e+01 zlo zhi

Masses

1 15.9994
2 1.00794
3 12.0107
4 1.00794
5 12.0107
6 12.0107

Bond Coeffs # harmonic

1 1000 1
2 469 1.4
3 367 1.08
4 469 0.7

Angle Coeffs # harmonic

1 100 109.47
2 35 120
3 63 120

Dihedral Coeffs # opls

1 0 7.25 0 0
2 0 7.25 0 0
3 0 7.25 0 0

Improper Coeffs # cvff

1 2.5 -1 2

Atoms # full

1248 416 2 4.0999999999999998e-01 -1.2892346730407386e+01 -1.1962238815704243e+01 -1.3069664654684727e+01 2 1 0
2118 706 2 4.0999999999999998e-01 -1.1388076004219785e+01 -8.7961184693331056e+00 -1.2683692430653794e+01 1 0 2
1254 418 2 4.0999999999999998e-01 -1.1605955095016892e+01 -1.3545423116275435e+01 -9.2121011390546688e+00 -1 1 0
1267 423 1 -8.1999999999999995e-01 -1.0544281144835757e+01 -1.1685956546224876e+01 -1.0680859195798845e+01 -2 2 0
2116 706 1 -8.1999999999999995e-01 -1.2126364852548818e+01 -8.6822384764694078e+00 -1.2018867247553885e+01 1 0 2
2248 750 1 -8.1999999999999995e-01 -9.1794628253476453e+00 -1.3187833399890774e+01 -8.8291481063916670e+00 2 -3 1
1268 423 2 4.0999999999999998e-01 -1.0674878122442532e+01 -1.0740237905462497e+01 -1.0383214708240221e+01 -2 2 0
1269 423 2 4.0999999999999998e-01 -1.0623596645397043e+01 -1.1736019036180389e+01 -1.1676466732841146e+01 -2 2 0
1223 408 2 4.0999999999999998e-01 -1.2266049197256065e+01 -8.6595948460292682e+00 -1.0415437212163161e+01 2 -1 1
1252 418 1 -8.1999999999999995e-01 -1.2356864646787862e+01 -1.4201761289696968e+01 -9.1387072770930473e+00 -1 1 0
2421 807 2 4.0999999999999998e-01 -1.4630868006604404e+01 -1.3130275852135396e+01 -8.6265421185793407e+00 2 1 2
760 254 1 -8.1999999999999995e-01 -1.0922903461221551e+01 -1.1871051924702451e+01 -1.3405491233524279e+01 2 3 -1
1447 483 1 -8.1999999999999995e-01 -9.4607686252037126e+00 -9.2495697316988679e+00 -1.3045027725017478e+01 -1 -1 -5
1449 483 2 4.0999999999999998e-01 -9.4208505072307887e+00 -8.6841676419257681e+00 -1.2221159648648593e+01 -1 -1 -5
1246 416 1 -8.1999999999999995e-01 -1.3867814774156548e+01 -1.1820299235125303e+01 -1.2901299321317708e+01 2 1 0
1222 408 1 -8.1999999999999995e-01 -1.2556386658611167e+01 -8.6232451885832795e+00 -9.4591869496225396e+00 2 -1 1
570 190 2 4.0999999999999998e-01 -1.3421334753106546e+01 -6.4625829168368014e+00 -1.4155373048890681e+01 -1 -5 0
84 28 2 4.0999999999999998e-01 -1.3223362019192036e+01 -9.9925973094525098e+00 -8.7031853053368380e+00 0 -3 -2
1224 408 2 4.0999999999999998e-01 -1.2846445774273892e+01 -7.6930807893230098e+00 -9.2340391414070808e+00 2 -1 1
32 11 2 4.0999999999999998e-01 -9.8620137758133239e+00 -6.8496175104384776e+00 -1.0023919497770237e+01 -3 -1 -1
219 73 2 4.0999999999999998e-01 -1.0701303838395830e+01 -9.2639762542237509e+00 -8.6418397725983791e+00 -2 2 5
801 267 2 4.0999999999999998e-01 -1.0453920978853784e+01 -9.3935133805597495e+00 -1.4457674265821533e+01 -1 -2 1
1247 416 2 4.0999999999999998e-01 -1.4381739780335071e+01 -1.2611989480596904e+01 -1.3231661768880333e+01 2 1 0
761 254 2 4.0999999999999998e-01 -1.0264872595531184e+01 -1.2335625923906548e+01 -1.3998110805700055e+01 2 3 -1
2249 750 2 4.0999999999999998e-01 -9.5796919045619831e+00 -1.2507556723199214e+01 -9.4432102111413556e+00 2 -3 1
1350 450 2 4.0999999999999998e-01 -1.0075171216505648e+01 -5.6897882916202764e+00 -1.3327154707136366e+01 -3 -4 -3
1253 418 2 4.0999999999999998e-01 -1.2715770928208995e+01 -1.4400964161697422e+01 -1.0050593293691092e+01 -1 1 0
1857 619 2 4.0999999999999998e-01 -1.4432318768136630e+01 -1.1980043133827071e+01 -1.1240341064955949e+01 4 0 -2
217 73 1 -8.1999999999999995e-01 -9.8825320576551761e+00 -9.8127029509660098e+00 -8.8107875392843340e+00 -2 2 5
63 21 2 4.0999999999999998e-01 -8.7907391168129898e+00 -8.8607935549929984e+00 -1.0101115508680305e+01 1 -1 2
1470 490 2 4.0999999999999998e-01 -1.4651349995169344e+01 -9.7736783004552450e+00 -1.2954105601815607e+01 0 -1 -1
2117 706 2 4.0999999999999998e-01 -1.2955892263507122e+01 -8.3823978033326014e+00 -1.2490048124426256e+01 1 0 2
450 150 2 4.0999999999999998e-01 -8.9224952084177644e+00 -1.5074272578380340e+01 -9.1840610794239659e+00 3 -2 -2
2250 750 2 4.0999999999999998e-01 -9.3767285281432855e+00 -1.2938120063645428e+01 -7.8811180146512072e+00 2 -3 1
2034 678 2 4.0999999999999998e-01 -1.2233029758117794e+01 -5.9231372578312094e+00 -9.1111378964200149e+00 2 -1 4
83 28 2 4.0999999999999998e-01 -1.4161796081964109e+01 -1.1328004165693017e+01 -8.6508331642056362e+00 0 -3 -2
31 11 1 -8.1999999999999995e-01 -1.0638775969232377e+01 -6.2406122341797161e+00 -1.0184495488860406e+01 -3 -1 -1
61 21 1 -8.1999999999999995e-01 -8.4788220492069861e+00 -8.1008162619055746e+00 -1.0671355669535318e+01 1 -1 2
569 190 2 4.0999999999999998e-01 -1.4445041029208660e+01 -7.1987943591147552e+00 -1.3117717587442685e+01 -1 -5 0
1448 483 2 4.0999999999999998e-01 -8.6797992227807441e+00 -9.0379507791887121e+00 -1.3632680529874218e+01 -1 -1 -5
33 11 2 4.0999999999999998e-01 -1.0790354371142154e+01 -6.1460510990941266e+00 -1.1168423220260433e+01 -3 -1 -1
1926 642 2 4.0999999999999998e-01 -9.4560039952159656e+00 -1.4530717897122262e+01 -1.4572031738257900e+01 1 -2 -1
568 190 1 -8.1999999999999995e-01 -1.4129265740944662e+01 -6.3155973805630197e+00 -1.3464532563012883e+01 -1 -5 0
549 183 2 4.0999999999999998e-01 -8.5149994780181117e+00 -5.7673925215467925e+00 -8.0196890731327652e+00 3 0 2
2357 786 2 4.0999999999999998e-01 -1.4784482088078301e+01 -1.4576624726875693e+01 -1.4196042541702091e+01 -1 -2 -2
762 254 2 4.0999999999999998e-01 -1.1235852264378233e+01 -1.1031148569631359e+01 -1.3848951868335050e+01 2 3 -1
653 218 2 4.0999999999999998e-01 -8.1368084497034374e+00 -1.3632552106900379e+01 -1.1424896359973262e+01 2 0 -3
563 188 2 4.0999999999999998e-01 -1.4244008410743051e+01 -5.4724002103625562e+00 -1.1984052456134476e+01 0 -1 -1
1348 450 1 -8.1999999999999995e-01 -1.1029746079304566e+01 -5.9550518432076345e+00 -1.3191310342886549e+01 -3 -4 -3
1938 646 2 4.0999999999999998e-01 -7.6302054781469364e+00 -1.2407013979768085e+01 -9.2762127632748062e+00 1 -2 0
1855 619 1 -8.1999999999999995e-01 -1.4873322281884043e+01 -1.2295526471372336e+01 -1.0400092419295504e+01 4 0 -2
547 183 1 -8.1999999999999995e-01 -8.3519607409163310e+00 -6.7317503625625452e+00 -7.8112091090297513e+00 3 0 2
218 73 2 4.0999999999999998e-01 -9.6812201623531671e+00 -1.0368179639781662e+01 -8.0039723554503261e+00 -2 2 5
2032 678 1 -8.1999999999999995e-01 -1.3216369572906522e+01 -5.8976940921675070e+00 -8.9310626913320448e+00 2 -1 4
2419 807 1 -8.1999999999999995e-01 -1.4795366320811397e+01 -1.3385502757687981e+01 -7.6737403784848377e+00 2 1 2
82 28 1 -8.1999999999999995e-01 -1.3688115895370842e+01 -1.0640816059558736e+01 -8.0999872494899421e+00 0 -3 -2
548 183 2 4.0999999999999998e-01 -7.7334027859124879e+00 -7.1204471257829773e+00 -8.4940945656656446e+00 3 0 2
1349 450 2 4.0999999999999998e-01 -1.1368208737456865e+01 -6.4142579385937779e+00 -1.4012653388221402e+01 -3 -4 -3
654 218 2 4.0999999999999998e-01 -7.9401179365034169e+00 -1.4557704011018854e+01 -1.2756105517249285e+01 2 0 -3
2033 678 2 4.0999999999999998e-01 -1.3693289022983421e+01 -5.5416138246930622e+00 -9.7346710057256089e+00 2 -1 4
101 34 2 4.0999999999999998e-01 -3.6130557073551550e-01 -6.2040296194814584e+00 -1.1960684030360445e+01 0 -1 -2
2232 744 2 4.0999999999999998e-01 -9.6767852183517000e-01 -9.2132513396690694e+00 -9.2454024385395890e+00 0 -3 -2
803 268 2 4.0999999999999998e-01 -2.6482219460111978e-02 -1.2276374605482324e+01 -1.3625997526768970e+01 -2 0 0
119 40 2 4.0999999999999998e-01 -3.2469362546835860e+00 -8.9721540180837707e+00 -1.4260313517370021e+01 2 -3 -6
1602 534 2 4.0999999999999998e-01 -1.1065039749488683e+00 -1.2292630423902773e+01 -8.1399740974190351e+00 -4 -1 1
652 218 1 -8.1999999999999995e-01 -7.4660965102633687e+00 -1.4030485582138668e+01 -1.2050856540757231e+01 2 0 -3
1036 346 1 -8.1999999999999995e-01 -5.9617254694951711e+00 -1.4751843035788969e+01 -8.4314605694068963e+00 3 -3 0
1600 534 1 -8.1999999999999995e-01 -1.8191143822955702e+00 -1.1975553756447221e+01 -8.7658178220953893e+00 -4 -1 1
1936 646 1 -8.1999999999999995e-01 -6.6650585219819334e+00 -1.2165115169946841e+01 -9.3762526007071152e+00 1 -2 0
1312 438 1 -8.1999999999999995e-01 -7.3831061695836384e+00 -9.0080031054572824e+00 -1.4989349108561727e+01 -3 -2 2
44 15 2 4.0999999999999998e-01 -2.9486571390816376e+00 -1.3060684641344499e+01 -9.2796659846407579e+00 1 0 2
1146 382 2 4.0999999999999998e-01 -3.3502026533509497e+00 -1.4595240028177258e+01 -1.3771674091816523e+01 0 1 0
1144 382 1 -8.1999999999999995e-01 -3.1037010816718258e+00 -1.4567746550715889e+01 -1.2802905458610766e+01 0 1 0
1881 627 2 4.0999999999999998e-01 -2.9889588992444196e+00 -9.3660685826655339e+00 -9.4202664604968760e+00 1 -3 -1
1038 346 2 4.0999999999999998e-01 -5.1118077939905522e+00 -1.4784589150295369e+01 -8.9573876515651918e+00 3 -3 0
43 15 1 -8.1999999999999995e-01 -3.7166390268920839e+00 -1.3621133782666259e+01 -9.5897180591054223e+00 1 0 2
118 40 1 -8.1999999999999995e-01 -2.2511380345222296e+00 -8.8828279570186908e+00 -1.4281250802315448e+01 2 -3 -6
1601 534 2 4.0999999999999998e-01 -1.4686753581457577e+00 -1.1214646512269878e+01 -9.3119355257054721e+00 -4 -1 1
402 134 2 4.0999999999999998e-01 -5.8267076259195534e+00 -1.1997933096738418e+01 -1.4800612450698077e+01 1 0 1
332 111 2 4.0999999999999998e-01 -5.7458157483570247e+00 -1.0859650365987122e+01 -1.0384827420624033e+01 1 -2 2
45 15 2 4.0999999999999998e-01 -3.6317797726637426e+00 -1.3788784954599549e+01 -1.0571921527065719e+01 1 0 2
2219 740 2 4.0999999999999998e-01 -3.0919026769990783e+00 -7.1223634220142102e+00 -7.8389768290799147e+00 -1 -3 1
1143 381 2 4.0999999999999998e-01 -5.8181759418942551e+00 -9.1313555864241920e+00 -1.4249271726173307e+01 0 -3 2
1142 381 2 4.0999999999999998e-01 -5.0700582119903181e+00 -9.4023377703514122e+00 -1.2823228538987212e+01 0 -3 2
955 319 1 -8.1999999999999995e-01 -6.4007813334942050e+00 -1.1731999224940569e+01 -1.3230034427809825e+01 1 -1 0
2230 744 1 -8.1999999999999995e-01 -1.2963424779787900e+00 -9.6159327618864268e+00 -1.0099720497289567e+01 0 -3 -2
2541 847 2 4.0999999999999998e-01 -5.5872482306107205e+00 -6.6669820278952567e+00 -1.0746914469947541e+01 0 -3 1
1880 627 2 4.0999999999999998e-01 -4.2264301123633121e+00 -9.7503974948550720e+00 -8.4264519831793905e+00 1 -3 -1
2459 820 2 4.0999999999999998e-01 -2.9386621825599981e+00 -6.4504774036892698e+00 -1.2525648602626537e+01 2 -1 -1
2071 691 1 -8.1999999999999995e-01 -5.1660846689530953e+00 -6.4213370320336161e+00 -1.3500094056019828e+01 0 1 0
957 319 2 4.0999999999999998e-01 -6.9915109966188727e+00 -1.2475006886181802e+01 -1.2915376449759009e+01 1 -1 0
2458 820 1 -8.1999999999999995e-01 -2.0423095970534817e+00 -6.3620242820407586e+00 -1.2960113722911856e+01 2 -1 -1
1404 468 2 4.0999999999999998e-01 -6.7688433360468814e-01 -9.0067818432734938e+00 -1.2910998286605611e+01 -3 -4 0
2475 825 2 4.0999999999999998e-01 -3.9982848522395340e+00 -1.1296141864102935e+01 -1.1886290924850933e+01 1 1 -1
2539 847 1 -8.1999999999999995e-01 -5.8737743093531325e+00 -7.5771351690296695e+00 -1.0447655950136230e+01 0 -3 1
1937 646 2 4.0999999999999998e-01 -6.1036811569823062e+00 -1.2987033395625716e+01 -9.2796213962705139e+00 1 -2 0
2474 825 2 4.0999999999999998e-01 -2.4618239692388819e+00 -1.0832763457851676e+01 -1.1584166068954316e+01 1 1 -1
1145 382 2 4.0999999999999998e-01 -2.7400347473310269e+00 -1.3664002470382050e+01 -1.2577018333563684e+01 0 1 0
1879 627 1 -8.1999999999999995e-01 -3.7974773836524438e+00 -9.0135521495199029e+00 -8.9490323225787165e+00 1 -3 -1
2072 691 2 4.0999999999999998e-01 -5.3468233423056635e+00 -7.4041495494968261e+00 -1.3462083529551640e+01 0 1 0
588 196 2 4.0999999999999998e-01 -6.1608365596211225e+00 -1.1037098564449266e+01 -7.7617246371606363e+00 6 -4 -1
2052 684 2 4.0999999999999998e-01 -5.2799085758570889e+00 -5.4417060851730987e+00 -1.2183539098084342e+01 4 -2 3
333 111 2 4.0999999999999998e-01 -5.7090820200246668e+00 -9.2975456546166715e+00 -1.0859369582158173e+01 1 -2 2
2231 744 2 4.0999999999999998e-01 -6.6621850900182089e-01 -9.3850600044367347e+00 -1.0841120054861117e+01 0 -3 -2
62 21 2 4.0999999999999998e-01 -7.4817747480358205e+00 -8.0380137190766447e+00 -1.0626811624482094e+01 1 -1 2
956 319 2 4.0999999999999998e-01 -6.3309712068768889e+00 -1.1036165340052458e+01 -1.2515210423102248e+01 1 -1 0
331 111 1 -8.1999999999999995e-01 -5.5737095273528894e+00 -1.0243668022641971e+01 -1.1153577643633188e+01 1 -2 2
804 268 2 4.0999999999999998e-01 -1.4513794303710732e+00 -1.1684584168990460e+01 -1.3091055637903693e+01 -2 0 0
2073 691 2 4.0999999999999998e-01 -4.5479508857137638e+00 -6.2253003083161467e+00 -1.4261350876883656e+01 0 1 0
802 268 1 -8.1999999999999995e-01 -8.2114981059546466e-01 -1.1719070012918143e+01 -1.3866718546556310e+01 -2 0 0
1141 381 1 -8.1999999999999995e-01 -4.9310409647615323e+00 -9.2307270349835360e+00 -1.3798551830984081e+01 0 -3 2
2473 825 1 -8.1999999999999995e-01 -3.0345816689888796e+00 -1.1508805188731236e+01 -1.2047790720308431e+01 1 1 -1
2540 847 2 4.0999999999999998e-01 -5.2525434414497987e+00 -7.9048884496525664e+00 -9.7358402344883714e+00 0 -3 1
2460 820 2 4.0999999999999998e-01 -1.9945096612864273e+00 -6.9701735637643374e+00 -1.3752516116654993e+01 2 -1 -1
120 40 2 4.0999999999999998e-01 -1.8854654912584436e+00 -9.4079029677825101e+00 -1.5049763304094682e+01 2 -3 -6
868 290 1 -8.1999999999999995e-01 -1.1991350211140219e+01 -9.9522798942559678e+00 -3.5179785083752630e+00 2 -4 2
873 291 2 4.0999999999999998e-01 -9.8086115182187115e+00 -9.1112648807725485e+00 -4.6445609792367293e-01 -1 0 -2
870 290 2 4.0999999999999998e-01 -1.1213606737560273e+01 -1.0566296368518660e+01 -3.3833292770673555e+00 2 -4 2
1015 339 1 -8.1999999999999995e-01 -1.1771542638719925e+01 -1.3590101911595250e+01 -3.1178516786675612e+00 2 3 0
389 130 2 4.0999999999999998e-01 -1.4400737206779224e+01 -1.2953136061068037e+01 -4.4529780948874631e+00 3 3 0
121 41 1 -8.1999999999999995e-01 -1.3586068952754779e+01 -1.1868293419670904e+01 -5.4124188014220920e+00 0 -1 -1
24 8 2 4.0999999999999998e-01 -1.2115619097625780e+01 -8.1458982018110309e+00 -2.8863372391933790e+00 2 -3 -2
869 290 2 4.0999999999999998e-01 -1.2699085417188886e+01 -1.0421667558992077e+01 -4.0460103998318182e+00 2 -4 2
872 291 2 4.0999999999999998e-01 -9.1812926593700297e+00 -9.1016869772254427e+00 -1.9721331072092720e+00 -1 0 -2
22 8 1 -8.1999999999999995e-01 -1.2393177693797153e+01 -7.2378234292387722e+00 -2.5726604614092405e+00 2 -3 -2
1032 344 2 4.0999999999999998e-01 -1.4996306612650887e+01 -1.0109918347779480e+01 -2.9688421514369630e+00 -2 -1 -2
871 291 1 -8.1999999999999995e-01 -9.4106764104030916e+00 -9.6767941572603675e+00 -1.1868520140445344e+00 -1 0 -2
2316 772 2 4.0999999999999998e-01 -1.4921299513645394e+01 -6.7417204661539056e+00 -7.5178444069776518e-01 2 1 -6
1016 339 2 4.0999999999999998e-01 -1.1848331058388080e+01 -1.2750672862998094e+01 -3.6558982015198005e+00 2 3 0
122 41 2 4.0999999999999998e-01 -1.4074788288818620e+01 -1.1470309072378528e+01 -6.1888165929304453e+00 0 -1 -1
1394 465 2 4.0999999999999998e-01 -8.9057027742314894e+00 -1.1327578469408770e+01 -1.0467364535415999e+00 1 0 0
1393 465 1 -8.1999999999999995e-01 -8.4039955214836244e+00 -1.2174394859965453e+01 -1.2234380972221626e+00 1 0 0
2542 848 1 -8.1999999999999995e-01 -9.2455074676703930e+00 -1.4378763354577552e+01 -2.8568044076147618e+00 1 0 -1
1017 339 2 4.0999999999999998e-01 -1.0819864961177897e+01 -1.3897218621526871e+01 -3.1133105250757822e+00 2 3 0
856 286 1 -8.1999999999999995e-01 -9.7904227899589884e+00 -7.8533195218627299e+00 -5.8953858121574800e+00 1 0 2
858 286 2 4.0999999999999998e-01 -9.1786515553100791e+00 -7.3895733841419524e+00 -6.5362501462248623e+00 1 0 2
857 286 2 4.0999999999999998e-01 -1.0041716464949484e+01 -8.7486916485821720e+00 -6.2630702323353145e+00 1 0 2
2543 848 2 4.0999999999999998e-01 -8.8326063101490746e+00 -1.3794453520274095e+01 -2.1581441024170331e+00 1 0 -1
2415 805 2 4.0999999999999998e-01 -1.1606116090116785e+01 -1.2840298913684604e+01 -8.6917203585200831e-01 3 1 0
515 172 2 4.0999999999999998e-01 -8.6375919128697554e+00 -1.1054076574367333e+01 -3.9791977426360887e+00 3 3 -1
514 172 1 -8.1999999999999995e-01 -9.4771516402970803e+00 -1.1502111612899796e+01 -3.6718929798362634e+00 3 3 -1
2062 688 1 -8.1999999999999995e-01 -9.1929710204677466e+00 -1.1341399322689027e+01 -6.5151330180119018e+00 -1 2 0
516 172 2 4.0999999999999998e-01 -9.4051256451392824e+00 -1.1712283050425723e+01 -2.6968689610748147e+00 3 3 -1
1031 344 2 4.0999999999999998e-01 -1.4788333565118274e+01 -8.8670318780997768e+00 -4.0074430741221061e+00 -2 -1 -2
23 8 2 4.0999999999999998e-01 -1.2350153203214221e+01 -6.5937698719079112e+00 -3.3364506672010670e+00 2 -3 -2
1395 465 2 4.0999999999999998e-01 -7.8664494550959274e+00 -1.2417994806760252e+01 -4.1613707933901800e-01 1 0 0
1328 443 2 4.0999999999999998e-01 -1.4082524305517419e+01 -9.3686288913179361e+00 -6.6801524569220554e+00 1 -2 1
123 41 2 4.0999999999999998e-01 -1.2859190586668074e+01 -1.2467596691246076e+01 -5.7478514294131049e+00 0 -1 -1
388 130 1 -8.1999999999999995e-01 -1.5063719239070851e+01 -1.3303884514835428e+01 -3.7915690307434140e+00 3 3 0
2315 772 2 4.0999999999999998e-01 -1.3333038928614041e+01 -6.8148157570804226e+00 -1.1243379714148531e+00 2 1 -6
1030 344 1 -8.1999999999999995e-01 -1.4980623433756204e+01 -9.1139785709844610e+00 -3.0576675279897678e+00 -2 -1 -2
405 135 2 4.0999999999999998e-01 -1.0462119971703384e+01 -6.0937015489300901e+00 -5.7573160343770180e+00 3 6 0
1329 443 2 4.0999999999999998e-01 -1.4455845514372914e+01 -7.9921489434392736e+00 -5.8847626444143533e+00 1 -2 1
1327 443 1 -8.1999999999999995e-01 -1.4563131828160499e+01 -8.9863741373073509e+00 -5.8908937650314677e+00 1 -2 1
209 70 2 4.0999999999999998e-01 -1.4179271386616172e+01 -1.0896891801600727e+01 -1.0468915975920599e+00 2 -1 -1
2064 688 2 4.0999999999999998e-01 -9.4987411349942210e+00 -1.1613682145010465e+01 -5.6027743855972112e+00 -1 2 0
2063 688 2 4.0999999999999998e-01 -8.1997359160721235e+00 -1.1225163936406130e+01 -6.5129115771334849e+00 -1 2 0
2314 772 1 -8.1999999999999995e-01 -1.4031499540484594e+01 -6.3037953351146889e+00 -6.2329648244798008e-01 2 1 -6
1577 526 2 4.0999999999999998e-01 -1.3420330859757259e+01 -9.4419866878385292e+00 -1.3110112507549836e+00 0 5 -5
208 70 1 -8.1999999999999995e-01 -1.4943936133432388e+01 -1.1377309121570846e+01 -1.4764479497657526e+00 2 -1 -1
913 305 1 -8.1999999999999995e-01 -1.4055264436795756e+01 -6.2724089663091362e+00 -6.1840700351816302e+00 -3 -1 -3
1593 531 2 4.0999999999999998e-01 -8.6203718867118297e+00 -7.4152659517187747e+00 -3.9798337879967534e+00 1 -1 2
1835 612 2 4.0999999999999998e-01 -1.1744379716251380e+01 -1.4769447893956448e+01 -5.9511659574533891e+00 0 1 2
1592 531 2 4.0999999999999998e-01 -8.5876721098200406e+00 -6.4719577259594043e+00 -2.6472381864455894e+00 1 -1 2
1591 531 1 -8.1999999999999995e-01 -8.7528795772275210e+00 -7.3971999916397921e+00 -2.9888005143902081e+00 1 -1 2
915 305 2 4.0999999999999998e-01 -1.3974108694569066e+01 -5.4724512122411593e+00 -5.5895004624502622e+00 -3 -1 -3
1578 526 2 4.0999999999999998e-01 -1.1899317302061721e+01 -9.6859876894585000e+00 -7.6907738766265510e-01 0 5 -5
1836 612 2 4.0999999999999998e-01 -1.1892579210615002e+01 -1.4094426616071807e+01 -7.4307248456656634e+00 0 1 2
914 305 2 4.0999999999999998e-01 -1.3521049300903410e+01 -6.1246356812440705e+00 -7.0164214284046249e+00 -3 -1 -3
2414 805 2 4.0999999999999998e-01 -1.2473921673814704e+01 -1.1599803488718514e+01 -2.5696669673760653e-01 3 1 0
2544 848 2 4.0999999999999998e-01 -8.9359295404628138e+00 -1.4086166764035811e+01 -3.7615586890754091e+00 1 0 -1
2413 805 1 -8.1999999999999995e-01 -1.2006393524088175e+01 -1.2456048673217568e+01 -3.7209594959508152e-02 3 1 0
1834 612 1 -8.1999999999999995e-01 -1.1788356744347624e+01 -1.3906236752541854e+01 -6.4541214701351333e+00 0 1 2
1576 526 1 -8.1999999999999995e-01 -1.2849358692143351e+01 -9.9904457684108987e+00 -7.0009765516694422e-01 0 5 -5
403 135 1 -8.1999999999999995e-01 -1.0462858970911945e+01 -5.0938751102836104e+00 -5.7767610011060047e+00 3 6 0
2423 808 2 4.0999999999999998e-01 -1.2884947480802539e+01 -1.4902973696065752e+01 -2.5069206086343438e+00 -2 -1 -4
2562 854 2 4.0999999999999998e-01 -8.1076316229973759e+00 -5.0411215326927934e+00 -5.7730823794583426e+00 2 -3 -3
2420 807 2 4.0999999999999998e-01 -1.4262259734703918e+01 -1.4201577679229066e+01 -7.4504676411093147e+00 2 1 2
1567 523 1 -8.1999999999999995e-01 -8.2130415654561695e-01 -9.9738538090125708e+00 -6.0770481503789480e+00 0 2 0
587 196 2 4.0999999999999998e-01 -4.8325061579971393e+00 -1.1295198299075507e+01 -6.8475946862531583e+00 6 -4 -1
586 196 1 -8.1999999999999995e-01 -5.6302970518537983e+00 -1.0707156803947857e+01 -6.9808931412267903e+00 6 -4 -1
2114 705 2 4.0999999999999998e-01 -2.4348260322330812e+00 -9.3818906151180528e+00 -6.8872669171335765e-01 -3 2 -2
819 273 2 4.0999999999999998e-01 -4.2186267731526303e+00 -5.3130042070871131e+00 -6.9481842462331347e+00 -2 0 0
2220 740 2 4.0999999999999998e-01 -2.1293422903814374e+00 -5.9610367793082695e+00 -7.2132698611110584e+00 -1 -3 1
163 55 1 -8.1999999999999995e-01 -5.2909291215570509e+00 -1.4371916066522704e+01 -3.0766265794436745e+00 2 -2 -3
2310 770 2 4.0999999999999998e-01 -3.5238472084759742e-01 -8.1836051687759195e+00 -2.2944480661501121e+00 1 -1 3
2499 833 2 4.0999999999999998e-01 -3.3307951829018680e+00 -6.5435037028087013e+00 -3.2492470463210044e+00 2 -3 1
164 55 2 4.0999999999999998e-01 -5.9400132381685200e+00 -1.4656392233479020e+01 -2.3710808699081927e+00 2 -2 -3
2218 740 1 -8.1999999999999995e-01 -3.0303664345482435e+00 -6.3914652905284566e+00 -7.1592467794195001e+00 -1 -3 1
2309 770 2 4.0999999999999998e-01 -1.6094947045876573e+00 -7.1854829737813919e+00 -1.9942192597101158e+00 1 -1 3
2308 770 1 -8.1999999999999995e-01 -7.1114916392003202e-01 -7.4862310062277242e+00 -1.6739732547999377e+00 1 -1 3
1984 662 1 -8.1999999999999995e-01 -3.8083857399584531e-02 -5.3994429369294430e+00 -7.4208344888541191e+00 1 -1 4
789 263 2 4.0999999999999998e-01 -6.6347070112613817e+00 -1.3960145858977821e+01 -6.9035466442785651e+00 -1 2 2
2085 695 2 4.0999999999999998e-01 -1.8855924853807320e+00 -5.9275156130212956e+00 -4.6374483854833031e+00 -1 2 1
2432 811 2 4.0999999999999998e-01 -3.9536893481850939e+00 -1.0133558399880535e+01 -3.8695539570622710e+00 0 0 -6
1102 368 1 -8.1999999999999995e-01 -3.5508305190354470e+00 -1.2335371237334883e+01 -6.4642402149849794e+00 -2 1 -3
1568 523 2 4.0999999999999998e-01 -4.9322197934286116e-01 -1.0902776979533343e+01 -6.2487905902841412e+00 0 2 0
2431 811 1 -8.1999999999999995e-01 -3.2187685690774810e+00 -1.0252423252610104e+01 -4.5372321696932953e+00 0 0 -6
1662 554 2 4.0999999999999998e-01 -3.6744247089913618e+00 -1.4629878282921075e+01 -2.5810816250873696e+00 0 1 -3
2340 780 2 4.0999999999999998e-01 -3.5784210391432012e+00 -5.8147126744603614e+00 -6.7808752693009211e-01 -1 -1 -2
1569 523 2 4.0999999999999998e-01 -1.7717560241612862e+00 -1.0007851218712517e+01 -5.7679898271744747e+00 0 2 0
150 50 2 4.0999999999999998e-01 -2.8322393789855589e+00 -7.3515308303920754e+00 -5.4871966184350178e+00 1 2 2
1660 554 1 -8.1999999999999995e-01 -2.6867209767212632e+00 -1.4621129313186779e+01 -2.4248880802032158e+00 0 1 -3
459 153 2 4.0999999999999998e-01 -6.2337708611340741e+00 -7.3077942068303114e+00 -1.1279371871589738e+00 0 -4 0
148 50 1 -8.1999999999999995e-01 -2.5547360277918525e+00 -7.6128015864458298e+00 -4.5626636926505988e+00 1 2 2
457 153 1 -8.1999999999999995e-01 -6.2297453969348204e+00 -7.1772018346878408e+00 -2.1193811051046936e+00 0 -4 0
1485 495 2 4.0999999999999998e-01 -5.6765971419204035e+00 -8.9978280017780268e+00 -2.7480967881808489e+00 0 -1 -1
534 178 2 4.0999999999999998e-01 -6.2257113744480144e+00 -1.2458515437781871e+01 -4.6651004464713992e+00 0 -1 -1
445 149 1 -8.1999999999999995e-01 -3.6917904277589031e-01 -1.2264107110037656e+01 -2.1172273387401930e+00 -1 -1 -2
458 153 2 4.0999999999999998e-01 -7.1525147590475724e+00 -7.3184972692175254e+00 -2.4779393319526726e+00 0 -4 0
446 149 2 4.0999999999999998e-01 -1.2627149315384916e+00 -1.2673108272618475e+01 -2.3025466536298840e+00 -1 -1 -2
2497 833 1 -8.1999999999999995e-01 -3.5957941008442162e+00 -6.3302037593511553e+00 -2.3088692656126497e+00 2 -3 1
788 263 2 4.0999999999999998e-01 -7.4091101071070753e+00 -1.4950607661252704e+01 -5.8614352631240276e+00 -1 2 2
2498 833 2 4.0999999999999998e-01 -4.5698585722493750e+00 -6.5201711827865125e+00 -2.1858146990135801e+00 2 -3 1
1484 495 2 4.0999999999999998e-01 -5.2054992232654964e+00 -1.0217597090537017e+01 -1.7698632875463165e+00 0 -1 -1
1104 368 2 4.0999999999999998e-01 -3.8526788997252392e+00 -1.3239351358067781e+01 -6.1613556395717772e+00 -2 1 -3
149 50 2 4.0999999999999998e-01 -2.7488680306425248e+00 -8.5830767848946365e+00 -4.4180593788854559e+00 1 2 2
1483 495 1 -8.1999999999999995e-01 -5.2085109368873681e+00 -9.8807681049437512e+00 -2.7114410817141525e+00 0 -1 -1
532 178 1 -8.1999999999999995e-01 -6.7401037580634959e+00 -1.1665178072921442e+01 -4.3394505196593318e+00 0 -1 -1
2433 811 2 4.0999999999999998e-01 -3.4356986969785233e+00 -1.1021640554414088e+01 -5.1382960469552454e+00 0 0 -6
787 263 1 -8.1999999999999995e-01 -6.7296847934372703e+00 -1.4221382064234890e+01 -5.9429392495140760e+00 -1 2 2
165 55 2 4.0999999999999998e-01 -5.6978351166228780e+00 -1.4510966519127303e+01 -3.9794688057109919e+00 2 -2 -3
1103 368 2 4.0999999999999998e-01 -3.0557969426778477e+00 -1.2421628991464173e+01 -7.3288400804143050e+00 -2 1 -3
533 178 2 4.0999999999999998e-01 -6.1757582121245509e+00 -1.1140865428604879e+01 -3.7017657018070249e+00 0 -1 -1
1661 554 2 4.0999999999999998e-01 -2.4993921756105753e+00 -1.4825193950525264e+01 -1.4640045473922054e+00 0 1 -3
2519 840 2 4.0999999999999998e-01 -8.6921211080429828e-02 -1.0397485517463771e+01 -2.9557931430980791e+00 -1 0 -1
2534 845 2 4.0999999999999998e-01 -3.0039289867463381e-01 -1.5061328697847646e+01 -6.5103736879838401e+00 -2 0 0
834 278 2 4.0999999999999998e-01 -6.5984382967525566e+00 -1.4664332205843872e+01 -6.5826854041237226e-02 1 0 0
2091 697 2 4.0999999999999998e-01 -1.0592262581837200e+01 -1.4813422977184608e+01 1.4648997431850077e+00 0 1 -4
555 185 2 4.0999999999999998e-01 -1.4539336911042630e+01 -6.6397168209630362e+00 4.1709990839454463e+00 6 0 -2
1670 557 2 4.0999999999999998e-01 -1.5056926858077082e+01 -1.0783637804186416e+01 2.4553416529209748e+00 0 -3 -1
1126 376 1 -8.1999999999999995e-01 -1.1664756953169247e+01 -6.3258181684246484e+00 2.5449291333780693e+00 0 0 0
263 88 2 4.0999999999999998e-01 -1.0397105986021042e+01 -9.6042955571341047e+00 4.7616455544085774e+00 1 -1 1
262 88 1 -8.1999999999999995e-01 -9.6083389007517006e+00 -1.0217922974798546e+01 4.7250470765023813e+00 1 -1 1
1297 433 1 -8.1999999999999995e-01 -1.0141577634247600e+01 -1.4555633355822485e+01 4.4647110414253461e+00 4 1 3
1298 433 2 4.0999999999999998e-01 -1.0563786855165423e+01 -1.4198439948308955e+01 3.6315340963466056e+00 4 1 3
1525 509 1 -8.1999999999999995e-01 -1.3653968363565944e+01 -1.0804217594753283e+01 5.9268807091391800e+00 0 2 0
429 143 2 4.0999999999999998e-01 -1.3079985850485915e+01 -5.6861055737849746e+00 6.0523894923079880e+00 2 -2 1
783 261 2 4.0999999999999998e-01 -8.2624869980786393e+00 -9.2629987771949125e+00 4.2547504068482702e+00 2 0 -1
71 24 2 4.0999999999999998e-01 -8.4758304851051918e+00 -1.3409645953765272e+01 4.8352451188696861e+00 -1 -3 0
2576 859 2 4.0999999999999998e-01 -1.0137558747444412e+01 -1.0679903196329221e+01 3.1599080684091447e+00 1 -1 3
553 185 1 -8.1999999999999995e-01 -1.4180497142772989e+01 -6.8098351788904665e+00 5.0887820093144640e+00 6 0 -2
2575 859 1 -8.1999999999999995e-01 -1.0559565529310166e+01 -1.0890877056204054e+01 2.2781870342274892e+00 1 -1 3
2200 734 1 -8.1999999999999995e-01 -1.0349218266069169e+01 -8.4432836517432222e+00 1.1785916084251085e+00 0 1 -2
2577 859 2 4.0999999999999998e-01 -1.0302595239286489e+01 -1.1815959533509862e+01 1.9985082058525165e+00 1 -1 3
2202 734 2 4.0999999999999998e-01 -1.0238799859386646e+01 -9.3140764055351468e+00 1.6577152538818609e+00 0 1 -2
264 88 2 4.0999999999999998e-01 -9.3934988626281246e+00 -1.0539959551459287e+01 5.6470925180087228e+00 1 -1 1
1527 509 2 4.0999999999999998e-01 -1.3767987193822322e+01 -1.0969587086310195e+01 4.9472459632776875e+00 0 2 0
1960 654 1 -8.1999999999999995e-01 -1.3885144886335544e+01 -1.3934294073032476e+01 2.8638721638596998e+00 -1 1 2
688 230 1 -8.1999999999999995e-01 -9.8937876450204811e+00 -1.4502141909925511e+01 7.2974896790927026e+00 0 -4 0
1987 663 1 -8.1999999999999995e-01 -1.1686772475285144e+01 -8.5922385738408202e+00 5.3890158497349780e+00 2 -2 -1
460 154 1 -8.1999999999999995e-01 -1.3375059175775039e+01 -1.1183754405351060e+01 2.9435687914651218e+00 2 -3 -1
779 260 2 4.0999999999999998e-01 -1.3134212951484983e+01 -7.5290004592057196e+00 2.3333398173278290e+00 -3 1 0
1526 509 2 4.0999999999999998e-01 -1.4532234869869894e+01 -1.0924620867772326e+01 6.3896794199371811e+00 0 2 0
778 260 1 -8.1999999999999995e-01 -1.4056214778529769e+01 -7.8263122364133553e+00 2.0852472544754121e+00 -3 1 0
1988 663 2 4.0999999999999998e-01 -1.2245806978104197e+01 -9.2085389229182848e+00 5.9437102563855575e+00 2 -2 -1
2089 697 1 -8.1999999999999995e-01 -1.0811269434097937e+01 -1.3916981564673524e+01 1.8502053328633927e+00 0 1 -4
2090 697 2 4.0999999999999998e-01 -1.1365655223004639e+01 -1.3400184858849023e+01 1.1978180265941667e+00 0 1 -4
1989 663 2 4.0999999999999998e-01 -1.2191959928168362e+01 -7.7461100654068984e+00 5.2190634456495815e+00 2 -2 -1