2611
Atoms. Timestep: 23000000
O 11.1838 -3.15682 0.193109
H 10.7716 -3.54518 1.01726
H 11.0867 -2.16169 0.209073
O -9.48997 14.3684 -4.92101
H -9.8691 -15.0328 -5.4956
H -8.55453 14.1675 -5.21178
O -2.15408 7.51727 -12.6544
H -1.70822 8.21081 -12.0886
H -2.19882 7.83748 -13.6007
O -12.6518 13.4174 1.97582
H -12.9709 12.5043 1.72227
H -13.4334 13.9816 2.24199
O -12.4937 4.56982 -8.31728
H -11.9482 4.27816 -9.10299
H -11.8956 4.98606 -7.63239
O -0.208626 14.4592 10.4558
H 0.44047 13.7205 10.2744
H 0.277551 -14.7936 10.475
O 14.0592 -1.41059 -14.3302
H 13.2976 -0.931624 -14.7667
H 14.8431 -0.794067 -14.2579
O 6.00129 -0.213014 5.88931
H 6.7442 -0.75038 5.49019
H 5.38006 0.0862764 5.16512
O -0.86762 -14.152 8.18409
H -0.109273 -13.5657 7.89932
H -0.514155 -14.9144 8.7262
O -11.9745 9.58161 -3.38899
H -12.7421 10.1307 -3.05849
H -11.7898 9.80835 -4.34525
O -14.72 -7.94239 -11.604
H -14.0992 -8.16377 -10.8519
H -14.4425 -8.4434 -12.4237
O -11.4603 -4.00754 14.4476
H -10.6163 -3.91933 13.9186
H -12.2093 -4.26905 13.8389
O 12.6023 -6.33722 -12.628
H 11.6933 -6.07294 -12.3058
H 13.2622 -5.62664 -12.3837
O 0.22889 -13.6453 -13.6042
H 0.423524 -12.6783 -13.4396
H -0.635168 -13.7317 -14.1
O -2.03474 -3.01609 13.4348
H -1.49785 -2.17546 13.3637
H -1.53002 -3.68926 13.9752
O -6.84692 -0.492844 -12.7289
H -7.49024 -0.767008 -12.0141
H -6.1666 0.130693 -12.3438
O -14.6673 14.5003 7.4057
H -14.286 13.5759 7.4014
H -14.2879 15.0209 6.64091
O 10.109 -0.392664 -2.21584
H 9.57313 0.252026 -1.6707
H 11.0701 -0.116641 -2.20889
O -9.12495 -5.34765 -9.80874
H -8.75796 -6.23233 -10.0962
H -8.84403 -4.64275 -10.46
O 12.2491 -3.16934 -8.61886
H 11.9404 -3.09123 -9.56682
H 12.7012 -2.32063 -8.34452
O -3.74447 12.8193 14.6104
H -2.86056 13.1982 14.3363
H -4.25097 13.5021 -14.9896
O 10.1151 5.60038 -13.2963
H 9.34573 5.72952 -12.6707
H 9.90134 6.01987 -14.1785
O -9.21661 7.95704 7.78258
H -8.36654 7.63843 7.36327
H -9.5461 7.27075 8.43097
O 7.15459 2.92653 -7.99654
H 7.99657 3.43843 -8.16681
H 7.22647 2.44833 -7.12125
O -1.79509 -12.4691 -11.4712
H -2.73344 -12.6487 -11.7665
H -1.56713 -11.5118 -11.6489
O 8.36644 -8.58983 4.20416
H 7.77487 -8.19794 3.49957
H 7.86655 -8.64045 5.06875
O -13.6112 -7.6409 10.1682
H -13.3383 -6.82985 9.65087
H -14.1513 -7.3633 10.9627
O 5.89646 15.0521 4.3679
H 5.34578 14.5755 5.05311
H 5.30337 -14.7479 3.63195
O 8.14253 -1.74762 5.5796
H 8.17154 -1.81106 6.57715
H 9.0735 -1.66725 5.22352
O -2.08026 6.52488 1.35024
H -2.88215 5.93121 1.41725
H -1.32225 6.12017 1.8617
O 3.0804 11.6127 1.93921
H 2.85167 10.7288 1.53141
H 3.29273 12.2689 1.21513
O 8.10846 -10.5876 -1.54546
H 7.32469 -10.9105 -2.0759
H 8.1843 -11.122 -0.703716
O -13.6695 -0.0808174 -14.5948
H -13.007 0.390655 14.9496
H -13.1894 -0.71834 -13.9922
O -2.86503 -12.5024 5.45786
H -3.77175 -12.6217 5.86231
H -2.3837 -11.7643 5.9306
O 1.78164 -0.998727 7.5089
H 1.83197 -1.17531 8.49188
H 1.21776 -1.69998 7.07273
O 9.41821 11.7373 10.1154
H 9.02039 12.6446 9.97975
H 10.3629 11.8311 10.4296
O -4.58255 -3.27528 -5.47473
H -4.97098 -2.35965 -5.37123
H -3.91497 -3.27193 -6.21924
O -13.4362 -8.14387 -1.70215
H -13.6427 -9.06141 -2.04192
H -13.772 -7.46373 -2.35374
O -8.24419 -8.07267 -13.6126
H -8.21454 -7.08354 -13.7566
H -7.69459 -8.52803 -14.313
O -8.10616 14.8861 3.61848
H -7.17244 14.6187 3.85652
H -8.73001 14.6023 4.34666
O -10.9098 8.96808 -0.98603
H -11.2047 9.38278 -1.84686
H -10.926 9.65702 -0.261411
O -12.5298 5.56041 13.7173
H -12.1009 5.01482 14.4373
H -13.4935 5.70764 13.9401
O 5.63494 0.654339 -13.2684
H 5.0457 1.20597 -13.8587
H 5.12077 -0.131556 -12.925
O 14.5442 1.57729 6.35927
H 14.8949 2.20641 5.6656
H 13.7741 1.0621 5.98316
O -0.940166 6.67759 9.81078
H -0.362379 7.31031 9.29523
H -1.89413 6.9708 9.748
O 9.10683 0.106928 -8.6133
H 8.24437 0.17053 -9.11537
H 9.39133 1.0204 -8.32245
O -8.50626 -9.5217 9.23577
H -9.12427 -10.1063 8.71015
H -8.79082 -8.56753 9.14327
O -5.05903 1.24147 -11.6043
H -5.48936 2.01273 -12.0733
H -5.25967 1.29225 -10.626
O -0.0549061 -3.28043 6.96511
H -0.291845 -4.09419 6.43443
H -0.858206 -2.96733 7.47171
O 4.58282 -1.76231 7.79681
H 5.19206 -1.2785 7.16855
H 3.63731 -1.48782 7.62183
O -12.3719 -10.767 -7.91404
H -13.0356 -11.5018 -8.054
H -12.7768 -9.89521 -8.18968
O -1.84481 14.0868 5.89967
H -1.36518 14.6668 6.55805
H -1.63867 14.3956 4.97118
O 3.90009 -5.59375 -0.0484371
H 2.91113 -5.47437 0.0391993
H 4.14031 -5.68635 -1.01471
O 5.09726 -7.04608 12.8608
H 5.84491 -6.38201 12.8603
H 5.17667 -7.63682 13.6637
O 5.87239 -4.09108 7.67217
H 6.7501 -3.85723 8.09038
H 5.20199 -3.38018 7.88467
O 14.5503 -3.34817 3.59204
H 14.998 -3.68483 4.42037
H 14.6356 -4.03063 2.86614
O -5.94401 -5.62317 4.6115
H -5.32356 -4.83898 4.60384
H -6.30728 -5.76977 3.69144
O -5.27851 -13.631 5.93849
H -6.17747 -13.297 6.22179
H -5.38846 -14.306 5.20887
O 10.892 9.24479 2.15615
H 10.002 9.61828 2.41762
H 11.5327 9.34658 2.9171
O -13.7329 -5.16121 12.4814
H -13.9717 -4.56794 11.7126
H -14.4891 -5.78922 12.6651
O 1.07169 -9.55953 14.1162
H 0.954974 -10.0233 14.9944
H 0.176714 -9.29306 13.7585
O 14.1682 -2.0601 -11.6335
H 13.5451 -1.55868 -11.0333
H 13.9559 -1.84702 -12.5872
O 13.5521 9.90486 10.9906
H 12.9004 10.5945 10.675
H 14.4799 10.2742 10.938
O 13.7115 -12.6345 -11.3464
H 12.9781 -13.1095 -11.8327
H 13.9945 -13.1785 -10.5565
O -14.5625 2.93057 -8.64997
H -14.9239 3.1127 -9.56441
H -13.8036 3.5538 -8.46125
O -11.8966 -10.0473 15.0183
H -12.6332 -9.39686 -14.9229
H -12.229 -10.9786 -14.9593
O -12.8688 -6.12894 0.284397
H -12.1528 -6.28255 0.96546
H -12.7091 -6.72017 -0.506134
O 12.428 -4.10974 10.1776
H 12.3356 -4.11963 11.1733
H 11.6947 -3.55793 9.78034
O 1.75318 8.53677 -10.7399
H 1.80431 7.55728 -10.5451
H 2.24365 8.73383 -11.5888
O -14.1563 10.5411 14.6405
H -14.4355 11.4976 14.7242
H -13.3277 10.3874 -14.9477
O 9.4826 -11.6958 7.95914
H 9.20898 -10.83 8.37808
H 9.0334 -11.793 7.07103
O 7.08909 -9.46133 -6.61796
H 7.7874 -9.5073 -5.90367
H 7.48806 -9.07555 -7.44981
O 11.0238 -2.03855 9.36356
H 11.4339 -1.30846 8.81696
H 11.1243 -1.82415 10.3351
O -13.451 6.92981 -3.18447
H -13.0972 5.99775 -3.10662
H -12.7719 7.57451 -2.83363
O -9.09717 1.85635 4.6532
H -9.37518 2.36367 5.46887
H -8.55755 1.05929 4.92424
O -5.89928 3.42949 6.05727
H -5.47358 3.65696 6.93306
H -6.21954 2.48241 6.07836
O -12.1694 -4.37856 -6.24005
H -11.7624 -3.98445 -7.06406
H -13.0841 -4.72282 -6.45197
O -10.7079 11.5344 -11.166
H -10.94 10.7283 -10.6217
H -9.7255 11.5389 -11.3527
O -5.65697 -11.5484 14.9473
H -5.20805 -11.3498 -14.308
H -6.2614 -10.79 14.7034
O 4.10263 -6.5377 8.16998
H 3.97014 -6.18974 9.09807
H 4.625 -5.87278 7.63614
O -5.69603 -2.25266 9.5519
H -6.19727 -2.49924 8.72249
H -5.63663 -3.0485 10.1545
O -10.2209 -0.967641 14.6463
H -9.70297 -1.77262 14.3569
H -10.9804 -1.2525 -14.8955
O 3.54426 9.6894 -4.36401
H 4.49279 9.63134 -4.05274
H 3.04408 10.3375 -3.78972
O 0.750382 9.90191 10.4715
H -0.152292 9.60346 10.1615
H 1.01707 10.7279 9.97484
O 4.09288 11.3479 -10.9872
H 4.32365 10.8926 -10.1273
H 4.05625 10.6717 -11.723
O 9.94512 -9.75799 -12.51
H 9.35226 -9.91108 -11.7194
H 10.8537 -9.48182 -12.1967
O 2.90509 5.6556 12.9306
H 2.69921 6.50469 12.4442
H 2.05366 5.1698 13.1282
O -3.42746 -13.3777 8.33907
H -4.06087 -13.621 7.60451
H -2.57572 -13.8897 8.22794
O 13.5305 5.44816 4.16061
H 14.0142 4.587 4.00455
H 13.0568 5.72087 3.32322
O 2.96723 -13.3649 6.9708
H 3.24353 -13.3271 7.93111
H 3.26211 -14.2337 6.5731
O -3.70001 -9.20741 -8.51909
H -4.67699 -9.11404 -8.32736
H -3.17339 -8.85976 -7.74334
O 1.9009 0.0251886 -12.5355
H 1.23021 0.272013 -11.8361
H 2.15719 0.840862 -13.0542
O -14.9714 -7.81887 2.52802
H 14.4499 -7.45583 3.13703
H 14.8868 -7.66341 1.57734
O -2.73767 11.7388 -11.1407
H -2.79271 11.367 -12.0674
H -1.9904 11.294 -10.647
O 3.51177 -7.78401 -14.5781
H 3.22667 -8.66666 -14.9518
H 4.16784 -7.93161 -13.838
O 10.2724 13.2907 -13.0462
H 10.2555 12.7246 -12.2221
H 10.6883 12.7758 -13.7958
O -4.83167 -9.4567 3.71024
H -4.89327 -10.287 3.15632
H -4.17763 -8.82558 3.29323
O -6.45578 -6.02012 -8.09396
H -7.0073 -5.3994 -7.53674
H -6.16968 -6.80116 -7.5389
O 5.84662 5.94096 0.604417
H 6.20833 5.66973 1.49636
H 5.67873 6.92673 0.598581
O 11.8137 11.2702 -14.6863
H 12.2652 10.68 14.7712
H 10.9533 10.8499 -14.3979
O 5.18952 3.99907 -0.961946
H 4.87235 4.31791 -1.85509
H 5.55004 4.77255 -0.440674
O -6.84891 9.60291 9.09276
H -6.09419 9.71292 8.44602
H -7.5949 9.1032 8.65258
O -13.1561 -10.3123 1.72759
H -13.9144 -9.67503 1.8647
H -12.344 -9.97072 2.20065
O 3.72135 3.18464 -12.3969
H 4.55855 2.93114 -11.9123
H 3.5428 2.52109 -13.1234
O 0.388034 -8.24304 -7.47989
H 0.553501 -9.2064 -7.69091
H 1.19472 -7.85641 -7.03296
O 1.52165 -8.26932 9.68119
H 0.632652 -7.87308 9.45175
H 1.78731 -7.98165 10.6013
O 3.67368 -14.4293 2.84058
H 2.82522 -14.6758 3.30887
H 3.60117 -13.4961 2.48871
O -4.40971 -10.908 9.15607
H -4.57254 -11.219 10.0924
H -3.6996 -11.473 8.73593
O -5.60194 5.45033 -6.47101
H -4.91022 4.76242 -6.6907
H -6.24288 5.53403 -7.234
O -10.7939 2.79648 6.51796
H -11.5788 2.42604 7.01471
H -10.5995 3.72163 6.84398
O -11.9492 8.52848 -12.4336
H -11.9058 7.53054 -12.4806
H -11.4981 8.84269 -11.5983
O 12.6826 8.64211 -6.67774
H 13.4874 9.07642 -6.27316
H 12.1062 9.3395 -7.10356
O 13.4443 -9.86646 -7.4267
H 12.8171 -9.61621 -6.68915
H 13.4976 -9.11765 -8.0873
O 13.1911 9.68033 13.7609
H 13.2127 9.57963 12.7662
H 14.1213 9.81384 14.1027
O -5.32268 -11.2443 12.1322
H -5.61512 -11.3796 13.0789
H -6.10261 -11.3759 11.5204
O -9.05214 7.37233 4.86721
H -8.74178 6.4468 5.0841
H -9.02321 7.93565 5.69292
O 14.0649 -6.41684 14.9049
H 13.573 -6.57971 -14.3664
H 14.422 -5.4828 14.8985
O -11.2818 -7.91427 -4.83318
H -10.7075 -7.20476 -5.24158
H -10.8758 -8.81176 -5.00539
O 7.99987 14.777 2.10417
H 7.2779 14.3141 2.61846
H 7.94921 -14.3649 2.27112
O 12.3435 -0.43731 6.13824
H 12.1129 -1.07959 5.40734
H 12.8552 -0.914881 6.85242
O -2.43687 -7.63953 -10.5166
H -3.04569 -8.23766 -9.99554
H -1.72828 -8.18909 -10.9592
O 8.05798 14.8736 6.41264
H 7.49615 -14.9353 7.17647
H 7.51536 14.8842 5.57275
O -5.93788 -5.15184 -12.9998
H -5.99619 -4.87794 -12.0399
H -5.75542 -6.13343 -13.0559
O -10.2927 0.706985 12.2148
H -10.1791 0.108256 13.0077
H -9.44381 0.725237 11.6866
O -7.08327 12.9801 -9.27772
H -6.89657 12.2325 -8.64034
H -6.68097 13.8256 -8.92677
O 9.01063 12.2862 5.91703
H 8.96629 13.246 6.19424
H 8.65349 11.7101 6.65222
O 9.85441 -7.60583 -2.02274
H 10.701 -8.12272 -1.89579
H 10.0711 -6.68711 -2.35283
O 2.70461 3.35557 -4.31736
H 1.84814 3.63371 -4.75218
H 3.42347 3.28912 -5.00931
O -9.2882 -0.376454 8.09749
H -9.19301 -0.667718 7.14561
H -9.6647 0.549484 8.12667
O -4.43665 -2.66888 -13.3126
H -5.08291 -1.92293 -13.4735
H -4.93642 -3.53125 -13.2319
O -10.6753 -14.2997 6.57085
H -9.80227 -14.7214 6.81574
H -11.2949 -14.3368 7.35486
O 2.34037 -5.07061 11.0227
H 3.10998 -4.74484 11.5719
H 2.18098 -6.03915 11.2137
O 5.88829 2.45867 -10.3681
H 6.43702 2.36051 -9.5379
H 6.48872 2.44808 -11.1677
O -11.3197 0.0505517 -4.17924
H -12.3128 0.165877 -4.20128
H -11.0923 -0.910668 -4.33507
O 11.8567 -9.43331 9.31764
H 11.6877 -10.388 9.07257
H 12.7848 -9.34106 9.67829
O -14.3311 8.90037 8.42436
H -13.8874 8.11125 7.99963
H 14.9517 8.60658 8.87358
O -5.9464 -0.808046 2.14801
H -6.0531 -1.04538 3.11354
H -5.86752 -1.64462 1.60589
O 0.145794 5.38453 2.51017
H -0.0693671 5.04416 3.42549
H 1.06534 5.77747 2.5083
O -9.8148 14.7167 -13.1625
H -10.7241 14.5964 -12.7642
H -9.19563 -15.0351 -12.4724
O -8.53291 -12.4337 8.31945
H -9.48764 -12.2029 8.50711
H -8.31285 -12.1979 7.37292
O 11.8523 -14.513 -12.3743
H 11.4888 14.6866 -12.4668
H 11.7335 -14.0208 -13.2367
O 2.94656 2.90155 -8.26099
H 2.02998 2.56334 -8.47423
H 3.58165 2.1311 -8.20581
O 4.7621 -9.86936 11.7443
H 5.29295 -10.5368 12.2665
H 5.19858 -8.97201 11.8092
O -0.644441 -0.546677 -5.90116
H -0.870922 -1.20902 -5.18703
H 0.312313 -0.65959 -6.16918
O 12.5903 1.21325 -2.35291
H 12.5479 1.23121 -1.35399
H 12.9198 2.09573 -2.68846
O 4.04056 14.2458 6.27905
H 4.35573 13.9976 7.19501
H 3.82829 13.4159 5.76323
O 9.98959 4.29733 0.0227692
H 10.236 4.42991 -0.937267
H 9.77913 5.18228 0.438139
O 12.8636 3.63527 -3.51988
H 13.4295 3.81066 -4.32549
H 12.2037 4.37821 -3.40793
O 12.1352 0.619433 -5.01916
H 12.2092 0.455545 -4.03548
H 12.6323 1.45401 -5.25636
O 0.0634815 -12.6748 -1.1888
H -0.867928 -13.0314 -1.26154
H 0.323922 -12.617 -0.22506
O 11.6274 2.39991 10.7869
H 10.629 2.34638 10.799
H 11.9887 1.73909 10.129
O 0.328979 -1.68189 -14.2663
H -0.609595 -1.63529 -13.9244
H 0.959654 -1.38169 -13.5507
O 9.10508 -11.3552 5.18478
H 9.72065 -10.6113 5.4448
H 8.17572 -11.1388 5.48374
O 9.81235 -4.43652 -2.18405
H 10.2623 -3.90428 -2.90118
H 10.1676 -4.15998 -1.29114
O -4.61156 -7.67427 -12.1016
H -3.66528 -7.62668 -11.7818
H -4.93572 -8.6185 -12.0441
O -14.67 6.29153 -8.32649
H -13.9641 5.59349 -8.44663
H 14.872 6.31751 -9.13745
O -9.43885 -14.8835 12.4003
H -10.3692 14.8796 12.3512
H -9.4729 -13.885 12.4432
O -10.8602 10.7153 12.9812
H -9.90063 10.541 12.7603
H -10.952 10.8772 13.9637
O 4.69925 3.53569 13.5977
H 4.06627 4.30979 13.589
H 5.63017 3.86805 13.749
O 6.92836 -4.43768 -6.46787
H 6.925 -3.50737 -6.83461
H 6.19461 -4.53345 -5.79527
O -4.88057 1.84546 14.5759
H -3.98927 2.0887 14.1932
H -5.17648 0.967528 14.1995
O 7.47092 -2.02254 -7.61253
H 7.69369 -2.00756 -8.58727
H 8.30812 -1.90932 -7.07752
O 8.56394 2.18579 10.0131
H 7.88261 1.79259 9.39574
H 8.7385 3.13603 9.75516
O 4.38766 9.13325 -8.5438
H 3.46288 9.05528 -8.91618
H 4.5864 10.0925 -8.34317
O -14.0983 6.29204 1.35097
H -14.7879 6.96262 1.6245
H -14.2483 6.02968 0.397729
O 11.7621 -12.9775 -14.6093
H 12.1364 -12.6622 14.6452
H 11.1074 -12.3047 -14.2648
O -0.775127 -6.87995 9.04539
H -0.590157 -6.14076 8.39782
H -0.815912 -6.50818 9.9728
O -5.9445 -6.38264 14.0262
H -6.52579 -5.69987 14.4688
H -5.2872 -5.92372 13.4285
O 9.314 2.94416 14.4304
H 8.68581 2.38975 13.8845
H 9.45021 2.51289 -14.8042
O 2.27198 8.17841 11.7504
H 1.72367 8.72344 11.1162
H 2.3981 8.68574 12.6029
O -7.15321 1.47874 -3.57326
H -6.80154 1.95306 -2.76622
H -7.844 2.04759 -4.01957
O -3.87087 12.9889 -1.61978
H -4.27341 13.1549 -2.51999
H -3.99877 13.796 -1.04351
O 4.8741 8.83204 0.681829
H 4.99697 8.89595 -0.308516
H 3.97218 9.18597 0.929317
O 0.103566 13.6805 -13.6979
H 0.463533 14.6092 -13.6085
H 0.68687 13.0466 -13.19
O 8.5036 -10.9789 13.8494
H 8.23393 -11.6123 13.1241
H 8.56705 -11.4727 14.7166
O -11.4482 9.61835 8.19706
H -10.8483 8.88186 7.88458
H -12.4022 9.33322 8.10423
O -0.680916 8.67918 0.140847
H -0.451697 8.47369 -0.810574
H -0.976788 7.84195 0.600707
O -4.41183 -12.163 -9.22862
H -4.13988 -11.2007 -9.22592
H -5.03479 -12.3355 -8.46564
O -1.25382 -11.1967 9.65161
H -0.867824 -12.1191 9.66577
H -1.13254 -10.7985 8.74235
O -11.1566 5.02098 -5.55574
H -12.1477 4.9913 -5.42646
H -10.7157 4.41656 -4.89224
O 3.71291 -9.5439 7.53764
H 3.96718 -8.60236 7.75858
H 4.07455 -10.1598 8.23753
O -4.57331 -3.9667 13.7871
H -5.17055 -3.30512 14.2405
H -3.63449 -3.62232 13.7862
O -11.8069 -10.6193 12.0723
H -12.4689 -10.6285 11.3229
H -11.6533 -9.67708 12.3699
O 6.34734 7.14369 -8.56624
H 6.03402 6.72766 -9.41989
H 5.72301 7.88003 -8.3055
O -8.5373 -3.41707 14.0451
H -7.77549 -2.81842 14.2926
H -8.51644 -3.59359 13.061
O 10.9595 -2.70408 -3.98754
H 10.4933 -2.42189 -4.82599
H 11.8903 -2.33867 -3.98458
O -7.8377 2.5524 12.877
H -8.50634 2.61887 13.6176
H -7.08439 1.95893 13.1603
O -2.10857 5.91851 -1.72017
H -2.89018 5.66273 -2.28904
H -2.38099 5.91417 -0.758016
O -3.8155 9.27544 -9.22038
H -3.36345 10.0635 -9.63811
H -4.8036 9.34728 -9.35624
O 0.231837 11.3096 12.7755
H 0.100884 10.8091 11.9198
H -0.347817 12.1244 12.7772
O 13.3072 -14.0303 -3.3696
H 13.2182 -13.633 -4.28291
H 13.3365 -13.2982 -2.68902
O 10.4383 11.9186 -10.7584
H 9.75052 11.6405 -10.0878
H 11.292 12.141 -10.2876
O 4.03126 0.593342 -9.20706
H 4.38043 -0.0270108 -8.50477
H 4.7619 0.808237 -9.8551
O 3.65732 9.14431 3.77504
H 4.26447 9.49876 3.06391
H 2.74787 8.98848 3.3896
O 3.51757 1.62529 -14.6935
H 3.71674 2.3582 14.7825
H 2.667 1.16928 -14.9554
O -7.833 -11.2685 -10.6659
H -7.93477 -12.2172 -10.9651
H -8.28328 -10.6621 -11.3213
O -7.43109 12.3459 9.24373
H -6.79252 12.6651 9.94391
H -7.3693 11.3509 9.16505
O 3.92455 11.8957 -7.83442
H 2.93264 11.9553 -7.72241
H 4.30467 12.8154 -7.93304
O 12.838 13.0036 -6.79576
H 12.6114 13.4174 -5.91409
H 13.7594 12.617 -6.75554
O -7.8279 6.61111 -13.845
H -7.09181 6.68864 -14.5174
H -8.5215 7.30774 -14.0282
O -13.4492 5.78956 4.2869
H -13.5925 5.67122 3.30435
H -12.7168 6.45316 4.43934
O -5.84338 2.06164 -9.07514
H -5.19829 2.73427 -8.71266
H -6.1443 1.45722 -8.33752
O -9.40998 4.69802 -3.0891
H -9.78287 4.51947 -2.17859
H -8.97101 5.59645 -3.0992
O -12.5567 9.67212 11.1323
H -12.1293 9.29752 10.3095
H -11.8478 10.0052 11.754
O -3.12147 13.9019 10.0613
H -3.73292 14.6762 10.2242
H -2.1968 14.1389 10.3593
O -7.80907 -12.1386 5.66244
H -7.67698 -11.1668 5.85784
H -8.56863 -12.2495 5.02155
O 2.72693 7.11247 -5.12296
H 3.57093 6.80378 -5.56153
H 2.84286 8.05219 -4.80132
O -5.38211 3.79862 3.33262
H -5.35035 3.74164 4.33047
H -5.60742 2.90071 2.95451
O -0.85003 10.4526 -5.65679
H -0.694555 11.0598 -6.43602
H -1.26487 9.6005 -5.97575
O -10.8355 -5.10065 8.27336
H -10.3339 -5.76097 8.83225
H -10.336 -4.23462 8.25192
O 13.4278 10.1335 0.218366
H 13.9163 9.28119 0.031292
H 12.5976 10.1708 -0.337723
O -2.89467 -8.46662 8.01046
H -3.18458 -9.19933 8.62614
H -2.13268 -7.96703 8.42246
O -0.75466 9.67896 -9.99272
H 0.0444578 9.26264 -10.4264
H -1.02886 9.13045 -9.20284
O 10.0862 -11.1579 -4.04197
H 9.32301 -10.8728 -3.46211
H 10.8556 -11.4363 -3.46716
O -10.1331 10.633 1.22942
H -9.32529 11.221 1.27007
H -10.6684 10.7436 2.06683
O -12.6391 -14.3847 8.56377
H -12.4105 -15.0182 9.30303
H -13.5556 -14.0141 8.7139
O -5.93508 2.82213 -1.48458
H -6.4833 3.6078 -1.19798
H -5.27774 2.59452 -0.766209
O -8.54824 14.7329 7.8014
H -8.03613 13.9608 8.17755
H -8.14731 -14.5374 8.12711
O 12.6169 11.1485 -3.00295
H 13.1292 11.591 -2.26694
H 12.187 11.8462 -3.57598
O 0.82998 7.51076 14.3472
H 0.93369 6.96928 13.513
H 1.35097 8.35988 14.2604
O 1.44305 -3.1157 9.18668
H 1.77703 -3.93906 9.64547
H 0.832705 -3.37544 8.43836
O 8.70198 -9.49997 9.36345
H 8.39853 -8.54891 9.30533
H 9.43748 -9.5746 10.0368
O 14.269 -9.99667 10.7222
H 15.0588 -9.84949 10.1268
H 14.5818 -10.3022 11.6215
O -9.57673 -1.24805 5.43057
H -10.5686 -1.18823 5.54244
H -9.36344 -1.86219 4.67076
O 14.8272 -4.7686 -11.7882
H -14.5205 -4.99202 -12.3743
H 14.837 -3.79074 -11.5793
O 3.93548 14.8011 -7.4544
H 4.45156 14.7318 -6.60069
H 4.44877 -14.7718 -8.11016
O -0.123922 -12.0027 -9.22287
H -1.0339 -12.2431 -9.56066
H 0.43371 -11.6629 -9.98022
O -12.0677 1.66084 3.8618
H -11.2677 2.06515 4.30512
H -12.2093 0.734395 4.21051
O -4.30427 4.92406 1.11086
H -5.0189 5.0291 0.419312
H -4.68144 4.45944 1.91201
O 4.68391 10.2467 14.0956
H 5.17968 9.6459 13.4685
H 5.11468 10.2155 14.9975
O -12.9164 0.0250461 11.3206
H -11.9636 0.11751 11.6096
H -13.3225 0.932828 11.2157
O -12.1678 -14.516 -6.07848
H -12.1368 -14.18 -7.01983
H -12.5819 14.7005 -6.06282
O 2.95885 1.43657 7.3059
H 2.37423 0.639894 7.1526
H 3.31487 1.76222 6.43002
O -5.71189 4.2344 -14.5195
H -5.54122 3.37398 -14.9996
H -6.46932 4.11351 -13.8779
O -3.67073 11.9085 4.36479
H -3.04686 12.6326 4.65863
H -3.42246 11.608 3.4439
O -9.58438 12.9189 5.03706
H -10.2609 13.2061 5.71509
H -9.90347 12.0895 4.57852
O -13.1589 -7.30323 5.27799
H -13.4829 -7.56078 4.3677
H -13.7765 -7.67717 5.96982
O -7.22121 5.06906 -0.793554
H -7.48508 5.88449 -1.30873
H -7.57204 5.13686 0.140409
O 4.22847 2.27786 4.9771
H 3.92182 2.97895 4.33336
H 5.21347 2.36819 5.12404
O -7.29295 -0.367702 -7.62687
H -7.84799 0.442402 -7.81564
H -6.78443 -0.232572 -6.77651
O -2.2713 -8.49951 -6.21399
H -2.25979 -8.42253 -5.21704
H -1.33304 -8.56071 -6.55441
O 4.84984 -3.03587 -14.6445
H 4.22869 -3.81376 -14.5495
H 4.85087 -2.50471 -13.7973
O 13.7501 -7.90972 -9.44491
H 14.2051 -7.95438 -10.3343
H 13.5713 -6.95441 -9.20961
O -8.51779 -5.00184 -13.8024
H -7.58385 -5.07133 -13.4519
H -8.52646 -4.41819 -14.6144
O 9.6856 -14.245 -10.3098
H 10.4548 -14.2961 -10.9468
H 9.83054 -14.8904 -9.55982
O -14.996 -4.98613 5.82498
H -14.5036 -5.74644 5.40128
H 14.3822 -5.34367 6.38364
O -15.0561 14.439 10.2827
H 15.0316 14.775 9.34163
H 14.9655 13.4445 10.2861
O -8.13834 14.2186 14.5995
H -8.49287 14.5463 -14.6513
H -8.67902 14.6084 13.8541
O -6.59035 -1.91887 14.9748
H -6.89968 -1.35464 -14.3862
H -6.25643 -1.32906 14.2396
O -12.6243 -0.406742 0.950948
H -13.1995 -1.1482 0.605566
H -13.0125 -0.0522509 1.80158
O 11.9017 -5.29935 -6.13851
H 10.9545 -5.60207 -6.24369
H 12.1559 -4.72372 -6.91568
O 12.013 -4.06026 -14.3913
H 12.8148 -4.35374 -14.9118
H 12.2932 -3.79534 -13.4687
O 11.9677 -1.72698 12.2567
H 12.9034 -1.4268 12.0716
H 11.9883 -2.57214 12.7908
O -13.9536 10.7358 4.93169
H -14.4751 9.8826 4.92743
H -14.5842 11.5119 4.93947
O -12.5916 -8.42038 -9.39602
H -11.6919 -8.84551 -9.29715
H -12.489 -7.42609 -9.42502
O -11.7887 7.75079 4.14365
H -10.8302 7.78626 4.42633
H -11.8655 8.03803 3.1889
O 9.9019 4.95388 12.7146
H 9.84626 4.26833 13.4405
H 9.95489 4.49609 11.8271
O -10.9287 12.0652 -6.81283
H -11.897 12.3075 -6.8726
H -10.3773 12.7925 -7.22156
O -10.4877 -9.32576 2.03557
H -9.9618 -8.66435 2.57029
H -9.9196 -10.1259 1.84323
O 2.23999 6.51928 -8.69929
H 3.08893 6.41535 -9.21742
H 2.43318 6.97648 -7.83118
O 3.11439 -5.13544 -13.7384
H 2.16025 -5.27489 -13.4736
H 3.4409 -5.93545 -14.2418
O 9.67067 14.1827 14.4323
H 10.5958 14.2865 14.0672
H 9.68462 14.3273 -14.7049
O 4.49973 12.5004 11.045
H 5.42513 12.495 11.4239
H 3.83574 12.5829 11.7882
O 9.58568 -9.40103 -8.54873
H 10.334 -9.00784 -9.0829
H 8.89899 -9.78245 -9.16756
O 7.56152 -3.41742 -14.4593
H 6.58639 -3.20157 -14.5094
H 7.95931 -3.37692 14.7506
O -6.81213 -12.8015 3.30912
H -7.39329 -13.6153 3.31061
H -6.63282 -12.5183 4.25124
O -8.70952 -1.27789 -10.8676
H -8.30393 -1.65299 -10.0341
H -9.38287 -0.579365 -10.6255
O -0.82927 -14.9787 -10.8385
H -1.01959 -14.0086 -10.9897
H -1.07075 14.6291 -11.6586
O -0.0426408 5.1555 12.3441
H -0.861634 4.75731 12.7572
H -0.290685 5.62175 11.495
O 12.926 11.8471 -9.68737
H 13.8436 12.0367 -9.33802
H 12.6354 10.9393 -9.38517
O -10.6322 -6.49884 5.77496
H -11.565 -6.76807 5.53559
H -10.6299 -6.07318 6.67981
O -8.31189 -3.77696 11.4146
H -8.91705 -3.58614 10.6417
H -7.5425 -4.33589 11.1054
O 14.6026 3.35248 -11.0326
H 14.1985 4.259 -10.9104
H 13.9936 2.78855 -11.5903
O -6.09585 1.1125 8.83667
H -5.71615 0.669804 9.64896
H -6.13681 2.10071 8.98407
O -14.9318 -8.28697 7.11882
H -15.0026 -9.18995 7.54261
H -14.6217 -7.62288 7.79913
O 10.3362 -6.3174 15.0227
H 10.8599 -5.75543 -14.4635
H 10.9228 -7.03979 14.6565
O 13.2924 12.3904 -12.5858
H 12.8714 11.8154 -13.2872
H 12.9521 12.1205 -11.6851
O 7.08241 13.1983 12.3245
H 6.91534 13.4646 13.2737
H 7.53782 12.3083 12.3032
O -13.5258 -1.10378 -10.8318
H -13.8265 -0.513784 -10.0825
H -14.3195 -1.55461 -11.2402
O 9.50398 4.51644 8.83629
H 10.4662 4.24475 8.81753
H 9.20819 4.7595 7.91249
O -6.08601 -0.264623 12.9392
H -6.92293 -0.11912 12.4116
H -5.32566 -0.444647 12.3152
O -5.66581 -1.91492 5.15861
H -5.15949 -2.59081 4.62309
H -6.13652 -2.37221 5.91311
O 7.04094 -7.12717 -10.0483
H 7.51226 -6.68997 -10.8143
H 6.53907 -6.43646 -9.52777
O 13.5463 -13.2989 0.155739
H 13.1928 -13.0395 1.05446
H 14.458 -12.9075 0.0305289
O 7.77142 9.59841 0.673473
H 6.78453 9.45374 0.744749
H 8.0947 9.26136 -0.210752
O 8.05399 1.16934 12.5309
H 8.3575 1.56022 11.662
H 7.07229 0.983864 12.4882
O 3.59796 5.97845 -12.6314
H 2.84652 6.10515 -13.2789
H 3.69444 5.00608 -12.4189
O 1.52777 -3.61238 -8.98035
H 1.35204 -3.21068 -9.87909
H 0.894934 -4.37084 -8.82476
O -11.0911 -11.1142 8.04548
H -11.6215 -10.9305 8.87301
H -11.6707 -11.5751 7.3735
O -13.7183 2.79691 10.2532
H -12.8432 2.91076 10.7236
H -14.3475 3.51917 10.5403
O -7.24814 -12.757 10.8191
H -7.87841 -12.7675 11.5953
H -7.76722 -12.6633 9.9695
O -6.26413 5.77992 13.5491
H -6.08255 5.12091 14.2789
H -7.05308 5.47654 13.0148
O -14.0552 0.223372 -8.30084
H -14.1717 1.1759 -8.58205
H -13.3184 0.16234 -7.62753
O 11.0788 -14.117 -0.995746
H 11.984 -13.8456 -0.668788
H 11.0639 15.0223 -1.15428
O -14.6026 -5.44083 -6.81778
H 15.0373 -5.40818 -7.6908
H -14.3501 -6.38629 -6.6121
O 12.1945 -0.559744 -10.4128
H 12.4236 -0.319213 -9.46962
H 11.4192 -1.19135 -10.4168
O 9.71022 -14.3517 -7.14765
H 8.99737 -14.412 -6.44895
H 10.0823 -13.4237 -7.16501
O 6.90487 12.8883 -2.00301
H 6.01638 12.7655 -2.44515
H 7.0038 13.8399 -1.71222
O 11.6331 -6.07327 2.04494
H 12.1144 -6.04385 1.16889
H 11.538 -7.0236 2.34119
O 13.2793 -6.09079 -0.300507
H 13.4424 -5.27496 -0.855294
H 13.1115 -6.8734 -0.89993
O 6.47805 -9.84765 1.21267
H 6.51191 -10.7458 1.65104
H 6.19863 -9.16001 1.88277
O 8.85545 8.00239 -8.95079
H 7.85887 8.0691 -8.99927
H 9.25153 8.92058 -8.95404
O -4.664 10.0429 7.52238
H -3.88814 10.6554 7.6735
H -4.94805 10.0948 6.56499
O 2.70651 -9.36277 -0.409119
H 2.68918 -9.75942 0.508672
H 3.28774 -8.54905 -0.409628
O 9.31958 -0.901971 13.7218
H 10.2238 -0.953927 13.298
H 8.87461 -0.0473742 13.4542
O 14.3389 0.942184 2.5815
H 14.4264 1.71791 3.20645
H 14.9233 0.193851 2.89524
O -10.4662 -10.8277 -6.00004
H -11.0029 -11.3217 -5.31602
H -10.99 -10.7595 -6.84909
O -2.09762 -1.24638 -13.0138
H -2.20952 -0.262975 -12.8712
H -2.99709 -1.67644 -13.0911
O -1.2575 14.4064 -5.1205
H -1.13554 14.0657 -4.18828
H -0.378469 14.3953 -5.59709
O -12.5978 4.02622 -12.0509
H -11.9951 3.61047 -11.3699
H -13.5462 3.96206 -11.7402
O 13.8047 5.43284 -5.91618
H 13.4764 6.17502 -5.33191
H 14.2836 5.81699 -6.70554
O -13.0256 -14.4435 11.7845
H -13.9215 -14.6056 11.3709
H -12.5964 14.8069 12.004
O -6.88729 -9.07938 5.46899
H -6.58063 -9.03759 6.41988
H -6.09544 -9.18682 4.86783
O -1.25282 0.0762569 -8.6968
H -1.08873 -0.302166 -7.78584
H -0.392531 0.104828 -9.20577
O -9.7758 -8.65348 -9.48965
H -9.63849 -9.60617 -9.76076
H -9.08018 -8.08018 -9.92255
O 10.6848 1.3905 -13.7925
H 11.3415 1.63811 -14.5048
H 11.0646 1.61745 -12.8957
O 4.3541 -11.5076 5.32236
H 3.86323 -11.1683 6.12479
H 4.18663 -12.4881 5.21911
O -6.55526 -8.03725 1.96287
H -7.47154 -7.79442 2.28137
H -5.96492 -8.21494 2.7502
O 8.17515 2.61347 -3.70404
H 7.56778 2.29206 -4.43051
H 7.91233 2.18887 -2.83766
O 8.58831 -13.7005 -4.35531
H 8.60904 -14.5909 -3.90059
H 9.10685 -13.038 -3.81475
O 9.54208 7.74797 12.6177
H 9.79628 6.7914 12.7603
H 9.40542 7.91453 11.6412
O 0.47781 -12.6443 1.47663
H -0.498396 -12.617 1.69168
H 0.951231 -13.2144 2.14807
O -6.46101 -4.31139 -10.5503
H -6.83266 -4.84183 -9.78842
H -6.22009 -3.39456 -10.232
O 0.517535 8.25189 7.75894
H 1.05728 9.09028 7.83475
H -0.191518 8.37362 7.06439
O -4.1942 -0.409296 10.6938
H -3.40467 -0.025294 10.2151
H -4.58144 -1.15571 10.1527
O 6.60986 9.12391 7.08778
H 5.9497 9.42334 7.77661
H 7.50715 9.51405 7.29426
O 13.9853 -5.13524 -9.07058
H 14.2426 -4.91389 -10.0112
H 13.0765 -4.76531 -8.87782
O 4.25055 -10.5615 15.0449
H 4.90771 -9.98766 14.5562
H 4.74147 -11.1977 -14.4865
O -2.89155 -11.4368 -6.14215
H -3.87019 -11.4864 -6.34158
H -2.51368 -10.5979 -6.53389
O 1.10115 2.86639 -11.033
H 1.79934 3.23279 -11.648
H 0.198043 3.17291 -11.3337
O 9.35148 -9.60075 0.779084
H 8.42864 -9.8163 1.09826
H 9.37362 -9.62901 -0.220255
O 9.00745 10.1701 8.05455
H 9.87132 9.74757 7.78041
H 9.16123 10.7581 8.84861
O -12.563 12.7672 -9.27054
H -12.8846 12.3508 -10.121
H -11.924 13.5066 -9.4823
O -9.67573 2.3375 -4.74206
H -10.4729 1.74244 -4.64022
H -9.5085 2.82065 -3.88266
O -5.44202 14.4837 4.17743
H -5.40128 13.6096 4.6615
H -4.79447 14.4732 3.4155
O -6.12191 -5.27182 10.4931
H -5.90183 -5.50276 9.54533
H -5.70635 -5.94457 11.1052
O -10.3184 -12.7104 4.445
H -10.4489 -13.1791 5.31864
H -10.5793 -13.3207 3.69708
O 6.51701 8.80775 12.5457
H 7.26206 9.47447 12.5647
H 6.86 7.93438 12.2
O 2.42706 -7.66921 12.1456
H 3.40794 -7.57537 12.316
H 1.94074 -7.72138 13.0178
O -5.682 14.8465 -14.6811
H -6.04476 -14.5852 -14.0601
H -6.4394 14.3446 15.0279
O -4.01414 3.49092 -7.30422
H -4.38196 3.05405 -6.48335
H -3.08311 3.16428 -7.4669
O 5.61736 -13.7233 -5.39203
H 6.54335 -13.7025 -5.01509
H 5.56805 -13.1206 -6.18845
O 6.63975 1.1117 8.41882
H 5.86934 1.21305 9.04824
H 6.33928 0.622014 7.60035
O -4.61019 -13.3438 -11.6813
H -4.49594 -12.9855 -10.7547
H -4.42311 -14.3262 -11.6842
O 7.01376 -7.61806 8.07548
H 7.07885 -7.3837 7.10553
H 6.16034 -7.25512 8.44953
O -2.1249 1.9381 13.2822
H -1.49168 1.18186 13.1176
H -2.00275 2.63495 12.5755
O 3.94871 8.79621 -12.619
H 3.98682 7.79788 -12.662
H 4.8738 9.16858 -12.6933
O -7.11228 4.46991 -12.1916
H -6.42644 4.65443 -11.4876
H -7.41896 5.33313 -12.5925
O 13.5879 -1.46119 -4.11612
H 13.966 -2.13115 -4.75501
H 13.1408 -0.727745 -4.62811
O -3.14603 0.5166 -5.47037
H -2.24742 0.0903684 -5.57424
H -3.03193 1.48228 -5.23711
O -9.48798 -2.47005 3.02984
H -9.00941 -1.64432 2.73132
H -10.4165 -2.46969 2.65871
O -11.595 -6.82171 14.874
H -11.5218 -5.82441 14.8776
H -11.0339 -7.19972 -14.5161
O -14.0483 0.11883 -3.93218
H -13.979 0.7115 -3.12974
H -14.9903 -0.202473 -4.02891
O 6.05425 7.95529 4.69814
H 6.3532 8.26224 5.60168
H 5.08856 8.18205 4.57173
O -8.03803 -11.0298 -7.64298
H -8.68553 -10.3895 -7.22974
H -8.27302 -11.1669 -8.60524
O -2.80956 -13.057 -2.01681
H -2.47986 -13.646 -2.75459
H -2.90875 -12.1216 -2.35617
O -11.0084 6.1216 8.79625
H -11.7497 6.5571 8.28551
H -11.2463 6.08994 9.76702
O -11.9164 -5.73728 -9.50617
H -11.1098 -5.50273 -8.96359
H -12.6668 -5.11911 -9.27217
O 8.83191 -12.9737 0.0121755
H 8.94877 -12.9744 1.00531
H 9.59472 -13.4604 -0.413519
O -11.7575 9.58093 -6.15666
H -12.5106 9.45115 -6.80168
H -11.3085 10.4554 -6.34013
O -6.77642 -9.11926 14.0851
H -6.25184 -8.28023 14.2293
H -7.20759 -9.09191 13.1833
O -2.8458 -8.29417 -0.925833
H -2.72604 -9.0028 -1.62115
H -3.79539 -8.29184 -0.612417
O -14.9991 -3.93734 10.2835
H -14.7505 -4.46698 9.47258
H 14.1331 -3.93741 10.3898
O 11.6389 9.24782 7.49946
H 12.4275 9.86162 7.46276
H 11.8999 8.39666 7.95481
O -6.68559 9.3815 5.4944
H -6.84336 9.61675 4.53537
H -7.04835 10.1068 6.07953
O 5.71275 -8.09797 -3.82368