2611
Atoms. Timestep: 8000000
O -8.65677 7.57006 9.42916
H -8.65283 6.83568 10.1078
H -7.77708 7.58962 8.95412
O 8.9979 5.64301 3.03093
H 9.70314 5.08344 3.46617
H 8.10356 5.40696 3.41084
O -13.6674 11.0191 3.02204
H -13.948 10.0951 3.28142
H -12.6692 11.0789 3.03023
O 1.79004 0.877662 -7.7168
H 0.983149 1.44102 -7.89415
H 2.54372 1.46089 -7.41395
O 6.73568 4.67278 3.93166
H 6.17255 5.48736 3.79288
H 6.27558 4.05404 4.56836
O 2.8488 -7.73272 12.1383
H 2.00393 -7.20628 12.0437
H 3.24033 -7.90015 11.2336
O -5.33023 -3.67935 14.3332
H -6.23793 -4.02305 14.5737
H -5.33358 -2.67985 14.3632
O -13.7926 -5.70148 -3.04585
H -14.344 -5.64562 -3.87822
H -12.95 -6.20474 -3.23733
O 5.0746 -13.0388 9.09605
H 5.68763 -12.2678 8.92379
H 4.25213 -12.9423 8.53556
O 0.334703 -7.80931 6.0628
H -0.366664 -8.52002 6.00912
H 0.678474 -7.7504 6.99995
O -8.72835 -5.51326 -9.23596
H -8.0969 -4.77866 -9.48404
H -8.25955 -6.17074 -8.64616
O -2.79771 -11.5693 6.23811
H -3.0647 -11.8025 5.30311
H -2.92784 -10.5891 6.38724
O 4.03552 13.3134 -5.26127
H 4.91852 13.0566 -4.86849
H 4.17728 13.9812 -5.99191
O 10.086 -2.73115 1.88212
H 9.22238 -2.41599 1.48871
H 10.3724 -2.10193 2.60458
O -1.42425 14.974 -9.74283
H -1.34364 14.1961 -10.3659
H -1.99407 -14.5199 -10.1632
O -10.2419 -12.9784 9.50879
H -9.25657 -12.8316 9.42267
H -10.5449 -13.6256 8.80934
O -11.5181 13.1634 -9.08865
H -12.4848 13.1348 -8.83476
H -11.0664 13.9083 -8.59761
O -6.09918 -2.60278 9.25905
H -5.18085 -2.24596 9.43007
H -6.77743 -1.91448 9.51619
O 11.4213 12.037 -7.03408
H 11.8672 12.863 -6.68932
H 11.3575 12.084 -8.03089
O 10.936 15.0562 -11.9272
H 10.4186 -14.6858 -12.65
H 11.5125 -14.4765 -11.4559
O -7.17995 -8.38486 -10.2879
H -6.43742 -7.84713 -10.6871
H -7.12398 -9.32707 -10.618
O -14.0397 9.11837 14.1939
H -13.5311 9.60628 14.9033
H -13.4039 8.58801 13.6331
O 2.56629 -2.26196 10.0995
H 3.27986 -1.58733 10.2882
H 2.98067 -3.08669 9.71478
O -7.26002 -12.8925 2.05056
H -8.22014 -13.0697 1.83452
H -6.82074 -13.7433 2.33881
O -6.09554 -9.57304 9.23386
H -5.49456 -9.94576 9.94083
H -6.77469 -10.2607 8.97725
O -5.36983 -9.82039 13.3646
H -4.93513 -9.43533 12.5505
H -4.85507 -9.54834 14.1776
O -8.30342 9.23806 -11.5114
H -9.00147 8.75237 -10.9854
H -7.48923 8.66358 -11.595
O -15.0411 -12.6578 -8.33149
H 14.6923 -12.5483 -7.45385
H 14.4988 -12.5531 -9.07524
O -13.8002 -5.69393 -0.166943
H -14.682 -5.73296 0.302979
H -13.9509 -5.60607 -1.15157
O 11.4121 2.955 0.589853
H 12.0178 3.35939 1.275
H 10.799 2.30025 1.03188
O 14.4737 7.0493 -9.89155
H 14.9789 6.83092 -9.05667
H 14.8671 7.86504 -10.3154
O -9.51814 13.6817 12.757
H -9.22322 13.7982 13.7053
H -10.4053 14.1243 12.627
O 12.4436 -2.59805 -0.185957
H 11.8326 -3.01316 -0.859957
H 12.0598 -2.71688 0.729702
O 0.941928 -4.72548 -12.153
H 1.2296 -5.1633 -13.0048
H 1.24168 -3.77151 -12.1509
O -8.56739 13.2555 1.77138
H -9.54384 13.3902 1.60314
H -8.07245 13.2845 0.902986
O 13.8738 -13.2036 2.41092
H 12.9497 -12.8242 2.45543
H 13.9486 -13.8066 1.61678
O 7.55309 -3.68679 -9.77053
H 6.64006 -3.38758 -9.49346
H 7.48729 -4.22121 -10.6131
O -12.9194 -1.71228 8.0517
H -13.6662 -1.04796 8.08133
H -13.2316 -2.582 8.43381
O -0.795839 -11.5213 7.96981
H -1.5946 -11.7465 7.41196
H 0.0308652 -11.5908 7.41156
O -3.68565 -9.26884 -14.7605
H -3.62099 -9.36016 -13.7669
H -2.7869 -9.42786 15.031
O -13.8673 -10.9399 -6.33219
H -14.3629 -10.645 -7.14908
H -13.0365 -11.4257 -6.60364
O 6.25002 -14.3701 5.47138
H 6.06114 15.0675 4.85256
H 6.7931 -13.6797 4.99356
O 9.2802 9.40317 -14.125
H 8.76864 10.2441 -13.9487
H 8.64994 8.62704 -14.1423
O 8.87911 -4.61098 10.6321
H 8.64404 -5.4834 10.2037
H 8.30671 -3.88634 10.2485
O -13.2842 -10.3496 8.08724
H -12.8786 -10.1998 8.9889
H -13.1591 -11.305 7.82
O -6.97182 -2.18851 -7.80903
H -6.3504 -1.57022 -7.32792
H -6.47714 -3.01444 -8.07929
O -0.880681 -4.72994 -5.63699
H -1.74847 -4.40554 -6.01332
H -0.245851 -3.96191 -5.55318
O -2.06873 -2.31035 3.93189
H -2.40887 -2.91051 3.208
H -2.51404 -1.4178 3.86154
O -14.9475 8.12853 0.37681
H 14.5526 8.36799 -0.295988
H -14.0949 8.60083 0.153299
O -3.36719 -7.03716 -4.48492
H -2.56765 -6.61139 -4.90843
H -3.36653 -8.01745 -4.68224
O -3.82425 -13.9684 11.432
H -4.26341 -14.8667 11.4196
H -3.34131 -13.8455 12.2989
O 12.5378 -1.102 7.29639
H 12.4783 -0.222976 6.82343
H 11.6749 -1.28642 7.76685
O 1.72815 4.63093 -10.3528
H 1.29783 4.90419 -9.49249
H 1.16043 4.93071 -11.1194
O 13.3082 14.9889 -3.7914
H 13.0586 14.7912 -4.73929
H 13.1207 14.1876 -3.22329
O -6.17783 -14.6617 -3.18874
H -5.25444 -14.4809 -3.52724
H -6.40558 -14.0016 -2.47299
O 3.93393 6.91245 -6.45288
H 4.54931 7.66512 -6.21899
H 4.13731 6.12331 -5.8734
O 11.142 11.2135 9.42994
H 10.6869 12.0508 9.73293
H 10.474 10.4713 9.37792
O -1.62169 -8.51229 11.624
H -1.297 -8.8218 10.7303
H -2.52909 -8.10377 11.5258
O 3.21955 13.701 8.53419
H 4.17848 13.4331 8.62695
H 2.70361 12.9535 8.11595
O -14.8053 0.193978 -13.4191
H -14.6743 -0.797324 -13.4102
H 14.5568 0.415016 -13.9179
O 3.64313 -7.85263 -11.4514
H 4.06678 -7.12894 -11.9961
H 3.23712 -8.5339 -12.0605
O 10.0244 10.0614 -11.0648
H 9.71957 9.86356 -11.9964
H 9.84894 11.023 -10.8539
O 7.15762 0.798465 11.7999
H 6.73857 1.3177 12.5447
H 8.03981 0.43659 12.1011
O 0.561552 12.8572 -14.1697
H 0.433152 12.7066 -13.1896
H -0.320178 13.0644 -14.5934
O -5.45782 11.1526 -8.53033
H -6.14238 11.563 -9.13276
H -5.83159 10.3217 -8.11838
O -1.88538 10.2601 -7.30468
H -2.70011 10.8181 -7.14742
H -1.98819 9.38139 -6.83865
O -0.186508 9.73845 9.08032
H -0.851548 10.0691 8.41075
H -0.56657 9.82986 10.0007
O -14.8308 -5.30015 -5.76926
H -14.7565 -4.38181 -6.15792
H -14.0842 -5.86921 -6.1138
O 1.14322 7.23734 -6.26914
H 0.732878 8.02622 -5.81176
H 2.13217 7.36872 -6.33716
O 14.9535 -10.1545 -0.1308
H -14.7117 -9.85155 -0.919511
H -14.7175 -10.011 0.705578
O 5.23668 -5.20856 3.21664
H 5.64227 -6.09248 2.98409
H 4.43324 -5.04926 2.64304
O 10.372 -9.15087 -2.80427
H 10.5309 -9.8293 -2.08706
H 9.38827 -9.03436 -2.94082
O -6.1394 -11.533 -10.5242
H -6.1157 -11.5432 -9.52462
H -6.88165 -12.1208 -10.846
O -9.80402 12.0935 -0.820616
H -10.4769 12.7642 -0.508777
H -10.1811 11.575 -1.58798
O 14.6333 9.1437 -3.60981
H 14.3446 9.31426 -2.66775
H 13.9321 9.47871 -4.2391
O 0.483659 7.09368 12.0469
H 0.170633 7.52164 12.8948
H 1.2759 7.59195 11.6948
O -12.1614 4.36826 -6.00909
H -12.0602 5.3452 -5.8213
H -12.0446 4.20327 -6.98841
O -7.15662 4.17398 -3.28834
H -6.41111 4.22033 -3.95315
H -6.94749 4.76738 -2.51113
O 0.704003 1.98809 -13.1707
H 0.532478 2.8582 -13.6327
H 1.68967 1.82948 -13.114
O 6.11971 -12.4061 14.5098
H 5.71265 -11.6799 13.9558
H 7.0514 -12.148 14.7652
O -7.05098 8.52361 0.760476
H -7.20954 7.60888 1.132
H -6.06762 8.69947 0.716067
O -7.72894 -0.985259 4.63267
H -8.54886 -0.555408 5.01067
H -6.9171 -0.589385 5.06175
O -0.0314985 11.6667 -8.56649
H -0.628072 10.9717 -8.16515
H 0.199112 12.3489 -7.87277
O -13.6513 4.4972 -3.60675
H -13.4552 5.44315 -3.34863
H -13.2847 4.31795 -4.51962
O 10.2452 5.19439 -12.8697
H 10.5855 5.97219 -13.3981
H 10.2359 5.43005 -11.898
O -11.355 1.73633 0.612116
H -11.1452 2.12281 -0.285963
H -12.1156 1.09266 0.528566
O 3.84471 -8.37241 9.59936
H 4.39019 -7.91839 8.89492
H 4.16747 -9.31148 9.71717
O -12.4571 -8.82619 5.97338
H -13.1104 -8.15601 5.62131
H -12.8563 -9.30061 6.75786
O -2.36138 6.34365 14.9245
H -1.95623 6.04023 14.0622
H -2.87878 5.5915 -14.8675
O 10.0766 3.0632 -1.91648
H 10.3186 3.03971 -0.946547
H 10.5696 3.80861 -2.36507
O 12.9709 1.12036 5.9036
H 13.8658 1.46725 6.18409
H 12.978 0.93567 4.92087
O -12 -2.62672 5.49468
H -11.8853 -3.61422 5.6024
H -12.2253 -2.21888 6.37945
O -6.05894 -3.89527 6.16941
H -5.23881 -3.33596 6.28963
H -6.29604 -4.3302 7.03805
O 6.49394 -14.3887 1.34977
H 7.41114 -14.1009 1.07443
H 6.5626 -15.0563 2.09108
O -3.9271 8.09498 -9.70588
H -4.44284 8.06485 -10.562
H -4.06657 7.24224 -9.20259
O -13.5544 -2.77862 -6.41629
H -12.7859 -2.94852 -7.03307
H -13.26 -2.91748 -5.47081
O -11.6079 7.16005 -5.98337
H -12.1504 7.98827 -5.84327
H -10.9863 7.29532 -6.7549
O -10.2852 13.8555 -5.21635
H -10.1427 12.866 -5.23943
H -9.54205 14.3108 -5.70655
O 9.62766 8.92576 8.75883
H 9.46295 8.86356 7.7745
H 10.2674 8.20879 9.03568
O -12.8997 -11.6593 13.594
H -12.2734 -12.2289 13.0619
H -13.5578 -11.2239 12.9797
O 12.2836 -0.680444 -13.4295
H 12.808 -1.36298 -12.9205
H 12.0948 0.103632 -12.8383
O 11.1638 -4.95854 2.6304
H 11.7576 -5.1092 1.84013
H 10.726 -4.06286 2.55246
O 3.09014 1.26424 11.854
H 2.19047 0.854225 11.7043
H 3.47563 1.55127 10.9771
O -9.59686 -9.61545 11.5339
H -9.37469 -9.19987 10.652
H -9.61058 -8.90884 12.2413
O 14.0921 0.299842 -9.80261
H 14.1332 -0.573081 -10.2886
H 14.0446 0.131258 -8.81811
O 5.85714 5.60625 0.662035
H 6.66299 5.03399 0.813841
H 5.04804 5.14629 1.0277
O -3.14934 -15.0192 8.45621
H -3.42499 -14.3441 7.77193
H -3.25226 -14.628 9.37068
O -3.07949 1.55774 13.9522
H -2.08019 1.52308 13.9629
H -3.43033 1.33781 14.8624
O 13.2075 12.3529 -2.88972
H 13.0401 11.6363 -3.56681
H 12.5571 12.2578 -2.13613
O 4.76302 0.0515938 5.5048
H 5.54785 -0.210094 6.06646
H 3.941 -0.402303 5.84856
O -4.03842 -10.2256 -11.96
H -4.66987 -10.7832 -11.4213
H -3.12326 -10.6266 -11.9211
O -4.18615 2.51287 6.35206
H -5.06808 2.27646 5.94438
H -4.08493 2.03777 7.2261
O -9.59312 10.0076 10.3653
H -9.52145 10.5675 9.53993
H -9.3367 9.06492 10.152
O -0.393804 2.33972 -8.77744
H -0.09448 2.6276 -9.68708
H -1.08346 1.62102 -8.86545
O 14.175 8.9664 12.0052
H 13.4215 9.48912 12.4038
H 14.957 8.98094 12.6282
O 9.31977 14.4293 -1.21706
H 8.38004 14.2926 -1.53031
H 9.6708 -14.9087 -1.5825
O 5.17893 2.94881 6.00873
H 4.71689 2.16406 5.5957
H 4.50431 3.53386 6.45873
O 1.82632 -0.192124 -14.6057
H 2.29462 -0.486932 14.7615
H 2.46799 0.302935 -14.0199
O 7.43647 -6.94001 -10.6653
H 7.77194 -7.85845 -10.8747
H 7.68004 -6.31845 -11.4098
O 13.9989 8.63408 -14.5036
H 14.7667 8.60269 15.0566
H 13.7551 9.58671 -14.3221
O 7.47536 -9.77783 -11.5116
H 7.03025 -9.5178 -12.3684
H 6.8255 -9.68602 -10.7571
O -12.8031 -13.1444 7.59113
H -12.762 -14.137 7.47698
H -11.9142 -12.7458 7.36549
O 14.7318 13.095 -11.3331
H 14.6859 12.3901 -10.6253
H -14.5199 13.2088 -11.6291
O 5.80391 9.35151 -6.1897
H 6.18387 9.19357 -7.10107
H 6.54041 9.59712 -5.55951
O -9.0074 1.892 -3.39702
H -8.30201 2.5406 -3.11127
H -8.57831 1.02924 -3.66431
O 14.4187 -1.05259 -7.12725
H 14.8467 -0.298735 -6.62882
H 14.9297 -1.8956 -6.95974
O 3.47159 -10.2815 2.93427
H 3.49996 -10.8426 3.7615
H 3.21708 -9.34498 3.1753
O 6.00582 -6.26643 -8.13101
H 5.00718 -6.21986 -8.15221
H 6.35161 -6.42876 -9.05512
O -8.44213 5.59576 11.1806
H -8.0123 5.93779 12.0161
H -9.04266 4.82829 11.4048
O 12.4512 -11.2025 -0.991237
H 12.884 -12.0957 -0.869209
H 13.1363 -10.4825 -0.881179
O 6.29236 -8.6238 -13.9597
H 6.80354 -8.05977 -14.6081
H 5.33054 -8.35038 -13.9661
O -2.32957 4.60395 6.4056
H -2.72998 5.50847 6.25925
H -3.02665 3.90274 6.25625
O 8.4698 -3.32293 -1.08484
H 8.89219 -2.79018 -1.8181
H 7.8328 -2.74362 -0.576369
O -6.65302 -13.6436 11.3048
H -7.29781 -13.1078 11.8498
H -5.82366 -13.81 11.838
O -11.0159 -5.0839 -7.05215
H -11.7803 -5.72836 -7.06691
H -10.4109 -5.26666 -7.82705
O 8.53772 -14.5736 -13.4402
H 8.74439 -13.7748 -14.005
H 8.04003 14.9521 -13.9857
O 4.52671 2.05849 14.68
H 4.40849 1.55741 13.8228
H 5.41786 2.51208 14.6808
O 13.0215 14.4987 -6.51835
H 12.0773 14.7874 -6.67641
H 13.5177 14.4917 -7.38651
O 6.30288 13.6608 3.45615
H 6.96119 13.1327 3.99253
H 5.41219 13.2069 3.48119
O -7.86431 -6.90656 15.0951
H -6.96399 -7.33541 -15.0314
H -7.7542 -5.92834 14.9194
O 11.3712 -5.88469 7.258
H 11.6 -5.60869 8.19148
H 10.6413 -6.56776 7.28185
O -5.23063 4.90126 -11.7453
H -4.88892 4.81531 -12.6811
H -4.48229 4.74253 -11.1013
O -12.7682 -4.88643 6.95036
H -13.3738 -4.72435 7.72938
H -13.0847 -5.68811 6.44333
O -5.362 11.3455 5.34299
H -5.81287 10.5165 5.67366
H -4.99538 11.8578 6.11952
O -5.55978 12.4715 -3.908
H -5.15025 12.7074 -4.78923
H -5.69849 13.3039 -3.3715
O 1.59523 -13.0682 11.4898
H 0.614637 -12.8898 11.4091
H 1.7436 -13.8423 12.1052
O -8.42491 1.35639 -11.2681
H -9.26674 1.815 -10.9837
H -8.26067 0.565541 -10.6786
O -11.6282 7.00624 3.36735
H -12.5478 6.6187 3.30438
H -11.228 6.77272 4.25351
O -0.812479 -12.3498 -0.757079
H -0.094219 -12.9138 -1.16439
H -0.433909 -11.4596 -0.503997
O -7.82421 12.4959 -9.57187
H -8.53118 11.9494 -9.12311
H -7.94107 12.4427 -10.5635
O 8.47514 13.3424 -8.53364
H 8.54983 12.4635 -8.06253
H 7.51556 13.5257 -8.74692
O 5.55409 13.5334 -12.812
H 5.41906 13.8722 -11.881
H 4.67073 13.4755 -13.277
O -9.00692 -8.17278 -3.90105
H -8.56542 -8.05961 -3.011
H -8.3318 -8.48101 -4.57121
O -13.8736 -12.7007 -1.26726
H -14.1399 -12.0655 -1.99217
H -13.0137 -13.1472 -1.51466
O 3.46885 11.7099 -11.7811
H 2.62541 11.24 -11.5208
H 4.1307 11.0423 -12.122
O 12.9209 -2.55863 10.2272
H 13.5558 -3.07977 9.65694
H 12.3923 -3.18724 10.7976
O 3.38168 1.41614 -13.1723
H 3.80487 1.75025 -12.3302
H 3.90399 1.74258 -13.9601
O 2.64799 -14.3947 -0.364953
H 3.52508 -14.0814 -0.728973
H 2.37192 -13.8043 0.393446
O 13.4232 10.1532 7.78139
H 13.6682 9.58166 8.56444
H 12.596 10.6732 7.99412
O -14.8267 -14.503 10.8289
H -14.7121 15.0078 11.5443
H 14.6442 -14.7869 10.2063
O 9.65061 14.2826 -4.47377
H 10.0595 14.5813 -5.33605
H 9.83931 14.9602 -3.76304
O 5.85235 10.1868 -11.9842
H 5.73465 9.45705 -12.6576
H 6.61034 10.7771 -12.2615
O -13.5199 5.61062 -8.63658
H -13.7767 5.99701 -7.75079
H -14.162 4.88453 -8.88233
O 9.77108 -12.4979 2.83867
H 10.395 -11.8896 3.3292
H 9.90113 -12.3849 1.85367
O -6.94776 12.2583 -14.9244
H -7.67868 12.9213 -15.086
H -6.7658 11.751 14.4334
O -12.8501 -0.301447 -3.50461
H -12.7654 -0.216027 -2.51192
H -13.1566 -1.22506 -3.73471
O -6.31435 12.231 2.57304
H -7.26697 12.4512 2.36343
H -6.24714 11.9061 3.51637
O 6.59817 -10.4505 5.70935
H 6.81891 -10.8925 4.83993
H 5.6224 -10.5581 5.89963
O 3.00222 -9.67238 14.2118
H 2.70074 -8.98482 13.5512
H 2.57308 -10.55 13.9986
O 8.95561 7.37352 0.853828
H 9.12684 6.59056 1.45179
H 7.97185 7.46754 0.701285
O 13.9406 -2.71372 -2.89471
H 13.2256 -2.33008 -3.47899
H 13.9028 -2.28113 -1.99397
O -8.13404 -14.8628 -6.01437
H -8.10665 -14.4386 -6.91945
H -7.21739 -14.8553 -5.61486
O -15.0049 -3.92114 -8.71618
H -14.4833 -3.78862 -7.8734
H -14.5573 -3.43294 -9.46537
O -9.38503 3.55345 -8.46094
H -8.73055 4.16686 -8.90286
H -10.1294 3.34686 -9.09591
O -10.191 -5.98311 4.30598
H -10.3652 -6.70198 4.97887
H -9.52171 -5.33754 4.67368
O 5.66887 -7.43415 7.63409
H 5.96859 -7.31835 6.68717
H 6.40764 -7.16663 8.2526
O 7.98115 -11.4535 -1.82106
H 7.98525 -10.462 -1.951
H 7.0965 -11.7375 -1.45142
O -8.41896 -7.82368 -1.0233
H -8.51498 -6.83566 -0.902816
H -7.95365 -8.21273 -0.228292
O -13.4157 -2.97978 -3.51944
H -13.0984 -3.8525 -3.14855
H -14.39 -2.86893 -3.32358
O 11.8257 -2.58861 -5.09131
H 12.0646 -1.95929 -5.83076
H 12.3019 -3.45748 -5.2262
O 2.04672 3.79489 4.90494
H 2.69881 4.07709 5.60854
H 1.85553 2.81803 5.00025
O 5.22617 2.02018 -10.929
H 4.80444 2.71586 -10.3476
H 6.10641 1.74923 -10.5396
O -6.7112 -11.5489 -7.40568
H -7.37352 -12.2515 -7.66568
H -6.76431 -11.3893 -6.41998
O 3.41374 4.61729 6.96737
H 2.99632 4.34166 7.83322
H 3.77445 5.54607 7.052
O -14.011 -6.63376 5.44739
H -14.9684 -6.91525 5.38286
H -13.7141 -6.25822 4.56948
O -10.2355 5.14232 -3.21674
H -10.405 5.53333 -4.12132
H -9.2742 4.87692 -3.14319
O -8.38016 0.933068 0.812172
H -9.35805 0.788573 0.963061
H -8.20939 1.06418 -0.16433
O -13.7941 -2.49818 -10.9723
H -13.2288 -1.72339 -10.6894
H -13.3901 -2.92832 -11.7796
O -3.50911 10.8414 -11.085
H -3.29172 9.89221 -11.3123
H -3.98277 10.8733 -10.2049
O 13.7857 -4.71628 -13.3409
H 12.9057 -5.09578 -13.6263
H 14.5253 -5.29647 -13.682
O -8.45406 -4.85965 -0.105995
H -9.11116 -4.10977 -0.0298708
H -7.57017 -4.49932 -0.404002
O -11.2816 0.239391 8.42688
H -11.4006 -0.741576 8.27369
H -11.7891 0.513079 9.24387
O 7.4645 12.2985 5.43496
H 7.33417 11.8403 6.31414
H 8.4383 12.4755 5.29247
O 8.5459 -0.920715 -13.3294
H 9.07451 -1.76904 -13.3581
H 9.03306 -0.242898 -12.7788
O 5.97125 14.8548 7.9189
H 5.9446 -15.055 6.96238
H 5.7012 -14.5825 8.50636
O -4.16151 -12.5867 -7.95768
H -5.10029 -12.2776 -7.80591
H -4.08837 -12.9963 -8.86695
O 9.71696 9.82067 2.99542
H 10.4783 10.2992 3.43284
H 9.07591 10.489 2.61812
O 7.37001 -14.3818 -6.27
H 7.75177 -13.7118 -5.63343
H 7.95079 15.0043 -6.2852
O 10.0691 -6.62546 -7.96434
H 10.3874 -7.15245 -7.1764
H 9.71307 -5.74406 -7.65398
O 11.3838 -14.9631 13.849
H 11.0017 -14.0789 14.1173
H 11.5588 14.6877 14.6661
O -8.24763 11.9414 -12.4638
H -8.14465 11.0002 -12.1421
H -7.53141 12.1458 -13.131
O 7.31196 8.62017 10.9914
H 7.03609 7.81976 10.4593
H 8.05717 9.09255 10.5208
O 4.9974 -0.608695 10.841
H 4.89685 0.0747874 10.118
H 5.38035 -0.176486 11.6573
O 13.846 -10.8544 5.5986
H 14.5764 -10.8249 4.91628
H 13.9731 -11.6517 6.18859
O -7.414 3.30856 -6.61835
H -8.29514 3.24392 -7.08667
H -7.21091 4.26761 -6.42117
O 11.1298 -10.6618 -13.6181
H 11.0516 -10.5117 -12.6326
H 12.08 -10.8706 -13.8491
O 2.31156 -1.62149 -12.4297
H 2.9856 -0.975972 -12.0707
H 1.84937 -1.21646 -13.2185
O -4.71984 0.154869 -9.99315
H -3.8481 -0.127267 -9.59268
H -5.20127 0.755097 -9.35451
O -14.1355 9.11146 -11.0532
H -13.6691 9.57455 -11.8069
H -13.5401 9.09965 -10.2499
O -12.0365 14.3773 10.9335
H -12.0023 14.6032 9.96005
H -12.0658 13.3839 11.0443
O 6.7186 -5.41307 -3.90731
H 7.1019 -4.72692 -4.52553
H 6.66924 -6.29445 -4.37705
O -13.7574 7.06003 -2.35376
H -14.2871 7.84104 -2.68446
H -12.812 7.14087 -2.66927
O -10.1614 3.81957 4.68328
H -11.1122 3.75676 4.37987
H -9.56085 3.44362 3.97767
O 0.400431 5.91895 -8.2956
H -0.0884179 6.62286 -8.81082
H 0.741289 6.30843 -7.44001
O 10.8296 -7.49302 3.97167
H 10.786 -6.51842 3.7522
H 11.6144 -7.90429 3.5082
O -6.63217 6.57455 -8.56792
H -5.78126 6.09578 -8.78385
H -7.30327 6.40323 -9.28915
O -3.10009 8.25743 -1.63688
H -3.01925 9.2541 -1.64231
H -3.58281 7.96669 -0.810836
O -6.20996 -14.7943 -12.205
H -7.09835 -15.0194 -11.805
H -5.54862 14.6933 -11.9704
O -10.9605 2.08954 -10.2747
H -11.211 1.46785 -11.0168
H -11.5983 1.97369 -9.51328
O 9.16095 2.2652 -7.92659
H 9.76695 1.48581 -7.76776
H 9.64576 3.11329 -7.71304
O 0.521063 4.28816 -14.5447
H 1.24136 4.96373 -14.3876
H 0.298318 4.25894 14.6809
O 12.5661 11.2313 14.0317
H 11.6803 11.0087 14.4386
H 13.2441 11.3551 14.7563
O 14.2391 -0.620245 0.572906
H 13.9597 0.185424 0.0506672
H 13.6101 -1.37434 0.384283
O 7.70593 -1.91351 10.3215
H 6.90191 -1.46851 10.7157
H 7.45142 -2.36438 9.46598
O -0.096115 12.6073 5.50869
H 0.357405 13.4969 5.56137
H -0.61962 12.5499 4.65865
O -5.7796 -4.02596 -0.946539
H -5.36657 -3.11659 -0.995127
H -5.69121 -4.47998 -1.83308
O 9.2622 -4.51341 13.9904
H 8.52397 -5.18676 14.0295
H 8.8779 -3.60743 13.8131
O -2.8436 3.42767 -7.05031
H -3.57805 2.76933 -7.21485
H -1.97416 3.04067 -7.35725
O -3.44521 7.06586 5.99271
H -2.47449 7.28213 5.88861
H -3.91381 7.20849 5.12095
O -11.4843 -13.4255 12.0561
H -10.8263 -13.1186 11.3685
H -11.8836 -14.2965 11.77
O -2.56912 -9.8534 -0.867358
H -2.79348 -10.0279 0.0913504
H -2.17112 -10.6768 -1.27172
O -2.76468 14.9364 -7.27905
H -2.50923 14.8058 -8.23695
H -3.08759 -14.3267 -7.14502
O 10.4015 14.8598 -6.94894
H 10.6234 -14.4316 -7.3027
H 9.74069 14.4182 -7.55575
O -4.60002 1.23081 8.83929
H -4.60666 1.88205 9.59808
H -4.1253 0.39672 9.12008
O 6.55141 -7.32526 2.20432
H 6.39819 -8.30352 2.06486
H 7.23951 -6.9999 1.5558
O 1.28112 14.9846 6.20672
H 1.39156 -14.9971 7.17627
H 1.96944 -14.7234 5.67376
O -3.03012 8.08329 -5.82389
H -2.42796 7.31263 -6.03223
H -3.41526 7.96732 -4.9084
O -12.281 14.4284 8.02702
H -11.3741 14.0172 8.11771
H -12.9795 13.7189 8.11985
O 11.8881 13.5265 -14.0024
H 11.3458 13.7043 -13.1813
H 12.537 12.788 -13.8198
O 2.13777 13.7602 11.3948
H 2.19971 13.466 10.4411
H 1.35802 14.3767 11.5034
O -2.73671 9.54844 4.02491
H -1.87912 9.0353 4.05865
H -2.54087 10.5281 4.06811
O -2.9557 -8.85299 6.9041
H -2.2509 -8.77457 7.60909
H -3.76044 -8.32602 7.17724
O 13.7013 11.6456 1.70302
H 13.133 12.0012 0.96106
H 14.0793 12.4081 2.22806
O -9.98865 4.99306 -12.0709
H -10.5366 5.81789 -12.2098
H -10.4772 4.20233 -12.4396
O -9.92465 6.29757 5.47008
H -8.94271 6.48424 5.49944
H -10.0745 5.33813 5.23153
O 9.66812 -12.4426 12.4865
H 8.83766 -12.7517 12.0232
H 9.78829 -11.4614 12.3359
O -4.179 11.3918 0.888261
H -4.93481 11.7369 1.44462
H -3.44098 12.0663 0.873337
O -3.03969 -4.51407 -14.7343
H -3.94787 -4.52612 15.0474
H -3.05691 -3.93857 -13.9167
O 0.899829 -14.0192 -8.87957
H 0.182915 -14.5975 -9.26879
H 1.73202 -14.5591 -8.75383
O 10.6461 -12.4883 -10.5401
H 10.5357 -11.4981 -10.455
H 9.7476 -12.9169 -10.6344
O 0.344496 -4.90423 9.48394
H 1.27908 -4.63108 9.25624
H -0.151483 -4.11882 9.85412
O -7.17184 1.30892 -13.8554
H -7.4631 1.20684 -12.9043
H -7.76144 1.97297 -14.3151
O -8.63813 -1.95756 -13.9477
H -9.20919 -1.19929 -14.2621
H -8.4527 -1.8524 -12.9708
O -9.85107 -11.4224 -13.2691
H -10.1594 -11.9548 -14.0574
H -9.20435 -10.7224 -13.572
O -11.2795 2.67949 10.9974
H -11.1002 2.78157 10.0189
H -11.8961 1.90608 11.1443
O -6.37776 4.80661 6.6954
H -6.15883 4.41023 7.58695
H -6.35357 4.09094 5.99745
O 9.54207 1.22337 -12.1057
H 9.07253 0.914032 -11.2789
H 10.4346 1.60169 -11.8605
O -2.73841 8.96461 14.808
H -1.91214 9.25651 14.3264
H -2.65856 7.99796 15.0511
O 4.48976 14.7662 -7.50692
H 5.0924 -14.6679 -7.28301
H 4.22382 14.8216 -8.46926
O -11.894 -7.57263 0.451186
H -11.0163 -7.28228 0.832289
H -12.4691 -6.77061 0.290044
O -10.4308 -9.9278 4.24078
H -10.6502 -10.1539 3.29176
H -11.229 -9.51308 4.67767
O -12.3236 14.0454 5.1096
H -13.1664 13.8206 4.62065
H -12.5424 14.2985 6.05191
O -5.11302 -10.3464 -1.37792
H -4.13692 -10.1332 -1.33668
H -5.64209 -9.50077 -1.30786
O 2.58185 -10.8698 -3.01346
H 2.36365 -11.7411 -2.57385
H 1.79078 -10.2608 -2.95723
O -12.1391 6.92202 -11.3619
H -12.9715 6.81141 -11.9049
H -12.3023 6.59469 -10.4312
O 0.30941 4.47777 12.7794
H 0.513831 5.42368 12.5277
H 1.1451 3.93108 12.7278
O -12.4121 -7.47595 -13.1931
H -12.285 -8.04341 -14.0066
H -11.6044 -7.54671 -12.6079
O -1.25998 -8.60172 -12.1123
H -1.72509 -8.17138 -12.8859
H -0.993505 -7.9002 -11.4515
O 14.5905 4.74548 -5.71269
H 15.0969 4.46286 -4.89807
H 14.9999 5.57715 -6.08775
O -13.977 -10.1275 -13.5819
H -14.8422 -10.6143 -13.4621
H -13.4195 -10.2308 -12.7583
O -12.085 -4.13913 11.9103
H -12.03 -3.38929 11.2511
H -11.9165 -5.00691 11.4429
O 14.629 13.5921 3.27954
H 14.3503 14.3473 3.87282
H -15.0684 12.9145 3.81632
O -5.34461 -4.55733 -8.30276
H -5.37263 -4.318 -9.27324
H -4.39375 -4.67039 -8.01467
O -12.8756 -4.07869 -12.9372
H -13.3483 -4.8533 -12.5172
H -11.9354 -4.34035 -13.1551
O 10.8308 -1.43953 4.02061
H 10.8981 -0.474839 4.27507
H 10.1082 -1.87597 4.55652
O 13.297 1.58317 -0.570166
H 14.1054 2.16733 -0.498651
H 12.4838 2.10693 -0.316454
O 12.5232 -12.626 -3.80478
H 12.7431 -12.2613 -2.90005
H 12.8837 -13.5551 -3.88629
O -5.0922 -13.7386 0.806619
H -5.37531 -14.4831 1.41113
H -5.9019 -13.2931 0.424698
O -14.8161 0.90996 -5.58927
H -13.9978 0.68786 -5.05929
H -14.6194 1.67639 -6.20067
O -5.91124 -0.816782 14.8283
H -6.75476 -0.500175 -14.938
H -5.34955 -0.0286011 14.5769
O 14.4842 11.4973 -9.22782
H -14.9253 10.9157 -9.03614
H 14.1142 11.8506 -8.36864
O -13.3557 4.42565 6.80884
H -12.433 4.19041 7.11407
H -13.4313 5.41783 6.70991
O 6.13414 12.489 9.31281
H 6.18461 13.3784 8.85841
H 6.58955 12.5425 10.2014
O 1.56508 7.82459 8.22578
H 1.18738 7.67614 7.31188
H 1.02804 8.52285 8.69899
O 6.67351 -0.933841 7.25823
H 6.57213 -0.401095 8.09836
H 6.70324 -1.90781 7.48273
O -5.86722 -10.5023 -4.19721
H -5.91935 -10.9211 -3.29071
H -4.97639 -10.7012 -4.60557
O -14.3455 -3.93072 8.87432
H -15.0961 -3.53344 8.34645
H -14.6875 -4.70128 9.41208
O 9.31517 13.0634 -11.086
H 8.73674 13.3745 -10.332
H 9.83936 13.8358 -11.4445
O 0.780251 -9.07529 -9.33823
H 1.20463 -9.82141 -9.85118
H 0.676 -8.27864 -9.93354
O -11.4671 -9.6301 -4.81302
H -10.6686 -9.23219 -4.36135
H -11.8392 -10.3647 -4.2458
O -10.8806 -9.37397 -1.49655
H -10.0427 -8.84997 -1.3441
H -11.547 -9.1514 -0.785021
O -0.791682 2.3538 7.59448
H -1.17778 3.06989 7.01306
H -0.685031 2.70203 8.52576
O -10.9289 -4.13152 -2.62411
H -10.5695 -3.62068 -3.40499
H -10.8587 -5.11218 -2.80656
O -11.9968 13.3596 -11.8746
H -12.4259 12.5323 -12.2371
H -11.7128 13.2008 -10.9291
O 8.93611 -12.4567 -14.9457
H 9.61831 -11.9141 -14.4556
H 9.23474 -12.5933 14.3098
O 3.21192 -13.6512 5.02081
H 3.6726 -13.7209 4.13604
H 3.84565 -13.2774 5.69801
O 9.45118 -2.03392 -3.50849
H 9.38939 -1.05408 -3.31874
H 10.2185 -2.20605 -4.12619
O 2.48649 -8.11559 4.2032
H 1.55058 -8.07779 4.55326
H 2.8801 -7.19637 4.2042
O 3.33521 -5.81874 -9.29807
H 2.87277 -6.47209 -9.89739
H 2.65345 -5.27915 -8.80415
O -1.77127 11.9085 -4.62045
H -0.930295 11.9824 -5.15637
H -2.52728 12.3218 -5.12795
O -7.20725 -0.962516 -1.72015
H -7.79868 -1.27397 -0.976437
H -6.25013 -1.0938 -1.46212
O 14.047 -3.38693 13.8008
H 14.0799 -2.50702 13.3269
H 13.135 -3.52319 14.1877
O 11.1167 -3.85708 11.9658
H 10.9012 -3.44537 12.8513
H 10.2679 -4.08787 11.4902
O 4.49216 4.8016 -4.69367
H 5.35011 5.02827 -4.23275
H 3.72211 5.10617 -4.13317
O -12.5676 -7.20589 -6.58662
H -12.3019 -7.57779 -7.47599
H -12.2924 -7.84029 -5.86435
O 8.11476 -8.65006 -8.05906
H 8.87021 -8.01085 -8.20262
H 7.2461 -8.15847 -8.11981
O -5.69228 -3.31521 3.38172
H -5.7883 -3.41751 4.37178
H -6.27449 -2.56603 3.06603
O 7.7232 11.8898 -12.8636
H 8.42761 12.2465 -12.25
H 6.92984 12.4983 -12.8497
O 7.23781 5.77263 -3.47943
H 6.71137 6.24064 -2.76969
H 8.06638 6.29555 -3.67925
O 9.99482 2.06166 -15.0892
H 9.74142 1.49171 -14.3077
H 10.8447 2.5476 -14.8857
O -10.1825 -14.6567 5.13507
H -11.0331 15.0258 5.04239
H -9.40341 14.9244 5.03613
O 0.225653 -2.58401 11.5623
H 1.21633 -2.51216 11.447
H -0.00103403 -2.53559 12.535
O 10.6554 9.47648 0.164638
H 10.6416 9.36834 1.15863
H 10.0604 8.79019 -0.253548
O -3.49892 2.09281 -11.6898
H -2.65504 1.58573 -11.8649
H -4.09404 1.55391 -11.0937
O 2.3305 8.80601 -1.22967
H 1.37407 8.51423 -1.22638
H 2.40892 9.68591 -1.69822
O -13.5417 9.16609 -5.34368
H -13.3969 10.1366 -5.15141
H -14.2956 8.82405 -4.78281
O -13.304 -14.1416 -5.67268
H -13.7995 -14.175 -4.80477
H -13.8144 -13.5833 -6.32664
O -1.8974 13.2553 11.5379
H -1.21673 13.8688 11.1376
H -2.8087 13.5145 11.2181
O -3.91554 -12.1761 14.4387
H -4.27477 -11.3049 14.1043
H -4.40716 -12.4432 -14.9325
O 11.9092 -11.7336 9.57178
H 11.8041 -12.6728 9.89849
H 11.4984 -11.6485 8.66412
O 12.8669 9.57647 3.47269
H 13.1699 10.3441 2.90808
H 13.6515 9.18762 3.95541
O -4.36673 4.61055 10.5176
H -3.68314 4.5233 11.2422
H -4.25098 5.48907 10.0542
O 6.09379 -7.38853 -5.52871
H 6.25233 -7.12408 -6.47994
H 5.18854 -7.80499 -5.445
O -11.1059 2.94433 -1.76277
H -11.6668 3.46137 -2.40932
H -10.2258 2.72676 -2.18472
O 7.27818 -3.42493 2.86297
H 7.89574 -3.26212 3.6324
H 6.55994 -4.0626 3.14122
O 8.7864 11.2163 -6.84487
H 9.64736 11.7132 -6.95322
H 8.88794 10.2904 -7.20853
O 10.226 -13.6223 -2.76212
H 11.0901 -13.177 -2.99671
H 9.47719 -13.1756 -3.25161
O 3.6655 7.03122 -11.8826
H 4.44043 6.40171 -11.9383
H 3.59464 7.3912 -10.9524
O -13.4333 -13.5256 -14.6158
H -14.2193 -14.0783 -14.8924
H -13.3285 -12.7563 14.9541
O -3.30289 -1.45756 9.70664
H -2.58861 -1.07001 9.12396
H -3.31733 -0.974634 10.5821
O -0.147095 8.07279 -1.16206
H -0.406131 7.26031 -1.68426
H -0.971209 8.54019 -0.842246
O 3.85979 -3.27224 -6.26956
H 4.68881 -3.77906 -6.03337
H 4.10869 -2.4318 -6.75082
O -12.3851 -0.305206 -9.10498
H -12.0787 0.00328274 -10.0055
H -11.8468 -1.09973 -8.82397
O -14.6691 -6.98425 -14.6779
H -14.5756 -6.26252 14.8363
H -13.7923 -7.12222 -14.2175
O 4.18071 -3.32623 -13.4507
H 3.54536 -2.8507 -12.8423
H 4.9074 -2.69872 -13.7301
O 9.98394 0.338977 12.9357
H 10.7242 0.509425 12.2854
H 10.1864 0.800001 13.7996
O -7.07385 8.34562 -2.6563
H -7.4033 8.90081 -3.41993
H -7.132 8.87496 -1.80993
O -6.27797 7.18272 7.95618
H -6.4175 6.40282 7.34611
H -5.3475 7.15777 8.32157
O -14.5459 -11.0372 -3.60627
H -14.3074 -11.0353 -4.57738
H -14.816 -10.1157 -3.32757
O 3.81786 -5.04166 6.75557
H 3.20874 -5.0521 5.96262
H 4.3339 -5.89744 6.79074
O 7.46996 4.84948 -6.40576
H 8.36949 4.41328 -6.38412
H 7.35633 5.41958 -5.59213
O 14.1916 14.5942 -8.95256
H 14.2443 13.8064 -9.56621
H 13.9161 -14.7968 -9.47168
O 10.0555 0.988375 7.31032
H 10.0416 0.0972063 7.76368
H 9.25332 1.51651 7.58867
O 15.0009 -8.39784 -2.75845
H -14.5415 -7.64491 -2.78201
H 14.0716 -8.02964 -2.78476
O -6.97598 -1.53668 1.28154
H -7.83864 -2.0393 1.33725
H -7.16128 -0.554129 1.2943
O -6.23349 14.88 -8.80849
H -6.91783 -14.6034 -8.67414
H -6.69114 13.9965 -8.90771
O -4.43761 1.17398 -13.8749
H -3.99863 1.62587 -13.0984
H -5.41238 1.39687 -13.8828
O -4.56223 4.41038 -14.5677
H -4.41565 3.42226 -14.6128
H -4.99137 4.72272 14.7849
O -10.2094 -4.3339 -13.1781
H -9.95838 -5.27625 -13.3992
H -9.65583 -3.70477 -13.7237
O 13.5392 -3.71799 7.4519
H 13.191 -2.78498 7.36186
H 12.8818 -4.35884 7.05567
O 10.3741 -9.72875 -11.127
H 10.6953 -8.7861 -11.2173
H 9.3925 -9.76578 -11.3141
O 7.25577 8.19483 6.72617
H 6.99318 8.25523 5.7632
H 7.24715 9.10872 7.13194
O -8.67098 9.93834 4.48008
H -9.57751 9.93243 4.05808
H -8.02552 9.45338 3.89008
O 9.81915 13.1482 13.4179
H 10.2121 12.253 13.2078
H 10.5342 13.8455 13.3701
O 13.1063 -8.36756 2.46362
H 13.1021 -7.36765 2.4549
H 13.8318 -8.70305 1.86279
O 9.70647 5.78596 -10.2568
H 8.81481 5.63055 -9.83167
H 10.3049 6.26104 -9.61176
O 8.00237 9.26215 -4.07336
H 8.69913 9.96323 -3.92196
H 8.42944 8.35819 -4.05415
O 4.77578 -3.48198 -9.48798
H 4.44201 -3.21396 -8.58428
H 4.35785 -4.35075 -9.75348
O 0.752637 -10.8722 -12.2848
H 0.176395 -10.0779 -12.4768
H 1.67292 -10.7102 -12.6408
O -11.1427 -6.88113 -2.96391
H -10.4649 -7.41209 -3.47243
H -11.2275 -7.24862 -2.0378
O 6.26279 13.5272 -1.4422
H 5.40783 13.4648 -0.927378
H 6.47434 12.6374 -1.84625
O -4.66279 -13.2911 7.09484
H -5.42757 -13.1038 7.71123
H -4.12974 -12.4556 6.96166
O 5.18952 -6.04799 13.0104
H 4.71354 -5.30146 13.4752
H 4.532 -6.75956 12.763
O -13.1678 9.81879 -1.18699
H -12.5636 10.088 -1.93695
H -13.1141 10.4984 -0.455424
O -9.65646 -2.13671 0.922649
H -10.3465 -2.44597 0.268338