LAMMPS data file via write_data, version 15 May 2015, timestep = 23005000

2611 atoms
6 atom types
1749 bonds
4 bond types
894 angles
3 angle types
44 dihedrals
3 dihedral types
10 impropers
1 improper types

-1.5069271556535361e+01 1.5069271556535361e+01 xlo xhi
-1.5069271556535361e+01 1.5069271556535361e+01 ylo yhi
-1.5069271556535361e+01 1.5069271556535361e+01 zlo zhi

Masses

1 15.9994
2 1.00794
3 12.0107
4 1.00794
5 12.0107
6 12.0107

Bond Coeffs # harmonic

1 1000 1
2 469 1.4
3 367 1.08
4 469 0.7

Angle Coeffs # harmonic

1 100 109.47
2 35 120
3 63 120

Dihedral Coeffs # opls

1 0 7.25 0 0
2 0 7.25 0 0
3 0 7.25 0 0

Improper Coeffs # cvff

1 2.5 -1 2

Atoms # full

2247 749 2 4.0999999999999998e-01 -9.3006348616648715e+00 -6.7870578901753031e+00 -1.3836686710366596e+01 4 2 1
701 234 2 4.0999999999999998e-01 -1.1580244320062022e+01 -1.0271035753806666e+01 -1.4935762935626272e+01 7 2 1
155 52 2 4.0999999999999998e-01 -1.2186901746210092e+01 -1.3563488598639381e+01 -1.3897782223262002e+01 3 1 0
376 126 1 -8.1999999999999995e-01 -1.4008448018665495e+01 -1.1421934127771353e+01 -1.2391439377791826e+01 7 1 4
2245 749 1 -8.1999999999999995e-01 -1.0288908262567610e+01 -6.6693711830469891e+00 -1.3934043662632163e+01 4 2 1
702 234 2 4.0999999999999998e-01 -1.2223380447829502e+01 -8.9411008040712598e+00 -1.4239839285809063e+01 7 2 1
1974 658 2 4.0999999999999998e-01 -1.4166587350648706e+01 -9.2279202683397283e+00 -8.8227727892489192e+00 5 -1 -4
1675 559 1 -8.1999999999999995e-01 -7.5395873913256235e+00 -7.7326875391161778e+00 -1.4030462371494465e+01 1 10 -4
1193 398 2 4.0999999999999998e-01 -1.0513694986741797e+01 -8.2094512860999380e+00 -1.2779346521410059e+01 6 2 -1
2583 861 2 4.0999999999999998e-01 -1.3805960611846238e+01 -6.1254951816083381e+00 -1.0638751970117212e+01 9 3 4
1194 398 2 4.0999999999999998e-01 -1.1932658452141494e+01 -7.9116259252349330e+00 -1.2028012037774761e+01 6 2 -1
2065 689 1 -8.1999999999999995e-01 -9.0681470119918863e+00 -5.5008426602143903e+00 -1.0148937694682964e+01 2 7 0
1188 396 2 4.0999999999999998e-01 -9.6641964283166271e+00 -1.4301078741652329e+01 -1.2186128155349122e+01 1 -4 -1
478 160 1 -8.1999999999999995e-01 -9.4150481462840077e+00 -8.3540606138590263e+00 -8.2808409917190424e+00 3 -3 1
479 160 2 4.0999999999999998e-01 -9.8940657156285194e+00 -8.9231451276419023e+00 -8.9491955450983944e+00 3 -3 1
1192 398 1 -8.1999999999999995e-01 -1.1310152454248817e+01 -8.6280749792832019e+00 -1.2342972187740688e+01 6 2 -1
1487 496 2 4.0999999999999998e-01 -1.1862392131715779e+01 -1.0495975353675957e+01 -1.0022237889241936e+01 1 -2 2
1246 416 1 -8.1999999999999995e-01 -9.4332765723492127e+00 -1.3470427539111052e+01 -8.3983186789873372e+00 -3 -1 -5
1488 496 2 4.0999999999999998e-01 -1.1374460605943685e+01 -1.0331131289776035e+01 -1.1571886240465412e+01 1 -2 2
1486 496 1 -8.1999999999999995e-01 -1.1914044848527439e+01 -1.0888256471383515e+01 -1.0940638861998165e+01 1 -2 2
2582 861 2 4.0999999999999998e-01 -1.3404003111898415e+01 -7.6830765083338264e+00 -1.0357626874984167e+01 9 3 4
2581 861 1 -8.1999999999999995e-01 -1.3495670780780767e+01 -6.9775411058095891e+00 -1.1060357036016910e+01 9 3 4
2550 850 2 4.0999999999999998e-01 -7.7321018529737406e+00 -1.1178192655787587e+01 -1.2817900365941307e+01 1 2 1
746 249 2 4.0999999999999998e-01 -8.0025134064226044e+00 -1.3191990296922819e+01 -1.1573632264594035e+01 1 3 -4
700 234 1 -8.1999999999999995e-01 -1.2321806706435041e+01 -9.6018750709092888e+00 -1.4983951170545765e+01 7 2 1
1248 416 2 4.0999999999999998e-01 -1.0160392292229933e+01 -1.2795864095302855e+01 -8.5259107396151794e+00 -3 -1 -5
1186 396 1 -8.1999999999999995e-01 -9.2424157891355829e+00 -1.4314305549916988e+01 -1.1279519646709119e+01 1 -4 -1
127 43 1 -8.1999999999999995e-01 -1.3688732569872554e+01 -1.3110257631659794e+01 -9.3058805339105852e+00 5 0 -1
128 43 2 4.0999999999999998e-01 -1.3094898196186801e+01 -1.2479756932286273e+01 -9.8057229747907435e+00 5 0 -1
129 43 2 4.0999999999999998e-01 -1.4103207294669080e+01 -1.2633829900566235e+01 -8.5304837875669595e+00 5 0 -1
1972 658 1 -8.1999999999999995e-01 -1.3244666475544303e+01 -8.8950832306595586e+00 -9.0210006026665397e+00 5 -1 -4
1676 559 2 4.0999999999999998e-01 -7.6951691884860240e+00 -8.6653624331147299e+00 -1.3705001613076808e+01 1 10 -4
378 126 2 4.0999999999999998e-01 -1.3205730030949491e+01 -1.1222429467414338e+01 -1.1829429934733632e+01 7 1 4
2548 850 1 -8.1999999999999995e-01 -8.0944429083594187e+00 -1.0334627459197637e+01 -1.3214283497540182e+01 1 2 1
719 240 2 4.0999999999999998e-01 -1.0871091862507988e+01 -1.4846379138400220e+01 -1.3810823664567183e+01 6 1 3
1576 526 1 -8.1999999999999995e-01 -1.0184046265664925e+01 -1.1094560490074185e+01 -1.4812095856704298e+01 5 -2 4
2067 689 2 4.0999999999999998e-01 -8.4821154149856248e+00 -5.8835103843874350e+00 -1.0863182234866386e+01 2 7 0
890 297 2 4.0999999999999998e-01 -1.4567912600256102e+01 -7.1517025672837420e+00 -1.2588824962342333e+01 1 -3 1
1187 396 2 4.0999999999999998e-01 -9.8378491512162753e+00 -1.4803205448163352e+01 -1.0641986274784280e+01 1 -4 -1
2246 749 2 4.0999999999999998e-01 -1.0559683690749260e+01 -5.7889373968034104e+00 -1.3544775326723888e+01 4 2 1
156 52 2 4.0999999999999998e-01 -1.3346060899893523e+01 -1.2435183944299862e+01 -1.3674311059741367e+01 3 1 0
2549 850 2 4.0999999999999998e-01 -8.9655853135044783e+00 -1.0526147485143809e+01 -1.3666438177436056e+01 1 2 1
868 290 1 -8.1999999999999995e-01 -1.4940371406835247e+01 -1.4944623370556712e+01 -1.2750452930229320e+01 3 -1 3
2512 838 1 -8.1999999999999995e-01 -1.1222498410920437e+01 -1.0786135813624121e+01 -8.0391198766521228e+00 1 5 -6
1247 416 2 4.0999999999999998e-01 -8.5857087323024697e+00 -1.3127573308198031e+01 -8.8034021086773215e+00 -3 -1 -5
154 52 1 -8.1999999999999995e-01 -1.3095977341254494e+01 -1.3259317824500672e+01 -1.4182518112525534e+01 3 1 0
869 290 2 4.0999999999999998e-01 -1.4334287067970291e+01 -1.4365082877564289e+01 -1.3295253297320000e+01 3 -1 3
718 240 1 -8.1999999999999995e-01 -1.0427085309840715e+01 -1.4079387947347769e+01 -1.4274068284315341e+01 6 1 3
1973 658 2 4.0999999999999998e-01 -1.2668132758603535e+01 -9.0086683539830226e+00 -8.2118528079244690e+00 5 -1 -4
480 160 2 4.0999999999999998e-01 -8.7035531261958070e+00 -7.8246136081437436e+00 -8.7428729622779073e+00 3 -3 1
2513 838 2 4.0999999999999998e-01 -1.0270011796451271e+01 -1.0671585414687478e+01 -7.7568782385356343e+00 1 5 -6
891 297 2 4.0999999999999998e-01 -1.4883158530671375e+01 -8.0071969240742167e+00 -1.3943598006481038e+01 1 -3 1
1578 526 2 4.0999999999999998e-01 -1.0308515177134739e+01 -1.2048827263323652e+01 -1.4540258996264178e+01 5 -2 4
377 126 2 4.0999999999999998e-01 -1.4798981787835784e+01 -1.0926643334135203e+01 -1.2031222427722430e+01 7 1 4
125 42 2 4.0999999999999998e-01 -1.0358869687432247e+01 -5.2802679946940128e+00 -1.1225537525630537e+01 1 -1 0
710 237 2 4.0999999999999998e-01 -1.3604030760603951e+01 -1.4639555018252992e+01 -9.2294033455590139e+00 5 2 7
124 42 1 -8.1999999999999995e-01 -1.1168631677088285e+01 -5.0249149431398230e+00 -1.1753830247931766e+01 1 -1 0
1436 479 2 4.0999999999999998e-01 -3.7323686919644317e-01 -1.4475721666663572e+01 -1.0544075624817186e+01 -2 3 -2
1848 616 2 4.0999999999999998e-01 -6.9403183755602704e+00 -1.1131060795660709e+01 -1.1032470800936167e+01 4 3 4
1745 582 2 4.0999999999999998e-01 -7.2491150366811397e-01 -1.3802478695265222e+01 -1.2377384043693771e+01 2 6 -3
1435 479 1 -8.1999999999999995e-01 -1.6359844729087492e-01 -1.4024254808678865e+01 -9.6767566088864445e+00 -2 3 -2
1677 559 2 4.0999999999999998e-01 -7.1716018779062640e+00 -7.1766344222941179e+00 -1.3285207741025241e+01 1 10 -4
1479 493 2 4.0999999999999998e-01 -1.5872362084055958e-01 -5.4992136703569425e+00 -8.0075614818616145e+00 -2 0 -2
1847 616 2 4.0999999999999998e-01 -6.4722342795335042e+00 -1.1049441174657698e+01 -9.4701339980805201e+00 4 3 4
1454 485 2 4.0999999999999998e-01 -3.8616849070695203e+00 -1.1011859007763871e+01 -1.4804955473859549e+01 1 3 0
1573 525 1 -8.1999999999999995e-01 -5.5681935063548789e+00 -1.4381731353866703e+01 -1.3277530807821481e+01 7 4 -2
2403 801 2 4.0999999999999998e-01 -1.9554101417342498e+00 -5.3126598479643867e+00 -9.2504206210893187e+00 4 6 -9
762 254 2 4.0999999999999998e-01 -3.9089961894530543e+00 -1.0450357778350813e+01 -8.5688804267720240e+00 2 2 -3
1477 493 1 -8.1999999999999995e-01 -1.0634241786995702e+00 -5.2511840327526738e+00 -7.6611353330097156e+00 -2 0 -2
1846 616 1 -8.1999999999999995e-01 -6.6620107860407582e+00 -1.0516214808138004e+01 -1.0294553410616047e+01 4 3 4
1941 647 2 4.0999999999999998e-01 -4.3654510928290300e+00 -1.4416578502425365e+01 -1.1896717058703222e+01 -4 3 5
1525 509 1 -8.1999999999999995e-01 -6.6596623033764448e+00 -1.4236659642729398e+01 -8.2729902584786323e+00 8 0 2
1453 485 1 -8.1999999999999995e-01 -3.5506194116662151e+00 -1.0250930922973376e+01 -1.4235535087278155e+01 1 3 0
745 249 1 -8.1999999999999995e-01 -7.3125182990139788e+00 -1.2661120753828047e+01 -1.2065665976310720e+01 1 3 -4
623 208 2 4.0999999999999998e-01 -4.7011753040814366e+00 -1.0322419846048728e+01 -1.0783225911201988e+01 6 2 1
1241 414 2 4.0999999999999998e-01 -1.2801523138098894e+00 -1.2030944896165122e+01 -1.1057278366166109e+01 -2 3 0
2029 677 1 -8.1999999999999995e-01 -7.7938887787711941e-01 -1.0638716057848070e+01 -1.4585258415502487e+01 2 -3 0
1575 525 2 4.0999999999999998e-01 -6.2316003348527822e+00 -1.3944774727333250e+01 -1.3884962405733509e+01 7 4 -2
1455 485 2 4.0999999999999998e-01 -3.7993883008012386e+00 -1.0424292768508344e+01 -1.3282606693269335e+01 1 3 0
2031 677 2 4.0999999999999998e-01 -1.7682502876049604e+00 -1.0662427794229071e+01 -1.4732240375512626e+01 2 -3 0
1940 647 2 4.0999999999999998e-01 -2.8997465750858851e+00 -1.3740034106012832e+01 -1.1650427179886741e+01 -4 3 5
747 249 2 4.0999999999999998e-01 -6.4204107800753203e+00 -1.3102287587576912e+01 -1.1968050158490025e+01 1 3 -4
622 208 1 -8.1999999999999995e-01 -3.9666049800913150e+00 -1.0458673169804277e+01 -1.1447947141844129e+01 6 2 1
1371 457 2 4.0999999999999998e-01 -4.0142281006719571e+00 -5.1600284103829601e+00 -8.7492850665990609e+00 1 -3 -3
1416 472 2 4.0999999999999998e-01 -9.5844799994543806e-01 -9.5026772393723711e+00 -1.0367881384420764e+01 -3 -5 -9
1240 414 1 -8.1999999999999995e-01 -8.2836758074935268e-01 -1.1366807902654720e+01 -1.0461606239750896e+01 -2 3 0
2030 677 2 4.0999999999999998e-01 -5.1267638080229005e-01 -9.7321423971136909e+00 -1.4258147583564362e+01 2 -3 0
1437 479 2 4.0999999999999998e-01 -3.3558851611849505e-01 -1.3042822448694142e+01 -9.7617437113940717e+00 -2 3 -2
274 92 1 -8.1999999999999995e-01 -6.7237916609447943e+00 -5.0296343104509109e+00 -1.4419865766061632e+01 5 2 -7
2305 769 1 -8.1999999999999995e-01 -4.8201478800507971e+00 -1.2329490242605715e+01 -9.0081068652287311e+00 8 -3 -5
2306 769 2 4.0999999999999998e-01 -5.4156677304826459e+00 -1.3119926564498028e+01 -9.1515620814301606e+00 8 -3 -5
760 254 1 -8.1999999999999995e-01 -3.3637492084658778e+00 -9.8066284462157647e+00 -8.0319156911438796e+00 2 2 -3
1939 647 1 -8.1999999999999995e-01 -3.6736276409500679e+00 -1.4194741881243877e+01 -1.1209562338452592e+01 -4 3 5
1415 472 2 4.0999999999999998e-01 -1.1385741521115786e+00 -7.8807860254050510e+00 -1.0307183858620061e+01 -3 -5 -9
2490 830 2 4.0999999999999998e-01 -6.3211249908039200e+00 -8.0841979964955151e+00 -8.1595444507767780e+00 5 -1 -10
1744 582 1 -8.1999999999999995e-01 -1.4983538120571094e+00 -1.3169616055409005e+01 -1.2341541243798121e+01 2 6 -3
1214 405 2 4.0999999999999998e-01 -6.3571583563131995e+00 -6.0280621922937012e+00 -1.1915259183842462e+01 9 -1 3
2401 801 1 -8.1999999999999995e-01 -2.6895736254838418e+00 -5.4067273406074481e+00 -9.9228551245710932e+00 4 6 -9
1746 582 2 4.0999999999999998e-01 -1.6891470043857009e+00 -1.2824070823566407e+01 -1.3260349877424645e+01 2 6 -3
1414 472 1 -8.1999999999999995e-01 -1.5201930095684855e+00 -8.7563402192180266e+00 -1.0010898970988773e+01 -3 -5 -9
624 208 2 4.0999999999999998e-01 -3.0841720905219461e+00 -1.0289836122062479e+01 -1.1008835439888257e+01 6 2 1
2489 830 2 4.0999999999999998e-01 -6.6523504849374699e+00 -8.5451107649082161e+00 -9.6907236621929549e+00 5 -1 -10
2488 830 1 -8.1999999999999995e-01 -6.4601192538239598e+00 -7.7639988002776228e+00 -9.0966495193217014e+00 5 -1 -10
1215 405 2 4.0999999999999998e-01 -6.8175939528390685e+00 -6.8982311220830717e+00 -1.0612390860492244e+01 9 -1 3
761 254 2 4.0999999999999998e-01 -2.6345586367340097e+00 -9.4299212656356843e+00 -8.6032174402851656e+00 2 2 -3
1213 405 1 -8.1999999999999995e-01 -7.0995000724673742e+00 -6.5625517446588866e+00 -1.1511201777862093e+01 9 -1 3
2307 769 2 4.0999999999999998e-01 -3.8649177296898802e+00 -1.2610872913051104e+01 -9.0996052263277303e+00 8 -3 -5
1369 457 1 -8.1999999999999995e-01 -4.7842227621844309e+00 -5.3312825403693118e+00 -8.1346363365795149e+00 1 -3 -3
1370 457 2 4.0999999999999998e-01 -5.2572437964409175e+00 -6.1657291245005315e+00 -8.4174134064211117e+00 1 -3 -3
371 124 2 4.0999999999999998e-01 -1.3964303993415026e+00 -1.4003505465935838e+01 -8.4703774470346893e+00 -2 0 -7
2402 801 2 4.0999999999999998e-01 -2.3013140505574903e+00 -5.6724464344541783e+00 -1.0805272656063176e+01 4 6 -9
1298 433 2 4.0999999999999998e-01 -3.7527188338416746e+00 -5.5220170312039230e+00 -1.2203959480900622e+01 0 1 -6
981 327 2 4.0999999999999998e-01 -6.9083376373301775e-01 -5.2675022607620594e+00 -1.2859899750368495e+01 -2 6 -5
370 124 1 -8.1999999999999995e-01 -2.1624425432226992e+00 -1.3720774942179952e+01 -7.8930546270392767e+00 -2 0 -7
1297 433 1 -8.1999999999999995e-01 -4.7133770104672319e+00 -5.4125611088249954e+00 -1.2459239961805933e+01 0 1 -6
276 92 2 4.0999999999999998e-01 -5.9813754947064748e+00 -5.2962618958198036e+00 -1.3805259517212406e+01 5 2 -7
2070 690 2 4.0999999999999998e-01 -1.1494170294507423e+01 -1.1680769679782346e+01 -2.3466670051295466e+00 4 2 5
233 78 2 4.0999999999999998e-01 -1.2884581764968342e+01 -1.2960905050976178e+01 -4.0633142972287697e+00 7 -1 2
806 269 2 4.0999999999999998e-01 -1.3904832791419237e+01 -1.3662435378519731e+01 -6.5125078990531335e+00 7 -5 -1
232 78 1 -8.1999999999999995e-01 -1.2055835570809544e+01 -1.3000229150130247e+01 -3.5050614633861485e+00 7 -1 2
651 217 2 4.0999999999999998e-01 -7.8978677642849719e+00 -1.1988741530223836e+01 -3.4799551081064202e+00 5 -2 3
1105 369 1 -8.1999999999999995e-01 -1.0684997101451428e+01 -8.0399602758402722e+00 -6.0402322446889851e+00 7 1 3
1107 369 2 4.0999999999999998e-01 -1.0070010948640839e+01 -8.3282844802472145e+00 -5.3062881200227423e+00 7 1 3
1430 477 2 4.0999999999999998e-01 -1.1752443238368683e+01 -9.9323375919276309e+00 -2.9036405528830613e+00 4 -1 -8
805 269 1 -8.1999999999999995e-01 -1.3917359572687465e+01 -1.4521294244291756e+01 -6.0004362674261280e+00 7 -5 -1
1429 477 1 -8.1999999999999995e-01 -1.2651706151079530e+01 -9.5136879849375049e+00 -3.0304143855211159e+00 4 -1 -8
1431 477 2 4.0999999999999998e-01 -1.3322719587316547e+01 -9.9857086464178906e+00 -2.4586187224874916e+00 4 -1 -8
2069 690 2 4.0999999999999998e-01 -1.0345238864626598e+01 -1.1592818361838120e+01 -1.1895663602544388e+00 4 2 5
2068 690 1 -8.1999999999999995e-01 -1.0921157919393522e+01 -1.1060986566814345e+01 -1.8104407778930014e+00 4 2 5
742 248 1 -8.1999999999999995e-01 -1.0973372807623175e+01 -6.3625126910651666e+00 -1.1125715373142668e+00 6 2 -4
1286 429 2 4.0999999999999998e-01 -1.2055963528181239e+01 -6.9546342510586641e+00 -5.8906081334780431e+00 1 -1 1
1285 429 1 -8.1999999999999995e-01 -1.2740673574286246e+01 -6.2412056910742368e+00 -6.0396205200590458e+00 1 -1 1
1287 429 2 4.0999999999999998e-01 -1.2993692333582318e+01 -5.8335734680253690e+00 -5.1622207619583964e+00 1 -1 1
728 243 2 4.0999999999999998e-01 -1.1892019057183649e+01 -9.5432762874239092e+00 -5.8910473056113624e+00 0 -2 -3
743 248 2 4.0999999999999998e-01 -1.0485952374337334e+01 -7.1378177104947200e+00 -1.5142384133386848e+00 6 2 -4
2524 842 1 -8.1999999999999995e-01 -8.4295575887376231e+00 -8.3303689376378038e+00 -4.4783260072925746e+00 3 5 -2
2525 842 2 4.0999999999999998e-01 -8.3384314915187723e+00 -9.2382231316809929e+00 -4.0690466185701109e+00 3 5 -2
1582 528 1 -8.1999999999999995e-01 -8.1692573467817269e+00 -1.3700675988148815e+01 -2.7972996795208669e+00 -1 5 -3
729 243 2 4.0999999999999998e-01 -1.2915275230195697e+01 -1.0373295768655890e+01 -4.9263321969997254e+00 0 -2 -3
1872 624 2 4.0999999999999998e-01 -1.4027646771770623e+01 -8.2773317044871728e+00 -2.9581910432848879e+00 -3 3 0
234 78 2 4.0999999999999998e-01 -1.1316628094870358e+01 -1.3416275115647640e+01 -4.0346754030834600e+00 7 -1 2
727 243 1 -8.1999999999999995e-01 -1.2579214829730706e+01 -1.0269192717512173e+01 -5.8624084917943637e+00 0 -2 -3
2077 693 1 -8.1999999999999995e-01 -9.0038446907806495e+00 -1.0720382498289450e+01 -6.7512408333898666e+00 1 1 2
1058 353 2 4.0999999999999998e-01 -1.0905327237584860e+01 -1.4937280021294876e+01 -5.0254481318352457e+00 3 3 0
2526 842 2 4.0999999999999998e-01 -7.8407776767820527e+00 -7.6848243753523420e+00 -3.9918866311134629e+00 3 5 -2
2304 768 2 4.0999999999999998e-01 -1.1480409324027811e+01 -5.0610434447722543e+00 -2.7448712592227693e+00 7 -1 1
1081 361 1 -8.1999999999999995e-01 -1.4686703435876126e+01 -1.1910756281488256e+01 -4.2884385578622322e+00 -1 -2 -1
1858 620 1 -8.1999999999999995e-01 -9.6162727224637372e+00 -1.3351017481464501e+01 -5.5738127970542273e+00 4 2 0
1111 371 1 -8.1999999999999995e-01 -7.8042131597272384e+00 -6.2970758719780413e+00 -6.0669377342961663e+00 -1 0 -3
2079 693 2 4.0999999999999998e-01 -8.1005044914465447e+00 -1.1137503303064962e+01 -6.6512429546953360e+00 1 1 2
1859 620 2 4.0999999999999998e-01 -9.4323135044131377e+00 -1.3473771442717231e+01 -6.5490580747412466e+00 4 2 0
744 248 2 4.0999999999999998e-01 -1.1847926651981489e+01 -6.6746747543519689e+00 -7.4146068995069569e-01 6 2 -4
1706 569 2 4.0999999999999998e-01 -9.4567214284021279e+00 -5.5033545143514573e+00 -1.9969407341926626e-01 6 6 -6
1083 361 2 4.0999999999999998e-01 -1.4505710556856606e+01 -1.1586311514791458e+01 -3.3600043948677474e+00 -1 -2 -1
1543 515 1 -8.1999999999999995e-01 -1.4425765427105476e+01 -1.0761535822622101e+01 -1.1618328265404987e+00 3 -5 -1
1106 369 2 4.0999999999999998e-01 -1.0193228980302205e+01 -8.0512933536496014e+00 -6.9108920888976719e+00 7 1 3
807 269 2 4.0999999999999998e-01 -1.4613849753618791e+01 -1.4472388891478355e+01 -5.2845294721913074e+00 7 -5 -1
2579 860 2 4.0999999999999998e-01 -1.4050129997256407e+01 -8.1059757679748259e+00 -3.3047210765763957e-01 6 4 -5
2145 715 2 4.0999999999999998e-01 -8.4765072144462437e+00 -1.4928629199004925e+01 -5.7269302530586206e+00 0 0 7
1870 624 1 -8.1999999999999995e-01 -1.4899446107897976e+01 -7.9459231366430618e+00 -3.3189501447510601e+00 -3 3 0
328 110 1 -8.1999999999999995e-01 -1.4536630489353886e+01 -1.1829560989167618e+01 -7.1773706011895131e+00 2 3 -2
329 110 2 4.0999999999999998e-01 -1.3986926067407904e+01 -1.1162104846818929e+01 -6.6750358349518315e+00 2 3 -2
2514 838 2 4.0999999999999998e-01 -1.1821093636914132e+01 -1.0672318538535860e+01 -7.2461871725810170e+00 1 5 -6
1860 620 2 4.0999999999999998e-01 -9.5165853845728705e+00 -1.2385123147690425e+01 -5.3348077143519852e+00 4 2 0
1545 515 2 4.0999999999999998e-01 -1.3898398042789738e+01 -1.1289115285115388e+01 -4.9583255082155553e-01 3 -5 -1
1112 371 2 4.0999999999999998e-01 -8.2610833964367743e+00 -7.1861275130199829e+00 -6.0964271256436131e+00 -1 0 -3
1583 528 2 4.0999999999999998e-01 -8.8518724957214747e+00 -1.4325010133103611e+01 -2.4174887978314974e+00 -1 5 -3
1499 500 2 4.0999999999999998e-01 -1.4564849955470502e+01 -6.2607194214907196e+00 -6.5231295509532075e+00 3 5 -5
407 136 2 4.0999999999999998e-01 -8.2489151593140750e+00 -1.0026839719149148e+01 -3.2586486061302367e-01 7 -1 -2
2508 836 2 4.0999999999999998e-01 -9.0669298587360405e+00 -5.2322347476890698e+00 -5.8595671720790108e+00 5 3 -1
2078 693 2 4.0999999999999998e-01 -8.9010486682144503e+00 -9.7430556161864512e+00 -6.9363840620191759e+00 1 1 2
406 136 1 -8.1999999999999995e-01 -7.3790610400535606e+00 -1.0495249781424107e+01 -4.8065061568836143e-01 7 -1 -2
649 217 1 -8.1999999999999995e-01 -7.4377569373736181e+00 -1.1103117400367566e+01 -3.4168613983664553e+00 5 -2 3
380 127 2 4.0999999999999998e-01 -6.4841686219363321e+00 -1.3599022764590693e+01 -5.5128049494032183e-01 -3 3 -6
650 217 2 4.0999999999999998e-01 -7.3279069366197840e+00 -1.0852344183555260e+01 -2.4550617190958999e+00 5 -2 3
1839 613 2 4.0999999999999998e-01 -4.9302433613175669e+00 -9.2731544124532963e+00 -7.0380232715765754e+00 6 -1 0
372 124 2 4.0999999999999998e-01 -1.9448790071209690e+00 -1.2849085442386672e+01 -7.4539232256600023e+00 -2 0 -7
2543 848 2 4.0999999999999998e-01 -4.2734313778508337e-01 -7.2634825964884691e+00 -1.6355875931675499e+00 4 5 -7
2400 800 2 4.0999999999999998e-01 -7.1052855005006927e+00 -5.1480910101439807e+00 -3.3463471016980488e+00 5 -3 -1
2072 691 2 4.0999999999999998e-01 -4.4847565443445880e-01 -6.4878217281081589e+00 -6.0879608259629308e+00 5 0 -1
1526 509 2 4.0999999999999998e-01 -6.9909746219473554e+00 -1.4368199481730725e+01 -7.3386764797231034e+00 8 0 2
748 250 1 -8.1999999999999995e-01 -2.3260296376447975e-01 -1.4514621990055783e+01 -1.1281135692279403e+00 4 0 -5
1838 613 2 4.0999999999999998e-01 -5.9618451395328016e+00 -1.0145955655669740e+01 -6.1211391285930947e+00 6 -1 0
2170 724 1 -8.1999999999999995e-01 -5.5690888594415355e+00 -8.6921951902312209e+00 -1.2960583758376192e+00 4 -1 0
1584 528 2 4.0999999999999998e-01 -7.3212389085940650e+00 -1.4200749898442838e+01 -2.9728094352780357e+00 -1 5 -3
2271 757 2 4.0999999999999998e-01 -4.1245402480977571e+00 -6.1731186557302369e+00 -5.9526903065886785e+00 -8 -1 1
2071 691 1 -8.1999999999999995e-01 -1.5164768769128578e-01 -6.7727021263466511e+00 -5.1765064024338194e+00 5 0 -1
864 288 2 4.0999999999999998e-01 -3.3763649350826181e+00 -1.0291491295043187e+01 -2.2263979777535745e+00 8 6 0
2516 839 2 4.0999999999999998e-01 -2.6458483648686428e+00 -6.8293505748742813e+00 -2.8079739347157258e+00 3 3 0
1837 613 1 -8.1999999999999995e-01 -5.7416792400420640e+00 -9.2294735234003102e+00 -6.4552054428834005e+00 6 -1 0
619 207 1 -8.1999999999999995e-01 -4.1030456767188337e+00 -5.6038245996710359e+00 -1.9923137275835625e+00 1 4 0
2453 818 2 4.0999999999999998e-01 -3.0075643709235891e+00 -1.2239261089045570e+01 -8.1423268094518164e-01 4 -2 1
2073 691 2 4.0999999999999998e-01 -9.3445083931082173e-01 -6.7674917306212503e+00 -4.5542484945298192e+00 5 0 -1
2369 790 2 4.0999999999999998e-01 -4.6061862775971587e+00 -1.4652110980748276e+01 -5.7274416464739186e+00 7 1 2
2270 757 2 4.0999999999999998e-01 -5.0829209798657988e+00 -7.4795745554238007e+00 -6.1560129026729733e+00 -8 -1 1
2082 694 2 4.0999999999999998e-01 -3.5285492026677971e+00 -1.2972868224122964e+01 -5.1198069303198661e+00 8 -4 3
2171 724 2 4.0999999999999998e-01 -6.3380590461672153e+00 -9.2188107798166392e+00 -9.3360320571919431e-01 4 -1 0
2048 683 2 4.0999999999999998e-01 -6.3693770674299657e+00 -7.3498673001661929e+00 -3.5894002141870374e-01 8 0 2
620 207 2 4.0999999999999998e-01 -4.9993823602017819e+00 -5.8438590538287105e+00 -2.3651097637640728e+00 1 4 0
2370 790 2 4.0999999999999998e-01 -4.9266722205365330e+00 -1.3831160166677851e+01 -7.1022103921227577e+00 7 1 2
1829 610 2 4.0999999999999998e-01 -3.8742804340876784e+00 -1.3463571068585097e+01 -2.3059910714807135e+00 1 -2 2
1989 663 2 4.0999999999999998e-01 -5.5914925362364070e+00 -6.8367954375036089e+00 -3.9953960998070421e+00 -2 0 -8
1987 663 1 -8.1999999999999995e-01 -6.2275558628569101e+00 -6.7595408235138823e+00 -3.2276278665683833e+00 -2 0 -8
862 288 1 -8.1999999999999995e-01 -3.2215209012901393e+00 -9.9041608630964557e+00 -3.1352496339292220e+00 8 6 0
1830 610 2 4.0999999999999998e-01 -4.4540311617025239e+00 -1.3077091336131383e+01 -3.7828740080611283e+00 1 -2 2
1988 663 2 4.0999999999999998e-01 -6.1203008126901839e+00 -7.5503749502776643e+00 -2.6250578554759656e+00 -2 0 -8
853 285 1 -8.1999999999999995e-01 -4.6498186800974928e-01 -9.9730738442006412e+00 -3.6377383950361946e+00 6 2 -3
1828 610 1 -8.1999999999999995e-01 -4.6001876304303924e+00 -1.3641466597002172e+01 -2.9703891249665251e+00 1 -2 2
1579 527 1 -8.1999999999999995e-01 -2.7819799595457386e+00 -1.4028266705165040e+01 -3.2104021444818898e-01 5 -2 -5
2368 790 1 -8.1999999999999995e-01 -4.9110703037348156e+00 -1.3777224184191368e+01 -6.1037815186499209e+00 7 1 2
2172 724 2 4.0999999999999998e-01 -4.8996246432295667e+00 -9.3152399219789750e+00 -1.7005899403810698e+00 4 -1 0
2515 839 1 -8.1999999999999995e-01 -2.3315557995390677e+00 -7.4661295596567401e+00 -3.5120659556924867e+00 3 3 0
854 285 2 4.0999999999999998e-01 -1.4196650560919863e+00 -9.6814597867382393e+00 -3.5781220301395162e+00 6 2 -3
2517 839 2 4.0999999999999998e-01 -2.7296084205569375e+00 -8.3685302220012172e+00 -3.3470203784577777e+00 3 3 0
1231 411 1 -8.1999999999999995e-01 -6.6229224086482539e+00 -1.1765449915140056e+01 -5.9804218236478235e+00 0 7 -2
2081 694 2 4.0999999999999998e-01 -2.4137691370009620e+00 -1.1816979499219084e+01 -5.4161976568386123e+00 8 -4 3
2269 757 1 -8.1999999999999995e-01 -4.8845924049096698e+00 -6.6961607953396758e+00 -5.5669955189016456e+00 -8 -1 1
1232 411 2 4.0999999999999998e-01 -6.1261411418210603e+00 -1.2624397336953978e+01 -6.1046415677022701e+00 0 7 -2
2099 700 2 4.0999999999999998e-01 -2.0531068429837340e+00 -1.0389228300873658e+01 -7.0664040999782394e+00 1 3 1
2098 700 1 -8.1999999999999995e-01 -1.5407044703882207e+00 -1.1194568555395501e+01 -6.7682703411592513e+00 1 3 1
863 288 2 4.0999999999999998e-01 -3.1943210834987905e+00 -1.0640601466016456e+01 -3.8112143374351195e+00 8 6 0
1390 464 1 -8.1999999999999995e-01 -1.7692051880214965e+00 -6.3540474980898018e+00 -6.5384886415911581e-01 4 -1 -2
1392 464 2 4.0999999999999998e-01 -2.5816779501117040e+00 -6.0512202433309774e+00 -1.1520420534536644e+00 4 -1 -2
2080 694 1 -8.1999999999999995e-01 -3.0374490924132651e+00 -1.2193310239036759e+01 -4.7310616216315129e+00 8 -4 3
1113 371 2 4.0999999999999998e-01 -6.9616464998368883e+00 -6.3728322135328064e+00 -5.5336880297827147e+00 -1 0 -3
1233 411 2 4.0999999999999998e-01 -6.7006815881063932e+00 -1.1563563888584611e+01 -5.0040979086707331e+00 0 7 -2
1452 484 2 4.0999999999999998e-01 -5.3837218563065097e+00 -1.4728688529052173e+01 -2.0170806129549206e+00 -3 -1 -7
1580 527 2 4.0999999999999998e-01 -1.8638764089897908e+00 -1.4148861854044361e+01 -6.9860548200908390e-01 5 -2 -5
2100 700 2 4.0999999999999998e-01 -6.0875975901181434e-01 -1.0925503944421735e+01 -6.5251733403445851e+00 1 3 1
2452 818 1 -8.1999999999999995e-01 -3.1458320945947058e+00 -1.1298434080644270e+01 -5.0481476310123874e-01 4 -2 1
1424 475 2 4.0999999999999998e-01 -2.2144240233439305e-02 -1.1643245750888283e+01 -2.8440151979590276e+00 3 3 -3
408 136 2 4.0999999999999998e-01 -7.4270406631545027e+00 -1.1420389711282477e+01 -1.0405171728124252e-01 7 -1 -2
779 260 2 4.0999999999999998e-01 -1.1470060548284065e+01 -1.1388735985098441e+01 3.8484620849144502e+00 7 0 -4
2326 776 1 -8.1999999999999995e-01 -9.4287905605143365e+00 -1.2735367330645051e+01 5.8588933749050742e+00 2 -4 -3
960 320 2 4.0999999999999998e-01 -1.3412935735073626e+01 -9.6718554774071244e+00 4.6947853597226636e+00 6 1 -5
2327 776 2 4.0999999999999998e-01 -8.9158537550092820e+00 -1.3469960930438138e+01 6.3030565488528350e+00 2 -4 -3
1634 545 2 4.0999999999999998e-01 -1.4904707310264751e+01 -1.2727496987977858e+01 1.5882365055685010e+00 4 1 -2
780 260 2 4.0999999999999998e-01 -1.0484111273906352e+01 -1.2524328953086847e+01 4.4848530212915367e+00 7 0 -4
778 260 1 -8.1999999999999995e-01 -1.1128215192532661e+01 -1.2322992554526854e+01 3.7468782910184455e+00 7 0 -4
1073 358 2 4.0999999999999998e-01 -8.9654846677910438e+00 -9.4082346076889785e+00 6.4090054081023755e+00 1 -3 -4
2328 776 2 4.0999999999999998e-01 -8.9502784393659613e+00 -1.1867343490289391e+01 5.9914589884796694e+00 2 -4 -3
605 202 2 4.0999999999999998e-01 -1.0960633314746090e+01 -1.0213334489339088e+01 7.8108976394566021e-01 5 3 -3
1835 612 2 4.0999999999999998e-01 -1.1396608604237667e+01 -8.9671859867954353e+00 6.2468275220990197e+00 10 -1 0
1834 612 1 -8.1999999999999995e-01 -1.0561874468433595e+01 -8.5412242927574376e+00 6.5958095106732113e+00 10 -1 0
604 202 1 -8.1999999999999995e-01 -1.1275519073224423e+01 -9.2813488584718584e+00 9.6070772676899985e-01 5 3 -3
606 202 2 4.0999999999999998e-01 -1.0495752531858269e+01 -8.7092763637776187e+00 1.2150895122608834e+00 5 3 -3
958 320 1 -8.1999999999999995e-01 -1.2698191458375160e+01 -9.9921281693872643e+00 5.3165400502246651e+00 6 1 -5
959 320 2 4.0999999999999998e-01 -1.3094714925429049e+01 -1.0622930806659385e+01 5.9835258243478844e+00 6 1 -5
1560 520 2 4.0999999999999998e-01 -7.7832970633131113e+00 -1.4216264208777979e+01 3.7059228536553217e+00 0 -2 -3
2123 708 2 4.0999999999999998e-01 -1.1771252034837506e+01 -7.1275856046105996e+00 1.6233094870855158e+00 -1 3 -7
326 109 2 4.0999999999999998e-01 -1.1561630811494412e+01 -1.4046400395446533e+01 3.3561876630570691e+00 10 5 1
1918 640 1 -8.1999999999999995e-01 -8.9293101609645689e+00 -5.7039162645514967e+00 3.3294520138610100e+00 0 -1 3
287 96 2 4.0999999999999998e-01 -1.1288858590556416e+01 -1.3405156385513672e+01 6.4180588106012930e+00 2 -1 -5
952 318 1 -8.1999999999999995e-01 -1.1181432481877607e+01 -5.9942285226447485e+00 6.6330526626019992e+00 1 -1 -2
1282 428 1 -8.1999999999999995e-01 -1.3253235543970513e+01 -1.1803223172067860e+01 1.1724516112748784e+00 5 -3 1
1284 428 2 4.0999999999999998e-01 -1.2355011712254107e+01 -1.2027500086313028e+01 7.9442160153829455e-01 5 -3 1
2449 817 1 -8.1999999999999995e-01 -1.0571669903788781e+01 -1.2051929573433286e+01 1.0821968984953916e+00 -3 0 -3
1072 358 1 -8.1999999999999995e-01 -8.2694532652184378e+00 -1.0017457920769090e+01 6.0290052638004799e+00 1 -3 -4
2122 708 1 -8.1999999999999995e-01 -1.1723902498518182e+01 -6.4102327015718519e+00 2.3184178751873699e+00 -1 3 -7