2611
Atoms. Timestep: 23000000
O 8.07078 14.5562 -1.99021
H 8.73441 14.0331 -1.45542
H 8.55356 -14.8653 -2.6555
O -0.547778 6.80885 11.3333
H -0.494551 5.81203 11.3928
H 0.250502 7.21254 11.7803
O -9.49629 1.15368 13.2613
H -9.69162 0.718477 14.1402
H -9.12102 0.475353 12.6296
O 7.94587 13.7386 2.11955
H 7.64427 14.1874 2.96079
H 8.65319 13.0656 2.33593
O -12.6974 13.6734 3.40009
H -13.1309 14.1888 4.13938
H -12.7635 14.193 2.54823
O 0.393177 14.933 -5.74383
H 0.332577 14.109 -5.18046
H 1.17586 14.8575 -6.36169
O 9.80477 -9.51919 -13.4845
H 9.67861 -8.56844 -13.2013
H 10.7777 -9.74873 -13.4575
O -6.32383 5.3369 7.87291
H -6.04298 4.48512 8.31522
H -6.23085 5.2441 6.88156
O -10.4455 -7.02429 11.2259
H -10.1951 -7.52597 10.3978
H -11.3055 -7.38499 11.5869
O -4.37317 -2.29491 8.17977
H -4.93761 -1.53777 7.85085
H -4.53155 -2.42821 9.15813
O -6.91753 0.610493 -3.45915
H -7.91491 0.577465 -3.39454
H -6.54359 -0.305575 -3.31412
O 3.80743 14.3633 4.12293
H 3.31396 14.7265 3.33262
H 4.36926 -14.9053 4.52595
O -7.06775 -4.02236 -9.16694
H -7.82265 -4.67814 -9.17752
H -7.28903 -3.26935 -8.54722
O 4.80392 -5.30817 -13.4825
H 5.32344 -4.8907 -14.2281
H 5.0886 -6.2602 -13.3702
O 2.999 -7.61899 1.00831
H 2.32787 -7.16659 0.420974
H 3.09478 -7.10611 1.86143
O -9.40864 -5.247 9.33776
H -8.55283 -5.71133 9.10966
H -9.91054 -5.78636 10.0139
O 2.50346 10.5639 -5.21499
H 3.34312 10.031 -5.1103
H 2.55259 11.1014 -6.05686
O 13.4054 10.3263 -13.5892
H 14.2604 10.696 -13.2255
H 12.8574 11.0695 -13.9731
O 9.38275 -13.6859 9.68951
H 8.74933 -13.7526 8.91856
H 9.12066 -14.3451 10.3943
O -13.758 6.30345 -3.04269
H -13.9429 7.21917 -3.39948
H -13.6288 6.35146 -2.05221
O 6.68115 11.5854 8.60887
H 5.87079 11.8779 9.1166
H 7.37118 11.247 9.24868
O 8.37866 -11.157 5.67871
H 7.84999 -10.3151 5.78721
H 9.32939 -10.9895 5.93972
O 1.03338 -6.37417 -0.619418
H 0.96457 -7.06804 -1.33626
H 1.69525 -5.67639 -0.893374
O -12.8201 11.0693 -13.2296
H -13.09 10.6281 -14.0855
H -11.8314 10.9824 -13.1071
O 10.3439 4.01131 12.3615
H 10.9359 4.81039 12.4663
H 9.59533 4.23083 11.7358
O 7.10748 13.7177 6.96343
H 7.14727 12.9146 7.55791
H 7.33992 14.5348 7.49106
O 12.8355 -14.3264 -5.30164
H 12.1698 -14.8158 -5.86498
H 13.7434 -14.7225 -5.43865
O 2.69615 -6.81488 -11.4884
H 3.14563 -6.52264 -10.6442
H 2.00409 -6.14129 -11.7479
O -8.55136 -6.15536 13.0727
H -8.45898 -6.98496 13.6234
H -9.37975 -6.21552 12.5158
O 9.82677 6.21655 1.89488
H 9.52763 5.41698 2.41568
H 9.1272 6.92923 1.9472
O 14.5635 3.79712 -1.16722
H -14.707 4.48366 -1.0702
H 14.9546 2.95294 -1.53392
O 8.95193 -10.3096 2.10702
H 9.27764 -11.2429 1.95588
H 8.02592 -10.3366 2.48361
O 11.2185 -4.65272 7.25578
H 10.2883 -5.01966 7.26712
H 11.2163 -3.7269 7.6338
O 12.3623 11.1702 11.8378
H 12.033 10.3446 11.3795
H 12.1031 11.1414 12.8032
O 13.3339 4.45656 2.42087
H 13.0003 4.06723 1.56229
H 13.1384 5.43709 2.44044
O 9.7389 -1.19282 -10.5662
H 8.75493 -1.37117 -10.5706
H 10.1973 -1.83761 -11.1779
O 13.6885 -14.9759 4.57641
H 13.7862 -14.9799 3.58118
H 14.5508 -14.6904 4.99476
O -13.9262 -2.2105 1.67982
H -14.3943 -1.6417 1.00348
H -13.905 -3.1581 1.361
O 4.01746 -11.0644 -4.23672
H 4.97775 -10.9098 -4.0044
H 3.60529 -11.6756 -3.56104
O -1.77547 0.928192 6.18917
H -1.98586 -0.0413771 6.06383
H -1.36124 1.06578 7.0889
O 10.3822 -1.00199 -14.4794
H 10.5743 -0.0338825 -14.6404
H 11.1305 -1.4074 -13.9542
O -10.5936 -5.37892 -12.0743
H -9.60737 -5.54348 -12.0591
H -11.0448 -5.99813 -11.4315
O 14.3777 -11.0052 -10.7966
H 14.3431 -12.0028 -10.8569
H 14.0724 -10.7153 -9.8895
O 11.6504 1.85748 13.3896
H 11.4436 2.77029 13.0374
H 12.442 1.90664 13.9986
O -7.24795 8.45602 -7.96957
H -7.10075 9.44365 -7.91526
H -6.36651 7.98511 -7.93269
O -5.36313 8.59802 7.56641
H -5.67147 8.59702 8.51771
H -5.92748 7.9684 7.03244
O 1.94296 -5.00878 -13.7311
H 2.91946 -5.17157 -13.5897
H 1.82065 -4.23674 -14.3548
O -0.427259 10.2397 11.2944
H 0.171387 9.44132 11.2294
H -1.17806 10.0429 11.925
O -1.68658 -6.77291 -12.877
H -1.35685 -7.71459 -12.9446
H -1.11267 -6.26399 -12.2354
O 10.1484 1.69354 -6.75358
H 9.22602 1.73326 -7.13797
H 10.8192 1.70391 -7.49511
O 8.43733 -8.66114 9.752
H 7.46914 -8.64208 9.50242
H 8.63204 -9.495 10.2685
O -14.6249 -11.5155 13.7804
H -13.7027 -11.893 13.6957
H -14.9358 -11.6043 14.7268
O -13.5005 6.15482 -0.166932
H -12.8853 6.3327 0.601139
H -13.6962 7.01234 -0.642749
O -10.0918 4.59393 -14.5932
H -9.40724 4.04618 -14.1122
H -10.4343 4.08235 14.6098
O 2.78968 10.4682 5.58636
H 3.61643 11.0046 5.75632
H 2.1305 10.6302 6.32074
O -12.5802 6.30624 3.96714
H -13.0133 5.65941 3.33942
H -11.9791 5.8106 4.59416
O 14.9879 10.6878 -8.52676
H -14.4106 11.1535 -9.18405
H -14.4669 10.4187 -7.72678
O -14.7812 -11.2732 -5.56056
H 14.2128 -11.2979 -5.48728
H -14.401 -10.7891 -4.77246
O -12.8089 -13.0603 10.4129
H -13.3725 -12.3559 9.98145
H -12.561 -12.7692 11.3369
O 11.0593 5.0334 6.47454
H 11.7504 4.58583 5.90703
H 11.1407 4.70901 7.41697
O 13.6353 -8.86703 -2.14585
H 13.2046 -7.97887 -2.30614
H 12.9399 -9.58503 -2.17597
O 11.6158 3.86698 9.37631
H 12.1462 3.0644 9.64946
H 10.8324 3.97302 9.98874
O -12.5673 -5.66591 13.3833
H -12.3656 -5.94852 12.4455
H -11.8993 -6.07432 14.0054
O 2.11476 1.6784 9.04354
H 2.86067 1.7693 8.38369
H 1.56023 2.51056 9.03647
O 4.54859 3.31815 -3.60344
H 4.258 4.11166 -3.0687
H 4.22471 3.41379 -4.54471
O 7.22654 -5.82574 -5.73768
H 6.83823 -5.18971 -6.40456
H 6.63849 -6.63118 -5.66361
O 13.6155 -10.3908 -8.22139
H 13.3479 -9.43976 -8.06649
H 14.3751 -10.6263 -7.61504
O 5.51714 -13.4272 -1.05728
H 5.95093 -12.6001 -0.69988
H 5.81328 -14.2174 -0.520654
O 7.71819 6.43503 -9.08026
H 7.45045 5.85389 -8.31173
H 7.02592 7.14309 -9.21975
O 3.60869 0.194198 -8.84919
H 3.34446 1.15222 -8.96059
H 3.03397 -0.230927 -8.1499
O -10.9854 3.28308 12.9471
H -11.2951 3.42997 12.0076
H -10.5198 2.40032 13.0104
O 10.9414 9.62105 -11.2979
H 10.6461 9.30128 -12.1982
H 11.3169 8.85359 -10.7783
O 13.1318 0.669545 -13.5625
H 14.1161 0.709503 -13.7346
H 12.8232 -0.280438 -13.611
O -12.2925 8.73537 -9.91715
H -11.3261 8.91869 -9.73681
H -12.712 9.54083 -10.3358
O 9.52403 13.652 -9.69756
H 9.49085 12.6754 -9.90987
H 9.00572 14.1604 -10.3853
O -12.9963 -8.46216 11.5156
H -12.5076 -9.24738 11.1353
H -13.6916 -8.15557 10.8655
O 11.506 -12.1327 2.16494
H 12.2796 -11.8921 2.75124
H 10.9568 -12.8393 2.61114
O -12.1224 -13.3191 -4.02888
H -12.8044 -13.227 -3.30338
H -12.5491 -13.7227 -4.83824
O 10.8393 13.7359 7.1855
H 10.8697 13.5933 8.17484
H 9.96424 13.409 6.82842
O 11.9603 14.1417 -11.3736
H 11.8852 13.1449 -11.4037
H 11.3388 14.502 -10.6779
O 6.25104 -9.73374 13.3731
H 7.1589 -10.0775 13.6133
H 6.25306 -8.73433 13.408
O -7.47295 -13.0194 11.7033
H -7.82487 -13.5039 10.9024
H -8.08424 -12.2609 11.9292
O -0.785382 -4.7035 12.1898
H -0.744018 -5.51071 12.7787
H -0.504308 -4.95231 11.2629
O 0.715168 9.42352 4.06865
H 1.24868 9.27026 3.23684
H 1.29973 9.83367 4.76873
O -0.750893 5.50364 6.64318
H -0.539009 6.48072 6.66449
H -1.01889 5.24083 5.71627
O -2.31072 0.938441 8.88951
H -2.35599 1.54811 9.6809
H -1.60066 0.250339 9.03903
O -11.554 3.06395 -12.1628
H -11.471 2.07711 -12.3017
H -11.0779 3.54535 -12.8988
O -4.36643 12.3398 -3.69055
H -5.11697 11.7163 -3.47151
H -3.76783 11.9152 -4.36983
O 8.77016 4.36122 9.90032
H 8.02276 4.70756 10.4673
H 8.57979 4.56141 8.93921
O 4.38436 -8.18388 -4.68029
H 4.21636 -9.16425 -4.57685
H 5.04812 -7.88526 -3.99451
O -9.32893 1.63568 -9.7536
H -9.80797 2.46932 -10.0286
H -8.96291 1.75077 -8.83011
O -5.83931 -5.79755 -14.839
H -6.72797 -6.03387 14.7591
H -5.86257 -5.94438 -13.8501
O -13.4914 6.46081 -8.90805
H -12.8863 7.21487 -9.16363
H -13.1259 5.60298 -9.26935
O 14.2644 -1.24846 -5.09944
H 14.0376 -0.274562 -5.08797
H 13.6487 -1.72672 -5.72571
O -8.35394 -10.0879 0.235404
H -7.9847 -9.33828 0.784812
H -7.84365 -10.1555 -0.621959
O -10.1002 14.6892 5.22543
H -10.8736 14.4535 4.63697
H -9.48695 13.9029 5.30076
O -11.286 5.76082 8.93841
H -10.3332 5.4675 9.01642
H -11.6463 5.96887 9.8478
O -2.11447 12.5146 -9.16558
H -2.22069 13.2655 -8.51375
H -2.67005 11.7368 -8.87151
O 9.4671 -10.9894 11.0006
H 9.07029 -11.8415 10.6595
H 10.4151 -10.9157 10.691
O 12.3941 -4.87226 -4.87393
H 13.1321 -5.52756 -5.03506
H 12.1147 -4.46448 -5.74325
O 12.2808 3.35746 0.15102
H 13.05 3.70779 -0.38337
H 11.4321 3.77573 -0.172705
O 3.30859 2.05344 12.9112
H 3.45445 1.55808 13.7676
H 2.90532 1.43753 12.2344
O -2.34946 -9.29063 4.38549
H -1.48819 -8.79314 4.48923
H -2.28153 -9.91617 3.60824
O 3.56149 -4.10319 -7.08012
H 3.25503 -4.80623 -6.43836
H 3.12477 -3.23242 -6.85414
O 0.470031 -5.35618 -7.0325
H 1.21318 -5.46621 -6.37245
H 0.321261 -6.21994 -7.51399
O 6.30281 -4.29187 14.4317
H 6.20144 -3.84617 13.5422
H 7.26127 -4.25672 14.7148
O 7.4622 -7.7444 -7.79328
H 6.84602 -6.98722 -7.57637
H 8.05551 -7.92644 -7.00914
O 7.19785 -12.5752 12.8232
H 6.42856 -12.2566 12.2693
H 7.67149 -11.7887 13.2196
O -13.6445 -13.3223 0.554371
H -14.3611 -12.6294 0.635212
H -12.8937 -13.0993 1.17606
O -13.4504 -11.9401 -7.88423
H -12.5707 -11.4656 -7.85267
H -13.8432 -11.9755 -6.96527
O 9.89171 1.99447 -14.3293
H 10.3824 2.20032 -13.4826
H 10.3424 2.45253 14.8956
O 14.6528 -5.45172 -8.98884
H 14.239 -4.54498 -9.06996
H -14.6254 -5.556 -9.68235
O -9.75247 0.881634 0.183032
H -9.63896 0.58693 1.13188
H -8.9374 1.3811 -0.110641
O 8.72245 -2.94006 10.4455
H 9.48997 -2.37477 10.1432
H 8.87597 -3.88779 10.1658
O -1.64165 11.261 9.00089
H -2.25754 12.0193 9.21439
H -1.14526 10.9922 9.82635
O 13.6009 -0.645788 4.51674
H 13.5923 -0.0994305 3.67921
H 13.9158 -1.5716 4.30753
O 2.46146 -6.50655 12.4405
H 1.82584 -6.65837 13.1975
H 2.83626 -5.58136 12.5005
O 11.5275 -7.28743 5.64391
H 12.077 -6.47597 5.84294
H 10.9709 -7.51711 6.44233
O -14.6577 4.21211 6.27957
H -14.5262 4.24579 7.27033
H 14.556 3.62027 6.06642
O -5.6058 -5.95629 3.09909
H -5.0902 -6.49617 3.76448
H -6.169 -5.2842 3.57987
O -13.5226 11.5928 -10.5388
H -13.2166 12.5419 -10.4633
H -13.446 11.2925 -11.4896
O -9.10688 7.44094 10.8174
H -8.95693 7.21648 9.85455
H -10.0196 7.83375 10.9299
O 12.996 -9.2975 4.37957
H 12.5483 -8.51941 4.82017
H 12.5347 -10.1432 4.6478
O -1.17891 -11.2131 -7.40625
H -1.79788 -10.4749 -7.13783
H -0.331121 -11.145 -6.88026
O 8.74387 10.8311 -10.2575
H 8.14214 10.3488 -10.8941
H 9.68323 10.5103 -10.3787
O 14.9648 -12.6268 -13.2725
H 14.8467 -11.767 -12.7757
H -14.0655 -12.7347 -13.5282
O -7.43341 -14.5291 -1.00495
H -6.595 -14.9797 -1.31167
H -7.20463 -13.6541 -0.578292
O -11.5802 -2.95959 11.6257
H -10.7763 -3.08919 12.2063
H -11.5981 -2.0191 11.2863
O 13.4751 4.94398 -12.86
H 14.072 4.54936 -13.5586
H 13.6854 5.91565 -12.752
O 5.86797 1.57389 3.01372
H 6.42277 1.07725 2.3462
H 6.31777 2.43657 3.24507
O 4.39874 8.90897 13.5694
H 4.61707 9.79224 13.1545
H 5.23147 8.50231 13.9452
O 11.111 0.125121 8.38132
H 11.8238 0.00972394 9.07312
H 10.4101 0.749718 8.72586
O -14.4213 -8.57539 13.7596
H -13.7949 -8.40216 12.9996
H -14.4782 -9.55967 13.927
O 6.26364 8.38034 11.1781
H 5.9868 8.84734 12.018
H 5.55292 7.73069 10.9082
O -4.95307 1.83323 12.1805
H -5.81485 2.2342 12.4913
H -5.14306 1.09762 11.5303
O -10.3519 -12.3635 -0.106531
H -10.107 -13.0057 0.619854
H -9.62247 -11.6879 -0.214113
O -6.54223 13.4827 1.65788
H -5.86672 12.7465 1.69822
H -7.22288 13.2725 0.956038
O -13.5539 13.405 -14.4573
H -14.4863 13.3997 -14.0957
H -13.1217 12.5213 -14.2775
O 5.36078 -14.9133 -3.39967
H 6.04524 14.3559 -3.29769
H 5.47264 -14.242 -2.66695
O 11.1228 2.02561 3.35016
H 10.4317 1.43887 3.7723
H 10.8247 2.28362 2.43113
O -3.76524 6.51228 -6.35719
H -4.44138 7.01632 -6.89461
H -4.21237 5.74977 -5.88955
O -8.53331 -3.30203 -0.119512
H -8.14713 -4.22113 -0.0410461
H -9.52845 -3.35014 -0.0334004
O 8.42156 -5.70321 7.07676
H 8.10042 -4.81129 7.39519
H 8.72284 -6.24789 7.85944
O -11.7136 13.594 -5.08562
H -11.8888 13.041 -5.90022
H -11.6062 14.5524 -5.35012
O -2.11692 9.43848 -13.355
H -1.8856 10.1395 -12.6805
H -1.64818 8.58591 -13.1238
O -5.31633 4.83358 -10.5968
H -5.93605 4.35053 -9.97817
H -5.37473 4.42954 -11.5096
O -1.9336 -11.4428 12.7964
H -2.44163 -11.096 13.5848
H -1.34823 -12.2008 13.0843
O -13.2269 -4.17118 -13.7641
H -12.9587 -4.61713 -14.6181
H -12.484 -3.58053 -13.4489
O -8.80907 7.29089 0.319851
H -9.23184 8.05643 -0.165182
H -7.85879 7.51641 0.534709
O -7.30435 8.16644 -14.4088
H -8.23567 8.09926 -14.7668
H -7.32979 8.15341 -13.4092
O 11.1276 0.199237 -4.60689
H 12.0554 0.57125 -4.57853
H 10.6501 0.555251 -5.41022
O 12.8542 -6.19849 -2.38114
H 13.1152 -5.57098 -1.64758
H 12.8444 -5.70735 -3.25219
O 3.39848 7.05056 -8.99268
H 4.26661 7.54565 -9.02831
H 2.66495 7.68168 -8.74037
O -4.82176 5.25574 -3.8022
H -5.57163 4.6241 -3.6053
H -3.95694 4.75372 -3.81199
O -12.2273 12.0984 7.70723
H -11.4368 12.2171 7.10631
H -13.0095 11.7822 7.17046
O 4.7827 -11.2506 11.6937
H 3.89021 -11.4563 12.0952
H 5.31703 -10.6988 12.334
O 7.05978 14.8309 4.45508
H 6.67138 -14.2389 4.47808
H 7.10742 14.466 5.38491
O -8.77871 12.9886 -0.17844
H -8.51627 13.578 -0.942509
H -9.73867 12.7255 -0.274856
O 1.19794 9.12649 -8.95491
H 0.733218 9.08841 -8.07024
H 0.716735 8.54348 -9.60957
O -9.70139 -7.91527 -10.7233
H -9.3389 -7.21986 -10.1028
H -9.1585 -8.75105 -10.6409
O -6.46422 7.75945 -4.05674
H -5.849 7.00672 -3.82231
H -6.01666 8.63077 -3.85542
O -3.61508 3.79611 13.7706
H -4.04233 3.36347 14.5645
H -4.14373 3.58151 12.9493
O -13.6822 13.3882 12.5737
H -14.3786 14.1004 12.4854
H -13.5092 13.2093 13.5423
O -6.11251 8.86777 3.78726
H -5.55347 8.07613 3.54065
H -5.6034 9.45123 4.42005
O -6.22367 -6.48335 11.5901
H -7.06245 -6.22287 12.0683
H -6.39514 -6.50719 10.6052
O 6.90861 0.287377 -5.63184
H 7.51497 -0.490062 -5.79904
H 6.5089 0.207976 -4.71863
O 1.09908 11.0302 1.34609
H 0.652921 11.9237 1.29468
H 2.08125 11.1388 1.19252
O -9.52281 13.1538 -12.1504
H -9.70624 13.548 -13.051
H -10.2128 12.4602 -11.9433
O 11.5966 -2.52117 9.04093
H 11.3199 -1.56286 8.96941
H 12.55 -2.61513 8.75413
O -14.5876 -0.498674 6.72957
H 14.4634 -0.369357 6.41387
H -14.0407 -0.897652 5.99352
O -7.95265 9.85677 -11.6524
H -7.3842 10.6261 -11.3607
H -7.37814 9.04894 -11.7842
O -2.55283 11.1108 -1.99054
H -1.59405 10.9328 -1.76894
H -3.0386 11.3957 -1.16419
O 14.29 -2.85897 8.71008
H 14.3444 -3.73114 9.1963
H 14.9424 -2.85861 7.95217
O 5.22793 11.7195 5.61308
H 5.08925 11.8768 4.6353
H 6.12561 12.0681 5.88274
O 7.64172 8.49065 -0.67038
H 7.73391 8.27313 0.301333
H 8.10542 9.35528 -0.863853
O 3.39962 14.5562 -9.69001
H 2.61651 -14.8174 -9.76423
H 3.27698 13.7856 -10.3155
O 3.1462 13.666 -4.07458
H 3.01859 13.7119 -5.06536
H 3.87797 14.2913 -3.8034
O 11.7918 7.99926 -1.00988
H 11.3755 8.78911 -0.559493
H 12.2764 7.44621 -0.332133
O 14.1269 -14.9451 11.7953
H 14.2535 14.9407 10.8089
H 13.6045 -14.1121 11.9773
O -13.8977 12.6727 -2.62178
H -13.0034 12.9236 -2.99209
H -14.0734 13.1986 -1.78957
O -12.2044 -1.76036 -7.87781
H -12.1448 -2.73348 -8.10035
H -12.5218 -1.65273 -6.93563
O 10.5241 5.49388 -14.875
H 10.6432 5.05611 -13.9838
H 9.5803 5.3727 14.8087
O 14.2406 13.9029 -9.07945
H 14.0381 14.495 -9.85947
H 13.9578 12.9669 -9.2892
O -4.04651 -10.2219 6.4917
H -3.31606 -9.90779 5.88523
H -4.8733 -9.68509 6.32355
O 14.3759 10.8161 -3.88655
H 13.4401 11.0844 -4.11516
H 14.7751 11.4931 -3.26812
O -3.32595 -14.7041 5.87772
H -2.50915 -14.4028 5.38568
H -3.65985 -13.96 6.45649
O 5.14234 4.97136 -0.187813
H 5.8373 5.18341 -0.874905
H 4.24825 4.89793 -0.629686
O -6.11501 8.00799 0.474522
H -5.30159 7.59821 0.0616537
H -6.32609 8.86888 0.0115441
O 8.5014 -2.63635 -2.81724
H 8.54854 -2.3115 -3.76185
H 8.44208 -3.63459 -2.81062
O -6.90184 1.10639 -14.5424
H -6.3913 0.246777 -14.564
H -7.0665 1.41981 14.5134
O 14.0978 -5.77207 3.05191
H 14.9027 -6.28168 2.74779
H 13.2898 -6.10369 2.56499
O 13.119 -0.796544 -7.59874
H 13.9463 -0.304091 -7.32816
H 12.518 -0.182618 -8.11051
O -1.92606 0.756346 -7.62557
H -2.40446 0.127236 -7.01288
H -2.47836 0.907777 -8.44537
O -10.6203 0.871374 -13.2558
H -11.0878 1.14458 -14.0965
H -10.0657 0.0580937 -13.4321
O -0.677242 -13.1401 5.3295
H -0.468759 -14.1181 5.32206
H -0.808116 -12.8344 6.27259
O 3.25562 -8.31142 -8.56418
H 3.43232 -9.23861 -8.23384
H 2.29395 -8.08176 -8.41422
O 6.53844 -11.0628 -0.112289
H 6.405 -10.2604 -0.693974
H 6.48931 -10.7899 0.848512
O 3.30493 -4.255 8.24704
H 2.88094 -5.05387 8.67374
H 3.3647 -3.51288 8.91467
O -7.74115 5.41732 11.8895
H -6.921 5.98923 11.8719
H -8.53893 5.97119 11.6512
O -12.0943 8.51015 5.4659
H -12.2312 7.62611 5.01894
H -11.9929 8.37329 6.4513
O 11.3482 14.9293 13.0935
H 11.6869 -14.1545 12.844
H 12.1218 14.3276 13.2918
O -10.9949 -7.88884 1.59665
H -10.797 -7.90323 2.57678
H -10.5954 -7.06825 1.18794
O -11.5285 8.78369 11.3795
H -11.1285 9.54333 10.8667
H -12.4116 9.06397 11.7559
O 4.53736 -12.7464 -6.35862
H 4.50246 -12.1904 -5.52814
H 5.0969 -12.2837 -7.04626
O -14.0783 -11.3717 8.6623
H -14.3239 -10.4077 8.76426
H -14.9042 -11.9103 8.49532
O 10.4613 -10.5216 -3.40758
H 9.82049 -11.1048 -2.90828
H 10.6518 -9.69971 -2.87071
O -4.29981 -6.5934 -5.43662
H -4.1577 -7.55784 -5.65956
H -3.63565 -6.035 -5.93374
O -4.88244 -8.85066 -13.23
H -5.34277 -9.72295 -13.065
H -4.07043 -9.00362 -13.7933
O 5.39674 11.5747 -3.41054
H 5.39588 10.7619 -3.99319
H 4.47711 11.9666 -3.38379
O -11.0852 -2.83594 -12.9199
H -10.9258 -2.42767 -12.021
H -10.6491 -3.735 -12.9597
O 1.33295 -8.3209 -3.09074
H 0.709108 -8.30031 -3.87205
H 1.95873 -9.09531 -3.18418
O 10.6739 -12.8038 -14.4955
H 10.6405 -11.9596 14.9606
H 10.7662 -12.5801 -13.5252
O 6.37457 5.52985 3.69415
H 6.35228 5.07303 4.58345
H 5.62633 5.1885 3.12524
O 14.1102 8.84412 13.9767
H 13.5094 8.10728 13.6667
H 13.7014 9.29625 14.7695
O 6.939 2.05735 -13.9334
H 6.43088 2.19992 -13.084
H 7.69881 2.70583 -13.9802
O 12.3206 -1.91768 -12.3093
H 13.2308 -1.54288 -12.1327
H 12.1597 -2.69987 -11.7073
O -10.9025 -12.1258 -6.12284
H -11.6367 -12.3148 -5.47078
H -10.1833 -12.8135 -6.0236
O -12.4758 -0.261305 -10.2398
H -12.321 -0.756933 -9.38511
H -11.6001 0.0544083 -10.6053
O -14.1736 3.93661 9.02966
H -14.3353 2.95654 8.91415
H -13.2274 4.08677 9.31651
O 1.85544 4.38354 -5.76791
H 1.3019 4.42825 -6.59955
H 1.59117 5.12518 -5.15133
O -2.09813 -14.4427 10.2644
H -2.85074 -13.8371 10.523
H -1.54141 -14.0008 9.56094
O -10.2078 10.281 4.70648
H -10.4167 10.5117 3.75614
H -10.7879 9.52132 5.0004
O -3.11759 9.78895 -8.49003
H -2.28326 9.23772 -8.48152
H -3.53143 9.78133 -7.57969
O -9.67774 12.125 -7.25117
H -8.74847 11.8716 -6.98227
H -9.63916 12.8189 -7.97026
O 1.51597 -12.7499 10.7931
H 2.03771 -13.5994 10.7137
H 1.54423 -12.4286 11.7397
O -9.20354 3.59735 1.9416
H -8.52978 2.97975 1.53582
H -9.67629 4.09785 1.21632
O 2.51928 1.61299 -6.44358
H 3.51166 1.73206 -6.47586
H 2.12741 2.25755 -5.78705
O -11.3658 6.83261 1.36142
H -11.13 6.94338 2.32692
H -10.5368 6.8999 0.806073
O -1.28973 5.15882 -5.86272
H -2.04164 5.81498 -5.92707
H -0.793753 5.13405 -6.73072
O 8.60672 10.5634 13.2084
H 8.49927 11.3262 13.846
H 8.05961 10.7343 12.3889
O 2.86559 -10.2863 6.79257
H 2.49171 -10.4146 5.87399
H 3.07948 -9.31958 6.93328
O 11.36 -13.0672 -0.623058
H 10.4694 -12.7512 -0.950123
H 11.4789 -12.7978 0.332644
O 10.4383 -13.903 6.05083
H 10.2405 -13.9979 5.07518
H 10.7141 -14.7894 6.42282
O -11.4867 -9.52119 -14.9702
H -11.0033 -9.33411 14.1656
H -11.6609 -8.66105 -14.4908
O -9.04945 -3.08908 13.0767
H -8.28076 -2.72317 12.5521
H -8.78242 -3.95525 13.4992
O -0.234463 4.06318 10.8531
H -0.808129 3.27839 11.0878
H 0.46423 4.18782 11.5576
O 14.2907 -14.4475 -11.4388
H 14.67 -13.8622 -12.1555
H 13.3397 -14.6671 -11.6563
O -2.18742 10.501 13.8755
H -2.80782 9.82841 13.4722
H -1.95062 10.2204 14.8057
O 5.27001 -1.76997 -14.262
H 5.60824 -0.916136 -13.8663
H 6.04297 -2.31975 -14.5787
O -12.1295 -12.9683 13.4608
H -11.5291 -12.3069 13.9105
H -11.6201 -13.8086 13.2755
O 8.4053 -10.1295 -9.09779
H 8.26608 -9.243 -8.65638
H 9.26925 -10.525 -8.78607
O 8.72923 -12.0107 -1.69354
H 7.87873 -11.5949 -1.37126
H 8.51784 -12.744 -2.33971
O -12.0726 -5.98584 -6.73991
H -12.3485 -6.29415 -5.8295
H -11.1086 -6.20645 -6.88859
O 7.09594 -1.63088 -10.9244
H 7.0393 -1.22358 -11.8359
H 6.63699 -2.51936 -10.9272
O 8.59208 -13.4957 0.830863
H 7.95993 -13.0203 0.218931
H 8.43629 -14.4816 0.770581
O 13.0136 -12.7226 12.7385
H 13.9961 -12.5884 12.8677
H 12.5136 -11.9896 13.1998
O 2.31799 -0.104493 11.2012
H 2.52768 -1.05887 10.9885
H 2.29042 0.427334 10.3548
O -9.715 -7.54578 -1.23338
H -9.50735 -8.13629 -2.01327
H -10.0755 -8.09948 -0.482716
O -7.66139 -10.1163 -10.7178
H -7.69814 -10.7645 -11.4784
H -6.93441 -10.3848 -10.0858
O -0.782384 -13.4681 -0.191799
H -0.765901 -14.0869 0.593628
H -0.777787 -14.0023 -1.03715
O -1.97205 -3.46282 8.34657
H -2.95782 -3.36688 8.20836
H -1.5117 -3.48556 7.4591
O 8.83115 -5.41538 0.831503
H 8.16374 -5.27972 1.56375
H 9.578 -4.7585 0.935318
O -12.573 2.13183 -14.9125
H -12.4889 2.09013 14.083
H -13.0808 2.95395 -14.6551
O -3.28506 -10.2361 -11.2299
H -3.47535 -9.82241 -12.1202
H -3.60735 -11.1827 -11.2264
O 10.1943 3.89902 -1.877
H 9.66512 4.74194 -1.97443
H 10.5988 3.65561 -2.75859
O 3.15199 -14.6903 1.27513
H 2.94511 -13.7614 0.967687
H 4.01056 -14.9945 0.862411
O -9.54392 -8.78563 9.15093
H -10.092 -9.01134 8.34548
H -8.57262 -8.85344 8.92288
O 2.43864 -11.3759 13.3867
H 2.4319 -12.3345 13.6714
H 2.50302 -10.7889 14.1938
O 14.7893 6.75684 6.05631
H 14.9843 5.7761 6.04441
H -14.843 7.17818 5.22338
O -12.2143 -11.4919 2.48946
H -12.4441 -10.8474 3.21871
H -11.2641 -11.7863 2.59199
O 4.25174 4.03248 2.25971
H 4.44313 3.05486 2.17218
H 4.3631 4.47491 1.36983
O -13.8854 4.50333 2.74026
H -14.8708 4.50619 2.56999
H -13.5437 3.56418 2.70454
O -1.37049 11.5015 -11.5649
H -1.63332 11.7294 -10.6274
H -1.56546 12.2782 -12.1639
O 5.81022 0.47402 -2.76928
H 6.52798 0.730136 -2.12177
H 5.14266 1.21549 -2.83735
O -13.7201 -5.64854 -11.258
H -13.5078 -5.0952 -12.0635
H -13.332 -6.56331 -11.3703
O -9.74303 11.0053 -3.88562
H -10.4572 11.473 -4.40655
H -9.52005 10.1378 -4.33022
O -10.0319 14.3644 -14.7688
H -10.3859 14.5856 14.3135
H -10.3585 -14.9491 -14.1099
O -14.6402 0.70066 -7.16193
H -14.2661 1.43211 -7.73207
H -14.1899 0.710512 -6.26913
O -12.5899 -14.3811 -6.48177
H -12.5655 -13.7271 -7.2379
H -13.4576 -14.8781 -6.49881
O -11.6297 -3.43877 6.32287
H -11.5764 -2.76319 7.05827
H -11.2699 -3.04149 5.47861
O 5.96475 -10.5261 2.49764
H 6.14713 -11.2698 3.14086
H 4.98371 -10.4818 2.30884
O 5.10049 -13.1321 -9.92082
H 5.3745 -12.9222 -10.8594
H 4.93379 -14.1143 -9.834
O 14.5346 5.5094 -6.95641
H -14.9931 5.86966 -7.76607
H 13.8399 6.16125 -6.65227
O -4.4972 1.09967 -5.09385
H -4.90826 1.79134 -5.6877
H -5.02954 1.0254 -4.25057
O 9.04025 6.54821 -1.7563
H 8.45351 7.23036 -1.31989
H 9.92551 6.52384 -1.2918
O -8.50046 -2.8503 7.96745
H -7.68374 -3.36854 7.71359
H -9.1059 -3.42895 8.51394
O -13.8201 2.41464 -9.31789
H -13.4842 1.60183 -9.79387
H -13.1144 3.12311 -9.3294
O -2.91005 8.48405 1.3267
H -3.43426 9.13809 0.781291
H -3.33549 7.58121 1.2641
O -11.8037 8.43696 8.09987
H -12.6098 8.86188 8.51182
H -11.7766 7.46753 8.34384
O 0.255735 11.8845 -3.7199
H -0.128306 11.3157 -2.99261
H 0.886145 11.3389 -4.2721
O -7.23368 11.774 -3.27521
H -8.21892 11.6036 -3.25869
H -7.06504 12.7588 -3.23215
O 6.81082 7.4526 -5.60022
H 6.76232 6.46489 -5.74894
H 7.65622 7.67546 -5.11475
O -4.5188 9.45869 12.7274
H -4.74822 10.0221 11.9337
H -4.12777 8.59156 12.4188
O -6.69985 11.0106 7.00986
H -6.02786 10.2899 7.18017
H -7.60765 10.6031 6.91029
O 0.507823 -14.0545 -3.0773
H 0.440379 -14.5494 -3.94364
H 0.134647 -13.1336 -3.18963
O -9.69493 -0.219626 -2.52899
H -9.49709 0.241027 -1.66372
H -10.5869 -0.668045 -2.47154
O -0.988895 -1.25838 14.7315
H -1.46349 -0.527795 -14.7686
H -0.833652 -0.977321 13.7844
O -3.73178 -11.7889 -4.19756
H -3.75721 -11.7196 -3.20027
H -3.14746 -12.5556 -4.46363
O -14.7529 3.64404 -5.22751
H -14.4797 4.13519 -4.40038
H -14.9465 4.30069 -5.95648
O 12.8578 -14.3261 -14.0432
H 13.6066 -13.7091 -13.801
H 12.1743 -13.8275 -14.5764
O -13.3322 9.27473 -6.7189
H -12.6869 10.0281 -6.59216
H -13.265 8.93242 -7.6561
O -8.51661 7.04564 8.31049
H -8.50447 7.43017 7.38744
H -7.96765 6.21001 8.33071
O 7.60263 -8.38465 -2.13937
H 7.4972 -7.72556 -1.3947
H 8.5734 -8.49298 -2.35365
O -4.72367 3.42843 9.32373
H -4.75611 3.44914 10.323
H -3.82689 3.74327 9.01275
O 1.58545 -10.6111 4.39467
H 0.904793 -11.3363 4.29055
H 2.19251 -10.6072 3.6
O -13.2008 0.544441 12.2689
H -13.6073 0.0457046 13.0344
H -13.6904 1.40602 12.1348
O 13.8497 -6.93445 -11.7178
H 14.2539 -7.58101 -12.3648
H 14.5472 -6.28418 -11.4167
O 10.2177 5.68427 -6.09125
H 9.9183 6.60032 -6.35814
H 9.47049 5.21252 -5.62315
O -8.73169 -0.593995 9.8709
H -9.70723 -0.535003 10.0827
H -8.60908 -1.04835 8.98853
O 14.8668 11.9712 3.06769
H 14.7463 11.0985 3.54087
H -14.3364 12.4526 3.45188
O -10.9615 5.40705 5.97398
H -10.8938 5.51315 6.96605
H -10.1921 5.87187 5.53579
O 5.40748 -0.61235 8.78855
H 6.24396 -0.18689 8.44311
H 5.1171 -0.146304 9.62433
O -4.77129 3.37935 6.62694
H -5.1123 3.05511 7.50933
H -5.49987 3.31717 5.94477
O -8.28256 -6.77344 5.75401
H -8.62576 -6.646 4.82341
H -8.04393 -7.73464 5.89256
O -12.2733 -1.14946 -1.87146
H -12.6606 -0.697268 -1.06801
H -12.9594 -1.18325 -2.59813
O -5.44706 10.9515 1.86997
H -5.73459 10.2682 2.54121
H -5.99722 10.8558 1.04038
O 10.2511 -2.01657 12.747
H 9.92002 -2.50908 11.9421
H 11.251 -2.0003 12.7398
O -8.9294 3.86131 9.70618
H -8.39993 3.02484 9.5647
H -8.3919 4.50862 10.2467
O -10.1808 10.379 -13.1745
H -9.76281 10.6037 -14.0548
H -9.46584 10.1417 -12.5169
O 10.8398 -11.0478 -8.27185
H 10.4332 -11.9512 -8.13522
H 11.8366 -11.1281 -8.2765
O 2.13204 -3.77406 12.1761
H 1.41825 -4.37258 11.8123
H 1.80606 -3.33827 13.015
O -6.74871 3.38589 -3.60385
H -6.70965 2.38667 -3.59515
H -7.59535 3.68253 -4.04572
O -10.0946 3.15747 4.5535
H -10.563 3.95593 4.93177
H -10.031 3.24815 3.55963
O 14.8918 14.2858 -0.676881
H 14.3881 14.8846 -1.29954
H -14.2019 14.6834 -0.485138
O 5.2745 -11.5521 -12.4321
H 4.96764 -10.9462 -13.1661
H 6.19721 -11.2911 -12.1483
O 8.22989 5.32046 7.15911
H 9.14127 5.63941 6.89891
H 7.99357 4.51152 6.62078
O 11.4516 0.578303 -9.22066
H 11.7023 1.27528 -9.89252
H 10.712 0.0133316 -9.58664
O -11.0333 -6.34611 6.82125
H -11.3117 -5.39641 6.67778
H -10.0508 -6.38141 7.00446
O 3.15319 -1.68949 -5.76788
H 2.79256 -0.781544 -5.5543
H 3.70257 -2.01903 -5
O -14.5627 -11.706 5.04321
H -13.6943 -12.1719 5.21295
H -14.5481 -10.8052 5.47722
O -7.66547 5.4409 2.98782
H -8.25619 4.79343 2.50628
H -6.74479 5.40482 2.59911
O -7.23194 4.98327 -0.762444
H -7.03068 4.83358 -1.7305
H -7.86664 5.75035 -0.668685
O 2.1678 7.91338 12.5055
H 2.38973 7.58491 11.5874
H 2.98401 8.31283 12.9229
O -8.84964 -12.0579 5.41253
H -8.05457 -11.768 5.94535
H -9.5911 -12.3141 6.03272
O 5.17532 1.99862 -6.89673
H 5.29487 2.20107 -7.86872
H 5.95937 1.47278 -6.56689
O 11.2355 -4.06451 0.967633
H 11.5445 -5.00187 1.12865
H 10.8595 -3.68747 1.81408
O -1.2906 -3.70623 -13.7347
H -1.0596 -2.82402 -14.1451
H -0.630711 -4.39574 -14.0333
O -12.7631 7.43096 14.1757
H -13.1785 7.24486 -14.925
H -13.4816 7.60895 13.5033
O 3.22658 7.97392 1.73743
H 3.37543 7.90492 2.7239
H 3.75648 8.73977 1.37313
O 3.6062 4.40105 -14.1438
H 3.91737 4.78476 -13.2744
H 3.12279 5.10464 -14.6647
O -0.166316 7.32871 0.751746
H -0.94664 7.92336 0.945451
H -0.069418 6.65629 1.48557
O 9.87121 -8.96468 -6.35286
H 10.3577 -9.60949 -6.94245
H 10.5314 -8.37425 -5.88854
O 11.3487 10.2792 0.985044
H 11.1425 10.5114 1.93564
H 12.1104 10.8411 0.662403
O -3.11817 -2.43484 -7.03781
H -3.33165 -2.29024 -8.00402
H -2.89879 -3.39854 -6.88551
O -6.27338 5.9305 14.0938
H -7.00563 5.59122 13.5033
H -6.53433 6.81898 14.4714
O 1.05594 4.11652 13.0551
H 1.35483 4.86376 13.6487
H 1.78961 3.44192 12.9733
O 2.45041 12.1978 -1.97986
H 1.66312 11.722 -2.37197
H 2.82877 12.8297 -2.65634
O -14.2457 -0.344914 -13.9661
H -13.5086 0.330919 -13.9711
H -14.0164 -1.09281 -14.5891
O 2.61409 11.3394 -7.98787
H 3.49227 11.2101 -8.44844
H 1.97667 10.626 -8.27926
O -1.1229 -6.50482 1.40967
H -1.09828 -7.35958 1.92815
H -0.258651 -6.38659 0.92065
O -10.7181 -9.53822 7.03043
H -10.9092 -8.78169 6.40497
H -11.0531 -10.3924 6.63256
O 12.1891 -8.35607 10.1442
H 11.6946 -8.39374 11.0126
H 11.62 -8.74436 9.4194
O 11.6228 -10.0355 0.104295
H 11.5156 -10.6861 0.856201
H 10.7516 -9.57426 -0.0641277
O -6.80404 14.8669 -3.97175
H -6.20674 14.8491 -4.7736
H -6.29005 -14.7929 -3.1805
O -7.48556 3.87063 -9.0431
H -7.96547 4.69061 -9.35514
H -8.07927 3.35021 -8.42933
O -11.7569 14.1992 10.1208
H -12.3641 13.7947 9.43692
H -11.8718 -14.7985 10.1227
O 14.4067 -1.07753 -0.0807445
H 13.5971 -0.512209 0.0769746
H 14.3842 -1.43935 -1.01274
O -11.812 5.93315 11.6601
H -11.9823 5.37045 12.469
H -11.8403 6.89985 11.9145
O -1.85782 1.94704 11.5777
H -2.70636 2.12027 12.0777
H -1.30031 1.28979 12.0849
O -10.3619 11.131 9.47076
H -9.65315 11.7554 9.14218
H -11.2387 11.3742 9.056
O 13.2914 -13.7699 -2.62517
H 12.4509 -13.3988 -2.23038
H 13.1311 -14.0135 -3.58173
O 10.8375 -8.1587 12.6417
H 11.6487 -7.6836 12.9825
H 10.0212 -7.62464 12.8621
O -13.044 14.0872 -8.92765
H -14.0391 14.1228 -8.83545
H -12.7451 14.7803 -9.58363
O -14.295 -7.36711 -0.756141
H 14.8101 -7.80557 -0.907126
H -13.5834 -8.06684 -0.691751
O 5.55728 9.31304 -13.1655
H 4.70552 9.82587 -13.058
H 6.32172 9.95151 -13.2551
O -8.50003 12.7736 8.24712
H -8.67197 12.7218 7.26336
H -7.74993 12.1574 8.48732
O -6.95958 3.43347 5.23551
H -7.22382 4.16706 4.60936
H -7.58151 2.65857 5.12244
O -7.33566 -9.56674 4.98446
H -7.97559 -10.3315 4.9091
H -7.09502 -9.24211 4.06972
O -1.49193 13.7119 -2.6484
H -0.639328 13.2699 -2.92739
H -2.24536 13.0583 -2.72099
O 8.33458 -4.74821 -12.4283
H 8.47873 -4.08014 -13.1583
H 7.42621 -4.61715 -12.0311
O -14.3382 -12.419 -2.31054
H 14.7959 -12.7879 -2.67026
H -14.4731 -12.1245 -1.36443
O -14.6949 -6.1711 6.79825
H -14.5746 -5.21042 6.54795
H 14.3937 -6.2978 7.20982
O 13.9811 -13.3146 8.17521
H 13.4565 -13.2105 7.33025
H 14.4441 -14.2009 8.17301
O 13.8329 -2.67221 -9.36998
H 13.9467 -2.33975 -10.3062
H 13.5834 -1.90938 -8.77341
O 3.92951 -0.819975 6.43549
H 4.55925 -1.1586 7.13464
H 2.9895 -1.03226 6.70261
O -13.9636 8.70989 -1.35048