2611
Atoms. Timestep: 8000000
O -10.1033 -1.59675 -1.4202
H -9.49373 -2.36615 -1.22932
H -10.3671 -1.15928 -0.56053
O -7.86678 11.9161 -10.704
H -8.58248 11.5414 -11.2934
H -7.96007 11.5362 -9.78371
O 12.1028 14.3492 -10.3911
H 11.7154 15.0585 -10.9801
H 12.5277 14.7749 -9.59217
O 12.4188 -6.83114 -0.719615
H 12.7845 -7.16007 0.151068
H 11.4665 -6.55177 -0.596926
O -14.38 -11.8279 7.27025
H -14.7871 -12.326 6.50457
H -14.8114 -10.9293 7.35038
O -12.5161 -6.14601 2.37733
H -11.8829 -5.66554 1.77047
H -12.4035 -7.13301 2.26255
O -8.7614 -10.3029 -3.50617
H -7.81863 -10.0132 -3.67118
H -9.235 -9.60585 -2.96785
O -4.79247 -6.00588 6.23252
H -5.50542 -6.37343 5.63535
H -4.3818 -5.20065 5.80478
O 10.1871 -5.12481 0.224486
H 10.3746 -4.89909 1.18046
H 9.99551 -4.28574 -0.284707
O -5.51926 14.1326 -8.07425
H -5.48091 13.3199 -8.65572
H -5.0862 14.9007 -8.54595
O -2.0261 -15.0761 11.4831
H -2.56812 -14.4289 10.9471
H -2.56954 14.271 11.6649
O -2.93978 -1.68975 10.8789
H -2.5674 -2.31878 10.1965
H -3.63918 -1.11418 10.4552
O -4.0874 1.22469 11.3483
H -4.8639 0.802239 11.8158
H -3.61219 1.83821 11.979
O 2.4289 -13.4784 6.06661
H 2.20711 -12.5047 6.0148
H 2.90006 -13.6676 6.92815
O -8.54429 -10.6848 -14.8669
H -8.63647 -10.6917 -13.8712
H -7.7866 -10.0864 15.0392
O 10.3152 -2.46901 9.05492
H 11.0153 -2.21242 8.38855
H 10.7247 -3.04209 9.76474
O -10.792 4.46742 -2.13143
H -11.7605 4.52734 -1.88976
H -10.6383 3.65446 -2.69311
O 2.1328 7.32059 9.99255
H 2.3785 8.15142 9.4932
H 2.86764 6.64828 9.90304
O 0.181936 -13.3786 10.4435
H 0.164174 -12.6391 11.1165
H -0.67357 -13.8941 10.4921
O -5.00757 -14.7711 -12.1778
H -4.33135 -14.6033 -12.8951
H -5.662 14.7073 -12.491
O -9.89752 2.1947 -11.4463
H -10.6392 2.57182 -10.8915
H -9.15603 1.88988 -10.8485
O -4.74971 -11.9554 0.330985
H -3.94778 -11.4451 0.641798
H -4.51165 -12.9214 0.230139
O -3.10589 -5.05587 13.101
H -3.42361 -5.94571 13.4285
H -3.61962 -4.79916 12.2823
O -10.4853 2.21011 -3.77292
H -9.92052 2.62848 -4.48423
H -10.3074 1.22656 -3.74153
O 10.763 -14.3687 12.8399
H 10.1141 15.0482 12.7098
H 10.2888 -13.5823 13.2357
O -10.7419 15.035 3.1445
H -11.4484 14.4158 2.80187
H -10.3773 14.6809 4.0057
O -6.81571 11.0211 10.731
H -5.95092 10.7249 11.1365
H -6.72033 11.9557 10.3884
O -6.59629 0.833993 13.2892
H -6.25517 0.905689 14.2265
H -7.51755 0.445144 13.2986
O -1.91203 -7.11266 -7.1484
H -2.5373 -7.43833 -7.85762
H -1.42993 -6.30029 -7.47649
O -9.40531 9.77238 -9.02502
H -9.55916 9.90772 -8.04623
H -8.65292 9.12724 -9.15809
O -13.647 -14.2151 -7.06415
H -14.0419 -15.0534 -7.44003
H -14.3814 -13.6056 -6.76539
O 1.15692 -11.0164 5.9979
H 0.788333 -10.6775 6.86349
H 1.47222 -10.2451 5.44504
O -10.8153 7.81927 -11.6354
H -10.8315 7.1831 -12.4068
H -9.89374 8.19313 -11.5309
O 12.1987 15.0532 -14.9664
H 11.8455 -14.8037 14.3174
H 12.2109 14.0536 -14.9443
O -0.41075 -9.15043 -12.253
H -0.200817 -10.1004 -12.4841
H 0.242642 -8.54471 -12.707
O 7.47209 -6.01374 -7.07589
H 8.18037 -6.0116 -7.78182
H 7.06623 -6.92556 -7.0137
O 11.8913 4.47821 -3.07268
H 12.5694 5.20447 -3.18517
H 11.2536 4.49535 -3.84284
O 3.65799 -8.98292 -5.87684
H 2.85792 -8.39714 -6.00632
H 3.78948 -9.15661 -4.90085
O -2.26706 14.5725 -8.45091
H -1.29569 14.365 -8.56673
H -2.36951 -14.6636 -8.0993
O 9.19616 -0.452156 -13.1042
H 9.17761 -0.596518 -12.1148
H 9.32752 -1.32905 -13.5666
O -13.8008 -0.752894 -12.9457
H -14.7528 -0.51715 -13.1409
H -13.6102 -0.594664 -11.9768
O -2.51893 -15.0503 3.15384
H -1.68656 -14.6887 2.73391
H -2.9263 -14.3516 3.74193
O 8.82856 -3.96297 -11.6344
H 9.17573 -4.77382 -11.1633
H 9.37298 -3.16628 -11.3719
O 12.6672 1.67539 -3.25253
H 12.4375 2.62293 -3.03018
H 12.8773 1.17714 -2.41133
O 6.33644 -10.677 9.83976
H 7.26979 -10.5926 9.49085
H 5.79136 -11.2242 9.2046
O -13.432 0.461202 -10.3908
H -13.658 1.19092 -11.0362
H -12.5159 0.615353 -10.0208
O 7.87951 -12.4788 -1.1139
H 8.6802 -12.4755 -0.514834
H 8.04226 -13.095 -1.88446
O -7.10015 0.104798 -5.88839
H -7.28675 -0.331082 -5.00794
H -7.29956 -0.538418 -6.62766
O 7.29762 6.99286 -12.8494
H 7.49687 6.93668 -11.871
H 7.09867 7.94158 -13.0951
O 13.0501 -0.82595 -7.6841
H 12.4395 -0.566882 -8.43251
H 13.0983 -1.82293 -7.62321
O 13.5274 0.161318 9.14162
H 12.819 0.587532 9.70414
H 13.2049 0.0887797 8.19784
O -12.448 12.6876 -3.8816
H -12.8167 13.6078 -4.01294
H -11.5477 12.6246 -4.31231
O 14.2455 5.59413 5.95878
H 14.0386 5.40606 4.99868
H 14.994 5.00343 6.26033
O -3.12301 9.51747 -4.05428
H -2.43193 9.23013 -3.39107
H -3.90542 9.91057 -3.57126
O 9.20083 -9.204 8.90935
H 9.56726 -8.43535 9.43366
H 9.47081 -10.063 9.34431
O -8.16212 -7.41849 -13.4232
H -8.23699 -6.99199 -14.3246
H -9.06203 -7.43719 -12.9875
O 14.9304 -13.6018 -10.3205
H 14.2823 -13.7701 -11.0632
H 14.5727 -13.9908 -9.4715
O 14.7242 -2.65308 -5.26752
H 14.7906 -3.48226 -5.82255
H 13.823 -2.2385 -5.39407
O 2.18793 13.8709 9.45297
H 1.30421 14.2753 9.68858
H 2.63798 13.5457 10.2846
O -4.64881 -11.1776 4.53208
H -5.28678 -11.7232 3.98864
H -4.65187 -10.2338 4.20149
O -7.46472 4.22291 7.04344
H -8.30951 4.73047 7.21292
H -6.98682 4.07264 7.90891
O -8.35489 -1.21 2.78019
H -7.53275 -1.72442 3.02407
H -8.09386 -0.308304 2.43548
O 12.4441 -10.7633 9.86352
H 12.5281 -9.88232 10.3292
H 11.4769 -10.9753 9.72339
O 11.938 5.72365 0.968375
H 11.5554 4.94153 0.476508
H 11.2291 6.41779 1.0936
O 5.73998 0.539071 -7.3635
H 5.79643 -0.12436 -6.61739
H 6.01607 1.44038 -7.02969
O -9.65903 -2.5312 -5.80122
H -10.4012 -3.20068 -5.7698
H -8.79589 -2.99909 -5.99116
O 11.4873 -8.6316 12.6798
H 11.0152 -8.8988 13.52
H 12.4733 -8.60728 12.8448
O 12.4762 -12.156 7.15476
H 12.1012 -11.8822 6.26908
H 13.2735 -11.5914 7.36811
O 14.7254 -5.39416 -6.00704
H 14.1958 -5.9642 -5.37892
H -14.8917 -5.97826 -6.60446
O 7.0753 -2.23397 -13.4096
H 7.54192 -2.59821 -12.6036
H 7.71847 -2.18595 -14.1738
O -3.95753 3.86659 8.77539
H -3.37199 3.13226 9.11878
H -4.63656 4.10391 9.47009
O 4.74972 4.85148 14.6559
H 5.50235 4.3923 14.184
H 4.85665 4.73753 -14.523
O -12.7362 11.1385 0.104101
H -12.7095 10.9102 -0.869126
H -11.806 11.2971 0.434896
O 5.17197 -5.33748 -11.731
H 5.34732 -4.53578 -11.1596
H 4.84872 -5.0418 -12.6299
O 0.622096 -14.5237 -10.0177
H -0.273597 -14.2903 -10.3962
H 1.0929 -13.6877 -9.73583
O -7.72 -6.24744 -5.09798
H -7.1776 -6.98447 -5.5012
H -7.28212 -5.36879 -5.28838
O -14.8446 -10.1417 4.05272
H -14.862 -10.9957 4.5728
H -14.5551 -10.329 3.11403
O 11.7627 -14.2466 8.72607
H 12.5711 -14.1848 9.31148
H 11.7955 -13.5244 8.03518
O -1.18823 -6.78622 1.10548
H -1.61967 -6.18601 1.77899
H -1.77899 -6.86515 0.302498
O -4.94458 2.84619 -14.4518
H -5.06544 1.85352 -14.4509
H -5.42358 3.24105 -13.6678
O 0.57269 8.48074 11.8733
H 1.02251 8.06377 11.0835
H 1.22016 9.07513 12.3503
O -11.9192 6.72043 8.06854
H -11.0718 6.44222 7.61632
H -12.3997 7.38508 7.49636
O 9.68089 -12.5758 0.808993
H 9.94808 -13.5337 0.914495
H 10.4602 -11.9869 1.02315
O 5.81403 6.95189 5.31238
H 5.08286 6.9155 5.99361
H 6.58399 7.47524 5.67745
O 13.8764 10.558 -2.57189
H 14.8557 10.499 -2.37821
H 13.42 11.0552 -1.83399
O 7.86303 3.82242 7.66809
H 7.36678 3.93991 6.80789
H 8.79924 4.15722 7.56121
O -9.03607 -1.51124 7.03085
H -8.86181 -2.34774 6.51133
H -9.85916 -1.06559 6.67881
O -5.13716 10.8733 5.14592
H -5.41876 10.2811 4.39093
H -4.1569 11.0585 5.07655
O -14.9841 -1.13923 3.41649
H 14.4245 -1.78762 3.34527
H -14.7294 -0.822584 2.50279
O -4.85357 -10.7964 -9.23998
H -4.40759 -11.6801 -9.38171
H -5.50622 -10.8695 -8.48586
O -0.917938 -13.1205 -5.13599
H -0.824444 -14.0629 -4.8149
H -0.935963 -13.1092 -6.13577
O 5.64625 4.66909 -12.9707
H 6.12178 5.53364 -13.1333
H 6.0274 4.22654 -12.159
O 7.23087 5.55564 -10.2648
H 7.87781 5.88584 -9.57743
H 6.68929 4.80785 -9.88072
O 10.5016 12.0708 -11.0701
H 10.9284 12.975 -11.0566
H 9.77789 12.054 -11.76
O -6.72253 -14.1443 14.5826
H -6.44154 -13.2946 14.1362
H -6.40777 -14.9246 14.0421
O 0.378317 14.2843 6.49771
H 0.18268 14.1991 7.47469
H 1.32563 14.5789 6.37191
O -0.546812 13.6354 9.04693
H -0.735911 12.6989 9.3422
H -1.34924 14.2072 9.21774
O -6.24501 10.6783 -6.85918
H -7.01459 11.1596 -7.2788
H -5.38646 11.0666 -7.19404
O 12.6171 -2.04081 6.23764
H 12.8702 -1.65683 5.34966
H 12.0587 -2.85892 6.10008
O -1.49683 6.47818 0.235405
H -1.67655 5.91988 1.04535
H -0.56143 6.82971 0.273748
O -13.4626 -13.5195 14.3931
H -13.0176 -14.2637 14.8913
H -13.724 -12.7984 15.0347
O -7.99218 13.856 7.8719
H -7.39222 13.7551 8.66554
H -8.76223 14.4481 8.10933
O -14.6475 -0.915106 10.7794
H -14.7523 -1.90947 10.7958
H 14.7558 -0.507721 10.2781
O 13.1173 -9.13271 -2.04669
H 12.2602 -9.25311 -2.54763
H 13.1246 -8.23316 -1.60992
O 2.94406 -1.76631 9.17869
H 2.61831 -0.865516 9.46585
H 3.91964 -1.71541 8.96499
O 3.09264 5.50727 3.98867
H 2.80633 6.39803 3.63571
H 3.10131 4.84056 3.2434
O 9.02748 13.5303 12.6244
H 9.38951 12.6178 12.815
H 8.3498 13.4736 11.8912
O 7.02983 14.0533 -10.9579
H 8.02139 14.1589 -11.0333
H 6.81255 13.107 -10.7188
O 13.7324 -13.0668 10.5732
H 14.0387 -13.0082 11.5233
H 13.4023 -12.1716 10.2736
O 7.43896 5.47564 -3.92372
H 8.05132 5.16145 -4.64919
H 7.96124 5.99798 -3.24964
O 10.7722 -4.19268 5.81108
H 10.533 -5.13152 6.05884
H 9.96705 -3.7306 5.43939
O -8.47535 -1.12537 -8.02228
H -8.04519 -1.85957 -8.54756
H -9.10616 -1.51926 -7.35375
O -1.99552 -0.166165 -11.972
H -2.11858 0.581919 -11.3199
H -1.94515 0.20485 -12.8992
O 5.37565 -8.6513 4.00935
H 5.83046 -7.94395 3.46823
H 5.3629 -8.37841 4.97132
O 13.171 -13.8865 -12.7414
H 13.2505 -14.3608 -13.6182
H 12.2531 -14.0249 -12.3696
O 1.73034 10.285 -10.7602
H 0.816737 10.5013 -11.1045
H 2.40358 10.8721 -11.2097
O -13.9555 6.36222 0.539437
H -14.8114 6.78904 0.247573
H -13.7829 5.5481 -0.0150588
O -8.14378 2.79993 -0.565068
H -8.97533 3.10457 -1.02953
H -8.34369 2.63182 0.400221
O -8.30136 -3.44932 -0.739491
H -8.32598 -4.24079 -1.35021
H -7.69301 -3.64133 0.0306063
O -5.69991 6.26301 -14.5457
H -5.68352 5.74532 -13.6903
H -6.11125 5.70411 14.9009
O 14.5168 -9.2149 8.26766
H 14.7279 -8.2807 7.9801
H 13.568 -9.26102 8.5802
O -4.08976 2.54389 6.15968
H -3.77686 3.09258 6.93495
H -3.85284 1.58454 6.31309
O -13.3551 -12.1125 12.1944
H -12.4457 -11.8517 11.8701
H -13.2679 -12.8083 12.9072
O -9.33927 10.8302 5.14096
H -9.88721 10.0982 4.73608
H -8.95022 11.3963 4.4142
O -1.86611 9.19276 13.1109
H -1.02112 8.96714 12.626
H -2.11173 8.43936 13.7208
O -8.12114 7.58985 -10.3412
H -8.6337 6.78205 -10.6323
H -7.52438 7.89175 -11.0847
O 5.02844 -5.03133 -5.57802
H 5.95596 -5.37909 -5.71506
H 5.05321 -4.25496 -4.94823
O 7.91482 -3.3642 8.73461
H 7.62465 -3.78764 9.59281
H 8.81294 -2.94214 8.85813
O 3.63054 14.2402 -1.94846
H 2.69787 13.95 -1.73424
H 3.90832 14.963 -1.3157
O -5.20969 -8.1642 12.6308
H -4.83572 -8.15709 11.7034
H -4.47152 -8.01623 13.289
O -13.4679 -9.65028 14.7462
H -13.8182 -8.75925 15.0349
H -13.9462 -10.3737 -14.9226
O 14.9878 -10.7606 -9.5837
H -14.6967 -10.3484 -10.3568
H 14.982 -11.7553 -9.68653
O -10.9916 -8.20463 10.8194
H -10.3455 -7.45386 10.9569
H -11.8172 -8.0368 11.3582
O 13.3382 9.45635 13.3113
H 13.4719 10.4362 13.1627
H 12.8052 9.3154 14.1456
O 9.65678 12.4327 6.72482
H 8.914 13.0025 6.37323
H 10.204 12.9615 7.3736
O 9.80034 -11.4371 10.2339
H 9.54074 -11.3186 11.1924
H 9.39902 -12.2828 9.88201
O 14.3162 -7.65233 4.28201
H 14.8461 -7.35241 5.07529
H 14.4802 -8.62542 4.12017
O 9.2542 -2.55047 -15.0153
H 9.45336 -3.52763 15.0771
H 9.44793 -2.10355 14.278
O -5.99862 7.47974 -6.49602
H -6.10797 8.47112 -6.56824
H -5.05263 7.26561 -6.25257
O -9.49732 6.20653 6.42549
H -8.92602 6.80195 5.8606
H -10.2588 5.85861 5.87866
O -2.69675 2.80526 13.1044
H -1.69756 2.84535 13.0997
H -3.06782 3.7306 13.0264
O -12.0112 -0.370927 14.2157
H -11.9135 0.102863 -15.0757
H -12.9532 -0.282151 13.892
O 8.26851 2.49698 -0.933845
H 7.72845 3.32713 -1.07235
H 7.9511 2.02632 -0.110595
O 2.93356 -7.74555 14.3322
H 2.4464 -7.39754 13.5313
H 3.91507 -7.59176 14.2182
O 12.2866 9.40483 -14.3573
H 13.2287 9.3859 -14.0224
H 11.6564 9.37242 -13.5815
O 11.6094 -12.0917 -4.41532
H 10.9031 -11.7321 -3.80545
H 11.8115 -11.4173 -5.1255
O 5.58004 10.9602 -0.96247
H 4.90509 10.2247 -1.02252
H 5.45223 11.4608 -0.106284
O -1.05542 -9.56378 14.1145
H -0.790449 -8.764 14.6531
H -1.12609 -9.30781 13.1504
O -7.64726 8.26695 11.7497
H -8.29437 7.60435 11.3726
H -7.53792 9.02749 11.1096
O 6.40885 -7.70714 -10.5095
H 5.95202 -6.96952 -11.0067
H 5.88526 -7.92876 -9.68686
O -7.26221 5.37276 13.4552
H -6.60995 4.6534 13.2162
H -8.19427 5.02878 13.3414
O 2.2637 7.7998 3.04279
H 2.21296 8.21103 3.95291
H 3.22187 7.70585 2.77243
O -3.60013 -8.19229 -9.32967
H -3.67151 -7.68295 -10.1873
H -4.12329 -9.04147 -9.4018
O 8.13713 -2.66998 5.9434
H 8.22413 -2.84118 6.92479
H 7.5072 -3.33575 5.54346
O -14.3645 2.54455 14.1893
H -14.2875 1.70556 13.6506
H 14.8495 2.67909 14.4623
O -1.67663 13.4062 5.00144
H -2.13924 13.9753 4.32158
H -1.22958 13.9918 5.67764
O 9.34462 7.0994 -14.7337
H 8.6519 6.80829 -14.0738
H 10.2451 7.08724 -14.2989
O -8.15622 14.669 -7.01826
H -7.24789 14.4753 -7.38899
H -8.22676 -14.5242 -6.80048
O 6.10306 11.6334 -10.4622
H 6.52215 10.92 -11.0237
H 5.28005 11.2722 -10.0238
O -12.7489 -2.53831 -8.38586
H -12.7222 -1.63071 -8.80486
H -12.7801 -2.44521 -7.39069
O -13.0879 10.2017 -2.35828
H -12.9054 10.9984 -2.93448
H -12.8386 9.36881 -2.85247
O 2.80534 9.87029 -0.110476
H 2.09276 9.52028 0.497582
H 3.41884 10.4687 0.404786
O -1.48036 -12.3679 -12.0519
H -0.542962 -12.1638 -12.3341
H -2.06922 -12.4123 -12.8589
O -4.67237 -8.71751 3.27717
H -5.44374 -8.25304 2.84212
H -4.18338 -9.26164 2.5954
O -5.62991 3.45788 13.1174
H -5.90653 2.50491 12.9935
H -5.06183 3.53628 13.9366
O -8.87814 4.5911 9.44775
H -9.28952 5.26899 10.057
H -8.06078 4.20837 9.87838
O 9.07002 13.4305 -0.352075
H 8.15842 13.7321 -0.631392
H 9.63471 13.2805 -1.16364
O -9.16254 -12.4686 -7.9644
H -9.50038 -12.8639 -8.81854
H -9.90323 -12.443 -7.29302
O -5.00664 -6.25519 -0.0117064
H -5.25657 -6.16041 0.951912
H -5.68882 -5.79487 -0.579817
O -11.0299 10.1672 11.311
H -10.4005 10.0452 12.0784
H -10.5555 9.96186 10.4549
O -3.08927 10.3912 2.85727
H -3.95303 9.89793 2.96025
H -2.62724 10.4427 3.74264
O 12.1688 12.4047 -6.18809
H 11.1997 12.2752 -5.97814
H 12.3699 12.0159 -7.08719
O 11.8148 -8.22487 2.92862
H 11.8335 -8.70512 3.80556
H 12.6935 -7.77196 2.77778
O 10.0652 -5.97474 2.97654
H 9.69882 -6.42874 3.78875
H 10.6895 -6.59466 2.50126
O -11.0513 -12.595 -6.1158
H -11.6037 -13.4284 -6.13712
H -11.211 -12.1113 -5.2553
O 5.9602 -0.511908 -3.61827
H 6.27597 0.38297 -3.93369
H 5.82787 -1.11496 -4.40493
O -8.70193 -11.2784 -12.0202
H -7.8654 -11.7428 -12.3109
H -9.43796 -11.9481 -11.9216
O -7.45301 -2.3054 10.0857
H -7.43965 -3.15906 9.56499
H -8.04836 -1.64507 9.62792
O -3.46511 7.42862 -5.97322
H -3.5374 8 -5.15572
H -2.53705 7.48859 -6.3408
O -5.24148 14.4378 2.26023
H -5.13083 14.8781 3.15124
H -4.6282 14.8676 1.59756
O 13.3322 -9.12263 -11.239
H 14.0424 -8.54067 -11.6352
H 13.5769 -9.35271 -10.2971
O 14.1761 -7.65569 1.48412
H 14.5118 -7.32157 2.36485
H 14.7487 -8.41527 1.1756
O 9.82102 -10.9302 -2.60701
H 8.95737 -10.7224 -3.0663
H 9.81782 -10.5259 -1.69238
O -4.36759 7.69564 2.36493
H -3.83538 8.11054 1.62695
H -4.54469 6.73541 2.14902
O -7.46565 1.51486 10.1143
H -8.45263 1.62827 10.2283
H -7.04358 1.35211 11.0061
O -5.59976 4.92498 10.6266
H -5.54229 4.54938 11.5516
H -4.99953 5.72136 10.5523
O -10.6913 -4.8352 8.56977
H -10.3135 -5.44844 9.26348
H -10.727 -5.309 7.68986
O -6.68266 14.1938 -1.18518
H -5.78923 14.6106 -1.01763
H -6.97781 14.4016 -2.11775
O -3.6763 3.21273 -6.03835
H -3.28962 4.13489 -6.04947
H -4.2794 3.11371 -5.24685
O -7.71587 11.3057 -0.599354
H -7.14993 10.4901 -0.478391
H -7.13605 12.1201 -0.576622
O 12.184 5.08482 7.63381
H 12.4153 5.41816 8.54782
H 12.8925 5.36704 6.98695
O 9.49034 11.8606 -5.90578
H 9.38327 11.4037 -6.78883
H 9.50642 11.1767 -5.17639
O -0.191538 6.42343 3.69972
H 0.697436 6.72225 3.35268
H -0.333244 6.79509 4.61722
O -6.55144 5.97481 -2.67511
H -5.64026 6.23924 -2.35913
H -7.11833 5.72838 -1.88903
O -3.00467 -11.2731 -14.766
H -3.38404 -10.8515 -13.9424
H -2.17623 -10.7842 -15.0393
O 11.4021 13.0728 4.14242
H 12.0243 12.4455 3.67419
H 10.6589 12.5527 4.5635
O 12.1741 8.83143 6.44244
H 12.9942 8.62877 6.97756
H 11.5179 9.32579 7.0125
O 9.09383 0.11407 -5.3195
H 8.9525 -0.870609 -5.21732
H 10.0697 0.300707 -5.43323
O -14.5507 -10.5172 1.30334
H -13.7647 -10.5883 0.689108
H 14.9993 -11.2886 1.1462
O -12.635 -14.5661 -10.768
H -13.4262 -14.051 -10.4383
H -12.2202 -15.0638 -10.0062
O 12.697 -3.05857 14.0812
H 13.1566 -2.54414 13.3572
H 12.0289 -3.68181 13.6747
O -0.270232 -6.54473 6.36993
H -1.0839 -7.0835 6.58829
H 0.132651 -6.19219 7.21456
O -12.8283 -2.42822 -5.63843
H -12.4012 -2.73679 -4.78849
H -13.8209 -2.39838 -5.521
O 13.9535 12.0763 10.409
H 14.9426 12.1544 10.5335
H 13.4864 12.6456 11.0856
O 8.65831 4.12119 -12.0497
H 8.29171 4.8326 -11.4502
H 7.90808 3.55798 -12.3961
O -10.8818 11.3466 7.37919
H -10.4622 11.9283 8.07596
H -10.1766 11.0166 6.75166
O 7.36583 14.7757 10.8022
H 6.77637 -14.9683 11.4906
H 6.90594 13.9767 10.4147
O -3.9259 7.2627 10.8736
H -4.46223 8.08243 11.0746
H -3.90539 7.11185 9.88521
O -0.367362 4.28417 7.49413
H -1.16447 4.23369 6.8924
H 0.24528 5.0076 7.17581
O 7.48865 -2.84322 -3.50544
H 7.76164 -3.06637 -2.56966
H 6.71522 -2.20967 -3.48492
O -3.49008 9.47244 -12.7796
H -2.62017 9.39339 -13.2664
H -4.19464 9.80301 -13.4075
O -13.9208 10.6399 12.125
H -13.0332 10.5663 11.6703
H -13.785 10.8988 13.0813
O 4.30891 0.79114 -14.784
H 3.77584 1.08369 -13.9901
H 5.26083 1.07524 -14.6694
O 7.82648 -0.164916 10.5481
H 6.91727 -0.465414 10.26
H 8.22516 -0.848403 11.1596
O -4.07499 -9.11041 -13.1302
H -3.48101 -8.42766 -12.7047
H -4.92192 -9.18948 -12.6044
O -1.31299 -10.8563 7.71568
H -2.29667 -10.9592 7.56803
H -0.964011 -11.6555 8.20502
O -2.02591 1.73918 -14.1708
H -1.71369 2.45677 -13.5483
H -2.64333 2.13374 -14.8514
O 12.7641 2.42017 14.6095
H 11.9507 2.45656 -14.9765
H 12.7826 3.22131 14.0113
O 7.72857 -14.977 -6.65129
H 7.51211 14.6247 -5.85501
H 8.68212 15.0432 -6.91456
O -5.29485 -0.622979 9.40358
H -5.99341 -1.22381 9.7922
H -5.55095 0.330891 9.56028
O 9.73611 10.2629 -3.88665
H 9.2085 10.0425 -3.06626
H 10.6133 9.78372 -3.85754
O -13.3943 11.834 14.6479
H -12.6897 12.3933 14.2112
H -12.9762 11.2628 -14.8124
O 1.60366 6.05769 -9.85778
H 2.16625 5.85678 -10.6597
H 2.03311 6.78561 -9.32326
O 7.70505 -13.5342 6.74691
H 6.74956 -13.3495 6.97702
H 8.24228 -13.6066 7.58723
O 7.78777 9.91889 -12.0257
H 8.50701 9.32247 -11.6694
H 8.20161 10.6663 -12.5454
O 4.73463 -3.75444 -14.108
H 5.27811 -2.95997 -13.8369
H 4.57258 -3.72662 15.0723
O -0.462514 -8.65622 -2.51491
H -0.369692 -7.6835 -2.30231
H 0.0232665 -9.19558 -1.82706
O 11.4437 3.20489 4.01803
H 12.2442 3.79604 4.11665
H 10.9471 3.45234 3.18607
O 3.69911 6.44134 6.63742
H 3.87994 5.88511 7.44854
H 3.45943 5.84523 5.87113
O -7.43013 8.34934 -12.7806
H -7.9785 8.74144 -13.5193
H -6.97876 7.51829 -13.1056
O 8.45911 0.383408 7.85173
H 9.31592 0.0929081 7.42571
H 8.29024 -0.166677 8.66959
O -1.81585 12.9451 -0.875024
H -2.32877 12.4087 -0.204791
H -2.45419 13.4334 -1.47004
O 13.0388 -14.3597 -8.30556
H 13.1776 -14.9227 -7.49086
H 13.0695 -13.3929 -8.05177
O -12.0844 -12.7402 8.63272
H -12.1262 -11.9699 9.26907
H -12.8859 -12.7227 8.03505
O 13.1029 6.11724 -6.98063
H 13.7209 5.62878 -7.59674
H 13.0771 5.65133 -6.09618
O -10.8222 -0.298038 5.29461
H -10.2498 0.258498 4.69242
H -11.7336 0.108787 5.35785
O -6.3577 -3.50049 12.4626
H -6.55881 -4.46942 12.3186
H -6.34038 -3.02908 11.5808
O -1.28944 12.8767 -6.1906
H -0.777029 13.4126 -6.86156
H -0.735791 12.0993 -5.89194
O -0.0125514 2.34244 10.7639
H 0.446277 2.24141 11.6467
H -0.0317944 3.30866 10.5069
O -6.19349 -6.51596 -8.31043
H -6.79781 -7.28298 -8.09481
H -5.94339 -6.55046 -9.27805
O -11.8409 0.67908 -6.43247
H -11.485 0.235587 -5.60989
H -12.8037 0.436727 -6.55171
O 6.75732 13.6384 -1.97871
H 6.66752 12.6516 -1.8441
H 5.96004 14.1016 -1.5916
O -5.3467 13.8842 12.8086
H -4.94863 13.448 12.0016
H -4.96978 13.4646 13.6343
O -11.7623 -13.6556 -1.08469
H -11.5783 -14.5567 -1.47732
H -11.2136 -13.5341 -0.257558
O -6.6896 13.2635 -12.7011
H -6.41297 12.7159 -13.4908
H -7.1745 12.6835 -12.0466
O -3.94566 -14.7002 -0.350499
H -3.09151 -14.6812 0.169177
H -3.76454 -14.4407 -1.2991
O -0.456702 -13.4229 5.19108
H 0.121085 -12.6148 5.30537
H 0.0334813 -14.2317 5.51591
O -7.2787 12.5811 2.59369
H -6.53292 13.2266 2.75843
H -7.837 12.9047 1.82977
O -9.86497 6.62108 10.7461
H -10.1514 7.06096 9.89496
H -10.6504 6.53902 11.3596
O 4.76182 -12.0716 -9.66202
H 5.09355 -12.7337 -8.98999
H 4.12904 -11.4362 -9.21957
O -5.49758 -1.99101 6.74133
H -6.47384 -2.10461 6.92573
H -5.05042 -1.59659 7.54413
O 9.14929 -13.8519 8.9514
H 8.71323 -14.5491 9.52045
H 10.1138 -14.0824 8.82235
O -12.3511 -9.23879 -3.43531
H -12.3132 -10.2381 -3.43168
H -13.2202 -8.93671 -3.04374
O -13.057 3.31159 5.78393
H -13.318 2.48269 5.28917
H -12.3829 3.08231 6.48609
O 6.97114 -11.4135 -7.22272
H 7.43201 -11.0786 -8.04458
H 6.41988 -12.2154 -7.45304
O -14.7512 13.5799 -8.36833
H -13.8921 13.3912 -7.89255
H -14.7037 13.2165 -9.29878
O -7.68693 14.6104 -3.78887
H -7.77727 -14.6755 -4.25367
H -6.86438 14.1443 -4.11478
O 0.333174 15.072 13.2097
H 0.0116321 14.5327 13.988
H -0.419653 -14.9565 12.5661
O -0.979188 8.32418 -7.38068
H -1.42487 9.08458 -7.85308
H -0.0288469 8.25442 -7.68398
O 3.97376 8.38875 -11.6263
H 3.48569 7.55124 -11.872
H 3.33953 9.16169 -11.6445
O -11.6956 1.60074 1.35314
H -11.3817 2.46278 1.7511
H -11.0295 0.881071 1.54917
O -14.3624 -4.34493 -9.1817
H 14.9153 -4.18682 -8.75163
H -13.7096 -3.65926 -8.85964
O 1.98538 0.953969 9.5317
H 1.93909 1.55925 8.73703
H 1.2375 1.17015 10.1594
O 2.8543 -5.45125 2.49111
H 3.25124 -5.75425 1.62472
H 2.54679 -6.2468 3.01318
O -8.10993 -6.33178 6.28281
H -9.08485 -6.54947 6.32914
H -7.61261 -7.10965 5.89863
O 11.2268 -11.7458 14.2202
H 12.1341 -11.8264 13.8074
H 11.3102 -11.345 -15.034
O -9.1589 -6.7571 2.81921
H -9.943 -7.14279 2.33295
H -9.43127 -6.51236 3.74976
O 0.984154 -8.43145 4.50132
H 1.72481 -8.01141 5.02573
H 0.109179 -8.04303 4.79038
O -14.9562 -4.36771 2.01971
H 14.2865 -4.59492 2.32776
H -14.3271 -5.09798 2.28593
O 12.1682 7.87477 3.89976
H 12.1056 7.93376 4.89606
H 11.3166 7.49922 3.53397
O 5.90478 -10.7371 6.42088
H 5.48604 -11.2924 7.13943
H 5.50724 -10.9815 5.53644
O -11.7143 5.51106 4.85435
H -12.3276 4.84945 5.28571
H -12.2451 6.29123 4.5234
O -12.1295 10.0795 -13.6198
H -12.1762 9.33567 -14.2865
H -12.3714 9.73117 -12.7142
O 4.5509 -4.13023 10.7549
H 4.54429 -3.46254 10.0105
H 4.28765 -5.02742 10.4003
O 14.0615 -4.13268 -2.83555
H 13.9425 -5.08202 -3.12639
H 14.1004 -3.53999 -3.64005
O -2.87965 7.10354 -15.0129
H -2.62704 6.56614 14.3491
H -3.85892 7.0015 -14.8379
O 7.89595 -5.33938 10.7637
H 8.52125 -6.09168 10.5562
H 7.80943 -5.2417 11.7551
O -11.1146 -11.7932 -3.30298
H -10.3138 -11.3072 -2.95294
H -11.3012 -12.5878 -2.7252
O 10.2881 -7.22491 10.7849
H 10.5684 -7.65864 11.6412
H 11.0832 -6.80374 10.3487
O 6.29709 4.30019 5.42002
H 6.028 5.20732 5.09643
H 5.58468 3.93524 6.01943
O -8.62116 -4.87671 -10.4361
H -8.79728 -5.43349 -11.2479
H -9.26056 -5.1328 -9.71114
O 13.8244 -0.416929 -13.6417
H 13.6455 -0.0659322 -14.5608
H 13.593 -1.3891 -13.6053
O 7.72847 -12.6723 2.9404
H 8.2086 -12.3797 2.11344
H 8.34003 -13.2307 3.50093
O 8.68181 -9.75025 6.34449
H 8.87018 -9.48595 7.29036
H 7.76804 -10.1523 6.28642
O -10.3206 3.89935 2.24804
H -10.4721 4.32238 3.1414
H -9.84242 4.54353 1.65103
O 2.01897 9.58892 -2.56326
H 2.76115 9.69077 -3.22569
H 2.38502 9.6754 -1.63669
O -11.5664 8.14024 -8.78198
H -10.7071 8.524 -9.1199
H -11.6618 7.19929 -9.10683
O -10.5014 14.2175 -1.38643
H -9.91844 14.2833 -0.57659
H -10.5826 13.2596 -1.66166
O 5.40058 -13.9617 12.2966
H 4.44418 -14.2487 12.3512
H 5.48176 -13.0128 12.6013
O -8.04279 -6.05854 -1.85094
H -8.75226 -6.59208 -1.39052
H -7.99488 -6.32762 -2.81287
O 8.17244 -6.70255 -0.736465
H 8.83829 -6.1852 -0.198879
H 7.28453 -6.24415 -0.697873
O -12.2504 -8.7816 4.48769
H -11.5561 -9.47455 4.682
H -13.1333 -9.22696 4.33878
O -6.61475 -12.638 -13.0118
H -6.01177 -13.2782 -12.5358
H -6.53622 -12.7774 -13.9989
O 5.32761 -14.3342 -0.381287
H 5.49096 -13.7617 -1.18478
H 5.13378 -13.7524 0.408644
O 13.8579 4.53319 3.39061
H 14.5349 3.93905 2.9562
H 13.6631 5.31008 2.79184
O -1.4965 11.5664 13.9725
H -1.81218 10.6561 13.7049
H -0.857951 11.9131 13.2854
O -4.12742 -4.90736 -12.9237
H -3.37174 -5.01919 -13.5691
H -3.81179 -4.39211 -12.1269
O 6.98896 1.91755 -12.3238
H 6.14206 1.43886 -12.0922
H 7.31224 1.60911 -13.2184
O -3.15434 -11.538 -4.99868
H -2.29031 -11.9976 -5.20397
H -3.91485 -12.1617 -5.17929
O 5.49395 -11.2958 -0.484695
H 5.92149 -10.7703 0.250885
H 6.13162 -11.9943 -0.80948
O 3.82777 -6.51745 9.86058
H 4.46326 -6.17244 9.16984
H 4.23512 -7.30374 10.3252
O 9.86834 -8.81503 -8.51547
H 10.0543 -8.62221 -7.552
H 9.18595 -9.5428 -8.5841
O 1.75264 -7.63566 -13.0165
H 1.49607 -6.68774 -12.8278
H 2.40146 -7.66024 -13.7771
O 13.1778 13.7684 1.07681
H 13.4641 13.4331 1.97436
H 13.954 14.2035 0.620386
O 2.21265 -13.3513 3.4406
H 2.61117 -12.4882 3.13052
H 2.45028 -13.5025 4.40013
O 6.64055 2.80198 -6.42717
H 6.42198 3.05304 -5.48419
H 7.61145 2.57209 -6.49438
O 12.6644 -6.19727 -14.0419
H 12.7267 -6.13112 -13.0461
H 11.7132 -6.07415 -14.3252
O -9.68625 12.7628 -4.23807
H -9.07915 13.5512 -4.13901
H -9.57825 12.1577 -3.44922
O 7.98436 10.8931 10.9399
H 7.58945 10.2436 11.5897
H 7.24981 11.37 10.4572
O -13.4679 2.58609 -3.37338
H -13.7634 1.63668 -3.47943
H -12.6193 2.72984 -3.88252
O -4.90461 4.89026 1.71737
H -3.90519 4.87533 1.74824
H -5.2675 4.18675 2.32842
O 6.66625 -6.84384 2.0657
H 5.82628 -6.61151 1.5753
H 7.34013 -6.11652 1.93572
O -3.98078 6.70754 8.2799
H -4.18772 6.80949 7.30687
H -3.84973 5.73936 8.49314
O -9.27855 -5.99991 10.7743
H -8.60769 -5.5976 10.1513
H -9.10536 -5.67664 11.7046
O -14.362 -8.52192 -1.72869
H 14.8879 -8.91924 -1.77073
H -14.416 -7.59881 -1.34797
O 12.8088 -5.29575 3.4858
H 13.1548 -6.17937 3.80124
H 11.8091 -5.30134 3.51004
O -3.52877 11.5572 -5.9082
H -3.42233 10.7211 -5.36997
H -2.65564 12.0433 -5.94508
O -4.24524 9.38187 -10.2082
H -3.55972 9.65291 -9.53247
H -3.83451 9.38633 -11.1199
O 12.9824 -6.61413 -4.14071
H 12.7228 -6.92338 -3.22584
H 12.1639 -6.53078 -4.70912
O -1.9496 -6.74348 9.67401
H -1.90976 -7.36524 8.89181
H -2.46974 -5.92669 9.42438
O 0.34901 -6.63831 -9.69587
H 0.113709 -7.56744 -9.41063
H -0.0565701 -5.98165 -9.06002
O -5.37364 11.6915 -9.65516
H -6.20664 11.8839 -10.1739
H -5.23264 10.7027 -9.60575
O 5.40254 8.502 -9.35368
H 5.38537 7.73723 -8.7096
H 4.7895 8.30685 -10.1193
O 0.456858 -12.19 12.9468
H 0.262857 -11.5806 13.7156
H 0.738168 -13.0848 13.2935
O 6.62548 -2.2334 -0.537376
H 6.4879 -1.45993 -1.1561
H 7.09989 -1.92146 0.28581
O 10.0024 -8.68417 -14.9028
H 9.03641 -8.9108 -14.7784
H 10.5545 -9.21257 -14.2578
O -14.38 -11.8062 -13.7193
H -14.0035 -11.5443 -12.8307
H 14.8472 -12.1281 -13.6016
O 12.463 2.32923 -7.96395
H 12.088 1.9437 -7.12089
H 13.462 2.31722 -7.92045
O 7.96024 1.35013 1.41135
H 8.61554 1.9611 1.85555
H 7.94988 0.470262 1.88646
O -10.0123 -10.6117 7.39436
H -10.6985 -11.3257 7.53356
H -9.31991 -10.936 6.74986
O 9.26708 -1.39641 -10.6084
H 10.0949 -1.20284 -10.082
H 8.46943 -1.05029 -10.1145
O 8.03565 2.64315 10.0432
H 8.0558 1.6763 9.78866
H 7.76366 3.19061 9.25185
O -10.2364 -5.30723 0.702484
H -9.48763 -5.37671 1.36165
H -10.2489 -4.3885 0.30778
O -0.238529 -9.15468 2.07685
H 0.0451174 -8.88113 2.99594
H -0.501715 -8.34384 1.55408
O -12.2349 -11.0598 -0.211529
H -12.6316 -10.9704 -1.12513
H -11.9654 -12.0102 -0.0567212
O 8.46128 -14.0486 -3.27901
H 9.3622 -14.2597 -3.65819
H 7.90927 -14.8819 -3.24758
O 10.7776 -0.439271 7.08329
H 11.4039 -1.11338 6.69172
H 11.2178 0.458582 7.09292
O 1.39703 -12.3 -8.31419
H 2.002 -11.5085 -8.40058
H 0.556707 -12.0277 -7.84546
O -0.672912 10.8261 9.42643
H -0.257223 9.98662 9.77639
H -1.34722 10.5966 8.72453
O -11.0235 0.561064 -9.08713
H -11.0448 0.734127 -8.10245
H -10.1213 0.797981 -9.44768
O -10.8116 3.1991 -7.11021
H -9.90343 3.1977 -6.69151
H -11.276 2.33839 -6.90175
O 13.6324 6.56829 -3.06978
H 13.6248 6.86287 -2.11418
H 14.5774 6.49404 -3.38817
O -2.79277 -11.2931 11.6235
H -3.1894 -10.4228 11.3313
H -2.93515 -11.411 12.6063
O 1.26921 2.34468 12.9621
H 1.59601 3.04137 13.6008
H 1.76537 1.49057 13.1181
O -7.63823 -2.51796 -11.19
H -7.82488 -3.49366 -11.0753
H -6.80466 -2.27731 -10.6928
O -4.18155 -10.2308 7.32085
H -4.97418 -10.6104 7.79796
H -4.31444 -10.3163 6.33341
O 10.9329 11.9538 -14.7693
H 11.5725 11.2507 -14.4583
H 10.8495 11.9115 14.4017
O -14.2706 -0.225774 7.26515
H -13.4999 -0.354434 7.88917
H -15.055 0.130012 7.7732
O 2.8809 -7.87769 -1.2414
H 3.23736 -8.40665 -2.01156
H 2.30101 -8.46318 -0.674887
O 2.87059 9.26711 -6.25943
H 2.52337 8.39544 -5.91355
H 3.30097 9.77435 -5.51277
O -4.10118 12.3924 14.8664
H -4.62153 11.9668 -14.5599
H -3.20905 11.9476 14.7875
O -6.30967 -2.66831 -15.0296
H -6.42641 -2.92051 14.1764
H -6.36042 -3.4893 -14.4609
O 12.0188 -11.2288 1.30026
H 12.897 -11.1122 0.836391
H 11.6658 -10.3345 1.57536
O 5.09688 -13.2942 -2.92712
H 5.84627 -12.8577 -3.42504
H 4.22322 -12.9492 -3.2702
O 9.65627 5.35491 6.42587
H 9.66178 5.15633 5.4458
H 10.5798 5.24511 6.7934
O -9.20346 -6.80957 14.4485
H -9.56967 -5.96053 14.0676
H -9.94804 -7.4638 14.5811
O 7.04904 14.5889 14.6379
H 6.48765 15.0494 13.9503
H 7.73878 14.026 14.1825
O -14.0516 14.8958 -0.14379
H -14.1465 14.2017 -0.857441
H -13.1647 -14.818 -0.23514
O -12.1629 12.4738 -12.0206
H -11.277 12.7895 -11.6808
H -12.0282 11.6837 -12.6185
O -13.5292 -14.8863 -4.28148
H -13.5377 -14.3072 -5.09671
H -14.0828 -14.4616 -3.56514
O -5.5674 3.31102 3.93077
H -4.99713 3.29929 4.75215
H -6.47187 2.94374 4.14769
O 8.30976 -0.384833 -1.79321
H 8.72737 0.497076 -1.57449
H 7.57055 -0.249129 -2.45288
O -11.4031 13.6778 5.54997
H -11.1428 12.8511 6.04873
H -12.1753 13.4746 4.94796
O -13.4874 0.546336 4.9212
H -13.8932 0.0406868 4.15984
H -13.895 0.238252 5.78084
O 2.4413 5.14631 13.1501
H 3.01711 5.1802 13.967
H 2.88318 4.58034 12.4541