LAMMPS data file via write_data, version 15 May 2015, timestep = 590000

4560 atoms
7 atom types
5040 bonds
3 bond types
7200 angles
2 angle types
10560 dihedrals
3 dihedral types
2400 impropers
1 improper types

-1.0763502675555259e-01 4.1387635026745990e+01 xlo xhi
-4.0433884491974936e-02 3.5938433884472119e+01 ylo yhi
-3.5711112484589691e-01 2.9555111124838550e+01 zlo zhi
-6.7234083837551181e-02 -1.7036217651000683e+01 -4.1707816797290791e-02 xy xz yz

Masses

1 12.0107
2 1.008
3 12.0107
4 12.0107
5 12.0107
6 12.0107
7 12.0107

Pair Coeffs # lj/cut/coul/long

1 0.06469 3.55
2 0.02772 2.42
3 0.06469 3.55
4 0.06469 3.55
5 0.06469 3.55
6 0 0
7 0.06469 3.55

Bond Coeffs # harmonic

1 469 1.4
2 367 1.08
3 469 0.7

Angle Coeffs # harmonic

1 35 120
2 63 120

Dihedral Coeffs # opls

1 0 7.25 0 0
2 0 7.25 0 0
3 0 7.25 0 0

Improper Coeffs # cvff

1 2.5 -1 2

Atoms # full

219 13 3 0.0000000000000000e+00 -3.4206934495772123e-01 3.1439182936570775e+00 3.1348380531116402e+00 1 0 0
220 13 4 -1.1500000000000000e-01 3.2024738570535916e-01 4.1129194759096110e+00 2.3687004335837192e+00 1 0 0
224 13 2 1.1500000000000000e-01 6.0597014913284530e-01 5.0133727357990336e+00 2.8078723531017657e+00 1 0 0
580 33 4 -1.1500000000000000e-01 2.6678033973815309e+00 6.7706401909162670e+00 3.9707353385355724e+00 1 0 0
228 13 3 0.0000000000000000e+00 -6.0276797076038990e-01 1.8707158270391564e+00 2.5701896928752328e+00 1 0 0
989 53 4 -1.1500000000000000e-01 -1.3405981335498400e+00 7.0579953189496560e+00 3.4920337519107107e+00 1 0 0
600 34 2 1.1500000000000000e-01 1.9485815459750633e-01 5.7768061577551935e+00 6.9195153918540804e+00 1 0 0
245 14 4 -1.1500000000000000e-01 -4.9212975454125578e+00 1.4342540341163810e+00 9.0531936610526937e+00 1 0 0
227 13 4 -1.1500000000000000e-01 -1.7681774766495773e-01 1.5635042103673993e+00 1.2579011870018699e+00 1 0 0
4390 233 1 -1.1500000000000000e-01 2.2955586240457211e+00 7.2022162516561439e-01 5.5035877704506708e+00 1 1 0
733 13 6 0.0000000000000000e+00 -4.1962917286854529e-01 2.4536137219981393e+00 2.9419157352138519e+00 1 0 0
1760 94 2 1.1500000000000000e-01 -5.3638053891101691e+00 1.4571702945135248e+01 1.3824453430495657e+01 1 0 0
230 13 1 -1.1500000000000000e-01 7.1852996059220187e-01 3.8815030775350392e+00 1.0377180206633061e+00 1 0 0
217 13 7 -1.1500000000000000e-01 -1.2292153404458945e+00 2.4231714414039702e+00 5.2822560037840214e+00 1 0 0
218 13 5 -1.1500000000000000e-01 -5.9795367089632112e-01 3.3893369051133382e+00 4.4921638103113253e+00 1 0 0
221 13 1 -1.1500000000000000e-01 -1.6160000607489287e+00 1.1889568405416786e+00 4.6852278712308166e+00 1 0 0
222 13 2 1.1500000000000000e-01 -1.3341175941213756e+00 2.5896473633424746e+00 6.3852544130924036e+00 1 0 0
223 13 2 1.1500000000000000e-01 -3.9599160708315218e-01 4.3367189921427132e+00 4.9457493832494208e+00 1 0 0
248 14 1 -1.1500000000000000e-01 -3.4648955048871009e+00 3.3199002129389363e+00 8.7160482290711307e+00 1 0 0
4380 233 4 -1.1500000000000000e-01 2.5502000011564108e+00 1.1313118572307665e+00 4.1857338679447320e+00 1 1 0
244 14 1 -1.1500000000000000e-01 -4.0859847306916599e+00 2.1576523482776340e+00 8.2292220963762226e+00 1 0 0
603 34 2 1.1500000000000000e-01 1.1058974803911861e+00 3.4965248398086768e+00 7.5522535695569770e+00 1 0 0
4396 234 5 -1.1500000000000000e-01 -7.3232302856599141e-01 2.0454791679652720e-01 9.2411607348586067e+00 1 1 0
4394 233 2 1.1500000000000000e-01 1.6238765822204466e+00 1.2225249063987276e+00 6.1707764598839860e+00 1 1 0
579 33 3 0.0000000000000000e+00 3.2923526238836338e+00 5.8106434257214987e+00 3.1678553363737199e+00 1 0 0
252 14 2 1.1500000000000000e-01 -2.8064639077472715e+00 3.9285504223461305e+00 8.1369768782582774e+00 1 0 0
581 33 1 -1.1500000000000000e-01 4.6906765772811001e+00 4.0776826663256358e+00 1.4772553558381667e+00 1 0 0
596 34 5 -1.1500000000000000e-01 -5.2370720336868359e-01 6.3363926739167784e+00 8.8881182904469878e+00 1 0 0
577 33 7 -1.1500000000000000e-01 4.1429596572785243e+00 5.2399396455684295e+00 9.4658638987551735e-01 1 0 0
588 33 3 0.0000000000000000e+00 3.8658562875428331e+00 4.6651254580305723e+00 3.7309920742572418e+00 1 0 0
589 33 4 -1.1500000000000000e-01 4.5327397274652999e+00 3.7304027372885695e+00 2.8736880759601462e+00 1 0 0
593 33 2 1.1500000000000000e-01 5.0058967489095112e+00 2.8585340236984069e+00 3.1755586474373469e+00 1 0 0
753 33 6 0.0000000000000000e+00 3.6242555070973261e+00 5.2018453874711694e+00 3.2930112950593444e+00 1 0 0
4383 233 2 1.1500000000000000e-01 2.9224341677886199e+00 1.4606860400108661e+00 1.6088935765089172e+00 1 1 0
4379 233 3 0.0000000000000000e+00 3.2676147849502630e+00 2.6022376748385267e-01 3.2904200090331543e+00 1 1 0
578 33 5 -1.1500000000000000e-01 3.4884525094555547e+00 6.1298419447955039e+00 1.8105573186104609e+00 1 0 0
226 13 1 -1.1500000000000000e-01 4.0147551583249991e-01 2.6389604170008956e+00 4.9568416314556418e-01 1 0 0
4384 233 2 1.1500000000000000e-01 2.0410417604271989e+00 1.9832927539607315e+00 3.7845273745398327e+00 1 1 0
586 33 1 -1.1500000000000000e-01 3.1606098121854691e+00 5.3870070015389384e+00 5.9823082723582717e+00 1 0 0
587 33 4 -1.1500000000000000e-01 3.7744570878324031e+00 4.4229435897243343e+00 5.1686755272188787e+00 1 0 0
585 33 2 1.1500000000000000e-01 5.1953121581128601e+00 3.4173885033554519e+00 7.4662802085260682e-01 1 0 0
591 33 2 1.1500000000000000e-01 3.1552367480210561e+00 5.1634133200122090e+00 7.0476587741305075e+00 1 0 0
592 33 2 1.1500000000000000e-01 4.1785401061220000e+00 3.4810881231813764e+00 5.5180891873117712e+00 1 0 0
590 33 1 -1.1500000000000000e-01 2.6818613286869550e+00 6.5542569322700146e+00 5.4038850072288582e+00 1 0 0
1010 54 2 1.1500000000000000e-01 -4.8841268751343998e+00 6.2961903569342441e+00 8.5661927549354200e+00 1 0 0
234 13 2 1.1500000000000000e-01 1.0097363038269367e+00 4.6692021184614489e+00 4.2131771779304117e-01 1 0 0
229 13 4 -1.1500000000000000e-01 -1.2208462547363030e+00 8.8999648831338007e-01 3.3383412675168449e+00 1 0 0
267 15 2 1.1500000000000000e-01 -8.3504657495434014e+00 1.7091506029325370e+00 1.4577916619800860e+01 1 0 0
985 53 2 1.1500000000000000e-01 -1.6985825324303434e+00 6.4168009821463112e+00 5.4922624587294315e+00 1 0 0
599 34 1 -1.1500000000000000e-01 6.5209935508168559e-01 4.1947808803039877e+00 8.2994346195741056e+00 1 0 0
4401 234 2 1.1500000000000000e-01 -1.0343231123990311e+00 1.1705005547083709e+00 8.8046835569261450e+00 1 1 0
225 13 2 1.1500000000000000e-01 -2.0845367357798854e+00 3.8236202790554008e-01 5.2297091388823365e+00 1 0 0
595 34 7 -1.1500000000000000e-01 1.2667067021752931e-01 5.4736974097430853e+00 7.9705825766601457e+00 1 0 0
981 53 1 -1.1500000000000000e-01 -1.3855023528287873e+00 7.1928189369845148e+00 4.8876279630619166e+00 1 0 0
4378 233 5 -1.1500000000000000e-01 3.4569994427986783e+00 5.3190202537533471e-01 1.9106895075911146e+00 1 1 0
582 33 2 1.1500000000000000e-01 4.2043388293930706e+00 5.5947593959014705e+00 -9.9312398321701578e-02 1 0 0
583 33 2 1.1500000000000000e-01 3.0197620441749828e+00 7.0109876836939451e+00 1.4589766105245103e+00 1 0 0
993 53 2 1.1500000000000000e-01 -1.8109824491097273e+00 6.1701799714731829e+00 2.9670813532736360e+00 1 0 0
232 13 2 1.1500000000000000e-01 -4.7575125317358169e-01 5.9520248522008057e-01 7.8294829498079599e-01 1 0 0
235 14 7 -1.1500000000000000e-01 -5.2396353483945628e+00 2.2471464934919947e+00 1.3164969955905324e+01 1 0 0
236 14 5 -1.1500000000000000e-01 -4.5376099288326301e+00 3.1572605014716371e+00 1.2331867529478989e+01 1 0 0
597 34 3 0.0000000000000000e+00 -6.0161999037230451e-01 5.9353599351133468e+00 1.0233953141046950e+01 1 0 0
734 14 6 0.0000000000000000e+00 -4.6099562361334838e+00 2.3415534295248706e+00 1.0512564579618408e+01 1 0 0
239 14 1 -1.1500000000000000e-01 -5.9041695409909627e+00 1.1088518659070097e+00 1.2651711234829367e+01 1 0 0
240 14 2 1.1500000000000000e-01 -5.2208838980834642e+00 2.3598654859323389e+00 1.4223088343982562e+01 1 0 0
243 14 2 1.1500000000000000e-01 -6.3221152684824764e+00 2.8576795894948465e-01 1.3271981830800218e+01 1 0 0
237 14 3 0.0000000000000000e+00 -4.4359993285151429e+00 2.9006514577216009e+00 1.0941463425463667e+01 1 0 0
4402 234 2 1.1500000000000000e-01 -1.9493387512448432e+00 1.7685615160788024e+00 1.1111860047415625e+01 1 1 0
1758 94 4 -1.1500000000000000e-01 -3.8523612316341564e+00 1.5969599604646936e+01 9.7724362044408046e+00 1 0 0
242 14 2 1.1500000000000000e-01 -3.2650042158191073e+00 4.6590623748726889e+00 1.0313837161177959e+01 1 0 0
4408 234 1 -1.1500000000000000e-01 -1.7610579248865079e+00 3.6121677735282071e-01 1.2746604983638759e+01 1 1 0
238 14 4 -1.1500000000000000e-01 -3.7154271324953765e+00 3.7380742706537440e+00 1.0037276155712437e+01 1 0 0
246 14 3 0.0000000000000000e+00 -5.0288566709297271e+00 1.7377269722183091e+00 1.0407435066805059e+01 1 0 0
604 34 1 -1.1500000000000000e-01 -9.8414881544057042e-01 4.9126477732214937e+00 1.2855629716140834e+01 1 0 0
605 34 4 -1.1500000000000000e-01 -4.0016802056835221e-01 4.1006582833057967e+00 1.1870634190928493e+01 1 0 0
606 34 3 0.0000000000000000e+00 -1.6614730599285554e-01 4.6078907139446530e+00 1.0589626816108037e+01 1 0 0
607 34 4 -1.1500000000000000e-01 4.0280829922256967e-01 3.7499406166490998e+00 9.6128183585788261e+00 1 0 0
611 34 2 1.1500000000000000e-01 8.1282182245254475e-01 2.8054224443401390e+00 9.8314637577228829e+00 1 0 0
610 34 2 1.1500000000000000e-01 -1.2442257845587790e-01 3.0824856009028609e+00 1.2065640976084767e+01 1 0 0
241 14 2 1.1500000000000000e-01 -3.9585217129750894e+00 4.0411844850513505e+00 1.2670093334791282e+01 1 0 0
1011 54 2 1.1500000000000000e-01 -6.2951797173662349e+00 6.2290114991745282e+00 1.0826087067877090e+01 1 0 0
598 34 4 -1.1500000000000000e-01 -1.1595929781619780e+00 6.7860494698098064e+00 1.1201215177167729e+01 1 0 0
754 34 6 0.0000000000000000e+00 -4.2326720859952705e-01 5.2772444525993087e+00 1.0502589113240862e+01 1 0 0
609 34 2 1.1500000000000000e-01 -1.3596751381703305e+00 4.4654573434053226e+00 1.3708489784853752e+01 1 0 0
4398 234 4 -1.1500000000000000e-01 -1.6238530266121334e+00 7.4443906678411620e-01 1.1413409600865542e+01 1 1 0
4412 234 2 1.1500000000000000e-01 -2.1952084765099737e+00 1.0406124637667302e+00 1.3564794365678377e+01 1 1 0
247 14 4 -1.1500000000000000e-01 -5.7432945180417168e+00 8.8613941058037726e-01 1.1243809130247817e+01 1 0 0
608 34 1 -1.1500000000000000e-01 -1.2760515457007822e+00 6.2809561242275143e+00 1.2528157450520494e+01 1 0 0
612 34 2 1.1500000000000000e-01 -1.7063836808180151e+00 6.9763183287090920e+00 1.3171472581119071e+01 1 0 0
979 53 3 0.0000000000000000e+00 -1.8024801247107125e-01 9.1885408887993432e+00 3.3089124810233601e+00 1 0 0
980 53 4 -1.1500000000000000e-01 5.7042318524608970e-01 1.0010287195140283e+01 2.4961798266125492e+00 1 0 0
984 53 2 1.1500000000000000e-01 1.1526620711813098e+00 1.0766011224707977e+01 2.9653982624498734e+00 1 0 0
1361 74 2 1.1500000000000000e-01 -1.3493322969411166e+00 1.3067059591063291e+01 8.4248898603414979e+00 1 0 0
990 53 1 -1.1500000000000000e-01 6.4524310173851496e-01 9.8427740165856381e+00 1.1201089014229266e+00 1 0 0
2253 93 6 0.0000000000000000e+00 -3.8054426985877088e-01 1.4256349297083421e+01 2.9888230362878558e+00 1 0 0
1493 53 6 0.0000000000000000e+00 -5.6174214489126295e-01 8.6442625968898206e+00 2.9494515384716693e+00 1 0 0
986 53 1 -1.1500000000000000e-01 -1.1549223262978586e-01 8.8655544190572222e+00 4.8184309707577333e-01 1 0 0
1005 54 4 -1.1500000000000000e-01 -4.5068318719156633e+00 7.2205347789088679e+00 8.8822867061169806e+00 1 0 0
994 53 2 1.1500000000000000e-01 1.2775127834216873e+00 1.0607634224937813e+01 6.6173442257206916e-01 1 0 0
594 33 2 1.1500000000000000e-01 2.0550064948860731e+00 7.1762880775389339e+00 6.0466443209227334e+00 1 0 0
1741 93 1 -1.1500000000000000e-01 -1.6892073381362980e+00 1.3528458169783063e+01 4.8859112219995051e+00 1 0 0
977 53 7 -1.1500000000000000e-01 -8.4756946334362304e-01 8.3033207437176682e+00 5.4876033859787698e+00 1 0 0
978 53 5 -1.1500000000000000e-01 -1.6305529593459633e-01 9.2933708434326014e+00 4.7172781734183387e+00 1 0 0
982 53 2 1.1500000000000000e-01 -8.4003217139011888e-01 8.4508981454322978e+00 6.5930536652388705e+00 1 0 0
983 53 2 1.1500000000000000e-01 2.8494150467881330e-01 1.0087883923619401e+01 5.2796517016449789e+00 1 0 0
1012 54 2 1.1500000000000000e-01 -2.4620727087378462e+00 9.5997855291932197e+00 7.5658942795254083e+00 1 0 0
1004 54 1 -1.1500000000000000e-01 -3.6810613331887869e+00 7.8938920148988236e+00 7.9319113169984927e+00 1 0 0
1363 74 2 1.1500000000000000e-01 8.2469369551442995e-01 9.5443490519863659e+00 7.6109962178730060e+00 1 0 0
1745 93 2 1.1500000000000000e-01 -2.2812159722748628e+00 1.2995654576641927e+01 5.6539859238056440e+00 1 0 0
1008 54 1 -1.1500000000000000e-01 -3.0926201708571677e+00 9.1185356153974766e+00 8.3724337078439159e+00 1 0 0
1338 73 5 -1.1500000000000000e-01 3.6695902233063658e+00 1.2280501891499084e+01 1.6641353040095650e+00 1 0 0
1339 73 3 0.0000000000000000e+00 3.4981840456544004e+00 1.1918985663317340e+01 2.9911531488590177e+00 1 0 0
1340 73 4 -1.1500000000000000e-01 2.8152737255064770e+00 1.2799595933283371e+01 3.9087561952762844e+00 1 0 0
1341 73 1 -1.1500000000000000e-01 4.8679856890921878e+00 1.0166700326995036e+01 1.2476338715200832e+00 1 0 0
1337 73 7 -1.1500000000000000e-01 4.3575088191076841e+00 1.1397481502677341e+01 7.5838338160025387e-01 1 0 0
1343 73 2 1.1500000000000000e-01 3.1790246587329856e+00 1.3210829019889974e+01 1.3504098592096128e+00 1 0 0
988 53 3 0.0000000000000000e+00 -8.3780743127551272e-01 8.0843155617430433e+00 2.6996810681577221e+00 1 0 0
1348 73 3 0.0000000000000000e+00 3.9892732317753263e+00 1.0675437825718440e+01 3.4605928075966395e+00 1 0 0
1349 73 4 -1.1500000000000000e-01 4.6662605792563632e+00 9.8056298676980411e+00 2.5987849115069959e+00 1 0 0
1353 73 2 1.1500000000000000e-01 5.0811521204036714e+00 8.9197428211713508e+00 3.0136185036290497e+00 1 0 0
1513 73 6 0.0000000000000000e+00 3.6933864121117117e+00 1.1288871677906384e+01 3.2440058855380376e+00 1 0 0
1356 74 5 -1.1500000000000000e-01 -6.5591881981703271e-01 1.2335942008579488e+01 8.8207529548245862e+00 1 0 0
1354 73 2 1.1500000000000000e-01 1.8798367207190276e+00 1.2960312440901795e+01 5.9023832114023671e+00 1 0 0
1346 73 1 -1.1500000000000000e-01 2.9499916141786366e+00 1.1099233995053671e+01 5.6488909187146588e+00 1 0 0
1347 73 4 -1.1500000000000000e-01 3.6278904981749696e+00 1.0247174169354311e+01 4.7768431286427413e+00 1 0 0
1350 73 1 -1.1500000000000000e-01 2.5143527200387159e+00 1.2363492795222522e+01 5.2153420413682934e+00 1 0 0
1351 73 2 1.1500000000000000e-01 2.6324419199972935e+00 1.0841312664192166e+01 6.6410804963345020e+00 1 0 0
1352 73 2 1.1500000000000000e-01 3.9621331680736520e+00 9.2526694821905622e+00 5.1187142265661061e+00 1 0 0
1345 73 2 1.1500000000000000e-01 5.4348012028712169e+00 9.4993028396718113e+00 5.9826238183866776e-01 1 0 0
1355 74 7 -1.1500000000000000e-01 -1.4854277606937405e-01 1.1413699066432912e+01 7.8806350680801511e+00 1 0 0
1359 74 1 -1.1500000000000000e-01 4.7731549080125824e-01 1.0258209130633885e+01 8.3631778880475842e+00 1 0 0
1360 74 2 1.1500000000000000e-01 -3.5035946594976597e-01 1.1651380463685594e+01 6.8439259802407921e+00 1 0 0
1747 93 4 -1.1500000000000000e-01 -6.1761097325039715e-01 1.3221938384869906e+01 1.2982185360673872e+00 1 0 0
1748 93 3 0.0000000000000000e+00 -6.6222244457020429e-01 1.3709919688553768e+01 2.6262174264547764e+00 1 0 0
601 34 2 1.1500000000000000e-01 -8.4515807660520803e-01 7.3397754113983176e+00 8.6270345003673743e+00 1 0 0
1342 73 2 1.1500000000000000e-01 4.5117550224000684e+00 1.1643799888580768e+01 -2.4578548670245623e-01 1 0 0
1746 93 1 -1.1500000000000000e-01 -6.8969259496967472e-02 1.4042902270254553e+01 2.8404506930061690e-01 1 0 0
584 33 2 1.1500000000000000e-01 2.1626100221625211e+00 7.6595877018567284e+00 3.5198580256561418e+00 1 0 0
1765 94 4 -1.1500000000000000e-01 -5.2060621720076137e+00 1.3741029143678647e+01 8.6278533599355622e+00 1 0 0
1749 93 4 -1.1500000000000000e-01 -1.4709800265514863e+00 1.3054976859795161e+01 3.5562857073360541e+00 1 0 0
2513 133 2 1.1500000000000000e-01 -1.4506648343398074e+00 1.7814280894005652e+01 3.0942649224863565e+00 1 0 0
1344 73 2 1.1500000000000000e-01 2.3558669303109614e+00 1.3784729928250014e+01 3.5998664855115132e+00 1 0 0
1009 54 2 1.1500000000000000e-01 -3.4826686811459284e+00 7.5381066418213605e+00 6.8952820146551739e+00 1 0 0
987 53 4 -1.1500000000000000e-01 -7.9454223867918006e-01 7.9780569479333110e+00 1.3323888218984465e+00 1 0 0
995 54 7 -1.1500000000000000e-01 -5.4006785137384234e+00 8.9012214351392451e+00 1.2634068110483158e+01 1 0 0
996 54 5 -1.1500000000000000e-01 -4.5254060291944382e+00 9.5599524512921619e+00 1.1771404553937506e+01 1 0 0
997 54 3 0.0000000000000000e+00 -4.1434681122481098e+00 8.9546038007267033e+00 1.0522532512540382e+01 1 0 0
1001 54 2 1.1500000000000000e-01 -4.1468984593700533e+00 1.0512929479262521e+01 1.2036429092404697e+01 1 0 0
1371 74 2 1.1500000000000000e-01 9.5138699782808711e-01 9.1577201117043732e+00 1.0144610569816427e+01 1 0 0
1357 74 3 0.0000000000000000e+00 -6.3371745538562951e-01 1.2172622916054529e+01 1.0219208295139213e+01 1 0 0
1767 94 4 -1.1500000000000000e-01 -5.9947143190517744e+00 1.3038411604658444e+01 1.0884843414339658e+01 1 0 0
998 54 4 -1.1500000000000000e-01 -3.2655213100713674e+00 9.6000038480622241e+00 9.6358067088517423e+00 1 0 0
1494 54 6 0.0000000000000000e+00 -4.5583800302637094e+00 8.4282226747097013e+00 1.0315839479001495e+01 1 0 0
1362 74 2 1.1500000000000000e-01 -1.7112402024312381e+00 1.4014273129646915e+01 1.0725971672946844e+01 1 0 0
1003 54 2 1.1500000000000000e-01 -6.5676464981260096e+00 7.1182063015636210e+00 1.3040770328577885e+01 1 0 0
999 54 1 -1.1500000000000000e-01 -5.9733236438520265e+00 7.6682454815995706e+00 1.2300509359682996e+01 1 0 0
1372 74 2 1.1500000000000000e-01 -1.9142298197315695e+00 1.3173812171099899e+01 1.3270309258540934e+01 1 0 0
1514 74 6 0.0000000000000000e+00 -2.5711846032571462e-01 1.1642945069529427e+01 1.0510129602289592e+01 1 0 0
602 34 2 1.1500000000000000e-01 -1.3816592811850610e+00 7.7960510528428442e+00 1.0943387930890133e+01 1 0 0
1358 74 4 -1.1500000000000000e-01 -1.2999757345987719e+00 1.3053971048972615e+01 1.1127516450663066e+01 1 0 0
1364 74 1 -1.1500000000000000e-01 -7.3523292200007173e-01 1.1424732214244337e+01 1.2872200104978724e+01 1 0 0
1365 74 4 -1.1500000000000000e-01 -1.1728182754906680e-01 1.0565014737106605e+01 1.2014273477642455e+01 1 0 0
1366 74 3 0.0000000000000000e+00 -3.4679746057755700e-02 1.0953311086816893e+01 1.0715198277022839e+01 1 0 0
1759 94 1 -1.1500000000000000e-01 -6.1454458391748963e+00 1.3293095161677947e+01 1.2225449927293496e+01 1 0 0
1368 74 1 -1.1500000000000000e-01 -1.3652001383133294e+00 1.2620456393449082e+01 1.2447903776941160e+01 1 0 0
1369 74 2 1.1500000000000000e-01 -7.9020578872744451e-01 1.1149219320169566e+01 1.3902789099988629e+01 1 0 0
1370 74 2 1.1500000000000000e-01 3.1146177963108368e-01 9.6955455953495662e+00 1.2421182867528870e+01 1 0 0
1378 75 2 1.1500000000000000e-01 -4.1639850739701636e+00 1.1663674592075447e+01 1.3872944668571458e+01 1 0 0
1000 54 2 1.1500000000000000e-01 -5.6351931998034726e+00 9.3823174686924489e+00 1.3542425450954074e+01 1 0 0
1766 94 3 0.0000000000000000e+00 -5.2788633529256330e+00 1.3906484016685472e+01 1.0037153629403248e+01 1 0 0
1006 54 3 0.0000000000000000e+00 -4.7697977057849288e+00 7.7596038701320369e+00 1.0191899114494012e+01 1 0 0
1763 94 2 1.1500000000000000e-01 -6.8487123675216646e+00 1.2756967708253775e+01 1.2770355873396914e+01 1 0 0
1367 74 4 -1.1500000000000000e-01 5.5233887587242325e-01 1.0072820049125657e+01 9.7669503132854150e+00 1 0 0
1002 54 2 1.1500000000000000e-01 -2.8123386847595411e+00 1.0518803747685983e+01 9.9465742125606074e+00 1 0 0
1755 94 7 -1.1500000000000000e-01 -5.3657680107348362e+00 1.4342101794482868e+01 1.2774337195861316e+01 1 0 0
1007 54 4 -1.1500000000000000e-01 -5.7150166584262712e+00 7.1448481942383539e+00 1.1034117187890487e+01 1 0 0
1737 93 7 -1.1500000000000000e-01 -9.4679970634090127e-01 1.4649726962602466e+01 5.3080364311244077e+00 1 0 0
1740 93 4 -1.1500000000000000e-01 6.7298856866711310e-01 1.5603449981496079e+01 2.0257082278085625e+00 1 0 0
1744 93 2 1.1500000000000000e-01 1.1764508421867319e+00 1.6503399539683556e+01 2.2768208115842845e+00 1 0 0
1768 94 1 -1.1500000000000000e-01 -3.8203364218285953e+00 1.5721381877844562e+01 8.3585314976035718e+00 1 0 0
1750 93 1 -1.1500000000000000e-01 6.0298505864403429e-01 1.5241742619673289e+01 6.7025114013945064e-01 1 0 0
2112 113 2 1.1500000000000000e-01 3.9962648655267534e+00 1.5567499503866499e+01 5.5514086590226617e+00 1 0 0
2119 114 1 -1.1500000000000000e-01 6.7740671253632367e-01 1.5870598042313111e+01 8.1712027133859930e+00 1 0 0
1064 57 2 1.1500000000000000e-01 7.2635596028101643e+00 6.3166328161509044e+00 9.0356885357663463e-01 1 0 0
1743 93 2 1.1500000000000000e-01 1.9526734147442681e-01 1.6364824769194669e+01 4.5398302656688792e+00 1 0 0
2127 114 4 -1.1500000000000000e-01 6.1655290309007871e-01 1.5501194523410318e+01 9.5625878957659900e+00 1 0 0
1772 94 2 1.1500000000000000e-01 -3.1878638595135236e+00 1.6373179886815631e+01 7.7829172269689124e+00 1 0 0
1739 93 3 0.0000000000000000e+00 -5.2019047945253138e-03 1.4846318037297996e+01 2.9929089312085631e+00 1 0 0
1754 93 2 1.1500000000000000e-01 9.8335055451319864e-01 1.5902483387210230e+01 -1.0185465590076859e-01 1 0 0
2097 113 7 -1.1500000000000000e-01 4.1974896115337614e+00 1.7209544127305730e+01 1.0754378965659723e+00 1 0 0
2129 114 2 1.1500000000000000e-01 -9.0201358936599974e-02 1.7024791686672366e+01 1.3801176598404160e+01 1 0 0
2101 113 1 -1.1500000000000000e-01 4.6333836119546170e+00 1.5993951998798241e+01 1.5835509903481371e+00 1 0 0
2113 113 2 1.1500000000000000e-01 4.8975186709249776e+00 1.4948156702695822e+01 3.4874313985546301e+00 1 0 0
1738 93 5 -1.1500000000000000e-01 -1.4860180252725907e-01 1.5373469286230645e+01 4.3241775516264429e+00 1 0 0
2108 113 3 0.0000000000000000e+00 3.7933319252908357e+00 1.6763604884947817e+01 3.7579212396925410e+00 1 0 0
2109 113 4 -1.1500000000000000e-01 4.5296634426339821e+00 1.5852355129175789e+01 3.0092947052850945e+00 1 0 0
2273 113 6 0.0000000000000000e+00 3.6413840869947594e+00 1.7343470943925151e+01 3.3937284953667284e+00 1 0 0
2106 113 1 -1.1500000000000000e-01 2.8602519284311043e+00 1.7381529887197424e+01 5.8937853115767753e+00 1 0 0
2107 113 4 -1.1500000000000000e-01 3.5964995285749306e+00 1.6484216062793450e+01 5.1261180557238593e+00 1 0 0
2111 113 2 1.1500000000000000e-01 2.6703722408915338e+00 1.7053734270021074e+01 7.0016659714163190e+00 1 0 0
2115 114 7 -1.1500000000000000e-01 1.7466961763332645e-01 1.7103134846208558e+01 7.7372024452311265e+00 1 0 0
2102 113 2 1.1500000000000000e-01 4.2197989123061346e+00 1.7410166969281537e+01 -1.4684294551787769e-02 1 0 0
2120 114 2 1.1500000000000000e-01 4.5496138573478007e-02 1.7452149684811204e+01 6.7636811990750054e+00 1 0 0
2123 114 2 1.1500000000000000e-01 1.0937499942082276e+00 1.5165192461946782e+01 7.5132411711140303e+00 1 0 0
2131 114 2 1.1500000000000000e-01 1.1369279556575167e+00 1.4620434974662292e+01 9.9615712349942722e+00 1 0 0
2105 113 2 1.1500000000000000e-01 5.1248479493062558e+00 1.5276236822347249e+01 9.5646983369324379e-01 1 0 0
1742 93 2 1.1500000000000000e-01 -1.0982001466880984e+00 1.4870702426255795e+01 6.3358697696901505e+00 1 0 0
1764 94 1 -1.1500000000000000e-01 -4.5577094669025904e+00 1.4684818814224668e+01 7.8049156470890715e+00 1 0 0
2117 114 3 0.0000000000000000e+00 -5.2217117305688543e-01 1.7629384791801648e+01 9.9990038356491038e+00 1 0 0
1761 94 2 1.1500000000000000e-01 -4.0069019420631964e+00 1.5936325316154962e+01 1.2480517507710452e+01 1 0 0
2274 114 6 0.0000000000000000e+00 -2.6651252861698449e-01 1.7042291543095303e+01 1.0291234411577463e+01 1 0 0
2254 94 6 0.0000000000000000e+00 -5.0568282051806488e+00 1.4577336318198592e+01 1.0278093278943572e+01 1 0 0
2130 114 2 1.1500000000000000e-01 7.3997515604099817e-01 1.5398891724747617e+01 1.2198566267336183e+01 1 0 0
2124 114 1 -1.1500000000000000e-01 -2.4671177966323032e-01 1.7226532898581009e+01 1.2745624986957493e+01 1 0 0
2125 114 4 -1.1500000000000000e-01 2.2065978823372046e-01 1.6261184716112350e+01 1.1798334418757264e+01 1 0 0
2126 114 3 0.0000000000000000e+00 1.5033206698015000e-01 1.6492468154236466e+01 1.0459767724889758e+01 1 0 0
1753 93 2 1.1500000000000000e-01 -1.8750554035632299e+00 1.2094831397798171e+01 3.2573729009223680e+00 1 0 0
1757 94 3 0.0000000000000000e+00 -4.5968571560216773e+00 1.5057510225508555e+01 1.0609302421775306e+01 1 0 0
2138 115 2 1.1500000000000000e-01 -3.6283024805898672e+00 1.7302419530831202e+01 1.4289634479444633e+01 1 0 0
1762 94 2 1.1500000000000000e-01 -3.4026806937008685e+00 1.6724051712930041e+01 1.0361338022370989e+01 1 0 0
1756 94 5 -1.1500000000000000e-01 -4.6204697975331523e+00 1.5176673718582521e+01 1.2005917410703651e+01 1 0 0
249 14 2 1.1500000000000000e-01 -3.9980021983526295e+00 1.7995677239097954e+00 7.1927950644639305e+00 1 0 0
251 14 2 1.1500000000000000e-01 -6.1679716169574563e+00 6.9944371323561960e-02 1.0728637489834339e+01 1 0 0
2099 113 3 0.0000000000000000e+00 3.2895378938788995e+00 1.7904973726008329e+01 3.2027334158247047e+00 1 0 0
4382 233 2 1.1500000000000000e-01 4.1250048326548789e+00 -2.7020524223930212e-02 -3.0653710238934762e-02 1 1 0
1771 94 2 1.1500000000000000e-01 -6.3397493936575824e+00 1.2137549645272841e+01 1.0558752145612228e+01 1 0 0
1027 55 2 1.1500000000000000e-01 -8.2845918002943346e+00 8.0527095222369685e+00 1.4261646011464483e+01 1 0 0
2116 114 5 -1.1500000000000000e-01 -5.3639894771943464e-01 1.7916407870230792e+01 8.6270724788074169e+00 1 0 0
4416 235 4 -1.1500000000000000e-01 -5.8464479195039329e+00 8.9959205185638480e-01 1.9057878806101034e+01 1 1 0
4420 235 2 1.1500000000000000e-01 -6.1043630786386025e+00 1.8510648272167465e+00 1.8735839989082031e+01 1 1 0
255 15 3 0.0000000000000000e+00 -8.7509181739301525e+00 3.1003780478410090e+00 1.8202313990447614e+01 1 0 0
256 15 4 -1.1500000000000000e-01 -8.0542090243487241e+00 3.8645346815482498e+00 1.7181526898876680e+01 1 0 0
260 15 2 1.1500000000000000e-01 -7.6930296762061907e+00 4.8800843150441500e+00 1.7451367190693478e+01 1 0 0
1029 55 2 1.1500000000000000e-01 -1.0428407373867060e+01 6.0038756217158555e+00 1.7912926173834308e+01 1 0 0
4414 235 5 -1.1500000000000000e-01 -4.9010951841940154e+00 3.5058052823824271e-01 1.6861628594208398e+01 1 1 0
264 15 3 0.0000000000000000e+00 -9.3118366125179470e+00 1.8466567234662012e+00 1.7857691931215779e+01 1 0 0
262 15 1 -1.1500000000000000e-01 -8.4253239222425513e+00 2.1012110527520038e+00 1.5561937669162100e+01 1 0 0
266 15 1 -1.1500000000000000e-01 -7.8114675784266669e+00 3.3018857512386055e+00 1.5915291415507792e+01 1 0 0
263 15 4 -1.1500000000000000e-01 -9.1685054195779081e+00 1.3927264547387694e+00 1.6516520498296529e+01 1 0 0
735 15 6 0.0000000000000000e+00 -8.9398378027674497e+00 2.4248977634904665e+00 1.8076007906798374e+01 1 0 0
265 15 4 -1.1500000000000000e-01 -1.0044778752897358e+01 1.0910219549562654e+00 1.8737108221389697e+01 1 0 0
2256 96 6 0.0000000000000000e+00 -1.3144825341000541e+01 1.4350280048065219e+01 2.5029231592038268e+01 1 0 0
613 35 7 -1.1500000000000000e-01 -4.3966586675303887e+00 5.6475618087791002e+00 1.6166716634068788e+01 1 0 0
618 35 2 1.1500000000000000e-01 -4.2425370799330846e+00 6.0825338577594632e+00 1.5207116487666724e+01 1 0 0
615 35 3 0.0000000000000000e+00 -5.3457314025570559e+00 5.7273489444716041e+00 1.8375754291395555e+01 1 0 0
617 35 1 -1.1500000000000000e-01 -3.8278803188479982e+00 4.3468022294337398e+00 1.6395956084235870e+01 1 0 0
621 35 2 1.1500000000000000e-01 -3.1560366247461467e+00 3.8855356696146504e+00 1.5713247468467614e+01 1 0 0
624 35 3 0.0000000000000000e+00 -4.7390426785857214e+00 4.4932099013539242e+00 1.8715491329941120e+01 1 0 0
625 35 4 -1.1500000000000000e-01 -4.0163368532161359e+00 3.8050713058153516e+00 1.7662723872599965e+01 1 0 0
629 35 2 1.1500000000000000e-01 -3.5172812233488120e+00 2.8996554945210899e+00 1.7926206776183069e+01 1 0 0
755 35 6 0.0000000000000000e+00 -4.9587947066747908e+00 5.1161089046877457e+00 1.8440374537864408e+01 1 0 0
270 15 2 1.1500000000000000e-01 -7.2614200828431654e+00 3.8710363711322455e+00 1.5183511784238116e+01 1 0 0
614 35 5 -1.1500000000000000e-01 -5.2028977745380391e+00 6.3043335989396843e+00 1.7118495896417055e+01 1 0 0
4419 235 2 1.1500000000000000e-01 -5.2939895962477941e+00 1.2577789856001358e+00 1.6478475173524302e+01 1 1 0
1025 55 4 -1.1500000000000000e-01 -9.8054766807025242e+00 6.7462459025202977e+00 1.8345882401488836e+01 1 0 0
616 35 4 -1.1500000000000000e-01 -5.9457774389226330e+00 6.5309284664964675e+00 1.9392491423290657e+01 1 0 0
269 15 2 1.1500000000000000e-01 -1.0517588919734530e+01 2.2222914586370190e-01 1.8330072148794208e+01 1 0 0
1792 96 5 -1.1500000000000000e-01 -1.3066834894760056e+01 1.5298640029942744e+01 2.6746319957368790e+01 1 0 0
254 15 5 -1.1500000000000000e-01 -8.9403228026187751e+00 3.5806206276261450e+00 1.9500903263744956e+01 1 0 0
280 16 1 -1.1500000000000000e-01 -1.2638877630893164e+01 2.2921671363786018e+00 2.3119631072147126e+01 1 0 0
2164 116 1 -1.1500000000000000e-01 -1.0498684015007015e+01 1.7849985869879283e+01 2.8000929525290317e+01 1 0 0
258 15 2 1.1500000000000000e-01 -9.8888670637388412e+00 3.1762612638150678e+00 2.1355025238198763e+01 1 0 0
634 36 4 -1.1500000000000000e-01 -1.0185700644774506e+01 6.3938852729912075e+00 2.6158502632532489e+01 1 0 0
4433 236 3 0.0000000000000000e+00 -9.4947479053452604e+00 8.9480584067463009e-02 2.5627275490563875e+01 1 1 0
257 15 1 -1.1500000000000000e-01 -1.0189465847350764e+01 1.5355157656418372e+00 2.0070528836333494e+01 1 0 0
284 16 1 -1.1500000000000000e-01 -1.1977820592518023e+01 3.4514107342793303e+00 2.3630415122486912e+01 1 0 0
279 16 2 1.1500000000000000e-01 -1.4904709864225991e+01 6.4407301391080218e-01 2.8354004631909916e+01 1 0 0