LAMMPS (15 May 2015)
Reading data file ...
  triclinic box = (-0.107635 -0.0404339 -0.357111) to (41.3876 35.9384 29.5551) with tilt (-0.0672341 -17.0362 -0.0417078)
  5 by 2 by 2 MPI processor grid
  reading atoms ...
  4560 atoms
  reading velocities ...
  4560 velocities
  scanning bonds ...
  3 = max bonds/atom
  scanning angles ...
  3 = max angles/atom
  scanning dihedrals ...
  8 = max dihedrals/atom
  scanning impropers ...
  1 = max impropers/atom
  reading bonds ...
  5040 bonds
  reading angles ...
  7200 angles
  reading dihedrals ...
  10560 dihedrals
  reading impropers ...
  2400 impropers
Finding 1-2 1-3 1-4 neighbors ...
 Special bond factors lj:   0          0          0         
 Special bond factors coul: 0          0          0         
  4 = max # of 1-2 neighbors
  8 = max # of 1-3 neighbors
  20 = max # of 1-4 neighbors
  16 = max # of special neighbors
4560 atoms in group all
720 atoms in group C
480 atoms in group S
1920 atoms in group H
720 atoms in group Si
240 atoms in group Na
240 atoms in group Ba
240 atoms in group O
4560 atoms in group naphthalene
1200 atoms in group fixed
960 atoms in group CO
Setting atom values ...
  720 settings made for charge
Setting atom values ...
  720 settings made for charge
Setting atom values ...
  1920 settings made for charge
Setting atom values ...
  480 settings made for charge
Setting atom values ...
  240 settings made for charge
Setting atom values ...
  240 settings made for charge
Setting atom values ...
  240 settings made for charge
Finding 1-2 1-3 1-4 neighbors ...
 Special bond factors lj:   0          0          0.5       
 Special bond factors coul: 0          0          0.5       
  4 = max # of 1-2 neighbors
  8 = max # of 1-3 neighbors
  20 = max # of 1-4 neighbors
  16 = max # of special neighbors
PPPM initialization ...
  G vector (1/distance) = 0.253736
  grid = 20 18 24
  stencil order = 5
  estimated absolute RMS force accuracy = 0.00131269
  estimated relative force accuracy = 3.95312e-06
  using double precision FFTs
  3d grid and FFT values/proc = 3344 720
Neighbor list info ...
  6 neighbor list requests
  update every 1 steps, delay 0 steps, check yes
  master list distance cutoff = 12
Setting up run ...
Memory usage per processor = 14.3555 Mbytes
Step Temp Density PotEng E_vdwl E_tail E_coul E_long Press Volume Xy Xz Yz E_mol E_bond E_angle E_dihed 14[1] 14[2] 14[3] msd[4] msd2[4] msd3[4] msd4[4] naphthal Cella Cellb Cellc CellAlpha CellBeta CellGamma 27[1] 27[2] 27[3] 
       0          298    1.2509986    2176.9304   -1084.0362   -195.45094    2133.4636   -2371.3301   -480.77082    44657.537 -0.067234084   -17.036218 -0.041707817     3498.833    1521.0094     935.4334    889.67826    28.379601    18.846571    14.337846 2.3535127e-29 2.7422013e-29 2.2534249e-29 2.2900766e-29          298     41.49527    35.978931    34.423473    90.016431    119.66323    90.107069    28.379761    18.846182    14.337739 
   10000    294.93617    1.2509986    2233.9218   -1071.3522   -195.45094    2133.7126   -2371.8757   -1294.1302    44657.537 -0.067234084   -17.036218 -0.041707817    3543.4372    1531.4563    965.62622    894.97515     28.37863    18.845449    14.338378 0.00032023169 0.00032017067 0.00033245439 0.00033240466    294.93617     41.49527    35.978931    34.423473    90.016431    119.66323    90.107069     28.37998    18.846093    14.337812 
   20000    299.07601    1.2509986    2286.7645   -1104.8216   -195.45094    2135.7682   -2372.1685   -1591.9352    44657.537 -0.067234084   -17.036218 -0.041707817    3627.9864    1614.5203     939.3142    911.39495    28.377438    18.846674    14.338413 0.00031459448 0.00031441203 0.0003266732 0.00032631672    299.07601     41.49527    35.978931    34.423473    90.016431    119.66323    90.107069    28.379681    18.846598    14.337794 
   30000    299.98795    1.2509986    2263.3603   -1086.9449   -195.45094    2138.8071   -2371.3216   -316.98414    44657.537 -0.067234084   -17.036218 -0.041707817    3582.8198    1580.7761    930.01353    918.54104    28.379491    18.845915     14.33786 0.00033377047 0.00033371842 0.00034924397 0.0003491967    299.98795     41.49527    35.978931    34.423473    90.016431    119.66323    90.107069    28.379904    18.846009    14.337778 
   40000    294.45347    1.2509986    2224.2647   -1090.4108   -195.45094    2136.8896   -2371.9482   -1232.4568    44657.537 -0.067234084   -17.036218 -0.041707817    3549.7341    1569.8576    922.75418    897.59824    28.376847    18.846022    14.336492 0.00032610066 0.0003260746 0.00033633186 0.00033629649    294.45347     41.49527    35.978931    34.423473    90.016431    119.66323    90.107069    28.379608    18.846153    14.337696 
   50000    299.98786    1.2509986    2249.3426    -1092.704   -195.45094    2137.4286   -2371.3283   -1148.6501    44657.537 -0.067234084   -17.036218 -0.041707817    3575.9463    1577.7536    946.13389    896.64084    28.380074     18.84612    14.336955 0.00033304155 0.00033301566 0.00033832052 0.0003382281    299.98786     41.49527    35.978931    34.423473    90.016431    119.66323    90.107069    28.379808    18.846335    14.337757 
   60000    295.08399    1.2509986     2221.575   -1063.4049   -195.45094    2134.3071     -2371.88    313.46624    44657.537 -0.067234084   -17.036218 -0.041707817    3522.5528    1519.0542    961.79808    887.16735    28.378568     18.84487    14.336939 0.00033504911 0.00033499203 0.00034781942 0.00034779062    295.08399     41.49527    35.978931    34.423473    90.016431    119.66323    90.107069    28.379626    18.846003    14.337822 
   70000    298.36823    1.2509986    2124.4346    -1087.494   -195.45094    2137.4364   -2371.7483   -128.72258    44657.537 -0.067234084   -17.036218 -0.041707817    3446.2404    1501.3895    927.68385     867.4779    28.378807    18.845828    14.336302 0.00033321146 0.00033286316 0.00033310562 0.00033286156    298.36823     41.49527    35.978931    34.423473    90.016431    119.66323    90.107069    28.379961    18.846256    14.337189 
   80000    297.32784    1.2509986    2192.5129   -1101.8286   -195.45094    2132.7949   -2371.7304   -2384.3656    44657.537 -0.067234084   -17.036218 -0.041707817    3533.2771    1562.0625    921.44003    893.35085    28.380146    18.844343    14.337529 0.00033120481 0.00033118361 0.00033674588 0.00033660888    297.32784     41.49527    35.978931    34.423473    90.016431    119.66323    90.107069    28.379839    18.846062    14.337765 
   90000    292.36535    1.2509986    2156.6441   -1072.3358   -195.45094    2138.4702   -2371.0832    796.69881    44657.537 -0.067234084   -17.036218 -0.041707817     3461.593    1545.0936    894.76952    867.95183    28.378715     18.84692    14.337118 0.00035350327 0.00035338157 0.00035853207 0.00035833891    292.36535     41.49527    35.978931    34.423473    90.016431    119.66323    90.107069    28.379711    18.846077     14.33741 
  100000    300.10751    1.2509986    2147.8319     -1085.24   -195.45094    2136.8167    -2371.889   -1249.4054    44657.537 -0.067234084   -17.036218 -0.041707817    3468.1441    1548.5278    935.81083    839.66339    28.380543    18.845354    14.337178 0.0003402989 0.00034015946 0.00034306995 0.00034303622    300.10751     41.49527    35.978931    34.423473    90.016431    119.66323    90.107069    28.380101    18.846144    14.337591 
  110000    299.78077    1.2509986    2161.5186   -1099.0917   -195.45094    2128.0845   -2372.0906   -2243.1448    44657.537 -0.067234084   -17.036218 -0.041707817    3504.6164    1563.2024    918.81039     870.7227     28.38174    18.846664    14.337054 0.00035214002 0.00035175353 0.00036186323 0.00036158156    299.78077     41.49527    35.978931    34.423473    90.016431    119.66323    90.107069    28.379413    18.846636    14.337497 
  120000     301.7619    1.2509986    2191.9344   -1059.1288   -195.45094    2134.8003   -2371.7518     1533.466    44657.537 -0.067234084   -17.036218 -0.041707817    3488.0146    1502.1591    963.25523    871.27907    28.377876    18.846256    14.336355 0.00033394914 0.00033387945 0.0003382682 0.00033817109     301.7619     41.49527    35.978931    34.423473    90.016431    119.66323    90.107069    28.379527    18.846303    14.337718 
  130000    299.62873    1.2509986    2081.4739   -1091.5982   -195.45094    2135.9318   -2371.6381    689.17503    44657.537 -0.067234084   -17.036218 -0.041707817    3408.7783    1487.3197    912.11998    858.95573    28.380895    18.845415    14.337802 0.00034648767 0.0003461412 0.00035321989 0.0003530341    299.62873     41.49527    35.978931    34.423473    90.016431    119.66323    90.107069    28.379957    18.845733    14.338066 
  140000    298.77788    1.2509986    2177.3196   -1077.0664   -195.45094    2135.6332    -2371.358   -27.609171    44657.537 -0.067234084   -17.036218 -0.041707817    3490.1107    1543.9772    900.98849    898.23246    28.378259    18.845799    14.337783 0.00034840228 0.00034818321 0.00035109315 0.00035058082    298.77788     41.49527    35.978931    34.423473    90.016431    119.66323    90.107069    28.380057     18.84651    14.337892 
  150000    300.73151    1.2509986    2155.3733   -1090.4618   -195.45094    2132.5478   -2371.9122   -76.251888    44657.537 -0.067234084   -17.036218 -0.041707817    3485.1994    1508.0283    921.79222     900.1006    28.379878    18.844991     14.33806 0.0003499707 0.00034981949 0.00036019274 0.0003601673    300.73151     41.49527    35.978931    34.423473    90.016431    119.66323    90.107069    28.379598    18.845958    14.337466 
  160000    296.88224    1.2509986    2236.9719   -1072.8366   -195.45094    2136.5863   -2371.6062    698.56197    44657.537 -0.067234084   -17.036218 -0.041707817    3544.8284    1544.6343    934.66103    906.26339    28.378122    18.846772    14.337412 0.00034734357 0.00034706566 0.00035498686 0.00035441423    296.88224     41.49527    35.978931    34.423473    90.016431    119.66323    90.107069    28.379753    18.846206    14.338266 
  170000    296.62226    1.2509986    2199.6413   -1079.0429   -195.45094    2132.3299   -2372.1909   -878.99407    44657.537 -0.067234084   -17.036218 -0.041707817    3518.5452     1575.291    925.41478    864.72887    28.379474    18.845055    14.337451 0.0003650492 0.00036472002 0.00036572775 0.00036532113    296.62226     41.49527    35.978931    34.423473    90.016431    119.66323    90.107069    28.380298    18.846033    14.337603 
  180000    305.24606    1.2509986    2187.8906   -1077.3959   -195.45094    2136.9739   -2371.6418   -225.74736    44657.537 -0.067234084   -17.036218 -0.041707817    3499.9544    1550.4506    922.69007    872.80996     28.37865    18.847436    14.336789 0.00033901823 0.0003387488 0.0003424077 0.00034203288    305.24606     41.49527    35.978931    34.423473    90.016431    119.66323    90.107069    28.380124    18.846327    14.337398 
  190000     297.1227    1.2509986    2186.9366   -1081.0862   -195.45094    2130.7792   -2371.5026   -875.55801    44657.537 -0.067234084   -17.036218 -0.041707817    3508.7463    1552.8789    943.95047    864.47084    28.379703    18.845111    14.337403 0.00036203436 0.00036181183 0.00036082336 0.00036048719     297.1227     41.49527    35.978931    34.423473    90.016431    119.66323    90.107069    28.379407    18.846421    14.337539 
  200000    297.61124    1.2509986     2182.204   -1070.0619   -195.45094    2137.6963   -2371.4761   -423.91388    44657.537 -0.067234084   -17.036218 -0.041707817    3486.0456    1562.2317    906.53913    866.49252    28.379273     18.84554    14.336973  0.000347746 0.00034762185 0.00034704675 0.00034687948    297.61124     41.49527    35.978931    34.423473    90.016431    119.66323    90.107069    28.379502    18.846413    14.337679 
Loop time of 517.047 on 20 procs for 200000 steps with 4560 atoms

Pair  time (%) = 323.306 (62.5294)
Bond  time (%) = 34.3846 (6.6502)
Kspce time (%) = 115.844 (22.4049)
Neigh time (%) = 4.93284 (0.954041)
Comm  time (%) = 23.6785 (4.57957)
Outpt time (%) = 0.0627058 (0.0121277)
Other time (%) = 14.8378 (2.86973)

Nlocal:    228 ave 238 max 222 min
Histogram: 3 2 1 5 3 3 2 0 0 1
Nghost:    5781.95 ave 5841 max 5732 min
Histogram: 2 0 2 5 2 5 2 0 1 1
Neighs:    84300.3 ave 88357 max 80903 min
Histogram: 1 1 3 1 6 3 3 1 0 1

Total # of neighbors = 1686006
Ave neighs/atom = 369.738
Ave special neighs/atom = 10.6316
Neighbor list builds = 1029
Dangerous builds = 0
System init for write_data ...
PPPM initialization ...
  G vector (1/distance) = 0.253736
  grid = 20 18 24
  stencil order = 5
  estimated absolute RMS force accuracy = 0.00131269
  estimated relative force accuracy = 3.95312e-06
  using double precision FFTs
  3d grid and FFT values/proc = 3344 720
