LAMMPS data file via write_data, version 15 May 2015, timestep = 1009000

2593 atoms
6 atom types
1728 bonds
4 bond types
864 angles
3 angle types
0 dihedrals
3 dihedral types
0 impropers
1 improper types

-1.4975519977535246e+01 1.4975519977535246e+01 xlo xhi
-1.4975519977535246e+01 1.4975519977535246e+01 ylo yhi
-1.4975519977535246e+01 1.4975519977535246e+01 zlo zhi

Masses

1 15.9994
2 1.00794
3 12.0107
4 1.00794
5 12.0107
6 12.0107

Bond Coeffs # harmonic

1 1000 1
2 469 1.4
3 367 1.08
4 469 0.7

Angle Coeffs # harmonic

1 100 109.47
2 35 120
3 63 120

Dihedral Coeffs # opls

1 0 7.25 0 0
2 0 7.25 0 0
3 0 7.25 0 0

Improper Coeffs # cvff

1 2.5 -1 2

Atoms # full

758 253 2 4.0999999999999998e-01 -5.5941334034839176e+00 -1.0215262773942722e+01 -1.0831571122671637e+01 -1 1 3
603 201 2 4.0999999999999998e-01 -1.1896504023199476e+01 -1.0786307133115081e+01 -1.0642159477245839e+01 0 2 1
1024 342 1 -8.1999999999999995e-01 -1.3619973039800721e+01 -8.0550436571186523e+00 -1.1726466075492667e+01 -1 1 2
1445 482 2 4.0999999999999998e-01 -1.2782850441371821e+01 -1.1203926881390974e+01 -8.4194408967669929e+00 0 1 1
601 201 1 -8.1999999999999995e-01 -1.1045616706849424e+01 -1.1275813293607426e+01 -1.0832942335588720e+01 0 2 1
1026 342 2 4.0999999999999998e-01 -1.3705378665317458e+01 -8.8878905909799961e+00 -1.1179569846855033e+01 -1 1 2
602 201 2 4.0999999999999998e-01 -1.1061981553174874e+01 -1.2164097371037784e+01 -1.0373913794490944e+01 0 2 1
607 203 1 -8.1999999999999995e-01 -1.3398871414446166e+01 -1.4758934245914707e+01 -1.2936264933562269e+01 -1 1 1
608 203 2 4.0999999999999998e-01 -1.2616087232105269e+01 -1.4142322344265622e+01 -1.2852227456853289e+01 -1 1 1
706 236 1 -8.1999999999999995e-01 -8.5267660083754038e+00 -1.4779307698961368e+01 -9.4901559774917690e+00 0 1 2
708 236 2 4.0999999999999998e-01 -9.3081628048317953e+00 -1.4155487448458913e+01 -9.4730985098568610e+00 0 1 2
1937 646 2 4.0999999999999998e-01 -9.4769792508395252e+00 -1.0036551596878674e+01 -9.9505497179912741e+00 0 1 -1
592 198 1 -8.1999999999999995e-01 -1.1037913625536756e+01 -1.3537897835264141e+01 -9.1392799682996255e+00 -2 1 2
1364 455 2 4.0999999999999998e-01 -9.9019267073318868e+00 -6.1084170268719440e+00 -7.5231478550322946e+00 -1 3 2
1272 424 2 4.0999999999999998e-01 -9.4982586747782136e+00 -1.2529348597077192e+01 -1.3428696881989026e+01 -1 2 0
1270 424 1 -8.1999999999999995e-01 -1.0306326319603301e+01 -1.3076134269079862e+01 -1.3647958652183231e+01 -1 2 0
1107 369 2 4.0999999999999998e-01 -9.9081830133871964e+00 -1.0329818942092809e+01 -1.2058109678177651e+01 -1 2 -1
1936 646 1 -8.1999999999999995e-01 -8.6167596820881585e+00 -9.5495486317005849e+00 -9.7993081366684223e+00 0 1 -1
1938 646 2 4.0999999999999998e-01 -8.6931859486182486e+00 -8.6189435383958717e+00 -1.0157298104711854e+01 0 1 -1
1105 369 1 -8.1999999999999995e-01 -9.2276536976134000e+00 -1.0176003823560725e+01 -1.2774520432870359e+01 -1 2 -1
594 198 2 4.0999999999999998e-01 -1.1324113825920712e+01 -1.4492503376666034e+01 -9.2219922217762154e+00 -2 1 2
1528 510 1 -8.1999999999999995e-01 -5.0532114691648893e+00 -1.3085174926130243e+00 -8.8053403653040760e+00 0 0 1
995 332 2 4.0999999999999998e-01 -1.0033462409425148e+01 -6.5201968825578938e+00 -1.3808185829497383e+01 0 1 1
1106 369 2 4.0999999999999998e-01 -8.3105103737461050e+00 -1.0295160387010929e+01 -1.2394160809214776e+01 -1 2 -1
609 203 2 4.0999999999999998e-01 -1.4193672162690845e+01 -1.4246248256864268e+01 -1.3261024019514812e+01 -1 1 1
2554 852 1 -8.1999999999999995e-01 -7.3014749560882439e+00 -1.3118619491877221e+01 -1.3428904360321663e+01 0 2 3
2555 852 2 4.0999999999999998e-01 -6.9039407041614620e+00 -1.3506654762307534e+01 -1.2597388424528148e+01 0 2 3
757 253 1 -8.1999999999999995e-01 -6.4046104682684248e+00 -9.8573290773162796e+00 -1.1295288713722638e+01 -1 1 3
522 174 2 4.0999999999999998e-01 -1.2497890088804054e+01 -8.4760120679513644e+00 -8.1272088944057685e+00 2 1 1
759 253 2 4.0999999999999998e-01 -7.1515120929257243e+00 -9.7643147785337039e+00 -1.0636874009277134e+01 -1 1 3
2282 761 2 4.0999999999999998e-01 -1.3935184758842965e+01 -1.6239491772129231e+00 -9.3490639169588210e+00 0 2 0
593 198 2 4.0999999999999998e-01 -1.1465247594099784e+01 -1.3130542110638796e+01 -8.3321426797025655e+00 -2 1 2
589 197 1 -8.1999999999999995e-01 -1.4441023141708174e+01 -1.0485337381770595e+01 -1.0516427748739225e+01 0 0 1
782 261 2 4.0999999999999998e-01 -8.0390759749901921e+00 -1.7025827622984124e+00 -9.8378862940147300e+00 -2 2 2
625 209 1 -8.1999999999999995e-01 -7.3979729030966972e+00 -6.2794367450405755e+00 -1.3302813993300918e+01 0 1 1
1444 482 1 -8.1999999999999995e-01 -1.2478473049973452e+01 -1.0295983789068263e+01 -8.1313135843650919e+00 0 1 1
2174 725 2 4.0999999999999998e-01 -5.4122443953335715e+00 -1.2040926862941282e+01 -9.2694679634831729e+00 1 0 0
1025 342 2 4.0999999999999998e-01 -1.4003171866107436e+01 -8.2131221747100778e+00 -1.2636517420131803e+01 -1 1 2
2173 725 1 -8.1999999999999995e-01 -6.0047539315162748e+00 -1.2824865608345014e+01 -9.0840060879329698e+00 1 0 0
1325 442 2 4.0999999999999998e-01 -6.4257587159510159e+00 -7.3352281509409085e+00 -8.1763095651806612e+00 1 -1 3
2541 847 2 4.0999999999999998e-01 -7.8280419317623142e+00 -1.0498536091217492e+01 -7.9221433653677185e+00 1 1 0
1119 373 2 4.0999999999999998e-01 -5.0184336835735621e+00 -3.3213650648343851e-01 -1.4169369849286255e+01 0 0 1
1919 640 2 4.0999999999999998e-01 -9.6349111013829187e+00 -1.4691002811206449e+01 -1.3095503308575323e+01 1 1 2
1529 510 2 4.0999999999999998e-01 -5.6361314212959961e+00 -1.6401651915799356e+00 -8.0635602410934908e+00 0 0 1
590 197 2 4.0999999999999998e-01 -1.4675441543999211e+01 -1.0787351886744464e+01 -9.5923829061601111e+00 0 0 1
890 297 2 4.0999999999999998e-01 -1.1255972891618375e+01 -6.0149071896727726e+00 -1.0100286313273489e+01 0 -2 3
558 186 2 4.0999999999999998e-01 -6.2928241041930519e+00 -8.9388981079315357e+00 -1.2927037433683772e+01 -1 0 2
2175 725 2 4.0999999999999998e-01 -6.3870044327125477e+00 -1.3164460514937382e+01 -9.9434148749345255e+00 1 0 0
1131 377 2 4.0999999999999998e-01 -1.2088295695762531e+01 -7.0869752067915108e+00 -1.1676782806040912e+01 2 2 1
1130 377 2 4.0999999999999998e-01 -1.1578913119349595e+01 -5.9546067142415726e+00 -1.2737424324898097e+01 2 2 1
429 143 2 4.0999999999999998e-01 -1.3672551943356241e+01 -1.2552530567201252e+00 -1.4561932885722648e+01 0 0 3
557 186 2 4.0999999999999998e-01 -6.4928196728192162e+00 -9.3517685528742369e+00 -1.4494273605346599e+01 -1 0 2
540 180 2 4.0999999999999998e-01 -1.1838266756832025e+01 -7.4389949243517428e-01 -1.1263911530346951e+01 -1 1 0
521 174 2 4.0999999999999998e-01 -1.2092156589212584e+01 -6.9041246514737171e+00 -8.3039565186198185e+00 2 1 1
1219 407 1 -8.1999999999999995e-01 -8.0840095938891654e+00 -4.8177986087042726e+00 -9.7774321469861611e+00 -2 1 0
1526 509 2 4.0999999999999998e-01 -1.4527082789075214e+01 -5.1053280459314649e+00 -9.7011273951411336e+00 1 2 1
427 143 1 -8.1999999999999995e-01 -1.3733192909350336e+01 -8.2628994543167344e-01 -1.3660635526238391e+01 0 0 3
538 180 1 -8.1999999999999995e-01 -1.0911419761099586e+01 -3.7706170188136667e-01 -1.1343963419130779e+01 -1 1 0
1089 363 2 4.0999999999999998e-01 -5.3082777089410147e+00 -6.7679929898355198e+00 -1.4636787558421112e+01 -1 1 1
1697 566 2 4.0999999999999998e-01 -9.8265706583234831e+00 -9.2788020287231205e+00 -1.4218323991521022e+01 0 1 2
1271 424 2 4.0999999999999998e-01 -1.0780044910708396e+01 -1.2671892786056846e+01 -1.4430392765301233e+01 -1 2 0
520 174 1 -8.1999999999999995e-01 -1.2775826559686465e+01 -7.5345610713707991e+00 -7.9363032771227333e+00 2 1 1
2533 845 1 -8.1999999999999995e-01 -5.6361914973360800e+00 -6.1020185749718685e+00 -9.4817239832997995e+00 -1 2 1
1129 377 1 -8.1999999999999995e-01 -1.1347866313182919e+01 -6.4537769247888122e+00 -1.1902277579352877e+01 2 2 1
2556 852 2 4.0999999999999998e-01 -6.6642033643341385e+00 -1.3238181391146462e+01 -1.4190227868741170e+01 0 2 3
1031 344 2 4.0999999999999998e-01 -1.2250948567897060e+01 -2.4578502564843454e+00 -1.4846231550437142e+01 1 0 2
2123 708 2 4.0999999999999998e-01 -9.5606620724752034e+00 -9.1017905106278896e-01 -1.4023278960734421e+01 -1 0 1
2535 845 2 4.0999999999999998e-01 -4.9942146005333594e+00 -5.7872601457370987e+00 -1.0180878041844899e+01 -1 2 1
2122 708 1 -8.1999999999999995e-01 -9.3107776080618514e+00 -1.5220176518216437e+00 -1.3272789166066650e+01 -1 0 1
2124 708 2 4.0999999999999998e-01 -8.3866911142551270e+00 -1.8735207098446605e+00 -1.3422900341284327e+01 -1 0 1
2136 712 2 4.0999999999999998e-01 -1.0255400094444003e+01 -1.7005527597982315e+00 -8.0523182446680366e+00 1 1 0
1221 407 2 4.0999999999999998e-01 -8.1068919328924522e+00 -3.8858710790987487e+00 -1.0139386689856074e+01 -2 1 0
776 259 2 4.0999999999999998e-01 -1.0589965249582697e+01 -2.6540299869557149e+00 -1.3404512427529999e+01 2 2 1
777 259 2 4.0999999999999998e-01 -1.0799459808941691e+01 -4.2217471913163376e+00 -1.3810793428412397e+01 2 2 1
2135 712 2 4.0999999999999998e-01 -1.0337714944087095e+01 -1.1528775362369856e+00 -9.5885361870731813e+00 1 1 0
906 302 2 4.0999999999999998e-01 -1.3633532291011086e+01 -1.1903013402730487e+00 -1.2007072973356061e+01 0 1 3
1527 509 2 4.0999999999999998e-01 -1.3708235939033241e+01 -5.4241057646179787e+00 -8.3246972156182544e+00 1 2 1
994 332 1 -8.1999999999999995e-01 -1.0184062888900101e+01 -5.6975419343077647e+00 -1.4356439362272205e+01 0 1 1
904 302 1 -8.1999999999999995e-01 -1.3468876878803016e+01 -1.1395221120819858e+00 -1.1022017796431761e+01 0 1 3
1220 407 2 4.0999999999999998e-01 -8.4875138636725183e+00 -4.8300300283524020e+00 -8.8625232410940740e+00 -2 1 0
2134 712 1 -8.1999999999999995e-01 -9.8613034877851540e+00 -1.0626178638150314e+00 -8.7139454666975578e+00 1 1 0
556 186 1 -8.1999999999999995e-01 -6.1604302568690255e+00 -8.6422977374058689e+00 -1.3872830073621222e+01 -1 0 2
889 297 1 -8.1999999999999995e-01 -1.1098840621372496e+01 -5.6004201953900665e+00 -9.2038859655162177e+00 0 -2 3
783 261 2 4.0999999999999998e-01 -6.4559333434810107e+00 -1.4810354962460757e+00 -1.0171451360501544e+01 -2 2 2
891 297 2 4.0999999999999998e-01 -1.1379284403784618e+01 -4.6408061968985166e+00 -9.2265986285949726e+00 0 -2 3
1245 415 2 4.0999999999999998e-01 -1.1221111821834610e+01 -3.0580807655029982e+00 -1.0968756367866753e+01 1 2 2
775 259 1 -8.1999999999999995e-01 -1.1263606226624283e+01 -3.3830936832295784e+00 -1.3525746002167573e+01 2 2 1
2283 761 2 4.0999999999999998e-01 -1.3911749372220875e+01 -2.9448977398174652e+00 -8.3892539785877354e+00 0 2 0
626 209 2 4.0999999999999998e-01 -6.9452846584392613e+00 -7.0697403750719774e+00 -1.3715751223883977e+01 0 1 1
1243 415 1 -8.1999999999999995e-01 -1.1469681518553324e+01 -3.1915052132563808e+00 -1.0009363520956622e+01 1 2 2
829 277 1 -8.1999999999999995e-01 -8.8082098376876310e+00 -7.2532522500057182e+00 -1.1217320850370324e+01 -1 3 2
630 210 2 4.0999999999999998e-01 -5.3381935004962120e+00 -2.5440977234706708e+00 -1.3845062490782695e+01 -2 1 1
627 209 2 4.0999999999999998e-01 -7.9730140024400296e+00 -6.5838475725893701e+00 -1.2543415939587209e+01 0 1 1
539 180 2 4.0999999999999998e-01 -1.0375739989487162e+01 -9.5601461182931935e-01 -1.1958686382129734e+01 -1 1 0
905 302 2 4.0999999999999998e-01 -1.3813679375495422e+01 -2.6898342880584281e-01 -1.0670880701005384e+01 0 1 3
831 277 2 4.0999999999999998e-01 -8.3136423496835778e+00 -6.5663963939303791e+00 -1.0684727522166387e+01 -1 3 2
2281 761 1 -8.1999999999999995e-01 -1.4013721516033094e+01 -1.9502579182191955e+00 -8.4070563811647894e+00 0 2 0
781 261 1 -8.1999999999999995e-01 -7.2362959697416818e+00 -2.0957656056572738e+00 -1.0286188786233623e+01 -2 2 2
1525 509 1 -8.1999999999999995e-01 -1.4162526588675497e+01 -4.7103795073725792e+00 -8.8578373849815328e+00 1 2 1
2534 845 2 4.0999999999999998e-01 -6.4511270569242249e+00 -5.5225447123304594e+00 -9.4923860179417954e+00 -1 2 1
1244 415 2 4.0999999999999998e-01 -1.2464596239425182e+01 -3.2510584414408452e+00 -9.9279895573313492e+00 1 2 2
542 181 2 4.0999999999999998e-01 -6.9654698221889149e+00 -3.2441683636586056e+00 -1.2418506333629086e+01 -1 1 0
541 181 1 -8.1999999999999995e-01 -6.8030842440227399e+00 -3.6577941384197086e+00 -1.3314368073026110e+01 -1 1 0
830 277 2 4.0999999999999998e-01 -9.6917774827785692e+00 -6.8814820576612039e+00 -1.1502134414109261e+01 -1 3 2
543 181 2 4.0999999999999998e-01 -7.2518287676088766e+00 -4.5505157755803509e+00 -1.3355599948520510e+01 -1 1 0
428 143 2 4.0999999999999998e-01 -1.4481478929732038e+01 -1.6290649173206440e-01 -1.3656888375519321e+01 0 0 3
2176 726 1 -8.1999999999999995e-01 -8.7848361956054752e+00 -1.4239379910193145e+01 -4.4329975413046032e+00 -2 1 2
2177 726 2 4.0999999999999998e-01 -8.8866248789968978e+00 -1.4068661963128323e+01 -5.4130577753254840e+00 -2 1 2
2178 726 2 4.0999999999999998e-01 -7.8164596264661892e+00 -1.4199920621404774e+01 -4.1865966303827271e+00 -2 1 2
1705 569 1 -8.1999999999999995e-01 -1.0634700603754046e+01 -1.2816389406562049e+01 -2.7509405636370072e+00 -1 3 0
1706 569 2 4.0999999999999998e-01 -1.0034915261264461e+01 -1.3355150787578330e+01 -3.3425631855057549e+00 -1 3 0
1167 389 2 4.0999999999999998e-01 -1.3199714611523802e+01 -1.4549564985629972e+01 -1.5297684979366188e+00 0 1 1
1707 569 2 4.0999999999999998e-01 -1.0246445748420554e+01 -1.2776515236252449e+01 -1.8302387527339583e+00 -1 3 0
1446 482 2 4.0999999999999998e-01 -1.1915149370575552e+01 -1.0378603588615610e+01 -7.3092040982323923e+00 0 1 1
1574 525 2 4.0999999999999998e-01 -1.1247764826860704e+01 -1.0458463032169444e+01 -4.7890254624249682e+00 -1 0 2
1045 349 1 -8.1999999999999995e-01 -8.0202033015584622e+00 -1.0739492770004059e+01 -4.6510450718668856e+00 0 1 0
1046 349 2 4.0999999999999998e-01 -7.8966891650495770e+00 -1.0393615270099481e+01 -5.5811722759511433e+00 0 1 0
1573 525 1 -8.1999999999999995e-01 -1.0743618200212914e+01 -1.0881644787112032e+01 -5.5418713891595424e+00 -1 0 2
1166 389 2 4.0999999999999998e-01 -1.2051019489339335e+01 -1.3511861276752477e+01 -2.0497300276663744e+00 0 1 1
1285 429 1 -8.1999999999999995e-01 -6.5037873886489468e+00 -1.4911001221636907e+01 -1.1908668211752378e+00 -2 1 1
1610 537 2 4.0999999999999998e-01 -1.4315674929025244e+01 -1.1281881124641593e+01 -1.4865737735803020e+00 1 1 0
1165 389 1 -8.1999999999999995e-01 -1.2655556704587809e+01 -1.3746054568924661e+01 -1.2883419007441006e+00 0 1 1
92 31 2 4.0999999999999998e-01 -7.3511304117541423e+00 -1.1969126089945991e+01 -1.7684699641589177e+00 0 -1 1
878 293 2 4.0999999999999998e-01 -6.0316257517444800e+00 -1.3276939743265601e+01 -3.6053365753097868e+00 -1 2 -1
1047 349 2 4.0999999999999998e-01 -7.2512698632383419e+00 -1.1332032927720320e+01 -4.4109177487015572e+00 0 1 0
739 247 1 -8.1999999999999995e-01 -1.2197507942061595e+01 -1.3409988757711993e+01 -6.4899761770838218e+00 0 4 1
1575 525 2 4.0999999999999998e-01 -9.7778616703018884e+00 -1.0959274821255983e+01 -5.2942597633713842e+00 -1 0 2
2117 706 2 4.0999999999999998e-01 -6.1834567251899664e+00 -5.4638685358959922e+00 -3.0302294575655093e+00 0 1 1
471 157 2 4.0999999999999998e-01 -1.0104038107342467e+01 -1.0263024560576072e+01 -2.4893028556383996e+00 2 2 2
1128 376 2 4.0999999999999998e-01 -6.8145331101644455e+00 -1.3807578184488689e+01 -7.4677053923391572e+00 1 2 2
469 157 1 -8.1999999999999995e-01 -9.6390645982290835e+00 -9.5137587467226350e+00 -2.9609213392420415e+00 2 2 2
65 22 2 4.0999999999999998e-01 -1.3420412302124898e+01 -9.8295590165059323e+00 -5.7438843661208594e+00 0 2 1
64 22 1 -8.1999999999999995e-01 -1.3563918724683180e+01 -1.0123320675401807e+01 -4.7988269087245410e+00 0 2 1
470 157 2 4.0999999999999998e-01 -8.9341314188886720e+00 -9.8862808409660374e+00 -3.5645107221449521e+00 2 2 2
484 162 1 -8.1999999999999995e-01 -1.0319232139321802e+01 -2.5877621754519637e+00 -3.9014975109040098e+00 -1 0 3
2360 787 2 4.0999999999999998e-01 -1.1471022711188754e+01 -8.8091498007737066e+00 -2.7729960789537831e+00 1 -1 0
741 247 2 4.0999999999999998e-01 -1.1904493672235079e+01 -1.2547560968722227e+01 -6.0771995371592631e+00 0 4 1
2361 787 2 4.0999999999999998e-01 -1.2805940458469699e+01 -9.0811716550082995e+00 -3.6733783131120727e+00 1 -1 0
2359 787 1 -8.1999999999999995e-01 -1.2407837895199799e+01 -8.5104614130831493e+00 -2.9551667926178240e+00 1 -1 0
2014 672 1 -8.1999999999999995e-01 -9.7139901243915041e+00 -1.4587680536334274e+01 -5.5711846745550098e-01 1 1 1
93 31 2 4.0999999999999998e-01 -5.9203158340699762e+00 -1.1459760588073104e+01 -2.3684748750606754e+00 0 -1 1
437 146 2 4.0999999999999998e-01 -8.7586658061281888e+00 -8.2398731607638886e+00 -2.2251275527260912e+00 1 3 -1
740 247 2 4.0999999999999998e-01 -1.2964939177058126e+01 -1.3784734652542875e+01 -5.9697469649092607e+00 0 4 1
1286 429 2 4.0999999999999998e-01 -6.2550630078052230e+00 -1.4074707353563879e+01 -1.6795102080251159e+00 -2 1 1
2118 706 2 4.0999999999999998e-01 -5.7625585764760938e+00 -5.6417030111555260e+00 -4.5980014740403714e+00 0 1 1
74 25 2 4.0999999999999998e-01 -1.0230504937341017e+01 -1.5106454368255040e+00 -1.4610606323831217e+00 -1 -1 1
66 22 2 4.0999999999999998e-01 -1.3988380590681329e+01 -1.1028753990531216e+01 -4.7920267755652386e+00 0 2 1
2540 847 2 4.0999999999999998e-01 -7.0593284724765972e+00 -9.2816148883807497e+00 -7.1508640124015672e+00 1 1 0
91 31 1 -8.1999999999999995e-01 -6.5451441824170402e+00 -1.2237190122640541e+01 -2.2962497415674310e+00 0 -1 1
670 224 1 -8.1999999999999995e-01 -5.5251727769948555e+00 -8.7058740368605712e+00 -5.0607047046468274e+00 0 2 0
877 293 1 -8.1999999999999995e-01 -5.9712362678620341e+00 -1.4125045654176237e+01 -4.1317329024948037e+00 -1 2 -1
2456 819 2 4.0999999999999998e-01 -1.2320944197254962e+01 -9.6829257962481883e+00 -6.3295080018901295e-01 2 2 1
1127 376 2 4.0999999999999998e-01 -6.7879933059902466e+00 -1.4142234552391232e+01 -5.8695845603284322e+00 1 2 2
720 240 2 4.0999999999999998e-01 -9.0093245492849334e+00 -1.3164887090125569e+01 -6.3293012151115136e-01 2 0 2
2455 819 1 -8.1999999999999995e-01 -1.1592526064882119e+01 -1.0327387102433288e+01 -4.0035613148035409e-01 2 2 1
2560 854 1 -8.1999999999999995e-01 -9.2650754082995057e+00 -2.4356233081806700e-01 -2.8813542284226195e+00 1 0 1
438 146 2 4.0999999999999998e-01 -7.3245206704858035e+00 -7.5964262864256566e+00 -2.6677258977870508e+00 1 3 -1
373 125 1 -8.1999999999999995e-01 -1.4276270502808451e+01 -1.4819167221094597e+01 -5.4788518019772798e+00 1 1 0
671 224 2 4.0999999999999998e-01 -6.1710981701735808e+00 -8.5540720025511447e+00 -5.8088759031971033e+00 0 2 0
1600 534 1 -8.1999999999999995e-01 -1.3932763648614074e+01 -9.1482293661647667e+00 -8.0582890333126400e-01 1 1 0
436 146 1 -8.1999999999999995e-01 -8.0943195025486396e+00 -7.5171874137531836e+00 -2.0343582577446249e+00 1 3 -1
858 286 2 4.0999999999999998e-01 -1.4609898047855982e+01 -5.8124605101687514e+00 -4.1965000856773926e-01 0 3 1
672 224 2 4.0999999999999998e-01 -5.4226386811890848e+00 -7.8628529631179518e+00 -4.5326650792073373e+00 0 2 0
887 296 2 4.0999999999999998e-01 -6.1291145434098393e+00 -3.6912986545079640e-01 -3.2637932809903827e+00 -1 0 -2
75 25 2 4.0999999999999998e-01 -9.3791901957508657e+00 -2.6803859492322744e+00 -7.0365731890190908e-01 -1 -1 1
886 296 1 -8.1999999999999995e-01 -5.7648565924372175e+00 -4.9095590316633242e-01 -4.1871015573317152e+00 -1 0 -2
1126 376 1 -8.1999999999999995e-01 -7.3199397975833129e+00 -1.4224738148632488e+01 -6.7123476921672474e+00 1 2 2
1462 488 1 -8.1999999999999995e-01 -5.6543205487704320e+00 -4.9311135941856818e+00 -6.4272409213180755e+00 1 1 0
1611 537 2 4.0999999999999998e-01 -1.3966042557065187e+01 -1.2762684720309514e+01 -2.0795892453251312e+00 1 1 0
2373 791 2 4.0999999999999998e-01 -6.1619522725742790e+00 -3.2871337528434186e+00 -6.3050710535131920e+00 0 0 3
1324 442 1 -8.1999999999999995e-01 -6.7334566512870815e+00 -7.6461429278405433e+00 -7.2770445289032111e+00 1 -1 3
1602 534 2 4.0999999999999998e-01 -1.3932620001353522e+01 -8.4994244289171448e+00 -1.5667991646170840e+00 1 1 0
1609 537 1 -8.1999999999999995e-01 -1.4502107406550186e+01 -1.1930957311767175e+01 -2.2241147210412908e+00 1 1 0
2116 706 1 -8.1999999999999995e-01 -5.8192439157768447e+00 -6.0996267834931484e+00 -3.7108057750463583e+00 0 1 1
779 260 2 4.0999999999999998e-01 -5.4504548294936210e+00 -4.3979543684300495e+00 -1.0512414611310614e+00 0 1 0
2341 781 1 -8.1999999999999995e-01 -1.2807753871638361e+01 -3.3979872969329197e+00 -3.2088506444899956e-01 -1 1 0
73 25 1 -8.1999999999999995e-01 -1.0240879630320542e+01 -2.1729939395844422e+00 -7.1192083211777479e-01 -1 -1 1
2372 791 2 4.0999999999999998e-01 -6.3776602676872045e+00 -1.9451382245770930e+00 -5.3999702248231767e+00 0 0 3
2342 781 2 4.0999999999999998e-01 -1.1861953177881631e+01 -3.0755276057219856e+00 -3.5967180403233101e-01 -1 1 0
1326 442 2 4.0999999999999998e-01 -7.6381648457732307e+00 -7.2660560583992675e+00 -7.0845330047966222e+00 1 -1 3
2233 745 1 -8.1999999999999995e-01 -1.3102711679569889e+01 -2.2217567070024540e+00 -3.8253354216735627e+00 0 2 0
778 260 1 -8.1999999999999995e-01 -6.2099322632612797e+00 -4.3947761875112228e+00 -1.7017854923302629e+00 0 1 0
780 260 2 4.0999999999999998e-01 -6.9012679492757076e+00 -3.7365142665894879e+00 -1.4038428258896829e+00 0 1 0
1850 617 2 4.0999999999999998e-01 -1.4961220176766577e+01 -1.3321050622850276e+01 -5.6558137895637302e+00 -2 1 1
2303 768 2 4.0999999999999998e-01 -1.1224223588430643e+01 -3.5324886456663673e+00 -6.9352728016480327e+00 0 2 1
857 286 2 4.0999999999999998e-01 -1.3604900128741624e+01 -4.7096980863225077e+00 -1.0834147717501992e+00 0 3 1
856 286 1 -8.1999999999999995e-01 -1.4155164241634857e+01 -5.5252278592749757e+00 -1.2627029047484193e+00 0 3 1
1711 571 1 -8.1999999999999995e-01 -9.2506760155009005e+00 -1.7578707051249509e-01 -5.7451841834295170e+00 1 2 1
1411 471 1 -8.1999999999999995e-01 -1.2013643250042442e+01 -5.1215845783290010e+00 -5.7661305248467105e+00 -1 1 0
485 162 2 4.0999999999999998e-01 -9.8903008985256520e+00 -3.3909267498258835e+00 -3.4880143859715460e+00 -1 0 3
1413 471 2 4.0999999999999998e-01 -1.3008920909759659e+01 -5.1702064585301741e+00 -5.8502845368138985e+00 -1 1 0
2302 768 1 -8.1999999999999995e-01 -1.0704885042580955e+01 -2.6881517400558028e+00 -6.8033399162153270e+00 0 2 1
2020 674 1 -8.1999999999999995e-01 -1.3662566544082235e+01 -5.3801001399032877e-01 -5.9376221556146156e+00 -1 1 2
1947 649 2 4.0999999999999998e-01 -1.4293448297359358e+01 -7.4254645020947869e+00 -7.2278350954811161e+00 -1 0 -2
2304 768 2 4.0999999999999998e-01 -1.0636539574315755e+01 -2.4881453092262777e+00 -5.8259198686637959e+00 0 2 1
2021 674 2 4.0999999999999998e-01 -1.3829325017883944e+01 -1.0831911745250906e+00 -6.7592015662728659e+00 -1 1 2
1713 571 2 4.0999999999999998e-01 -9.0459759147979888e+00 -6.8837344513252496e-01 -6.5790766738016302e+00 1 2 1
1412 471 2 4.0999999999999998e-01 -1.1747363837397026e+01 -5.3412879122560906e+00 -4.8275947865275537e+00 -1 1 0
486 162 2 4.0999999999999998e-01 -9.7978044842339038e+00 -1.7695643642656158e+00 -3.6592390577028997e+00 -1 0 3
718 240 1 -8.1999999999999995e-01 -8.6664207300606435e+00 -1.2227464210955336e+01 -5.7227602535010469e-01 2 0 2
1365 455 2 4.0999999999999998e-01 -9.5899323307329816e+00 -6.2410810053314112e+00 -5.9257283066873931e+00 -1 3 2
1363 455 1 -8.1999999999999995e-01 -9.1884909843544555e+00 -6.2695326843882562e+00 -6.8411839072781131e+00 -1 3 2
389 130 2 4.0999999999999998e-01 -1.2087918563399404e+01 -6.7722364670578976e+00 -3.1783052646153269e+00 -2 1 0
388 130 1 -8.1999999999999995e-01 -1.1821288054377231e+01 -5.8089694055873906e+00 -3.1459266577532059e+00 -2 1 0
283 95 1 -8.1999999999999995e-01 -9.4582658861499098e+00 -4.8830792948084305e+00 -2.9333637022801096e+00 -1 -1 1
472 158 1 -8.1999999999999995e-01 -7.5135278676168866e+00 -2.1840701733052565e+00 -8.6030223852662857e-01 -1 -1 3
474 158 2 4.0999999999999998e-01 -7.2009343637734791e+00 -1.3875055219859185e+00 -1.3777900811691453e+00 -1 -1 3
284 95 2 4.0999999999999998e-01 -1.0355955028557542e+01 -5.2987707270323110e+00 -3.0795775128374796e+00 -1 -1 1
285 95 2 4.0999999999999998e-01 -8.8044918277804776e+00 -5.5889609250036347e+00 -2.6607206842715456e+00 -1 -1 1
1884 628 2 4.0999999999999998e-01 -8.5812291509680474e+00 -6.9640414769936783e+00 -3.4023910037319105e-01 -1 -1 0
390 130 2 4.0999999999999998e-01 -1.2525020821323949e+01 -5.2842467276439447e+00 -2.6669173505528843e+00 -2 1 0
2234 745 2 4.0999999999999998e-01 -1.3596291042079558e+01 -2.3851155724664821e+00 -2.9711007367340638e+00 0 2 0
2235 745 2 4.0999999999999998e-01 -1.2148917092920152e+01 -2.5024745618706792e+00 -3.7181114198825576e+00 0 2 0
1464 488 2 4.0999999999999998e-01 -6.0872005086243668e+00 -5.7456918210705883e+00 -6.8133767247614330e+00 1 1 0
2371 791 1 -8.1999999999999995e-01 -6.3065563906797362e+00 -2.2980248611699601e+00 -6.3329433581975643e+00 0 0 3
2022 674 2 4.0999999999999998e-01 -1.3587174310709374e+01 -1.1435661524718839e+00 -5.1453839352281729e+00 -1 1 2
879 293 2 4.0999999999999998e-01 -5.0234512392311856e+00 -1.4276286668280068e+01 -4.4125412177274637e+00 -1 2 -1
2539 847 1 -8.1999999999999995e-01 -7.3607358626312784e+00 -1.0232413587288530e+01 -7.0790375214203483e+00 1 1 0
1496 499 2 4.0999999999999998e-01 -5.0152208870385788e+00 -9.7053330051201616e+00 -3.9330133654859516e+00 1 1 3
1601 534 2 4.0999999999999998e-01 -1.4394244871935665e+01 -8.7387840309388309e+00 -1.8800808929972490e-02 1 1 0
685 229 1 -8.1999999999999995e-01 -7.6408159891094414e+00 -1.1809293045118725e+01 1.7953132063841153e+00 -1 0 0
687 229 2 4.0999999999999998e-01 -8.3669996309623702e+00 -1.2185494576422061e+01 2.3707724765746399e+00 -1 0 0
2083 695 1 -8.1999999999999995e-01 -1.3806118755713751e+01 -1.0200950077583204e+01 3.2436955599882893e+00 -1 0 1
869 290 2 4.0999999999999998e-01 -6.6700707234483367e+00 -2.5729303684513205e-01 2.6383379612676059e+00 -1 -2 0
473 158 2 4.0999999999999998e-01 -7.1091656989307976e+00 -2.1671259274200505e+00 5.4152644957470741e-02 -1 -1 3
2084 695 2 4.0999999999999998e-01 -1.3461126615698024e+01 -1.1139490640742883e+01 3.2557636295739449e+00 -1 0 1
1288 430 1 -8.1999999999999995e-01 -1.1271759945230036e+01 -1.4785625308012909e+01 4.5625108524559721e+00 2 3 0
2402 801 2 4.0999999999999998e-01 -1.3172440792060465e+01 -1.2731538889506925e+01 1.7384916162797275e+00 0 -1 2
2401 801 1 -8.1999999999999995e-01 -1.2439809189339771e+01 -1.2421966829354915e+01 1.1323235740818767e+00 0 -1 2
2411 804 2 4.0999999999999998e-01 -9.9390667925628584e+00 -1.3126136667605302e+01 3.8127769674693894e+00 1 1 -2
1289 430 2 4.0999999999999998e-01 -1.1870262791658535e+01 -1.4072839341524041e+01 4.9282349614482506e+00 2 3 0
686 229 2 4.0999999999999998e-01 -6.8243810264624560e+00 -1.1650141878155775e+01 2.3504064152451249e+00 -1 0 0
2410 804 1 -8.1999999999999995e-01 -9.9002530042178396e+00 -1.2460339648809457e+01 3.0676384405680750e+00 1 1 -2
2412 804 2 4.0999999999999998e-01 -1.0795576650519221e+01 -1.2401696398172914e+01 2.6260728766489159e+00 1 1 -2
2454 818 2 4.0999999999999998e-01 -9.0351773510347382e+00 -1.3966525177062124e+01 6.1336017645493008e+00 -3 0 1
1679 560 2 4.0999999999999998e-01 -1.3275466619315175e+01 -1.2659452136272302e+01 6.2367194056571016e+00 1 2 0
1678 560 1 -8.1999999999999995e-01 -1.2298398564886895e+01 -1.2779811614297921e+01 6.0610058866888039e+00 1 2 0
451 151 1 -8.1999999999999995e-01 -1.2080468621785263e+01 -9.7887334653042615e+00 6.3380950530425650e+00 0 -1 0
452 151 2 4.0999999999999998e-01 -1.1896233275312046e+01 -9.5192946630138273e+00 5.3928523882710913e+00 0 -1 0
453 151 2 4.0999999999999998e-01 -1.1497665428169803e+01 -9.2598627271724929e+00 6.9550713823551256e+00 0 -1 0
1680 560 2 4.0999999999999998e-01 -1.1860394733504695e+01 -1.1883962670211707e+01 5.9859663699105603e+00 1 2 0
2452 818 1 -8.1999999999999995e-01 -8.3355454736227585e+00 -1.4136500857664036e+01 5.4395937578193063e+00 -3 0 1
933 311 2 4.0999999999999998e-01 -6.7878255569050303e+00 -1.1293718594713301e+01 5.3469710602526419e+00 -1 0 1
971 324 2 4.0999999999999998e-01 -1.4831420656720354e+01 -4.0731333081190968e-01 3.5160347958308122e+00 1 1 0
932 311 2 4.0999999999999998e-01 -7.4902465812229275e+00 -1.2603391822433769e+01 4.6701770129297380e+00 -1 0 1
931 311 1 -8.1999999999999995e-01 -6.9643017053902945e+00 -1.1772794984876990e+01 4.4871073453966979e+00 -1 0 1
2403 801 2 4.0999999999999998e-01 -1.2512226880830445e+01 -1.2894131209490602e+01 2.5377926039316989e-01 0 -1 2
318 106 2 4.0999999999999998e-01 -5.1600503679822598e+00 -6.1534615521574967e+00 3.8687630742087471e+00 2 3 1
545 182 2 4.0999999999999998e-01 -8.8525334430811391e+00 -1.0268019394949448e+01 7.5158308633895921e-01 -1 0 0
2152 718 1 -8.1999999999999995e-01 -6.9079129204654492e+00 -1.0031555694606798e+01 7.0131080433410808e+00 -1 3 1
1427 476 2 4.0999999999999998e-01 -6.7451775833331631e+00 -1.4280024744572795e+01 6.2246551117084472e+00 1 0 -1
719 240 2 4.0999999999999998e-01 -8.4037745019208909e+00 -1.2029065136029875e+01 3.7201120323565107e-01 2 0 2
544 182 1 -8.1999999999999995e-01 -9.5028011831872234e+00 -9.5437631162260139e+00 9.8099169890434013e-01 -1 0 0
1417 473 1 -8.1999999999999995e-01 -1.4458441150797345e+01 -1.4832971718154440e+01 4.6175438894664076e+00 -1 2 -1
1426 476 1 -8.1999999999999995e-01 -5.7995742658598015e+00 -1.4411795174966830e+01 6.5221354478620412e+00 1 0 -1
1403 468 2 4.0999999999999998e-01 -1.0181247069997859e+01 -9.4211090124016934e+00 3.9419984640200418e+00 1 1 0
849 283 2 4.0999999999999998e-01 -7.9183114711682583e+00 -1.0350034243235459e+01 3.9099997666826631e+00 1 1 0
1402 468 1 -8.1999999999999995e-01 -1.1084915835223699e+01 -8.9977245060389173e+00 3.8775628905996129e+00 1 1 0
847 283 1 -8.1999999999999995e-01 -8.4439875324339049e+00 -9.5211971948376615e+00 3.7183818211076698e+00 1 1 0
1163 388 2 4.0999999999999998e-01 -5.7257351549905309e+00 -1.2663570249908187e+01 5.2400965640635278e-01 -1 2 0
1404 468 2 4.0999999999999998e-01 -1.1559176169527198e+01 -9.3457786493011206e+00 3.0688855413031817e+00 1 1 0