LAMMPS data file via write_data, version 15 May 2015, timestep = 18500000

2593 atoms
6 atom types
1728 bonds
4 bond types
864 angles
3 angle types
0 dihedrals
3 dihedral types
0 impropers
1 improper types

-1.5142307821728478e+01 1.5142307821728478e+01 xlo xhi
-1.5142307821728478e+01 1.5142307821728478e+01 ylo yhi
-1.5142307821728478e+01 1.5142307821728478e+01 zlo zhi

Masses

1 15.9994
2 1.00794
3 12.0107
4 1.00794
5 12.0107
6 12.0107

Bond Coeffs # harmonic

1 1000 1
2 469 1.4
3 367 1.08
4 469 0.7

Angle Coeffs # harmonic

1 100 109.47
2 35 120
3 63 120

Dihedral Coeffs # opls

1 0 7.25 0 0
2 0 7.25 0 0
3 0 7.25 0 0

Improper Coeffs # cvff

1 2.5 -1 2

Atoms # full

1221 407 2 4.0999999999999998e-01 -1.0834392750580266e+01 -1.1982464839891392e+01 -1.0897022976022182e+01 -6 -1 -1
1220 407 2 4.0999999999999998e-01 -1.0764632813685038e+01 -1.0455010467177495e+01 -1.0323773120786491e+01 -6 -1 -1
1219 407 1 -8.1999999999999995e-01 -1.0993812064530839e+01 -1.1401968593318937e+01 -1.0098524901936861e+01 -6 -1 -1
2172 724 2 4.0999999999999998e-01 -1.2678676993091361e+01 -9.9376282384206522e+00 -8.4626510242529029e+00 4 3 1
958 320 1 -8.1999999999999995e-01 -1.3553715474335354e+01 -1.0142434429061467e+01 -1.2727409826740249e+01 0 1 -2
1128 376 2 4.0999999999999998e-01 -1.2483409240671969e+01 -1.1582242866181948e+01 -9.0471903528841349e+00 6 6 4
418 140 1 -8.1999999999999995e-01 -8.1684724068237973e+00 -1.2128321021804117e+01 -8.8950308660484367e+00 0 6 0
1979 660 2 4.0999999999999998e-01 -9.9860537080216236e+00 -8.3828225826981360e+00 -1.1077759940376612e+01 6 3 2
1782 594 2 4.0999999999999998e-01 -1.4466465856018313e+01 -8.5987619783775209e+00 -1.2340933362780465e+01 -3 7 0
1980 660 2 4.0999999999999998e-01 -8.8417664697757807e+00 -8.8958841287450809e+00 -1.0031828166657352e+01 6 3 2
1978 660 1 -8.1999999999999995e-01 -9.6821329827286711e+00 -8.3619950867450470e+00 -1.0125295769988131e+01 6 3 2
2171 724 2 4.0999999999999998e-01 -1.1326617120872719e+01 -9.1140446594623015e+00 -8.0623475133780076e+00 4 3 1
439 147 1 -8.1999999999999995e-01 -1.0774676989304048e+01 -1.2205973962697771e+01 -7.1007738017422550e+00 4 5 -2
2170 724 1 -8.1999999999999995e-01 -1.2317221474099799e+01 -9.0483982103133194e+00 -8.1822772556854488e+00 4 3 1
1647 549 2 4.0999999999999998e-01 -1.1617719443982246e+01 -1.2503170345092286e+01 -1.3554724079212855e+01 2 6 0
1126 376 1 -8.1999999999999995e-01 -1.3446395284768007e+01 -1.1482444410317925e+01 -8.7968151298158155e+00 6 6 4
419 140 2 4.0999999999999998e-01 -7.9935887803705041e+00 -1.3083039031493474e+01 -8.6543675558209507e+00 0 6 0
1127 376 2 4.0999999999999998e-01 -1.4020868325482576e+01 -1.1723287490243941e+01 -9.5790970072457888e+00 6 6 4
1646 549 2 4.0999999999999998e-01 -1.0247539639200079e+01 -1.1667174945765701e+01 -1.3254195029741282e+01 2 6 0
551 184 2 4.0999999999999998e-01 -1.4760704784346077e+01 -1.1410662162855132e+01 -1.1457950128606331e+01 1 2 10
420 140 2 4.0999999999999998e-01 -9.1505826159420458e+00 -1.1946644747328207e+01 -8.8456056353977566e+00 0 6 0
441 147 2 4.0999999999999998e-01 -1.0780915024459745e+01 -1.1245715214435338e+01 -7.3797967575336196e+00 4 5 -2
960 320 2 4.0999999999999998e-01 -1.4119959377905246e+01 -1.0535273699190597e+01 -1.3452002643081517e+01 0 1 -2
440 147 2 4.0999999999999998e-01 -1.0954982218752855e+01 -1.2269030468206161e+01 -6.1191916610281449e+00 4 5 -2
1832 611 2 4.0999999999999998e-01 -1.3283185017688865e+01 -8.3571530512745618e+00 -6.5321701460970285e+00 3 2 2
331 111 1 -8.1999999999999995e-01 -9.8971597404888065e+00 -9.5870766513645371e+00 -6.8633822602762535e+00 8 5 1
376 126 1 -8.1999999999999995e-01 -8.0518780172568061e+00 -1.2733975698101105e+01 -5.8574108486413650e+00 3 -1 1
1399 467 1 -8.1999999999999995e-01 -1.5086886582013463e+01 -1.4853543280892403e+01 -5.5402771403839424e+00 3 5 1
1313 438 2 4.0999999999999998e-01 -1.4256272980204047e+01 -1.2112528687442126e+01 -7.5574736022319495e+00 7 5 4
1645 549 1 -8.1999999999999995e-01 -1.1193987570003168e+01 -1.1814160553006801e+01 -1.2966756061511266e+01 2 6 0
611 204 2 4.0999999999999998e-01 -1.2800021837946179e+01 -1.4167683948872950e+01 -1.4292943005485345e+01 1 3 1
697 233 1 -8.1999999999999995e-01 -1.1050835272689142e+01 -8.5960289670766308e+00 -1.2685884355650485e+01 -1 7 8
332 111 2 4.0999999999999998e-01 -9.3749798979602037e+00 -8.8831312363414447e+00 -7.3448162174236931e+00 8 5 1
398 133 2 4.0999999999999998e-01 -1.4739019788250140e+01 -1.4030845060086000e+01 -1.2830094725003876e+01 3 1 5
959 320 2 4.0999999999999998e-01 -1.2694229143128766e+01 -1.0649645478034978e+01 -1.2664086977493282e+01 0 1 -2
378 126 2 4.0999999999999998e-01 -8.6253013479714582e+00 -1.1987715371195607e+01 -6.1954504766512581e+00 3 -1 1
2371 791 1 -8.1999999999999995e-01 -1.1822746463227372e+01 -1.4612617995117809e+01 -7.6363692483301167e+00 2 3 6
1394 465 2 4.0999999999999998e-01 -7.9113390943858048e+00 -1.0712823519894300e+01 -1.3681013320679247e+01 1 1 3
1831 611 1 -8.1999999999999995e-01 -1.3823385511430295e+01 -8.0962703644598708e+00 -5.7320993751147196e+00 3 2 2
1227 409 2 4.0999999999999998e-01 -1.3178941036241849e+01 -7.8940105246824572e+00 -9.1997833469512340e+00 4 8 -1
265 89 1 -8.1999999999999995e-01 -1.4894770583057340e+01 -1.1447448750343444e+01 -1.4806926242994752e+01 -1 5 4
1401 467 2 4.0999999999999998e-01 -1.5026159967875097e+01 -1.3962477909762242e+01 -5.9900597405687339e+00 3 5 1
333 111 2 4.0999999999999998e-01 -9.4001482025292091e+00 -9.8676740064924005e+00 -6.0422645676973588e+00 8 5 1
610 204 1 -8.1999999999999995e-01 -1.2244187106181357e+01 -1.4064975281386859e+01 -1.5117860134531000e+01 1 3 1
1312 438 1 -8.1999999999999995e-01 -1.4961506120063950e+01 -1.2458255812312377e+01 -6.9385159755580421e+00 7 5 4
1020 340 2 4.0999999999999998e-01 -8.4714087533167319e+00 -1.4645067725771288e+01 -1.3683909016309631e+01 7 1 2
1393 465 1 -8.1999999999999995e-01 -8.6421022664482834e+00 -1.1390646054618918e+01 -1.3600196350251325e+01 1 1 3
698 233 2 4.0999999999999998e-01 -1.1392770642003201e+01 -8.0707981804382332e+00 -1.3465116292004550e+01 -1 7 8
917 306 2 4.0999999999999998e-01 -1.2249548962739189e+01 -1.5075124618746212e+01 -9.6127434411412764e+00 10 7 8
399 133 2 4.0999999999999998e-01 -1.3380232103743355e+01 -1.4190140594905500e+01 -1.1938512050184524e+01 3 1 5
2373 791 2 4.0999999999999998e-01 -1.1998296636876038e+01 -1.4883884690111387e+01 -6.6900151285815568e+00 2 3 6
397 133 1 -8.1999999999999995e-01 -1.3854849333459791e+01 -1.4493412852074083e+01 -1.2764801346268115e+01 3 1 5
699 233 2 4.0999999999999998e-01 -1.0967431880317070e+01 -9.5586436707943570e+00 -1.2943578722262627e+01 -1 7 8
2372 791 2 4.0999999999999998e-01 -1.1373641704239413e+01 -1.3719236562414242e+01 -7.6491812588870545e+00 2 3 6
1395 465 2 4.0999999999999998e-01 -8.3096786393172408e+00 -1.2278649069866788e+01 -1.3917898690206153e+01 1 1 3
1780 594 1 -8.1999999999999995e-01 -1.5008465654310170e+01 -7.8188814334148447e+00 -1.2027864429825646e+01 -3 7 0
1018 340 1 -8.1999999999999995e-01 -7.7999558146234840e+00 -1.3912690561773955e+01 -1.3796887945073877e+01 7 1 2
372 124 2 4.0999999999999998e-01 -1.5003972078476204e+01 -5.1642079426259393e+00 -6.7558803427745513e+00 -1 8 0
534 178 2 4.0999999999999998e-01 -1.2813556861758778e+01 -6.5766306641005627e+00 -1.4094920787881962e+01 0 0 2
1032 344 2 4.0999999999999998e-01 -8.0074052242192515e+00 -7.3470484162985041e+00 -1.3808686356802417e+01 1 0 7
839 280 2 4.0999999999999998e-01 -9.2175135997617303e+00 -9.2361448691188919e-01 -5.4260963897063199e+00 -7 5 3
1103 368 2 4.0999999999999998e-01 -9.8000972678276135e+00 -1.3468950244261375e+00 -1.4230988630573886e+01 1 2 -4
1589 530 2 4.0999999999999998e-01 -1.3051219502049610e+01 -1.2670035107931366e+00 -1.0985583809080087e+01 0 2 -2
858 286 2 4.0999999999999998e-01 -1.4050290309323099e+01 -3.3173664029712615e+00 -8.0374890890097710e+00 0 3 4
1781 594 2 4.0999999999999998e-01 -1.4571424914777261e+01 -7.4091937781855020e+00 -1.1227151609795394e+01 -3 7 0
180 60 2 4.0999999999999998e-01 -8.5371004505083405e+00 -3.7682001115585546e+00 -1.0509840685183809e+01 5 -4 1
1873 625 1 -8.1999999999999995e-01 -7.6277723995839306e+00 -7.3393977449354573e+00 -7.3339617491949678e+00 3 4 3
1258 420 1 -8.1999999999999995e-01 -8.8495559741682754e+00 -4.8475176745273671e+00 -1.1821391028528879e+01 4 2 1
334 112 1 -8.1999999999999995e-01 -1.3297144000250066e+01 -2.5872001867681202e+00 -5.4248089279554748e+00 0 -2 1
178 60 1 -8.1999999999999995e-01 -8.7380305156495197e+00 -3.2540781169629032e+00 -9.6759970076029838e+00 5 -4 1
370 124 1 -8.1999999999999995e-01 -1.4163717325060228e+01 -5.3291090707241846e+00 -6.2393833513824983e+00 -1 8 0
1391 464 2 4.0999999999999998e-01 -1.3598471459154528e+01 -4.1638488579243749e-01 -5.2310915559092095e+00 5 5 3
532 178 1 -8.1999999999999995e-01 -1.2454070396152895e+01 -7.2331164279902271e+00 -1.4758084050598450e+01 0 0 2
1588 530 1 -8.1999999999999995e-01 -1.3187086583701566e+01 -2.2440146534761052e+00 -1.1149836537721688e+01 0 2 -2
1225 409 1 -8.1999999999999995e-01 -1.3627029403480712e+01 -7.2214896456222437e+00 -9.7887842592726564e+00 4 8 -1
1226 409 2 4.0999999999999998e-01 -1.4500042650897056e+01 -6.9517246300593154e+00 -9.3825031905672791e+00 4 8 -1
2334 778 2 4.0999999999999998e-01 -1.1789231656432401e+01 -2.0610549744171340e+00 -8.7628284100701244e+00 2 3 3
856 286 1 -8.1999999999999995e-01 -1.3283693160772595e+01 -2.8001689870450193e+00 -8.4180481909114899e+00 0 3 4
983 328 2 4.0999999999999998e-01 -1.0154581076978864e+01 -3.1663922475250672e+00 -1.2395063829305878e+01 0 5 -2
984 328 2 4.0999999999999998e-01 -1.1662310266816574e+01 -2.5488336442006894e+00 -1.2285643732104361e+01 0 5 -2
857 286 2 4.0999999999999998e-01 -1.3246099075629814e+01 -2.9395376928976855e+00 -9.4075696096946366e+00 0 3 4
371 124 2 4.0999999999999998e-01 -1.4113815232787621e+01 -6.2945120895741926e+00 -5.9834607527742580e+00 -1 8 0
179 60 2 4.0999999999999998e-01 -9.2197135833708810e+00 -3.8444332426750307e+00 -9.0283459922632439e+00 5 -4 1
335 112 2 4.0999999999999998e-01 -1.2973289454862886e+01 -2.9641282378496374e+00 -6.2925837049105606e+00 0 -2 1
1104 368 2 4.0999999999999998e-01 -8.6771811194775452e+00 -1.3069022510263579e+00 -1.3046058840671058e+01 1 2 -4
1319 440 2 4.0999999999999998e-01 -9.4465639441630618e+00 -5.6481909226266147e-01 -7.5066546511664800e+00 1 2 -2
1030 344 1 -8.1999999999999995e-01 -8.6992129268211045e+00 -6.6251037153389944e+00 -1.3822380569912589e+01 1 0 7
1943 648 2 4.0999999999999998e-01 -8.5240187603362862e+00 -5.9882155216494226e+00 -7.2986299130692958e+00 2 1 3
2332 778 1 -8.1999999999999995e-01 -1.0929587514711489e+01 -1.5697127586727184e+00 -8.9027725823185211e+00 2 3 3
1280 427 2 4.0999999999999998e-01 -8.1014346473102847e+00 -7.8801167928763682e-01 -1.0986316727682976e+01 5 3 2
1808 603 2 4.0999999999999998e-01 -7.6772812271429229e+00 -4.1200655052783901e+00 -5.9289866212591349e+00 0 1 3
1102 368 1 -8.1999999999999995e-01 -8.8213251149662675e+00 -1.2857894617611958e+00 -1.4035385045489969e+01 1 2 -4
314 105 2 4.0999999999999998e-01 -1.0440936123746418e+01 -6.6869880734746445e+00 -9.6492063632967593e+00 0 5 5
1590 530 2 4.0999999999999998e-01 -1.4129257508235529e+01 -2.4047053381795358e+00 -1.1443914834426305e+01 0 2 -2
423 141 2 4.0999999999999998e-01 -1.2344279180201982e+01 -4.6263705388860465e+00 -1.3378930555246034e+01 1 2 5
313 105 1 -8.1999999999999995e-01 -1.0728587367870357e+01 -5.7412322338245154e+00 -9.4982353403802335e+00 0 5 5
315 105 2 4.0999999999999998e-01 -1.1726638169245648e+01 -5.6997930094190306e+00 -9.4516845558167688e+00 0 5 5
421 141 1 -8.1999999999999995e-01 -1.3303420545636943e+01 -4.8985326421589974e+00 -1.3456165424451484e+01 1 2 5
1260 420 2 4.0999999999999998e-01 -8.8288995176146656e+00 -5.3401211825507406e+00 -1.2691393737811268e+01 4 2 1
1259 420 2 4.0999999999999998e-01 -9.3474194934505963e+00 -5.3886705102291295e+00 -1.1143692632130623e+01 4 2 1
422 141 2 4.0999999999999998e-01 -1.3848774228273138e+01 -4.3904896325146670e+00 -1.2789478651720765e+01 1 2 5
2333 778 2 4.0999999999999998e-01 -1.0207532976764409e+01 -2.2210579305102751e+00 -9.1359598321994842e+00 2 3 3
1942 648 1 -8.1999999999999995e-01 -9.1602015311368703e+00 -5.2178753369615674e+00 -7.2557689787674589e+00 2 1 3
1944 648 2 4.0999999999999998e-01 -9.9899175178303317e+00 -5.4419711869268088e+00 -7.7669851843887958e+00 2 1 3
982 328 1 -8.1999999999999995e-01 -1.1064307477091763e+01 -3.1549088500106279e+00 -1.2810100675136038e+01 0 5 -2
1031 344 2 4.0999999999999998e-01 -9.6029589602043686e+00 -7.0319637825443344e+00 -1.3955412776249661e+01 1 0 7
177 59 2 4.0999999999999998e-01 -1.0300556965812184e+01 -1.0414914361352000e+01 -1.8319136694110156e+00 7 2 -2
176 59 2 4.0999999999999998e-01 -1.1844091664257652e+01 -1.0646420837058621e+01 -1.3518052472913666e+00 7 2 -2
175 59 1 -8.1999999999999995e-01 -1.1226921642050989e+01 -1.0038821518919143e+01 -1.8517190664738639e+00 7 2 -2
116 39 2 4.0999999999999998e-01 -9.0264885648087976e+00 -8.6245907181322004e+00 4.6019720943097386e+00 7 0 1
1541 514 2 4.0999999999999998e-01 -8.3764578474649820e+00 -1.0751354072337062e+01 -5.7729226381604271e-01 3 1 4
1378 460 1 -8.1999999999999995e-01 -8.2220067585016849e+00 -1.0404949151287552e+01 2.4636497304870222e+00 -2 5 -3
173 58 2 4.0999999999999998e-01 -1.3187072031826810e+01 -1.4993640555957686e+01 -4.8583709603792293e+00 1 4 -5
298 100 1 -8.1999999999999995e-01 -1.4669574335264070e+01 -1.1525582249290638e+01 2.2453264716007961e+00 2 4 4
1649 550 2 4.0999999999999998e-01 -1.3375920462639140e+01 -1.2065635949573609e+01 -1.1158211180246127e+00 1 2 4
1648 550 1 -8.1999999999999995e-01 -1.3181409000114808e+01 -1.1497468512578283e+01 -3.1623332263356296e-01 1 2 4
2303 768 2 4.0999999999999998e-01 -1.4185099858946575e+01 -1.3233620223430151e+01 -3.0163892611639884e+00 5 8 2
1650 550 2 4.0999999999999998e-01 -1.3989381805364467e+01 -1.1461911172671659e+01 2.7190373905273724e-01 1 2 4
1542 514 2 4.0999999999999998e-01 -9.5964912623586827e+00 -1.1600285861958579e+01 9.9044937312656955e-02 3 1 4
1936 646 1 -8.1999999999999995e-01 -1.2215334227814058e+01 -1.4929217464613394e+01 -5.7286167130424026e-01 2 0 -4
1938 646 2 4.0999999999999998e-01 -1.2849487512424616e+01 -1.4507230508155743e+01 -1.2207553489197061e+00 2 0 -4
1338 446 2 4.0999999999999998e-01 -1.0898920597653936e+01 -1.2420956430795684e+01 2.0221843295110151e+00 0 3 3
1336 446 1 -8.1999999999999995e-01 -1.0948976217681274e+01 -1.2084598002885883e+01 1.0817870607960369e+00 0 3 3
510 170 2 4.0999999999999998e-01 -9.8081234315599417e+00 -1.0880319582152222e+01 4.7393393965818458e+00 2 6 9
1337 446 2 4.0999999999999998e-01 -1.1904160355717661e+01 -1.1916011351309560e+01 8.3849424886740564e-01 0 3 3
2564 855 2 4.0999999999999998e-01 -1.0949715137221920e+01 -9.3563305300915864e+00 -2.1101773715733074e-02 3 5 3
2458 820 1 -8.1999999999999995e-01 -1.4619987149734733e+01 -1.0171338959008231e+01 4.8184759686318213e+00 -1 1 2
1912 638 1 -8.1999999999999995e-01 -8.1415685401262117e+00 -1.0013894686506992e+01 -4.8870904860240358e+00 1 8 5
1578 526 2 4.0999999999999998e-01 -1.1897011093657747e+01 -8.3963989743512428e+00 3.9347978084490673e+00 3 4 8
924 308 2 4.0999999999999998e-01 -8.3253553077590396e+00 -1.4367298410735522e+01 6.8770279920466137e-02 6 -1 9
300 100 2 4.0999999999999998e-01 -1.4683503499808413e+01 -1.1175313789274689e+01 3.1818666848952315e+00 2 4 4
2010 670 2 4.0999999999999998e-01 -1.3026498258137613e+01 -1.4742160605170461e+01 2.7358057834096865e+00 7 2 -2
2008 670 1 -8.1999999999999995e-01 -1.3413318539958466e+01 -1.4087379698867714e+01 2.0864818084491663e+00 7 2 -2
1380 460 2 4.0999999999999998e-01 -8.7972761999507441e+00 -1.0974221067133389e+01 3.0510032432206646e+00 -2 5 -3
508 170 1 -8.1999999999999995e-01 -9.7659692296824563e+00 -1.1777736538959388e+01 4.3001863276924244e+00 2 6 9
1913 638 2 4.0999999999999998e-01 -8.2130110322728171e+00 -9.0472255864807032e+00 -4.6412523104360499e+00 1 8 5
1484 495 2 4.0999999999999998e-01 -1.3752089550662316e+01 -1.1852005608839633e+01 4.8527741149286729e+00 -1 -2 2
2009 670 2 4.0999999999999998e-01 -1.4346257798948454e+01 -1.4361237778462225e+01 1.8527818487919117e+00 7 2 -2
1937 646 2 4.0999999999999998e-01 -1.2351349932040819e+01 -1.4530821069170788e+01 3.3420482441876231e-01 2 0 -4
172 58 1 -8.1999999999999995e-01 -1.2192450878995411e+01 -1.4901329225198614e+01 -4.9052427349024228e+00 1 4 -5
1379 460 2 4.0999999999999998e-01 -8.7936346645861008e+00 -9.9376638309110810e+00 1.7892051063708134e+00 -2 5 -3
2302 768 1 -8.1999999999999995e-01 -1.3979563502171905e+01 -1.3573169627443248e+01 -2.0985381822487241e+00 5 8 2
27 9 2 4.0999999999999998e-01 -1.1725111612330309e+01 -8.7716541775992756e+00 -2.8506055741228149e+00 2 2 0
885 295 2 4.0999999999999998e-01 -8.3641199479137853e+00 -1.2182054840179243e+01 -2.2899421395877120e+00 6 3 4
884 295 2 4.0999999999999998e-01 -7.5760842717619035e+00 -1.3396525492779817e+01 -3.0453622289499478e+00 6 3 4
1540 514 1 -8.1999999999999995e-01 -9.1278225185050630e+00 -1.1386023653127795e+01 -7.5794451282291853e-01 3 1 4
2304 768 2 4.0999999999999998e-01 -1.4643466041075087e+01 -1.4277512039422747e+01 -1.8472917291234818e+00 5 8 2
1006 336 1 -8.1999999999999995e-01 -1.5024810725387761e+01 -1.2082649377976534e+01 -4.1928829593741970e+00 8 0 3
299 100 2 4.0999999999999998e-01 -1.4446587935039618e+01 -1.2500324869545667e+01 2.2573044318481816e+00 2 4 4
174 58 2 4.0999999999999998e-01 -1.1906300594224982e+01 -1.4103980042475511e+01 -4.3738842181761939e+00 1 4 -5
1174 392 1 -8.1999999999999995e-01 -1.0660221547329282e+01 -1.2249645997067137e+01 -4.3281145316984979e+00 1 0 6
883 295 1 -8.1999999999999995e-01 -8.2738169226376606e+00 -1.2687567919216196e+01 -3.1480164234825310e+00 6 3 4
25 9 1 -8.1999999999999995e-01 -1.2064531507809619e+01 -7.9799001876806948e+00 -3.3584533550351452e+00 2 2 0
2076 692 2 4.0999999999999998e-01 -1.1943499450851380e+01 -1.4613448112802757e+01 4.6980035941497551e+00 0 -4 9
1176 392 2 4.0999999999999998e-01 -1.1083900448772546e+01 -1.1484922148575990e+01 -3.8426423840213566e+00 1 0 6
1175 392 2 4.0999999999999998e-01 -9.8180657281397430e+00 -1.2516414719232401e+01 -3.8595020829810558e+00 1 0 6
1833 611 2 4.0999999999999998e-01 -1.3235320627314330e+01 -8.0809545097708355e+00 -4.9234370812728283e+00 3 2 2
755 252 2 4.0999999999999998e-01 -9.0464921051954548e+00 -7.7022601388671115e+00 2.1285100184174155e-01 -2 3 1
2563 855 1 -8.1999999999999995e-01 -1.0395986316882318e+01 -8.9143696825219934e+00 6.8462096444442899e-01 3 5 3
2565 855 2 4.0999999999999998e-01 -1.0995365364024597e+01 -8.5332242407047261e+00 1.3885119300262740e+00 3 5 3
1576 526 1 -8.1999999999999995e-01 -1.1937923883078508e+01 -7.9710865697476763e+00 3.0306821670710153e+00 3 4 8
1577 526 2 4.0999999999999998e-01 -1.2862653046386342e+01 -7.6283888845894268e+00 2.8650806356341416e+00 3 4 8
509 170 2 4.0999999999999998e-01 -9.5877881449719844e+00 -1.2478707087487960e+01 4.9907523296759937e+00 2 6 9
377 126 2 4.0999999999999998e-01 -7.7267875443510405e+00 -1.2514177529466524e+01 -4.9376312371870874e+00 3 -1 1
2460 820 2 4.0999999999999998e-01 -1.4541620386035540e+01 -9.1937383420929262e+00 4.6231678368955240e+00 -1 1 2
1871 624 2 4.0999999999999998e-01 -1.3913861702334604e+01 -1.6703051041535133e-01 4.8045163593989511e+00 4 -2 -2
336 112 2 4.0999999999999998e-01 -1.3248868079801415e+01 -3.2916521475022193e+00 -4.7167083221101329e+00 0 -2 1
1929 643 2 4.0999999999999998e-01 -1.1527794467461613e+01 -2.1635050615161333e-01 -2.0115587954611645e+00 -4 3 0
1870 624 1 -8.1999999999999995e-01 -1.3425209818746550e+01 -1.0192992310534326e+00 4.9911897469770121e+00 4 -2 -2
278 93 2 4.0999999999999998e-01 -8.1670102837179819e+00 -6.3797750505205215e+00 3.2029825526381099e+00 -5 1 6
2361 787 2 4.0999999999999998e-01 -1.3593607944941713e+01 -7.0816363340599011e+00 -2.9962076541467795e+00 -3 3 0
2359 787 1 -8.1999999999999995e-01 -1.4421472290757766e+01 -6.6365129659729742e+00 -2.6548934234293089e+00 -3 3 0
2360 787 2 4.0999999999999998e-01 -1.4408131443992371e+01 -6.6295929404095428e+00 -1.6550115600480613e+00 -3 3 0
1730 577 2 4.0999999999999998e-01 -1.3921316702415806e+01 -5.0471545009703238e+00 -3.5625022529021404e+00 7 2 -2
2269 757 1 -8.1999999999999995e-01 -1.5008019988327879e+01 -6.8997468060654210e+00 -1.2728959987254740e-01 3 2 0
2423 808 2 4.0999999999999998e-01 -1.0082051947190918e+01 -2.4638161454692717e+00 4.6491764700513247e+00 1 4 -2
756 252 2 4.0999999999999998e-01 -8.0599072045860201e+00 -6.8259448312656339e+00 1.1747867754188679e+00 -2 3 1
288 96 2 4.0999999999999998e-01 -7.6152864071531710e+00 -5.1821423194322946e-01 -4.5389243630036749e+00 1 2 1
2521 841 1 -8.1999999999999995e-01 -1.0867868816680858e+01 -4.2397746087779709e-01 6.8649692506409288e-01 3 5 5
2202 734 2 4.0999999999999998e-01 -1.4624434438106077e+01 -5.8197415815674773e+00 3.4378496168791290e+00 3 1 2
500 167 2 4.0999999999999998e-01 -1.4632126941975439e+01 -3.6825147120099277e+00 -2.0501417259776193e+00 0 5 5
838 280 1 -8.1999999999999995e-01 -9.0088758556289008e+00 -1.5164969014289653e+00 -4.6483108575768455e+00 -7 5 3
162 54 2 4.0999999999999998e-01 -1.3968965696358486e+01 -3.1150036235829504e+00 2.6882647893346157e+00 7 -2 3
1027 343 1 -8.1999999999999995e-01 -8.5039561435423678e+00 -1.4844976918901729e+00 -3.6464067445447590e-01 1 2 0
2522 841 2 4.0999999999999998e-01 -1.1247816996927854e+01 -1.7255018195457517e-01 -2.0367907605598567e-01 3 5 5
840 280 2 4.0999999999999998e-01 -9.6786771298574088e+00 -1.3616861031262619e+00 -3.9220950024975210e+00 -7 5 3
161 54 2 4.0999999999999998e-01 -1.3870963336939049e+01 -2.4859436951155978e+00 4.1920193810326207e+00 7 -2 3
2200 734 1 -8.1999999999999995e-01 -1.4421092919451493e+01 -6.6794116150810954e+00 2.9692247796837190e+00 3 1 2
1029 343 2 4.0999999999999998e-01 -9.3106015708545851e+00 -1.0881827907122883e+00 7.3819415674620359e-02 1 2 0
236 79 2 4.0999999999999998e-01 -9.4596965772288701e+00 -5.9087642368202964e+00 -4.7547435896836259e+00 1 2 -1
1731 577 2 4.0999999999999998e-01 -1.2368207607390886e+01 -4.7991689219296205e+00 -3.1232369566586762e+00 7 2 -2
2504 835 2 4.0999999999999998e-01 -1.2219513197468940e+01 -5.5054110814314594e+00 2.8802216589069118e-02 -1 5 6
1729 577 1 -8.1999999999999995e-01 -1.3234544899891086e+01 -4.3528473195950124e+00 -3.3473938424806118e+00 7 2 -2
160 54 1 -8.1999999999999995e-01 -1.4146829404784727e+01 -3.2848357629840503e+00 3.6575486327523752e+00 7 -2 3
1274 425 2 4.0999999999999998e-01 -1.4031137416329122e+01 -4.7175882518969132e+00 4.9001528183682925e+00 6 3 5
1028 343 2 4.0999999999999998e-01 -8.7917677250912423e+00 -2.1571955783973547e+00 -1.0462796057903567e+00 1 2 0
1622 541 2 4.0999999999999998e-01 -1.1892413661943928e+01 -2.7005534105763900e+00 2.7994052316850055e+00 6 3 0
2505 835 2 4.0999999999999998e-01 -1.3425556745286098e+01 -5.6759215523792097e+00 1.1164528236076752e+00 -1 5 6
2503 835 1 -8.1999999999999995e-01 -1.2793343102398218e+01 -5.0268360637912757e+00 6.9338838099808342e-01 -1 5 6
1621 541 1 -8.1999999999999995e-01 -1.0947043328421479e+01 -2.4673121966772680e+00 3.0271398294389424e+00 6 3 0
680 227 2 4.0999999999999998e-01 -1.0502055406299800e+01 -6.8771426206186987e+00 3.7270070079619959e+00 -3 2 5
1623 541 2 4.0999999999999998e-01 -1.0580836879604222e+01 -1.8461176453823249e+00 2.3343196925975231e+00 6 3 0
26 9 2 4.0999999999999998e-01 -1.1291903032376549e+01 -7.4218617281117778e+00 -3.6611543890748344e+00 2 2 0
235 79 1 -8.1999999999999995e-01 -9.7727798190925910e+00 -6.5351336391315815e+00 -4.0408599627914477e+00 1 2 -1
237 79 2 4.0999999999999998e-01 -8.9918372364625476e+00 -7.0426093202959841e+00 -3.6767353932637832e+00 1 2 -1
453 151 2 4.0999999999999998e-01 -1.1870919366716830e+01 -2.0209998239561333e+00 -3.3605934717346937e+00 -1 4 1
452 151 2 4.0999999999999998e-01 -1.0592085061112428e+01 -2.6827462670313089e+00 -2.5903511889470252e+00 -1 4 1
296 99 2 4.0999999999999998e-01 -1.4249448043701001e+01 -1.8474784423098107e+00 5.3453182188352955e-01 6 2 3
295 99 1 -8.1999999999999995e-01 -1.4020514418485991e+01 -2.5588046900263652e+00 1.1990571727504946e+00 6 2 3
1287 429 2 4.0999999999999998e-01 -8.6739136113058528e+00 -3.2887535928779386e+00 -3.5443169578104516e+00 1 4 1
451 151 1 -8.1999999999999995e-01 -1.1049181986000345e+01 -1.8249858347357595e+00 -2.8255086432775354e+00 -1 4 1
297 99 2 4.0999999999999998e-01 -1.3561130208850457e+01 -3.3149362882420359e+00 7.3298770510137778e-01 6 2 3
679 227 1 -8.1999999999999995e-01 -9.5540303805146802e+00 -6.7817914989214092e+00 4.0305630946770155e+00 -3 2 5
1285 429 1 -8.1999999999999995e-01 -8.8322431455084818e+00 -3.4732708178296434e+00 -2.5743299829813573e+00 1 4 1
1286 429 2 4.0999999999999998e-01 -8.3585189050202082e+00 -4.3143907004812974e+00 -2.3133850336334714e+00 1 4 1
681 227 2 4.0999999999999998e-01 -9.5233084047916172e+00 -6.2170171645277890e+00 4.8552301308034576e+00 -3 2 5
754 252 1 -8.1999999999999995e-01 -8.3083800452447711e+00 -7.0277467769727284e+00 2.2740785714476708e-01 -2 3 1
1485 495 2 4.0999999999999998e-01 -1.2388441889443968e+01 -1.1522225136837513e+01 5.6884227265685769e+00 -1 -2 2
1940 647 2 4.0999999999999998e-01 -1.0279127166781748e+01 -1.0526021468128835e+01 7.9610833927185869e+00 4 4 2
1939 647 1 -8.1999999999999995e-01 -1.1157530200519245e+01 -1.0857835662200245e+01 7.6171400458435006e+00 4 4 2
2167 723 1 -8.1999999999999995e-01 -8.5537170742066468e+00 -9.4958618705174249e+00 8.5871409852495244e+00 0 2 2
2052 684 2 4.0999999999999998e-01 -9.3310514266011246e+00 -1.2497173549594294e+01 1.3331050590886148e+01 1 5 -3
851 284 2 4.0999999999999998e-01 -1.2188430223454876e+01 -9.1563544969955473e+00 6.4688160772474586e+00 3 2 0
328 110 1 -8.1999999999999995e-01 -1.0985817964991641e+01 -1.0157228618995902e+01 1.0599170490146092e+01 4 8 0
330 110 2 4.0999999999999998e-01 -1.1203155125155394e+01 -9.7855877400721774e+00 9.6965979462790539e+00 4 8 0
329 110 2 4.0999999999999998e-01 -1.0015640410630457e+01 -1.0013233987545025e+01 1.0794133683795375e+01 4 8 0
1147 383 1 -8.1999999999999995e-01 -9.2589844688541412e+00 -1.0208060451231949e+01 1.3933871443012096e+01 0 1 1
2569 857 1 -8.1999999999999995e-01 -1.2283263956773384e+01 -1.2316712668137736e+01 1.1083535804123782e+01 2 2 4
1148 383 2 4.0999999999999998e-01 -1.0233969795464933e+01 -1.0009699243042252e+01 1.3833641549814713e+01 0 1 1
2570 857 2 4.0999999999999998e-01 -1.1812889534425846e+01 -1.1434627876600040e+01 1.1057768842522313e+01 2 2 4
1352 451 2 4.0999999999999998e-01 -1.4600574112336659e+01 -1.4971125080804129e+01 1.3571814327717336e+01 1 8 4
128 43 2 4.0999999999999998e-01 -1.2265413453641427e+01 -8.5900799757227233e+00 1.1324792171456489e+01 3 1 3
129 43 2 4.0999999999999998e-01 -1.3691743040049278e+01 -8.0416382958532182e+00 1.1900460764891088e+01 3 1 3
2168 723 2 4.0999999999999998e-01 -8.4236915239925203e+00 -9.4389345530679805e+00 9.5770107976332444e+00 0 2 2
696 232 2 4.0999999999999998e-01 -1.3531165445176050e+01 -1.3906939523152342e+01 6.3343440338123163e+00 3 2 2
2571 857 2 4.0999999999999998e-01 -1.2997727619904438e+01 -1.2334020589818801e+01 1.0384084809735780e+01 2 2 4
1706 569 2 4.0999999999999998e-01 -1.3727361833713502e+01 -7.9708001083071425e+00 9.5188076818202685e+00 0 5 -2
1149 383 2 4.0999999999999998e-01 -9.0439135001120619e+00 -1.0342495874327252e+01 1.4901167250201174e+01 0 1 1
2530 844 1 -8.1999999999999995e-01 -1.2154383214795978e+01 -9.7298029586302910e+00 1.4561587405972835e+01 3 4 1
629 210 2 4.0999999999999998e-01 -9.1277867414971290e+00 -1.4030410975729222e+01 1.1479032992168522e+01 2 6 -2
628 210 1 -8.1999999999999995e-01 -8.8509243835400699e+00 -1.4340290626959678e+01 1.0569466374880394e+01 2 6 -2
2531 844 2 4.0999999999999998e-01 -1.2842257838853829e+01 -1.0142988857063031e+01 1.3964850026469273e+01 3 4 1
630 210 2 4.0999999999999998e-01 -8.6860932457533089e+00 -1.3547262357452174e+01 9.9830139460548555e+00 2 6 -2
1941 647 2 4.0999999999999998e-01 -1.1170848664941769e+01 -1.1857316323233757e+01 7.6463049583640643e+00 4 4 2
2251 751 1 -8.1999999999999995e-01 -1.3284670107864287e+01 -1.4691770347354099e+01 1.2406861921168828e+01 7 8 2
742 248 1 -8.1999999999999995e-01 -1.3728740565225799e+01 -1.4290147337289412e+01 9.2919897134134875e+00 2 3 5
394 132 1 -8.1999999999999995e-01 -8.3591581564117270e+00 -9.4562725586259599e+00 1.1223773945791207e+01 5 4 3
1707 569 2 4.0999999999999998e-01 -1.4498964864504057e+01 -9.1382908978295294e+00 8.6772658105577616e+00 0 5 -2
671 224 2 4.0999999999999998e-01 -8.4156651268377374e+00 -1.1301602659062052e+01 8.8078107505033199e+00 5 11 4
1334 445 2 4.0999999999999998e-01 -8.4879291673004467e+00 -1.2750109599784373e+01 6.9450708764954694e+00 -3 6 0
127 43 1 -8.1999999999999995e-01 -1.2798766422571671e+01 -7.7720396126753846e+00 1.1540045886232631e+01 3 1 3
1705 569 1 -8.1999999999999995e-01 -1.3643259243522923e+01 -8.6294062386412875e+00 8.7710414774459817e+00 0 5 -2
694 232 1 -8.1999999999999995e-01 -1.3915787303422807e+01 -1.4773565827330946e+01 6.6521717530484263e+00 3 2 2
1483 495 1 -8.1999999999999995e-01 -1.2999651253692750e+01 -1.2250070813350499e+01 5.3775314772641760e+00 -1 -2 2
28 10 1 -8.1999999999999995e-01 -1.4858698230643338e+01 -7.6060346032125521e+00 6.1488222569603561e+00 4 4 3
1333 445 1 -8.1999999999999995e-01 -8.7048352963638429e+00 -1.3264885215235159e+01 6.1156449396788926e+00 -3 6 0
2037 679 2 4.0999999999999998e-01 -1.4717719573956442e+01 -9.1880398250575492e+00 1.2902635878743011e+01 4 2 5
852 284 2 4.0999999999999998e-01 -1.1746005232876763e+01 -7.5866412553283773e+00 6.5516361811597665e+00 3 2 0
850 284 1 -8.1999999999999995e-01 -1.1873400388431103e+01 -8.3678837889886388e+00 5.9405550387155426e+00 3 2 0
396 132 2 4.0999999999999998e-01 -8.7065968631296311e+00 -9.6491101932208547e+00 1.2141428342526067e+01 5 4 3
2169 723 2 4.0999999999999998e-01 -7.7569183384126683e+00 -9.1084163157958979e+00 8.1234737544596971e+00 0 2 2
1335 445 2 4.0999999999999998e-01 -8.5278526923218401e+00 -1.4236800692734544e+01 6.2707160631829826e+00 -3 6 0