2593
Atoms. Timestep: 1000000
O -1.47734 7.50769 -15.0819
H -1.48129 7.71376 -14.1033
H -2.41774 7.48259 14.7905
O 12.4991 -13.2649 -14.4734
H 12.8647 -13.114 -13.555
H 13.126 -13.848 -14.9901
O -13.9331 -3.22714 11.6211
H -14.5818 -3.13732 12.3769
H -13.0367 -3.48663 11.9803
O 10.9621 -10.8991 12.423
H 10.8881 -10.4448 11.5352
H 10.9471 -11.8904 12.2924
O 10.7812 12.8408 0.508134
H 10.1131 12.7869 1.25028
H 10.5803 12.1367 -0.172941
O 8.40578 -13.9587 4.97825
H 7.41761 -14.0381 4.84711
H 8.8275 -13.6202 4.13707
O -13.7671 10.0238 -1.50085
H -13.9868 10.2667 -0.555984
H -13.6675 9.03162 -1.57544
O 10.0426 -6.56373 1.22246
H 9.93075 -5.62055 0.909583
H 9.92307 -6.60219 2.21454
O -0.650774 0.136709 -8.56831
H 0.0723558 0.0391516 -7.88453
H -1.54272 0.0448215 -8.12561
O 10.059 0.586844 -0.439654
H 10.3789 -0.32696 -0.689953
H 9.99372 0.656076 0.555803
O -14.077 2.90835 -2.65944
H -13.9428 2.55353 -3.5847
H -14.9341 2.55259 -2.28704
O 2.04444 12.9482 8.90749
H 2.09642 12.7005 9.87492
H 2.86826 13.452 8.64771
O 0.0634109 -0.909302 -11.0568
H -0.818338 -1.12854 -11.4744
H -0.0874015 -0.440736 -10.1863
O -11.0232 4.53856 11.9779
H -11.3466 3.59256 11.9568
H -11.51 5.04142 12.6921
O 9.44942 1.47793 -8.29207
H 9.95872 1.54114 -7.43381
H 8.64131 2.065 -8.24412
O -1.84928 -12.5615 8.12924
H -2.64259 -12.0199 7.8512
H -1.02808 -11.9919 8.09447
O 14.3377 -1.08484 -1.99115
H 13.6523 -1.25861 -2.69829
H 14.1511 -1.66299 -1.19685
O 13.9522 -9.75593 -5.69419
H 13.5847 -9.97588 -4.79057
H 14.511 -8.92877 -5.63443
O -8.7413 -11.9894 13.5425
H -9.69907 -11.7147 13.6272
H -8.57545 -12.7983 14.1066
O -7.31805 2.73961 0.714454
H -7.51103 3.71784 0.638181
H -6.89642 2.41602 -0.132602
O -11.9287 -14.714 7.90603
H -12.6542 -14.9633 8.5475
H -11.5061 14.6675 7.54189
O 14.7645 -6.72239 -3.27264
H 14.1051 -7.41422 -2.97841
H 14.3045 -5.83861 -3.3583
O -0.127661 7.13874 8.91201
H 0.171846 6.39087 8.31957
H -1.12698 7.16075 8.94163
O -11.4793 -11.2357 13.7183
H -11.9298 -10.5001 13.2123
H -11.5384 -11.0504 14.6992
O -9.00075 -0.663983 0.640305
H -9.63952 0.0105137 0.270137
H -8.44046 -1.03418 -0.100655
O 12.6645 6.55285 0.942964
H 11.8884 6.67058 1.56241
H 13.5154 6.56792 1.46814
O 7.83741 2.15581 -0.8956
H 8.69205 1.67153 -0.708362
H 7.82892 2.46091 -1.84788
O 2.2059 13.7322 -13.7016
H 1.46849 13.3176 -14.2348
H 2.95259 13.9943 -14.313
O 6.69936 -11.7681 3.361
H 6.41557 -12.6182 3.80456
H 7.6146 -11.883 2.97485
O 10.4172 10.6256 -1.28825
H 11.3893 10.8338 -1.1805
H 10.2919 9.63467 -1.33732
O -5.05954 -7.64401 -0.752969
H -5.74102 -8.34508 -0.543021
H -4.83701 -7.67669 -1.72734
O -8.74173 -11.5779 10.8877
H -8.45911 -11.8496 11.8077
H -9.27382 -12.315 10.4712
O 6.24787 -13.0246 -8.96698
H 5.65846 -12.5015 -8.35136
H 7.08474 -13.2852 -8.48565
O -1.67553 12.1445 4.72042
H -1.24387 12.3758 5.59228
H -2.39686 12.8073 4.51941
O -12.1888 4.85305 -2.16483
H -12.891 4.2441 -2.53389
H -11.9435 4.55786 -1.24144
O -11.1242 1.75203 -11.2147
H -10.4103 2.45055 -11.2643
H -10.7083 0.863661 -11.0202
O -9.18079 -1.29194 12.2969
H -9.62277 -1.73107 11.5147
H -9.44112 -0.32694 12.3284
O 10.657 5.14015 -4.77645
H 10.3621 5.28636 -5.72072
H 10.1149 5.71647 -4.16491
O 2.89621 12.5151 -2.81255
H 3.43951 11.6848 -2.93661
H 1.98916 12.2717 -2.46903
O 5.85624 3.9434 0.153003
H 6.52291 3.31867 -0.25353
H 5.07804 4.0493 -0.466007
O -12.277 13.8784 -9.69326
H -12.921 14.6408 -9.63061
H -11.5803 14.0862 -10.3798
O 12.6586 3.32235 8.63185
H 12.3602 2.85797 9.4657
H 13.3423 2.76179 8.16464
O 3.11238 -11.4974 8.2546
H 3.59782 -10.8886 8.88206
H 3.53457 -11.4486 7.34941
O -2.60717 10.6187 -1.51969
H -2.89945 11.5736 -1.46809
H -2.55903 10.3362 -2.47773
O -3.7269 2.48977 -10.2577
H -3.67341 2.76045 -11.2189
H -4.47256 2.98576 -9.81275
O -14.3016 -13.6359 12.8465
H -15.0884 -13.2053 12.4044
H -13.5592 -13.7338 12.1838
O 12.5765 1.59719 -12.608
H 12.7317 2.56317 -12.8149
H 12.2151 1.50898 -11.6798
O 12.071 -10.4832 4.44907
H 11.1116 -10.4592 4.72989
H 12.5674 -9.73798 4.8944
O 5.41065 0.57845 -12.3946
H 5.80376 -0.339547 -12.3423
H 4.435 0.535997 -12.1794
O 15.064 7.28844 2.72134
H -14.4763 7.54598 3.41649
H 14.7719 8.10395 2.22173
O 2.33889 12.7778 -11.2032
H 2.25128 13.251 -12.0798
H 2.14367 13.4163 -10.4588
O -4.96945 11.1786 9.14448
H -5.31802 11.6962 9.92588
H -4.8206 11.7982 8.37387
O 1.42385 -0.586041 -13.6062
H 1.8124 0.32533 -13.7419
H 1.20133 -0.712936 -12.6396
O -6.84332 -12.5056 8.1225
H -7.66898 -12.9233 8.50165
H -6.77739 -11.557 8.43212
O 1.58329 12.9489 -6.39125
H 1.94135 12.0579 -6.11225
H 1.67751 13.0508 -7.38157
O 9.1746 8.89679 1.15407
H 9.53874 9.78282 1.44104
H 8.20147 8.84769 1.37899
O 13.1387 -7.99197 13.7454
H 12.608 -7.23721 13.3598
H 13.6534 -8.44387 13.0169
O 13.0128 11.482 -0.649682
H 12.6301 12.2281 -0.104886
H 13.7381 11.8377 -1.23916
O 4.47124 -11.5281 12.5523
H 3.93552 -11.8728 11.7814
H 3.95965 -11.6635 13.4008
O 12.0754 -12.4391 -8.1975
H 11.3162 -12.9455 -8.6064
H 12.9135 -12.6225 -8.7113
O 8.62561 -3.91348 9.68014
H 7.83158 -3.31191 9.76745
H 8.86549 -4.01074 8.71423
O 8.69018 11.4806 1.9697
H 8.32762 11.6777 1.05882
H 8.21018 12.0379 2.64725
O 2.20971 -4.60899 12.3211
H 1.42557 -4.00478 12.4626
H 2.81056 -4.21755 11.6241
O 14.329 -14.2446 9.81001
H 13.8163 -14.8304 10.4377
H 13.9602 -13.3157 9.84471
O -9.03577 3.92457 -11.6022
H -8.27919 3.35957 -11.9313
H -8.67653 4.78498 -11.2407
O -4.0978 -11.0337 -7.59969
H -4.78996 -10.6154 -7.01149
H -3.24936 -10.5075 -7.54208
O -2.9432 -15.0171 9.01426
H -2.0893 14.6881 9.13499
H -2.73772 -14.0766 8.74393
O 3.02664 -11.4479 14.7697
H 3.28233 -12.0099 -14.6552
H 2.06364 -11.6022 14.5487
O -0.46121 -12.2252 -10.3631
H 0.376394 -12.5484 -9.92277
H -0.535639 -12.629 -11.2749
O 12.0544 -9.71511 1.48183
H 11.6277 -10.116 2.29254
H 12.4772 -8.84213 1.7249
O -0.347563 12.0643 2.01474
H -0.58522 12.3325 2.94834
H -0.87943 11.2587 1.75373
O 13.4652 10.194 -3.80019
H 12.9767 10.8228 -4.40508
H 14.221 10.6767 -3.3577
O -13.2947 4.49029 -6.02077
H -13.3991 5.05364 -5.20119
H -12.9803 5.06076 -6.77952
O -13.8184 14.2598 10.1159
H -13.525 13.8711 10.9893
H -14.2786 -15.0787 10.2775
O -11.8666 6.06878 -7.82765
H -12.3353 6.80595 -7.34086
H -10.9423 6.36392 -8.06947
O -13.7147 -6.7836 11.8443
H -13.9589 -6.29114 11.009
H -13.2634 -6.15768 12.4804
O 13.2678 -11.6626 -0.138643
H 13.7075 -11.0151 -0.761024
H 12.8564 -11.1644 0.624598
O -8.11877 5.79938 13.7716
H -8.66412 5.42943 14.5237
H -8.15949 5.17478 12.9917
O 5.47989 -14.0165 -14.033
H 6.07645 -14.2849 -13.2767
H 4.67316 -13.5491 -13.6715
O 3.93308 -7.9072 -12.7028
H 4.42548 -7.03861 -12.6472
H 3.72978 -8.1144 -13.6597
O -12.8563 -14.4674 -14.7063
H -13.285 -13.9706 14.7506
H -13.1596 14.7913 -14.7195
O 1.92318 9.3902 -0.760313
H 1.31261 10.1808 -0.714749
H 1.87913 8.88495 0.101529
O 9.67393 -13.7521 -10.0037
H 9.45394 -12.7785 -10.0637
H 10.1624 -14.035 -10.8292
O -14.9904 -9.96714 7.06249
H -14.2087 -9.57219 7.54501
H -14.9499 -10.9645 7.12238
O -6.74395 -13.17 -9.55181
H -6.14517 -12.5108 -10.0066
H -7.51273 -12.6877 -9.13191
O -0.163388 -3.77821 -9.55184
H -0.632503 -3.44357 -8.73457
H -0.305241 -3.13516 -10.3044
O 6.38827 9.61757 -7.06729
H 6.66394 10.5352 -7.35367
H 6.20696 9.61572 -6.08387
O 14.5615 -0.0135316 9.07505
H 13.78 -0.174186 8.47215
H -15.0579 -0.819405 9.07519
O 1.52573 -9.64083 -6.41991
H 0.723706 -9.52895 -5.8332
H 2.21394 -10.1875 -5.94299
O 4.94111 13.6515 -8.06284
H 4.46049 14.4865 -7.79493
H 5.57337 13.3831 -7.33608
O 3.98999 -5.60699 5.50222
H 4.84061 -5.08179 5.52669
H 3.61861 -5.59687 4.5738
O 3.12927 -14.8511 5.91929
H 2.54617 14.738 5.39708
H 3.22048 15.024 6.85659
O -12.485 13.0215 -3.99664
H -11.7025 12.444 -3.76395
H -12.5013 13.1787 -4.98408
O 0.517398 -6.64981 10.9871
H 1.20825 -6.02135 11.3446
H -0.353524 -6.16795 10.8907
O -9.36658 -4.62557 0.195598
H -10.2463 -4.92429 -0.174289
H -9.01964 -5.31665 0.829663
O -5.40809 9.70114 13.1037
H -6.33901 9.80568 12.7538
H -5.1493 10.5219 13.613
O -14.7142 2.85461 11.2936
H -14.3805 3.48349 10.5914
H 14.6222 2.46631 11.0047
O 4.39942 0.925934 -5.58615
H 3.78347 1.68556 -5.37738
H 3.89414 0.0643054 -5.53835
O 6.38357 -1.63124 -6.94917
H 6.87544 -2.45792 -6.67593
H 5.51025 -1.88509 -7.36493
O 13.6062 15.0496 13.398
H 13.7257 14.3795 14.1305
H 14.4625 -14.6644 13.2583
O -12.3809 12.6346 14.9093
H -13.1602 12.0473 -15.0837
H -11.8379 12.7888 -14.4768
O -13.5103 -13.7201 -10.0576
H -13.4309 -13.2464 -10.9347
H -13.0264 -13.2006 -9.35334
O -13.416 -12.7456 -12.4834
H -13.1321 -11.8697 -12.8735
H -13.1244 -13.4888 -13.0855
O 6.05007 9.6169 -10.0101
H 5.58072 10.4701 -10.2377
H 5.98239 9.45146 -9.02619
O 5.26005 8.84076 -14.0454
H 4.89667 9.61907 -14.5574
H 4.73426 8.02003 -14.2688
O -5.32137 -4.70474 3.31044
H -4.79357 -4.09354 2.72065
H -4.7249 -5.42664 3.66125
O -12.7766 8.14999 -6.20611
H -13.4439 8.56452 -6.8249
H -12.1001 8.83572 -5.93764
O -5.85672 -14.4674 -1.56865
H -5.62013 -14.2087 -0.632097
H -5.27328 14.9871 -1.8629
O 10.1392 -14.616 0.387373
H 10.3488 14.64 0.594829
H 9.40073 -14.5752 -0.285628
O -4.00638 -7.60108 -3.29713
H -4.02962 -8.46579 -3.79886
H -3.07083 -7.4149 -2.99701
O -14.3859 5.39385 14.4241
H -14.8308 4.51631 14.2454
H -13.8209 5.31987 -14.9655
O 8.3604 -7.16058 -12.9518
H 8.71554 -7.32509 -13.872
H 9.12313 -7.06838 -12.3117
O 8.21278 0.82752 14.2416
H 7.22264 0.834355 14.3814
H 8.52168 -0.111608 14.0912
O -3.98746 -4.87917 7.25039
H -3.24344 -4.45477 7.76644
H -4.82746 -4.35302 7.38287
O 13.557 -6.17387 -0.229314
H 13.0223 -5.50115 -0.740658
H 13.6049 -7.02664 -0.749407
O 2.2656 -6.73095 -7.28082
H 1.41572 -7.20794 -7.05679
H 2.94796 -6.91579 -6.57357
O 5.47341 -12.6871 -3.94691
H 5.33173 -13.5072 -3.39259
H 6.39577 -12.7009 -4.33297
O -12.8451 -2.07515 -8.08981
H -12.0598 -1.50057 -7.85931
H -13.2662 -2.41675 -7.24959
O 0.902901 -2.1135 9.22031
H 0.699872 -1.67559 10.0961
H 1.77999 -1.77888 8.87574
O -11.4085 2.87917 -14.6731
H -10.8759 2.03284 -14.6697
H -11.9464 2.9311 14.697
O -0.0280846 -9.03261 1.04259
H 0.234076 -8.08911 1.24526
H -0.973991 -9.05351 0.718833
O 12.4011 5.47397 -11.9587
H 11.7338 4.91412 -11.4676
H 12.023 5.74289 -12.8446
O -2.2839 4.94309 -6.50794
H -1.53295 4.47301 -6.04416
H -2.00624 5.17623 -7.4399
O 13.4762 -8.12869 5.86217
H 13.9011 -8.91214 6.31566
H 14.0214 -7.30818 6.03382
O 14.2619 -13.8211 -9.04426
H 14.1848 -14.5673 -8.38304
H -15.0596 -13.8685 -9.49797
O -3.96953 13.6375 -2.3083
H -3.63573 14.4556 -2.77644
H -4.24528 12.9552 -2.98538
O 8.09954 -2.67717 -3.42302
H 8.58172 -1.81225 -3.28371
H 8.31023 -3.30119 -2.67055
O 13.9533 7.5577 -11.1733
H 13.4174 6.71402 -11.2044
H 13.8966 7.95505 -10.2574
O -10.7494 9.53284 -10.0063
H -10.4194 8.91941 -9.28876
H -11.4794 10.1106 -9.64113
O 14.6567 -0.506636 -6.95831
H -14.8429 -0.587897 -7.65588
H 13.9668 0.150781 -7.26119
O -9.09451 -13.6757 9.1434
H -10.0944 -13.689 9.13471
H -8.7468 -14.5686 8.85746
O -12.8406 -0.0697853 14.2735
H -11.8893 -0.262688 14.5141
H -13.4479 -0.607797 14.8581
O 3.65936 -8.70902 10.4781
H 3.78275 -7.775 10.8133
H 2.70339 -8.84655 10.2188
O 2.33304 10.9923 2.84416
H 2.94842 11.7805 2.84866
H 1.42728 11.2783 2.5315
O 11.291 -1.39106 10.8007
H 12.0429 -1.37892 11.4599
H 10.627 -0.682491 11.0394
O 14.6534 14.8785 7.15092
H -15.0854 13.998 7.18614
H 14.3422 -15.0848 8.06829
O -4.66619 3.82849 10.3623
H -4.95145 4.7337 10.0473
H -5.36331 3.15503 10.1164
O -5.25225 13.5744 10.419
H -5.92808 13.9208 9.76838
H -4.39499 14.0773 10.3085
O 11.5161 -6.80063 -4.68742
H 11.6689 -6.91507 -3.7058
H 11.0326 -7.59964 -5.04487
O 10.6492 -8.08487 -14.7236
H 9.81747 -8.16733 14.9388
H 11.4432 -8.02439 14.883
O 12.4792 3.83132 14.5038
H 11.7156 3.19393 14.4003
H 13.3364 3.36165 14.2927
O 7.25737 -12.5173 11.6452
H 6.37471 -12.0617 11.7608
H 7.61096 -12.7908 12.5397
O -13.2664 -1.46793 -10.8755
H -13.3609 -0.472498 -10.8617
H -12.8814 -1.77826 -10.0063
O 3.17631 -5.91825 2.89082
H 3.58927 -6.67294 2.38102
H 2.83747 -5.22924 2.25017
O 12.5089 3.20197 -3.42027
H 13.0829 3.07493 -4.22925
H 11.8099 3.89073 -3.61237
O -5.48224 -5.10989 -0.00139257
H -5.29722 -6.04997 -0.287775
H -5.68566 -5.09359 0.977561
O -7.52771 11.0822 -1.94861
H -6.85694 10.3491 -2.06134
H -8.35352 10.7153 -1.52028
O 12.0619 -10.57 -10.7799
H 12.1426 -9.66426 -11.1961
H 11.1568 -10.9474 -10.9757
O -7.02864 7.17811 -6.30671
H -6.05182 7.39198 -6.29803
H -7.15981 6.21005 -6.09307
O -6.73808 -9.85302 8.74206
H -6.32865 -9.05295 8.3036
H -7.6798 -9.64347 9.00524
O -9.04647 -10.7571 6.8713
H -8.73393 -9.834 7.09515
H -8.36641 -11.2083 6.29341
O 2.51607 -14.018 -2.15654
H 2.76487 -14.5592 -2.95981
H 1.54545 -13.7817 -2.20146
O -2.00812 -5.67812 10.7757
H -2.00164 -6.07588 9.85826
H -2.93597 -5.71195 11.1471
O -2.13116 -9.15265 4.20755
H -1.56322 -8.44418 3.78864
H -2.52852 -9.72751 3.49226
O -12.6893 -9.51753 10.6753
H -13.0279 -9.21955 11.5678
H -13.0472 -10.4285 10.4702
O -12.2864 11.755 6.06765
H -12.3946 11.7263 5.07393
H -13.1802 11.8863 6.49655
O -9.50215 -6.27185 -2.58306
H -10.2851 -5.8487 -2.12701
H -8.98433 -6.81435 -1.92159
O -6.44761 2.35098 -1.93188
H -5.81998 3.113 -2.0912
H -7.32181 2.5401 -2.37909
O 3.76017 15.0626 11.4915
H 3.38532 -14.2328 11.3486
H 4.51532 14.9084 10.8544
O 14.8732 11.5373 9.90234
H 15.0629 10.8278 10.581
H -14.5762 12.1843 9.87462
O 6.78295 -14.284 -11.6231
H 6.44811 -13.791 -10.8201
H 6.97101 14.9769 -11.3762
O -11.4718 -1.70692 -2.89309
H -10.7188 -1.81729 -2.24432
H -12.284 -2.17384 -2.54357
O -0.198388 -8.61996 -4.56787
H -0.783864 -8.74752 -3.76728
H 0.061841 -7.65715 -4.64048
O -2.67038 12.8822 13.1227
H -2.88056 13.8125 12.8221
H -1.78347 12.8735 13.5846
O -6.85651 9.81173 -13.2669
H -6.31701 9.3111 -13.9439
H -7.70995 10.123 -13.6849
O 10.7588 7.83915 -0.678165
H 11.5262 7.26837 -0.385974
H 10.2104 8.09361 0.118391
O 4.53802 -1.24837 8.73312
H 4.5323 -0.316589 9.09609
H 4.24013 -1.23609 7.7786
O 14.3337 10.3695 5.6749
H 13.5217 10.2531 5.10289
H 14.4614 9.55577 6.24193
O 6.52739 -0.593845 -0.769726
H 7.01247 -1.46755 -0.806205
H 6.86587 0.00584195 -1.49485
O -12.826 10.9162 -8.48737
H -12.9575 11.8488 -8.15148
H -13.5955 10.3464 -8.19882
O -13.9658 -5.12428 3.34161
H -14.4786 -4.28321 3.51372
H -14.3087 -5.55929 2.50905
O -0.498155 13.6196 10.0434
H -1.11193 12.8558 10.2431
H 0.214532 13.3177 9.41016
O 3.70246 -14.3979 -6.82718
H 4.02419 -13.5156 -7.1709
H 3.96019 -14.4951 -5.86587
O -13.7662 -9.65698 -8.8049
H -13.797 -8.6707 -8.64269
H -14.451 -9.90352 -9.49066
O 11.215 8.36683 6.3833
H 11.0272 7.91317 7.25447
H 12.1972 8.33828 6.19752
O 6.52938 7.60366 -3.1826
H 7.48792 7.58119 -3.46665
H 6.47585 7.54941 -2.18551
O -1.78771 -12.9039 11.0629
H -1.69288 -12.7566 10.0784
H -0.933785 -13.2744 11.4283
O -13.4356 1.52327 7.89992
H -14.3331 1.69449 7.49342
H -13.537 0.916147 8.68803
O 9.30105 13.499 -9.02752
H 9.79861 13.6013 -8.16614
H 9.29871 14.3712 -9.51665
O -9.91953 -0.729815 -10.8406
H -9.1358 -1.34923 -10.8863
H -10.049 -0.425141 -9.89698
O -6.99707 -1.30639 -11.5973
H -6.87699 -0.792207 -10.7481
H -6.31548 -1.00935 -12.266
O -8.93895 -6.32928 2.14387
H -8.6158 -7.27556 2.1324
H -9.79665 -6.27615 2.65526
O -11.5819 -0.704696 7.75937
H -10.636 -0.547679 7.47534
H -12.1735 -0.0131822 7.34491
O -5.34963 -0.284778 11.0374
H -4.99834 -1.09009 11.515
H -5.1278 -0.351028 10.0646
O 0.260873 14.2466 -0.0252097
H -0.10804 14.0598 -0.935712
H -0.163027 13.6308 0.638935
O -5.25481 -8.80475 -15.0037
H -6.04922 -8.52955 -14.4622
H -5.34659 -9.76544 14.9458
O 13.7488 1.65192 -1.68888
H 13.171 2.16065 -2.32714
H 13.8005 0.695388 -1.97586
O -14.2896 -5.68371 9.15684
H -13.3419 -5.36615 9.18983
H -14.7818 -5.18991 8.44
O -14.1231 -8.6518 2.0982
H -15.0098 -8.25714 2.33878
H -13.6474 -8.93518 2.93092
O 3.04078 -12.5395 1.05492
H 3.60788 -11.9854 1.66439
H 3.48142 -12.6074 0.159816
O -5.21873 -7.47519 7.86743
H -4.23073 -7.53025 8.01169
H -5.46347 -6.54693 7.58738
O 5.72124 -10.2495 9.05213
H 6.54393 -10.4639 9.57861
H 5.18847 -9.55431 9.53469
O 2.14323 -3.96424 -7.6534
H 1.34637 -3.99669 -8.25668
H 2.51925 -4.88484 -7.54805
O -11.2033 13.4192 -0.173023
H -10.3948 13.6768 0.35609
H -10.9423 12.766 -0.883749
O 6.66454 -4.48399 5.61997
H 6.90343 -4.74538 4.68477
H 7.50012 -4.31254 6.1419
O 4.28422 -8.60313 1.47692
H 4.16685 -9.23771 2.24081
H 3.73009 -8.90789 0.702282
O -14.5227 -9.35094 -12.4504
H -14.8944 -9.56135 -11.5462
H 15.0815 -8.70983 -12.9195
O -12.2353 -12.6381 -7.96265
H -11.7525 -13.0478 -7.18874
H -11.5809 -12.1599 -8.5484
O 0.747515 11.149 -9.67436
H -0.207421 11.4106 -9.81469
H 1.33441 11.6984 -10.2691
O -14.5134 -6.06731 5.7918
H -14.3168 -5.77178 4.85693
H -14.9392 -5.31613 6.29623
O -10.3399 -11.0519 -12.4054
H -10.5391 -10.8699 -11.4425
H -11.1657 -10.9053 -12.9501
O -2.8115 -7.7081 -13.1922
H -3.48018 -8.08126 -13.8353
H -2.011 -7.38235 -13.6952
O -8.06104 -10.9569 -14.2539
H -8.76552 -10.471 -13.7367
H -8.45437 -11.309 -15.1032
O 11.2582 -1.87836 -1.0626
H 12.0294 -1.8788 -0.425986
H 11.6014 -1.88615 -2.00185
O -3.72387 6.90811 -5.19732
H -3.23344 7.77955 -5.18962
H -3.21828 6.24598 -5.75046
O 0.396517 12.169 12.5135
H 0.340382 11.2706 12.078
H 1.21808 12.6426 12.1961
O -8.77106 -13.3862 -12.1044
H -7.87958 -13.0745 -11.7756
H -9.35614 -12.5948 -12.2819
O -15.001 12.3762 -2.29273
H -14.3564 13.0449 -1.92194
H -14.5076 11.5458 -2.55145
O -6.87857 -5.06138 -12.7724
H -6.3517 -4.24408 -13.0057
H -6.51076 -5.46751 -11.9358
O -5.06339 -3.06291 -13.1092
H -4.97365 -3.26514 -12.134
H -4.28481 -3.45023 -13.6029
O 14.4945 -4.0869 7.28366
H 13.7137 -4.33142 7.85858
H 14.8177 -3.17353 7.53127
O -6.45809 7.00606 2.84087
H -5.62175 6.6405 3.24941
H -6.33637 7.97946 2.64682
O -2.09158 10.0115 1.0382
H -2.23978 10.24 0.0760217
H -2.45014 9.09633 1.22245
O 6.76557 -9.40611 -7.64973
H 7.3454 -9.01156 -8.36255
H 5.81738 -9.12503 -7.79784
O -7.86385 12.056 7.06763
H -8.21838 11.4725 7.79828
H -7.4799 11.4852 6.34188
O 9.9886 -3.99329 0.116543
H 10.0706 -3.03861 0.402636
H 10.4693 -4.1239 -0.750536
O -2.37959 9.40449 -6.76152
H -1.39221 9.41784 -6.91927
H -2.85723 9.57087 -7.62418
O -4.58701 6.28301 -13.7816
H -5.06233 5.50557 -14.1935
H -4.73253 7.09793 -14.3426
O 6.57601 4.5022 8.8014
H 6.69836 5.07322 9.61317
H 7.31345 4.68486 8.15117
O -1.51081 7.7858 -10.1331
H -0.692167 8.22512 -9.76321
H -1.47846 6.80499 -9.94088
O -7.70689 10.0312 -9.00227
H -7.10809 9.68731 -9.72555
H -8.1796 10.852 -9.32308
O 6.83105 6.96457 10.6908
H 7.77392 6.85648 11.0059
H 6.83058 7.3281 9.7592
O 2.50405 -13.3675 -13.1833
H 2.65501 -13.0497 -12.2472
H 2.0698 -14.2681 -13.1635
O -5.74815 -5.65683 -4.29113
H -6.28933 -5.25607 -3.55186
H -4.94165 -6.10684 -3.90765
O 13.1183 11.6854 -8.31627
H 13.4815 12.0533 -9.17225
H 12.355 11.0706 -8.51499
O -13.851 4.91516 2.28125
H -13.5175 4.84077 3.22104
H -14.5509 5.62765 2.23139
O 14.4947 3.33386 -5.34774
H -14.868 3.65352 -5.76886
H 13.9574 2.82849 -6.02292
O 8.35814 -14.2772 -1.86841
H 8.47227 -13.3521 -2.2305
H 8.71058 -14.9397 -2.5294
O -9.26137 -8.99438 1.71413
H -8.86755 -9.47308 2.49883
H -9.95945 -9.57014 1.28848
O 13.8182 3.60077 -8.48369
H 14.5542 4.23417 -8.72244
H 12.9652 3.90611 -8.90712
O 4.3117 11.1964 13.6399
H 3.73575 10.9866 14.43
H 5.21013 11.5029 13.9543
O 9.12229 13.3132 -12.9497
H 8.48469 13.0569 -12.2232
H 9.9716 12.7957 -12.8457
O 2.1053 2.41148 10.0736
H 2.02711 3.25401 10.6065
H 2.8456 1.85037 10.4439
O -14.7337 14.8467 -5.59713
H 15.0206 14.7875 -4.70976
H -14.5652 -14.4051 -5.82197
O -9.15611 1.45631 9.27519
H -9.06016 0.751775 8.57204
H -8.24963 1.75809 9.57054
O -8.54851 -11.2946 -8.49317
H -8.31246 -11.5734 -7.56228
H -9.49245 -10.9651 -8.51318
O 3.45488 -1.8537 -6.15124
H 3.55802 -1.98292 -5.16501
H 3.41702 -2.74549 -6.60209
O 0.593913 -1.13056 6.25483
H -0.224641 -0.601568 6.47872
H 0.408397 -2.10412 6.38811
O -0.976345 -9.61973 -15.021
H -0.197155 -9.06535 -14.7286
H -1.68278 -9.60127 -14.3134
O -8.19625 -7.95304 -0.614473
H -8.63098 -7.93951 0.28598
H -8.26442 -8.87163 -1.00375
O 10.3329 3.97853 -1.82204
H 11.3013 3.73908 -1.7518
H 9.82114 3.51259 -1.10025
O -1.80703 11.8584 -9.88477
H -2.49364 11.1373 -9.79236
H -2.25585 12.7516 -9.85635
O -14.1513 9.19944 8.33773
H -13.2902 9.65248 8.56861
H -14.8239 9.37593 9.05635
O -1.05015 -9.85154 9.98088
H -1.76115 -10.4972 10.2595
H -0.75196 -9.32115 10.7745
O 1.31244 -10.9701 12.3229
H 0.803022 -11.4675 13.0252
H 1.19996 -9.98645 12.4634
O -1.15804 5.05803 -9.19513
H -0.25702 5.48787 -9.13694
H -1.05732 4.11402 -9.50929
O -14.2858 -12.752 -6.09557
H -14.8215 -11.9377 -6.31894
H -13.4822 -12.7954 -6.68916
O -7.53893 5.56578 0.695593
H -8.48656 5.55773 1.01484
H -6.94648 5.92017 1.41906
O -3.58105 -6.35801 4.62927
H -2.73042 -6.73215 4.25989
H -3.40741 -5.96296 5.53137
O -14.7157 12.2599 7.35387
H 15.0698 12.2911 8.25807
H -15.0013 11.4272 6.87947
O 3.33793 8.30106 -11.7282
H 2.44451 8.26779 -12.1762
H 4.04851 8.04107 -12.3821
O 4.62755 11.9907 -10.3265
H 3.82289 12.25 -10.8607
H 4.54921 12.3654 -9.40267
O -6.32772 -5.91625 -10.2655
H -5.90829 -6.73641 -9.87637
H -5.94375 -5.10462 -9.82524
O 11.1355 0.863349 -10.2994
H 10.5308 1.37239 -9.68674
H 10.6055 0.174867 -10.7944
O -9.32307 -3.3764 6.4612
H -8.77301 -3.81804 5.75242
H -10.2559 -3.24492 6.12563
O -1.29269 1.23114 7.15672
H -1.77095 1.04478 8.01493
H -1.15524 2.21682 7.05898
O 8.96812 3.09218 -11.6599
H 9.34019 2.53094 -12.3992
H 8.31136 2.55437 -11.1313
O -4.56708 -11.5284 5.2916
H -4.81625 -10.6001 5.01547
H -3.97707 -11.4892 6.09804
O -13.1261 -6.63334 -14.9804
H -14.0772 -6.92875 -14.8895
H -12.9342 -5.91673 -14.3099
O -4.16029 -3.15905 -1.22565
H -4.62389 -3.88047 -0.711224
H -4.82188 -2.68779 -1.80892
O -6.71348 -0.19317 -9.2975
H -7.17642 0.681433 -9.15343
H -7.17119 -0.904418 -8.764
O -2.42304 4.30867 15.0898
H -2.62174 5.24303 -14.8258
H -2.96759 4.09271 14.2794
O -0.11124 -12.539 -2.36085
H -0.441354 -11.5963 -2.40874
H -0.276669 -12.904 -1.44464
O -5.56064 -2.36707 4.98172
H -5.52021 -3.20872 4.44321
H -4.65696 -2.1713 5.36255
O 3.48184 5.17724 9.49856
H 4.08251 4.97239 8.72576
H 2.53317 4.99341 9.24122
O -0.605246 -4.74093 -12.7729
H 0.384427 -4.63494 -12.6764
H -0.95053 -5.32799 -12.0407
O -2.19093 11.1645 -13.66
H -2.36075 12.142 -13.5348
H -2.91392 10.7706 -14.2276
O 5.91104 -14.0187 9.52679
H 6.6292 -13.8477 10.2013
H 5.48594 -13.1521 9.26549
O 8.85362 -7.37379 3.74032
H 8.16332 -6.6743 3.55538
H 8.4472 -8.10739 4.28496
O -2.95928 -13.4171 -6.29439
H -3.49094 -12.6325 -6.61336
H -2.01405 -13.3292 -6.60873
O -3.90983 -2.64769 1.87966
H -4.3239 -1.73838 1.9209
H -3.66254 -2.85875 0.933992
O 7.7254 -5.68356 -4.47056
H 8.38026 -5.82095 -5.21372
H 8.09456 -6.06993 -3.62532
O -1.83856 -7.79506 -8.55429
H -1.94131 -8.5967 -9.1432
H -1.39103 -7.0612 -9.06534
O -1.80094 4.61267 11.1966
H -2.01012 5.18496 10.4037
H -2.65186 4.34737 11.65
O 0.423674 -14.3804 11.8316
H 0.127731 14.9583 11.4435
H 1.35081 -14.1738 11.519
O 1.0062 -0.400799 11.4383
H 1.87159 -0.198476 11.8967
H 0.530909 0.454274 11.231
O -9.71393 -5.36321 -9.6285
H -9.692 -6.32509 -9.90111
H -10.3676 -4.86914 -10.2017
O 2.60797 8.03309 8.58315
H 1.65073 8.24764 8.77716
H 2.74694 7.04466 8.6439
O -0.778907 13.8534 -7.51991
H -1.62941 13.3488 -7.37159
H -0.0196197 13.3584 -7.09758
O 4.86338 -1.66596 -3.76804
H 5.75964 -1.76871 -4.1995
H 4.96576 -1.18469 -2.89747
O -3.84765 13.2592 7.27938
H -4.32988 13.4394 6.42206
H -3.76669 14.1085 7.80107
O 9.55998 5.3382 -7.34453
H 8.79767 4.69318 -7.29145
H 9.22233 6.22897 -7.64867
O -10.265 -7.84569 4.74032
H -9.35233 -7.80723 5.14711
H -10.5308 -6.93263 4.43101
O 3.97938 -11.744 -7.57273
H 3.91618 -11.2591 -6.70046
H 3.74201 -11.1212 -8.31826
O 6.7751 1.72848 -10.0393
H 6.49515 1.29356 -10.8951
H 6.33755 1.26281 -9.27009
O -14.1537 -5.49735 0.605026
H -13.5708 -6.30043 0.481194
H -15.0926 -5.72381 0.345912
O 10.6861 14.2949 9.58026
H 9.85626 14.4313 10.1213
H 11.4673 14.1741 10.1928
O 14.4918 -3.39207 13.7318
H 14.4139 -3.817 14.6336
H 14.0014 -3.94597 13.0589
O -3.79526 3.65951 12.9346
H -4.31246 3.59235 12.0814
H -3.72703 2.75479 13.3551
O -6.84405 1.92844 3.3748
H -7.61396 2.04663 4.00191
H -7.0171 2.44156 2.53412
O -11.9084 10.358 9.16715
H -10.9985 10.7586 9.05978
H -11.8522 9.55844 9.76512
O -8.01517 9.05015 6.33068
H -8.97924 9.09491 6.59251
H -7.85222 9.6582 5.55369
O -7.74821 -12.1802 -4.46928
H -7.16781 -11.9261 -3.69561
H -8.16842 -13.0703 -4.29253
O -11.3729 -14.135 -5.5503
H -10.5293 -14.4031 -5.08516
H -12.0748 -14.8301 -5.39463
O 8.93508 -2.99619 3.22814
H 9.70944 -2.98136 3.86071
H 8.567 -2.07158 3.13014
O -7.02564 2.65876 -5.7263
H -6.73265 1.92707 -5.11086
H -6.22202 3.10264 -6.12274
O -13.1002 -5.30704 -12.008
H -12.8142 -6.15774 -11.567
H -12.3376 -4.66022 -12.0107
O -9.75474 1.81002 5.33114
H -9.02354 2.44263 5.58638
H -10.6356 2.28058 5.38241
O 12.3456 9.77096 3.82651
H 12.8368 9.79769 2.95592
H 11.5011 9.24664 3.71678
O -0.38452 -6.3008 -10.5364
H 0.441924 -6.82505 -10.7417
H -0.129188 -5.39747 -10.1918
O 7.90509 3.53331 4.85333
H 7.53274 2.60794 4.92435
H 7.32957 4.07829 4.2436
O -10.2432 0.158579 -8.25064
H -9.36968 -0.328166 -8.24176
H -10.0873 1.12665 -8.05432
O -2.9685 6.60881 8.76746
H -3.90611 6.59447 9.11482
H -2.96338 6.97475 7.83684
O -2.20072 3.96069 7.2763
H -1.70402 4.76776 7.59558
H -3.07751 3.89867 7.75314
O 10.3632 -3.81104 11.558
H 10.7161 -2.89306 11.377
H 9.60204 -4.0036 10.9387
O 13.5803 -2.24143 0.587483
H 13.989 -3.00003 1.09496
H 13.4219 -1.47282 1.20725
O -2.39728 -0.4355 10.1054
H -2.16844 -1.2956 10.5613
H -2.04085 0.330454 10.6404
O 0.204551 -5.53357 -1.23782
H 1.0095 -5.7967 -1.76962
H -0.45932 -5.08634 -1.83719
O 2.9698 14.9397 0.975712
H 2.07202 14.7502 0.578124
H 3.04558 -14.2952 1.17751
O 3.85024 -0.14938 12.1576
H 4.2268 0.139063 11.2773
H 4.50404 0.0603893 12.8846
O -7.64995 -10.542 3.39587
H -7.61506 -11.4192 3.87462
H -6.92512 -9.94529 3.74021
O 11.4243 11.8093 14.6921
H 11.4665 11.8132 -14.5203
H 10.6414 12.3528 14.3894
O -9.68394 -9.20031 9.99522
H -10.6569 -9.11518 10.2099
H -9.39597 -10.1492 10.1241
O -2.55334 -8.9403 -0.177094
H -2.93282 -9.56887 0.501799
H -3.08824 -8.09542 -0.184799
O 6.27955 8.44783 1.7685
H 6.34363 8.6119 2.75286
H 5.62993 9.09206 1.36481
O -4.5386 -3.8055 -10.0131
H -4.08987 -2.92745 -10.1794
H -4.05359 -4.52666 -10.5078
O -10.9659 8.30407 -12.5493
H -10.7949 8.40636 -13.5293
H -10.9088 9.19854 -12.1059
O 9.71967 6.51547 11.5151
H 9.77369 6.20165 12.463
H 10.059 7.45422 11.4549
O 10.7099 -9.86112 -0.930898
H 11.3922 -9.59437 -0.250219
H 9.87223 -9.33409 -0.787479
O -9.79167 -14.1144 -14.7493
H -10.7882 -14.1609 -14.6808
H -9.38696 -14.3002 -13.854
O 12.0609 -8.35202 -12.4195
H 11.4965 -8.36295 -13.2449
H 12.2878 -7.40716 -12.1834
O 12.832 1.61608 -6.80289
H 13.0854 2.33096 -7.45458
H 12.2011 1.99216 -6.1242
O 6.10763 -1.71436 -10.7535
H 6.89967 -1.34824 -10.265
H 5.53905 -2.23952 -10.1203
O 12.0925 3.64095 2.72316
H 11.3965 2.99445 2.4107
H 12.7071 3.86093 1.96566
O -4.08739 7.70381 14.1235
H -4.39144 8.61256 13.8377
H -4.60676 7.00745 13.6282
O -2.83898 -14.3353 -3.45547
H -2.8285 -13.7366 -2.6546
H -2.49576 -13.8349 -4.25029
O 6.50518 -10.8555 -1.22651
H 6.45546 -11.564 -0.52252
H 7.42644 -10.8357 -1.61494
O 3.43353 -8.87712 14.9692
H 4.22843 -8.74227 14.3776
H 3.17814 -9.84395 14.9691
O 8.81195 8.87629 8.77662
H 9.64364 8.35209 8.9597
H 9.02988 9.85211 8.76005
O 4.27848 14.4 8.20693
H 4.82698 13.5981 7.97017
H 4.88159 -15.0705 8.50243
O 10.1381 1.15713 10.5239
H 10.6634 1.99218 10.6875
H 9.31416 1.37844 10.0023
O -9.19458 -4.7468 14.1941
H -9.76902 -4.38312 14.9274
H -9.05224 -5.72627 14.3368
O -14.8265 4.9632 5.71265
H 14.4653 5.17104 5.37946
H -14.8444 4.10625 6.22773
O 14.0776 0.450835 -14.7052
H 14.8158 -0.200307 -14.529
H 13.5347 0.572145 -13.8742
O 14.9578 -2.85542 3.7911
H -14.4225 -2.36585 4.05477
H 14.1624 -2.40278 4.19403
O 4.22826 -10.8831 3.14766
H 5.18743 -11.1085 3.31856
H 3.64426 -11.4467 3.73185
O 5.66136 5.75674 -9.74741
H 5.29434 6.48193 -9.16484
H 5.96846 6.14907 -10.6145
O 14.3345 -8.71718 11.3316
H 14.2305 -9.29788 10.5242
H 14.9961 -7.99272 11.1382
O 14.373 7.52921 6.54146
H 14.7834 6.6256 6.41849
H 14.6851 7.92208 7.40647
O 2.95712 -6.4885 -1.95019
H 3.30295 -6.51055 -2.88822
H 2.89959 -7.42119 -1.59414
O -3.74778 -6.66115 14.4567
H -3.93084 -6.51798 13.4841
H -4.41329 -7.30777 14.8294
O -12.3476 -10.2536 -13.8013
H -11.682 -9.54742 -14.0425
H -13.0605 -9.85633 -13.2234
O -5.86563 -0.259614 -0.742875
H -5.8494 -0.410671 0.245513
H -5.79491 0.719869 -0.931567
O -15.016 -3.90231 -13.4851
H 14.4265 -4.52271 -13.6393
H -14.2507 -4.41154 -13.0915
O -11.7731 -4.84603 12.8671
H -10.8199 -4.60445 12.6855
H -11.8063 -5.61551 13.5049
O -6.92426 -5.09024 10.6529
H -7.13342 -4.56584 11.4783
H -7.49561 -4.76663 9.89871
O 3.90037 -2.03228 -14.7741
H 4.31399 -1.29326 14.9056
H 3.0682 -1.69876 -14.3311
O -1.06943 -8.13749 6.628
H -0.241204 -7.97086 6.09295
H -1.66339 -8.77232 6.13384
O -11.1556 -8.34377 -4.85491
H -11.823 -8.4605 -5.59042
H -10.8843 -7.38284 -4.80043
O 11.9618 -9.41206 -7.68381
H 12.7956 -9.58774 -7.16043
H 11.8068 -10.163 -8.32569
O 14.3159 -11.7107 11.6905
H 13.7016 -11.3809 10.9737
H 14.0585 -11.2997 12.5651
O 5.70809 -5.79091 -12.4609
H 6.56095 -6.29774 -12.3354
H 5.91336 -4.82196 -12.5987
O 13.8179 11.4368 -11.3011
H 14.8045 11.5876 -11.2388
H 13.6315 10.7262 -11.9795
O -10.1462 1.69003 -0.42745
H -10.1602 1.42509 -1.39161
H -9.43587 2.37859 -0.281326
O -8.17934 7.31374 -12.016
H -9.12034 7.64671 -11.9556
H -7.77557 7.61093 -12.8813
O 2.65221 6.7955 -3.2209
H 1.74164 7.20641 -3.26577
H 3.1617 7.19649 -2.45957
O 9.07868 7.48989 5.10329
H 9.77572 8.0799 5.51075
H 8.73163 6.857 5.7954
O -3.49147 14.1109 -9.53394
H -4.39445 13.8286 -9.21003
H -3.38472 15.0969 -9.40605
O 14.0073 8.2081 -5.63929
H 13.8048 8.92909 -4.97661
H 14.2998 7.38327 -5.15547
O 13.392 -7.34984 2.15109
H 13.5664 -6.74366 1.37512
H 12.6031 -7.01402 2.66566
O 13.717 3.59384 0.517999
H 13.7905 4.53804 0.196961
H 13.924 2.96881 -0.23467
O -5.63942 -0.504314 2.31632
H -5.83706 0.45334 2.52568
H -6.06856 -1.09106 3.00302
O -2.20071 -4.39526 -15.0639
H -2.80653 -5.13764 14.8615
H -1.69409 -4.6741 -14.2481
O 14.0615 0.218627 -9.70171
H 14.8946 0.744411 -9.87344