2593
Atoms. Timestep: 18495000
O 10.9854 5.46382 7.85311
H 10.3582 5.09425 8.53872
H 11.8897 5.05403 7.9733
O -11.5883 13.6327 1.63658
H -10.8499 13.8781 2.26472
H -12.4333 14.0844 1.92279
O -6.69898 -11.2644 12.5564
H -6.45557 -12.0031 11.9278
H -7.64195 -11.3872 12.8658
O 0.158032 -5.1918 9.74394
H -0.185359 -5.42033 10.6549
H 1.05304 -5.61692 9.60876
O 3.1488 2.26742 5.79314
H 3.97065 2.23868 6.36216
H 2.84657 1.33461 5.59674
O -7.86598 9.07225 13.9532
H -8.32006 9.96131 13.8945
H -6.9 9.17501 13.7158
O -9.01552 11.9846 2.88472
H -9.67827 11.2605 3.07558
H -8.35209 12.0345 3.63132
O -6.90943 -2.77939 3.46565
H -6.89105 -2.36602 2.55524
H -7.69301 -2.42577 3.97652
O -11.0274 -7.74936 -5.65524
H -10.6316 -7.14482 -4.96392
H -10.7714 -8.69545 -5.45661
O -14.0033 -9.82505 5.31024
H -13.357 -9.06406 5.25335
H -14.025 -10.1746 6.24693
O 10.9798 11.2313 -1.769
H 11.4382 11.6112 -2.57248
H 10.9931 10.2326 -1.81871
O 8.1878 -4.71239 -5.77626
H 7.30059 -4.2527 -5.73626
H 8.35696 -5.18622 -4.91201
O -1.8726 8.52004 -11.0372
H -2.01422 8.37607 -10.0578
H -2.36311 9.34167 -11.3277
O -4.28506 -4.95598 -4.50085
H -3.43879 -5.30232 -4.09596
H -4.92836 -4.71562 -3.77391
O 3.70287 -12.0136 -7.3941
H 4.18145 -11.149 -7.24092
H 2.73776 -11.9073 -7.1547
O 2.26394 3.42651 8.17558
H 2.7398 3.21788 7.32113
H 1.47168 2.82389 8.27161
O -2.86504 -13.5476 9.75396
H -3.00594 -13.2368 10.694
H -3.05815 -12.7969 9.12219
O 4.8445 -10.4713 14.9112
H 5.45907 -10.1675 -14.4916
H 5.38233 -10.7479 14.1148
O -10.9801 4.81647 9.19115
H -11.0763 4.95211 8.20505
H -10.5986 5.64273 9.6056
O 15.0217 -5.86474 -6.81604
H -15.0351 -6.79994 -6.46967
H 14.1642 -5.76291 -7.32035
O -4.84049 -10.4789 1.25537
H -5.25314 -9.56874 1.29243
H -5.19787 -11.0376 2.0038
O 13.7835 3.01643 -3.2198
H 13.4507 2.11606 -2.93946
H 13.1097 3.71273 -2.97262
O -5.00815 -0.617311 14.774
H -5.87861 -0.747281 -14.882
H -4.60583 -1.50878 14.5655
O -3.99617 3.15577 -7.48298
H -3.37044 3.81891 -7.07219
H -4.04464 2.34096 -6.90524
O 11.6788 -11.4469 11.5984
H 11.8102 -10.9662 12.4654
H 11.675 -10.7859 10.848
O -12.5483 2.76281 -8.57261
H -13.221 2.12328 -8.20046
H -12.7589 3.6885 -8.25835
O 14.8855 0.689718 11.0936
H -14.4891 0.85376 11.7272
H -14.96 0.92804 10.1653
O 11.3369 -10.9817 -7.18795
H 10.8563 -10.1049 -7.20245
H 11.7214 -11.166 -8.09249
O -3.52817 14.833 -3.82773
H -3.06497 -14.8821 -4.61043
H -4.13164 -14.6242 -3.40111
O 7.12454 -1.88091 13.3138
H 6.71834 -2.32365 14.1132
H 6.63769 -2.16981 12.4894
O -4.79172 11.5956 8.99996
H -5.2164 12.466 8.75075
H -4.48268 11.1265 8.17261
O -5.56262 -12.9255 -7.14783
H -6.22547 -12.4029 -7.68411
H -5.49111 -12.532 -6.23125
O -9.33571 14.0559 10.0531
H -9.75081 14.9483 10.2299
H -9.11165 13.6144 10.922
O 13.7613 11.3594 -14.9236
H 12.9819 11.9788 -15.0178
H 14.5677 11.7714 14.7828
O 11.7123 0.464735 -8.86065
H 12.0007 -0.490253 -8.93039
H 12.4284 0.99706 -8.4091
O -10.2094 0.740372 -7.56505
H -10.8648 0.183909 -7.05443
H -10.6958 1.46677 -8.05064
O 1.45566 0.0747525 -8.62785
H 2.21144 0.645598 -8.30693
H 0.647737 0.242958 -8.06304
O 3.09432 4.8187 -13.8382
H 2.21212 4.53962 -13.4589
H 3.11351 4.62045 -14.8182
O -7.56239 -9.82904 4.7849
H -7.5293 -9.37526 3.89437
H -8.06999 -10.6868 4.70327
O -5.34077 -5.00338 -2.01094
H -4.62254 -5.67237 -1.81954
H -5.86779 -4.83273 -1.17837
O -4.49881 -12.0021 -11.6829
H -4.11618 -12.5663 -10.9512
H -4.86591 -12.5926 -12.4017
O -7.99586 13.0052 -6.41949
H -7.02905 13.2565 -6.37296
H -8.12267 12.2948 -7.11188
O -13.2284 -8.14463 11.2629
H -12.6696 -8.8709 10.8624
H -14.1955 -8.33942 11.099
O 8.55407 12.6893 3.87622
H 7.90547 12.772 4.63287
H 9.21084 11.9627 4.07809
O 2.76413 -0.459315 13.7594
H 3.65881 -0.240779 14.1491
H 2.05869 0.0768803 14.223
O 0.279399 11.5039 6.80114
H 0.447155 10.5239 6.69421
H 0.258349 11.9387 5.90081
O -14.8734 0.693335 -10.328
H 15.0033 1.56541 -10.7462
H -14.7978 0.808239 -9.33743
O 6.33687 -9.33004 -12.9624
H 5.75055 -9.72896 -12.2574
H 6.6372 -8.42163 -12.6715
O 1.29612 -14.5536 -5.1054
H 1.13489 -14.2227 -4.1756
H 1.66852 14.6498 -5.06925
O 12.1138 -9.26651 13.2936
H 11.6628 -8.69431 12.6085
H 11.8075 -8.99731 14.2067
O 5.56064 -12.3926 10.074
H 6.20497 -13.1523 10.162
H 5.20756 -12.3616 9.13889
O -6.57041 3.6611 -1.97152
H -6.69495 2.89316 -1.34319
H -5.71705 4.13485 -1.75386
O -7.97884 6.59273 12.737
H -6.9838 6.57209 12.6394
H -8.26134 7.48748 13.0829
O 14.2823 -2.70616 1.60654
H 15.0319 -2.16064 1.23168
H 13.6525 -2.10976 2.10428
O 4.56602 -10.0569 -11.1009
H 3.6282 -10.4035 -11.1226
H 4.55947 -9.09429 -10.8301
O -0.658899 12.7543 1.76671
H -1.09714 12.8646 2.6588
H -1.17891 12.0992 1.2186
O -12.7312 12.8358 -5.20005
H -12.7417 12.8594 -6.19974
H -12.0803 12.1429 -4.88982
O -11.8089 -12.6074 -5.20822
H -12.2583 -13.4625 -4.94962
H -12.3255 -12.1684 -5.94341
O -10.1642 -10.3564 -4.60565
H -10.6411 -10.8422 -3.87318
H -9.19262 -10.5924 -4.58467
O -7.08619 -2.3093 -8.09132
H -7.42989 -2.84271 -7.3184
H -7.41055 -2.7142 -8.94624
O 6.75061 4.06039 4.88466
H 7.74999 4.04617 4.91754
H 6.44359 4.90366 4.44342
O -8.15453 -3.56613 11.63
H -8.0194 -4.26094 10.9236
H -8.74249 -3.93348 12.3507
O -14.2219 8.73389 2.74067
H 15.0318 9.21431 2.74487
H -14.3291 7.84828 2.28873
O 3.54306 3.73003 13.4536
H 3.31303 3.38479 12.5437
H 4.05937 3.0345 13.9533
O 3.99933 11.7972 -6.47912
H 3.69562 11.1585 -5.7721
H 4.34815 12.6297 -6.04866
O -10.7336 10.0838 4.21418
H -11.6414 10.5022 4.24428
H -10.6978 9.41843 3.46849
O 14.7233 -1.58605 -6.57114
H -14.7448 -2.30339 -6.35604
H 13.8167 -1.99276 -6.68393
O 6.53342 0.664754 14.3004
H 6.74238 -0.0610604 13.645
H 7.33012 1.26032 14.4035
O 0.0722201 13.298 8.77753
H 0.090093 12.6472 8.01843
H -0.679687 13.9439 8.64522
O 13.4943 3.8568 8.60286
H 14.428 4.21351 8.57153
H 13.0788 4.08713 9.48286
O 11.8962 -6.42589 -7.69016
H 11.2312 -7.16901 -7.765
H 12.4187 -6.35932 -8.5402
O -9.99301 -5.49451 5.47457
H -9.11326 -5.84504 5.15332
H -10.0475 -4.51283 5.29183
O -11.9183 1.50108 -2.51391
H -11.8144 2.49554 -2.49687
H -12.2673 1.21767 -3.40717
O -9.28899 -13.522 -4.33432
H -9.30699 -14.4726 -4.64435
H -10.1275 -13.0608 -4.6246
O -0.792968 -6.11205 -1.03304
H -0.606478 -6.01824 -2.01103
H -0.00324187 -5.7902 -0.510742
O 7.23007 11.1135 2.00197
H 7.57826 11.7501 2.69011
H 7.9719 10.8514 1.38468
O -14.8496 2.608 2.19022
H -14.8234 2.96686 3.12327
H 14.353 2.69009 1.82746
O -2.80224 -7.42754 7.95902
H -2.22293 -6.66622 8.25029
H -3.75844 -7.13485 7.95138
O -10.2767 -6.23995 -3.26393
H -9.40094 -5.76194 -3.33104
H -10.1403 -7.12472 -2.81826
O -9.31264 4.57691 0.322337
H -10.2076 4.13114 0.301154
H -8.59883 3.9002 0.141793
O 14.1366 14.0357 6.53251
H 14.4464 14.956 6.77171
H 14.3257 13.4126 7.29145
O -3.81068 -5.89609 -12.6677
H -2.8985 -6.10342 -13.0212
H -4.01324 -4.92797 -12.8152
O 14.4481 3.07196 -11.7086
H 13.7282 2.62648 -12.2409
H -14.9297 3.32773 -12.3149
O -0.323249 -13.6136 2.06368
H 0.497773 -14.1545 1.88094
H -0.59323 -13.1265 1.23307
O -4.82106 -9.35069 -10.3761
H -4.67378 -10.2159 -10.8554
H -4.03249 -9.15401 -9.79339
O -12.5885 2.06277 11.8267
H -11.8471 2.72999 11.7552
H -13.4683 2.5339 11.7623
O 10.8791 -7.24903 11.8795
H 11.2576 -6.77284 11.0857
H 10.2807 -6.62846 12.3863
O 0.631445 -1.61995 5.40607
H 1.00528 -2.40783 4.91666
H -0.22807 -1.33932 4.97884
O -14.9236 -11.221 -14.7932
H 14.8647 -11.8216 14.6152
H 14.9008 -10.2847 -14.9649
O -0.938775 11.3831 11.1241
H -0.584939 11.8121 10.293
H -0.178774 11.1665 11.737
O -2.85372 -12.1099 0.0756862
H -3.08372 -12.9319 0.596713
H -3.19408 -11.3031 0.558604
O 6.07934 14.2233 -2.49878
H 6.29873 14.3278 -1.52874
H 6.66092 14.8312 -3.03943
O -6.72166 -5.80443 2.76647
H -7.60428 -6.03548 3.17592
H -6.43539 -4.89913 3.08034
O 2.79551 12.0031 14.6868
H 3.47575 12.1864 13.9771
H 2.21876 12.8104 14.8122
O -14.0883 13.6679 4.39296
H -14.7138 13.7604 5.16773
H -13.6788 12.7557 4.40225
O -9.87637 2.80739 -4.52494
H -9.737 3.52136 -3.83874
H -10.1241 1.95187 -4.07024
O 1.12822 12.2504 -0.622271
H 1.58475 13.1134 -0.838514
H 0.656378 12.3337 0.255495
O -5.05247 -0.690108 10.5682
H -5.04277 -1.53179 11.1081
H -5.7788 -0.742137 9.88281
O -13.3952 -5.99038 -1.41918
H -14.2412 -5.45783 -1.3914
H -13.6054 -6.95758 -1.27634
O -13.2116 -11.5375 -0.181019
H -13.6935 -12.3525 -0.502834
H -13.2416 -11.5052 0.818034
O -13.2923 10.1411 -2.45645
H -13.4051 10.8554 -3.14723
H -12.7506 9.39173 -2.83724
O 9.28588 -11.3054 14.0512
H 8.97128 -11.2501 13.1036
H 8.53634 -11.0602 14.6661
O -0.642266 -3.98708 -7.49181
H 0.352051 -4.01093 -7.59579
H -1.02869 -3.32432 -8.13327
O -11.9598 -0.707742 11.4019
H -12.1656 0.257228 11.5648
H -11.11 -0.950809 11.8697
O -10.4811 -6.76326 -9.54373
H -9.9018 -7.5485 -9.76262
H -11.4387 -6.99931 -9.70851
O 2.3111 -2.14277 8.68278
H 2.43729 -3.13478 8.67588
H 2.24335 -1.82194 9.62751
O -7.48123 3.75398 11.9924
H -7.49656 3.28668 12.8764
H -7.4044 4.74035 12.1381
O 9.55629 -2.07106 5.86994
H 10.4799 -2.34704 6.13603
H 9.26064 -1.30386 6.43918
O -7.01869 1.87816 -0.218223
H -6.99254 1.65174 0.755481
H -7.22398 1.05431 -0.746609
O -11.4616 -10.0198 10.364
H -11.5161 -10.9511 10.724
H -10.5168 -9.81636 10.1072
O -8.14581 -10.5407 -7.35619
H -7.47115 -10.4519 -8.089
H -7.8198 -10.0588 -6.54283
O -13.1568 -3.41254 -6.05921
H -13.4205 -4.16865 -6.65819
H -12.9374 -3.768 -5.15059
O -1.88779 4.4039 7.57574
H -1.01805 4.67852 7.16564
H -1.97018 4.8101 8.48583
O -7.3807 14.806 0.712104
H -7.17512 13.8458 0.52276
H -7.31105 -14.796 -0.133765
O -10.9933 2.30905 0.08287
H -11.1782 1.57124 0.732113
H -11.038 1.95123 -0.849879
O 1.49946 -6.45343 4.84584
H 0.611627 -6.67555 5.24891
H 2.1505 -6.23556 5.57297
O -0.627369 6.455 -4.09183
H -1.58056 6.17162 -3.98617
H -0.0388962 5.64657 -4.1059
O -14.4436 -11.5678 10.6982
H -14.7241 -12.4092 10.2363
H -13.6292 -11.7463 11.2504
O 10.3323 -10.6065 7.61194
H 11.212 -10.1848 7.83194
H 10.1264 -11.3179 8.28394
O 1.43698 -1.98094 -10.6915
H 1.63292 -1.32241 -9.96488
H 1.67731 -2.90079 -10.3814
O 14.2615 -14.425 0.68213
H 13.8548 14.9489 0.170576
H 13.5553 -13.7504 0.897056
O -3.61857 3.19729 4.62487
H -4.1386 3.38117 5.45902
H -4.01567 3.71118 3.86443
O 3.9534 -1.91064 -12.5514
H 3.28746 -1.98778 -13.2935
H 3.75729 -1.09219 -12.0113
O 13.15 -9.00757 -5.24278
H 13.904 -9.43117 -4.74065
H 13.356 -9.01392 -6.22133
O 6.80108 -13.9329 -8.65795
H 6.01136 -14.3712 -8.22873
H 7.14103 -13.2035 -8.06419
O -10.7414 14.5506 -7.30495
H -10.2681 14.0724 -6.56514
H -10.3242 -14.6817 -7.44154
O 13.285 -1.75914 -1.6779
H 14.0547 -1.12302 -1.7322
H 12.8275 -1.65424 -0.794856
O -9.09541 14.8976 2.70081
H -8.46684 14.7815 1.93175
H -8.93713 14.1742 3.37283
O 9.22655 -5.08647 12.6595
H 8.91437 -5.4741 13.5268
H 8.91316 -4.1397 12.5855
O -2.02421 -1.41225 4.21077
H -2.45934 -1.38166 5.11065
H -2.57248 -0.890046 3.5575
O -4.62071 4.37094 2.14403
H -5.12671 5.16439 1.80572
H -4.82509 3.57658 1.57195
O -7.3734 -8.72875 11.9955
H -6.78012 -8.0686 11.5348
H -6.96491 -9.63982 11.9396
O -13.5854 13.0845 -13.0432
H -13.9246 13.1462 -13.9819
H -14.2997 13.3834 -12.4104
O 14.8201 0.205718 3.9258
H 14.0199 -0.305752 3.61258
H 14.8758 1.07315 3.43131
O 13.2375 1.17132 -13.4247
H 14.0838 0.666401 -13.5947
H 12.5276 0.537881 -13.1169
O 1.08458 -13.31 4.96987
H 1.81352 -12.6355 5.08703
H 0.59007 -13.1224 4.12117
O 5.47225 3.61454 7.22106
H 6.00197 4.29231 7.73102
H 5.87969 3.48445 6.31711
O 11.9717 3.45646 13.1164
H 11.945 2.54475 12.7064
H 12.5158 3.42901 13.955
O 13.2449 -10.8515 7.38881
H 12.7989 -11.7189 7.60965
H 13.4414 -10.8177 6.40888
O -10.8339 -13.3365 -10.3798
H -10.8033 -14.2666 -10.746
H -10.6363 -13.3575 -9.39976
O -12.7709 -6.19184 -13.1719
H -13.0122 -5.4795 -12.5128
H -12.5672 -7.04126 -12.685
O 0.628904 5.31456 6.92491
H 0.476469 5.93953 7.69057
H 1.24723 4.58228 7.21039
O 14.0265 -12.5114 3.81774
H 13.7469 -11.5587 3.93732
H 13.2941 -13.1156 4.1316
O -2.12991 -9.73663 -1.2954
H -1.14836 -9.80527 -1.47399
H -2.38542 -10.3895 -0.582297
O -11.8837 -7.57223 5.16475
H -12.6424 -7.00093 4.85146
H -11.054 -7.01793 5.23028
O 14.98 3.07687 4.84651
H 14.373 2.30858 5.04971
H -14.2714 2.93615 5.30129
O -9.74467 -13.1646 -7.59669
H -10.0472 -12.7788 -6.72512
H -8.94506 -12.6613 -7.92437
O -4.03151 -3.33884 8.114
H -4.47151 -3.60765 7.25715
H -3.96989 -2.34171 8.15855
O -2.64734 -9.0159 -8.63041
H -1.95282 -9.21524 -9.32175
H -2.6372 -8.03832 -8.41996
O 10.3905 -9.6654 -4.74528
H 10.2145 -9.7264 -3.76274
H 11.3645 -9.49991 -4.89984
O -12.5049 -4.78949 -3.61024
H -11.5574 -5.10905 -3.59498
H -13.032 -5.27609 -2.91356
O -0.0224522 10.4174 -8.7361
H 0.723583 9.80131 -8.98883
H -0.605125 9.97363 -8.05524
O 14.2466 7.46524 -12.0857
H 13.3768 7.1977 -11.6711
H 14.3308 8.46159 -12.0701
O 9.45242 13.3021 -0.2429
H 9.74679 14.0672 -0.815564
H 10.0935 12.5417 -0.347275
O 6.37379 -10.532 -9.01758
H 6.10985 -9.66917 -8.58641
H 5.72711 -10.751 -9.74826
O 6.8902 1.6063 -2.40263
H 6.65446 1.33311 -1.46997
H 7.22466 0.811099 -2.90842
O -6.82191 6.3177 2.40704
H -7.18616 6.96653 1.73891
H -7.55667 6.01829 3.01576
O -8.55899 -1.1019 5.15035
H -9.37934 -1.64973 5.31448
H -8.53319 -0.338645 5.79597
O 9.93371 6.55833 -7.88726
H 10.5144 6.67286 -8.69335
H 9.0231 6.92526 -8.07755
O -2.12057 14.6267 7.98229
H -2.80584 13.9935 7.62245
H -2.54968 -14.8895 8.64423
O 5.43694 0.250188 -6.38568
H 4.80517 0.976935 -6.11594
H 5.34389 0.0743911 -7.36572
O 5.49944 11.5244 4.1922
H 6.01357 11.117 3.43737
H 5.20265 10.8048 4.82
O -1.51993 -3.63074 -14.3446
H -0.883993 -3.27963 -15.0319
H -2.43629 -3.69422 -14.74
O 4.22398 12.9714 -9.61835
H 4.29641 13.7582 -9.0054
H 3.28265 12.8896 -9.94583
O -13.4204 5.23327 -8.13508
H -12.601 5.46852 -7.61226
H -13.8284 6.06657 -8.50815
O -14.6587 1.05981 8.37842
H -13.7578 0.805598 8.0266
H 14.8891 1.35344 7.62082
O 14.5276 -4.53482 -1.60749
H 14.0874 -5.07455 -2.32514
H 14.1297 -3.61754 -1.58886
O -1.63966 -4.67585 7.48219
H -0.86038 -4.40719 8.04839
H -2.46653 -4.22401 7.81712
O 9.2114 -4.00615 -10.6792
H 9.42496 -4.14887 -11.6457
H 9.31915 -3.03791 -10.4535
O -8.56806 -12.8403 3.53747
H -8.90298 -13.7584 3.32577
H -9.23242 -12.3686 4.11731
O 1.43961 -14.5795 -10.6473
H 1.37623 14.5754 -10.4386
H 1.25286 -14.4337 -11.6189
O -11.3201 -3.96998 -13.9873
H -11.7484 -4.85683 -13.8139
H -11.7432 -3.27587 -13.4049
O -4.80959 -7.78606 2.51177
H -5.59449 -7.16652 2.49899
H -4.83095 -8.3339 3.34811
O 4.77494 -7.715 -9.8514
H 5.382 -7.53946 -9.07634
H 3.91555 -7.22072 -9.7203
O 1.64565 -10.9505 12.3821
H 0.839257 -11.4994 12.1619
H 2.45849 -11.5329 12.371
O -3.36543 -13.4229 -9.05891
H -3.83731 -13.2377 -8.1969
H -3.10568 -14.3879 -9.09605
O -5.9343 -12.1281 3.01559
H -5.79598 -12.5162 2.1044
H -6.84021 -12.3842 3.35295
O -10.366 -9.1893 13.7786
H -9.69977 -8.61757 13.2998
H -11.053 -8.6073 14.2138
O 2.60875 -8.43412 -0.131561
H 3.52336 -8.82391 -0.0238898
H 2.33261 -7.99128 0.721486
O -2.87411 -6.2862 -8.15003
H -2.03775 -5.83582 -7.83744
H -3.36436 -5.68074 -8.77702
O 13.4813 2.15066 -7.52619
H 12.967 2.43872 -6.71834
H 13.5169 2.90275 -8.18432
O -12.6556 6.25061 14.8919
H -12.8929 7.21165 14.75
H -13.2134 5.87533 -14.4986
O 14.5181 9.08543 -0.800809
H -14.8772 9.41637 -1.39205
H 14.3833 8.10626 -0.952785
O 12.9666 -13.0511 -11.7789
H 13.5173 -13.6126 -12.3965
H 12.6325 -12.246 -12.269
O -6.57315 3.24674 9.37485
H -6.88871 3.29917 10.3223
H -7.17196 3.79728 8.79314
O -9.5098 -10.8304 -13.4693
H -9.5253 -9.92418 -13.0467
H -8.56205 -11.1261 -13.5892
O -3.04001 1.89264 7.76852
H -2.67752 2.82459 7.75769
H -3.97162 1.8931 7.40499
O 9.20321 7.70293 2.66015
H 10.0915 7.76579 3.11522
H 9.06708 8.50762 2.08224
O -4.94989 0.704255 4.41586
H -4.47767 1.34121 5.02525
H -4.90951 -0.217662 4.8012
O -4.09359 2.80819 14.6621
H -4.60982 2.29539 13.9761
H -3.80281 2.18931 -14.739
O 12.0761 -3.55557 11.8954
H 11.5631 -2.82623 12.3481
H 11.5142 -4.38167 11.8532
O 9.58379 -12.2878 -4.20428
H 10.2458 -12.9985 -4.44224
H 9.8162 -11.4417 -4.68402
O -2.04068 5.33352 3.40951
H -1.74564 4.46815 3.81465
H -2.72695 5.15465 2.70446
O 12.2207 -1.01341 7.56178
H 12.2456 -0.0183569 7.46541
H 13.0996 -1.33642 7.91265
O 5.05863 -9.98322 -6.09751
H 6.0507 -10.0631 -6.19473
H 4.84469 -9.24143 -5.46188
O -12.5164 -2.78793 -9.25272
H -11.7535 -3.3589 -8.94948
H -12.9343 -2.34214 -8.4611
O 9.80167 7.06278 -12.3574
H 9.03654 6.95934 -12.9929
H 9.85589 8.0138 -12.053
O 12.2427 14.5799 -12.683
H 12.4853 13.8102 -12.0924
H 13.0599 14.906 -13.1582
O 14.7357 5.70601 -14.3055
H 14.0999 5.83849 15.0649
H 14.4187 6.22524 -13.5118
O 11.5039 7.7611 3.86524
H 11.8991 7.61821 4.77266
H 12.0359 7.25497 3.18644
O -0.305188 -2.58633 11.9934
H 0.342691 -2.24313 11.3133
H -0.824122 -1.82147 12.3752
O 7.51345 -14.0379 10.8631
H 8.28884 -13.8915 11.4774
H 7.59627 -14.9353 10.4298
O 12.2794 -6.47888 0.23182
H 11.727 -6.37817 -0.595696
H 12.0102 -7.31332 0.712756
O -10.7528 14.0087 -14.3094
H -11.0039 13.9494 -13.3432
H -10.4894 14.9482 -14.5284
O -3.19983 8.63702 1.99962
H -3.45667 9.60324 2.02192
H -3.54458 8.18145 2.82038
O 14.1506 -12.5893 13.2842
H 14.1958 -12.3511 12.314
H 13.3166 -13.1122 13.4604
O 12.279 8.25139 -4.63655
H 11.5604 8.465 -5.29843
H 12.8698 9.04931 -4.51682
O -10.9197 10.5363 -4.8147
H -11.2631 9.90881 -5.51356
H -10.1525 10.1119 -4.3337
O -1.81506 -10.7714 12.9616
H -1.02241 -10.3628 13.4142
H -1.88201 -10.4222 12.027
O -9.17869 -13.3245 7.90462
H -9.33173 -13.4562 8.88406
H -8.22828 -13.0551 7.74901
O -12.6199 11.5326 9.37696
H -13.5182 11.284 9.01468
H -11.9738 10.7888 9.20539
O 9.56314 9.9562 0.746357
H 9.34817 10.0994 -0.219732
H 10.5098 9.64626 0.834797
O -14.9798 14.8886 -7.24745
H 14.5214 14.1483 -7.48281
H -14.7381 14.8255 -6.27912
O -5.34238 13.8353 11.4389
H -5.78742 13.8119 10.5437
H -4.72449 13.0537 11.5245
O 3.29721 4.96164 3.89906
H 2.51877 5.43636 4.30982
H 3.22671 3.98184 4.08633
O 14.0202 10.273 -4.53309
H 14.0219 11.1627 -4.07648
H 14.7795 10.2303 -5.18255
O 3.69854 9.16259 14.8743
H 2.73378 9.34096 -15.063
H 4.20709 10.0234 14.8937
O -11.7941 -1.75888 8.89473
H -12.0473 -1.32201 9.75791
H -12.5845 -2.24611 8.52333
O 10.825 -0.173786 -0.0392012
H 10.4991 0.0514985 -0.95741
H 10.1237 -0.697961 0.444074
O -1.41328 9.21944 -6.60784
H -0.503024 9.07786 -6.21868
H -1.93923 9.82737 -6.013
O 6.78555 -8.0531 -7.83241
H 6.9122 -8.02357 -6.84088
H 7.32419 -7.32652 -8.25902
O -8.82675 8.07645 -2.60728
H -8.29492 7.82605 -3.41629
H -9.79105 7.86202 -2.76282
O -6.43685 4.47285 -4.58373
H -6.7249 4.04571 -3.72663
H -7.1075 4.27239 -5.29793
O -6.60231 -12.7217 8.09074
H -6.2296 -11.8513 7.769
H -6.80935 -12.6552 9.06683
O -4.16438 3.72831 10.9837
H -4.29882 3.44206 11.9324
H -4.72094 3.1565 10.3809
O 2.28359 8.96295 -9.2216
H 2.91977 8.63196 -9.91857
H 2.72119 8.91984 -8.32344
O -9.11054 -6.89529 3.02426
H -8.84523 -7.80088 2.69325
H -9.87785 -6.55364 2.48154
O -14.422 5.47574 8.7
H -13.8138 5.87769 9.38456
H -14.9402 6.20142 8.24737
O -9.71934 7.08796 10.366
H -9.4684 7.1577 11.3315
H -8.90787 6.86439 9.82599
O -6.80302 -11.3926 -13.3387
H -6.26206 -11.039 -14.1018
H -6.24485 -11.3986 -12.509
O -6.88246 -0.439886 8.55712
H -6.48959 0.0453043 7.77591
H -7.81246 -0.110628 8.7206
O -14.8386 -13.3051 6.58317
H -14.2172 -12.6466 7.00777
H -15.0211 -13.0303 5.63911
O -9.32103 -7.30947 -13.5611
H -8.56192 -6.88764 -14.0569
H -10.0848 -7.46246 -14.1882
O -6.11085 13.8756 8.64857
H -7.06854 13.8669 8.93631
H -5.95931 14.6365 8.01759
O 2.56004 4.31783 -9.93958
H 1.64133 4.5985 -10.2175
H 3.02164 3.87818 -10.7101
O 9.83488 -5.09978 3.83581
H 10.0875 -6.03541 4.08248
H 10.5275 -4.4658 4.17991
O 5.64222 -3.96867 -5.66086
H 5.38932 -3.38014 -6.4288
H 4.85341 -4.52037 -5.38984
O -14.6207 -1.02571 13.9964
H -14.4946 -1.95705 14.3381
H 14.5329 -0.824103 13.9308
O 8.90665 13.7641 9.5326
H 9.54619 13.7081 8.76586
H 8.23686 13.0248 9.46266
O -0.685057 7.84793 2.72311
H -0.954122 6.9625 3.10215
H -1.48731 8.30249 2.33605
O -10.7875 -14.7404 6.38713
H -11.4571 15.0586 7.05158
H -10.1757 -14.0846 6.82953
O 6.12528 -2.59936 10.7554
H 6.68213 -2.82438 9.9558
H 5.51578 -1.8382 10.5336
O 13.5144 -9.91353 4.60906
H 13.1863 -9.06089 5.01576
H 14.5087 -9.96642 4.70241
O -3.21316 -12.8999 12.3243
H -2.92682 -13.4277 13.124
H -2.95091 -11.9425 12.4455
O 11.6901 10.6157 -9.81291
H 12.3472 10.4927 -9.06918
H 10.7623 10.4861 -9.46282
O -2.84154 14.9876 0.726141
H -3.53096 14.3427 0.396142
H -1.94651 14.5417 0.737777
O 3.00415 -4.62549 -14.4712
H 2.36694 -3.96027 -14.082
H 2.88214 -4.66312 14.6678
O -12.6959 14.6589 8.4726
H -12.8209 14.3777 9.42413
H -13.2856 -14.6885 8.27633
O -14.4987 -3.9918 14.8655
H -13.6758 -4.5171 -15.0487
H 15.0152 -4.55179 14.3125
O 13.0227 -7.23742 -14.2119
H 13.1887 -6.90644 14.9899
H 12.1985 -7.80365 -14.2021
O 5.96073 9.40854 -12.4528
H 6.74335 9.0389 -11.9519
H 6.24403 9.65358 -13.3801
O -7.30194 -5.11874 0.14887
H -7.64716 -5.87637 -0.405098
H -7.13918 -5.43607 1.08314
O 4.97379 6.7989 -14.7171
H 4.47951 7.66673 -14.7682
H 4.40765 6.11989 -14.2497
O 3.19154 14.8296 -0.368102
H 3.41783 14.2245 -1.13149
H 3.86575 -14.5646 -0.31549
O -13.0513 1.22509 -4.8397
H -13.5664 2.03197 -5.12905
H -13.0763 0.536237 -5.56421
O -1.27561 -4.73231 -11.8021
H -1.49229 -4.21831 -10.9722
H -1.60706 -4.23043 -12.6011
O -3.80145 -7.41714 -1.80086
H -3.06318 -6.89362 -2.22622
H -3.41331 -8.17462 -1.27586
O 14.3625 3.10637 14.7576
H 14.3603 3.90167 -14.767
H 14.733 2.31613 -14.885
O -1.36852 -0.447255 13.2791
H -2.35483 -0.285221 13.2476
H -1.05123 -0.389221 14.2257
O 12.4885 -0.792581 2.5219
H 12.2444 -0.473649 1.60608
H 11.8206 -0.450728 3.18297
O 4.77025 -12.5081 7.49925
H 5.18278 -13.2544 6.97692
H 4.16103 -11.9825 6.90535
O 10.3061 0.0215563 10.1411
H 10.8549 -0.45044 9.45109
H 10.0269 -0.629147 10.8473
O -11.3563 14.11 -1.12711
H -12.1381 14.6798 -1.38038
H -11.3954 13.9061 -0.148872
O 11.8294 3.16512 4.83279
H 12.0093 4.14261 4.72238
H 10.9636 2.93337 4.38925
O -12.4548 10.5585 -13.458
H -12.7952 11.4421 -13.1363
H -11.4799 10.4807 -13.249
O 10.0617 -8.60968 -8.43607
H 9.07597 -8.58676 -8.26929
H 10.2403 -8.43112 -9.40368
O -14.5434 -0.090052 -13.3554
H -14.6452 -0.916015 -12.8009
H -13.5738 0.0685603 -13.5423
O -2.3166 7.33743 -8.42939
H -3.26787 7.56219 -8.64061
H -1.97965 7.95138 -7.71554
O 0.77266 -12.4825 -6.75177
H 0.401193 -12.7728 -7.63369
H 1.0312 -13.2875 -6.21772
O -2.08639 6.38574 -12.8594
H -2.85154 7.01465 -12.9974
H -1.52818 6.70316 -12.0928
O 11.5445 12.9925 -14.9226
H 10.6102 12.9859 14.8516
H 11.6223 13.6841 -14.2044
O -0.661299 -0.545484 8.21041
H -1.44078 -1.05542 8.5743
H -0.323078 -0.997741 7.38511
O -11.6397 -7.16697 14.8063
H -11.481 -6.39662 14.1887
H -12.2192 -6.8714 -14.5651
O -4.76477 -9.15911 4.87199
H -5.63489 -9.5996 5.09317
H -4.01235 -9.69969 5.2484
O -11.1683 10.4349 12.1343
H -11.5584 9.99781 11.3238
H -10.301 10.8704 11.8932
O 5.90526 5.14415 9.69888
H 4.98307 5.46358 9.91699
H 6.57475 5.68764 10.2053
O -4.81998 7.29824 -10.1055
H -5.03353 6.8116 -10.9527
H -5.38926 8.11774 -10.0393
O -4.516 7.77129 13.2989
H -3.81059 7.95179 12.6134
H -4.60616 6.78434 13.4325
O 9.00053 3.94095 -4.95976
H 9.2184 2.99366 -5.19478
H 8.01134 4.03799 -4.84959
O -9.63258 -2.5541 -2.03597
H -9.80893 -2.97227 -1.14486
H -10.4939 -2.23308 -2.42984
O 2.03145 12.7378 10.418
H 1.2484 13.0805 9.89899
H 2.84499 12.7433 9.83649
O 10.562 -11.3406 2.25027
H 11.1764 -10.5552 2.32656
H 10.1234 -11.5077 3.13328
O -8.33634 12.7847 12.5163
H -7.37884 12.6039 12.2915
H -8.43329 12.883 13.5068
O -10.4838 -9.28578 3.35848
H -10.5516 -10.2517 3.60853
H -10.8552 -8.72336 4.0973
O -9.84262 8.70919 6.50132
H -9.45143 9.4524 7.04414
H -10.0495 9.04164 5.58114
O -7.92941 -3.62158 -5.81473
H -8.50757 -3.07314 -5.21059
H -7.8233 -4.53928 -5.43183
O -13.5216 11 4.66005
H -13.5543 10.4885 5.51875
H -13.8986 10.4388 3.92323
O 0.680849 1.67336 12.2436
H -0.223678 1.28054 12.0776
H 0.838129 1.74336 13.2287
O -9.0645 5.06529 -2.63161
H -8.23115 4.5172 -2.55965
H -8.86333 6.01224 -2.38087
O 6.81405 8.60098 6.0304
H 7.42339 7.82303 5.87695
H 5.90822 8.39273 5.66141
O 11.3695 7.73454 6.53561
H 11.4109 8.46778 7.21435
H 10.9912 6.91063 6.95765
O 12.5358 -0.469123 14.3877
H 12.1326 -0.24264 13.5011
H 12.4793 0.325427 14.9923
O -4.58586 -6.96763 -6.27533
H -4.61238 -6.15088 -5.69891
H -3.94703 -6.82185 -7.03078
O -11.1622 8.9811 8.92295
H -11.0217 8.83739 7.94334
H -10.5659 8.36608 9.43897
O -7.53652 -11.2912 -3.70694
H -8.095 -12.0855 -3.94606
H -7.45891 -11.2256 -2.71209
O -13.3692 5.71053 -11.901
H -14.267 6.14855 -11.9466
H -13.4202 4.80176 -12.3153
O -7.49323 6.27889 9.26534
H -7.52555 5.62308 8.51108
H -6.65904 6.13401 9.79749
O 10.6783 -7.49378 -11.0163
H 11.5389 -7.05749 -10.7536
H 10.348 -7.09192 -11.8704
O 7.04082 -5.53341 4.74925
H 6.2909 -5.32803 4.12036
H 7.86025 -5.03585 4.46462
O 7.8543 10.3882 -2.09951
H 7.20441 11.1145 -1.87566
H 8.76616 10.7815 -2.21737
O 6.07169 10.7628 -8.08493
H 5.16765 11.0567 -7.77448
H 6.14597 10.9004 -9.07264
O 1.9979 -0.682685 11.0681
H 2.45846 -0.555961 11.9466
H 1.37996 0.0857771 10.9018
O 0.234082 -5.19247 -5.06851
H 0.618748 -5.92894 -5.62501
H -0.348985 -4.61362 -5.63862
O -13.3859 -3.26159 12.1077
H -14.1481 -3.04402 12.7175
H -12.7759 -2.47195 12.0419
O -0.0251976 -13.3833 7.77126
H 0.0638483 -13.1332 6.80713
H -0.588956 -14.2054 7.85165
O -14.8019 14.2442 -10.7479
H -14.6591 -14.903 -10.8574
H 14.7146 14.0804 -9.97603
O 13.1444 -6.45931 -10.1211
H 13.6734 -6.98449 -10.7877
H 13.1189 -5.49873 -10.398
O -8.77673 13.0756 -2.11177
H -8.68594 12.1313 -1.7954
H -9.58682 13.4897 -1.69672
O 6.11613 -2.62308 -10.917
H 7.00353 -3.01588 -11.1584
H 5.65048 -2.3163 -11.7471
O 1.45617 -13.2009 -2.72223
H 0.850433 -13.7039 -2.1057
H 1.47393 -12.2364 -2.45853
O -4.51974 14.986 13.7006
H -4.64164 14.0704 14.0838
H -4.75228 14.974 12.728
O -6.46646 9.22337 -1.30955
H -7.09599 8.56548 -1.72296
H -6.3754 10.0191 -1.9083
O -4.71701 -3.63124 -13.6299
H -4.83101 -2.95609 -12.9011
H -5.48594 -3.56794 -14.2662
O -2.68411 -6.2563 1.99099
H -2.81176 -5.64477 1.21011
H -3.53476 -6.75079 2.16965
O 4.30556 13.7877 4.85417
H 4.75579 12.9779 4.47787
H 3.78075 13.5304 5.66562
O 8.18157 -11.732 -7.4133
H 7.61252 -11.2215 -8.05794
H 8.22537 -11.239 -6.54438
O 2.15137 -6.52037 -9.43118
H 1.97442 -7.49947 -9.53165
H 1.91582 -6.05008 -10.2817
O 12.6033 -13.9117 10.8954
H 12.2769 -12.9976 11.1363
H 11.8319 -14.5479 10.8805
O 0.208857 7.33767 9.46335
H -0.746623 7.12796 9.25568
H 0.410723 7.07343 10.4065
O -13.0023 -13.1831 -13.862
H -13.3782 -12.3108 -14.1749
H -12.1729 -13.3934 -14.3796
O 6.99913 4.9064 -2.0187
H 6.7377 3.97917 -2.28694
H 6.75357 5.05814 -1.06124
O 7.24044 -6.73722 -11.5818
H 6.63919 -6.4437 -10.8386
H 8.03603 -6.13291 -11.6253
O -3.57294 -0.671679 8.39885
H -3.44491 0.286448 8.14263
H -4.08374 -0.721804 9.25712
O 0.89739 8.03761 -5.85981
H 0.520589 7.41715 -5.172
H 1.30251 7.505 -6.60295
O 2.76124 13.4012 7.05546
H 2.62487 14.2692 7.53295
H 1.87606 13.0384 6.76421
O 10.1956 -11.8787 5.05647
H 10.7976 -12.6741 4.98634
H 10.3642 -11.4084 5.92279
O 11.2638 8.32921 14.0865
H 12.2585 8.37882 14.1765
H 10.8525 9.15394 14.4746
O -12.5247 -2.2802 -11.9018
H -12.4592 -2.61984 -10.9635
H -12.2109 -1.33127 -11.9354
O 8.68408 -2.19297 -13.3669
H 8.40549 -1.25185 -13.1752
H 7.89391 -2.71598 -13.6865
O 13.4924 10.2817 3.15881
H 13.0414 10.0609 4.02363
H 13.5471 11.2749 3.05544
O 7.69173 -12.7981 4.3858
H 8.56031 -12.4407 4.72919
H 7.84122 -13.6958 3.97119
O -11.9892 6.66883 3.35805
H -12.5414 6.00356 2.85553
H -12.5779 7.40294 3.69646
O -1.4995 -7.73695 14.6703
H -1.39125 -7.40276 -14.5243
H -0.895224 -8.52021 14.524
O 0.0101403 1.92822 8.74168
H -0.856093 2.38699 8.54364
H -0.089088 0.945849 8.58312
O -0.820219 -0.023026 -13.5745
H -1.67547 0.481709 -13.6921
H -0.650327 -0.168446 -12.5998
O -15.0372 -12.6785 -1.94781
H 14.2307 -12.2698 -1.65074
H -14.9873 -12.6629 -2.94647
O -5.35655 14.2021 -6.23635
H -5.31334 -14.9458 -6.41541
H -4.92063 14.0038 -5.35847
O 4.10339 12.8758 12.4866
H 4.69687 13.6804 12.4639
H 3.30335 13.0354 11.9082
O 12.7981 12.7298 -3.48096
H 13.5489 13.3658 -3.65942
H 12.246 12.6254 -4.30816
O -7.1603 -14.653 -14.596
H -6.2975 -14.2421 -14.3014
H -6.98107 14.5823 -15.0033
O 10.6153 7.10073 11.756
H 10.0502 7.67866 11.1672
H 10.7538 7.55569 12.6357
O -7.11427 -5.22058 -8.82511
H -7.98878 -5.2762 -9.30698
H -7.22263 -5.574 -7.89591
O -9.48225 -3.57542 0.700526
H -8.50481 -3.78467 0.671227
H -10.0062 -4.42693 0.67929
O -6.67558 -6.69154 -14.1827
H -6.60978 -7.03219 -13.2448
H -6.80455 -5.69997 -14.1689
O 12.0899 -3.60701 5.38074
H 12.4293 -4.03764 4.54442
H 12.5866 -2.75405 5.54164
O 12.1508 9.103 1.02627
H 12.682 9.20939 0.185687
H 12.5877 9.61765 1.76404
O 8.26526 -5.49149 1.26616
H 8.01406 -4.66935 0.755247
H 9.02579 -5.2825 1.88095
O 6.29446 11.8835 -10.7848
H 6.00551 11.4366 -11.6314
H 5.48876 12.1904 -10.2781
O 6.21749 -2.77226 -14.0395
H 5.91675 -3.71599 -13.9018
H 5.45789 -2.14957 -13.8516
O -1.72351 9.17266 5.97422
H -1.82214 10.0873 6.36627
H -1.16384 9.22315 5.14701
O -7.3865 -10.1922 -9.84212
H -6.44036 -9.89562 -9.97216
H -7.52375 -11.0752 -10.2911
O -4.00801 10.894 6.41048
H -3.89738 11.6955 5.82277
H -4.10892 10.0763 5.8436
O 8.06342 7.49432 9.38944
H 7.57442 7.39014 8.52337
H 8.71455 6.74299 9.49705
O 3.21458 -5.18893 -4.7371
H 3.1217 -5.50408 -3.79259
H 2.30681 -5.06347 -5.13742
O 7.53427 0.371744 -12.8793
H 7.17145 1.18789 -12.4295
H 7.12994 0.285409 -13.7899
O -5.50195 4.59967 -11.3535
H -6.11697 4.39989 -10.5907
H -5.06091 3.75473 -11.6562
O 6.0541 -7.08872 7.39482
H 6.54534 -6.8236 6.5651
H 6.30455 -8.02371 7.64608
O -0.19331 -9.8006 -7.04529
H -1.15386 -9.67722 -7.29463
H -0.0898215 -10.6497 -6.52724
O -1.15331 -7.24542 -12.488
H -0.344053 -7.83289 -12.4945
H -0.927096 -6.37117 -12.0584
O -7.64072 0.156751 -6.9758
H -8.6041 0.391598 -7.10534
H -7.50405 -0.813165 -7.17737
O -7.35759 11.4986 5.28028
H -6.75729 10.7874 4.91441
H -7.68314 11.2266 6.18587
O 3.84571 6.86945 7.21895
H 3.45685 6.19034 6.59634
H 3.911 6.48043 8.13788
O 11.7816 -8.84398 2.52501
H 12.6785 -9.10322 2.8834
H 11.3553 -8.18148 3.14097
O -13.3677 7.99022 9.93519
H -12.6356 8.53146 9.52155
H -12.9797 7.37199 10.6188
O 11.8744 -14.7796 -9.70241
H 12.0688 -14.4694 -10.633