LAMMPS data file via write_data, version 15 May 2015, timestep = 18500000

2593 atoms
6 atom types
1728 bonds
4 bond types
864 angles
3 angle types
0 dihedrals
3 dihedral types
0 impropers
1 improper types

-1.4929248952412374e+01 1.4929248952412374e+01 xlo xhi
-1.4929248952412374e+01 1.4929248952412374e+01 ylo yhi
-1.4929248952412374e+01 1.4929248952412374e+01 zlo zhi

Masses

1 15.9994
2 1.00794
3 12.0107
4 1.00794
5 12.0107
6 12.0107

Bond Coeffs # harmonic

1 1000 1
2 469 1.4
3 367 1.08
4 469 0.7

Angle Coeffs # harmonic

1 100 109.47
2 35 120
3 63 120

Dihedral Coeffs # opls

1 0 7.25 0 0
2 0 7.25 0 0
3 0 7.25 0 0

Improper Coeffs # cvff

1 2.5 -1 2

Atoms # full

735 245 2 4.0999999999999998e-01 -8.1551809581008747e+00 -1.2119000972094989e+01 -1.3822883406254196e+01 -3 5 6
517 173 1 -8.1999999999999995e-01 -9.8663606925926715e+00 -1.3248370167862848e+01 -9.3055592844108936e+00 5 5 3
1296 432 2 4.0999999999999998e-01 -1.3287982190464723e+01 -9.5718743049208221e+00 -8.5417754751362480e+00 1 1 -2
2125 709 1 -8.1999999999999995e-01 -1.1088077211554150e+01 -1.3848872237730610e+01 -1.1873445044540144e+01 2 5 4
1294 432 1 -8.1999999999999995e-01 -1.3151485382161422e+01 -1.0034754271319191e+01 -9.4176142660933735e+00 1 1 -2
1198 400 1 -8.1999999999999995e-01 -1.0239747309930500e+01 -9.5316737782414691e+00 -9.6490036804173762e+00 3 -3 -1
456 152 2 4.0999999999999998e-01 -1.3928253078081244e+01 -1.0322067264316559e+01 -1.1178728029799757e+01 -1 -1 3
518 173 2 4.0999999999999998e-01 -9.9132558798004240e+00 -1.2376869047264806e+01 -8.8174307191680743e+00 5 5 3
733 245 1 -8.1999999999999995e-01 -8.8087431316372822e+00 -1.2866004842682052e+01 -1.3944639527769105e+01 -3 5 6
1387 463 1 -8.1999999999999995e-01 -1.1466926880917047e+01 -1.1302529160435302e+01 -1.3625670251186534e+01 0 -3 5
1389 463 2 4.0999999999999998e-01 -1.1490740335088834e+01 -1.1824879045860554e+01 -1.2773281645876555e+01 0 -3 5
1388 463 2 4.0999999999999998e-01 -1.0609265080404750e+01 -1.1486856033024507e+01 -1.4105693964021775e+01 0 -3 5
2127 709 2 4.0999999999999998e-01 -1.0820916499783420e+01 -1.3559375594345356e+01 -1.0954315195873328e+01 2 5 4
519 173 2 4.0999999999999998e-01 -9.3350533173829806e+00 -1.3903247749110198e+01 -8.7681295956482597e+00 5 5 3
454 152 1 -8.1999999999999995e-01 -1.4194348532141934e+01 -1.0188772599252230e+01 -1.2133405255031517e+01 -1 -1 3
1199 400 2 4.0999999999999998e-01 -9.5642872097096205e+00 -9.5681043978163309e+00 -1.0385488091189671e+01 3 -3 -1
2126 709 2 4.0999999999999998e-01 -1.0274243541232881e+01 -1.3920375900245254e+01 -1.2450112022688240e+01 2 5 4
455 152 2 4.0999999999999998e-01 -1.3374245586074737e+01 -1.0115849378037066e+01 -1.2700940432846037e+01 -1 -1 3
355 119 1 -8.1999999999999995e-01 -1.3531968512457370e+01 -5.9070406200449259e+00 -1.3044502509458916e+01 5 1 1
2505 835 2 4.0999999999999998e-01 -1.1439443982428193e+01 -9.0073546965682318e+00 -1.3313677462173910e+01 4 5 0
1295 432 2 4.0999999999999998e-01 -1.2172833309287338e+01 -1.0093872197976530e+01 -9.6144086159870561e+00 1 1 -2
2503 835 1 -8.1999999999999995e-01 -1.0893007754865154e+01 -8.2619704869490960e+00 -1.2931849433516165e+01 4 5 0
2504 835 2 4.0999999999999998e-01 -1.0027724678743958e+01 -8.6257835114459525e+00 -1.2587018849386142e+01 4 5 0
770 257 2 4.0999999999999998e-01 -1.1501653304649519e+01 -6.9394532466363241e+00 -1.1521804225619158e+01 5 -1 2
769 257 1 -8.1999999999999995e-01 -1.1592838521356640e+01 -6.1905581248506287e+00 -1.0865432240341882e+01 5 -1 2
1258 420 1 -8.1999999999999995e-01 -8.5053506785974768e+00 -9.0183991984559704e+00 -1.1714942836611616e+01 5 1 0
1200 400 2 4.0999999999999998e-01 -1.0344371326218862e+01 -8.5866765029613514e+00 -9.3391378980440933e+00 3 -3 -1
356 119 2 4.0999999999999998e-01 -1.2669517102069939e+01 -6.2957783245225425e+00 -1.3368606482722885e+01 5 1 1
734 245 2 4.0999999999999998e-01 -8.3546181509169806e+00 -1.3738724885530871e+01 -1.3765438372867944e+01 -3 5 6
291 97 2 4.0999999999999998e-01 -1.1325952994526700e+01 -7.7589936576293193e+00 -7.6401954239435641e+00 -2 4 1
229 77 1 -8.1999999999999995e-01 -1.2429827985646046e+01 -1.4825796918349317e+01 -9.3091872608478710e+00 -2 -8 -1
825 275 2 4.0999999999999998e-01 -1.0077724707879529e+01 -5.0027222370215192e+00 -1.1276341712595249e+01 -3 1 -3
289 97 1 -8.1999999999999995e-01 -1.0664945770310105e+01 -7.2833036674400793e+00 -8.2205154260106248e+00 -2 4 1
771 257 2 4.0999999999999998e-01 -1.1717648186852651e+01 -6.5657200333248689e+00 -9.9469231641592675e+00 5 -1 2
1896 632 2 4.0999999999999998e-01 -7.9116520644727837e+00 -1.2217370439200087e+01 -9.2189679449538353e+00 0 4 2
290 97 2 4.0999999999999998e-01 -1.0314208166507038e+01 -6.4809266434413839e+00 -7.7376520191941696e+00 -2 4 1
1259 420 2 4.0999999999999998e-01 -8.1299809696096403e+00 -9.7512582412625068e+00 -1.2282391530131168e+01 5 1 0
785 262 2 4.0999999999999998e-01 -1.3115670100456802e+01 -1.3359753218578234e+01 -8.5816339644406909e+00 -1 -2 2
2524 842 1 -8.1999999999999995e-01 -8.1993583202843894e+00 -5.5077007025035130e+00 -1.4031723256218276e+01 4 -5 -4
2525 842 2 4.0999999999999998e-01 -8.1387839741046051e+00 -5.6269795602402830e+00 -1.3040720670488533e+01 4 -5 -4
784 262 1 -8.1999999999999995e-01 -1.3457139175532960e+01 -1.2558807391651992e+01 -8.0898337153807383e+00 -1 -2 2
786 262 2 4.0999999999999998e-01 -1.3010879927038998e+01 -1.1736141243644113e+01 -8.4420494269028854e+00 -1 -2 2
2559 853 2 4.0999999999999998e-01 -1.0599367586461904e+01 -8.9426332506185879e+00 -1.4816346847352898e+01 8 2 3
882 294 2 4.0999999999999998e-01 -1.4631167447449849e+01 -7.1202357457851413e+00 -1.2292435219754129e+01 2 -2 -2
231 77 2 4.0999999999999998e-01 -1.1430542620371074e+01 -1.4788740365978416e+01 -9.3029915093339710e+00 -2 -8 -1
1260 420 2 4.0999999999999998e-01 -7.7703372650564262e+00 -8.6006346734155006e+00 -1.1180891417593688e+01 5 1 0
2483 828 2 4.0999999999999998e-01 -8.1530086578612568e+00 -7.6882731795668482e+00 -7.5724670154303952e+00 3 1 6
357 119 2 4.0999999999999998e-01 -1.3342254681238828e+01 -5.1538385845817825e+00 -1.2414678581865289e+01 5 1 1
2423 808 2 4.0999999999999998e-01 -1.4836606939858646e+01 -1.3659777948043395e+01 -9.7064934971836383e+00 4 -3 4
2373 791 2 4.0999999999999998e-01 -2.1075841984323667e+00 -1.1554096386734868e+01 -1.4215621990728302e+01 2 1 5
2101 701 1 -8.1999999999999995e-01 -1.0055546721426545e-01 -8.4047751559923398e+00 -1.3715150775679612e+01 -1 6 1
1700 567 2 4.0999999999999998e-01 -1.2592022697914267e+00 -9.0302406544533298e+00 -7.5707085657058775e+00 6 3 2
182 61 2 4.0999999999999998e-01 -4.1238329743946700e-01 -1.2777879317041355e+01 -9.5289808953021051e+00 -2 1 -1
2319 773 2 4.0999999999999998e-01 -9.9813177479704862e-01 -7.1329013700663957e+00 -1.1075319066832069e+01 1 2 3
1895 632 2 4.0999999999999998e-01 -6.6611613870837054e+00 -1.3224522106209472e+01 -9.5164562626620928e+00 0 4 2
2371 791 1 -8.1999999999999995e-01 -3.0443922569339890e+00 -1.1205209341782101e+01 -1.4241142864469884e+01 2 1 5
122 41 2 4.0999999999999998e-01 -3.2516618555981687e+00 -9.6115083196079674e+00 -1.0883738488674631e+01 3 -1 4
835 279 1 -8.1999999999999995e-01 -1.0587936004060889e+00 -1.4499250163978516e+01 -1.2405649933216704e+01 5 0 7
450 150 2 4.0999999999999998e-01 -1.9111373072657560e+00 -5.6522571639259862e+00 -8.7137123245896646e+00 6 3 0
2551 851 1 -8.1999999999999995e-01 -2.5736069376552528e-01 -9.2916938216059020e+00 -1.0902238634941774e+01 -1 -2 4
1083 361 2 4.0999999999999998e-01 -2.4466289369597085e+00 -1.1323668732782922e+01 -7.4969542917549346e+00 -1 -10 -2
449 150 2 4.0999999999999998e-01 -6.2824725064102616e-01 -6.5608904823854015e+00 -9.1554806615157780e+00 6 3 0
1699 567 1 -8.1999999999999995e-01 -1.0429266382897584e+00 -9.8476001052731519e+00 -8.1046853584579530e+00 6 3 2
302 101 2 4.0999999999999998e-01 -6.2688673506173274e+00 -1.1999025496589054e+01 -7.5819300466357404e+00 -1 4 7
1504 502 1 -8.1999999999999995e-01 -7.1568449521601467e+00 -1.0892492719606576e+01 -1.3047816858662728e+01 -1 1 7
448 150 1 -8.1999999999999995e-01 -1.6254962676931495e+00 -6.5353008521756628e+00 -9.0860372719244449e+00 6 3 0
1701 567 2 4.0999999999999998e-01 -7.0174768266262966e-01 -9.5770121362853313e+00 -9.0048863878880692e+00 6 3 2
2372 791 2 4.0999999999999998e-01 -3.2167074091397065e+00 -1.0652891330296939e+01 -1.3425523382908189e+01 2 1 5
2526 842 2 4.0999999999999998e-01 -7.2785825925115741e+00 -5.4754814166285986e+00 -1.4420460704583562e+01 4 -5 -4
836 279 2 4.0999999999999998e-01 -1.8348501292671244e+00 -1.4434557121313091e+01 -1.1778327134685560e+01 5 0 7
1450 484 1 -8.1999999999999995e-01 -3.9036138602470594e-01 -1.1535677558756653e+01 -1.3191427232056975e+01 3 -3 1
1894 632 1 -8.1999999999999995e-01 -6.9185334335300013e+00 -1.2278677871885142e+01 -9.3186655785350219e+00 0 4 2
1338 446 2 4.0999999999999998e-01 -4.5281805543843738e+00 -1.3899899185007863e+01 -1.4274160418084458e+01 7 3 -4
1012 338 1 -8.1999999999999995e-01 -4.4840654439757763e+00 -5.3738443130899878e+00 -1.2441699080833837e+01 3 3 6
162 54 2 4.0999999999999998e-01 -2.6975324671065817e+00 -1.2185350633442702e+01 -9.4247553724986268e+00 2 2 5
1336 446 1 -8.1999999999999995e-01 -5.1378118212743438e+00 -1.4001477709304734e+01 -1.3488021515108446e+01 7 3 -4
2482 828 1 -8.1999999999999995e-01 -7.1619537314874284e+00 -7.6475216291016315e+00 -7.6994798374731044e+00 3 1 6
1264 422 1 -8.1999999999999995e-01 -4.4983334845129104e+00 -7.9178966401682525e+00 -1.3223250972039107e+01 5 -4 -5
478 160 1 -8.1999999999999995e-01 -3.9494004559107374e+00 -9.0499289645519276e+00 -9.0141857322077819e+00 9 5 7
2102 701 2 4.0999999999999998e-01 -2.4587288179882272e-01 -9.3553530735767740e+00 -1.3989499659341428e+01 -1 6 1
1451 484 2 4.0999999999999998e-01 -5.6907776625461892e-01 -1.2501403859370175e+01 -1.3379618694577950e+01 3 -3 1
480 160 2 4.0999999999999998e-01 -3.3687434555474685e+00 -8.2359213702902014e+00 -9.0287429404874811e+00 9 5 7
1505 502 2 4.0999999999999998e-01 -6.4394257340959591e+00 -1.0617659738298830e+01 -1.3687941314654960e+01 -1 1 7
1610 537 2 4.0999999999999998e-01 -5.5929519261622946e+00 -8.8156186966897288e+00 -9.8758998069593424e+00 3 -1 4
121 41 1 -8.1999999999999995e-01 -3.3928682357317896e+00 -9.8601055448099366e+00 -1.1841988454621099e+01 3 -1 4
2318 773 2 4.0999999999999998e-01 -6.9914944446582439e-01 -6.9677237391949776e+00 -1.2672161758765538e+01 1 2 3
160 54 1 -8.1999999999999995e-01 -2.0822231437841410e+00 -1.2640115210866464e+01 -1.0068623724190573e+01 2 2 5
2553 851 2 4.0999999999999998e-01 -2.5954615468830156e-01 -9.2396933268259058e+00 -1.1900874706007059e+01 -1 -2 4
2317 773 1 -8.1999999999999995e-01 -7.5304313799222911e-01 -6.4860587561638656e+00 -1.1797474877597171e+01 1 2 3
1452 484 2 4.0999999999999998e-01 -6.7121667532290807e-01 -1.1320845529723906e+01 -1.2256039437266494e+01 3 -3 1
655 219 1 -8.1999999999999995e-01 -5.1716650641683959e+00 -1.2262984914408163e+01 -1.1328743062824564e+01 6 4 3
657 219 2 4.0999999999999998e-01 -5.8032009815655474e+00 -1.2121570045479263e+01 -1.0566413046150069e+01 6 4 3
1506 502 2 4.0999999999999998e-01 -6.7392730856984002e+00 -1.1236079328765957e+01 -1.2206648149506975e+01 -1 1 7
645 215 2 4.0999999999999998e-01 -1.0569827187203149e+00 -1.4440077784295353e+01 -1.4295354075524822e+01 0 2 5
2484 828 2 4.0999999999999998e-01 -6.9283431819138563e+00 -7.9881872316804232e+00 -8.6101696278767719e+00 3 1 6
1609 537 1 -8.1999999999999995e-01 -6.1224980678745684e+00 -8.4674362945714741e+00 -1.0649419512343657e+01 3 -1 4
1611 537 2 4.0999999999999998e-01 -5.5126826100314172e+00 -8.3068682772701266e+00 -1.1425516059043328e+01 3 -1 4
656 219 2 4.0999999999999998e-01 -4.4660506696911657e+00 -1.1554579800632458e+01 -1.1312825657128752e+01 6 4 3
759 253 2 4.0999999999999998e-01 -4.6294846332755171e+00 -1.4894169010602996e+01 -8.6159527974453809e+00 -2 1 2
1265 422 2 4.0999999999999998e-01 -4.4740482990228916e+00 -7.0456369373103263e+00 -1.2734828967461478e+01 5 -4 -5
1081 361 1 -8.1999999999999995e-01 -3.2039936951160826e+00 -1.1882818363311600e+01 -7.8341977305395547e+00 -1 -10 -2
123 41 2 4.0999999999999998e-01 -3.6203897640999347e+00 -9.0411238757498467e+00 -1.2368757677589237e+01 3 -1 4
1337 446 2 4.0999999999999998e-01 -4.9095184815305988e+00 -1.3314417896669930e+01 -1.2798228939102030e+01 7 3 -4
1266 422 2 4.0999999999999998e-01 -4.1511481987385022e+00 -7.7895123182739789e+00 -1.4152208813894561e+01 5 -4 -5
161 54 2 4.0999999999999998e-01 -2.1057860407510116e+00 -1.3627401831897368e+01 -9.9114844512897378e+00 2 2 5
479 160 2 4.0999999999999998e-01 -4.0550284662897855e+00 -9.3671922900762645e+00 -8.0717582516261466e+00 9 5 7
1014 338 2 4.0999999999999998e-01 -5.2847284952685296e+00 -4.9928050566091731e+00 -1.1979389030262913e+01 3 3 6
1583 528 2 4.0999999999999998e-01 -3.3970487630956043e+00 -1.3696183700701566e+01 -7.5844775183354161e+00 3 -7 2
1949 650 2 4.0999999999999998e-01 -4.5791185343564180e+00 -1.1069414988823144e+01 -1.4873750351098687e+01 1 0 0
918 306 2 4.0999999999999998e-01 -9.6793947604838895e+00 -1.3068919626272912e+01 -2.3113974791781668e+00 -1 1 7
916 306 1 -8.1999999999999995e-01 -9.7978287962517872e+00 -1.2583020602084822e+01 -1.4454538685487517e+00 -1 1 7
2282 761 2 4.0999999999999998e-01 -8.7578692345514337e+00 -1.1150935793109964e+01 -1.5693706522954933e+00 4 4 -2
1517 506 2 4.0999999999999998e-01 -1.0399773884339030e+01 -9.8200596208156163e+00 -5.2018175569177778e+00 4 5 2
573 191 2 4.0999999999999998e-01 -9.0566746754769927e+00 -8.1691108581818703e+00 -5.0440725932351782e-01 4 -3 5
2283 761 2 4.0999999999999998e-01 -8.3197585569481483e+00 -9.5779764466033779e+00 -1.5903139297843527e+00 4 4 -2
2281 761 1 -8.1999999999999995e-01 -7.9859110912575542e+00 -1.0519260925276487e+01 -1.6404361951884354e+00 4 4 -2
1518 506 2 4.0999999999999998e-01 -1.1770154539750308e+01 -9.5897850978963461e+00 -4.3441397807032924e+00 4 5 2
1516 506 1 -8.1999999999999995e-01 -1.1395451113921455e+01 -9.7462023481577660e+00 -5.2579854157877008e+00 4 5 2
1458 486 2 4.0999999999999998e-01 -1.2453086502136809e+01 -1.4266088218231957e+01 -4.5754467655221198e-01 0 -7 1
1456 486 1 -8.1999999999999995e-01 -1.1955106413363668e+01 -1.3401698712879114e+01 -3.8805054626310742e-01 0 -7 1
126 42 2 4.0999999999999998e-01 -1.4324944191998938e+01 -1.0045051606153036e+01 -9.0036745553032205e-02 2 0 -3
917 306 2 4.0999999999999998e-01 -1.0638394790326167e+01 -1.2893282062284632e+01 -1.0014161554535548e+00 -1 1 7
1938 646 2 4.0999999999999998e-01 -9.5889437896236149e+00 -1.0940170083217096e+01 -6.6825353058996217e+00 1 -2 2
1401 467 2 4.0999999999999998e-01 -7.8772248627947752e+00 -1.3279057431832868e+01 -4.5039904949071179e+00 -1 -3 1
2356 786 1 -8.1999999999999995e-01 -1.2486456645166927e+01 -8.4780537971059537e+00 -3.0109801408087087e+00 2 -2 3
1937 646 2 4.0999999999999998e-01 -1.0279713472750879e+01 -1.2346832284811363e+01 -6.2234935246468428e+00 1 -2 2
2056 686 1 -8.1999999999999995e-01 -1.4861125836435084e+01 -7.3696963766934358e+00 -3.8174803803079218e+00 1 0 3
44 15 2 4.0999999999999998e-01 -1.1323037235274565e+01 -6.6900639852573391e+00 -2.9688836983772458e+00 0 -1 3
386 129 2 4.0999999999999998e-01 -1.1036202819756207e+01 -1.4361976597983993e+01 -6.0918802354843695e+00 5 3 2
2357 786 2 4.0999999999999998e-01 -1.3300867216711840e+01 -8.0674425342221863e+00 -3.4210004484830812e+00 2 -2 3
1690 564 1 -8.1999999999999995e-01 -1.3515857135763071e+01 -1.2918096321565208e+01 -3.2184523425583489e+00 4 7 0
1553 518 2 4.0999999999999998e-01 -1.4207591779919314e+01 -1.4333307044723680e+01 -3.9322416998600680e+00 2 -5 6
2358 786 2 4.0999999999999998e-01 -1.2471893125367201e+01 -8.2818651125835547e+00 -2.0305308839162759e+00 2 -2 3
343 115 1 -8.1999999999999995e-01 -1.3550048002746523e+01 -6.1377987069254516e+00 -6.3620450234533727e+00 1 0 2
130 44 1 -8.1999999999999995e-01 -1.3758370623224906e+01 -8.6853280058732700e+00 -7.0879131263287043e+00 4 1 -1
131 44 2 4.0999999999999998e-01 -1.3628357995281611e+01 -7.8009671244613603e+00 -6.6395991496733693e+00 4 1 -1
1672 558 1 -8.1999999999999995e-01 -1.2062609050153828e+01 -1.3052572603402094e+01 -5.6200033359323704e+00 2 0 2
571 191 1 -8.1999999999999995e-01 -8.6955963933994429e+00 -7.7269394176258146e+00 -1.3254369380625661e+00 4 -3 5
1692 564 2 4.0999999999999998e-01 -1.2958057021154513e+01 -1.3062504148684043e+01 -2.4011468615384128e+00 4 7 0
132 44 2 4.0999999999999998e-01 -1.3374343768881122e+01 -9.4092197465569534e+00 -6.5147753196387832e+00 4 1 -1
1674 558 2 4.0999999999999998e-01 -1.2552164720697061e+01 -1.3011474028070431e+01 -4.7490102308055775e+00 2 0 2
1691 564 2 4.0999999999999998e-01 -1.4072214030579838e+01 -1.2095475811520243e+01 -3.1012118671951185e+00 4 7 0
124 42 1 -8.1999999999999995e-01 -1.4244780312658390e+01 -1.0798271857155783e+01 -7.4288880924126310e-01 2 0 -3
125 42 2 4.0999999999999998e-01 -1.4559440815658897e+01 -1.0494752622459639e+01 -1.6422483913089145e+00 2 0 -3
514 172 1 -8.1999999999999995e-01 -1.2103371537853272e+01 -7.8454855744847940e+00 -3.7270508275265968e-01 2 -1 0
2396 799 2 4.0999999999999998e-01 -1.2686988242214714e+01 -4.9929382116318397e+00 -2.6089102455538402e+00 2 2 3
1673 558 2 4.0999999999999998e-01 -1.2676347924231376e+01 -1.2778907102221797e+01 -6.3605535564901832e+00 2 0 2
45 15 2 4.0999999999999998e-01 -1.0874535420252007e+01 -5.7487167288503063e+00 -1.7121847900819329e+00 0 -1 3
572 191 2 4.0999999999999998e-01 -7.8960337097288926e+00 -7.1771776873169459e+00 -1.0836842251553627e+00 4 -3 5
1399 467 1 -8.1999999999999995e-01 -8.5260979215261230e+00 -1.2545404549558372e+01 -4.3022480299995589e+00 -1 -3 1
147 49 2 4.0999999999999998e-01 -8.2738442414751905e+00 -1.0328910272410523e+01 -4.3859944520395704e+00 -2 7 4
1400 467 2 4.0999999999999998e-01 -8.7042697667369406e+00 -1.2019910147527380e+01 -5.1341694458036802e+00 -1 -3 1
145 49 1 -8.1999999999999995e-01 -8.6207348712776621e+00 -9.7720918514353166e+00 -5.1407149148588651e+00 -2 7 4
146 49 2 4.0999999999999998e-01 -8.3639140701040269e+00 -8.8166200010421143e+00 -4.9954583700995752e+00 -2 7 4
360 120 2 4.0999999999999998e-01 -8.4265886104425718e+00 -7.1195943864894113e+00 -2.9182067444072235e+00 -2 0 5
358 120 1 -8.1999999999999995e-01 -8.2054904195588954e+00 -7.1187148697996570e+00 -3.8934491068973713e+00 -2 0 5
359 120 2 4.0999999999999998e-01 -8.4373258548209922e+00 -6.2291238088035072e+00 -4.2869753764242500e+00 -2 0 5
2058 686 2 4.0999999999999998e-01 -1.4740699971862496e+01 -6.6508389679500848e+00 -3.1328458075182990e+00 1 0 3
1936 646 1 -8.1999999999999995e-01 -9.6687112936743915e+00 -1.1915694589377994e+01 -6.8874057510037616e+00 1 -2 2
345 115 2 4.0999999999999998e-01 -1.3727405293997354e+01 -5.5095323748010046e+00 -5.6045434536346335e+00 1 0 2
344 115 2 4.0999999999999998e-01 -1.3431930922620431e+01 -5.6161992003663688e+00 -7.2070095988507559e+00 1 0 2
43 15 1 -8.1999999999999995e-01 -1.1036338524437630e+01 -5.7709263327448408e+00 -2.6987491935419623e+00 0 -1 3
515 172 2 4.0999999999999998e-01 -1.1488655926800133e+01 -8.5697045603919353e+00 -6.0272057963567605e-02 2 -1 0
2502 834 2 4.0999999999999998e-01 -6.2211130764084945e+00 -6.1153771126231025e+00 -7.1769000738657560e+00 5 4 8
531 177 2 4.0999999999999998e-01 -1.5897130635426233e+00 -1.4275912708997170e+01 -2.8648801413070366e+00 3 3 7
1871 624 2 4.0999999999999998e-01 -3.3755432101115250e+00 -5.1143128654732237e+00 -2.9667491119415210e+00 -2 1 3
1566 522 2 4.0999999999999998e-01 -1.6918879113786129e+00 -1.4077316527043326e+01 -4.2822349330604048e-01 1 2 6
1582 528 1 -8.1999999999999995e-01 -3.5735932995902733e+00 -1.4631492732869267e+01 -7.2778639481763436e+00 3 -7 2
530 177 2 4.0999999999999998e-01 -1.7079793871129461e+00 -1.3452865545943903e+01 -4.2702936419520441e+00 3 3 7
1362 454 2 4.0999999999999998e-01 -9.7653231562649268e-01 -7.8739190931079968e+00 -5.3806672012649930e+00 2 3 -1
1293 431 2 4.0999999999999998e-01 -8.6583704799793892e-01 -9.1406400511535502e+00 -2.6205569294689237e+00 -2 -1 2
1565 522 2 4.0999999999999998e-01 -6.4757189397247750e-01 -1.2922701720617827e+01 -9.2102099032124762e-01 1 2 6
529 177 1 -8.1999999999999995e-01 -1.4293195919455250e+00 -1.4316917160312499e+01 -3.8510725127067662e+00 3 3 7
1196 399 2 4.0999999999999998e-01 -4.0225018171823024e-01 -1.1146059147957835e+01 -6.9636858798575076e+00 4 4 3
303 101 2 4.0999999999999998e-01 -6.3780268699294904e+00 -1.0912002955118703e+01 -6.3682386237553690e+00 -1 4 7
1291 431 1 -8.1999999999999995e-01 -1.2174916294757754e+00 -9.2864646909569917e+00 -1.6958639803680438e+00 -2 -1 2
1209 403 2 4.0999999999999998e-01 -4.0850833884541728e+00 -8.5889404856354634e+00 -1.2711846784991234e+00 4 -6 -1
164 55 2 4.0999999999999998e-01 -2.6030625020752520e+00 -1.0823516594032039e+01 -5.2065151086679631e+00 7 6 2
1839 613 2 4.0999999999999998e-01 -4.1842746038801106e+00 -8.9486159184482403e+00 -5.3820034170991118e+00 -1 -3 4
1988 663 2 4.0999999999999998e-01 -3.0234888681306789e+00 -1.2905802326516584e+01 -2.2262480337295472e+00 0 4 3
659 220 2 4.0999999999999998e-01 -6.7476231236410200e+00 -7.9213045466068372e+00 -4.3619589960905270e+00 -10 2 1
841 281 1 -8.1999999999999995e-01 -5.2669187477590285e+00 -1.3731486660318176e+01 -5.0810340403745613e+00 -1 3 0
2393 798 2 4.0999999999999998e-01 -6.0231392211481598e+00 -5.3995703999419273e+00 -7.1782296814338942e-01 0 0 1
1207 403 1 -8.1999999999999995e-01 -3.7780451338872751e+00 -9.1698099187196753e+00 -2.0250421413620572e+00 4 -6 -1
1665 555 2 4.0999999999999998e-01 -6.4783204538983075e+00 -1.4505264626021839e+01 -1.4395920639411557e+00 1 3 2
2380 794 1 -8.1999999999999995e-01 -2.7255384283273987e+00 -6.7467533678517384e+00 -2.9766436492405166e+00 4 -4 6
1195 399 1 -8.1999999999999995e-01 -1.3476763029466277e-01 -1.1809122729233836e+01 -6.2645559818537855e+00 4 4 3
1584 528 2 4.0999999999999998e-01 -4.0407073969053258e+00 -1.4609914800399284e+01 -6.3939399454916064e+00 3 -7 2
660 220 2 4.0999999999999998e-01 -6.1192406151303782e+00 -8.0784927485678359e+00 -5.8609613171342385e+00 -10 2 1
2381 794 2 4.0999999999999998e-01 -1.7948264920602686e+00 -7.0776613038601770e+00 -3.1323938024722704e+00 4 -4 6
287 96 2 4.0999999999999998e-01 -3.1274937660701614e+00 -5.9137329315369254e+00 -4.7166411898718490e+00 2 -1 2
2501 834 2 4.0999999999999998e-01 -5.0587742603024370e+00 -5.1790442978448024e+00 -6.5144576131269680e+00 5 4 8
843 281 2 4.0999999999999998e-01 -5.3496938156922802e+00 -1.2931273948255027e+01 -5.6749959323166390e+00 -1 3 0
286 96 1 -8.1999999999999995e-01 -3.6479756397125662e+00 -5.7834320285487255e+00 -5.5605032102570533e+00 2 -1 2
658 220 1 -8.1999999999999995e-01 -6.0376026831352689e+00 -8.3671328195289689e+00 -4.9070195073711638e+00 -10 2 1
1292 431 2 4.0999999999999998e-01 -2.2129454725647566e+00 -9.3759947383484317e+00 -1.7280953125707530e+00 -2 -1 2
490 164 1 -8.1999999999999995e-01 -6.5637566234316420e+00 -1.3022143817633124e+01 -2.1560793902323869e+00 -2 -3 1
491 164 2 4.0999999999999998e-01 -5.6252205401276125e+00 -1.2682008568055878e+01 -2.0974203890522425e+00 -2 -3 1
492 164 2 4.0999999999999998e-01 -7.1304375846428654e+00 -1.2355034031708245e+01 -2.6396288354620641e+00 -2 -3 1
301 101 1 -8.1999999999999995e-01 -5.7845514944240275e+00 -1.1583405635897931e+01 -6.8120721957107513e+00 -1 4 7
1361 454 2 4.0999999999999998e-01 -1.1481414932416065e+00 -6.6487039504746424e+00 -6.4464902788218534e+00 2 3 -1
1360 454 1 -8.1999999999999995e-01 -1.3498211579414079e+00 -7.6122427325392019e+00 -6.2707030239862842e+00 2 3 -1
1987 663 1 -8.1999999999999995e-01 -3.8311243076885724e+00 -1.2538699461881382e+01 -2.6877058424099793e+00 0 4 3
165 55 2 4.0999999999999998e-01 -1.3448106099256609e+00 -1.1861107417411661e+01 -5.1241249552260282e+00 7 6 2
163 55 1 -8.1999999999999995e-01 -2.2598433900224215e+00 -1.1658075194216503e+01 -4.7755911957986434e+00 7 6 2
1989 663 2 4.0999999999999998e-01 -3.5446496076020289e+00 -1.1919205100000628e+01 -3.4185559027409180e+00 0 4 3
1208 403 2 4.0999999999999998e-01 -4.5304177899576441e+00 -9.7589934407493253e+00 -2.3196282946349136e+00 4 -6 -1
2382 794 2 4.0999999999999998e-01 -3.2714496856300492e+00 -7.4722100221143615e+00 -2.5575059616793769e+00 4 -4 6
1837 613 1 -8.1999999999999995e-01 -3.4983182587308796e+00 -9.2365088762806558e+00 -6.0502581549840464e+00 -1 -3 4
842 281 2 4.0999999999999998e-01 -4.8264219549553999e+00 -1.3465913451767404e+01 -4.2234698951606653e+00 -1 3 0
2500 834 1 -8.1999999999999995e-01 -5.9953351258244094e+00 -5.1925969305433490e+00 -6.8646759820203123e+00 5 4 8
288 96 2 4.0999999999999998e-01 -3.0353561987894935e+00 -5.4659913280510857e+00 -6.2843206182994553e+00 2 -1 2
1838 613 2 4.0999999999999998e-01 -2.7705717778366665e+00 -8.5522556739461510e+00 -6.0967925975058943e+00 -1 -3 4
1564 522 1 -8.1999999999999995e-01 -1.2599520106069999e+00 -1.3652887816985830e+01 -1.2240089471041209e+00 1 2 6
1082 361 2 4.0999999999999998e-01 -4.0570065187408115e+00 -1.1579767845900793e+01 -7.4093302973575508e+00 -1 -10 -2
1811 604 2 4.0999999999999998e-01 -1.2225968084038453e+01 -9.0839025137698801e+00 4.8956519848075235e+00 0 -3 3
2586 862 2 4.0999999999999998e-01 -9.2726265637369174e+00 -8.7124250716686866e+00 1.9452349999798368e+00 -2 6 2
889 297 1 -8.1999999999999995e-01 -1.0107496075397705e+01 -1.0850716964561679e+01 7.3626460429990122e+00 -4 3 4
890 297 2 4.0999999999999998e-01 -1.0870891785957760e+01 -1.1274120419997171e+01 6.8748557703035846e+00 -4 3 4
1812 604 2 4.0999999999999998e-01 -1.2517739634456655e+01 -1.0136140289964265e+01 6.1098371972595995e+00 0 -3 3
1415 472 2 4.0999999999999998e-01 -8.9668191505269874e+00 -1.3865761247211912e+01 1.7066326049325209e+00 -2 2 0
1845 615 2 4.0999999999999998e-01 -1.3526621226880337e+01 -1.2460446412631383e+01 1.9408712749419212e+00 -1 -5 -1
553 185 1 -8.1999999999999995e-01 -8.2514933635662242e+00 -1.3182835424005741e+01 4.9377780178118993e+00 0 3 -2
2208 736 2 4.0999999999999998e-01 -7.7287280090991048e+00 -1.2886224186068860e+01 6.6074159182535812e+00 2 0 2
2261 754 2 4.0999999999999998e-01 -1.2474715453145812e+01 -1.2773566686364255e+01 5.8399961949605608e+00 4 -2 1
1810 604 1 -8.1999999999999995e-01 -1.2475886669480985e+01 -9.1687176835427522e+00 5.8601880965564934e+00 0 -3 3
226 76 1 -8.1999999999999995e-01 -8.5335228289866816e+00 -1.2060325377033788e+01 1.3106352452075409e+00 -9 -2 1
2260 754 1 -8.1999999999999995e-01 -1.2349699425704241e+01 -1.2001140248367912e+01 6.4626608065412992e+00 4 -2 1
227 76 2 4.0999999999999998e-01 -8.4715525796184785e+00 -1.1714034851712951e+01 3.7456613652668658e-01 -9 -2 1
297 99 2 4.0999999999999998e-01 -1.0128852951759459e+01 -6.7149193254053046e+00 5.5486291259112495e+00 0 -2 -1
810 270 2 4.0999999999999998e-01 -8.5343732946064286e+00 -8.2250916485648524e+00 4.3256830378814168e+00 3 0 4
808 270 1 -8.1999999999999995e-01 -8.2722750973052381e+00 -8.4050402449303263e+00 3.3775765709109233e+00 3 0 4
16 6 1 -8.1999999999999995e-01 -1.1870890459367015e+01 -1.0586777933551172e+01 1.0043647253740016e+00 1 -1 2
1202 401 2 4.0999999999999998e-01 -8.1746782805644287e+00 -6.4125095270203456e+00 2.7738176315382983e+00 3 -3 0
1251 417 2 4.0999999999999998e-01 -1.1741518748914054e+01 -8.3663100213079353e+00 7.2459528868933791e+00 3 0 -2
18 6 2 4.0999999999999998e-01 -1.2440662616877505e+01 -1.0996365678099085e+01 2.9191795580973690e-01 1 -1 2
2146 716 1 -8.1999999999999995e-01 -1.3155415261447278e+01 -1.4060796228487671e+01 4.6477602193374761e+00 5 2 5
1844 615 2 4.0999999999999998e-01 -1.2737974028600217e+01 -1.3317994936669999e+01 3.0850857855682516e+00 -1 -5 -1
295 99 1 -8.1999999999999995e-01 -1.0605326315137848e+01 -6.2624609951571859e+00 4.7948138828629734e+00 0 -2 -1
2577 859 2 4.0999999999999998e-01 -1.2927623268955909e+01 -7.5760894504787109e+00 3.2724881190283615e+00 3 3 5
296 99 2 4.0999999999999998e-01 -1.0890728256448529e+01 -6.9458459737888090e+00 4.1228663220571047e+00 0 -2 -1
1843 615 1 -8.1999999999999995e-01 -1.2672847007731276e+01 -1.2930009368864933e+01 2.1657335563411575e+00 -1 -5 -1
17 6 2 4.0999999999999998e-01 -1.1615591713134203e+01 -1.1287296533338841e+01 1.6707572997315427e+00 1 -1 2
2575 859 1 -8.1999999999999995e-01 -1.2237226692740444e+01 -8.2989962739197729e+00 3.2452647951742382e+00 3 3 5
2576 859 2 4.0999999999999998e-01 -1.2629420405560271e+01 -9.1189140765471901e+00 2.8282495516606101e+00 3 3 5
1478 493 2 4.0999999999999998e-01 -9.4009496930733611e+00 -9.0984351841253321e+00 6.3642303576961918e+00 2 0 9
2267 756 2 4.0999999999999998e-01 -1.0265637241893609e+01 -6.3676031648901450e+00 9.9364641508371321e-02 2 2 2
924 308 2 4.0999999999999998e-01 -1.4117417151483577e+01 -8.3181073631352280e+00 5.5390016972091107e+00 5 -3 -1
1477 493 1 -8.1999999999999995e-01 -9.0476978769463408e+00 -8.2556241367282226e+00 5.9581940050011308e+00 2 0 9
555 185 2 4.0999999999999998e-01 -7.6667311065183332e+00 -1.2734586106462398e+01 4.2616800317849748e+00 0 3 -2
554 185 2 4.0999999999999998e-01 -9.1357610483046923e+00 -1.3397966885018462e+01 4.5233242343249120e+00 0 3 -2
2585 862 2 4.0999999999999998e-01 -1.0125724994899684e+01 -9.7722193341902113e+00 1.0421071787999825e+00 -2 6 2
2584 862 1 -8.1999999999999995e-01 -9.5769473178465603e+00 -8.9365691493629793e+00 1.0194212275278378e+00 -2 6 2
1479 493 2 4.0999999999999998e-01 -8.3059589068921227e+00 -7.8977715891257132e+00 6.5254220853468912e+00 2 0 9
1201 401 1 -8.1999999999999995e-01 -8.0334190491367430e+00 -5.4743977984277308e+00 3.0900059432501212e+00 3 -3 0
1203 401 2 4.0999999999999998e-01 -8.8929314102903199e+00 -5.1107121592732838e+00 3.4491077259428256e+00 3 -3 0
2147 716 2 4.0999999999999998e-01 -1.4021796141740683e+01 -1.4490045958378607e+01 4.9029300913348290e+00 5 2 5
1693 565 1 -8.1999999999999995e-01 -1.4076103617887792e+01 -6.1687990889211104e+00 7.4640057345233135e+00 2 -1 4
516 172 2 4.0999999999999998e-01 -1.2854946518475257e+01 -7.7421343030143372e+00 2.7878275026998445e-01 2 -1 0
228 76 2 4.0999999999999998e-01 -8.0602809894462712e+00 -1.1433736638791983e+01 1.9298375787514583e+00 -9 -2 1