LAMMPS data file via write_data, version 15 May 2015, timestep = 1009000

2593 atoms
6 atom types
1728 bonds
4 bond types
864 angles
3 angle types
0 dihedrals
3 dihedral types
0 impropers
1 improper types

-1.4998958306178526e+01 1.4998958306178526e+01 xlo xhi
-1.4998958306178526e+01 1.4998958306178526e+01 ylo yhi
-1.4998958306178526e+01 1.4998958306178526e+01 zlo zhi

Masses

1 15.9994
2 1.00794
3 12.0107
4 1.00794
5 12.0107
6 12.0107

Bond Coeffs # harmonic

1 1000 1
2 469 1.4
3 367 1.08
4 469 0.7

Angle Coeffs # harmonic

1 100 109.47
2 35 120
3 63 120

Dihedral Coeffs # opls

1 0 7.25 0 0
2 0 7.25 0 0
3 0 7.25 0 0

Improper Coeffs # cvff

1 2.5 -1 2

Atoms # full

920 307 2 4.0999999999999998e-01 -1.0796937479656478e+01 -1.2892936686350597e+01 -1.2587518423042097e+01 0 -1 2
919 307 1 -8.1999999999999995e-01 -1.0363580335077254e+01 -1.3541900249904961e+01 -1.3212804533422693e+01 0 -1 2
921 307 2 4.0999999999999998e-01 -1.0948277831344750e+01 -1.3674876343558640e+01 -1.4013042531711106e+01 0 -1 2
4 2 1 -8.1999999999999995e-01 -1.1761976060105848e+01 -1.3327048709459056e+01 -8.7436347557988725e+00 -1 2 0
1387 463 1 -8.1999999999999995e-01 -8.9060265402598375e+00 -8.2768968661524216e+00 -1.1737477099000575e+01 0 0 -2
832 278 1 -8.1999999999999995e-01 -1.3710694493849203e+01 -1.1851562860345703e+01 -1.2177385184586132e+01 0 1 0
686 229 2 4.0999999999999998e-01 -9.3110658486831461e+00 -8.9615579504978822e+00 -1.3343629669798661e+01 0 1 1
1388 463 2 4.0999999999999998e-01 -8.1325763578766619e+00 -8.7596525361861417e+00 -1.1326799103771041e+01 0 0 -2
1939 647 1 -8.1999999999999995e-01 -1.4295615936160248e+01 -1.0291325752581923e+01 -8.5422668230754777e+00 2 1 1
833 278 2 4.0999999999999998e-01 -1.3171204946339682e+01 -1.2037553655967367e+01 -1.1356231530381212e+01 0 1 0
1389 463 2 4.0999999999999998e-01 -8.8897333782475894e+00 -7.3183888961436221e+00 -1.1452991920009669e+01 0 0 -2
1414 472 1 -8.1999999999999995e-01 -7.7782474912084538e+00 -1.2680991220536200e+01 -1.0673219271020375e+01 0 2 1
2152 718 1 -8.1999999999999995e-01 -1.0694601125228884e+01 -1.2039598350558386e+01 -1.0918928841539335e+01 -1 2 2
307 103 1 -8.1999999999999995e-01 -1.1325505812368807e+01 -9.2200212481618422e+00 -1.0976132897509473e+01 0 -1 0
309 103 2 4.0999999999999998e-01 -1.0560561857379902e+01 -8.8912576584691898e+00 -1.1529947106453333e+01 0 -1 0
1416 472 2 4.0999999999999998e-01 -8.7672432046067605e+00 -1.2662064299229737e+01 -1.0819725313787979e+01 0 2 1
685 229 1 -8.1999999999999995e-01 -9.7506226376295508e+00 -9.4996676992661531e+00 -1.4062769890395881e+01 0 1 1
1643 548 2 4.0999999999999998e-01 -1.3105923473108092e+01 -9.7766283257223598e+00 -1.4383498700965552e+01 -2 2 0
2154 718 2 4.0999999999999998e-01 -1.0770185409140877e+01 -1.1042826175335858e+01 -1.0893099966565337e+01 -1 2 2
487 163 1 -8.1999999999999995e-01 -7.1367257174863630e+00 -1.1226586536788856e+01 -8.6753776389512964e+00 -1 -2 1
489 163 2 4.0999999999999998e-01 -7.8761184950734737e+00 -1.1107132725767540e+01 -8.0128340546603916e+00 -1 -2 1
308 103 2 4.0999999999999998e-01 -1.2127722633170672e+01 -8.6465248985048095e+00 -1.1141918895072397e+01 0 -1 0
1350 450 2 4.0999999999999998e-01 -1.1134714278010621e+01 -1.0419064281224689e+01 -1.4159669671102392e+01 2 0 2
1348 450 1 -8.1999999999999995e-01 -1.1978402527875959e+01 -1.0919472215974864e+01 -1.3965461100999185e+01 2 0 2
5 2 2 4.0999999999999998e-01 -1.2685268300444161e+01 -1.3478843432828803e+01 -9.0963734951308695e+00 -1 2 0
562 188 1 -8.1999999999999995e-01 -1.3604390588170832e+01 -7.7829194095756709e+00 -1.0799769877050839e+01 2 0 1
887 296 2 4.0999999999999998e-01 -1.0406977724722154e+01 -6.1333531777841337e+00 -8.2158045749196855e+00 -2 1 -3
1480 494 1 -8.1999999999999995e-01 -1.4816719418812276e+00 -1.3601077578433282e+01 -7.7808917198092704e+00 -1 0 3
834 278 2 4.0999999999999998e-01 -1.3108013818502734e+01 -1.1524162033083019e+01 -1.2905066182078837e+01 0 1 0
687 229 2 4.0999999999999998e-01 -9.9473668002499114e+00 -8.9107722246471539e+00 -1.4846624963798847e+01 0 1 1
564 188 2 4.0999999999999998e-01 -1.3662084260499119e+01 -6.8872767692288637e+00 -1.0358827006496945e+01 2 0 1
886 296 1 -8.1999999999999995e-01 -9.4823711864189377e+00 -6.4536877021409182e+00 -8.4217740727859454e+00 -2 1 -3
1297 433 1 -8.1999999999999995e-01 -1.3641203735417688e+01 -7.5219878340346771e+00 -7.7634922526470076e+00 2 -1 2
525 175 2 4.0999999999999998e-01 -8.3468975490368802e+00 -1.4097941386233034e+01 -7.5839250062097605e+00 0 0 0
2153 718 2 4.0999999999999998e-01 -1.0962930437047842e+01 -1.2417279125303303e+01 -1.0032762098141660e+01 -1 2 2
1349 450 2 4.0999999999999998e-01 -1.1989753290188926e+01 -1.1770255916071095e+01 -1.4490792503758446e+01 2 0 2
563 188 2 4.0999999999999998e-01 -1.4024216112128409e+01 -8.4725522777806646e+00 -1.0209780129659503e+01 2 0 1
1467 489 2 4.0999999999999998e-01 -6.4699007255387588e+00 -6.0253546960258237e+00 -8.0102464720564335e+00 2 2 1
2515 839 1 -8.1999999999999995e-01 -1.1989407139497921e+01 -5.1493152486020737e+00 -8.2073177485330273e+00 1 1 -1
1693 565 1 -8.1999999999999995e-01 -4.9516038883426372e+00 -9.1069167157576771e+00 -7.6178759736338808e+00 -1 2 0
533 178 2 4.0999999999999998e-01 -3.3185701125159639e+00 -5.5309990511229170e+00 -1.4797403746883061e+01 -2 -2 0
464 155 2 4.0999999999999998e-01 -1.0605865818586320e+01 -9.3245795097352548e+00 -9.3123376304807781e+00 0 1 1
1880 627 2 4.0999999999999998e-01 -5.1165687226735184e+00 -1.4063577189791413e+01 -1.0125377765378069e+01 1 3 -1
463 155 1 -8.1999999999999995e-01 -1.0151867248369628e+01 -9.4394687477172443e+00 -8.4288102260315867e+00 0 1 1
912 304 2 4.0999999999999998e-01 -8.0995669257328551e-01 -1.3422387617705660e+01 -1.1261490632565886e+01 -2 1 0
465 155 2 4.0999999999999998e-01 -9.3316501199921653e+00 -8.8682626350894065e+00 -8.3987719845112103e+00 0 1 1
888 296 2 4.0999999999999998e-01 -9.2982853091856761e+00 -6.3354141178328156e+00 -9.3975089952539328e+00 -2 1 -3
1415 472 2 4.0999999999999998e-01 -7.5382525995329175e+00 -1.2048644576632380e+01 -9.9366902205756720e+00 0 2 1
694 232 1 -8.1999999999999995e-01 -8.8166092734792887e+00 -5.4999940102252953e+00 -1.1161511866969159e+01 1 3 2
1394 465 2 4.0999999999999998e-01 -6.7592648457138509e+00 -9.5273521579448897e+00 -9.7442335718761548e+00 2 1 1
2546 849 2 4.0999999999999998e-01 -1.4741543807408469e+01 -6.9421666036799028e+00 -1.4565225556092685e+01 3 1 1
6 2 2 4.0999999999999998e-01 -1.1695962152319581e+01 -1.3691418576726926e+01 -7.8147582273480589e+00 -1 2 0
1466 489 2 4.0999999999999998e-01 -7.8275149836591034e+00 -6.9126375267001716e+00 -8.2001559952013814e+00 2 2 1
2069 690 2 4.0999999999999998e-01 -1.4910477990171220e+01 -1.0612701487950261e+01 -1.1982553217859239e+01 2 2 0
1959 653 2 4.0999999999999998e-01 -4.0185163508728472e-01 -6.8130112835738590e+00 -1.2203021432229669e+01 -2 2 -1
1998 666 2 4.0999999999999998e-01 -1.3006969240247450e+00 -8.1619968019992548e+00 -1.3736279231430036e+01 0 2 1
488 163 2 4.0999999999999998e-01 -6.2564571445895840e+00 -1.1192528308957083e+01 -8.2021946702338511e+00 -1 -2 1
1469 490 2 4.0999999999999998e-01 -6.5655058464600735e+00 -1.4487705296367084e+01 -1.2437907135701513e+01 0 2 2
725 242 2 4.0999999999999998e-01 -4.1589718760486321e+00 -1.3731622356752665e+01 -1.4494782162465459e+01 1 2 0
1997 666 2 4.0999999999999998e-01 -1.6478847892792992e+00 -9.7472696096311964e+00 -1.3917452062230611e+01 0 2 1
785 262 2 4.0999999999999998e-01 -4.0568943820960062e+00 -1.1204971609177719e+01 -7.7581437739645063e+00 0 3 0
828 276 2 4.0999999999999998e-01 -6.1217022181717589e+00 -8.9198798564014297e+00 -1.3760095326891024e+01 1 1 0
1069 357 1 -8.1999999999999995e-01 -2.3484905064141017e+00 -1.1209070401431621e+01 -1.3419241155159055e+01 -1 1 0
726 242 2 4.0999999999999998e-01 -2.8110913684035843e+00 -1.4593628942494801e+01 -1.4168261573421837e+01 1 2 0
1812 604 2 4.0999999999999998e-01 -2.5957337969037511e+00 -7.2563904532627346e+00 -8.8475340319364761e+00 2 0 -1
1881 627 2 4.0999999999999998e-01 -6.2288855869277882e+00 -1.2954511004374263e+01 -1.0571669489361295e+01 1 3 -1
523 175 1 -8.1999999999999995e-01 -8.3211598965873321e+00 -1.4448278292560500e+01 -8.5201602711568327e+00 0 0 0
1393 465 1 -8.1999999999999995e-01 -6.6056395026548884e+00 -9.3412387541811341e+00 -1.0714643777002863e+01 2 1 1
1879 627 1 -8.1999999999999995e-01 -5.2681535200428833e+00 -1.3097425519862174e+01 -1.0333963295134819e+01 1 3 -1
786 262 2 4.0999999999999998e-01 -4.3340865651121394e+00 -1.2210153669743873e+01 -9.0148163229445171e+00 0 3 0
1070 357 2 4.0999999999999998e-01 -2.0305973026148809e+00 -1.1717345190872233e+01 -1.4219575798933963e+01 -1 1 0
1605 535 2 4.0999999999999998e-01 -3.6524651628685234e+00 -9.9221741400748584e+00 -1.2378200077732181e+01 -2 3 -2
1105 369 1 -8.1999999999999995e-01 -5.3052098208858798e+00 -1.2467954617945164e+01 -1.3291467010315698e+01 -1 2 0
2104 702 1 -8.1999999999999995e-01 -1.0467497399237953e+00 -1.4172753153247072e+01 -1.4355821965182747e+01 1 1 1
1106 369 2 4.0999999999999998e-01 -5.0892205300673030e+00 -1.2530118143454610e+01 -1.2317085556991895e+01 -1 2 0
724 242 1 -8.1999999999999995e-01 -3.7942251044933482e+00 -1.4650078825078900e+01 -1.4342032659710265e+01 1 2 0
1811 604 2 4.0999999999999998e-01 -3.5900038426086418e+00 -6.7749999686332316e+00 -1.0050090974943474e+01 2 0 -1
1999 667 1 -8.1999999999999995e-01 -1.8522356413552430e+00 -1.1929581963191342e+01 -1.0898906269457834e+01 0 1 -1
2542 848 1 -8.1999999999999995e-01 -5.9478833662375408e+00 -6.9162808568411087e+00 -1.4011221903204717e+01 1 2 -1
1005 335 2 4.0999999999999998e-01 -2.2264967294014717e+00 -9.2992196297913949e+00 -7.9845153296030604e+00 1 0 0
1395 465 2 4.0999999999999998e-01 -5.6271864759020218e+00 -9.3956853106679983e+00 -1.0913641688263311e+01 2 1 1
2000 667 2 4.0999999999999998e-01 -1.2299288061547777e+00 -1.1265644213474056e+01 -1.0484351470418572e+01 0 1 -1
2517 839 2 4.0999999999999998e-01 -1.2746093699825895e+01 -5.7676861111589393e+00 -7.9952382268078299e+00 1 1 -1
1465 489 1 -8.1999999999999995e-01 -6.8410434244100742e+00 -6.8848861204484670e+00 -8.3615209547679150e+00 2 2 1
1071 357 2 4.0999999999999998e-01 -2.2201604598338474e+00 -1.1765573171963990e+01 -1.2598405606546420e+01 -1 1 0
2543 848 2 4.0999999999999998e-01 -6.3776575894910437e+00 -6.6134895792661421e+00 -1.4861837151523389e+01 1 2 -1
375 125 2 4.0999999999999998e-01 -6.2659083902073895e+00 -5.6948191430305179e+00 -1.3039856916791150e+01 0 2 -1
784 262 1 -8.1999999999999995e-01 -3.6486014384178329e+00 -1.1890764297817412e+01 -8.3605722609120612e+00 0 3 0
1107 369 2 4.0999999999999998e-01 -5.7064738568317246e+00 -1.1573250536339735e+01 -1.3487493840095420e+01 -1 2 0
2001 667 2 4.0999999999999998e-01 -2.5570783026764108e+00 -1.2184279972762001e+01 -1.0236893680369443e+01 0 1 -1
1996 666 1 -8.1999999999999995e-01 -1.0947046487415921e+00 -8.9881985423321460e+00 -1.4260581392708781e+01 0 2 1
1276 426 1 -8.1999999999999995e-01 -5.2270965845533865e+00 -6.4451929301459447e+00 -1.0394388799713886e+01 0 0 1
1277 426 2 4.0999999999999998e-01 -5.5776653867439627e+00 -5.9289736428690745e+00 -1.1175768307534600e+01 0 0 1
1810 604 1 -8.1999999999999995e-01 -2.6401193953646995e+00 -6.9673091633434261e+00 -9.8037750305781959e+00 2 0 -1
826 276 1 -8.1999999999999995e-01 -6.0999812574938979e+00 -9.9097942613250183e+00 -1.3620336236694431e+01 1 1 0
1958 653 2 4.0999999999999998e-01 -1.8263592617424376e+00 -6.9425064994033043e+00 -1.1415327385487409e+01 -2 2 -1
695 232 2 4.0999999999999998e-01 -7.8441043512843676e+00 -5.3269399634069465e+00 -1.1317143694549742e+01 1 3 2
827 276 2 4.0999999999999998e-01 -5.8296208070914055e+00 -1.0107526458207916e+01 -1.2678135634439524e+01 1 1 0
2186 729 2 4.0999999999999998e-01 -8.4734930228284711e-01 -6.6376683279100543e+00 -9.5376209558791842e+00 -1 0 2
1604 535 2 4.0999999999999998e-01 -3.3516625744806738e+00 -9.0209886647681863e+00 -1.1050105398408725e+01 -2 3 -2
534 178 2 4.0999999999999998e-01 -2.6196419944730138e+00 -6.4816851530033812e+00 -1.3668621939244440e+01 -2 -2 0
1957 653 1 -8.1999999999999995e-01 -1.3845125895892849e+00 -6.9626851938352452e+00 -1.2312154692588750e+01 -2 2 -1
1603 535 1 -8.1999999999999995e-01 -4.0408938800696106e+00 -9.5647089077294183e+00 -1.1528920001702557e+01 -2 3 -2
1278 426 2 4.0999999999999998e-01 -5.9499787759609610e+00 -7.0336172886778225e+00 -1.0032265957996572e+01 0 0 1
532 178 1 -8.1999999999999995e-01 -3.3884259506671643e+00 -6.3970722253657666e+00 -1.4302456938826872e+01 -2 -2 0
524 175 2 4.0999999999999998e-01 -8.1511258872179706e+00 -1.3693656229261364e+01 -9.1538549021742934e+00 0 0 0
2287 763 1 -8.1999999999999995e-01 -1.4215039036792195e+01 -1.4074687551335817e+01 -8.9763895596991503e+00 1 0 1
1694 565 2 4.0999999999999998e-01 -5.3065037162500950e+00 -8.3148832685676997e+00 -8.1145288017169293e+00 -1 2 0
1642 548 1 -8.1999999999999995e-01 -1.3784406643257668e+01 -9.1902743642201727e+00 -1.4825974175716597e+01 -2 2 0
1941 647 2 4.0999999999999998e-01 -1.4342267681194924e+01 -1.1057740711369675e+01 -7.9016681634884174e+00 2 1 1
2288 763 2 4.0999999999999998e-01 -1.4573686740723728e+01 -1.4126248126496057e+01 -8.0443766493738487e+00 1 0 1
67 23 1 -8.1999999999999995e-01 -2.4959957104383612e-01 -1.0643654148012526e+01 -8.7514926874009369e+00 -1 0 3
2106 702 2 4.0999999999999998e-01 -6.2461254652403753e-01 -1.4229795056419016e+01 -1.3451122400622904e+01 1 1 1
1298 433 2 4.0999999999999998e-01 -1.3596843119176988e+01 -8.5073778714741835e+00 -7.5992564550759907e+00 2 -1 2
2544 848 2 4.0999999999999998e-01 -4.9624617360264622e+00 -6.7532731351596684e+00 -1.4059257745242871e+01 1 2 -1
1940 647 2 4.0999999999999998e-01 -1.4856456387627771e+01 -1.0493370341296473e+01 -9.3451185435393249e+00 2 1 1
1482 494 2 4.0999999999999998e-01 -2.3612733668672803e+00 -1.3169317129712880e+01 -7.9804388885181163e+00 -1 0 3
1003 335 1 -8.1999999999999995e-01 -2.1656042713000154e+00 -8.4167590854222247e+00 -7.5181566624476801e+00 1 0 0
910 304 1 -8.1999999999999995e-01 -3.1592229699572982e-02 -1.3826651489776539e+01 -1.1741755485125573e+01 -2 1 0
1299 433 2 4.0999999999999998e-01 -1.4563440524248588e+01 -7.1917811056449477e+00 -7.5625501661680188e+00 2 -1 2
373 125 1 -8.1999999999999995e-01 -6.4669967927474925e+00 -5.0596429344618379e+00 -1.2294169595731164e+01 0 2 -1
2289 763 2 4.0999999999999998e-01 -1.4794946236354331e+01 -1.4613965116569631e+01 -9.5869812719658647e+00 1 0 1
644 215 2 4.0999999999999998e-01 -1.4821433398748765e+01 -1.3057292331642719e+01 -1.3210467465958276e+01 0 0 1
490 164 1 -8.1999999999999995e-01 -1.3635384996807380e+01 -1.2006499396657633e+01 -6.2436311412219681e+00 0 1 -1
492 164 2 4.0999999999999998e-01 -1.3787360998694204e+01 -1.1379423406228693e+01 -5.4796848651623264e+00 0 1 -1
491 164 2 4.0999999999999998e-01 -1.2662773352452099e+01 -1.2019743019520030e+01 -6.4755494951471775e+00 0 1 -1
117 39 2 4.0999999999999998e-01 -1.4946872092025963e+01 -1.4892872561615107e+01 -5.2202875085328255e+00 0 0 0
550 184 1 -8.1999999999999995e-01 -1.1009149969025678e+01 -1.1258628397937674e+01 -6.3191467481067249e+00 0 2 2
2169 723 2 4.0999999999999998e-01 -7.8116286915351569e+00 -1.1903388009412421e+01 -2.4777814105288432e+00 -1 1 -1
1662 554 2 4.0999999999999998e-01 -1.2498303207959490e+01 -1.2619539160016116e+01 -2.5043290554021098e+00 0 2 -2
515 172 2 4.0999999999999998e-01 -8.1171065335061243e-02 -6.5220712350758578e+00 -7.0683606354631534e+00 0 1 -1
1004 335 2 4.0999999999999998e-01 -1.7155168250123456e+00 -8.5376858851893367e+00 -6.6334347178690845e+00 1 0 0
1044 348 2 4.0999999999999998e-01 -1.2761039141017200e+01 -7.8700254779886194e+00 -5.8526630043065051e+00 0 1 -1
1646 549 2 4.0999999999999998e-01 -9.7362432259960325e+00 -9.9894275806423423e+00 -3.7688142993433118e+00 2 1 -1
2526 842 2 4.0999999999999998e-01 -7.9189136009501597e+00 -1.0385647957776747e+01 -4.7787960710105395e+00 0 -1 -1
2524 842 1 -8.1999999999999995e-01 -8.2922168745169778e+00 -1.1217808782432064e+01 -4.3688107512567971e+00 0 -1 -1
1043 348 2 4.0999999999999998e-01 -1.1976314530040915e+01 -8.7332195413515734e+00 -4.7100537577389954e+00 0 1 -1
2525 842 2 4.0999999999999998e-01 -7.8021776859119170e+00 -1.2013499757848233e+01 -4.7247212808066834e+00 0 -1 -1
1645 549 1 -8.1999999999999995e-01 -1.0340686731557087e+01 -9.2262292169963764e+00 -3.9970930011402359e+00 2 1 -1
345 115 2 4.0999999999999998e-01 -1.2921180430312848e+01 -1.0072443332330234e+01 -5.4451683149821584e-01 -1 -1 1
1647 549 2 4.0999999999999998e-01 -1.0016181214638888e+01 -8.3966325307033856e+00 -3.5427798618908533e+00 2 1 -1
1285 429 1 -8.1999999999999995e-01 -1.4807171181640856e+01 -1.3345720333660903e+01 -4.3084502032714589e-01 -1 1 0
1042 348 1 -8.1999999999999995e-01 -1.2850915863732983e+01 -8.3205799855966536e+00 -4.9644864584801471e+00 0 1 -1
751 251 1 -8.1999999999999995e-01 -9.0293902799711176e+00 -7.1988918776535957e+00 -2.6140548396383423e+00 1 1 1
753 251 2 4.0999999999999998e-01 -8.7494517880507701e+00 -6.7094079389963088e+00 -3.4398725058787321e+00 1 1 1
2207 736 2 4.0999999999999998e-01 -1.2894893855828517e+01 -6.8110415736994820e+00 -3.4850809854590956e+00 0 0 -1
633 211 2 4.0999999999999998e-01 -8.3924299513464966e+00 -1.4603497414020165e+01 -5.4158566924954226e+00 -1 1 1
839 280 2 4.0999999999999998e-01 -1.1604293356013390e+01 -1.3154182464895042e+01 -1.8670185997725319e-01 -1 2 -1
752 251 2 4.0999999999999998e-01 -9.1633246355789240e+00 -6.5457973593076080e+00 -1.8687602381615047e+00 1 1 1
1832 611 2 4.0999999999999998e-01 -8.2919622341089436e+00 -5.4691224557018696e+00 -9.6822289392605398e-02 -1 -1 -1
2206 736 1 -8.1999999999999995e-01 -1.2841008663861441e+01 -6.1205329767662988e+00 -2.7638118415818251e+00 0 0 -1
2247 749 2 4.0999999999999998e-01 -9.7554258628204735e+00 -5.0732402469365763e+00 -5.6643582197660702e+00 0 1 -1
2246 749 2 4.0999999999999998e-01 -1.0745713556878661e+01 -6.2408396034202021e+00 -5.0964718586544908e+00 0 1 -1
215 72 2 4.0999999999999998e-01 -7.0364056619997823e+00 -7.9085545105596058e+00 -5.2789557494758625e+00 0 1 -2
14 5 2 4.0999999999999998e-01 -1.3594506806170820e+01 -9.8339795782966952e+00 -4.0031901598010968e+00 0 1 -1
632 211 2 4.0999999999999998e-01 -9.2675959521665447e+00 -1.3227851407185460e+01 -5.5060523341874177e+00 -1 1 1
2245 749 1 -8.1999999999999995e-01 -9.8008136991842854e+00 -5.9149509701951430e+00 -5.1264010519616967e+00 0 1 -1
2559 853 2 4.0999999999999998e-01 -8.1493516876214898e+00 -6.1436246822741953e+00 -5.2199827779396735e+00 2 2 1
2557 853 1 -8.1999999999999995e-01 -7.2085081728335343e+00 -6.2670896709678470e+00 -4.9045390732620948e+00 2 2 1
343 115 1 -8.1999999999999995e-01 -1.3679259031686334e+01 -1.0529563964677990e+01 -1.0095892376503688e+00 -1 -1 1
631 211 1 -8.1999999999999995e-01 -8.5382137705894259e+00 -1.3761086697297438e+01 -5.9345340116662229e+00 -1 1 1
552 184 2 4.0999999999999998e-01 -1.0580579472941590e+01 -1.0763473496580787e+01 -5.5634459424973759e+00 0 2 2
1287 429 2 4.0999999999999998e-01 -1.3976435363770817e+01 -1.3284692955448744e+01 -9.8409768346284565e-01 -1 1 0
2208 736 2 4.0999999999999998e-01 -1.2420754605936647e+01 -5.2896883444619345e+00 -3.1285290762155853e+00 0 0 -1
1523 508 2 4.0999999999999998e-01 -8.5272496600752135e+00 -1.2781513928400614e+01 -1.1983617898121324e-01 0 3 -1
577 193 1 -8.1999999999999995e-01 -1.9123026382571542e+00 -1.3910101195048357e+01 -7.4722981545550482e-01 0 0 -1
2331 777 2 4.0999999999999998e-01 -1.3295610502617745e+01 -6.6988177006764591e+00 -1.1122261488093859e+00 1 0 -1
115 39 1 -8.1999999999999995e-01 -1.4953595279078286e+01 -1.4509651406533633e+01 -6.1438844198608873e+00 0 0 0
2167 723 1 -8.1999999999999995e-01 -7.2558326205588619e+00 -1.2440187240153481e+01 -1.8430592521995006e+00 -1 1 -1
1138 380 1 -8.1999999999999995e-01 -1.8522182214417917e+00 -5.6878755877699678e+00 -6.9679635006259879e+00 -1 1 -1
1660 554 1 -8.1999999999999995e-01 -1.2439172009163064e+01 -1.3185148908507523e+01 -1.6818182450612209e+00 0 2 -2
879 293 2 4.0999999999999998e-01 -4.5189985029995245e+00 -1.0717410894749417e+01 -2.8629823753965677e+00 1 0 0
344 115 2 4.0999999999999998e-01 -1.3841985443903084e+01 -1.1420367055138076e+01 -5.8541381369457213e-01 -1 -1 1
13 5 1 -8.1999999999999995e-01 -1.4028039535142151e+01 -1.0665688889191760e+01 -3.6564283138300624e+00 0 1 -1
404 135 2 4.0999999999999998e-01 -7.6229688148158496e+00 -8.0078204811563651e+00 -1.8989546217523436e+00 2 1 -1
1636 546 1 -8.1999999999999995e-01 -1.0139632102283642e+01 -5.3464430309127842e+00 -8.3016994421050860e-01 -1 1 0
551 184 2 4.0999999999999998e-01 -1.0723308135750258e+01 -1.0853681221842598e+01 -7.1876207381800370e+00 0 2 2
579 193 2 4.0999999999999998e-01 -2.3561837856906251e+00 -1.3146670803309041e+01 -2.7810456176237608e-01 0 0 -1
508 170 1 -8.1999999999999995e-01 -1.0612037587980314e+00 -1.4368859079219794e+01 -5.0407545695584197e+00 -1 0 1
877 293 1 -8.1999999999999995e-01 -4.3048127691208080e+00 -1.0921239682648718e+01 -3.8182379435167277e+00 1 0 0
2347 783 1 -8.1999999999999995e-01 -2.0973634790383819e+00 -9.0485128586532912e+00 -4.7791939108281660e+00 0 3 2
21 7 2 4.0999999999999998e-01 -1.6213730470723853e-01 -5.6562503726648234e+00 -4.5398879105550449e-01 0 1 1
1140 380 2 4.0999999999999998e-01 -2.7242564670453007e+00 -5.9810388174309459e+00 -6.5761223585166206e+00 -1 1 -1
1362 454 2 4.0999999999999998e-01 -5.4501832020117753e+00 -1.2418717779724453e+01 -6.2707509598034594e+00 0 0 -2
771 257 2 4.0999999999999998e-01 -4.9769976153064519e+00 -1.4241768815594627e+01 -2.8342698645595537e+00 2 0 -2
2348 783 2 4.0999999999999998e-01 -1.4235005841899273e+00 -8.9621368742756644e+00 -4.0454481018230872e+00 0 3 2
2558 853 2 4.0999999999999998e-01 -6.5913645887824561e+00 -5.7280147105817658e+00 -5.4776593169251484e+00 2 2 1
509 170 2 4.0999999999999998e-01 -3.0215561850951644e-01 -1.3777914349471249e+01 -5.3138207359475214e+00 -1 0 1
1361 454 2 4.0999999999999998e-01 -5.5173650757856816e+00 -1.1239001290860145e+01 -5.1437157277658532e+00 0 0 -2
1481 494 2 4.0999999999999998e-01 -1.5331810948306561e+00 -1.4070603383463990e+01 -6.8995138238053073e+00 -1 0 3
769 257 1 -8.1999999999999995e-01 -5.8819035890033131e+00 -1.4604363143838849e+01 -2.6115470418982820e+00 2 0 -2
578 193 2 4.0999999999999998e-01 -2.2321616220127822e+00 -1.3950997491837606e+01 -1.6937775498178667e+00 0 0 -1
1637 546 2 4.0999999999999998e-01 -1.0915538992311312e+01 -5.0978996482678074e+00 -1.4099367462157932e+00 -1 1 0
590 197 2 4.0999999999999998e-01 -4.0507087856001025e+00 -5.6621199611646880e+00 -4.8851803540857617e+00 -1 0 1
2168 723 2 4.0999999999999998e-01 -6.8234225427954236e+00 -1.3195530758717480e+01 -2.3354134052526199e+00 -1 1 -1
1150 384 1 -8.1999999999999995e-01 -5.1388156420326379e+00 -1.0644781550193212e+01 -1.1083755363523817e+00 0 1 1
589 197 1 -8.1999999999999995e-01 -3.8079027707305837e+00 -6.6236603535293863e+00 -4.7570390397633435e+00 -1 0 1
1490 497 2 4.0999999999999998e-01 -4.9283032867246259e+00 -1.4859838759613794e+01 -4.8181650648450294e+00 2 0 -1
216 72 2 4.0999999999999998e-01 -6.4715717360832450e+00 -9.1412771616815256e+00 -6.1887966169344928e+00 0 1 -2
591 197 2 4.0999999999999998e-01 -4.1129368922436242e+00 -6.9270094843170966e+00 -3.8543384358621946e+00 -1 0 1
2349 783 2 4.0999999999999998e-01 -2.5908128187222168e+00 -8.1848633015849543e+00 -4.8819173961318043e+00 0 3 2
2329 777 1 -8.1999999999999995e-01 -1.3351684950749593e+01 -6.8922151661168698e+00 -1.3274261715971214e-01 1 0 -1
214 72 1 -8.1999999999999995e-01 -7.1838812344656020e+00 -8.8610332493101573e+00 -5.5453578625265898e+00 0 1 -2
2030 677 2 4.0999999999999998e-01 -2.6563803869755258e+00 -1.3959653604087855e+01 -4.1490645978638980e+00 -1 1 0
405 135 2 4.0999999999999998e-01 -7.0202276502811385e+00 -7.6033559210010671e+00 -4.3622963335248421e-01 2 1 -1
2313 771 2 4.0999999999999998e-01 -4.2502663462332020e+00 -6.4434214087627542e+00 -1.4612305341556979e+00 3 0 0
1695 565 2 4.0999999999999998e-01 -4.0361242983512291e+00 -8.9008569041242147e+00 -7.2723745847294197e+00 -1 2 0
116 39 2 4.0999999999999998e-01 -1.4414262056319489e+01 -1.3667739558745243e+01 -6.1593447886433097e+00 0 0 0
15 5 2 4.0999999999999998e-01 -1.3947442733781136e+01 -1.0693030783483277e+01 -2.6600892646336192e+00 0 1 -1
1151 384 2 4.0999999999999998e-01 -5.9290430205148432e+00 -1.1251463804765338e+01 -1.1944697087208009e+00 0 1 1
2031 677 2 4.0999999999999998e-01 -3.5993859264469332e+00 -1.2790998435634975e+01 -3.5076298303313003e+00 -1 1 0
2029 677 1 -8.1999999999999995e-01 -3.4739708572937165e+00 -1.3778517896036876e+01 -3.6025569708876581e+00 -1 1 0
1152 384 2 4.0999999999999998e-01 -5.4528918538600273e+00 -9.7013330871271712e+00 -1.0025644796970834e+00 0 1 1
1360 454 1 -8.1999999999999995e-01 -5.8143679742595396e+00 -1.1511880596994782e+01 -6.0587353978808665e+00 0 0 -2
2311 771 1 -8.1999999999999995e-01 -4.8854021742537146e+00 -6.5784769163434458e+00 -2.2216892076666923e+00 3 0 0
878 293 2 4.0999999999999998e-01 -3.4796587229413642e+00 -1.0424978521661529e+01 -4.0880166685651087e+00 1 0 0
1661 554 2 4.0999999999999998e-01 -1.1847606954748143e+01 -1.3971462770456744e+01 -1.8598526149870747e+00 0 2 -2
2312 771 2 4.0999999999999998e-01 -5.5418522003809692e+00 -7.2945506878021407e+00 -1.9845255799775501e+00 3 0 0
403 135 1 -8.1999999999999995e-01 -6.9299526409318251e+00 -8.2274096281650806e+00 -1.2123367350394609e+00 2 1 -1
1341 447 2 4.0999999999999998e-01 -5.3227833119560675e+00 -5.2755617208948049e+00 -3.1353320931555224e+00 -1 0 1
1139 380 2 4.0999999999999998e-01 -1.3990539212602506e+00 -5.0571113372505963e+00 -6.3381115458502197e+00 -1 1 -1
2045 682 2 4.0999999999999998e-01 -1.4637737317444600e+01 -5.2403271886791565e+00 -1.4170654914388603e+00 1 1 0
2556 852 2 4.0999999999999998e-01 -3.8761378268607682e+00 -1.1285898863033342e+01 -2.0401542096370662e-01 0 1 1
2121 707 2 4.0999999999999998e-01 -8.6241699314827507e+00 -1.0600343711940406e+01 5.3284929354702406e+00 -1 3 -2
1716 572 2 4.0999999999999998e-01 -1.4066079581378967e+01 -1.1598363396311747e+01 6.4939193203980139e+00 0 1 0
2008 670 1 -8.1999999999999995e-01 -1.1212217870265151e+01 -1.3288201016601940e+01 4.1823925850731065e+00 0 4 1
1715 572 2 4.0999999999999998e-01 -1.2649158093426998e+01 -1.2396614588708275e+01 6.6408255262502145e+00 0 1 0
2010 670 2 4.0999999999999998e-01 -1.1867197450165090e+01 -1.2845184304648864e+01 4.7944978065206065e+00 0 4 1
1714 572 1 -8.1999999999999995e-01 -1.3203859580411846e+01 -1.1821732852299615e+01 6.0393671857650943e+00 0 1 0
1627 543 1 -8.1999999999999995e-01 -9.5942659397551040e+00 -1.1342357869685776e+01 3.1162613337270919e+00 1 1 -2
1628 543 2 4.0999999999999998e-01 -9.2703598649518817e+00 -1.1803883091827254e+01 2.2904198742341109e+00 1 1 -2
470 157 2 4.0999999999999998e-01 -1.4438061817467162e+01 -9.1845825034882544e+00 5.5291281204964164e+00 1 1 1
2285 762 2 4.0999999999999998e-01 -1.2458938677080049e+01 -1.1811708337863148e+01 2.2317587845626186e+00 1 2 1
2009 670 2 4.0999999999999998e-01 -1.1511816250857851e+01 -1.4223493785957649e+01 3.9942354446112915e+00 0 4 1
1430 477 2 4.0999999999999998e-01 -1.1731933757532422e+01 -8.2896226163130358e+00 6.5119228883840279e+00 0 0 1
2284 762 1 -8.1999999999999995e-01 -1.3073555952160632e+01 -1.1034166746231451e+01 2.0990580272088124e+00 1 2 1
469 157 1 -8.1999999999999995e-01 -1.4674438707046185e+01 -9.0193463288682416e+00 6.4866028732038323e+00 1 1 1
640 214 1 -8.1999999999999995e-01 -1.0638704602841688e+01 -8.9720389199159669e+00 3.5367867393839880e+00 2 2 -1
641 214 2 4.0999999999999998e-01 -1.1342763753066805e+01 -8.8635967993268867e+00 2.8350204803027275e+00 2 2 -1
2310 770 2 4.0999999999999998e-01 -1.4349788204426176e+01 -7.1419213896550753e+00 3.4258367991437098e+00 0 2 0
2120 707 2 4.0999999999999998e-01 -9.1936572422784515e+00 -9.2806866041393974e+00 6.1035040432813581e+00 -1 3 -2
642 214 2 4.0999999999999998e-01 -9.9711172783624740e+00 -9.6533546684822511e+00 3.2366686404875011e+00 2 2 -1
1768 590 1 -8.1999999999999995e-01 -6.7933060769316320e+00 -1.4495813424396021e+01 2.3062545621733790e+00 0 1 2
2119 707 1 -8.1999999999999995e-01 -8.3734556051934046e+00 -9.7266206267919735e+00 5.7452485220254559e+00 -1 3 -2
1983 661 2 4.0999999999999998e-01 -1.0046421463231681e+01 -7.3556558386970377e+00 4.3461861104909936e+00 0 0 1
2409 803 2 4.0999999999999998e-01 -8.0590134291819915e+00 -6.8603037439892613e+00 2.9700358340508544e+00 2 2 2
894 298 2 4.0999999999999998e-01 -8.2068695646240943e+00 -6.4241987606769744e+00 5.5191670199323717e+00 0 0 -3
1981 661 1 -8.1999999999999995e-01 -9.5336920996700023e+00 -6.5167656223176600e+00 4.1636849107823011e+00 0 0 1
391 131 1 -8.1999999999999995e-01 -1.4238865793444209e+01 -9.2043657825234533e+00 3.7772275581915586e+00 1 2 1
1328 443 2 4.0999999999999998e-01 -1.8554952731869712e+00 -9.5588840995786271e+00 3.3515348783431413e+00 0 0 -2
1431 477 2 4.0999999999999998e-01 -1.1237580818127247e+01 -9.7323599178795632e+00 5.9283330779666095e+00 0 0 1
743 248 2 4.0999999999999998e-01 -7.6978479828499093e+00 -1.3472747204805351e+01 6.0175323137281858e+00 -1 3 0
393 131 2 4.0999999999999998e-01 -1.3615204278051795e+01 -9.8534264065729378e+00 3.3416801912076011e+00 1 2 1
2308 770 1 -8.1999999999999995e-01 -1.4375165026467872e+01 -6.1935533080873792e+00 3.1097848267953587e+00 0 2 0
1629 543 2 4.0999999999999998e-01 -1.0203040210600221e+01 -1.1953189762531363e+01 3.6224363115455205e+00 1 1 -2
1429 477 1 -8.1999999999999995e-01 -1.0981662249972057e+01 -8.9505307961679765e+00 6.4968256403112896e+00 0 0 1
38 13 2 4.0999999999999998e-01 -1.4302734137104670e+01 -1.4670240337792915e+01 2.3635353344957579e+00 0 1 0
1929 643 2 4.0999999999999998e-01 -7.9523125460137862e+00 -8.7718595918676812e+00 3.2664113176120857e-01 -1 1 0
1769 590 2 4.0999999999999998e-01 -7.3503194874200144e+00 -1.3679394923015101e+01 2.1541633949528993e+00 0 1 2
37 13 1 -8.1999999999999995e-01 -1.3646326780195492e+01 -1.4610797767957591e+01 1.6115174597062172e+00 0 1 0