2593
Atoms. Timestep: 18495000
O 10.6902 -13.4315 7.24685
H 11.2366 -12.6145 7.43071
H 10.0551 -13.2461 6.49701
O 13.099 3.27667 -7.21522
H 12.5951 3.06701 -6.37734
H 13.961 2.76987 -7.2214
O 13.1277 -12.3324 4.73696
H 13.8692 -11.7845 5.12421
H 13.1153 -13.2321 5.17312
O 2.77749 3.04397 -13.6524
H 2.08526 2.572 -14.1983
H 3.41165 2.37389 -13.2667
O -10.5176 7.28922 -9.46132
H -11.5175 7.28284 -9.47595
H -10.1779 6.34912 -9.48843
O -12.1155 -10.9457 0.782459
H -12.8056 -10.4709 0.236261
H -11.939 -11.8468 0.386392
O 4.89106 12.6171 13.2643
H 4.54071 13.1516 14.0334
H 4.13928 12.1139 12.8382
O -11.1986 -4.24926 8.32889
H -11.0337 -4.12992 9.30791
H -11.2875 -5.22359 8.12221
O -2.71711 13.1228 -3.68686
H -3.6145 13.3754 -4.0486
H -2.03085 13.7721 -4.01471
O 5.04228 0.164987 -4.96333
H 4.53036 0.650999 -5.67161
H 4.57587 -0.691818 -4.74359
O -0.841115 14.8834 -4.88458
H -0.308515 14.0999 -4.56468
H -0.319929 -14.5919 -5.57894
O -11.1553 5.55743 -13.9247
H -11.4724 6.42994 -14.2964
H -11.3029 4.83439 -14.5995
O 14.6834 -9.4591 -14.4569
H 14.1464 -9.40239 -13.6152
H -14.5075 -10.0676 -14.314
O -10.2416 -0.727212 -2.22236
H -9.8854 0.119233 -2.6181
H -9.51665 -1.18562 -1.70826
O -10.0415 -8.18973 -2.73208
H -10.6226 -7.85757 -1.98922
H -10.0702 -9.18899 -2.75638
O 14.7625 7.10796 11.6917
H -14.9346 7.99354 11.317
H 14.9051 6.39636 11.0037
O 10.4175 -9.52776 9.25174
H 9.86618 -9.84933 10.0215
H 10.9884 -10.2765 8.91486
O 5.00215 -3.84636 -6.80916
H 5.93569 -3.49957 -6.7188
H 4.66128 -4.12384 -5.91097
O -1.72308 -5.93127 -3.37705
H -0.847948 -5.51748 -3.12633
H -1.62284 -6.92546 -3.41544
O 1.93348 14.1791 -10.0032
H 2.00357 13.1881 -10.1168
H 2.51981 14.4703 -9.24726
O -8.73481 12.0786 6.78629
H -9.44592 11.5508 7.25065
H -8.99374 13.0443 6.76979
O -10.1916 1.73048 13.2294
H -10.5534 1.40776 14.104
H -10.6908 1.2942 12.4808
O -2.13658 7.1089 8.6111
H -2.89147 6.53418 8.29523
H -1.9544 7.82172 7.93388
O -12.6036 13.7778 -12.1465
H -11.8 14.3439 -12.3303
H -12.3105 12.8611 -11.875
O 6.38893 6.22596 9.16245
H 7.35689 6.01791 9.02208
H 6.2939 6.87878 9.91393
O 7.56662 4.16062 1.27818
H 7.65066 5.04711 0.823202
H 6.60617 3.98761 1.49623
O -7.01851 13.6761 -0.260755
H -6.31542 13.3736 -0.904283
H -6.60081 13.8529 0.630416
O 2.92019 14.5706 -7.11034
H 3.78162 14.8454 -6.68334
H 2.97641 13.6112 -7.38677
O 8.40681 -10.1832 14.5943
H 8.77109 -10.763 -14.6484
H 7.42677 -10.0449 14.7369
O -2.81545 10.3896 -4.2006
H -2.04282 9.79645 -3.97436
H -2.52547 11.3456 -4.15766
O -6.31089 -6.69133 8.11582
H -6.82142 -6.35974 7.32251
H -6.27294 -5.97392 8.81138
O 4.91842 8.35345 14.4882
H 4.04752 8.01168 14.1351
H 5.42115 8.80747 13.7526
O 3.48792 -7.57093 1.27681
H 3.59463 -6.69254 0.811007
H 4.25733 -7.71371 1.89935
O 6.56077 13.3931 0.493815
H 7.28263 13.9668 0.106981
H 6.96613 12.5692 0.889806
O 12.9014 11.5546 3.19371
H 12.3256 11.2997 3.97049
H 13.2392 12.4871 3.32114
O 12.7654 7.66834 -3.62947
H 12.3955 7.9753 -4.50633
H 12.4716 8.29366 -2.90655
O 1.88023 9.06094 -2.13907
H 1.51967 8.16085 -2.38354
H 2.87637 9.05587 -2.22628
O -8.5566 2.6881 3.79251
H -8.54026 1.70408 3.96964
H -9.02445 2.8631 2.92625
O 14.1509 0.872171 1.10082
H 14.5024 0.785498 2.03294
H 14.6051 1.63636 0.643009
O 5.41287 -7.0777 13.0497
H 4.42824 -7.06155 12.876
H 5.87376 -6.45916 12.4134
O -1.83963 -11.4247 -14.1745
H -2.36808 -11.9402 -13.5001
H -2.26596 -10.532 -14.3204
O -14.3146 -9.20405 -0.0545067
H -14.2243 -8.9418 -1.01523
H 14.7426 -8.96407 0.27191
O -14.2475 2.07581 -7.04787
H -14.0796 1.87427 -6.08291
H -14.3594 1.21984 -7.55256
O -11.0916 -8.86111 -7.37513
H -10.6484 -8.18662 -6.7847
H -11.3556 -9.65771 -6.83141
O 14.5619 6.19992 14.1007
H 13.8117 6.6757 14.5598
H 14.6853 6.57895 13.1836
O 14.7897 -5.09114 9.46703
H -14.4069 -5.71916 9.39506
H 14.5002 -5.02713 10.422
O -6.04482 -9.62596 10.9027
H -6.6036 -9.94628 10.1378
H -5.28756 -9.07379 10.5541
O 2.9957 -14.9492 5.32597
H 2.03343 -14.8514 5.57972
H 3.08386 -14.9076 4.33077
O -7.51653 -10.3628 -7.15259
H -7.38165 -9.70202 -6.41425
H -7.8083 -11.2382 -6.76728
O -8.79628 -3.03641 -14.1634
H -9.59286 -3.36707 -13.6574
H -8.11609 -2.68374 -13.5208
O 1.05021 8.20389 -5.23405
H 1.68573 7.54932 -4.82467
H 1.40947 9.1306 -5.12414
O -6.554 -4.85135 10.2219
H -6.89339 -4.05225 10.7181
H -5.62245 -4.6753 9.90383
O 6.06411 4.00163 6.50553
H 5.42659 4.0209 7.27568
H 6.01451 3.11079 6.054
O -3.2564 -12.1935 -12.111
H -3.24574 -13.1561 -11.8402
H -3.34978 -11.6195 -11.2975
O -1.50879 -11.698 -5.78334
H -1.30783 -11.9688 -4.84197
H -0.689347 -11.3031 -6.1987
O -5.9116 0.761673 -11.5306
H -6.40586 1.50922 -11.0869
H -6.44144 -0.0825164 -11.4497
O -12.3742 -14.2875 14.4608
H -12.147 -13.9775 -14.5874
H -13.0821 -13.6957 14.0753
O -6.04299 9.92163 10.6533
H -5.97285 9.36917 9.82278
H -5.24599 9.75392 11.2335
O 1.81221 4.81989 -4.60312
H 1.29542 4.60389 -5.4315
H 2.39078 4.04175 -4.35883
O 12.5324 12.8959 -7.41827
H 12.0706 12.8611 -8.30455
H 12.2025 12.1489 -6.84107
O 4.50483 -12.6529 -13.3297
H 3.70738 -13.253 -13.2675
H 4.43308 -12.0873 -14.1512
O -8.74158 6.36789 2.62446
H -9.39853 7.10287 2.79222
H -8.57149 6.29069 1.6421
O -13.8685 13.3421 -2.16728
H -14.1931 13.4411 -3.10789
H -12.9608 13.7532 -2.08297
O 4.27965 -13.5939 13.2879
H 4.90796 -13.2265 12.6022
H 3.8796 -12.8411 13.8107
O 10.548 8.51262 6.51765
H 10.8868 8.26826 7.42618
H 9.5833 8.76849 6.57935
O -9.66244 3.56085 -1.07331
H -10.3034 4.13367 -1.58416
H -9.12511 3.01045 -1.71226
O -13.0379 8.24341 -10.606
H -12.815 7.3152 -10.9038
H -12.8432 8.88673 -11.3464
O -12.6957 -0.457546 -0.516043
H -12.0697 -0.323337 0.252078
H -12.1724 -0.68915 -1.33603
O 2.67915 -12.3546 -1.60143
H 2.08721 -12.809 -0.93582
H 2.88683 -11.4289 -1.28545
O -2.9476 -2.22061 13.0236
H -2.90906 -3.02854 12.4357
H -3.17375 -2.4983 13.9573
O 4.42474 14.3671 -14.6405
H 3.52814 14.3131 -14.2011
H 4.42173 -14.8656 14.657
O 2.88235 11.2959 0.458707
H 2.32807 10.5957 0.00886262
H 2.28522 12.0106 0.822901
O -8.79917 1.61599 -3.17236
H -7.88423 1.64596 -3.57474
H -9.4379 2.11338 -3.75936
O 1.27597 13.0882 1.15247
H 1.63419 14.0165 1.25186
H 0.28223 13.1239 1.04692
O -0.351174 1.43643 12.561
H -0.984044 1.05601 11.8867
H 0.295277 2.04727 12.104
O -8.62874 -11.7499 1.53777
H -8.98631 -11.0208 2.12129
H -7.9479 -11.3714 0.910805
O -14.0008 14.45 -10.0093
H -13.2087 14.6215 -9.42356
H -13.6952 14.0568 -10.8764
O -3.84947 -6.07073 6.08397
H -4.04222 -6.98088 5.71736
H -4.546 -5.42832 5.76444
O 13.2359 9.30648 -12.8013
H 13.843 9.62472 -12.0732
H 13.6015 9.58982 -13.6878
O -7.26626 -0.552143 6.55472
H -7.74706 -0.241389 5.73484
H -7.9159 -0.989702 7.17636
O -13.8975 -12.6405 12.9828
H -14.1564 -11.8152 12.4811
H -13.8612 -13.4161 12.3526
O -12.0632 11.3627 -0.839024
H -11.0895 11.5469 -0.973048
H -12.5932 12.1729 -1.08913
O -13.8447 -1.29212 -8.35964
H -14.7356 -1.58813 -8.70407
H -13.4708 -1.99527 -7.75494
O -10.1763 8.57346 1.38184
H -10.7098 7.73414 1.2777
H -10.7957 9.34939 1.50137
O 7.71313 -7.19223 0.373088
H 7.39273 -7.53725 1.25527
H 7.25769 -7.69016 -0.364867
O -10.5362 10.8275 8.13787
H -11.1143 11.5376 8.53981
H -11.1105 10.0813 7.8013
O -12.4207 5.71912 -11.4122
H -11.7169 5.78328 -12.1197
H -13.1109 5.05035 -11.6883
O -11.4674 7.88033 -1.76516
H -11.7689 7.42142 -0.929421
H -10.5484 7.56716 -2.00442
O 3.16261 -6.51813 -9.99439
H 3.61835 -5.66451 -9.74226
H 3.66972 -7.29159 -9.61422
O -0.423223 -9.95249 11.5147
H -0.789251 -10.7491 11.9957
H 0.317992 -10.2407 10.9085
O -12.3362 8.94159 3.51198
H -11.9994 9.65769 2.90066
H -13.0895 9.30073 4.06285
O 5.75203 -12.4257 11.1442
H 5.84505 -11.7129 10.449
H 6.59904 -12.9548 11.1945
O 0.832923 2.30966 2.69867
H -0.0376322 2.29176 3.19035
H 0.759854 2.92498 1.91383
O -11.5652 -2.04319 12.9548
H -10.6101 -1.77607 12.8273
H -12.0199 -1.3809 13.5503
O 13.2343 0.962211 7.75999
H 12.686 0.591766 7.0103
H 13.7317 0.219291 8.20783
O -4.60479 -6.16721 -4.62284
H -5.10883 -6.44726 -3.80587
H -3.64 -6.40838 -4.51824
O -10.1749 -4.09138 -8.153
H -9.9653 -4.92572 -7.64322
H -10.6024 -4.33175 -9.02445
O 5.51443 14.6711 -6.19127
H 5.75189 -14.7223 -5.41056
H 5.85739 -14.8819 -7.03225
O -8.12543 -6.88719 4.3719
H -9.08494 -7.10526 4.19382
H -7.71431 -7.61545 4.92012
O -3.82383 -14.0228 -0.353117
H -4.40192 -14.8019 -0.595619
H -3.77455 -13.3908 -1.12649
O -4.43831 -9.90897 -8.35921
H -5.24131 -9.65149 -7.82179
H -4.4514 -9.42176 -9.23235
O 3.56723 -9.94713 11.467
H 4.18932 -10.727 11.3987
H 3.34654 -9.61543 10.5499
O 13.4066 -4.08225 -6.89719
H 14.2408 -4.25484 -6.37343
H 13.5019 -3.22471 -7.40265
O -8.46684 14.434 12.6724
H -7.85697 -14.7755 12.8903
H -7.93116 13.6715 12.3095
O -12.207 -3.01015 -2.92089
H -11.6256 -2.29009 -2.54223
H -12.0859 -3.84946 -2.39095
O -5.53091 0.795033 -0.832162
H -4.68817 0.360758 -1.15016
H -5.94134 1.3147 -1.58145
O -13.5159 -13.6455 7.70344
H -14.0058 -14.5077 7.57496
H -12.7068 -13.803 8.26957
O 8.97771 -1.94057 11.7736
H 8.06394 -1.58654 11.9726
H 9.65275 -1.21515 11.9079
O 10.005 3.42381 -12.8569
H 10.2143 4.17882 -12.2355
H 9.42748 3.75609 -13.6025
O 14.5133 10.5905 10.9659
H 13.6485 10.3228 11.3906
H -14.7438 9.94099 11.2263
O -1.6439 10.1256 -11.1992
H -1.06745 10.7238 -10.6425
H -2.45759 9.86779 -10.6782
O 1.53068 7.97374 -13.632
H 0.574099 7.99955 -13.3418
H 1.60081 7.49408 -14.5066
O -6.43529 10.5695 -12.2417
H -6.62193 11.0615 -11.3914
H -7.12873 10.8054 -12.9224
O -8.15223 3.35632 6.59454
H -7.93111 3.36922 5.61941
H -9.09507 3.04708 6.71844
O -12.7457 -6.56227 -3.95894
H -13.1537 -5.78939 -4.44489
H -11.8766 -6.8054 -4.38949
O 11.952 -10.113 13.8625
H 11.0611 -10.2836 14.2832
H 12.6721 -10.5005 14.4379
O -9.69878 13.4736 -3.28636
H -10.1972 12.8898 -3.92711
H -9.15622 12.9039 -2.66912
O -12.4436 2.93069 -13.0972
H -13.0104 2.51101 -12.3883
H -13.0312 3.33255 -13.7994
O -14.0313 -4.36408 -13.7616
H -13.7473 -4.51255 -14.7088
H -13.32 -4.69934 -13.1439
O -6.76092 -8.5208 -4.85693
H -7.10426 -7.6112 -4.62309
H -6.81886 -9.11525 -4.05493
O 11.7777 2.94508 -9.63695
H 12.2478 3.21339 -8.79616
H 12.0806 2.03247 -9.91147
O 0.706722 8.65708 6.28047
H 0.851264 8.08974 5.46981
H 1.51675 9.22087 6.44147
O 12.1907 10.4417 12.5277
H 11.9316 11.2396 13.0719
H 11.4309 10.1844 11.9307
O -12.7207 -4.50712 13.7753
H -11.9665 -5.16289 13.7421
H -12.365 -3.58275 13.6378
O -12.5742 -6.63047 10.4418
H -12.5971 -7.44868 11.0162
H -11.9909 -5.93961 10.8689
O -14.3741 11.9529 -13.666
H -14.7896 11.9838 -12.7569
H -13.8049 11.1345 -13.7446
O 0.451235 -1.90221 11.1082
H 0.487632 -2.84452 10.7755
H 0.94942 -1.83443 11.9726
O 6.38615 5.87468 4.61887
H 5.50801 5.91938 4.14262
H 6.38391 5.09907 5.25003
O -12.146 -14.3026 -8.21839
H -12.4966 -13.4969 -7.74097
H -11.3316 -14.0517 -8.74171
O 6.06885 6.03205 -13.4936
H 6.86418 5.65538 -13.9685
H 5.26586 5.96837 -14.0861
O 5.03689 -5.90554 -2.34877
H 5.80763 -5.77561 -2.97248
H 4.18625 -5.66266 -2.81497
O -8.81905 11.7643 -0.94336
H -8.8176 10.9409 -0.375908
H -8.05952 12.3562 -0.673776
O 13.3274 -4.79996 -13.8673
H 14.2966 -4.57013 -13.7791
H 13.2364 -5.73993 -14.1961
O -7.67341 9.53694 0.0377578
H -7.01889 8.83205 -0.235501
H -8.41566 9.11786 0.56061
O -8.70214 -2.06772 8.47619
H -8.17555 -2.1153 9.32493
H -8.61086 -2.93022 7.97851
O 6.81833 4.21204 -4.46963
H 6.45965 4.86812 -5.13359
H 7.80034 4.09292 -4.61587
O -2.4317 0.0468495 -13.8192
H -3.33516 0.336276 -14.1353
H -2.21714 0.506373 -12.9574
O 3.67005 1.98002 -6.72845
H 3.94693 2.32724 -7.62438
H 2.67229 1.98606 -6.66245
O 9.84482 2.50099 6.50799
H 9.31721 2.78875 5.70877
H 10.7279 2.13775 6.21123
O -5.50481 -0.577505 10.9926
H -4.67613 -1.0944 11.2071
H -5.2633 0.232998 10.459
O -4.96854 3.51461 -8.36503
H -4.81817 4.46276 -8.6449
H -4.17234 3.18694 -7.85646
O -11.7567 4.41103 10.9527
H -11.2468 4.16524 10.1283
H -12.2641 3.61425 11.2807
O 2.70681 10.5421 -5.09877
H 3.33566 9.9407 -5.59146
H 3.14566 10.8698 -4.26212
O -1.4142 5.70693 12.6351
H -1.86291 6.07227 11.8195
H -2.10305 5.49809 13.3292
O 9.8957 8.93734 -7.86663
H 9.28036 8.14923 -7.87962
H 10.7995 8.64933 -7.55028
O -3.3467 11.6546 5.65008
H -2.66095 10.9278 5.61293
H -3.7439 11.6915 6.56704
O 9.25038 -13.8383 -2.01941
H 9.00484 -14.0567 -1.07499
H 9.2136 -12.8479 -2.1528
O 2.30936 -7.91826 13.2313
H 1.81053 -7.24307 12.6879
H 2.51753 -8.7148 12.6637
O 5.36401 8.97356 5.58325
H 4.64215 9.04101 4.89455
H 5.08109 8.33792 6.30148
O -2.49658 -6.17739 -7.11367
H -1.51054 -6.33753 -7.06867
H -2.74213 -5.43345 -6.49223
O -5.15055 13.1466 -4.64325
H -5.67636 13.995 -4.70478
H -5.70193 12.4447 -4.19244
O -13.9177 -10.9722 -9.45327
H -13.5279 -11.3203 -8.60075
H -13.7287 -9.99336 -9.53103
O 11.4681 -9.52174 -12.4811
H 12.0048 -10.0441 -11.8186
H 10.7968 -8.96002 -11.9976
O -12.1679 -2.92777 -6.2829
H -11.7649 -3.39429 -7.07022
H -11.4395 -2.57057 -5.69835
O -11.6317 13.3859 5.69835
H -12.558 13.0238 5.80179
H -11.0502 12.6958 5.26766
O 0.928463 -2.63855 -10.1358
H 0.704591 -3.6081 -10.0369
H 0.546361 -2.294 -10.9932
O 14.1627 -12.7536 9.22552
H 14.8911 -13.1312 8.65389
H 13.8983 -13.4266 9.91628
O 12.9442 9.51132 -1.5114
H 12.4811 9.7574 -0.660001
H 13.8482 9.1379 -1.30319
O 0.0303891 10.7393 -8.96479
H 0.155733 11.3369 -8.17293
H 0.0434817 9.78468 -8.66731
O -3.48143 -6.49653 -9.55106
H -3.14679 -5.65019 -9.96538
H -3.1947 -6.53511 -8.59386
O 5.23605 -14.6764 -11.1326
H 4.3286 -14.5942 -11.5446
H 5.80376 -13.9051 -11.4202
O 0.571502 12.706 -3.70066
H 0.706743 12.3091 -2.79286
H 1.41999 12.6354 -4.22508
O 4.64217 -4.28564 -9.48719
H 4.85052 -4.19062 -8.5138
H 4.50154 -3.38032 -9.88787
O -5.75052 -12.6024 -4.50758
H -6.34456 -11.8199 -4.32132
H -5.32974 -12.4945 -5.40827
O 12.0634 -4.43193 12.8051
H 11.638 -4.48424 13.7086
H 13.0352 -4.65483 12.8808
O 14.8358 1.27366 4.01762
H 14.5797 1.93798 4.71977
H -14.6188 0.527565 4.43736
O 9.87405 13.9552 14.2948
H 9.577 13.3226 13.5796
H 9.2921 13.8445 -14.871
O -9.87061 2.99008 1.49362
H -10.6296 3.52781 1.8606
H -9.76503 3.18478 0.518495
O 4.72515 2.79483 -9.29569
H 5.1131 3.19909 -10.1239
H 3.9114 3.30844 -9.02376
O 11.1741 12.6693 -1.35485
H 12.1693 12.6848 -1.25912
H 10.7514 12.9169 -0.48307
O 4.56713 -5.14843 0.309378
H 4.95595 -5.4183 -0.57149
H 5.29257 -4.79413 0.89941
O -12.4712 -7.84704 2.23251
H -12.8935 -8.74831 2.13647
H -13.0266 -7.16608 1.75533
O -11.3681 -11.6784 -10.9373
H -12.2404 -11.5852 -10.4574
H -10.648 -11.2266 -10.4107
O 14.8914 9.40008 3.39722
H -14.9162 8.9462 2.52137
H 14.162 10.0758 3.29121
O 7.73354 9.19059 6.87373
H 6.84912 8.98968 6.45257
H 7.96367 10.152 6.72319
O -5.79493 -3.36537 0.117774
H -5.0511 -3.37378 -0.55049
H -5.7125 -2.55519 0.698072
O 4.4987 -14.9098 0.355017
H 3.75379 14.7076 -0.210448
H 5.21763 14.3706 0.429884
O -2.8086 13.367 10.6168
H -2.17171 13.677 9.911
H -3.1614 14.1572 11.1178
O -11.9541 7.12775 -6.12626
H -12.6563 7.37536 -6.79366
H -12.1359 6.20876 -5.77651
O 11.268 -3.68656 9.12393
H 11.1524 -4.47249 9.73128
H 12.1911 -3.69529 8.73956
O -13.4286 -2.34091 7.97343
H -14.3477 -2.71512 8.09627
H -12.7686 -3.09 7.91618
O 9.57512 10.1426 0.730225
H 9.32126 10.4431 -0.189096
H 8.81591 10.3133 1.35823
O -13.0998 2.41477 12.2667
H -13.1384 2.92735 13.1244
H -13.5918 1.55066 12.3724
O 5.68322 3.50708 -11.633
H 5.77523 4.47763 -11.8555
H 6.08623 2.95767 -12.3649
O -8.85775 -14.0052 3.98002
H -8.85685 -14.9738 3.73149
H -8.32016 -13.4895 3.31298
O -14.2854 3.14944 0.0263572
H 14.9781 3.83556 -0.141033
H -13.522 3.5708 0.51578
O 6.52178 -12.949 8.2257
H 7.04531 -13.4269 8.93098
H 5.55749 -12.9197 8.48878
O -13.0221 -5.81365 -8.6537
H -13.8015 -5.81585 -8.02723
H -12.82 -6.75094 -8.93757
O 2.16832 14.6192 -1.31022
H 2.44392 -14.9537 -2.18495
H 1.35516 -14.8799 -0.970203
O -3.14451 13.2803 3.33928
H -2.64043 12.8856 2.57112
H -3.08345 12.6682 4.12769
O -6.653 -10.6367 -2.47988
H -6.43781 -9.70234 -2.19585
H -7.62313 -10.8186 -2.31967
O 1.05636 -10.7045 13.7978
H 0.426928 -10.1227 13.2827
H 0.845971 -11.6652 13.6169
O -7.35187 -2.22941 -12.1753
H -6.50393 -2.27201 -11.647
H -7.92509 -1.48807 -11.8264
O 4.67937 8.91822 -2.1172
H 4.82445 8.38094 -1.28641
H 4.69879 8.31314 -2.91308
O -12.71 9.19738 -13.8447
H -13.113 8.31349 -14.0817
H -12.3817 9.64749 -14.6751
O 9.4593 -7.55333 -12.3818
H 9.27806 -6.63863 -12.0207
H 8.7136 -7.82536 -12.99
O 6.95468 1.5433 -3.10578
H 7.34729 2.28937 -3.64353
H 6.46446 0.917392 -3.71229
O -13.4027 6.44996 6.94558
H -14.0288 6.57057 6.17525
H -12.956 5.55808 6.87551
O 0.0347553 5.54653 4.92616
H 0.874035 5.50177 5.46795
H -0.713126 5.11937 5.43424
O 7.17704 -6.99774 -13.687
H 6.87088 -6.50028 -12.8754
H 6.40328 -7.48646 -14.09
O 3.75954 0.262572 11.7823
H 3.18513 1.08067 11.756
H 3.69469 -0.218474 10.9081
O 0.360691 12.2087 8.00336
H 1.02604 12.2053 8.74984
H -0.356322 11.5379 8.19295
O -4.05388 -8.51961 2.02128
H -4.68377 -7.76767 2.2156
H -3.12475 -8.16118 1.93086
O -8.11627 -7.44149 11.1778
H -8.19159 -7.97688 10.3366
H -7.65626 -6.57554 10.9816
O -6.15206 -0.67408 1.63997
H -5.85056 -0.107694 0.873001
H -5.55269 -0.518389 2.42511
O 9.31929 -12.3889 12.1403
H 10.2007 -11.9682 11.9257
H 8.91646 -11.9324 12.9336
O -4.74807 4.10716 -0.551746
H -5.1347 4.79475 0.062806
H -5.13487 3.21094 -0.334693
O 10.8994 -8.02127 -3.69316
H 10.9931 -7.2467 -3.06769
H 10.935 -7.69353 -4.63722
O 9.11849 0.895162 -10.3239
H 8.18142 0.734943 -10.0138
H 9.27567 1.87842 -10.4157
O 12.3403 14.8845 5.5589
H 11.842 -14.6768 4.7951
H 11.7398 14.8273 6.35639
O 11.375 11.0201 5.34906
H 11.3482 11.4239 6.26346
H 11.0643 10.0707 5.39474
O -1.19166 -6.74142 5.41931
H -1.98926 -6.29723 5.82733
H -0.801841 -7.39117 6.07183
O -8.29133 6.34992 -0.193383
H -7.39695 6.65046 -0.524564
H -8.85044 6.05218 -0.967127
O 9.46168 -5.75132 14.2911
H 10.0867 -5.46605 -14.9537
H 8.84055 -6.45211 14.6418
O -2.56525 13.8994 14.3974
H -2.66151 12.9481 14.6904
H -1.98848 14.392 -14.9224
O 8.70812 0.453746 8.1375
H 8.39704 0.895277 8.97905
H 8.98696 1.15196 7.4782
O -3.81862 13.0102 -7.01817
H -4.2677 13.1225 -6.1318
H -3.8794 13.8651 -7.53328
O 9.47589 12.5633 3.87697
H 10.3076 12.2206 4.31364
H 8.81204 12.8198 4.57944
O -6.13835 -12.1912 -13.6237
H -5.17187 -12.0352 -13.4199
H -6.65771 -12.2254 -12.7699
O -3.92785 -9.04761 -5.51432
H -4.81795 -8.70956 -5.20874
H -3.96217 -9.23688 -6.49561
O 3.99236 6.44599 3.15802
H 3.00604 6.29162 3.21537
H 4.18032 7.4263 3.21796
O -6.81226 9.98531 -8.58434
H -7.74038 9.92733 -8.21671
H -6.45833 10.9111 -8.45142
O 13.071 1.68739 10.5983
H 13.5322 0.930399 11.0612
H 12.6159 1.3473 9.77549
O 8.56123 0.696949 14.6
H 7.97273 0.555575 13.804
H 8.00492 0.987998 -14.5931
O 4.14374 4.81958 14.8784
H 4.00593 4.81807 13.888
H 3.69786 4.01876 -14.6932
O 6.40523 10.4513 12.3327
H 7.33692 10.6413 12.6422
H 5.77174 11.0884 12.7717
O 0.919262 4.70581 13.7965
H 0.649695 4.13907 14.575
H 0.108328 4.948 13.2639
O -7.18262 9.02481 -5.43949
H -7.61173 9.40698 -6.25786
H -7.40715 8.05298 -5.36832
O -2.75013 -3.64513 -4.9611
H -2.08606 -4.23028 -4.49577
H -3.61013 -3.64578 -4.45086
O -14.6943 4.95441 2.82769
H 14.5073 4.41224 3.16453
H -14.84 5.91723 3.05506
O -6.50338 12.4276 11.5058
H -5.87744 12.3561 12.2824
H -6.38212 11.6368 10.906
O 5.89659 1.02837 1.71632
H 4.99885 0.972456 2.1532
H 6.17386 1.98654 1.64583
O 1.33459 -13.4919 13.039
H 0.550645 -13.7562 12.4773
H 2.15436 -13.9593 12.7082
O 11.6397 -14.8168 -13.004
H 11.7463 -14.42 -13.9156
H 10.6952 14.8502 -12.8813
O -14.8544 2.80203 8.70812
H -14.7381 2.81532 9.70121
H 14.536 2.02983 8.45093
O 5.5765 7.57296 -8.62967
H 5.65943 8.56517 -8.72227
H 5.93105 7.13055 -9.45339
O 11.8274 3.46093 3.91841
H 11.7121 4.42431 4.16035
H 10.9563 2.98267 4.03015
O -8.73063 -5.20211 12.6869
H -8.783 -6.12067 12.2952
H -8.36286 -5.25611 13.6152
O 7.51697 13.7782 -14.2969
H 7.99111 14.1285 -13.4892
H 6.54657 14.0132 -14.2418
O -13.5287 -14.8328 11.2
H -13.6455 14.159 11.3635
H -12.6279 -14.667 10.7987
O 13.2749 -2.12165 -13.9997
H 13.2295 -1.66656 -14.8889
H 13.3114 -3.11195 -14.1336
O 2.90166 -1.67655 1.99299
H 3.37956 -1.95236 2.82694
H 3.56588 -1.53857 1.25834
O 9.85883 14.4386 9.14462
H 9.73127 -14.9708 8.32739
H 10.0421 -14.9418 9.93019
O -1.72812 -10.793 5.12359
H -1.46489 -11.3005 5.94396
H -1.64749 -11.3875 4.3236
O -8.4106 -13.9469 -14.2706
H -8.14916 -14.7632 -14.7857
H -7.59023 -13.4299 -14.0265
O 2.23639 -6.78027 -5.54283
H 3.00156 -7.42263 -5.50002
H 2.51926 -5.95729 -6.03539
O 13.9404 1.84471 -12.5708
H 13.0683 1.51428 -12.2102
H 13.8803 1.92644 -13.5656
O 12.175 7.45863 8.66256
H 12.9744 6.8807 8.82667
H 11.4283 7.17311 9.26328
O 12.9395 -12.7353 12.4544
H 13.3207 -13.6374 12.2522
H 13.5432 -12.0282 12.0864
O 11.625 -1.26848 3.47069
H 10.7145 -1.66827 3.57606
H 11.6388 -0.679342 2.66282
O 14.1893 -4.54479 -2.3417
H 14.6651 -4.95989 -1.5663
H 13.567 -3.83576 -2.01012
O -7.26578 -5.85818 -0.442096
H -7.4336 -6.54267 0.267299
H -6.66985 -5.14167 -0.079588
O -4.85742 -14.4753 -8.82187
H -4.13224 -14.4434 -9.50964
H -4.6391 -13.844 -8.07776
O -2.6871 4.15308 -6.38529
H -2.49354 4.50646 -5.47009
H -1.9427 4.40433 -7.0039
O 4.96717 12.4079 4.79469
H 4.73168 12.8043 5.68201
H 4.14853 12.362 4.22228
O 14.7638 -7.31632 4.39203
H 14.4924 -7.78111 3.54928
H -14.4994 -7.85023 4.85387
O -12.343 -5.20609 -11.1703
H -12.0443 -6.13095 -11.4056
H -12.8479 -5.22828 -10.3075
O 11.8921 -11.4857 -6.67422
H 11.5327 -12.1658 -6.03527
H 12.7351 -11.0944 -6.30522
O 13.6041 1.61199 14.5077
H 13.8632 1.03207 13.7353
H 12.6163 1.55363 14.6517
O -13.8814 0.751565 -11.4249
H -13.8101 -0.133309 -11.8852
H -14.7363 1.19731 -11.6902
O 4.48815 10.0177 -11.2986
H 5.20655 9.37942 -11.5751
H 4.76891 10.9516 -11.5197
O 14.0162 -13.5828 -8.16329
H 14.4899 -12.7213 -8.34633
H 14.1596 -14.211 -8.92797
O 14.8907 -3.43406 1.59449
H 14.7591 -3.23496 2.56556
H 14.8924 -2.57892 1.07616
O -5.95666 7.63682 -1.33225
H -5.68334 8.11202 -2.16857
H -5.15334 7.48835 -0.75556
O 8.30955 10.9275 -13.6923
H 8.98051 10.5671 -14.3403
H 7.79965 11.6734 -14.1208
O -14.3817 -4.19312 -5.14799
H -13.6306 -3.8519 -5.71312
H -14.3341 -3.77347 -4.24159
O -4.13459 12.5142 -11.8178
H -4.13791 11.6174 -11.3754
H -5.07538 12.798 -12.003
O 3.16586 -14.0885 9.86147
H 3.44522 14.9246 9.80198
H 3.72882 -13.6188 10.5415
O 11.8204 -13.1191 -0.968986
H 10.9255 -13.1599 -1.41321
H 11.9745 -12.1971 -0.613905
O -8.27405 -7.79377 1.55897
H -7.60037 -8.49729 1.33284
H -8.55348 -7.89451 2.5138
O 4.9043 -1.15318 -8.42226
H 3.90434 -1.15419 -8.42566
H 5.2348 -1.417 -7.51612
O -4.91868 -12.3814 10.4619
H -4.85023 -11.3897 10.5705
H -5.88189 -12.6458 10.4142
O 11.523 5.76633 -7.85574
H 12.3803 5.67635 -8.36255
H 10.9029 5.02612 -8.11561
O 11.4473 1.13197 -4.85859
H 12.2918 1.64678 -4.71102
H 11.5188 0.239612 -4.41303
O -7.69559 -5.44293 -14.9203
H -6.70161 -5.46467 -14.8131
H -8.02574 -4.50972 -14.7787
O 11.4163 0.524677 -12.0059
H 10.7685 0.900175 -11.3432
H 10.9294 -0.0639727 -12.6512
O -5.47026 3.85252 -5.23562
H -4.65727 4.132 -5.74638
H -6.28111 4.27084 -5.64483
O -10.3836 -3.65881 4.90069
H -10.0707 -3.93751 3.99277
H -11.2585 -4.09947 5.10149
O -0.93408 14.5962 -13.5042
H -0.796681 14.7946 -12.5338
H -0.262607 13.9187 -13.8042
O 10.5553 9.63245 -14.2918
H 10.494 8.73854 -13.8479
H 11.3974 10.0896 -14.0056
O -4.02716 -12.2856 -7.04964
H -3.11771 -12.2253 -6.63832
H -4.14701 -11.5394 -7.70443
O 3.0671 9.11414 3.40728
H 2.80977 8.90968 2.46287
H 2.84212 10.066 3.61542
O 14.6497 -10.8745 11.5633
H 14.7273 -11.0535 10.5825
H 14.1181 -10.0402 11.7088
O -9.85637 3.78796 8.76293
H -10.245 3.93858 7.85396
H -9.05625 4.37523 8.88483
O 5.77548 -14.3948 5.77044
H 6.16765 -14.2507 6.67895
H 4.82092 -14.0969 5.76839
O -7.69585 13.187 -14.0309
H -7.98391 13.2624 -13.0763
H -6.70648 13.3187 -14.0919
O -3.40176 5.83259 3.6737
H -3.31124 5.55547 4.63023
H -4.31047 5.58325 3.33902
O -10.4333 4.41418 -9.78494
H -11.2319 4.59235 -10.3599
H -10.2026 3.4421 -9.82693
O -1.54832 14.867 0.779755
H -2.30904 -14.468 0.652351
H -1.82373 13.9539 0.479172
O -4.99273 -2.73533 -7.69886
H -5.42662 -3.60667 -7.46986
H -4.00991 -2.79652 -7.52496
O 3.00695 12.0239 -7.61003
H 3.75255 11.472 -7.98351
H 2.62669 11.5691 -6.80475
O -0.470321 8.4451 -7.66393
H 0.165995 8.21563 -6.92747
H -1.37739 8.61632 -7.27942
O -14.2706 -8.56127 8.7124
H -14.8453 -8.01406 9.32087
H -13.7445 -9.21822 9.25236
O 13.2836 -10.9138 -10.5718
H 14.2241 -10.9989 -10.243
H 12.725 -10.4681 -9.8723
O -1.4764 8.08866 -3.51822
H -0.524676 8.07581 -3.8248
H -2.04898 7.61708 -4.18881
O 5.57139 -1.01511 14.8067
H 6.28314 -1.71691 14.778
H 5.42313 -0.65296 13.8865
O -8.11592 -11.2825 6.15199
H -9.07715 -11.0473 6.00838
H -8.03931 -12.2567 6.36429
O -2.16913 9.32033 2.54291
H -1.83414 9.53352 3.46066
H -1.95313 8.36934 2.32181
O 6.20889 1.28867 5.55076
H 6.04056 0.375073 5.92081
H 6.0233 1.28968 4.56817
O 13.347 -8.96808 -2.66766
H 12.4862 -8.75143 -3.12804
H 13.2616 -8.77054 -1.69113
O -3.46393 5.55376 -3.44047
H -4.37762 5.17141 -3.30293
H -3.20363 6.09179 -2.63879
O -10.4815 5.03899 5.02494
H -9.76756 5.12065 4.32954
H -10.3701 4.17573 5.5172
O -2.63992 -5.93366 1.17785
H -2.17715 -5.09681 0.885536
H -3.55393 -5.70861 1.51531
O 1.68062 -2.2848 -5.89815
H 1.1075 -2.96359 -6.35717
H 2.16993 -1.74419 -6.58244
O 13.8139 2.33851 -4.14511
H 14.4617 1.9595 -3.48434
H 13.5796 3.27461 -3.88288
O -12.0566 -10.4355 -2.90354
H -12.4419 -11.2567 -2.48271
H -12.7261 -9.69397 -2.86147
O -0.807021 -14.1378 11.6651
H -1.24716 -13.7702 10.8459
H -0.864357 14.8354 11.6549
O -14.2407 -11.1022 4.60001
H -13.9955 -10.179 4.89587
H -13.4506 -11.7063 4.70359
O -6.26204 1.57128 -4.00916
H -5.66998 0.797362 -4.23375
H -6.0351 2.34658 -4.59851
O 13.7733 -9.32233 6.76031
H 13.2502 -8.60253 7.21649
H 14.6922 -9.36603 7.15244
O -8.62139 -1.68383 -8.28964
H -9.26415 -2.44378 -8.19331
H -8.45481 -1.50915 -9.26003
O -2.5311 10.5309 11.4498
H -2.58102 11.5282 11.5027
H -1.57966 10.2511 11.3215
O 10.674 5.24264 -10.9894
H 11.1421 6.12543 -10.9507
H 11.1307 4.59617 -10.3783
O 8.88071 2.33754 -5.01387
H 9.83033 2.28261 -4.70542
H 8.76638 1.78667 -5.84055
O 11.798 -5.37785 -3.22975
H 12.7347 -5.18085 -2.94048
H 11.227 -4.57021 -3.08284
O -12.916 -11.2601 -14.9093
H -13.5282 -11.784 -14.3171
H -12.9596 -11.6245 14.1319
O 14.789 11.6421 6.17641
H 14.7812 11.2555 5.25424
H 14.4055 10.9789 6.8191
O -4.76408 -3.54494 2.96693
H -3.80588 -3.27275 2.87913
H -5.14728 -3.15094 3.80231
O -2.94186 1.25902 -10.0229
H -3.70715 1.74621 -9.60225
H -3.25948 0.377494 -10.3721
O 7.75475 6.73016 -0.230118
H 8.0169 7.0739 0.671578
H 8.0224 7.39234 -0.929986
O 8.18451 10.8231 -8.80711
H 8.42734 10.7624 -9.77525
H 8.6444 10.093 -8.30174
O -0.557064 12.1636 -6.47533
H -1.08965 13.0013 -6.35459
H -0.0795894 11.9466 -5.62395
O -3.99408 -12.2252 -2.26753
H -4.18291 -12.4285 -3.22823
H -4.6868 -11.5945 -1.91791
O 13.1296 10.9488 -4.11585
H 12.2084 10.9949 -4.50223
H 13.0993 10.4708 -3.23808
O -5.68815 14.7758 2.77314
H -5.18121 13.9231 2.89869
H -5.28317 -14.4801 3.34243
O 2.6855 -14.3899 2.3943
H 3.33643 -14.5402 1.65022
H 2.31796 -13.462 2.33334
O -5.94183 12.9053 6.93313
H -6.56945 12.4866 6.27686
H -6.46283 13.281 7.69953
O 8.55104 0.579252 -7.0548
H 8.35442 -0.35246 -6.74954
H 8.24962 0.690323 -8.00177
O 9.37571 -2.73053 -7.65215
H 8.80104 -3.4483 -8.0452
H 9.89154 -2.28013 -8.38084
O -7.50075 4.55508 -7.01325
H -6.9838 4.60091 -7.868
H -7.97836 3.67821 -6.9592
O 5.77477 -10.1927 9.64731
H 5.83827 -9.91692 8.68824
H 6.27201 -9.53768 10.2161
O -8.90428 -0.0237044 4.26931
H -8.90323 -0.832989 3.68195
H -9.74258 -0.008459 4.81424
O -6.04829 6.46314 2.83177
H -5.54706 7.07278 2.21774
H -7.02971 6.55263 2.66227
O 12.8936 -9.03229 -8.54104
H 11.9613 -8.82929 -8.2416
H 13.4644 -9.22861 -7.74384
O -14.7525 7.88196 1.1147
H 14.2463 7.67034 1.01913
H -14.4025 8.23938 0.248848
O 5.28335 10.9822 -8.71643
H 6.24981 11.2064 -8.59141
H 4.96983 11.338 -9.59678
O 7.70384 -9.5162 -6.5549
H 7.7719 -9.56475 -7.55136
H 7.38748 -10.3956 -6.19919
O -3.23936 -4.54197 -12.9092
H -3.7306 -3.89931 -13.497
H -3.89323 -5.15563 -12.4667
O -6.80235 -4.98391 -10.0852
H -6.3043 -4.1625 -10.3629
H -6.60163 -5.1873 -9.12689
O 6.63703 -4.10405 7.20693
H 7.09037 -3.72346 8.01288
H 5.92588 -4.74486 7.49601
O 2.84389 10.2412 -14.0152
H 2.53446 9.32148 -13.7737
H 3.78643 10.3676 -13.706
O -4.74123 6.1687 -8.6956
H -4.99959 6.68901 -9.50952
H -4.38625 6.79295 -7.99973
O -1.28494 2.24248 -12.1509
H -2.07707 2.03205 -11.5781
H -1.05543 3.21145 -12.0594
O -3.51096 1.09429 -5.79698
H -3.28099 1.92166 -5.28464
H -2.67155 0.606647 -6.03681
O 11.8736 -8.42405 3.78858
H 11.0796 -7.81734 3.7511
H 12.4174 -8.21151 4.60036
O -11.8711 11.0415 -11.7934
H -12.1828 10.4902 -12.5673
H -11.0052 10.6764 -11.4515
O -14.9054 9.95118 -6.84082
H 14.9689 10.802 -7.35716
H -14.9756 10.1452 -5.86238
O -4.07607 -9.5484 5.01792
H -4.55427 -9.77103 4.16839
H -3.11999 -9.83258 4.94654
O -11.5822 14.9639 -2.04052
H -11.1906 -14.8002 -1.14409
H -10.9156 14.4556 -2.58588
O -3.88018 14.8039 7.10398
H -3.15403 14.8962 6.42271
H -4.56956 14.1605 6.77123
O -11.9236 0.496747 4.59346
H -12.6467 -0.100193 4.94098
H -12.1845 0.847541 3.69412
O 5.65333 10.2593 0.766594
H 4.80166 10.7815 0.72264
H 5.55903 9.42193 0.228238
O -7.0153 11.2563 -3.8213
H -7.66886 10.9628 -3.12372
H -6.89012 10.5236 -4.49016
O 12.08 -11.2455 0.796763
H 11.5914 -10.8036 1.54905
H 13.043 -11.3545 1.04311
O 6.02143 -11.7896 2.52008
H 7.00774 -11.7012 2.65899
H 5.83838 -12.0133 1.56279
O 14.6735 0.0378723 12.3801
H 14.1134 -0.738117 12.6701
H -14.7587 -0.221228 11.5788
O 5.02235 3.69824 11.8764
H 4.35575 2.95385 11.9147
H 4.59514 4.50787 11.474
O 6.20206 12.5794 -4.76587
H 5.43254 12.3424 -4.17293
H 5.88046 13.1615 -5.51263
O -9.38832 8.42399 9.77749
H -9.69767 9.12388 9.13375
H -9.24583 8.83776 10.6766
O -10.9265 -0.695344 8.33325
H -10.1037 -1.2441 8.1859
H -11.7252 -1.19598 7.99949
O -2.32011 -10.6197 -10.1422
H -2.83068 -10.2953 -9.34599
H -1.57613 -9.98253 -10.3434
O 0.340686 -0.187779 4.41632
H 1.11856 0.198188 3.92047
H -0.464244 0.388236 4.27411
O -14.1137 -0.760256 5.65726
H -13.9126 -1.26893 6.49436
H -14.811 -1.24679 5.13099
O 14.3995 -0.790599 9.29145
H -14.6569 -0.947354 9.66319
H 13.9681 -1.66908 9.08639
O -1.64803 5.44083 -8.40027
H -2.61317 5.4558 -8.66146