2593
Atoms. Timestep: 1000000
O 9.22788 7.46006 -12.3928
H 9.29985 8.30215 -11.8583
H 8.3775 6.98862 -12.1592
O -12.7731 -10.4557 -10.8127
H -13.519 -10.4151 -11.4776
H -12.7673 -9.61791 -10.2667
O -6.54294 4.01026 8.51452
H -7.39537 4.53309 8.51251
H -6.73679 3.05581 8.28772
O -12.5161 6.62726 -6.8507
H -12.0459 7.12269 -7.58108
H -13.4505 6.97223 -6.7619
O -14.8106 -7.48742 -5.38996
H 14.1252 -7.35681 -5.69538
H -14.7625 -8.28486 -4.78849
O -13.9426 14.9145 10.1685
H -14.7213 -14.4487 10.5255
H -14.2537 14.3009 9.44283
O 4.45191 -5.2833 -1.19584
H 4.07717 -4.5887 -1.80993
H 4.11626 -5.1235 -0.267506
O 2.95222 12.5664 -7.72708
H 2.65981 12.5668 -6.77079
H 3.06889 11.6236 -8.03947
O 4.33501 -10.2941 14.2543
H 4.97535 -10.5598 13.5336
H 4.33094 -10.9921 -14.9086
O -4.47954 5.35998 9.10986
H -4.20709 5.77208 8.24041
H -5.23922 4.72821 8.95573
O -14.2375 1.17663 -2.93074
H -14.1232 1.66225 -2.06408
H -14.0816 1.80851 -3.68997
O 8.93475 -0.614755 6.95572
H 8.73826 -1.46076 6.46007
H 9.81185 -0.244928 6.64925
O -11.5462 -13.5577 3.6873
H -11.0824 -14.3963 3.97327
H -12.2744 -13.7837 3.04029
O 6.4284 -6.04285 -9.92695
H 6.71399 -6.67693 -10.6455
H 5.96344 -6.54944 -9.20089
O -13.1312 -2.81874 -2.78244
H -12.7063 -2.19563 -3.4391
H -14.062 -3.03184 -3.07938
O -6.03696 2.31334 -0.291632
H -6.18789 2.65446 0.636191
H -5.72903 3.06364 -0.876631
O 1.35088 -11.8432 -1.28337
H 1.22377 -12.169 -2.22024
H 0.603127 -11.225 -1.04108
O -9.42148 -14.9326 -3.85897
H -8.46241 14.6675 -3.90773
H -9.59314 -14.2107 -4.52931
O 8.62735 10.3534 -4.11217
H 8.86231 10.8223 -4.96359
H 9.365 10.4779 -3.44857
O 1.92278 7.0039 -9.87882
H 1.07312 7.49656 -9.69079
H 2.06783 6.30877 -9.17473
O -6.44189 12.6194 -1.269
H -6.03726 13.3798 -0.76107
H -7.43826 12.662 -1.19533
O -13.8719 -2.41496 -10.2642
H -13.0398 -2.48681 -10.8141
H -14.2066 -3.33139 -10.0447
O 0.267251 -7.11383 -8.13292
H 0.124618 -6.23053 -8.5795
H 0.93221 -7.00988 -7.39331
O -0.684867 -14.454 -5.55804
H -0.0210236 -14.5299 -6.30205
H -0.963843 -13.4991 -5.45646
O -11.4358 -13.9753 -5.81613
H -11.1828 -14.8218 -6.28465
H -11.094 -13.192 -6.33534
O 5.49064 11.6019 7.59774
H 4.75113 11.9457 8.17648
H 5.2891 10.6619 7.32273
O 8.47558 7.79569 -6.97429
H 8.85645 7.98799 -6.06988
H 8.09856 6.86958 -6.98715
O -13.6717 7.68414 3.0207
H -14.6463 7.79292 3.21648
H -13.17 8.47203 3.37785
O 7.9947 -12.7434 -7.62497
H 8.18994 -11.7627 -7.63893
H 7.33584 -12.9418 -6.89935
O 5.02995 9.59565 -3.91542
H 5.40321 10.0026 -4.74914
H 4.71819 10.3207 -3.30133
O 3.08846 5.30924 -4.34928
H 3.87849 5.68928 -3.86821
H 2.51116 4.81222 -3.70144
O -12.1233 2.00142 4.26632
H -11.7208 1.21034 4.7269
H -11.4959 2.77765 4.32741
O 11.7759 -6.75327 2.07887
H 12.1898 -7.41082 1.44932
H 11.1218 -6.18269 1.58233
O -3.77871 10.1386 -0.306846
H -3.45058 10.9187 0.225946
H -4.75241 9.99834 -0.127345
O 11.7622 -6.3224 -1.81212
H 12.0527 -7.00691 -1.14352
H 10.7903 -6.12401 -1.68522
O 9.30193 7.3878 2.91693
H 8.68932 7.84361 2.27121
H 9.95163 8.05244 3.2859
O -3.6238 14.5577 -3.68501
H -3.40493 13.9734 -4.46643
H -3.38032 14.086 -2.83753
O 14.0723 -10.3531 -8.86644
H 13.6633 -10.5348 -7.97217
H -14.8638 -10.6859 -8.87551
O 13.5415 -12.4409 -3.62047
H 14.4523 -12.8241 -3.46697
H 13.1663 -12.8044 -4.47316
O 10.7793 -2.83472 8.67587
H 10.5137 -3.57432 8.05745
H 10.0741 -2.12573 8.66979
O -6.48121 -5.47093 1.59901
H -6.25367 -6.38209 1.94254
H -7.00545 -5.55551 0.751654
O -11.22 1.74627 -7.25766
H -11.0579 2.09422 -6.33427
H -11.0132 2.46204 -7.92466
O 0.951938 -11.0478 7.37012
H 1.23984 -11.974 7.61332
H 0.1976 -10.7666 7.96335
O 3.17402 -4.99094 -8.50894
H 2.88591 -5.24462 -7.58556
H 3.89286 -4.29785 -8.45521
O 6.49767 2.31833 -6.92499
H 6.34945 3.18989 -7.39235
H 7.38105 1.93874 -7.19986
O -4.7946 -11.7817 10.664
H -5.03276 -10.8127 10.7297
H -5.58708 -12.2985 10.3402
O 2.22286 -14.2286 8.62135
H 1.3326 -13.8334 8.84779
H 2.32635 -14.2695 7.62756
O 3.78861 -3.52882 10.784
H 3.13771 -4.13692 11.2384
H 3.35914 -3.12447 9.97647
O -7.66443 10.1834 -8.27313
H -7.57674 10.9637 -7.65394
H -7.56819 9.33384 -7.75445
O -0.397902 -5.57928 11.105
H -1.32267 -5.22981 10.9544
H -0.298888 -5.85955 12.0598
O 6.25558 -7.25837 -1.4433
H 6.33438 -7.88342 -2.21989
H 5.69295 -6.47348 -1.70292
O 5.62628 -12.7871 -5.98913
H 5.51684 -13.2451 -5.10695
H 5.15923 -13.3146 -6.69877
O 8.99519 -5.96193 11.4746
H 8.29553 -5.32864 11.1438
H 9.74047 -6.01214 10.8098
O -12.5182 2.58967 7.91416
H -13.3943 2.13909 7.74282
H -12.0579 2.7654 7.04393
O 4.2091 8.31214 3.68564
H 4.06719 7.90097 4.58608
H 4.03536 7.62912 2.9762
O 8.3402 -5.60607 -13.6439
H 8.88979 -6.15982 -14.2694
H 7.7377 -5.00673 -14.1709
O 9.84917 1.44388 9.75421
H 9.22781 1.92961 9.13941
H 9.94698 1.9599 10.6052
O -0.449305 0.740798 13.505
H -0.960089 0.786409 14.3635
H 0.526509 0.646757 13.7024
O 1.28963 6.63154 -1.67607
H 0.505416 7.25005 -1.62654
H 2.10738 7.10304 -1.34594
O -4.35021 -5.14623 -11.861
H -4.44083 -4.40576 -12.5269
H -3.38118 -5.33913 -11.7068
O -0.559452 8.82918 -10.9261
H -0.0822295 9.70429 -10.8458
H -1.34955 8.93453 -11.5299
O -10.9749 13.2611 4.69528
H -10.385 12.5107 4.3972
H -11.7577 13.3354 4.07748
O 0.485746 11.9768 9.51862
H 0.149009 12.6517 10.1752
H 0.370081 11.0581 9.89608
O 13.3453 9.01593 6.8409
H 13.5659 9.11693 7.81103
H 13.4214 8.05349 6.58025
O 9.02137 1.42182 -7.28501
H 9.41325 1.11714 -8.15311
H 9.74225 1.47388 -6.5939
O 7.0706 -13.7406 6.89242
H 7.59012 -13.8355 6.04326
H 6.09363 -13.8257 6.69673
O 6.83111 2.55572 -11.0614
H 7.45315 3.23101 -10.6651
H 7.31202 2.03161 -11.7642
O 0.463926 -1.74679 4.67225
H 1.32623 -1.28097 4.47363
H 0.525323 -2.70092 4.37925
O -7.13185 6.15074 14.7227
H -7.43129 5.204 14.6043
H -7.93147 6.7444 14.8132
O 4.47186 -12.2721 -12.9693
H 5.02202 -12.8039 -13.6132
H 4.67226 -12.5686 -12.0355
O 8.37819 -11.4523 -0.338477
H 7.48038 -11.4178 -0.777491
H 8.29206 -11.8751 0.56365
O -8.07983 -9.39089 -5.06839
H -8.47936 -8.93422 -5.86326
H -7.08992 -9.24926 -5.06525
O -7.6796 11.4137 11.6607
H -8.44737 11.3828 12.3007
H -7.40633 10.4817 11.4226
O 8.31533 -11.2883 14.141
H 8.17669 -12.2735 14.2412
H 8.78035 -11.1035 13.2752
O -12.6136 12.3325 2.14818
H -11.8557 12.2013 1.50918
H -12.4331 11.8217 2.98875
O -13.4272 -13.9255 14.7826
H -12.9776 -14.818 14.7446
H -13.2359 -13.4198 13.9414
O 7.83615 13.1451 7.1079
H 7.47528 14.0777 7.10922
H 7.07946 12.495 7.03873
O -14.1647 -0.234633 1.26886
H -14.6445 0.230821 0.525119
H -14.5064 0.100219 2.147
O -13.361 4.05592 -8.00269
H -14.052 4.11455 -8.72324
H -12.9555 4.95809 -7.85554
O 3.43653 1.36852 11.9456
H 4.14042 0.815608 12.3915
H 3.03811 0.852561 11.1872
O -4.80993 14.9091 6.65405
H -4.112 -14.5762 7.25224
H -5.22358 14.1162 7.10143
O 4.92678 -13.3054 13.0853
H 4.65149 -13.8549 12.2965
H 5.4248 -12.4972 12.771
O -12.3434 -9.69358 11.5193
H -12.7934 -9.58137 12.4052
H -12.5088 -10.6182 11.1761
O -11.3322 10.4128 -6.3696
H -12.2111 10.0805 -6.71199
H -11.1757 10.0537 -5.44953
O 9.09026 3.35585 7.7965
H 9.07494 2.98808 6.86671
H 8.47951 4.14567 7.85264
O 14.0956 -9.61401 12.3842
H -14.7876 -9.66471 12.4601
H 13.7094 -10.5344 12.4451
O 7.80239 8.03799 11.6397
H 7.83662 7.56403 12.5196
H 7.92534 7.37659 10.8998
O 13.1343 -7.67667 14.1874
H 12.2108 -7.55544 13.8237
H 13.6321 -8.33359 13.6211
O 8.15038 1.16075 3.18781
H 7.17823 1.21539 3.41571
H 8.3369 0.291868 2.72928
O 12.1631 6.85425 -9.67899
H 11.8431 6.13365 -9.06389
H 11.5909 7.66668 -9.56672
O -11.222 -0.126094 5.4005
H -11.5642 -0.500468 4.5387
H -11.3591 -0.794129 6.1319
O 10.5633 12.803 -3.98848
H 10.3843 12.3873 -4.8802
H 10.5897 12.0901 -3.28769
O 2.10012 -2.48577 8.74426
H 2.25832 -1.76491 8.06949
H 1.50095 -2.1405 9.46661
O 14.7324 -5.8057 -14.1572
H 13.8952 -6.34866 -14.2224
H -14.5999 -5.93551 14.8947
O 13.6539 10.5068 -2.77008
H 14.1674 9.89414 -3.37086
H 14.0021 10.4269 -1.8361
O 0.480759 9.06614 9.86027
H 1.06216 9.30939 10.6367
H 0.78274 8.1926 9.47852
O -7.20661 12.7302 3.62044
H -6.27387 12.3971 3.75849
H -7.25278 13.7003 3.8586
O -11.3177 10.8244 -3.21972
H -12.0545 11.5 -3.24248
H -11.2379 10.4491 -2.29621
O -4.52875 9.52401 -2.90256
H -3.62625 9.40431 -3.31628
H -4.42868 9.94154 -1.99943
O -13.3709 8.64039 0.154172
H -14.112 9.26095 -0.102072
H -13.4901 8.35336 1.10464
O 2.01177 -6.03177 -6.17019
H 2.66458 -6.77468 -6.02212
H 1.59609 -5.77451 -5.29783
O 13.2483 -9.28018 -11.8156
H 13.1957 -9.98926 -11.1124
H 14.1864 -9.21763 -12.1563
O -11.1649 -5.8864 -12.3094
H -11.2952 -4.97327 -11.9231
H -10.311 -5.9096 -12.8293
O 11.624 3.1649 -2.68402
H 11.2006 2.76871 -1.86927
H 12.5888 3.35299 -2.50034
O -6.69307 0.670385 8.24705
H -6.28108 -0.2339 8.1351
H -6.74253 1.12645 7.35848
O -5.08129 -6.54235 4.79783
H -4.71461 -6.97947 5.61908
H -5.64105 -5.75634 5.06025
O -11.7523 -1.1372 2.88489
H -11.9205 -2.05481 2.52475
H -12.529 -0.546127 2.66714
O -3.02268 -11.015 7.80943
H -2.06102 -11.0351 8.08293
H -3.2138 -10.161 7.32562
O 14.3525 13.5433 8.38593
H 14.0515 12.7515 8.91744
H 13.6512 13.7792 7.71326
O 7.2979 -2.91794 8.04969
H 6.60125 -2.29314 7.69713
H 7.81215 -2.46655 8.77892
O 11.5395 14.7079 7.40587
H 11.0478 14.777 8.2739
H 10.9309 14.3317 6.70714
O 7.01065 5.72984 -11.5798
H 6.12584 5.86586 -11.1341
H 7.64714 5.30679 -10.9349
O 10.8646 -13.8176 12.5111
H 10.205 -13.8219 13.2627
H 11.4819 -13.0376 12.6138
O 11.0512 -12.4027 2.87805
H 11.484 -12.6565 2.01303
H 10.8475 -11.4237 2.8742
O -14.5287 -9.60233 -3.76987
H -13.5865 -9.91036 -3.63749
H -14.8444 -9.13185 -2.94589
O 8.05375 -12.8364 9.34078
H 7.85511 -13.3607 8.51276
H 7.85007 -11.8705 9.18057
O -0.0126998 0.68546 6.74683
H -0.130956 1.08649 5.83843
H -0.90909 0.481802 7.14054
O -1.05308 7.24253 -8.20568
H -1.64168 7.61487 -8.92325
H -0.369156 7.92507 -7.94802
O 5.13716 -4.43398 6.40796
H 4.46307 -3.83173 6.83561
H 6.04411 -4.23653 6.78006
O -7.04515 -6.26146 8.42598
H -7.74379 -6.04906 7.74275
H -6.47208 -7.01106 8.0948
O 10.0605 14.0591 -11.396
H 9.65193 14.6881 -10.7346
H 10.6464 14.5707 -12.0245
O 14.7295 -7.69488 -9.20335
H 14.1997 -8.54201 -9.16296
H -14.1761 -7.91352 -9.27204
O 3.59374 -5.45294 1.79342
H 2.72703 -5.8629 2.07756
H 4.27768 -6.17185 1.66935
O -3.83985 -13.5137 8.57356
H -3.50199 -12.6753 8.146
H -4.16383 -13.3096 9.49734
O -6.35991 -7.22116 -10.7599
H -5.89082 -6.59095 -11.3786
H -5.79906 -8.03861 -10.6286
O -7.16037 7.37326 1.04154
H -6.48407 6.69957 1.33946
H -6.70626 8.08964 0.511847
O -5.82308 12.2843 9.8154
H -6.62989 12.033 10.3501
H -5.01059 12.2387 10.3966
O -13.6386 9.10213 -12.6364
H -13.6305 10.0398 -12.2888
H -13.6121 9.11688 -13.6359
O -8.41451 4.4485 -11.6733
H -9.4105 4.39647 -11.7461
H -8.13313 5.4071 -11.6296
O -8.66453 12.1484 -3.93858
H -9.5224 11.6484 -3.81995
H -8.51206 12.3226 -4.9114
O -13.8273 -5.85955 2.30005
H -14.5636 -5.18292 2.31176
H -14.2186 -6.77871 2.34513
O -2.28348 -12.6927 -1.67527
H -2.02513 -13.5006 -1.1456
H -3.23092 -12.448 -1.46916
O 5.6457 14.4019 3.0043
H 5.47336 -14.4935 3.05702
H 5.42247 13.9769 3.88154
O 4.24256 -6.90854 6.52157
H 4.44697 -7.22751 7.44703
H 4.53677 -5.95778 6.42411
O -6.64911 -6.81408 -1.19061
H -6.55995 -5.8772 -1.52869
H -7.58939 -6.97145 -0.888778
O 6.12254 -14.7651 9.82263
H 5.39195 -14.5517 10.4712
H 6.55209 -13.9167 9.51342
O -8.35373 3.58426 14.2104
H -8.55497 3.03736 13.3977
H -7.71725 3.08541 14.7986
O 9.01847 10.9434 4.77466
H 8.05848 10.6643 4.79726
H 9.59485 10.1784 5.06201
O 11.4156 -3.31973 11.3923
H 11.074 -3.18185 10.4626
H 11.8907 -4.198 11.446
O 12.458 2.20793 4.36043
H 12.2792 2.58275 3.45075
H 13.4062 2.3948 4.61741
O 6.40627 -11.9345 -2.02361
H 6.41658 -12.7195 -2.64307
H 5.51295 -11.4872 -2.0672
O -12.9625 13.3781 -3.3011
H -12.7942 14.2368 -2.81699
H -13.8863 13.0551 -3.09534
O -0.555819 4.42027 -8.74901
H -0.806833 5.38409 -8.65935
H -0.702904 3.95494 -7.87618
O -13.2386 -14.4672 6.983
H -14.0559 14.8509 6.85098
H -13.3522 -13.8995 7.79838
O 4.51271 7.04617 13.4858
H 4.72469 6.12183 13.8031
H 4.51962 7.06517 12.486
O -2.66504 -3.82182 1.62426
H -2.96884 -3.96759 2.56578
H -3.30808 -3.21531 1.15667
O -6.89309 -9.86277 6.90979
H -6.288 -9.9127 6.1152
H -7.81053 -10.1637 6.64954
O -0.544111 -1.74956 -3.25323
H -0.329136 -0.786285 -3.09235
H -0.422627 -1.96071 -4.2231
O -3.22057 9.55467 -12.2762
H -3.42598 8.59006 -12.1109
H -3.72784 9.87082 -13.0779
O -8.83402 -1.51023 5.85226
H -9.61638 -0.887693 5.83373
H -8.22484 -1.30285 5.08683
O -0.862281 -12.202 13.1292
H 0.0939843 -11.9251 13.2233
H -1.2172 -11.8815 12.251
O 12.9566 -1.43015 -11.41
H 12.7413 -0.454413 -11.3702
H 13.7112 -1.63074 -10.7852
O -14.1776 -12.3383 -6.67268
H -13.5967 -11.6022 -6.32538
H -14.0594 -13.1526 -6.10439
O 6.16519 10.5466 -6.0024
H 5.84 10.0489 -6.80652
H 7.08157 10.9051 -6.18039
O -11.5057 -8.40149 -6.69157
H -10.6024 -7.97888 -6.61732
H -12.2086 -7.72809 -6.46252
O -0.676717 12.033 -6.67315
H -0.0190903 12.7323 -6.39309
H -1.59823 12.3168 -6.40804
O 13.8384 -7.97592 6.29109
H 13.38 -8.79601 5.94859
H 13.4028 -7.16383 5.90279
O -14.5398 -12.9958 4.57993
H -13.9001 -13.4001 5.23359
H 14.4396 -13.4186 4.68905
O -7.49479 -6.00296 12.6188
H -6.80137 -6.70602 12.7765
H -7.05111 -5.11119 12.53
O -12.4098 11.8576 -11.423
H -12.3351 11.1951 -10.6777
H -13.2508 12.3876 -11.3148
O 0.81078 -2.45709 -0.908976
H 0.517318 -3.09856 -0.200182
H 0.349778 -2.67663 -1.76879
O 12.9276 -10.1735 4.14811
H 12.3848 -10.2803 3.31506
H 13.8982 -10.1338 3.91072
O -8.08602 -10.5646 -8.39321
H -7.34292 -10.58 -7.72421
H -7.82569 -9.98763 -9.16734
O -11.7637 -10.5826 -3.02588
H -11.4384 -11.5253 -2.95184
H -11.1293 -9.97283 -2.55077
O 9.32622 3.3986 1.99688
H 8.99031 2.6202 2.52721
H 8.60549 3.71901 1.38216
O 12.5947 13.8385 11.8659
H 11.9012 13.1687 11.6008
H 12.2071 14.4729 12.5347
O 10.7935 -13.7364 -7.47429
H 11.0766 -14.3869 -8.17903
H 9.8979 -13.3589 -7.70968
O -14.6143 -8.74723 8.47364
H 14.591 -8.54224 9.18364
H -14.9184 -8.35908 7.60363
O -1.2204 4.55656 3.7044
H -0.907002 4.88085 2.81187
H -2.21825 4.60726 3.74589
O -1.97639 14.417 2.33552
H -1.03695 14.5246 2.6609
H -2.61012 14.7681 3.0248
O -8.04974 8.0834 8.9544
H -8.90712 8.55169 9.16796
H -8.04888 7.81215 7.9919
O 2.69596 -8.89495 -3.99459
H 2.79982 -9.3531 -3.1118
H 3.57032 -8.49295 -4.2664
O 7.89082 -2.68629 4.94784
H 7.0066 -2.25198 4.77599
H 8.35617 -2.85047 4.07807
O 2.25674 8.20195 -4.41026
H 2.4537 7.22813 -4.29683
H 3.1144 8.70563 -4.51375
O -8.3795 -14.6183 -6.42301
H -8.91139 -14.2943 -7.20539
H -8.05628 -13.8348 -5.89227
O 3.83925 -10.376 9.84628
H 3.30318 -9.5784 10.1228
H 3.92492 -10.3909 8.85007
O -7.40614 0.329352 -7.70642
H -7.59046 1.152 -8.24426
H -7.62833 -0.48053 -8.24931
O -2.40567 -6.94385 -14.6889
H -3.20999 -7.52074 -14.5465
H -2.01677 -6.68978 -13.8033
O -9.08999 7.94702 11.658
H -8.15278 8.27894 11.5509
H -9.31436 7.89027 12.6309
O 9.6501 11.5823 12.3363
H 10.0134 11.7717 11.4241
H 10.2717 10.9673 12.8215
O 10.1833 -2.80948 2.99821
H 10.8106 -2.2084 3.49332
H 9.77099 -2.30747 2.23794
O -4.29452 6.70082 -7.21014
H -4.52827 6.03235 -6.5041
H -3.51495 6.36707 -7.74012
O 7.95422 5.47871 4.80304
H 8.00726 6.1831 4.09521
H 8.65018 4.78129 4.63205
O -11.9358 -10.9962 -6.04161
H -11.9222 -10.9712 -5.04202
H -11.6383 -10.1118 -6.40121
O 5.50475 -7.3812 1.32267
H 6.20478 -7.24671 2.024
H 5.94127 -7.45644 0.426129
O 11.1721 0.323692 -13.5973
H 10.7966 -0.170453 -14.3813
H 11.1914 -0.280451 -12.8006
O 0.125553 -9.25954 11.6331
H 0.872119 -8.94254 12.218
H -0.728218 -9.26099 12.1537
O -11.4355 -3.00626 -11.6289
H -11.3822 -2.41395 -12.4328
H -10.8709 -2.62567 -10.8965
O -2.76589 -4.25052 13.7064
H -2.41902 -4.95812 14.322
H -2.17143 -3.44773 13.7528
O 14.093 7.87241 -8.09916
H 13.5501 7.68397 -7.28078
H 13.6737 7.42317 -8.88805
O -9.74555 4.10514 1.87311
H -9.4455 4.75567 1.17542
H -10.4988 3.55448 1.51346
O -3.16366 7.50423 2.59492
H -3.25385 8.40209 3.02587
H -2.20432 7.22236 2.60952
O -2.25546 -10.9899 2.00236
H -2.33258 -10.4221 1.18282
H -1.35024 -11.414 2.03009
O 14.493 10.875 5.07516
H 14.3416 11.8578 5.18133
H 13.9372 10.3782 5.74174
O -9.97703 0.335392 -3.52719
H -9.01259 0.481597 -3.74736
H -10.3832 1.19629 -3.2208
O 6.33847 -8.12951 -11.8472
H 5.60727 -7.80143 -12.4452
H 6.93286 -8.75102 -12.3575
O -2.31439 -7.73349 -4.15578
H -1.92868 -7.76388 -5.0779
H -2.83672 -8.56901 -3.98527
O -8.83769 -2.83635 9.28484
H -8.73826 -3.35054 8.43295
H -9.02306 -1.87634 9.07503
O 0.806296 -8.98461 1.18605
H 0.0301794 -9.27492 0.626262
H 0.727535 -9.38572 2.09869
O -2.12982 0.529095 -14.3712
H -3.07635 0.207273 -14.3935
H -1.89039 0.796063 -13.4377
O -5.16395 8.32732 13.6631
H -5.80724 7.56285 13.621
H -5.11372 8.77026 12.7679
O 12.4599 5.94933 6.33536
H 12.1414 5.56886 7.20354
H 11.8693 5.62954 5.59454
O 12.3342 10.7247 1.34909
H 11.3635 10.5534 1.18035
H 12.4763 11.7003 1.51661
O 12.6071 0.893188 8.60783
H 11.7555 1.37118 8.82276
H 12.8587 0.300138 9.37269
O 2.36192 11.96 14.8849
H 2.34294 12.634 14.1464
H 3.02926 12.2402 -14.3042
O -6.9639 -3.43309 -5.86764
H -6.81472 -2.54822 -5.42634
H -6.19614 -3.63613 -6.47535
O -2.21806 9.58309 -4.4916
H -1.54131 8.84886 -4.43762
H -2.56054 9.6525 -5.42855
O -2.87622 14.0149 10.3401
H -3.31039 13.2092 10.7431
H -3.38025 14.2909 9.52171
O -2.97825 2.626 -3.91146
H -3.31711 2.90512 -3.01298
H -2.02462 2.33557 -3.83255
O -13.1194 -8.49653 -0.748211
H -12.3125 -8.03637 -1.11853
H -13.9345 -8.18466 -1.23653
O -9.89906 -12.5384 -8.01666
H -10.7642 -12.3285 -8.47219
H -9.31895 -11.7239 -8.0113
O -1.85567 12.371 7.57741
H -1.0245 12.1493 8.08728
H -2.05429 13.3466 7.67182
O 4.54155 -7.05724 -5.05517
H 4.7351 -6.1605 -5.45318
H 5.23579 -7.27419 -4.36892
O -9.83955 -5.25247 1.41851
H -10.6988 -4.75738 1.28974
H -9.24038 -5.08972 0.634608
O 14.6057 -12.5653 -13.7401
H 14.1511 -11.7879 -14.175
H -14.5955 -12.9486 -14.3674
O -9.74868 3.74542 4.5434
H -8.87966 3.4512 4.94119
H -9.64919 3.83189 3.55212
O -10.6083 14.3377 7.26625
H -11.5007 14.7844 7.33102
H -10.4727 13.9974 6.33576
O 10.5033 -3.72377 -13.1684
H 9.83027 -4.45092 -13.0333
H 10.9394 -3.83493 -14.0614
O 12.5089 6.63594 14.4281
H 12.5951 7.09157 -14.565
H 13.2944 6.86984 13.8551
O 5.75899 -4.90701 -5.93411
H 6.61706 -5.30736 -6.25575
H 5.5262 -4.11735 -6.50177
O -7.62606 11.9958 -10.5471
H -6.75389 11.9777 -11.0359
H -7.52706 11.5238 -9.67107
O 6.16963 11.8102 14.8604
H 5.33452 12.0375 -14.5178
H 6.38586 10.8431 -14.8849
O -8.63558 -13.6402 7.70802
H -9.28339 -14.3048 7.33574
H -9.02116 -12.7206 7.63258
O -4.51674 11.9441 7.21231
H -3.53419 12.0146 7.38443
H -4.97023 11.5659 8.01934
O -7.61058 -1.83078 -10.1687
H -6.80536 -2.39985 -10.002
H -8.28917 -1.99557 -9.45295
O -9.01826 -1.63363 2.2122
H -8.78332 -0.685022 2.00018
H -9.9599 -1.81514 1.92871
O -4.19212 6.20332 11.5043
H -4.32324 5.92662 10.5523
H -4.72396 7.03015 11.6873
O -6.55129 -1.3415 -3.92283
H -6.89553 -0.460377 -4.24705
H -7.28228 -1.83008 -3.44645
O -10.3937 -8.34076 -14.7012
H -10.2971 -8.44804 -13.7117
H -10.0112 -7.45989 14.8992
O -14.7888 0.802451 7.77509
H -14.441 -0.0904161 8.06112
H 14.1253 0.880141 8.0257
O 10.4824 -0.612511 13.3927
H 10.8973 -1.38051 12.9049
H 9.53016 -0.510229 13.105
O -9.05313 -7.35465 -9.99983
H -8.06757 -7.38238 -10.1669
H -9.30286 -6.46138 -9.62607
O 4.88345 12.6549 1.04157
H 5.01611 13.0326 1.95792
H 5.56381 13.0425 0.41956
O -11.6362 -7.23028 10.953
H -11.9245 -8.18763 10.9725
H -10.639 -7.1836 10.8948
O 6.44716 2.79119 -3.87099
H 6.59079 1.82029 -3.67938
H 6.38477 2.93022 -4.85931
O -8.45962 7.65811 5.99145
H -9.07205 7.50442 5.21601
H -7.72791 8.28314 5.71952
O 13.8544 8.96565 3.3807
H 13.1294 9.35719 2.81415
H 14.1986 9.66238 4.01008
O 12.4492 -11.7973 12.8434
H 11.8358 -11.3327 12.2048
H 12.5422 -11.2493 13.6747
O 2.01943 0.207058 9.82111
H 1.56197 0.913526 9.28108
H 1.33357 -0.364782 10.2712
O 0.00115092 11.7684 5.15461
H -0.19081 12.744 5.04836
H -0.300605 11.2783 4.33683
O 4.84446 0.286086 -2.53881
H 5.14173 -0.302816 -3.29035
H 3.84634 0.347334 -2.53809
O -0.176977 14.2137 11.094
H -1.15813 14.1766 10.9044
H -0.0298914 14.5458 12.0257
O 13.277 9.28946 11.7292
H 13.5641 10.0831 11.1928
H 13.5758 8.45206 11.2715
O 10.8165 8.68731 5.21027
H 10.5456 7.89969 5.7637
H 11.7939 8.85986 5.33196
O -3.55871 3.81116 13.2081
H -3.8114 4.70797 12.845
H -4.26333 3.499 13.8454
O 5.08715 -1.06336 -14.0682
H 5.29116 -2.02863 -13.905
H 4.25439 -0.986757 -14.6165
O -1.36183 -14.7632 6.82082
H -1.17284 -14.316 7.69507
H -2.15531 -14.3325 6.39081
O -9.47636 -10.6868 6.65042
H -9.95067 -10.595 5.77487
H -9.9026 -10.0844 7.32521
O 13.3626 3.07965 -6.2398
H 14.3365 3.04475 -6.01551
H 13.1953 2.56342 -7.07976
O 2.18462 -4.62418 7.20926
H 2.06114 -5.54973 7.56717
H 1.99813 -3.95943 7.93267
O -6.69408 -4.46998 -2.36493
H -5.94206 -3.95454 -1.95409
H -6.62269 -4.42654 -3.36143
O 0.23635 9.54159 -7.27036
H -0.305476 10.296 -6.8999
H 1.0175 9.90876 -7.77533
O 1.20044 -1.14709 -10.9418
H 1.69889 -1.34883 -10.0987
H 1.5417 -1.7308 -11.6786
O 5.09534 -1.18751 7.53202
H 4.09775 -1.13214 7.57368
H 5.48175 -0.265574 7.55884
O 3.30178 -5.69767 -11.2195
H 3.37638 -5.54068 -10.2347
H 2.73046 -6.50121 -11.3866
O 9.09294 -14.0186 4.83228
H 9.42045 -13.6261 3.97281
H 9.61565 -14.845 5.04192
O -6.55032 14.3091 -3.75856
H -6.69922 13.321 -3.72068
H -5.58865 14.4938 -3.96129
O 7.98134 6.22067 13.5949
H 7.50112 5.63958 14.2519
H 8.55772 6.87359 14.0863
O 13.76 -13.7273 11.0585
H 13.475 -14.6766 11.1907
H 13.4813 -13.1823 11.8492
O 12.7927 -4.88921 -11.3757
H 12.3035 -4.12794 -11.8012
H 12.4494 -5.75336 -11.7436
O 1.88906 6.19727 9.70186
H 0.906677 6.27005 9.87397
H 2.20829 5.28877 9.97151
O -3.62759 -12.7435 -6.91638
H -3.33913 -12.619 -5.96701
H -2.93649 -12.3583 -7.52795
O -0.180909 6.87667 12.3688
H 0.278529 6.14184 12.8677
H -0.170355 7.71104 12.9199
O -1.61144 6.62599 10.2563
H -2.5336 6.53326 10.6318
H -0.964938 6.79966 10.9992
O 5.16021 6.80191 -6.45556
H 4.47622 6.44495 -5.81937
H 5.36408 6.11022 -7.14838
O 12.7164 -12.8422 8.69113
H 12.4099 -13.6081 8.12596
H 13.0169 -13.1842 9.5815
O 1.02722 -13.0815 -14.472
H 1.42319 -12.6607 14.5909
H 0.595581 -13.9487 -14.7201
O 6.92239 -9.87833 -13.8296
H 7.48575 -10.3937 -14.4754
H 6.21807 -10.4778 -13.4494
O 4.29991 13.6627 -11.0192
H 4.54949 12.7721 -10.6389
H 3.3218 13.8207 -10.8838
O 3.71387 1.25658 -6.43569
H 3.05001 1.88088 -6.84744
H 4.63657 1.51545 -6.72134
O -8.11085 13.1559 -13.4387
H -7.8698 14.0584 -13.7957
H -8.20287 13.2046 -12.4441
O 10.545 12.7601 10.2444
H 10.721 12.6977 9.26197
H 10.3661 13.7125 10.4911
O -13.8276 2.83383 -5.22062
H -13.2544 3.31216 -4.55529
H -13.3592 2.80396 -6.10364
O -10.3532 5.17146 13.7967
H -9.65224 4.56418 14.1706
H -10.8001 4.72654 13.0206
O 12.8216 -2.78048 -1.90557
H 12.9506 -3.74837 -2.1213
H 13.0424 -2.2276 -2.70904
O -6.85988 -8.36163 -14.2758
H -7.15532 -9.03862 -13.6017
H -6.68588 -7.48964 -13.8182
O 7.13576 -2.22093 -10.8197
H 7.30118 -1.64119 -11.6175
H 6.1785 -2.14046 -10.5419
O -14.3534 -9.47712 -13.3691
H -14.0262 -8.6072 -13.0001
H -14.0673 -9.56306 -14.3234
O -12.9712 4.52996 -2.96059
H -13.9135 4.71118 -2.67897
H -12.4631 5.39041 -2.99757
O -11.2386 -13.2454 -2.23115
H -10.486 -13.6954 -2.71188
H -11.4806 -13.7768 -1.41934
O -5.32011 11.2888 -5.20919
H -4.96191 10.7985 -4.41467
H -5.38827 10.6616 -5.98505
O -3.74034 -7.85799 6.75861
H -4.31844 -8.16086 7.51628
H -2.86826 -7.52499 7.11719
O 0.820707 4.74428 -13.1891
H 0.212172 4.68035 -13.98
H 0.394861 5.31387 -12.4861
O -2.13963 9.67314 10.9237
H -2.33264 9.42138 11.8721
H -1.52281 8.99828 10.5186
O 8.74186 -4.42605 -9.70154
H 8.05092 -5.10511 -9.94948
H 8.42144 -3.51476 -9.96013
O -11.7399 13.3244 -6.21491
H -11.4402 12.3726 -6.27989
H -11.6369 13.6427 -5.27253
O 1.38282 -14.102 5.68172
H 0.515959 -14.3247 6.12774
H 1.33993 -14.3673 4.71853
O 1.58311 -11.8094 -8.97005
H 1.8861 -12.3745 -8.20271
H 1.73668 -12.301 -9.82718
O -6.05804 9.17305 10.8471
H -5.25609 9.74153 10.6635
H -6.43378 8.83776 9.98318
O -14.3162 -10.4406 3.66799
H -13.6153 -9.87825 4.10667
H -14.3279 -11.3474 4.08924
O -11.6179 7.14644 10.3856
H -11.906 6.18957 10.4231
H -10.6665 7.22008 10.6845
O 6.87952 1.99847 12.0266
H 7.77254 1.9532 11.5789
H 6.67383 2.94764 12.2648
O -5.11745 -12.0052 -1.33255
H -5.76746 -12.6667 -1.70651
H -5.48536 -11.0811 -1.43643
O 14.366 6.81286 10.8786
H 13.5043 6.32471 10.7397
H 14.9098 6.77423 10.0403
O -10.0365 5.79764 -5.41951
H -10.8456 6.10893 -5.91792
H -9.89471 6.37868 -4.61808
O -8.99762 -5.0813 -8.4014
H -9.97761 -4.88305 -8.41938
H -8.53388 -4.41706 -7.81513
O -9.40328 -9.45072 9.16603
H -8.68989 -10.059 8.8181
H -9.01141 -8.83333 9.84813
O -8.81651 -5.12271 6.67162
H -9.67696 -5.41487 7.08907
H -8.91288 -5.1202 5.67628
O 3.09315 -10.8609 2.7855
H 3.45966 -10.4711 1.94071
H 3.17353 -10.1914 3.52391
O -14.1062 -1.80499 8.70054
H -13.9634 -1.82359 9.69011
H -14.8669 -2.40876 8.46218
O -2.5063 11.8617 1.43581
H -2.52367 12.8021 1.77526
H -1.70143 11.3915 1.79785
O 10.6627 10.6291 -2.25332
H 11.6356 10.5951 -2.48202
H 10.489 10.0593 -1.4501
O 13.9293 -4.3694 2.40916
H 13.1753 -5.01304 2.27779
H 13.848 -3.62184 1.74996
O -1.11217 -12.7168 -11.2169
H -0.132172 -12.5564 -11.3347
H -1.30214 -13.6951 -11.3004
O 0.267608 -1.66397 11.0749
H -0.5997 -1.88039 10.6267
H 0.322426 -2.15006 11.9471
O -11.2903 14.8248 12.8358
H -10.8903 -14.1591 13.0326
H -11.0244 14.5359 11.9161
O -11.0434 -11.9589 -12.4585
H -11.5739 -11.4508 -11.7799
H -11.1097 -12.9384 -12.2681
O -4.59717 -12.1979 2.49774
H -5.30575 -11.6748 2.02408
H -3.70257 -11.7915 2.3119
O 10.8842 14.6966 -14.2948
H 11.5574 -14.7149 -13.7219
H 11.3076 13.8976 -14.722
O -14.1873 9.18859 14.1422
H -13.279 9.18074 13.7238
H -14.869 9.43759 13.4543
O 6.28464 -3.76412 -8.42617
H 6.37411 -4.45026 -9.14812
H 6.77042 -2.93235 -8.6948
O 0.190512 -10.8943 -6.4111
H 0.914056 -10.7474 -7.08557
H 0.558823 -11.4022 -5.63242
O -14.7457 2.23611 5.30617
H -14.8966 1.71856 6.14841
H -13.845 2.01197 4.93406
O -9.57004 6.06884 -9.2515
H -9.83702 5.11689 -9.40151
H -8.60952 6.10615 -8.97582
O -0.684917 -14.8677 13.7392
H -0.95807 -13.906 13.7187
H -1.35684 14.485 14.2603
O 2.31664 0.182541 -4.32933
H 2.86618 0.546207 -5.08149
H 2.11635 -0.782379 -4.49906
O 8.70147 -13.9962 14.4066
H 9.44536 -14.2826 -14.8686
H 8.27204 -14.8031 14.001
O 12.0212 -3.71482 -5.82091
H 11.892 -3.82553 -6.80633
H 11.8429 -4.58497 -5.36153
O 7.3022 5.50267 -5.48291
H 7.61961 5.35366 -4.5464
H 6.511 6.11414 -5.47336
O -0.0671353 11.841 -3.61707
H -0.586694 12.1213 -2.80993
H -0.655098 11.304 -4.22201
O 1.98171 1.71343 -10.1119
H 2.90539 1.45525 -9.82876
H 1.38485 1.74802 -9.31026
O 14.6538 7.71074 -3.83604
H 14.2351 7.63566 -2.93104
H 14.0388 7.32057 -4.52127
O 11.6161 -5.20806 7.20858
H 11.052 -5.32726 6.39149
H 12.3794 -4.59658 7.00033
O -5.38879 -8.57613 8.73503
H -5.46726 -8.76653 9.71359
H -5.72206 -9.36238 8.2147
O 2.45581 7.58877 -14.5879
H 3.15868 7.69442 14.5878
H 2.34994 6.61961 -14.3654
O -4.49329 13.5072 13.8028
H -4.1026 14.4032 13.5916
H -5.49072 13.5583 13.7526
O 4.45111 6.88948 10.3448
H 3.48379 6.69214 10.1856
H 4.63738 7.84611 10.1209
O -6.6321 2.4362 6.04584
H -6.06701 2.16608 5.26629
H -6.63665 3.43307 6.12469
O 7.94648 6.0391 7.50171
H 8.07476 5.75225 6.55236
H 8.67529 6.67337 7.75964
O -14.9325 11.7342 12.4614
H 14.175 12.3703 12.4612
H -14.2241 12.0697 13.0825
O -4.52046 12.6861 4.58688
H -4.64827 12.3826 5.5311
H -4.21688 13.6389 4.58121
O -11.7561 6.03849 -0.36189
H -10.795 6.16408 -0.607717
H -12.239 6.90992 -0.448526
O -12.9112 -12.0875 10.5657
H -13.3718 -11.8255 9.7176
H -12.8054 -13.0815 10.5942
O -10.0352 3.08048 -5.17199
H -9.99726 4.05559 -5.39042
H -10.4959 2.95337 -4.29354
O -1.39402 -8.64485 -6.53203
H -0.796565 -9.41565 -6.31088
H -0.989418 -8.11205 -7.27528
O 5.52189 4.67246 -8.37427
H 5.29402 5.08113 -9.25805
H 4.96624 3.85318 -8.23271
O 11.2747 9.92498 13.5038
H 11.4942 10.6518 14.1546
H 12.1096 9.63056 13.0388
O 13.4997 -3.25869 8.70158
H 13.5531 -4.13203 9.18575
H 12.5405 -3.00535 8.57594
O -0.840729 -10.1495 -0.726328
H -1.35434 -10.8911 -1.15781
H -0.658497 -9.43394 -1.40068
O -10.072 11.0439 13.1199
H -10.8948 10.4767 13.1533
H -10.0281 11.6161 13.9389
O -12.2032 -0.38331 -5.34113
H -11.9191 0.128513 -6.15188
H -11.6378 -0.113639 -4.56163
O -5.2914 6.31095 -13.4213
H -4.82456 5.43163 -13.3273
H -5.88258 6.28993 -14.2276
O 4.05264 -2.53275 -4.91345
H 4.50688 -3.41831 -5.01066
H 4.74117 -1.81219 -4.83142
O 10.9398 -9.88622 6.09382
H 10.7217 -8.94149 5.84896
H 11.5856 -10.2622 5.42935
O 4.32973 -7.94556 -13.6653
H 3.90332 -7.1043 -13.9976
H 4.66535 -8.4785 -14.442
O -12.9729 5.44121 4.43688
H -13.4942 5.38984 5.28867
H -13.1579 6.31385 3.98493
O -8.27259 1.03136 1.17295
H -8.90242 1.78787 0.996852
H -7.36662 1.26245 0.818235
O -12.7163 -6.14838 -6.26592
H -13.5415 -6.39741 -5.75882
H -12.8363 -5.24336 -6.67401
O 11.436 -0.521799 0.620952
H 10.7127 -0.836554 0.0062857
H 12.1204 -1.24306 0.727147
O 10.2734 5.67698 -2.23662
H 10.9007 4.89825 -2.22448
H 9.35265 5.35981 -2.4637
O 2.66743 11.0034 4.08629
H 2.76251 10.0155 4.20877
H 1.77994 11.2992 4.43966
O 1.68265 14.4953 -10.9025
H 2.03009 -14.6383 -11.4713
H 0.683792 14.4793 -10.9476
O -5.21116 5.58949 1.3615
H -4.66868 5.33043 0.562373
H -4.62918 6.06916 2.01817
O 6.19951 -10.1189 -5.98697
H 5.95948 -11.0896 -6.00252
H 7.16323 -10.0099 -6.23062
O -7.07238 6.94126 -11.2391
H -6.24063 6.88785 -11.7917
H -7.38461 7.89036 -11.1977
O -0.936074 9.98255 2.84933
H -0.751085 9.22629 3.4769
H -0.596767 9.74993 1.93788
O -1.9875 -9.71672 -11.8244
H -1.93867 -9.71247 -12.8232
H -1.61899 -10.5787 -11.4764
O 14.1056 -1.80301 13.4421
H 13.6292 -0.933006 13.5691
H 14.3254 -2.19614 14.3349
O -14.181 8.422 8.5127
H -13.5601 8.54813 7.73903
H -13.9217 9.04251 9.25278
O -5.08417 2.89241 -14.744
H -4.31735 3.38805 -14.3362
H -5.75654 2.67736 -14.0357
O -3.3186 1.83328 -7.06567
H -3.90557 1.19069 -7.55815
H -3.86522 2.60838 -6.74876
O -11.9311 -9.23469 7.79242
H -11.2859 -9.25532 8.5561
H -12.863 -9.33652 8.1406
O -13.0381 0.229684 13.6708
H -12.8179 -0.649029 13.2473
H -13.2359 0.902875 12.9583
O 10.0134 7.5286 7.77507
H 10.7367 7.05105 8.27394
H 10.1274 8.51579 7.88668
O -9.22736 9.03212 1.53822
H -8.66937 8.20517 1.60746
H -8.63853 9.83785 1.60204
O 10.762 3.07014 -10.9186