LAMMPS data file via write_data, version 15 May 2015, timestep = 2000000

2611 atoms
6 atom types
1749 bonds
4 bond types
894 angles
3 angle types
44 dihedrals
3 dihedral types
10 impropers
1 improper types

-1.5031938686438066e+01 1.5031938686438066e+01 xlo xhi
-1.5031938686438066e+01 1.5031938686438066e+01 ylo yhi
-1.5031938686438066e+01 1.5031938686438066e+01 zlo zhi

Masses

1 15.9994
2 1.00794
3 12.0107
4 1.00794
5 12.0107
6 12.0107

Bond Coeffs # harmonic

1 1000 1
2 469 1.4
3 367 1.08
4 469 0.7

Angle Coeffs # harmonic

1 100 109.47
2 35 120
3 63 120

Dihedral Coeffs # opls

1 0 7.25 0 0
2 0 7.25 0 0
3 0 7.25 0 0

Improper Coeffs # cvff

1 2.5 -1 2

Atoms # full

688 230 1 -8.1999999999999995e-01 -9.6125305266311916e+00 -9.4878214863924129e+00 -1.2032693765346322e+01 -1 1 1
690 230 2 4.0999999999999998e-01 -9.5953951184136059e+00 -8.4939385878677633e+00 -1.2141869380928140e+01 -1 1 1
1639 547 1 -8.1999999999999995e-01 -9.9149947055167580e+00 -1.3263099515128959e+01 -1.0724990164253086e+01 0 1 2
1404 468 2 4.0999999999999998e-01 -1.2264192365639412e+01 -7.1527676002437373e+00 -1.3125628781624139e+01 -1 0 0
2037 679 2 4.0999999999999998e-01 -1.1492850979502538e+01 -1.1705734168011714e+01 -9.7881073611669756e+00 0 -1 1
447 149 2 4.0999999999999998e-01 -8.3404741692848532e+00 -1.1942253689690023e+01 -1.0049329538290710e+01 1 -1 0
2036 679 2 4.0999999999999998e-01 -1.2741135205303225e+01 -1.1497219745264179e+01 -1.0820084992694680e+01 0 -1 1
21 7 2 4.0999999999999998e-01 -1.2402565276470147e+01 -1.5026096575910531e+01 -8.7402733400707149e+00 -1 -1 0
689 230 2 4.0999999999999998e-01 -9.7951472959754540e+00 -9.7149635102548295e+00 -1.1076098870329282e+01 -1 1 1
2521 841 1 -8.1999999999999995e-01 -1.2417955906534996e+01 -1.4721915227025633e+01 -1.0385418661269812e+01 0 -1 2
2381 794 2 4.0999999999999998e-01 -1.3143801747540717e+01 -9.1692716840027408e+00 -1.3143274589542393e+01 -3 1 1
45 15 2 4.0999999999999998e-01 -7.5364210493689967e+00 -1.5024447423011571e+01 -1.2447977310838988e+01 -1 1 1
2574 858 2 4.0999999999999998e-01 -1.2533522703075009e+01 -7.7237944264477001e+00 -9.8106722567289015e+00 -1 0 1
2573 858 2 4.0999999999999998e-01 -1.1853348886933365e+01 -9.1475805577316436e+00 -1.0231226959337064e+01 -1 0 1
2572 858 1 -8.1999999999999995e-01 -1.1968196166609491e+01 -8.1889893774845604e+00 -1.0491859318773928e+01 -1 0 1
1303 435 1 -8.1999999999999995e-01 -1.0408894085464238e+01 -1.2494546006508806e+01 -1.3552771822924100e+01 0 -2 0
1471 491 1 -8.1999999999999995e-01 -1.3500504115873882e+01 -1.2168599385728879e+01 -1.2466248012239674e+01 -1 -1 0
2557 853 1 -8.1999999999999995e-01 -8.5878771509992280e+00 -6.3884948014796290e+00 -1.4920770760885699e+01 -1 2 0
2382 794 2 4.0999999999999998e-01 -1.3005558016963729e+01 -8.3500966178079423e+00 -1.1737390354695204e+01 -3 1 1
1304 435 2 4.0999999999999998e-01 -9.4966058039893184e+00 -1.2215267936407358e+01 -1.3852354957420257e+01 0 -2 0
1843 615 1 -8.1999999999999995e-01 -1.2229444786748964e+01 -1.0363051804390226e+01 -1.4211685586861561e+01 0 0 0
33 11 2 4.0999999999999998e-01 -8.8130300672753492e+00 -8.5380585690653010e+00 -9.3898655351618387e+00 1 -1 0
2380 794 1 -8.1999999999999995e-01 -1.3548974235043621e+01 -8.4570707325835137e+00 -1.2570019646966943e+01 -3 1 1
1844 615 2 4.0999999999999998e-01 -1.1345954271006969e+01 -1.0575181956478712e+01 -1.3793999740511005e+01 0 0 0
31 11 1 -8.1999999999999995e-01 -9.3183997012218978e+00 -9.3797129383417257e+00 -9.1995089291682639e+00 1 -1 0
1061 354 2 4.0999999999999998e-01 -1.0634407699722960e+01 -7.1092550048100813e+00 -1.0765828077919881e+01 -1 2 1
1641 547 2 4.0999999999999998e-01 -1.0583322279666149e+01 -1.3731758654957305e+01 -1.0147311157442680e+01 0 1 2
2523 841 2 4.0999999999999998e-01 -1.2957585099668982e+01 -1.4013860002601598e+01 -1.0840912139851266e+01 0 -1 2
1305 435 2 4.0999999999999998e-01 -1.0401903711695777e+01 -1.2651487007833630e+01 -1.2565180340650821e+01 0 -2 0
1640 547 2 4.0999999999999998e-01 -9.5472489790986970e+00 -1.3905315342194712e+01 -1.1397551042910992e+01 0 1 2
1060 354 1 -8.1999999999999995e-01 -1.0108970451333288e+01 -6.4192735524543139e+00 -1.1263680955716747e+01 -1 2 1
1670 557 2 4.0999999999999998e-01 -1.3291143740612972e+01 -1.0502206211523283e+01 -8.6108126758502088e+00 -1 1 0
1829 610 2 4.0999999999999998e-01 -1.4202101134743840e+01 -6.6230284531720027e+00 -9.3345648257080018e+00 -1 -1 1
1893 631 2 4.0999999999999998e-01 -8.6176405408300489e+00 -1.0321182522894958e+01 -1.3291148399365248e+01 0 2 0
1891 631 1 -8.1999999999999995e-01 -8.2244962192549629e+00 -1.0771103395909600e+01 -1.4093036779407381e+01 0 2 0
1671 557 2 4.0999999999999998e-01 -1.4084264274935865e+01 -9.0800307149775890e+00 -8.4881493468323264e+00 -1 1 0
696 232 2 4.0999999999999998e-01 -1.3757679617361132e+01 -1.4654100849036537e+01 -1.4648224450608192e+01 0 0 1
1828 610 1 -8.1999999999999995e-01 -1.3914814175037819e+01 -7.2416898015990299e+00 -8.6033052671664301e+00 -1 -1 1
1892 631 2 4.0999999999999998e-01 -8.3098911452347082e+00 -1.0170146585688347e+01 -1.4887753585499658e+01 0 2 0
1402 468 1 -8.1999999999999995e-01 -1.1533178307757074e+01 -6.7683417260077778e+00 -1.3689411953366097e+01 -1 0 0
1403 468 2 4.0999999999999998e-01 -1.0797207978641289e+01 -6.4358633911258298e+00 -1.3099647565984876e+01 -1 0 0
1472 491 2 4.0999999999999998e-01 -1.4475739077362627e+01 -1.2224336628974360e+01 -1.2680318845025392e+01 -1 -1 0
1062 354 2 4.0999999999999998e-01 -1.0091812411127975e+01 -5.5693085860106084e+00 -1.0737105881918868e+01 -1 2 1
2035 679 1 -8.1999999999999995e-01 -1.2274799497007326e+01 -1.1125977083311819e+01 -1.0017136635626008e+01 0 -1 1
32 11 2 4.0999999999999998e-01 -9.2565736803062393e+00 -9.5923055724369881e+00 -8.2243176097856114e+00 1 -1 0
1669 557 1 -8.1999999999999995e-01 -1.3844651803655371e+01 -9.9251526807219275e+00 -8.0102676355514433e+00 -1 1 0
2558 853 2 4.0999999999999998e-01 -7.6286672668398383e+00 -6.1483726968143397e+00 -1.4771526209695468e+01 -1 2 0
578 193 2 4.0999999999999998e-01 -8.9321931327989876e+00 -5.2633654747370731e+00 -8.4238149737087511e+00 0 0 0
1473 491 2 4.0999999999999998e-01 -1.2992518750976473e+01 -1.1914989910146492e+01 -1.3289442559262168e+01 -1 -1 0
577 193 1 -8.1999999999999995e-01 -9.5098074213343686e+00 -5.8027724568225825e+00 -7.8111013205155819e+00 0 0 0
446 149 2 4.0999999999999998e-01 -7.5444336144605781e+00 -1.0613026389611155e+01 -9.5334382776201494e+00 1 -1 0
1830 610 2 4.0999999999999998e-01 -1.3931991674518729e+01 -6.7556399093051631e+00 -7.7295337661268393e+00 -1 -1 1
1001 334 2 4.0999999999999998e-01 -1.6396137825100148e+00 -1.3146708805359353e+01 -1.0513212327922680e+01 1 0 1
445 149 1 -8.1999999999999995e-01 -7.4405043438743297e+00 -1.1558247786387348e+01 -9.8429077836963792e+00 1 -1 0
711 237 2 4.0999999999999998e-01 -5.2818295698201752e+00 -1.4658368894049010e+01 -1.4532814401260323e+01 0 1 0
1815 605 2 4.0999999999999998e-01 -2.8046092668505995e+00 -6.1137336983630597e+00 -7.6983377712377283e+00 0 -1 1
2114 705 2 4.0999999999999998e-01 -2.7300093622947053e-01 -1.0987709475611492e+01 -8.0340840122692878e+00 -1 1 1
994 332 1 -8.1999999999999995e-01 -2.7813943523678688e+00 -5.1560979993677787e+00 -9.1735116889226305e+00 0 0 0
2421 807 2 4.0999999999999998e-01 -4.8246035532964413e+00 -1.4681819520325012e+01 -1.1155506763461117e+01 1 1 0
2110 704 1 -8.1999999999999995e-01 -2.4891779157321547e+00 -1.2528124108900251e+01 -1.4337552911288478e+01 0 1 1
1853 618 2 4.0999999999999998e-01 -1.1900224742270495e+00 -7.4612655071642076e+00 -9.6330230203448881e+00 -1 -1 1
2345 782 2 4.0999999999999998e-01 -5.6101674912574833e+00 -1.4685628821823720e+01 -8.7267289124507492e+00 2 0 0
604 202 1 -8.1999999999999995e-01 -5.7819296447103437e+00 -7.2403674969483953e+00 -8.1680644300417775e+00 0 0 2
2344 782 1 -8.1999999999999995e-01 -6.4163259492565281e+00 -1.4698046005620949e+01 -9.3183120536450161e+00 2 0 0
2111 704 2 4.0999999999999998e-01 -1.5181587462397506e+00 -1.2695317899960372e+01 -1.4508386923496564e+01 0 1 1
2590 864 1 -8.1999999999999995e-01 -5.8934215982999447e+00 -5.4710084773453964e+00 -1.4971748527158521e+01 -1 0 0
2346 782 2 4.0999999999999998e-01 -6.9097784336647763e+00 -1.3833020869126003e+01 -9.2274691261865609e+00 2 0 0
995 332 2 4.0999999999999998e-01 -2.9469735300953825e+00 -5.9339510019518524e+00 -9.7797661589817348e+00 0 0 0
1852 618 1 -8.1999999999999995e-01 -2.9965686161964200e-01 -7.0900766073126889e+00 -9.8966212655994248e+00 -1 -1 1
1947 649 2 4.0999999999999998e-01 -7.3790171896201926e+00 -5.8483199458369857e+00 -1.0597930725987178e+01 0 1 0
2051 684 2 4.0999999999999998e-01 -3.8356480390646368e+00 -1.0378104329159886e+01 -9.8249923574212907e+00 0 1 2
928 310 1 -8.1999999999999995e-01 -5.2619857536199568e+00 -7.4292706214826927e+00 -1.2593325867733315e+01 0 0 0
2419 807 1 -8.1999999999999995e-01 -4.1935394551863237e+00 -1.4978645465426672e+01 -1.1872213555535751e+01 1 1 0
240 80 2 4.0999999999999998e-01 -4.7344375863987178e+00 -1.0570386106360910e+01 -1.4293405911028056e+01 0 -2 -1
606 202 2 4.0999999999999998e-01 -6.2112766001998718e+00 -7.2777510603996074e+00 -9.0704390662446848e+00 0 0 2
44 15 2 4.0999999999999998e-01 -7.1133014837530650e+00 -1.4876108995313281e+01 -1.4018211461111258e+01 -1 1 1
1002 334 2 4.0999999999999998e-01 -2.9649404433423605e+00 -1.3530721964027181e+01 -1.1386546613673556e+01 1 0 1
710 237 2 4.0999999999999998e-01 -3.8595806973645796e+00 -1.3858365480289272e+01 -1.4470586707634160e+01 0 1 0
2050 684 1 -8.1999999999999995e-01 -3.0679452984269986e+00 -1.0137484723163553e+01 -9.2310639691975638e+00 0 1 2
1945 649 1 -8.1999999999999995e-01 -6.9099758945861343e+00 -6.7211867095123843e+00 -1.0463320074894792e+01 0 1 0
661 221 1 -8.1999999999999995e-01 -1.9726653435671970e-01 -1.4127373240831803e+01 -9.6199077525505317e+00 -1 0 0
930 310 2 4.0999999999999998e-01 -4.8075971469918244e+00 -8.2105635826392636e+00 -1.3021261025713043e+01 0 0 0
239 80 2 4.0999999999999998e-01 -3.4690855273741601e+00 -9.8444121945610696e+00 -1.3559569579052560e+01 0 -2 -1
1782 594 2 4.0999999999999998e-01 -2.2187759252266588e+00 -1.1001417119518671e+01 -1.1751076836457418e+01 -1 0 1
1313 438 2 4.0999999999999998e-01 -6.2795836885796650e+00 -1.3125898382531815e+01 -1.3244885368430571e+01 -1 -1 -1
1946 649 2 4.0999999999999998e-01 -6.4110679675776652e+00 -6.9632945142886058e+00 -1.1295480435064345e+01 0 1 0
605 202 2 4.0999999999999998e-01 -4.8398162526979718e+00 -7.5692764118390103e+00 -8.2333134588707750e+00 0 0 2
929 310 2 4.0999999999999998e-01 -5.5967694678311126e+00 -6.8088733389279543e+00 -1.3302581278660362e+01 0 0 0
2112 704 2 4.0999999999999998e-01 -2.6371213024714013e+00 -1.2395088129101849e+01 -1.3357537413063376e+01 0 1 1
1314 438 2 4.0999999999999998e-01 -6.7389549337881007e+00 -1.1638375455197590e+01 -1.3737757734805172e+01 -1 -1 -1
1000 334 1 -8.1999999999999995e-01 -2.2723743552949891e+00 -1.2828990724353787e+01 -1.1219388961711957e+01 1 0 1
2011 671 1 -8.1999999999999995e-01 -3.5400322413833543e+00 -7.5385304756047802e+00 -1.0495976065459885e+01 0 0 1
2113 705 1 -8.1999999999999995e-01 -2.5471567556240871e-01 -1.0213385257408760e+01 -8.6666216124541222e+00 -1 1 1
1312 438 1 -8.1999999999999995e-01 -5.9597242316630723e+00 -1.2252323199572176e+01 -1.3611726592665795e+01 -1 -1 -1
43 15 1 -8.1999999999999995e-01 -6.7698538387477623e+00 -1.4908431578013101e+01 -1.3079587365949280e+01 -1 1 1
2443 815 1 -8.1999999999999995e-01 -4.9016555900027470e+00 -1.1011976080342343e+01 -1.0840882047788693e+01 2 -1 1
2115 705 2 4.0999999999999998e-01 -1.1573754182734337e+00 -1.0100967880719919e+01 -9.0820538514682987e+00 -1 1 1
2168 723 2 4.0999999999999998e-01 -9.4793738185266818e-02 -5.1089242916576900e+00 -1.0042352645364902e+01 2 0 1
2052 684 2 4.0999999999999998e-01 -3.2772560101228745e+00 -1.0405597763232517e+01 -8.2906807453549263e+00 0 1 2
1780 594 1 -8.1999999999999995e-01 -2.0165303486261141e+00 -1.0455932713728044e+01 -1.2564440026294191e+01 -1 0 1
2013 671 2 4.0999999999999998e-01 -3.3145189621515900e+00 -8.5117639916953074e+00 -1.0540433587482040e+01 0 0 1
1781 594 2 4.0999999999999998e-01 -1.0282080050936688e+00 -1.0436806734655061e+01 -1.2715666278831730e+01 -1 0 1
238 80 1 -8.1999999999999995e-01 -4.3857463832304404e+00 -9.7047621215821227e+00 -1.3934065222380298e+01 0 -2 -1
2445 815 2 4.0999999999999998e-01 -5.8527309579677329e+00 -1.1219392687232716e+01 -1.0611861691061648e+01 2 -1 1
2012 671 2 4.0999999999999998e-01 -4.0377337202291006e+00 -7.2736416996716908e+00 -1.1321895806916583e+01 0 0 1
2444 815 2 4.0999999999999998e-01 -4.6685555990744145e+00 -1.1438678929448574e+01 -1.1714727192959256e+01 2 -1 1
709 237 1 -8.1999999999999995e-01 -4.3703893198855734e+00 -1.4580640949460989e+01 -1.4936857958424078e+01 0 1 0
10 4 1 -8.1999999999999995e-01 -1.2055340694575314e+01 -9.7164729422404701e+00 -3.6558743269361802e+00 -1 1 0
11 4 2 4.0999999999999998e-01 -1.1202629708176378e+01 -9.3007923249858671e+00 -3.9722756323806916e+00 -1 1 0
1627 543 1 -8.1999999999999995e-01 -1.2067887570525068e+01 -6.5624764933733033e+00 -4.0819697138669202e+00 0 -1 2
1629 543 2 4.0999999999999998e-01 -1.1847882712617167e+01 -7.4933846367729728e+00 -3.7903808533859991e+00 0 -1 2
2197 733 1 -8.1999999999999995e-01 -1.1492289788126225e+01 -1.2842154230841482e+01 -2.9571039247446702e+00 0 0 1
411 137 2 4.0999999999999998e-01 -8.2728551039085225e+00 -1.2212543860812081e+01 -3.2728309453488134e+00 -2 1 -1
1274 425 2 4.0999999999999998e-01 -9.0181193562208080e+00 -7.9741467759082907e+00 -3.9513414487528529e+00 0 0 -1
2198 733 2 4.0999999999999998e-01 -1.1188298004345533e+01 -1.2242134752364953e+01 -3.6970916158333331e+00 0 0 1
12 4 2 4.0999999999999998e-01 -1.2118756401499658e+01 -9.6313748043816751e+00 -2.6615137655416365e+00 -1 1 0
410 137 2 4.0999999999999998e-01 -9.0284985663840125e+00 -1.1345156113788692e+01 -2.1138179736352605e+00 -2 1 -1
409 137 1 -8.1999999999999995e-01 -8.1388485955175884e+00 -1.1620274565275883e+01 -2.4783024421347815e+00 -2 1 -1
1273 425 1 -8.1999999999999995e-01 -9.7809559167563975e+00 -8.5207315908536465e+00 -4.2968002550109663e+00 0 0 -1
1275 425 2 4.0999999999999998e-01 -9.7601153897145103e+00 -8.5277541962246826e+00 -5.2965664857509065e+00 0 0 -1
1180 394 1 -8.1999999999999995e-01 -1.2707263971945590e+01 -5.6404519787979677e+00 -1.5227632685791956e+00 0 1 0
1197 399 2 4.0999999999999998e-01 -1.3249314351293595e+01 -6.3790027816276318e+00 -5.4645406424933807e+00 -1 0 -1
2525 842 2 4.0999999999999998e-01 -1.3051524958018334e+01 -1.0251706371301177e+01 -5.0359848827738531e+00 -1 2 0
990 330 2 4.0999999999999998e-01 -9.1258757625653235e+00 -1.0924845137991513e+01 -6.2693825173282356e+00 1 1 2
1920 640 2 4.0999999999999998e-01 -1.4365192262114800e+01 -1.4481106045721894e+01 -4.0801471371813740e+00 1 0 1
272 91 2 4.0999999999999998e-01 -1.0759221164205069e+01 -8.7830838906033470e+00 -5.8880904869107731e-01 -2 0 1
2199 733 2 4.0999999999999998e-01 -1.2484432706720959e+01 -1.2769394902480245e+01 -2.8552476819873576e+00 0 0 1
346 116 1 -8.1999999999999995e-01 -8.9233347158162406e+00 -1.2975375224493886e+01 -4.7777284885038558e+00 -2 0 1
347 116 2 4.0999999999999998e-01 -8.1338148972673565e+00 -1.3583855190653068e+01 -4.8578955081739874e+00 -2 0 1
182 61 2 4.0999999999999998e-01 -1.1345843481799527e+01 -1.4810387285593041e+01 -4.9727945190100691e+00 0 -1 1
2524 842 1 -8.1999999999999995e-01 -1.3726457477249827e+01 -1.0853604717371701e+01 -5.4628346269719170e+00 -1 2 0
348 116 2 4.0999999999999998e-01 -9.6925292778345131e+00 -1.3358228931730526e+01 -5.2893718696399965e+00 -2 0 1
2526 842 2 4.0999999999999998e-01 -1.3755877264416698e+01 -1.0676711299493185e+01 -6.4466331005695690e+00 -1 2 0
2325 775 2 4.0999999999999998e-01 -8.2582848559431667e+00 -9.1234816382754591e+00 -4.7696938790106280e-01 1 0 1
1181 394 2 4.0999999999999998e-01 -1.2613827554116121e+01 -5.5543765218308465e+00 -2.5146689422850201e+00 0 1 0
271 91 1 -8.1999999999999995e-01 -1.1597641160549205e+01 -8.4543134573191985e+00 -1.0235251607807232e+00 -2 0 1
273 91 2 4.0999999999999998e-01 -1.1574949743859422e+01 -7.4561091995873694e+00 -1.0791097064030186e+00 -2 0 1
1195 399 1 -8.1999999999999995e-01 -1.3914103526530123e+01 -6.0402701930642237e+00 -6.1303722599818666e+00 -1 0 -1
181 61 1 -8.1999999999999995e-01 -1.0989931259611421e+01 -1.4247322529542528e+01 -5.7186502169712128e+00 0 -1 1
1474 492 1 -8.1999999999999995e-01 -8.2333778890959302e+00 -7.0567745226237086e+00 -2.3150003704305142e+00 -1 0 2
1475 492 2 4.0999999999999998e-01 -8.9937849257032205e+00 -7.1455348263979008e+00 -1.6716350697283175e+00 -1 0 2
775 259 1 -8.1999999999999995e-01 -1.4234489690983311e+01 -1.2756729871079905e+01 -3.5786703134590123e+00 0 0 1
783 261 2 4.0999999999999998e-01 -8.5823518607011771e+00 -5.5895442091138126e+00 -3.1594227896935809e+00 0 1 2
777 259 2 4.0999999999999998e-01 -1.4634339034142643e+01 -1.2323986235648118e+01 -2.7706668129113865e+00 0 0 1
1628 543 2 4.0999999999999998e-01 -1.1266285477853915e+01 -5.9770152236697651e+00 -3.9607865000197897e+00 0 -1 2
155 52 2 4.0999999999999998e-01 -1.1855805338001680e+01 -1.4014452774821072e+01 -9.1814667639324732e-01 -2 1 -1
776 259 2 4.0999999999999998e-01 -1.3941486724683404e+01 -1.2051262553887478e+01 -4.2240239803038531e+00 0 0 1
1577 526 2 4.0999999999999998e-01 -1.2899798112908959e+01 -9.3330619101098531e+00 -3.8452985931079553e-01 -1 1 2
1196 399 2 4.0999999999999998e-01 -1.3771255647643757e+01 -5.0612185369455585e+00 -6.2755225670328940e+00 -1 0 -1
2323 775 1 -8.1999999999999995e-01 -9.0851271738330617e+00 -8.7269115144876821e+00 -7.8120887043931830e-02 1 0 1
988 330 1 -8.1999999999999995e-01 -8.7845880617210241e+00 -1.0048731610824474e+01 -6.6099173167732399e+00 1 1 2
183 61 2 4.0999999999999998e-01 -1.1514647057857138e+01 -1.4426159703604629e+01 -6.5509402943213360e+00 0 -1 1
989 330 2 4.0999999999999998e-01 -7.7903753477466458e+00 -1.0093553782346419e+01 -6.7076323137503930e+00 1 1 2
1182 394 2 4.0999999999999998e-01 -1.3453150713442147e+01 -5.0544361200059882e+00 -1.2061331949735141e+00 0 1 0
1476 492 2 4.0999999999999998e-01 -7.6266576807400419e+00 -7.8465837866210713e+00 -2.2249550964457274e+00 -1 0 2
579 193 2 4.0999999999999998e-01 -8.9337496599471535e+00 -6.3048768788096474e+00 -7.1660705035678411e+00 0 0 0
2029 677 1 -8.1999999999999995e-01 -6.6961630581636520e+00 -1.4790098841034597e+01 -5.2673701921811986e+00 0 0 0
463 155 1 -8.1999999999999995e-01 -6.9622011559993577e+00 -9.2542831555526242e+00 -1.4773930407039817e+00 -1 2 -1
1814 605 2 4.0999999999999998e-01 -3.2674884974651448e+00 -6.9064001329878693e+00 -6.3477480587608159e+00 0 -1 1
2322 774 2 4.0999999999999998e-01 -4.3981791468760498e+00 -8.2989650841553235e+00 -4.5498644037266409e+00 0 0 0
290 97 2 4.0999999999999998e-01 -1.6725527484146738e+00 -1.4761120019500726e+01 -3.6719875701619884e+00 -2 1 0
1898 633 2 4.0999999999999998e-01 -5.5376120565175651e+00 -1.4070413939007922e+01 -2.4536083362691183e+00 -1 1 1
1282 428 1 -8.1999999999999995e-01 -5.7012435452104366e+00 -1.4922240470784553e+01 -9.0835827916445311e-01 -1 1 0
975 325 2 4.0999999999999998e-01 -2.8982186806109151e+00 -1.0284563235604367e+01 -5.9062178260483282e+00 1 2 1
2438 813 2 4.0999999999999998e-01 -6.9198434427804223e+00 -5.2457088975393056e+00 -6.0409952724238547e+00 1 -1 0
128 43 2 4.0999999999999998e-01 -1.0883937741774830e-01 -9.2022706256732221e+00 -1.7706071992509802e+00 -1 0 -1
621 207 2 4.0999999999999998e-01 -6.2483864347970268e+00 -1.0867247993988370e+01 -3.3233317185021658e+00 -1 3 2
620 207 2 4.0999999999999998e-01 -5.6386936244725359e+00 -1.0548671203715404e+01 -4.8043628263940992e+00 -1 3 2
1283 428 2 4.0999999999999998e-01 -6.2181788333557453e+00 -1.4566180182116319e+01 -1.2988851437808968e-01 -1 1 0
619 207 1 -8.1999999999999995e-01 -5.5399962932920879e+00 -1.0370966676804219e+01 -3.8252325308303643e+00 -1 3 2
127 43 1 -8.1999999999999995e-01 -5.7366715998949047e-02 -9.1796184112670502e+00 -2.7690327730292044e+00 -1 0 -1
2030 677 2 4.0999999999999998e-01 -6.0407651547637098e+00 -1.4414107266925315e+01 -4.6123128580761392e+00 0 0 0
1813 605 1 -8.1999999999999995e-01 -2.5275569294769724e+00 -6.7831771186513965e+00 -7.0090600953444877e+00 0 -1 1
289 97 1 -8.1999999999999995e-01 -1.1906194429219408e+00 -1.3900828133490482e+01 -3.8382835495442258e+00 -2 1 0
974 325 2 4.0999999999999998e-01 -3.3925813477157920e+00 -1.1741221333253726e+01 -6.4543258008916737e+00 1 2 1
2374 792 1 -8.1999999999999995e-01 -2.6361413533589868e+00 -7.2227840551566480e+00 -9.8540491604115488e-03 -1 1 1
2473 825 1 -8.1999999999999995e-01 -4.6406187773880259e+00 -1.4691084954844614e+01 -7.2011080506099105e+00 1 1 -2
1659 553 2 4.0999999999999998e-01 -7.6103633249685210e-01 -6.3868394887478086e+00 -6.7985714367735390e+00 0 0 -1
2439 813 2 4.0999999999999998e-01 -6.8263427766624289e+00 -6.8009116470631135e+00 -6.5301492612821708e+00 1 -1 0
291 97 2 4.0999999999999998e-01 -1.1508603259575203e+00 -1.3371795012410665e+01 -2.9906046171803489e+00 -2 1 0
1453 485 1 -8.1999999999999995e-01 -2.3736187432052738e+00 -1.3147856182724615e+01 -6.1779133820123135e+00 -1 1 1
464 155 2 4.0999999999999998e-01 -5.9946947805633606e+00 -9.2232952511924111e+00 -1.2264201404418458e+00 -1 2 -1
1455 485 2 4.0999999999999998e-01 -2.1113963122903634e+00 -1.3418639236853574e+01 -5.2516671357859330e+00 -1 1 1
1454 485 2 4.0999999999999998e-01 -1.5605929531468394e+00 -1.2859167885505915e+01 -6.6835460192668599e+00 -1 1 1
1667 556 2 4.0999999999999998e-01 -2.6758157306500241e+00 -1.0866037160049391e+01 -3.5322934627707436e+00 -1 0 0
901 301 1 -8.1999999999999995e-01 -2.0611747515401149e+00 -7.2280322132142292e+00 -2.7992744057133798e+00 -1 2 0
1897 633 1 -8.1999999999999995e-01 -5.1889081579529233e+00 -1.3710288546119392e+01 -3.3189010525982781e+00 -1 1 1
1227 409 2 4.0999999999999998e-01 -4.6489895465584148e+00 -1.1180632568103244e+01 -2.1692873844645160e+00 0 1 1
1350 450 2 4.0999999999999998e-01 -8.3925445247934505e-01 -1.1515636721773506e+01 -8.4794985957181268e-01 1 2 0
2375 792 2 4.0999999999999998e-01 -2.4653575036315871e+00 -6.9309640981763891e+00 -9.5096521224467701e-01 -1 1 1
1289 430 2 4.0999999999999998e-01 -5.0192837497427902e+00 -1.0116048228507239e+01 -6.5989271366404640e+00 1 2 3
1288 430 1 -8.1999999999999995e-01 -6.0054871140491439e+00 -9.9512995655645042e+00 -6.6155729032040007e+00 1 2 3
902 301 2 4.0999999999999998e-01 -2.6820922414100803e+00 -7.3768923760531102e+00 -3.5688965832816528e+00 -1 2 0
1226 409 2 4.0999999999999998e-01 -4.1714118034255421e+00 -1.2037202595320608e+01 -8.6357796322078784e-01 0 1 1
2320 774 1 -8.1999999999999995e-01 -4.1143662052116650e+00 -7.3779805731160470e+00 -4.8167988266752726e+00 0 0 0
465 155 2 4.0999999999999998e-01 -7.1532094551214200e+00 -1.0106838784372552e+01 -1.9638916890522395e+00 -1 2 -1
1290 430 2 4.0999999999999998e-01 -6.1781372364007385e+00 -8.9691165973612677e+00 -6.6899020779998501e+00 1 2 3
2437 813 1 -8.1999999999999995e-01 -6.9050944715098552e+00 -6.1980240138566334e+00 -5.7362091864721272e+00 1 -1 0
1349 450 2 4.0999999999999998e-01 -2.2537941621580728e+00 -1.2120936843227838e+01 -1.3950869610094703e+00 1 2 0
1225 409 1 -8.1999999999999995e-01 -3.8938805561425838e+00 -1.1693310826388267e+01 -1.7606459733836726e+00 0 1 1
1668 556 2 4.0999999999999998e-01 -1.1926232474490028e+00 -1.0188095350685490e+01 -3.6171734830898323e+00 -1 0 0
687 229 2 4.0999999999999998e-01 -4.9166979510543030e-01 -1.0200211458540672e+01 -5.3302774258573891e+00 -2 1 0
903 301 2 4.0999999999999998e-01 -1.2992847987791460e+00 -7.8732571625936902e+00 -2.8560605605986513e+00 -1 2 0
1666 556 1 -8.1999999999999995e-01 -1.9436194024009890e+00 -1.0578491694805109e+01 -4.1497255070336525e+00 -1 0 0
973 325 1 -8.1999999999999995e-01 -3.4364658686892469e+00 -1.0753803869720372e+01 -6.6063030863776930e+00 1 2 1
2321 774 2 4.0999999999999998e-01 -4.9020239920429489e+00 -6.7629065770100123e+00 -4.7808066967447527e+00 0 0 0
528 176 2 4.0999999999999998e-01 -1.3434378813497361e-01 -1.3679573124803401e+01 -8.4433687955703896e-01 1 0 1
1348 450 1 -8.1999999999999995e-01 -1.2585982612916879e+00 -1.2212626522729686e+01 -1.4296475300543534e+00 1 2 0
1899 633 2 4.0999999999999998e-01 -4.2060335170812753e+00 -1.3544230884831585e+01 -3.2389105819646211e+00 -1 1 1
2475 825 2 4.0999999999999998e-01 -3.8401291154221084e+00 -1.4155094767322558e+01 -6.9328785468498069e+00 1 1 -2
2474 825 2 4.0999999999999998e-01 -5.2672247729148243e+00 -1.4765375151014620e+01 -6.4253103613902791e+00 1 1 -2
1653 551 2 4.0999999999999998e-01 -1.4075812674776262e+00 -8.8755744118929840e+00 -2.2493847305646852e-03 -2 1 -1
1952 651 2 4.0999999999999998e-01 -1.3787688739186265e+01 -1.2991628202341641e+01 5.7765900575238955e+00 -1 1 0
772 258 1 -8.1999999999999995e-01 -1.2472424436055888e+01 -5.7070513563563381e+00 1.4805401773193534e+00 -1 2 -1
96 32 2 4.0999999999999998e-01 -1.2616856194984857e+01 -1.1399821836196718e+01 5.0151912906181249e+00 -1 2 0
95 32 2 4.0999999999999998e-01 -1.4209106781246543e+01 -1.1222045907289388e+01 4.6992745030447072e+00 -1 2 0
94 32 1 -8.1999999999999995e-01 -1.3399732955603872e+01 -1.1782866383715142e+01 4.5248882710727774e+00 -1 2 0
774 258 2 4.0999999999999998e-01 -1.2349195031329840e+01 -5.6435062945330685e+00 4.9019027958114947e-01 -1 2 -1
150 50 2 4.0999999999999998e-01 -1.0403721847884988e+01 -1.0799366513414645e+01 5.1777238195893869e+00 0 1 0
120 40 2 4.0999999999999998e-01 -1.3701209293728859e+01 -1.2740025370462181e+01 3.2115776750111227e+00 -2 0 0
149 50 2 4.0999999999999998e-01 -1.0992906577019820e+01 -1.1439226944336832e+01 6.5597909533166483e+00 0 1 0
760 254 1 -8.1999999999999995e-01 -1.1972079229078091e+01 -8.2558246637370445e+00 6.1783020339025274e+00 0 1 0
28 10 1 -8.1999999999999995e-01 -7.9142493560369900e+00 -1.3749800142470015e+01 5.7446447529294939e+00 -1 0 0
773 258 2 4.0999999999999998e-01 -1.3080950757025851e+01 -6.4718144822756649e+00 1.6923170072877358e+00 -1 2 -1
2510 837 2 4.0999999999999998e-01 -1.4388091888108173e+01 -1.2359535903677743e+01 1.1001486348206786e+00 1 2 1
118 40 1 -8.1999999999999995e-01 -1.3893987678209941e+01 -1.3474904026100967e+01 2.5613422821903189e+00 -2 0 0
24 8 2 4.0999999999999998e-01 -8.5356417079869367e+00 -9.3949042386696124e+00 3.6498818645208022e+00 -1 1 0
2126 709 2 4.0999999999999998e-01 -1.0874709910879442e+01 -6.6710919502217418e+00 3.2974378413868823e+00 -1 0 -1
22 8 1 -8.1999999999999995e-01 -9.2719546927123826e+00 -1.0058856229101409e+01 3.7803704448287565e+00 -1 1 0
340 114 1 -8.1999999999999995e-01 -8.2194313860804353e+00 -7.8850478718738248e+00 2.4503298068389814e+00 -1 0 0
1951 651 1 -8.1999999999999995e-01 -1.3600528291024343e+01 -1.3682230591950333e+01 6.4751998090806300e+00 -1 1 0
200 67 2 4.0999999999999998e-01 -1.3450951011867009e+01 -5.5312075332532551e+00 4.7132518594730524e+00 0 0 0
762 254 2 4.0999999999999998e-01 -1.1599228946695593e+01 -7.7411886622828909e+00 5.4061953604269082e+00 0 1 0
1206 402 2 4.0999999999999998e-01 -1.3841000221472392e+01 -9.1394877047226792e+00 4.9879106289703454e+00 1 1 0
2125 709 1 -8.1999999999999995e-01 -1.0979005940393819e+01 -6.5355458892497644e+00 4.2827123051254237e+00 -1 0 -1
2417 806 2 4.0999999999999998e-01 -1.0726078004573960e+01 -1.4360078217114987e+01 2.2535007571700536e+00 0 0 2
119 40 2 4.0999999999999998e-01 -1.3033406852965101e+01 -1.3871898869037979e+01 2.2422625143477948e+00 -2 0 0
2022 674 2 4.0999999999999998e-01 -1.2616101467680373e+01 -1.0061694167359571e+01 1.3527976148028582e+00 1 2 0
199 67 1 -8.1999999999999995e-01 -1.4415215304472826e+01 -5.7780123150786871e+00 4.8096783788993687e+00 0 0 0
2021 674 2 4.0999999999999998e-01 -1.2421002996179475e+01 -1.1126877950661083e+01 2.5750863388988083e+00 1 2 0
148 50 1 -8.1999999999999995e-01 -1.1208082703552003e+01 -1.0867660403316137e+01 5.7679405176042788e+00 0 1 0
201 67 2 4.0999999999999998e-01 -1.4514086314797433e+01 -6.7704933861894663e+00 4.7374145638202503e+00 0 0 0
2418 806 2 4.0999999999999998e-01 -1.0116519300369646e+01 -1.2976353864405162e+01 2.8702784523917035e+00 0 0 2
341 114 2 4.0999999999999998e-01 -8.3485622598964397e+00 -7.1254380166313247e+00 3.0877733572926420e+00 -1 0 0
1457 486 2 4.0999999999999998e-01 -9.7813909035344295e+00 -5.5413349098873237e+00 6.8569118572004779e+00 1 1 1
761 254 2 4.0999999999999998e-01 -1.1882404714312685e+01 -9.2357424630492950e+00 6.0001566491961302e+00 0 1 0
1204 402 1 -8.1999999999999995e-01 -1.4694098860835318e+01 -8.7417379650133622e+00 4.6502213447958933e+00 1 1 0
23 8 2 4.0999999999999998e-01 -1.0018048719029068e+01 -9.8582532133993883e+00 3.1454544362142887e+00 -1 1 0
2324 775 2 4.0999999999999998e-01 -8.8691182140691751e+00 -8.3358298969008580e+00 8.1653629011276685e-01 1 0 1
1953 651 2 4.0999999999999998e-01 -1.3121869245400099e+01 -1.4455624929213329e+01 6.0595522356429345e+00 -1 1 0
29 10 2 4.0999999999999998e-01 -8.8466550232044625e+00 -1.3789344071929714e+01 6.1039110707229671e+00 -1 0 0
1458 486 2 4.0999999999999998e-01 -1.0277651923998565e+01 -6.8385184060943978e+00 5.9980116082393966e+00 1 1 1
2360 787 2 4.0999999999999998e-01 -8.1563917636353018e+00 -1.1672469564157497e+01 3.6336088623933573e+00 -1 -1 2
1976 659 2 4.0999999999999998e-01 -8.1215074006996666e+00 -7.3096747067541141e+00 6.6002818667686167e+00 0 2 -1
2359 787 1 -8.1999999999999995e-01 -7.9110073722894825e+00 -1.2610831937619110e+01 3.3901366133803190e+00 -1 -1 2
1456 486 1 -8.1999999999999995e-01 -9.5804637828668966e+00 -6.4934414388499349e+00 6.6263959090909186e+00 1 1 1
2361 787 2 4.0999999999999998e-01 -8.0011168441146712e+00 -1.3198280841658725e+01 4.1943755546653225e+00 -1 -1 2
2127 709 2 4.0999999999999998e-01 -1.0911581800011048e+01 -5.5604425775594795e+00 4.4940029408398257e+00 -1 0 -1
87 29 2 4.0999999999999998e-01 -1.1529814851777303e+01 -1.4758552157369724e+01 4.2434208610440560e+00 -1 0 0
2416 806 1 -8.1999999999999995e-01 -1.0788316693868222e+01 -1.3704540416678046e+01 3.0061047477884468e+00 0 0 2
2020 674 1 -8.1999999999999995e-01 -1.2040097948767993e+01 -1.0316731254663239e+01 2.1294521146460870e+00 1 2 0