LAMMPS data file via write_data, version 15 May 2015, timestep = 4999000

2611 atoms
6 atom types
1749 bonds
4 bond types
894 angles
3 angle types
44 dihedrals
3 dihedral types
10 impropers
1 improper types

-1.5118416900252692e+01 1.5118416900252692e+01 xlo xhi
-1.5118416900252692e+01 1.5118416900252692e+01 ylo yhi
-1.5118416900252692e+01 1.5118416900252692e+01 zlo zhi

Masses

1 15.9994
2 1.00794
3 12.0107
4 1.00794
5 12.0107
6 12.0107

Bond Coeffs # harmonic

1 1000 1
2 469 1.4
3 367 1.08
4 469 0.7

Angle Coeffs # harmonic

1 100 109.47
2 35 120
3 63 120

Dihedral Coeffs # opls

1 0 7.25 0 0
2 0 7.25 0 0
3 0 7.25 0 0

Improper Coeffs # cvff

1 2.5 -1 2

Atoms # full

1671 557 2 4.0999999999999998e-01 -7.6145010603700207e+00 -1.2030972649952812e+01 -7.7374556895696331e+00 -1 0 2
209 70 2 4.0999999999999998e-01 -7.7397013443161136e+00 -1.1292510344308429e+01 -1.1757227833261863e+01 0 2 1
2025 675 2 4.0999999999999998e-01 -1.2108480709350802e+01 -8.9515414645916067e+00 -1.3290012776420474e+01 2 1 0
2023 675 1 -8.1999999999999995e-01 -1.2394978764770190e+01 -7.9991693278018596e+00 -1.3394080027112526e+01 2 1 0
1974 658 2 4.0999999999999998e-01 -9.6412281765994337e+00 -7.9498322704151629e+00 -8.7210571427962940e+00 0 0 -4
2312 771 2 4.0999999999999998e-01 -1.2656352057389553e+01 -1.1105892245673502e+01 -1.2670325464286808e+01 1 0 0
134 45 2 4.0999999999999998e-01 -1.1087438801426778e+01 -5.5120680276610781e+00 -1.1257483177982095e+01 0 2 2
545 182 2 4.0999999999999998e-01 -8.6708570518052248e+00 -9.5767088011038624e+00 -1.0001869417309518e+01 1 -1 0
782 261 2 4.0999999999999998e-01 -1.3809576972669673e+01 -8.8834577202722009e+00 -9.4407475977172908e+00 0 2 3
2024 675 2 4.0999999999999998e-01 -1.1779403824436423e+01 -7.5334994868434340e+00 -1.4029802374214677e+01 2 1 0
2311 771 1 -8.1999999999999995e-01 -1.1739749881976500e+01 -1.0755087719271096e+01 -1.2861899283814997e+01 1 0 0
544 182 1 -8.1999999999999995e-01 -8.3687630837284495e+00 -9.0424734029696108e+00 -9.2124039800273660e+00 1 -1 0
2033 678 2 4.0999999999999998e-01 -1.1841098323404736e+01 -8.6760955981998755e+00 -8.6641663556531867e+00 -1 3 1
2034 678 2 4.0999999999999998e-01 -1.1906142340221940e+01 -1.0283851273681279e+01 -8.9422211014601416e+00 -1 3 1
2313 771 2 4.0999999999999998e-01 -1.1117286716760175e+01 -1.1520501860798385e+01 -1.3025008734727674e+01 1 0 0
2498 833 2 4.0999999999999998e-01 -1.2791854657254795e+01 -5.8824388802644183e+00 -9.9399020257027111e+00 3 -1 0
2536 846 1 -8.1999999999999995e-01 -9.1977491274933847e+00 -9.8583664280490098e+00 -1.1720942676151296e+01 -1 2 1
1270 424 1 -8.1999999999999995e-01 -1.3170746614037695e+01 -1.2786684108689812e+01 -9.3675457235146347e+00 2 3 1
2032 678 1 -8.1999999999999995e-01 -1.2296388259137419e+01 -9.3964250256345832e+00 -9.1873876254650462e+00 -1 3 1
2538 846 2 4.0999999999999998e-01 -8.8684528231583251e+00 -9.1957092344580200e+00 -1.2393529626555178e+01 -1 2 1
2537 846 2 4.0999999999999998e-01 -1.0151158374784002e+01 -1.0087052194465603e+01 -1.1917506820253436e+01 -1 2 1
562 188 1 -8.1999999999999995e-01 -8.7258080191205654e+00 -1.4614512408735317e+01 -1.1498555860335017e+01 1 1 -1
1626 542 2 4.0999999999999998e-01 -1.2947871461740537e+01 -1.4408863548135843e+01 -1.0210609981451597e+01 1 0 1
2497 833 1 -8.1999999999999995e-01 -1.3490529908552251e+01 -6.0216389308072404e+00 -9.2381897265664481e+00 3 -1 0
519 173 2 4.0999999999999998e-01 -1.4920434357892789e+01 -1.4401801926724312e+01 -1.1747611941978066e+01 0 -1 -1
135 45 2 4.0999999999999998e-01 -1.1604765711156059e+01 -6.9114248420927407e+00 -1.1921257928076624e+01 0 2 2
653 218 2 4.0999999999999998e-01 -9.6848706697815174e+00 -1.3338108238850769e+01 -1.2811021004738471e+01 2 0 2
133 45 1 -8.1999999999999995e-01 -1.1878820114454721e+01 -6.1082673441454816e+00 -1.1392338172072462e+01 0 2 2
781 261 1 -8.1999999999999995e-01 -1.4734653389819911e+01 -8.5896194211118164e+00 -9.6811981927886475e+00 0 2 3
1272 424 2 4.0999999999999998e-01 -1.2752094245698292e+01 -1.2347014038738532e+01 -8.5729739437683996e+00 2 3 1
2288 763 2 4.0999999999999998e-01 -7.9134299915055868e+00 -6.9028053745710096e+00 -1.3204656862335941e+01 -1 -2 -1
564 188 2 4.0999999999999998e-01 -7.9150714112729093e+00 -1.4938542247532759e+01 -1.1986033763047825e+01 1 1 -1
652 218 1 -8.1999999999999995e-01 -9.8258374725329247e+00 -1.2545758370239401e+01 -1.3404514005437294e+01 2 0 2
517 173 1 -8.1999999999999995e-01 -1.4808831995749376e+01 -1.5030155064891135e+01 -1.2517443836035643e+01 0 -1 -1
1213 405 1 -8.1999999999999995e-01 -1.4416380742495640e+01 -5.0683316613411460e+00 -1.2319931796218862e+01 0 0 2
1221 407 2 4.0999999999999998e-01 -7.9611699312867783e+00 -9.9019684826374537e+00 -7.7949363577765727e+00 0 3 -1
136 46 1 -8.1999999999999995e-01 -1.0416255281696554e+01 -6.3092093299025578e+00 -1.4632113860122143e+01 0 0 2
1271 424 2 4.0999999999999998e-01 -1.4117604648948722e+01 -1.2478349866192879e+01 -9.4587254719966580e+00 2 3 1
2499 833 2 4.0999999999999998e-01 -1.4149964800764035e+01 -6.7033136914223732e+00 -9.5550320187289444e+00 3 -1 0
1414 472 1 -8.1999999999999995e-01 -1.4313998977194954e+01 -1.1814776787293823e+01 -1.2825413428967085e+01 -1 0 1
2289 763 2 4.0999999999999998e-01 -9.2453735134567836e+00 -7.3136963670064521e+00 -1.4055255813634226e+01 -1 -2 -1
1729 577 1 -8.1999999999999995e-01 -7.5927332611824951e+00 -5.3840196101012889e+00 -1.2050314031696232e+01 2 0 -3
1401 467 2 4.0999999999999998e-01 -1.4286018975166296e+01 -7.8057238855595195e+00 -1.2430938836831984e+01 1 -1 -2
1973 658 2 4.0999999999999998e-01 -1.0441980444579073e+01 -6.7013673483156335e+00 -8.0380091297829033e+00 0 0 -4
137 46 2 4.0999999999999998e-01 -1.0176147678238877e+01 -5.4888372129554774e+00 -1.4113209404465218e+01 0 0 2
1214 405 2 4.0999999999999998e-01 -1.3678636377858425e+01 -5.4505789794640460e+00 -1.1763564921535320e+01 0 0 2
1416 472 2 4.0999999999999998e-01 -1.4637640241059600e+01 -1.2421160097900389e+01 -1.3551691261131806e+01 -1 0 1
2287 763 1 -8.1999999999999995e-01 -8.4065423040863809e+00 -7.6590834506383674e+00 -1.3634549418023406e+01 -1 -2 -1
654 218 2 4.0999999999999998e-01 -9.0732778875266291e+00 -1.2482141570559410e+01 -1.4059900047047083e+01 2 0 2
1415 472 2 4.0999999999999998e-01 -1.5097825982946919e+01 -1.1397347267504733e+01 -1.2365748686042974e+01 -1 0 1
546 182 2 4.0999999999999998e-01 -7.7219718873215326e+00 -8.3412721170925685e+00 -9.5122402780205348e+00 1 -1 0
1972 658 1 -8.1999999999999995e-01 -1.0452573425173497e+01 -7.6883400916969746e+00 -8.1983100218951837e+00 0 0 -4
783 261 2 4.0999999999999998e-01 -1.4785657040498567e+01 -8.4214831086561404e+00 -1.0665602911526188e+01 0 2 3
1316 439 2 4.0999999999999998e-01 -1.4286769310608802e+01 -5.7940512876931365e+00 -1.4015990408645369e+01 -3 -2 3
2085 695 2 4.0999999999999998e-01 -1.3868726184648715e+01 -5.2951010421945561e+00 -7.7819440421854562e+00 0 -2 2
1730 577 2 4.0999999999999998e-01 -8.1132859415680088e+00 -5.1555029422943797e+00 -1.2872949390559135e+01 2 0 -3
1315 439 1 -8.1999999999999995e-01 -1.4048207783957952e+01 -5.6658102362396612e+00 -1.4978573665602655e+01 -3 -2 3
2294 765 2 4.0999999999999998e-01 -1.5017404750299969e+01 -1.4404641297431063e+01 -8.5074344803356290e+00 -3 0 0
686 229 2 4.0999999999999998e-01 -8.2816500894088456e+00 -1.4083746709261645e+01 -7.6311098818151208e+00 -1 1 0
1669 557 1 -8.1999999999999995e-01 -7.4224267986252386e+00 -1.2697155036064128e+01 -8.4580335169639937e+00 -1 0 2
208 70 1 -8.1999999999999995e-01 -7.1125093126526231e+00 -1.2068031140167729e+01 -1.1685662987105710e+01 0 2 1
210 70 2 4.0999999999999998e-01 -7.4666094974836223e+00 -1.2722525570564770e+01 -1.1017700441311932e+01 0 2 1
1813 605 1 -8.1999999999999995e-01 -5.6064927790241015e-01 -6.3471413031810116e+00 -1.4051975537972192e+01 -2 0 1
2130 710 2 4.0999999999999998e-01 -5.9407746242669113e-01 -5.8510668404008985e+00 -1.0634479629498422e+01 0 4 2
2491 831 1 -8.1999999999999995e-01 -4.3547384680801926e+00 -9.1735226841968274e+00 -7.9560918457987082e+00 2 1 0
2188 730 1 -8.1999999999999995e-01 -4.2532109624530747e+00 -6.0177263966830363e+00 -1.4937333916017655e+01 -1 2 0
1076 359 2 4.0999999999999998e-01 -1.0916951236842536e+00 -1.2034994845625038e+01 -1.5025162073131094e+01 -1 0 1
2493 831 2 4.0999999999999998e-01 -3.4071692141824972e+00 -8.9517500748822663e+00 -8.1859902766062014e+00 2 1 0
1447 483 1 -8.1999999999999995e-01 -4.6863154623784098e-01 -1.1918461047588917e+01 -9.7626744796681670e+00 -2 2 -2
1811 604 2 4.0999999999999998e-01 -6.4989443763298773e+00 -6.8667769171733735e+00 -8.0824887964073646e+00 4 -1 1
58 20 1 -8.1999999999999995e-01 -5.7895177087796235e+00 -1.3684121530096366e+01 -1.3427013161097573e+01 1 -2 0
59 20 2 4.0999999999999998e-01 -6.4067700641950331e+00 -1.2993842185455861e+01 -1.3049603867178373e+01 1 -2 0
1670 557 2 4.0999999999999998e-01 -6.6801850553041522e+00 -1.2358216219536722e+01 -9.0360660069446812e+00 -1 0 2
450 150 2 4.0999999999999998e-01 -4.5899078175532093e+00 -7.1769109479248741e+00 -1.3810371542784260e+01 -2 0 2
2364 788 2 4.0999999999999998e-01 -4.6463145818958509e+00 -1.4360480796847760e+01 -8.1385083513665091e+00 2 -1 -1
2438 813 2 4.0999999999999998e-01 -3.3219320423094416e+00 -7.1904357722435526e+00 -9.7705271799767637e+00 -1 0 -1
1324 442 1 -8.1999999999999995e-01 -4.0346239221352853e+00 -1.4911250104217261e+01 -1.1261008127478904e+01 -1 0 -2
449 150 2 4.0999999999999998e-01 -4.7882418599903964e+00 -7.0708522304074357e+00 -1.2193016221602587e+01 -2 0 2
693 231 2 4.0999999999999998e-01 -6.9519269419798437e+00 -6.3125033218670943e+00 -1.0616738919887021e+01 -1 -1 -1
505 169 1 -8.1999999999999995e-01 -1.9502215589802070e+00 -8.3417072319289751e+00 -8.8398700836690978e+00 0 0 -2
1815 605 2 4.0999999999999998e-01 -4.4599404184211977e-01 -7.2826904195272508e+00 -1.3718020686828513e+01 -2 0 1
1325 442 2 4.0999999999999998e-01 -3.9719932579703343e+00 -1.4812196745029611e+01 -1.0267937264538883e+01 -1 0 -2
2363 788 2 4.0999999999999998e-01 -3.1666085578864749e+00 -1.3671814383880131e+01 -8.0872035609892752e+00 2 -1 -1
1449 483 2 4.0999999999999998e-01 -1.0702543694475999e+00 -1.1625743160333208e+01 -1.0505836718345165e+01 -2 2 -2
2128 710 1 -8.1999999999999995e-01 -1.2647402695913055e+00 -5.2662091653578607e+00 -1.1090633958169079e+01 0 4 2
2304 768 2 4.0999999999999998e-01 -9.0145074473729281e-01 -1.0562611635398408e+01 -1.2852889719061626e+01 2 1 3
1326 442 2 4.0999999999999998e-01 -3.3911433709232455e+00 -1.4284072404467459e+01 -1.1699761843155997e+01 -1 0 -2
2303 768 2 4.0999999999999998e-01 -3.3015951144661848e-01 -9.5157895275377804e+00 -1.1737446769010527e+01 2 1 3
692 231 2 4.0999999999999998e-01 -5.5487250408753841e+00 -6.7961360034662164e+00 -9.9358958935856485e+00 -1 -1 -1
2302 768 1 -8.1999999999999995e-01 -1.0316740892406990e+00 -1.0202073061228457e+01 -1.1929321848728733e+01 2 1 3
507 169 2 4.0999999999999998e-01 -1.4275627925629166e+00 -8.9856667623584805e+00 -9.3985002820438339e+00 0 0 -2
60 20 2 4.0999999999999998e-01 -4.9450786682235996e+00 -1.3704465523462433e+01 -1.2891819185239202e+01 1 -2 0
1999 667 1 -8.1999999999999995e-01 -4.8225711410928351e+00 -1.1014414419406837e+01 -1.4194524711621588e+01 -2 1 -1
1742 581 2 4.0999999999999998e-01 -4.6913552686291187e+00 -1.2720371203645570e+01 -9.7956956266453155e+00 3 2 0
1743 581 2 4.0999999999999998e-01 -4.7923817172210068e+00 -1.1148681015465570e+01 -1.0226980963590240e+01 3 2 0
1741 581 1 -8.1999999999999995e-01 -4.9922200351812407e+00 -1.1811885580083798e+01 -9.5057679238022068e+00 3 2 0
2492 831 2 4.0999999999999998e-01 -4.5439982159457948e+00 -1.0123820327957780e+01 -8.2031525248200285e+00 2 1 0
830 277 2 4.0999999999999998e-01 -7.2147326778563308e+00 -1.3022744161613666e+01 -1.4723593461652250e+01 -1 1 0
1814 605 2 4.0999999999999998e-01 -1.0706592738722982e+00 -5.8128002297368635e+00 -1.3377962841406413e+01 -2 0 1
691 231 1 -8.1999999999999995e-01 -6.5432174430071797e+00 -6.7796767851294835e+00 -9.8327559450876816e+00 -1 -1 -1
2001 667 2 4.0999999999999998e-01 -5.5453128557873459e+00 -1.0339994792893766e+01 -1.4345277453863389e+01 -2 1 -1
2000 667 2 4.0999999999999998e-01 -4.4802713689222955e+00 -1.0932555013995376e+01 -1.3258547259647120e+01 -2 1 -1
2218 740 1 -8.1999999999999995e-01 -2.1728686320823734e+00 -1.3402909551098041e+01 -1.2572951658484330e+01 1 0 2
338 113 2 4.0999999999999998e-01 -2.7876741736713555e+00 -1.0135027797107643e+01 -1.1594810903322255e+01 -1 2 1
339 113 2 4.0999999999999998e-01 -4.0999860279478266e+00 -9.2139091718235626e+00 -1.1904329162828361e+01 -1 2 1
506 169 2 4.0999999999999998e-01 -1.3385960404042851e+00 -7.8928378475557475e+00 -8.1884452000175614e+00 0 0 -2
2437 813 1 -8.1999999999999995e-01 -3.7055605683530874e+00 -6.6564803274560251e+00 -1.0523949112439123e+01 -1 0 -1
2439 813 2 4.0999999999999998e-01 -2.9898602476021292e+00 -6.0855514702402989e+00 -1.0926114709363988e+01 -1 0 -1
2220 740 2 4.0999999999999998e-01 -1.8981217663304850e+00 -1.2692014715259996e+01 -1.3220305083665114e+01 1 0 2
337 113 1 -8.1999999999999995e-01 -3.7792462875864246e+00 -1.0064033633809524e+01 -1.1486790837550478e+01 -1 2 1
2219 740 2 4.0999999999999998e-01 -1.3597652092096482e+00 -1.3790845355853032e+01 -1.2139024849789587e+01 1 0 2
1075 359 1 -8.1999999999999995e-01 -1.3636278316401498e+00 -1.1194072327684744e+01 -1.4557373956585673e+01 -1 0 1
448 150 1 -8.1999999999999995e-01 -4.6974163970246963e+00 -7.6999869822771698e+00 -1.2964938451533900e+01 -2 0 2
2362 788 1 -8.1999999999999995e-01 -3.7901856049999232e+00 -1.4226889591876088e+01 -8.6376280283608828e+00 2 -1 -1
1490 497 2 4.0999999999999998e-01 -8.7314180692102283e-02 -1.3452835360638476e+01 -8.6434224427612119e+00 -2 -1 1
1448 483 2 4.0999999999999998e-01 -7.4839424489374196e-02 -1.1114870707458564e+01 -9.3164747180695038e+00 -2 2 -2
1219 407 1 -8.1999999999999995e-01 -7.5810780161151641e+00 -1.0315651003832286e+01 -6.9676995169784934e+00 0 3 -1
1062 354 2 4.0999999999999998e-01 -9.1750217951757698e+00 -1.2104443144626414e+01 -1.8786590293685848e+00 -2 4 1
1397 466 2 4.0999999999999998e-01 -1.1308026048900270e+01 -1.3683329581256348e+01 -5.4457647438372945e+00 0 2 3
1200 400 2 4.0999999999999998e-01 -1.3797144621992691e+01 -1.0495175552763822e+01 -6.0159472153236777e+00 -1 1 0
1574 525 2 4.0999999999999998e-01 -1.1194370571466441e+01 -1.1480472021036661e+01 -4.5953191695008400e+00 1 0 0
1573 525 1 -8.1999999999999995e-01 -1.1910766614332434e+01 -1.2175694812590933e+01 -4.6533350460317084e+00 1 0 0
1498 500 1 -8.1999999999999995e-01 -1.0098456236537618e+01 -1.0660635630900082e+01 -1.3174215032303191e+00 -1 2 1
1499 500 2 4.0999999999999998e-01 -9.4137216333743012e+00 -1.0146454899322169e+01 -8.0101026790091190e-01 -1 2 1
1500 500 2 4.0999999999999998e-01 -1.0451530179416867e+01 -1.0092285963895961e+01 -2.0605508976197733e+00 -1 2 1
1631 544 2 4.0999999999999998e-01 -1.0244064972597471e+01 -8.7201756290583585e+00 -4.2098509541135343e+00 -1 -2 0
1630 544 1 -8.1999999999999995e-01 -1.0814028765814836e+01 -9.5319958713191681e+00 -4.0833084147978802e+00 -1 -2 0
1632 544 2 4.0999999999999998e-01 -1.1776742506994662e+01 -9.2831015924434368e+00 -4.1889387206549369e+00 -1 -2 0
956 319 2 4.0999999999999998e-01 -1.3574405992906524e+01 -7.9577180705332164e+00 -1.3051168786501890e+00 2 0 1
1575 525 2 4.0999999999999998e-01 -1.2682933712953663e+01 -1.1815718834183521e+01 -5.1768798391575626e+00 1 0 0
957 319 2 4.0999999999999998e-01 -1.4525630248078357e+01 -8.8976962670387678e+00 -2.2421531069096137e+00 2 0 1
1058 353 2 4.0999999999999998e-01 -8.0594673500244642e+00 -8.0025958104343182e+00 -4.7841393525486371e+00 0 1 2
955 319 1 -8.1999999999999995e-01 -1.3910732064168881e+01 -8.1091745735487368e+00 -2.2345627058896795e+00 2 0 1
1060 354 1 -8.1999999999999995e-01 -8.9205091436718718e+00 -1.2990669803851958e+01 -2.2656338347312595e+00 -2 4 1
1352 451 2 4.0999999999999998e-01 -1.1525210712351189e+01 -6.0513278502530916e+00 -1.0259139157557371e+00 0 0 -1
2061 687 2 4.0999999999999998e-01 -1.4222279887205385e+01 -7.8956279453296707e+00 -5.5171490300333872e+00 0 0 1
1198 400 1 -8.1999999999999995e-01 -1.3885773182307052e+01 -1.1446412911427991e+01 -6.3112713568754675e+00 -1 1 0
1917 639 2 4.0999999999999998e-01 -1.2088725507969672e+01 -1.4870034673256962e+01 -1.9003036194676852e+00 -2 1 1
1351 451 1 -8.1999999999999995e-01 -1.0654819342595932e+01 -5.7124999181848839e+00 -1.3830390492095539e+00 0 0 -1
2199 733 2 4.0999999999999998e-01 -8.7601623616417115e+00 -6.1347828430791846e+00 -1.7549857736251777e+00 1 0 1
2197 733 1 -8.1999999999999995e-01 -7.7602551212373729e+00 -6.1316773734200236e+00 -1.7649722515146955e+00 1 0 1
1915 639 1 -8.1999999999999995e-01 -1.2016275634405346e+01 -1.4095117278451477e+01 -1.2724677306281258e+00 -2 1 1
2038 680 1 -8.1999999999999995e-01 -9.7997723279016888e+00 -7.0519879225345328e+00 -5.0770487292702455e+00 -3 2 0
1396 466 1 -8.1999999999999995e-01 -1.1097955608330803e+01 -1.4505933530860650e+01 -5.9740798067831289e+00 0 2 3
2040 680 2 4.0999999999999998e-01 -1.0195634910932984e+01 -6.2141302342774232e+00 -4.7012679893814848e+00 -3 2 0
2039 680 2 4.0999999999999998e-01 -1.0006365203125373e+01 -7.1093279748359084e+00 -6.0537551218700187e+00 -3 2 0
1455 485 2 4.0999999999999998e-01 -1.4738716062937526e+01 -1.3606822402288776e+01 -3.0261525841075052e+00 1 0 1
2414 805 2 4.0999999999999998e-01 -7.8637676044358384e+00 -1.3651702113966509e+01 -4.9545785191828884e+00 -1 -1 0
1454 485 2 4.0999999999999998e-01 -1.3240087023781339e+01 -1.2969239553136347e+01 -3.1445698235563349e+00 1 0 1
1916 639 2 4.0999999999999998e-01 -1.1163623496103142e+01 -1.3602913210989257e+01 -1.4475200989752697e+00 -2 1 1
2059 687 1 -8.1999999999999995e-01 -1.3704501431116492e+01 -8.4733956226167457e+00 -4.8862656357944942e+00 0 0 1
2060 687 2 4.0999999999999998e-01 -1.3734257413334259e+01 -8.0756468568094544e+00 -3.9692954375059522e+00 0 0 1
685 229 1 -8.1999999999999995e-01 -8.6194252740977717e+00 -1.4680444465201855e+01 -6.9032475345515216e+00 -1 1 0
1061 354 2 4.0999999999999998e-01 -8.5526204792295513e+00 -1.2859159662287112e+01 -3.1861157324392124e+00 -2 4 1
1453 485 1 -8.1999999999999995e-01 -1.4197084851412765e+01 -1.2771484482386406e+01 -2.9325038814715949e+00 1 0 1
1199 400 2 4.0999999999999998e-01 -1.4853979138851024e+01 -1.1691913221058794e+01 -6.3585012346834784e+00 -1 1 0
2413 805 1 -8.1999999999999995e-01 -7.8625714572514829e+00 -1.2672618076277050e+01 -4.7513129706584074e+00 -1 -1 0
71 24 2 4.0999999999999998e-01 -1.4523206474137652e+01 -5.6800479913464148e+00 -3.7668563007662286e+00 -2 1 2
2050 684 1 -8.1999999999999995e-01 -1.1125194329468947e+01 -5.0788399274446707e+00 -6.7190053011650086e+00 1 2 2
176 59 2 4.0999999999999998e-01 -8.9790145767446141e+00 -1.4623981236617507e+01 -2.9447677654833875e+00 2 1 0
2127 709 2 4.0999999999999998e-01 -1.3178500850553055e+01 -1.1951191633234837e+01 -5.4080956441185535e-01 0 0 1
2250 750 2 4.0999999999999998e-01 -8.0995693498571022e+00 -1.4246026570963005e+01 -1.1572215660758385e+00 1 0 1
1653 551 2 4.0999999999999998e-01 -1.2105641609634182e+01 -1.5053709005005674e+01 -7.2281238723698280e+00 -1 1 -1
1353 451 2 4.0999999999999998e-01 -1.0754578643124827e+01 -5.4962114804268154e+00 -2.3542193766636448e+00 0 0 -1
1332 444 2 4.0999999999999998e-01 -1.5112748195116501e+01 -1.0929553125686809e+01 -3.3994973457112323e+00 3 -1 0
2248 750 1 -8.1999999999999995e-01 -7.7616662533361254e+00 -1.4563794759210673e+01 -2.7134981464350005e-01 1 0 1
2052 684 2 4.0999999999999998e-01 -1.1964774165892557e+01 -5.2331482075941320e+00 -7.2397914081790242e+00 1 2 2
687 229 2 4.0999999999999998e-01 -9.4276627925256840e+00 -1.4268415416421547e+01 -6.4826431413892980e+00 -1 1 0
2126 709 2 4.0999999999999998e-01 -1.1924401575950313e+01 -1.0920724416277153e+01 -3.6249697135552061e-01 0 0 1
1634 545 2 4.0999999999999998e-01 -1.4834436566143582e+01 -5.4718908962024742e+00 -1.3128458874655689e+00 1 -1 -1
2084 695 2 4.0999999999999998e-01 -1.4698925997653348e+01 -5.3263164317293086e+00 -6.3761641481054703e+00 0 -2 2
1606 536 1 -8.1999999999999995e-01 -7.6081861463575784e+00 -9.7135656018131797e+00 -1.8140329761395790e-02 0 2 2
2051 684 2 4.0999999999999998e-01 -1.1324306791839920e+01 -5.1370265598954781e+00 -5.7407965493381372e+00 1 2 2
411 137 2 4.0999999999999998e-01 -1.3830152297282634e+01 -1.4397795765467153e+01 -1.1890894023735932e-01 -2 2 -1
2295 765 2 4.0999999999999998e-01 -1.4238280405831217e+01 -1.4973751974887945e+01 -7.1900500856022846e+00 -3 0 0
2293 765 1 -8.1999999999999995e-01 -1.5108990267611336e+01 -1.4624580542380665e+01 -7.5362688509879074e+00 -3 0 0
1220 407 2 4.0999999999999998e-01 -7.4531459124657484e+00 -9.6100871911606678e+00 -6.2707512082195578e+00 0 3 -1
1057 353 1 -8.1999999999999995e-01 -7.0822276173627330e+00 -8.1618164311097310e+00 -4.9240505515231128e+00 0 1 2
2198 733 2 4.0999999999999998e-01 -7.4171435482285606e+00 -6.4808976099103024e+00 -8.9305281658192115e-01 1 0 1
77 26 2 4.0999999999999998e-01 -1.3204367348986601e-01 -5.4692991103822699e+00 -3.4124121120293491e+00 1 -3 -1
1604 535 2 4.0999999999999998e-01 -1.5777385491561180e+00 -1.4010112749540806e+01 -4.4092859455800557e+00 -4 0 1
1276 426 1 -8.1999999999999995e-01 -5.9847079742815907e+00 -1.4739331043451928e+01 -3.8308939111975402e+00 0 1 0
559 187 1 -8.1999999999999995e-01 -3.9893937486238524e+00 -1.3419530772893360e+01 -2.2892496844986603e+00 -1 -1 1
1928 643 2 4.0999999999999998e-01 -4.1145273770567385e+00 -1.1196493903840228e+01 -5.4440061191892752e-01 2 0 2
1059 353 2 4.0999999999999998e-01 -6.7613448403548020e+00 -7.6095288817895597e+00 -5.6934247035708676e+00 0 1 2
76 26 1 -8.1999999999999995e-01 -4.2011857535335650e-02 -5.1711862907384489e+00 -4.3626473045369316e+00 1 -3 -1
581 194 2 4.0999999999999998e-01 -1.2999070763616771e+00 -7.3782781904982562e+00 -6.1088983949540800e+00 2 -2 3
160 54 1 -8.1999999999999995e-01 -2.8262400621621797e+00 -6.3015814152860123e+00 -4.9352268684896483e+00 -1 -2 0
273 91 2 4.0999999999999998e-01 -4.2819131582670877e-01 -1.0055433390218525e+01 -6.5255148410616943e+00 -4 2 1
1148 383 2 4.0999999999999998e-01 -8.7129461768328476e-01 -1.3297715611098301e+01 -1.4356591239556966e+00 0 1 0
1424 475 2 4.0999999999999998e-01 -2.0154709502397079e+00 -1.1928674428447012e+01 -6.7836830982720144e+00 0 1 4
272 91 2 4.0999999999999998e-01 -1.2912291064261314e+00 -1.0259204111939841e+01 -5.1543595956779384e+00 -4 2 1
369 123 2 4.0999999999999998e-01 -3.1180445061467044e+00 -7.2899140234375581e+00 -7.0977437984447000e-01 -1 2 1
1605 535 2 4.0999999999999998e-01 -3.0517753299915196e+00 -1.4711984875039921e+01 -4.3774390042787221e+00 -4 0 1
271 91 1 -8.1999999999999995e-01 -5.7909241760239816e-01 -1.0651196244218411e+01 -5.7367060334597380e+00 -4 2 1
1277 426 2 4.0999999999999998e-01 -5.7354223489320972e+00 -1.3771086687002333e+01 -3.8140593726841576e+00 0 1 0
162 54 2 4.0999999999999998e-01 -2.0786346615298328e+00 -5.6375745287498695e+00 -4.9454662814783479e+00 -1 -2 0
2029 677 1 -8.1999999999999995e-01 -7.6912456718236122e-01 -1.1873385628129084e+01 -5.7203877601833319e-01 1 1 -1
1296 432 2 4.0999999999999998e-01 -4.2911776941814548e+00 -1.1932311405164510e+01 -6.3204195138338939e+00 -1 1 1
1595 532 2 4.0999999999999998e-01 -9.1602735428998194e-01 -6.5029165351541849e+00 -1.5820880113834885e+00 1 1 -1
580 194 1 -8.1999999999999995e-01 -6.0179618205721397e-01 -6.9945399451638330e+00 -6.7133071652507255e+00 2 -2 3
1810 604 1 -8.1999999999999995e-01 -6.0812236898808827e+00 -6.9638631336238017e+00 -7.1791575362759126e+00 4 -1 1
1423 475 1 -8.1999999999999995e-01 -2.8347169772344056e+00 -1.2492362004682526e+01 -6.8886408748161969e+00 0 1 4
161 54 2 4.0999999999999998e-01 -3.6830977680854726e+00 -5.8423915958511525e+00 -5.1694563568492597e+00 -1 -2 0
1149 383 2 4.0999999999999998e-01 -9.1932828392364030e-01 -1.4926845447031409e+01 -1.5359192241937976e+00 0 1 0
1425 475 2 4.0999999999999998e-01 -2.8192008179711614e+00 -1.3231539114594870e+01 -6.2153650654007713e+00 0 1 4
1519 507 1 -8.1999999999999995e-01 -4.9514850772717303e+00 -1.1045070720671042e+01 -3.3134135196142953e+00 -3 3 -1
1520 507 2 4.0999999999999998e-01 -5.1251056137687687e+00 -1.1390598952758513e+01 -4.2355794635492057e+00 -3 3 -1
1521 507 2 4.0999999999999998e-01 -4.6410593910077864e+00 -1.1795077342578614e+01 -2.7294187820458955e+00 -3 3 -1
1594 532 1 -8.1999999999999995e-01 -1.1710450195938371e-01 -6.0006922873841191e+00 -1.9128703372527927e+00 1 1 -1
1932 644 2 4.0999999999999998e-01 -3.4921957166407154e+00 -9.4686575503384418e+00 -3.8620196273012883e+00 0 -1 3
1930 644 1 -8.1999999999999995e-01 -2.7508063399816738e+00 -9.1281171864464881e+00 -4.4402046188343043e+00 0 -1 3
1147 383 1 -8.1999999999999995e-01 -1.1045781802468504e+00 -1.4073084120934345e+01 -2.0224352368351415e+00 0 1 0
900 300 2 4.0999999999999998e-01 -5.5737397740800336e+00 -5.8639391331356805e+00 -6.0348801671186418e+00 -1 -2 1
1607 536 2 4.0999999999999998e-01 -7.2959134565315136e+00 -9.5624266298017560e+00 -9.5599249000852105e-01 0 2 2
2415 805 2 4.0999999999999998e-01 -7.1823092684509016e+00 -1.2214302332223756e+01 -5.3232517136131534e+00 -1 -1 0
560 187 2 4.0999999999999998e-01 -4.3054399309805405e+00 -1.4042795394693472e+01 -1.5740015409261581e+00 -1 -1 1
1603 535 1 -8.1999999999999995e-01 -2.4145861317474342e+00 -1.4175786175036203e+01 -4.9309773929937037e+00 -4 0 1
898 300 1 -8.1999999999999995e-01 -5.2891536741006888e+00 -5.0951515738674509e+00 -5.4622543836343365e+00 -1 -2 1
497 166 2 4.0999999999999998e-01 -6.6514777634543858e+00 -8.3881828503025169e+00 -2.9230685244218169e+00 -1 0 -4
498 166 2 4.0999999999999998e-01 -5.8594342218356470e+00 -9.7797987179819543e+00 -2.6029187977875434e+00 -1 0 -4
496 166 1 -8.1999999999999995e-01 -6.2260825895165102e+00 -8.9388936525317639e+00 -2.2049595780239422e+00 -1 0 -4
1295 432 2 4.0999999999999998e-01 -5.6259364271572920e+00 -1.1022739354431039e+01 -6.5602555248400627e+00 -1 1 1
1966 656 1 -8.1999999999999995e-01 -4.0816611149647262e+00 -6.8638085930066577e+00 -2.5211036922037433e+00 -1 2 0
2030 677 2 4.0999999999999998e-01 -1.3860380610427558e+00 -1.1090131348998874e+01 -6.4855245079391644e-01 1 1 -1
1968 656 2 4.0999999999999998e-01 -4.7180127996240380e+00 -7.6091927295241097e+00 -2.7195546776003443e+00 -1 2 0
561 187 2 4.0999999999999998e-01 -3.0147958776933432e+00 -1.3569553931596511e+01 -2.4553096166293766e+00 -1 -1 1
1967 656 2 4.0999999999999998e-01 -3.5783652627679121e+00 -6.6252404101251798e+00 -3.3515869214937251e+00 -1 2 0
1294 432 1 -8.1999999999999995e-01 -5.1746409686284380e+00 -1.1662107341451263e+01 -5.9377887548478974e+00 -1 1 1
1931 644 2 4.0999999999999998e-01 -2.8300310204589483e+00 -8.1356939872486080e+00 -4.5337110535502383e+00 0 -1 3
367 123 1 -8.1999999999999995e-01 -2.7156843150356007e+00 -7.9919258154386954e+00 -1.2222896260811744e-01 -1 2 1
1812 604 2 4.0999999999999998e-01 -5.3786694885085851e+00 -7.6747054154134791e+00 -7.2114784128902727e+00 4 -1 1
1893 631 2 4.0999999999999998e-01 -6.7776091863617669e+00 -1.4942774372742489e+01 -6.6750881154829607e+00 -2 1 1
764 255 2 4.0999999999999998e-01 -5.9560870920824840e+00 -1.4840944725376039e+01 -2.0412735065449361e-01 1 -1 2
1892 631 2 4.0999999999999998e-01 -5.3040584806076154e+00 -1.4956375274325730e+01 -5.9716063181158070e+00 -2 1 1
368 123 2 4.0999999999999998e-01 -3.0553664572246699e+00 -8.8913800164070960e+00 -3.9704178006195612e-01 -1 2 1
523 175 1 -8.1999999999999995e-01 -1.3949387650698984e+01 -9.5887158484045294e+00 1.9554734538265262e+00 1 -1 2
2125 709 1 -8.1999999999999995e-01 -1.2763439780689248e+01 -1.1266118159050745e+01 5.7790817527843430e-02 0 0 1
250 84 1 -8.1999999999999995e-01 -9.7360526141060575e+00 -8.3168972083506816e+00 1.0003730620441491e+00 1 4 1
877 293 1 -8.1999999999999995e-01 -1.2494784037965555e+01 -1.0796846897948321e+01 4.4145964518063021e+00 1 -3 -1
167 56 2 4.0999999999999998e-01 -1.3563705771468770e+01 -1.4388924562829832e+01 5.9405365545400937e+00 -2 -1 -2
878 293 2 4.0999999999999998e-01 -1.1665698495576674e+01 -1.0289274337268576e+01 4.1802651912668392e+00 1 -3 -1
879 293 2 4.0999999999999998e-01 -1.2913544810943392e+01 -1.0393797254354620e+01 5.2283004919439495e+00 1 -3 -1
168 56 2 4.0999999999999998e-01 -1.3957679001105019e+01 -1.4074079129275260e+01 4.3874490197448299e+00 -2 -1 -2
524 175 2 4.0999999999999998e-01 -1.3714069143391558e+01 -9.8210679424353913e+00 2.8991691555654082e+00 1 -1 2
166 56 1 -8.1999999999999995e-01 -1.4308671903673519e+01 -1.4376488389507147e+01 5.2736072883181766e+00 -2 -1 -2
610 204 1 -8.1999999999999995e-01 -1.0061981658756329e+01 -9.6139004011645355e+00 3.5403801074018855e+00 1 0 -1
611 204 2 4.0999999999999998e-01 -9.1175951803846367e+00 -9.6135393380439105e+00 3.8691017462977388e+00 1 0 -1
612 204 2 4.0999999999999998e-01 -1.0145804244623950e+01 -8.9860598259677751e+00 2.7666141011486882e+00 1 0 -1
409 137 1 -8.1999999999999995e-01 -1.4480932488941665e+01 -1.4328993414345438e+01 6.3718314812114230e-01 -2 2 -1
626 209 2 4.0999999999999998e-01 -1.4916059897502247e+01 -1.1246063667265728e+01 6.8908819797614793e+00 -1 2 1
251 84 2 4.0999999999999998e-01 -9.4795869346825761e+00 -7.3975753394240433e+00 1.2986958676531071e+00 1 4 1
1235 412 2 4.0999999999999998e-01 -1.3871267369332109e+01 -7.3304070444581351e+00 4.0858355637178274e+00 0 -3 -2
2141 714 2 4.0999999999999998e-01 -9.4095529696464535e+00 -1.4992556595037339e+01 4.2684281408993794e+00 -1 0 -2
1467 489 2 4.0999999999999998e-01 -1.3132534717791113e+01 -5.4745183085256546e+00 3.6561964097964914e+00 2 1 0
31 11 1 -8.1999999999999995e-01 -9.9028853465948288e+00 -7.2562929345996130e+00 5.1114711555730690e+00 1 0 1
32 11 2 4.0999999999999998e-01 -9.8660032072634181e+00 -8.1040661275689487e+00 4.5824681737562951e+00 1 0 1
1679 560 2 4.0999999999999998e-01 -9.0034905237767084e+00 -1.3631637158761500e+01 6.1513540662799659e+00 3 0 0
525 175 2 4.0999999999999998e-01 -1.3390599715169850e+01 -1.0132215247823137e+01 1.3291441926810368e+00 1 -1 2
33 11 2 4.0999999999999998e-01 -9.4757052263637078e+00 -6.5184906390871955e+00 4.5888922041384017e+00 1 0 1