2611
Atoms. Timestep: 4998000
O 11.259 -9.20805 -6.92223
H 10.8999 -8.28337 -6.79584
H 10.9604 -9.56347 -7.80792
O -14.185 -0.381128 4.00411
H 14.9636 -0.582145 3.69546
H -14.2212 0.22685 4.79723
O -6.63602 -2.40258 -1.60819
H -6.21868 -2.72108 -0.757089
H -6.69631 -3.163 -2.25481
O -15.0341 14.5394 -3.41724
H 14.5057 14.3151 -2.60504
H -14.7756 13.6965 -3.88913
O 7.73321 -9.28239 8.70633
H 7.63187 -9.13137 7.72301
H 7.11655 -8.67137 9.20269
O 7.33047 -7.6116 2.67546
H 6.60037 -6.9302 2.62401
H 7.89816 -7.43184 3.47883
O 5.7887 3.87881 -12.5188
H 6.20558 4.67719 -12.9533
H 4.81136 4.04379 -12.3862
O 13.1618 -8.05045 3.4915
H 13.3002 -8.28046 2.52821
H 12.2788 -8.40773 3.79598
O -7.17086 -10.8716 11.1454
H -7.96481 -10.2645 11.1778
H -7.42201 -11.7685 11.5095
O -12.5321 5.96549 -5.67793
H -13.1799 5.64986 -6.37124
H -11.6034 5.71385 -5.95037
O -10.3578 -6.92119 4.332
H -9.73178 -7.67429 4.12964
H -9.8781 -6.05056 4.22286
O -2.79797 -1.3021 -7.48463
H -1.97046 -0.789578 -7.25539
H -3.17169 -0.962885 -8.34792
O 9.60912 11.9422 -5.3736
H 9.81953 11.6679 -4.43526
H 8.83434 12.5744 -5.37027
O -1.19393 8.22419 7.75218
H -1.38081 7.35198 8.20419
H -0.287529 8.55089 8.01995
O 5.11005 -2.98062 -13.3604
H 5.72718 -3.73321 -13.5901
H 4.60283 -2.70454 -14.1768
O 13.0888 -5.77742 -14.2001
H 13.6103 -5.20789 -13.5647
H 13.5272 -5.76149 14.9794
O 13.6152 -13.8455 -9.87233
H 12.7178 -13.9842 -10.2914
H 13.7434 -12.8741 -9.67282
O -6.33633 4.29052 13.6632
H -6.66407 4.15549 12.7282
H -6.06912 3.40935 14.0533
O 4.41626 7.2202 11.1066
H 5.03786 7.6859 10.4768
H 4.93991 6.61101 11.7022
O -5.79599 -13.4955 -13.0461
H -6.33444 -12.9572 -12.3977
H -4.8706 -13.6201 -12.6882
O 10.986 -10.1358 9.27748
H 10.7611 -10.9369 9.8321
H 10.6145 -10.2531 8.35648
O -9.93706 -11.5824 8.00175
H -10.3484 -11.6744 8.90856
H -9.64106 -12.4808 7.67734
O 10.6127 -2.05469 -2.69651
H 10.7233 -1.49194 -1.87733
H 10.9692 -1.56179 -3.49018
O -13.8238 -5.31632 -3.48
H -14.2795 -5.81493 -4.21739
H -14.2536 -4.42034 -3.36824
O 9.84587 7.80152 7.11578
H 9.95815 8.7906 7.21117
H 10.2662 7.34139 7.89783
O -0.586777 -6.41303 -4.26553
H -1.02069 -7.11127 -3.69616
H -0.981291 -5.51864 -4.05477
O -14.8559 4.22012 -0.759594
H -14.2905 4.49396 -1.53763
H -15.0216 5.01263 -0.17267
O 11.0206 -2.53182 -13.7987
H 11.9733 -2.24199 -13.7076
H 10.6852 -2.29285 -14.71
O -8.58312 10.8966 10.4957
H -8.66369 11.2006 11.445
H -9.49594 10.7612 10.1104
O 9.3506 -13.5239 -3.5514
H 8.57218 -13.9181 -3.06289
H 9.51296 -12.5931 -3.22387
O -12.19 3.16975 -5.32205
H -12.7603 2.55212 -4.78048
H -11.7606 2.65954 -6.06726
O -11.5866 12.4592 -0.238557
H -11.1731 13.213 -0.749266
H -12.5118 12.7146 0.0418556
O -3.32476 4.53798 -9.98668
H -3.45618 4.56839 -10.9775
H -4.07696 4.03073 -9.5661
O -11.5134 11.2694 10.6292
H -10.8911 12.0211 10.4107
H -12.37 11.3892 10.1275
O 11.8263 3.17195 12.5158
H 11.9446 3.03199 13.4988
H 12.308 2.45193 12.0162
O -7.7535 -1.27562 -8.14755
H -7.50467 -1.67032 -7.26308
H -7.10916 -0.547271 -8.38064
O -14.8425 8.47036 -7.6621
H -14.7619 8.53256 -8.6569
H -14.5673 7.55703 -7.36188
O -14.7657 4.35173 9.73717
H 14.7967 4.25397 10.5883
H -14.2204 5.18922 9.77223
O -13.2648 1.97227 9.98274
H -12.3639 2.25124 9.65034
H -13.9448 2.65512 9.71561
O 10.718 -0.677042 13.9699
H 11.1464 -0.858335 13.0847
H 9.73323 -0.555988 13.8451
O 1.50708 4.2354 -10.0048
H 1.1649 4.63612 -9.15486
H 2.27171 4.7817 -10.3467
O 9.02322 -14.108 -0.433468
H 9.03961 -13.3711 -1.10929
H 8.29649 -14.7552 -0.663605
O 0.482976 2.57742 -6.76739
H 0.802259 3.43283 -7.17523
H 1.1323 2.27889 -6.06793
O -13.3141 0.125485 -13.0257
H -14.2482 0.436091 -12.8497
H -12.757 0.263771 -12.2069
O -12.7744 -6.12668 -11.3408
H -12.0427 -5.47251 -11.5324
H -12.488 -7.04069 -11.6281
O -10.2828 -6.0808 14.6908
H -10.2728 -5.2198 -14.8789
H -10.291 -5.88829 13.7096
O 11.3557 -2.50962 2.77075
H 11.4735 -3.4164 3.17556
H 10.5941 -2.53014 2.12305
O 14.1411 4.04477 -12.594
H 13.8881 3.20773 -12.1089
H -14.9444 4.16121 -12.5624
O -4.37925 -0.442322 -10.0316
H -4.90456 0.0779431 -9.3583
H -3.97158 0.186067 -10.6941
O -2.80259 9.97199 9.39379
H -3.67177 10.278 9.00536
H -2.37083 9.31913 8.77142
O 6.09828 0.0148991 11.3741
H 6.7954 0.620358 10.9901
H 5.32822 -0.0513678 10.7396
O 7.7117 5.25543 -3.53157
H 7.82479 5.69412 -2.64008
H 7.09678 4.47196 -3.44191
O 7.16091 -13.1106 3.4228
H 7.77268 -13.2227 4.20585
H 6.5776 -12.3113 3.56724
O -3.80048 -5.33145 -3.04208
H -4.15349 -5.48308 -3.96532
H -3.82733 -4.3543 -2.83127
O -0.0361469 7.34549 2.74976
H -0.175817 6.94515 1.8441
H 0.936187 7.53731 2.88304
O -14.12 -14.3166 5.45987
H -13.6253 -14.0792 6.29593
H -13.8383 -13.7046 4.72083
O 1.28697 -6.50737 3.05301
H 0.308331 -6.42133 3.23973
H 1.79622 -5.88992 3.65252
O -13.3231 13.6189 1.92801
H -12.9201 13.6261 2.84316
H -13.5436 14.5549 1.65355
O -8.82514 14.6824 -3.94052
H -8.68145 -14.6555 -3.28378
H -7.94773 14.4155 -4.33914
O -6.2828 10.8775 3.76039
H -6.78278 10.0795 4.09703
H -6.39823 10.9495 2.76969
O -6.48821 -0.922679 -12.8002
H -6.87737 -1.52067 -13.5009
H -6.10737 -1.47874 -12.0614
O -1.00925 -8.52042 3.17614
H -0.142827 -8.9388 2.90363
H -1.55396 -8.32118 2.36153
O 3.8329 -9.7477 -6.10408
H 2.91325 -9.88066 -5.73455
H 4.11989 -8.80198 -5.95158
O -11.3734 -1.1845 10.5621
H -11.1694 -0.388243 11.1316
H -10.9771 -1.05456 9.65325
O 11.0854 -12.3187 -9.2044
H 10.5739 -12.7027 -8.43575
H 10.8051 -11.37 -9.35064
O 1.28057 -11.4697 12.4303
H 1.76608 -10.8536 13.0505
H 1.36653 -11.1341 11.4923
O -15.0203 -11.5407 -8.91911
H -14.9336 -11.6782 -7.93242
H 14.4879 -10.738 -9.09491
O -8.12741 8.2296 6.97259
H -7.21559 8.61838 6.84058
H -8.09575 7.24321 6.81123
O 9.68805 -8.52786 12.552
H 9.61865 -9.52293 12.6228
H 10.0216 -8.15457 13.4177
O -7.71226 -11.9993 -11.551
H -8.17604 -11.1463 -11.7904
H -7.59767 -12.0492 -10.5588
O -7.33717 -2.57465 -14.7897
H -8.11756 -2.51193 14.6664
H -6.85314 -3.43529 -14.9479
O 13.8831 -1.39055 -13.6273
H 14.3613 -1.71541 -14.4432
H 14.4055 -1.64207 -12.8125
O -5.91497 -2.58987 7.02484
H -5.0278 -2.138 6.93135
H -6.55768 -2.20236 6.36397
O 2.73996 12.8246 6.19093
H 2.99439 13.2425 7.0631
H 2.12798 13.439 5.69295
O -2.64372 0.309292 11.5616
H -1.87301 0.771201 11.1227
H -3.05046 -0.34218 10.9212
O -12.985 2.62706 1.55147
H -12.6066 2.75846 0.635164
H -12.3332 2.96137 2.23225
O 5.75822 11.8072 -9.46393
H 6.19617 12.188 -8.6496
H 5.72099 10.8108 -9.38721
O -7.23681 -3.35798 1.47034
H -7.72841 -3.67612 0.659722
H -6.76386 -4.12875 1.89721
O 3.97993 -8.23115 -0.696297
H 4.40614 -7.35049 -0.903124
H 4.67534 -8.868 -0.363409
O 11.1443 14.1605 6.41828
H 10.8978 14.0612 7.38232
H 10.4868 13.6623 5.85309
O 10.4472 10.1101 2.77715
H 9.75707 10.6817 2.33336
H 11.2603 10.659 2.97092
O 13.3368 -11.418 12.2893
H 12.9833 -11.2068 13.2006
H 12.6138 -11.8375 11.7403
O -4.26707 -13.9757 3.73747
H -4.93588 -13.3994 3.26783
H -4.66894 -14.8734 3.91784
O -9.99044 -8.6552 1.34214
H -9.94762 -7.66691 1.19574
H -9.17997 -9.08632 0.945594
O 3.31996 -14.4256 -12.1856
H 2.54913 -14.3495 -11.5531
H 3.97624 14.9858 -11.8326
O -5.66432 -8.17236 2.14654
H -6.02357 -8.66615 1.35465
H -5.51404 -8.81354 2.89908
O 6.95237 -2.75668 11.6596
H 7.43141 -2.94391 10.802
H 6.56607 -1.83475 11.6312
O -1.19146 -1.83888 -12.1998
H -0.89808 -1.26876 -12.9672
H -2.14231 -2.11711 -12.3357
O -9.79226 -9.10865 11.3902
H -9.96773 -8.23799 10.9307
H -10.1737 -9.0807 12.3141
O 1.41212 5.03733 6.20566
H 1.12333 4.83067 7.14048
H 0.632172 5.38444 5.6849
O -2.04084 -10.8354 -5.98951
H -2.93332 -10.3843 -5.9855
H -1.35171 -10.2076 -6.35138
O -13.5566 12.9275 6.75374
H -13.6251 13.5689 7.51788
H -14.4669 12.7632 6.37385
O 6.59633 2.09056 -10.8486
H 6.20802 2.80102 -11.4355
H 7.56607 2.27934 -10.6938
O 11.5456 5.6149 -4.41185
H 10.9025 6.08934 -5.01297
H 11.8001 6.21658 -3.65476
O 6.50759 4.10017 13.0855
H 5.90063 4.092 12.2908
H 7.42339 3.8094 12.8084
O 9.36481 -10.0415 -9.29889
H 8.87276 -10.8674 -9.02348
H 8.82566 -9.23538 -9.05506
O -3.76594 12.7653 13.6913
H -3.31252 12.2095 14.3882
H -4.68654 13.0027 14.0014
O -9.28114 2.24859 -14.9022
H -9.34142 1.25505 -14.8061
H -10.1939 2.64784 -14.8155
O -3.16397 12.6378 8.87691
H -2.362 12.9956 8.39854
H -2.87166 11.9837 9.57451
O -4.92822 -4.98173 -8.43732
H -4.04135 -5.38594 -8.66106
H -4.86111 -4.49063 -7.56881
O 13.1302 -10.4052 -12.1113
H 12.1382 -10.3363 -12.0057
H 13.5135 -9.49381 -12.2611
O 5.33334 11.1066 11.7444
H 6.08312 11.5935 12.1925
H 4.46391 11.3858 12.152
O 7.10916 -8.50262 -7.96152
H 7.2947 -7.52014 -7.94422
H 6.20315 -8.66388 -8.35285
O 8.05817 -12.1287 9.33678
H 8.13823 -12.8773 8.67868
H 8.09933 -11.2542 8.85346
O -10.664 9.1573 -3.24655
H -9.88874 8.52653 -3.27945
H -10.4694 9.95475 -3.81767
O 12.2036 12.8067 9.95115
H 12.317 11.8313 9.76206
H 12.9558 13.3168 9.53397
O -7.98557 10.5211 -6.66151
H -8.46571 11.304 -7.05726
H -8.65223 9.8684 -6.30163
O -5.41463 1.52903 -13.3648
H -5.68715 0.59418 -13.1372
H -5.42927 1.64821 -14.3575
O 7.17098 6.16763 8.73064
H 6.88807 6.55326 7.85243
H 8.16124 6.02841 8.73004
O -6.66688 14.0966 11.4241
H -6.90692 13.7556 12.3329
H -5.67212 14.1017 11.322
O -12.1052 7.72435 14.1401
H -11.4326 6.98434 14.1384
H -12.0428 8.23337 13.2816
O 3.26091 -4.05512 -9.52461
H 3.79399 -4.37547 -8.74154
H 3.82458 -3.44941 -10.0862
O -3.51128 -10.1319 -11.565
H -2.72075 -9.89305 -12.129
H -4.31001 -9.61643 -11.8753
O -8.6157 -3.8932 -4.98634
H -9.28404 -4.52169 -5.38424
H -8.17619 -4.3279 -4.2003
O -6.59112 2.42473 -1.79457
H -7.56033 2.24186 -1.62975
H -6.36056 3.33512 -1.45103
O -10.8449 -6.08146 7.06051
H -10.158 -5.38676 7.27403
H -10.6743 -6.44889 6.14624
O 5.37711 -5.28215 10.8732
H 6.04923 -4.79066 11.427
H 4.45892 -5.10246 11.2263
O -9.01258 9.23544 1.39708
H -9.86736 9.53293 1.82235
H -9.06696 9.37263 0.408036
O 10.187 -7.52559 9.94215
H 10.4138 -8.43377 9.59037
H 9.53956 -7.61352 10.6992
O 13.5378 -8.48367 8.4686
H 12.9544 -9.20835 8.83533
H 14.3529 -8.39057 9.04037
O 2.05647 -6.22599 -3.27958
H 1.1298 -6.40403 -3.61062
H 2.20617 -6.72267 -2.42465
O 5.98456 7.72947 6.80318
H 5.09007 7.28511 6.75398
H 5.96435 8.44266 7.50386
O -2.74031 -8.2511 0.94596
H -2.92929 -9.22404 0.813047
H -3.33339 -7.71167 0.348239
O 11.5551 4.09122 5.8233
H 12.5363 4.1201 6.01409
H 11.3701 4.55614 4.95751
O -9.21528 6.86665 -3.94583
H -8.39801 7.04849 -4.49265
H -9.49504 5.91477 -4.07096
O 7.8472 2.52238 -0.703008
H 7.08845 2.93181 -1.20962
H 7.8966 2.92877 0.209354
O 12.6789 -6.96242 6.27132
H 12.9617 -7.53858 7.03816
H 12.7206 -7.4915 5.42378
O -6.0095 10.0847 6.56966
H -5.65415 10.5714 7.36771
H -5.24747 9.71386 6.03886
O 0.274273 -13.2839 4.18896
H 1.05748 -12.6646 4.24416
H -0.506893 -12.8764 4.6619
O 2.52667 0.25273 -13.7585
H 2.40491 -0.133086 -12.844
H 3.30841 0.876324 -13.7558
O -13.4861 12.6818 -12.3865
H -14.076 13.4362 -12.0987
H -12.5304 12.9231 -12.2179
O -7.86735 1.77656 -9.98451
H -8.53966 2.40408 -10.3772
H -6.94759 2.14325 -10.1244
O 6.9216 -14.3375 -2.33739
H 6.40706 14.8834 -2.32501
H 6.53499 -13.7267 -3.02836
O 12.0575 -12.0472 -0.0266057
H 11.8864 -12.9502 0.36746
H 12.6141 -12.1436 -0.851721
O -5.87868 9.07708 -10.4085
H -5.84938 8.64 -11.3075
H -6.58691 8.64458 -9.85052
O -12.8372 10.307 6.96193
H -11.9418 9.93823 6.71227
H -12.7753 11.3011 7.05092
O -14.2411 -14.1124 0.784154
H 15.0194 -14.1813 0.212707
H -13.5203 -13.6379 0.278807
O -11.3694 8.71924 11.7348
H -10.4371 8.36337 11.6708
H -11.3956 9.65195 11.3751
O 9.29035 -1.1343 8.60392
H 9.86395 -1.2157 7.78885
H 9.303 -1.99787 9.10799
O 0.918369 13.4931 -14.3643
H 1.82503 13.3005 -13.9889
H 0.572327 12.6806 -14.8334
O 10.5505 -6.76751 14.5604
H 9.69984 -6.57604 -15.0282
H 11.3285 -6.4789 -14.9597
O -2.16445 -12.3643 1.49212
H -2.35254 -12.9703 2.26498
H -3.01852 -12.1584 1.01446
O -14.6604 0.871704 12.039
H -14.2176 1.0596 12.9157
H -13.9842 0.929998 11.3047
O 0.232177 -4.25911 6.53109
H 0.489198 -4.94786 5.85319
H 1.00415 -3.6437 6.6902
O 9.88962 0.914365 10.2948
H 10.7089 0.748014 10.8435
H 9.56155 0.0494315 9.91497
O -14.5227 1.3843 -1.27012
H -14.3422 0.948077 -0.38858
H -14.6976 2.35888 -1.13014
O -11.6864 -3.80209 -1.67173
H -12.4111 -3.61913 -1.00736
H -11.5951 -3.02068 -2.28903
O -0.151804 7.38049 -0.523369
H -0.38119 6.51868 -0.975757
H -0.729747 8.1115 -0.886134
O 6.21502 -9.59724 -3.90051
H 5.88311 -8.75919 -4.33351
H 5.44482 -10.0921 -3.49819
O -5.00814 -8.09921 -12.5411
H -5.811 -7.69666 -12.1014
H -4.44318 -7.37285 -12.9326
O -4.75879 -8.11065 5.24515
H -4.40015 -7.27891 4.82138
H -4.71109 -8.02493 6.24032
O -3.78058 7.85802 14.9416
H -3.44941 8.76541 -14.8778
H -4.77033 7.89151 14.8028
O 4.79246 8.459 -10.8594
H 5.33753 8.19672 -11.6557
H 5.39049 8.55801 -10.0641
O -10.7657 -14.6891 3.20459
H -11.3251 -13.9026 2.94292
H -11.3507 14.6803 3.59874
O -8.49891 -4.7558 7.95517
H -8.23187 -5.52553 8.53499
H -8.20843 -3.89982 8.38286
O 6.75948 -0.575003 7.38931
H 6.01396 -1.07125 7.8342
H 7.56551 -0.583689 7.98113
O 5.86701 4.26464 10.281
H 6.53516 3.5209 10.2604
H 6.2104 5.03609 9.74529
O -5.72922 8.12961 9.6115
H -5.28872 7.7355 8.80488
H -5.90353 9.10171 9.45457
O -7.23813 14.6294 8.78044
H -7.12717 14.4258 9.75319
H -6.68578 13.9933 8.24166
O 10.2579 10.8971 -2.14881
H 11.0571 10.9791 -1.55331
H 9.88079 9.97386 -2.07526
O 12.3372 -4.73351 4.16105
H 13.1384 -4.58596 3.58113
H 12.5053 -5.50787 4.77105
O -5.45982 4.7641 4.10139
H -5.24523 3.86248 3.72584
H -5.03118 4.86167 4.99958
O 6.0526 -9.36711 -11.0281
H 5.96002 -8.7255 -10.2667
H 6.53291 -8.92107 -11.7833
O -14.978 9.76461 -5.12754
H -14.0821 9.34463 -4.98281
H 14.7981 9.59068 -6.0648
O -3.4568 12.9442 0.565365
H -3.96839 12.2303 0.0872325
H -2.82509 12.5227 1.21594
O -6.12209 -9.17917 -2.33861
H -6.95024 -9.04401 -2.88256
H -5.46951 -9.73203 -2.85675
O 3.71517 14.9288 -0.925347
H 4.53063 -14.6512 -0.630826
H 3.2759 14.5092 -0.130994
O -2.22247 -12.5869 5.2086
H -2.96943 -12.9709 4.66584
H -2.38575 -11.6116 5.35743
O -2.40904 -8.61772 -9.57721
H -1.41929 -8.65235 -9.71573
H -2.86045 -9.20417 -10.2497
O 5.68426 5.74996 -8.26181
H 5.93713 6.32287 -7.48218
H 6.30754 5.92897 -9.02304
O 9.80249 3.90091 7.88754
H 10.4246 4.05342 7.11965
H 9.16822 3.16176 7.66092
O 14.0087 3.94077 2.32225
H 13.9529 4.86179 2.70774
H 14.9683 3.69117 2.1928
O -14.9015 14.827 -12.035
H -14.8681 -14.8597 -12.9545
H 14.7106 -14.6161 -11.4191
O -0.878694 14.5642 -12.7363
H -0.370452 13.9524 -13.3425
H -0.378598 14.6733 -11.8772
O -14.5397 -10.7004 1.31832
H -14.4127 -10.1755 2.15994
H -13.6476 -10.9059 0.915814
O 1.18833 -9.40737 -5.04494
H 0.741984 -9.91101 -4.30526
H 0.593534 -8.66254 -5.34732
O 3.65065 -7.30778 2.34543
H 3.79549 -8.28817 2.47904
H 2.77213 -7.04337 2.74328
O -0.437393 13.9539 -1.72607
H 0.447565 14.027 -2.18595
H -0.75339 13.0057 -1.7602
O 5.91248 8.94066 -3.58819
H 6.3325 9.6986 -4.0873
H 6.13384 9.01835 -2.61611
O 12.3162 -3.02097 7.21947
H 11.767 -2.50379 6.563
H 12.496 -2.45408 8.0234
O 6.5497 -3.6477 0.0450995
H 6.20957 -4.55174 -0.213772
H 6.498 -3.03397 -0.742718
O -8.10117 -8.52747 -9.75923
H -8.43494 -8.93904 -10.6073
H -7.34987 -7.90076 -9.96605
O 12.5963 4.65881 -1.30927
H 12.5544 5.64254 -1.48393
H 13.5379 4.39793 -1.09628
O -5.24747 -1.58066 3.9469
H -4.57442 -1.91071 4.60876
H -4.98427 -1.87587 3.02844
O 7.37483 12.4959 -1.53484
H 8.22838 13.0149 -1.58112
H 7.56605 11.5676 -1.21605
O -9.9005 4.30889 -4.18841
H -10.7058 3.77031 -4.43616
H -9.22811 3.71755 -3.74322
O -3.63203 -12.8866 -2.05717
H -4.06852 -13.4188 -1.33176
H -2.64347 -13.035 -2.03075
O -9.42759 -14.7765 -11.916
H -9.11347 14.7191 -11.1664
H -9.02491 -13.866 -11.8218
O 4.29198 -7.20902 5.39761
H 4.94653 -7.96023 5.31248
H 4.69647 -6.47464 5.94265
O -13.6964 -2.82963 0.0869538
H -13.831 -1.87864 0.365303
H -14.5762 -3.30482 0.0873069
O -2.33749 1.28688 -12.1837
H -2.0077 1.98216 -11.5451
H -2.91902 1.71734 -12.874
O -2.83628 12.8345 -13.8073
H -3.66461 12.8327 -13.2471
H -2.16079 13.4502 -13.4016
O -12.7646 -7.03367 13.275
H -12.3573 -6.20053 13.6492
H -12.4886 -7.8181 13.8304
O -0.848583 -8.16497 -6.3393
H -0.920397 -7.55957 -7.13197
H -1.1747 -7.68663 -5.52393
O 9.5028 -14.3551 11.5498
H 9.30487 14.9662 12.1727
H 8.72522 -14.216 10.9366
O 12.2248 12.4948 -4.2616
H 11.6271 12.6589 -5.04641
H 12.2547 13.3138 -3.68853
O 9.85627 -4.5647 5.53724
H 9.98427 -4.68408 6.5218
H 10.7337 -4.67736 5.07098
O 5.7776 -5.35561 6.64448
H 5.99867 -4.73998 5.8881
H 6.58865 -5.48831 7.21419
O -1.12626 -3.04022 8.66135
H -2.08392 -3.32692 8.68729
H -0.652745 -3.5258 7.92651
O -11.4365 -3.7878 10.6271
H -12.4116 -3.88081 10.4256
H -11.1872 -2.81938 10.628
O 3.5143 5.3342 -5.78447
H 3.12725 6.12377 -6.26067
H 4.50783 5.4329 -5.72843
O 5.18605 -2.62569 8.36023
H 5.7854 -3.33633 7.99177
H 4.92547 -2.86181 9.29636
O 4.81235 3.33844 -8.46591
H 5.34507 3.18021 -9.29727
H 4.91526 4.29127 -8.18039
O -9.03872 -9.19414 3.97579
H -9.1778 -10.0773 4.42372
H -9.46038 -9.21015 3.06919
O -4.9216 10.4127 -13.1467
H -4.08956 10.3224 -12.5994
H -5.31745 11.3199 -13.0043
O 9.51565 -5.04052 12.1113
H 9.07445 -5.8343 12.5299
H 10.5087 -5.14944 12.1552
O 12.4315 -6.28244 10.7015
H 11.5159 -6.67004 10.5946
H 13.0999 -6.87895 10.2573
O 3.34878 11.9015 -14.2981
H 3.34478 10.9561 -13.9723
H 4.29282 12.2175 -14.3926
O -14.822 -10.6096 6.93335
H -13.8449 -10.6866 7.13177
H -15.013 -9.70885 6.54339
O 10.0153 13.8199 -9.26371
H 10.8325 13.7606 -8.69047
H 10.1244 14.5631 -9.92384
O 8.29886 -14.3049 -14.8089
H 7.92583 -14.4378 -13.8906
H 7.59102 -14.5004 14.5905
O -3.33268 11.1811 -6.15917
H -3.5032 10.2332 -5.89037
H -4.16435 11.5699 -6.55561
O -13.3708 13.4197 14.726
H -13.1087 12.4879 14.4749
H -12.7754 13.7472 -14.6186
O -3.71112 -2.7763 11.9227
H -3.56483 -3.7577 12.0469
H -3.48222 -2.29537 12.769
O 13.6511 -7.83439 -7.89136
H 13.0154 -8.58042 -7.6931
H 14.0985 -8.0023 -8.76979
O 2.68872 2.72929 -5.15099
H 3.46713 2.15518 -4.89709
H 3.01211 3.64789 -5.3781
O -1.91661 7.42206 -5.01135
H -1.99711 6.77272 -5.76757
H -0.955765 7.66833 -4.88435
O -10.9202 -13.6585 -14.6497
H -11.1445 -14.3158 -13.9302
H -9.95865 -13.3951 -14.5726
O 3.20429 -12.8665 2.96217
H 3.85082 -12.914 2.20077
H 2.28341 -13.0718 2.63082
O 9.79072 -1.38809 -7.06043
H 9.39856 -0.745301 -6.40238
H 9.63396 -1.05166 -7.98899
O 5.627 -6.13127 -1.1552
H 5.37746 -5.8197 -2.07207
H 6.56037 -6.48996 -1.16759
O 13.5869 0.52788 7.38172
H 14.4583 0.988456 7.21266
H 12.8382 1.18237 7.27698
O 8.26829 0.147789 -2.25815
H 7.76242 -0.628402 -1.88183
H 8.07049 0.967058 -1.71994
O 9.1386 9.1583 10.5424
H 9.50745 8.36029 10.0659
H 8.16754 9.257 10.325
O -2.75534 10.5898 -8.74993
H -3.33789 9.79408 -8.58412
H -2.73202 11.1624 -7.93042
O 0.752876 -9.79047 -10.0348
H 1.33083 -9.04869 -10.375
H 1.30648 -10.6138 -9.90974
O 8.24208 -14.3361 7.75134
H 8.77991 15.0226 8.19077
H 7.49366 -14.7492 7.23249
O 9.0308 -12.8508 5.55275
H 8.85787 -13.4898 6.30222
H 9.48694 -13.3311 4.80365
O -8.73833 -14.1958 -7.86484
H -8.35244 -13.3371 -8.20203
H -9.62438 -14.3565 -8.29968
O -10.8632 -3.98805 -10.9832
H -9.9709 -4.19229 -10.5805
H -11.335 -3.30882 -10.4211
O -6.07547 -6.39478 -10.8343
H -5.54588 -5.94475 -10.1153
H -6.46061 -5.70417 -11.4464
O 7.87493 -9.12811 5.95503
H 8.03681 -8.22087 5.56683
H 8.75133 -9.56837 6.15018
O -11.2073 10.0777 -13.8393
H -11.6655 9.38443 -13.2829
H -11.8303 10.3975 -14.553
O 1.89947 14.5856 -2.93538
H 2.29406 14.7764 -3.83422
H 2.57295 14.7911 -2.2253
O -7.41732 -2.48369 9.32228
H -6.73456 -2.53405 8.59338
H -7.45678 -1.54996 9.67808
O 10.2104 -10.58 -14.3086
H 9.25782 -10.5067 -14.6039
H 10.4271 -9.82375 -13.6912
O -8.16115 9.61218 -1.56414
H -7.93335 9.76149 -2.52633
H -7.47779 9.01153 -1.14915
O -13.302 4.41151 -12.3689
H -12.7011 4.52389 -11.5775
H -12.8018 3.95591 -13.1052
O 4.77213 -14.8767 -14.8609
H 4.55443 -14.7044 -13.9002
H 5.23104 14.317 -14.9453
O -12.1499 3.18169 -1.13229
H -12.5601 2.30699 -1.39039
H -12.3571 3.86619 -1.83121
O 10.9606 -9.20648 4.6627
H 11.0047 -9.85947 3.90663
H 10.7299 -9.68956 5.50733
O 0.736847 8.11451 -4.46406
H 1.61848 7.67419 -4.29428
H 0.887916 9.03909 -4.81382
O 0.609872 -14.5829 -10.811
H 1.19495 -14.8605 -10.049
H 0.184575 -13.7025 -10.6011
O 12.6238 1.55784 2.213
H 13.3045 0.83207 2.1133
H 13.0608 2.44623 2.07221
O -9.99431 11.4036 -4.81356
H -9.13875 11.7207 -5.22271
H -10.7272 12.048 -5.03176
O 2.62298 -4.96108 -13.8699
H 1.72543 -5.39969 -13.9147
H 2.50839 -3.98617 -13.6791
O -4.22208 4.47565 6.75903
H -3.29879 4.16545 6.53251
H -4.77171 3.69568 7.05827
O 7.41293 4.0104 1.70785
H 7.84113 4.15199 2.60037
H 6.81418 4.78363 1.499
O 3.24169 7.23004 6.42955
H 3.4633 7.48065 5.48717
H 2.73427 6.36836 6.43477
O 1.29839 -8.97484 -13.4474
H 1.70201 -9.08655 -14.3554
H 1.95785 -9.26056 -12.752
O -9.61705 3.19053 12.2879
H -9.79146 3.47157 13.2316
H -8.82752 3.69033 11.9318
O -10.9482 -6.81188 9.74481
H -11.3324 -6.07304 10.2984
H -11.3123 -6.75578 8.81515
O 14.7729 8.92385 -1.0617
H 14.1011 8.98751 -1.79974
H -14.4274 9.28293 -1.37823
O -11.0608 0.452426 2.73124
H -11.4254 1.21699 3.26274
H -11.5681 -0.380111 2.9537
O -4.30412 -14.771 -0.179448
H -5.24048 -14.9494 0.122851
H -3.75646 14.4769 -0.0756244
O 12.8383 -13.0122 8.77565
H 12.9092 -12.4786 7.93291
H 13.1896 -13.9348 8.61652
O -10.7415 -0.0144982 -14.817
H -10.2393 -0.878387 -14.7778
H -11.4582 -0.0136084 -14.1197
O 5.28453 1.40749 -13.5806
H 5.14514 2.16682 -12.9451
H 5.97372 0.784853 -13.2101
O -8.00454 4.74586 -13.7169
H -7.07877 5.11435 -13.8014
H -8.04665 3.84705 -14.1532
O 4.50835 -12.642 -6.60555
H 4.95141 -12.9565 -7.44507
H 4.28312 -11.6715 -6.69095
O 14.9486 -8.09529 -10.0332
H -14.1775 -8.22287 -9.75526
H 14.906 -7.95543 -11.0225
O -6.38079 -5.26314 13.8719
H -6.50327 -6.25561 13.8705
H -6.52671 -4.90801 12.9486
O 9.93258 -2.1996 -11.1627
H 10.1308 -1.81063 -12.0624
H 9.7153 -1.46339 -10.5218
O 6.44122 10.3993 7.7146
H 7.42757 10.2647 7.61961
H 6.25154 11.3664 7.88423
O 9.48717 -13.9582 -6.83179
H 10.3527 -14.4554 -6.89164
H 9.55366 -13.2577 -6.1213
O -5.37054 5.31953 -13.0392
H -5.2508 6.17992 -13.5346
H -4.57968 4.72919 -13.2005
O 1.36657 6.62635 -12.4804
H 2.32462 6.42035 -12.6796
H 1.28091 6.92744 -11.5306
O 9.93049 14.4455 1.9695
H 10.3518 -14.9789 2.59798
H 9.50119 14.9393 1.21328
O 7.78617 -14.8047 -11.9737
H 8.40816 -14.2475 -11.4235
H 8.15964 14.3505 -12.067
O -12.3335 6.69987 -11.1802
H -11.4569 6.33597 -11.495
H -12.674 7.36802 -11.8417
O -1.57251 3.94815 6.51251
H -1.26825 4.46312 5.71112
H -0.958741 4.13278 7.2801
O 2.75125 -5.11303 12.8675
H 2.98073 -5.03516 13.8376
H 1.92143 -5.66141 12.7642
O -12.9648 -4.06529 3.66033
H -13.8675 -3.77895 3.33907
H -12.939 -4.02696 4.65926
O 8.64332 3.29357 -14.7697
H 7.68771 3.52084 -14.9572
H 9.04268 2.8461 14.5083
O -10.0744 5.5654 -6.62567
H -9.59638 5.03558 -7.32621
H -9.92871 5.14306 -5.73102
O 9.30151 2.56865 -10.0816
H 9.41936 2.94103 -11.0022
H 10.0001 2.94971 -9.47594
O -7.99687 -13.2038 14.9258
H -7.35284 -12.9084 -14.4468
H -7.65444 -12.931 14.0267
O 6.00288 -10.8636 4.59261
H 6.50801 -10.1321 5.05063
H 5.27431 -11.1924 5.1935
O 6.95874 12.8528 4.02084
H 6.33585 12.1394 4.34178
H 6.50072 13.4073 3.32608
O 9.26974 -0.0843819 -9.5814
H 9.4293 0.888418 -9.7493
H 8.28582 -0.260112 -9.54947
O 12.7732 -10.8866 14.8455
H 13.3642 -10.9991 -14.4339
H 11.8689 -10.5783 -14.9374
O 0.010347 8.54707 -13.7034
H 0.205075 9.11062 -12.9006
H 0.260159 7.59774 -13.5127
O -4.49091 2.28052 11.0608
H -3.68932 1.6859 10.9985
H -4.24389 3.20461 10.7692
O 10.6679 -3.84011 -7.60134
H 10.389 -2.99028 -7.15413
H 11.0503 -3.63296 -8.50181
O 7.95687 1.69793 6.87688
H 7.34344 0.955726 7.14672
H 8.01433 1.73684 5.87929
O 7.4975 11.9643 13.1739
H 8.27694 12.5863 13.0991
H 7.73947 11.1965 13.7671
O -5.88216 1.75328 -5.74191
H -5.68074 2.65001 -5.34785
H -5.96268 1.07764 -5.0091
O -8.08294 8.5654 -8.89134
H -7.95617 9.3355 -8.26615
H -8.97735 8.63807 -9.33263
O -11.2724 -4.81573 -4.54394
H -10.8247 -4.05042 -4.08153
H -12.1115 -5.05543 -4.05561
O -1.32546 11.572 -3.73546
H -2.11956 10.9912 -3.91466
H -0.856857 11.2512 -2.91236
O -1.17211 2.79262 -10.2993
H -0.200863 3.01586 -10.382
H -1.65833 3.56577 -9.89209
O 3.1113 10.7959 9.78894
H 2.65084 11.6836 9.78678
H 3.83306 10.7965 10.4811
O -11.9878 -10.1899 3.3616
H -12.2695 -9.23871 3.23527
H -11.9073 -10.3867 4.33872
O -14.6508 12.6549 11.5116
H 14.5364 12.7485 11.9558
H -14.0809 13.4449 11.738
O -13.4374 7.24465 10.4452
H -12.8997 7.61219 11.204
H -14.3992 7.48908 10.5691
O 13.8616 12.0955 -6.95047
H 14.2422 12.4659 -6.10316
H 14.5549 12.1297 -7.67027
O -8.99546 -0.442653 -11.7456
H -8.54425 0.00103141 -10.9713
H -8.30531 -0.838458 -12.3514
O 4.26162 -6.20167 -11.957
H 5.21571 -5.90816 -11.8974
H 3.74699 -5.55104 -12.5154
O 6.21078 6.52426 -5.42176
H 6.41086 7.3362 -4.87338
H 6.76032 5.75623 -5.09292
O -5.19424 -5.70206 -5.13445
H -4.8229 -5.006 -5.74894
H -5.54706 -6.46762 -5.67244
O 4.36997 -14.3176 4.917
H 3.95397 -13.7847 4.18015
H 3.88256 -14.1411 5.77215
O 2.38375 1.24778 13.1519
H 2.14845 0.910701 12.2403
H 3.06742 0.645361 13.5638
O -3.88852 -1.03658 9.57269
H -3.86657 -1.79782 10.2208
H -3.48516 -1.32612 8.70467
O -5.54171 12.3071 -7.31539
H -6.50676 12.1072 -7.48489
H -5.43857 13.272 -7.07378
O -5.63763 6.14393 1.84143
H -5.68462 5.63191 2.69911
H -5.38985 7.09355 2.03329
O -11.7593 -2.13516 -8.9312
H -12.3439 -2.23189 -8.12568
H -10.9433 -1.60998 -8.68971
O 3.42537 -9.14678 9.25062
H 2.5519 -9.57909 9.47457
H 3.93327 -8.96572 10.0928
O 9.72855 7.54591 -10.7432
H 10.1594 8.21942 -10.1426
H 10.2264 7.50507 -11.6095
O -8.51699 -4.91069 5.26187
H -8.48215 -4.52422 6.18351
H -8.37162 -4.18431 4.59013
O 0.583015 5.87074 11.9088
H -0.136159 6.21805 12.5106
H 0.923459 6.61396 11.3329
O -7.23974 -4.4328 11.2658
H -6.7541 -5.18 10.8121
H -7.39874 -3.69306 10.6119
O 12.2527 11.2431 -14.4757
H 12.4372 12.0059 -13.8559
H 12.297 11.5641 14.6565
O 4.8131 -12.1293 13.7674
H 5.62738 -12.6982 13.883
H 4.09199 -12.4509 14.381
O -5.0868 13.1337 -11.9328
H -5.26865 14.0989 -11.7449
H -5.41192 12.5782 -11.1675
O -6.16137 -10.0806 4.14149
H -5.43307 -9.507 4.51639
H -7.04602 -9.64227 4.30033
O -10.1166 -0.942479 7.83887
H -9.24086 -1.38209 7.6392
H -10.6407 -0.844121 6.99293
O 1.04586 -2.13684 14.8109
H 0.578908 -1.3571 -14.8502
H 0.605932 -2.36287 13.9418
O -6.9111 -5.0387 -2.8033
H -7.69174 -5.55282 -2.44796
H -6.41062 -5.60369 -3.45927
O -13.9517 -9.44897 -1.58158
H -13.8875 -9.18881 -0.618152
H -14.8072 -9.94279 -1.73718
O 0.421473 10.3965 -11.4009
H 0.295728 11.296 -10.9825
H 1.39172 10.2519 -11.5951
O -9.13994 0.206452 0.387057
H -9.96748 0.0539894 0.927343
H -8.58225 -0.623588 0.390117
O 14.0037 -11.3804 -5.20879
H 13.4744 -12.2116 -5.37894
H 13.4214 -10.6995 -4.76459
O -8.91264 13.9497 1.26091
H -9.14692 14.2868 2.17275
H -9.61551 13.3091 0.951582
O 8.50315 11.9297 1.77483
H 7.51045 11.993 1.87742
H 8.89578 12.8492 1.7578
O 3.09144 3.67037 -12.5155
H 2.18439 3.99894 -12.2522
H 3.05723 3.30766 -13.4467
O 2.93208 12.0895 -8.95921
H 3.90289 12.3175 -9.03361
H 2.4344 12.8701 -8.58113
O 4.05903 -2.50681 14.4553
H 3.09345 -2.25676 14.3837
H 4.62539 -1.73725 14.1604
O 13.486 10.3659 9.70626
H 14.0988 10.8636 10.3201
H 13.6988 9.38952 9.7424
O -6.75087 8.39595 -13.2646
H -6.81898 7.76198 -14.035
H -5.97559 9.01132 -13.4069
O -6.75957 -1.79669 -5.75516
H -7.48161 -2.41222 -5.43931
H -6.50262 -1.17634 -5.01412
O -13.2148 8.17654 -13.3967
H -13.7228 9.02619 -13.5383
H -12.8588 7.8511 -14.2727
O -6.05727 -8.22748 14.2674
H -5.32495 -8.84285 13.9758
H -6.67727 -8.71499 14.8822
O 10.2242 3.19742 2.53265
H 10.9441 2.56281 2.25147
H 10.1901 3.96666 1.89461
O -11.611 0.0389718 -10.8038
H -11.7728 -0.453757 -9.94883
H -10.6745 -0.127392 -11.1124
O 11.235 9.3305 -9.354
H 11.2757 10.0611 -8.67241
H 11.567 8.47838 -8.9495
O -10.0672 13.2534 9.0823
H -9.1311 13.0789 8.77689
H -10.5238 13.8573 8.42898
O 6.20565 -12.9003 -4.42635
H 6.8848 -12.3152 -4.86963
H 5.34184 -12.8468 -4.9273
O 0.95543 7.63494 -9.87915
H -0.0154751 7.6101 -9.64099
H 1.23368 8.5809 -10.0457
O 7.74732 9.73688 14.8968
H 8.49809 10.0658 -14.6085
H 8.09235 9.04998 14.2572
O -4.92535 4.5157 -3.60776
H -3.93754 4.36417 -3.57244
H -5.36346 4.03664 -2.84713
O -9.67622 3.72255 -10.7782
H -10.6569 3.61441 -10.6152
H -9.52486 4.48637 -11.4056
O 6.94526 6.24257 -13.3468
H 6.91373 7.23265 -13.2099
H 6.99312 6.04279 -14.3255
O -5.63564 2.84879 -10.9469
H -6.14517 3.58968 -11.3845
H -5.34427 2.18978 -11.6403
O 14.1738 4.85895 -4.68694
H 13.2548 4.93143 -4.29933
H 14.315 3.9337 -5.03902
O -10.2604 8.94 -6.62721
H -10.0497 7.96323 -6.66585
H -10.9418 9.10603 -5.91441
O 14.0889 13.8828 2.46884
H 13.766 14.8268 2.53746
H -14.9963 13.8779 2.35127
O -9.19775 2.28788 -1.0961
H -9.09475 1.44526 -0.567548
H -10.161 2.55613 -1.11136
O 6.83137 11.3258 -12.3901
H 7.47009 11.4882 -11.638
H 6.42492 10.4174 -12.2919
O -5.02951 13.3358 3.80677
H -5.69523 12.6021 3.94289
H -4.17456 12.95 3.46006
O 13.2984 10.6219 -10.9851
H 12.6241 9.93004 -10.7271
H 13.1766 11.4348 -10.4154
O -0.289982 -13.7387 12.2187
H -1.12214 -13.5795 11.6876
H 0.259907 -12.9037 12.2351
O 5.54202 1.98498 -6.31249
H 5.35446 1.07308 -6.67753
H 5.44136 2.66275 -7.04084
O -8.31112 -8.71779 -4.07067
H -9.27307 -8.96172 -4.1937
H -7.8815 -8.59442 -4.9652
O -8.23398 -13.373 -2.28539
H -7.91293 -12.8849 -3.09699
H -8.8979 -12.8068 -1.79686
O -5.9122 2.45721 7.67654
H -6.59984 1.99708 8.23817
H -5.91842 2.06707 6.75581
O 2.73451 13.8562 8.7366
H 1.8789 13.5216 9.13154
H 2.73561 14.8562 8.74227
O 7.61407 -10.5397 -5.98956
H 7.12169 -10.2649 -5.16371
H 7.50307 -9.8376 -6.69296
O 11.1914 1.14388 4.75946
H 11.2689 2.00639 5.25953
H 11.8094 1.1576 3.97342
O -0.907486 -12.1501 -14.5094
H -0.151819 -12.7679 -14.7269
H -1.09819 -11.566 14.7799
O 8.14639 -1.35388 5.00078
H 7.9208 -1.03953 5.92289
H 7.74274 -2.25596 4.84809
O -4.58816 7.04723 7.41964
H -4.15451 7.67578 6.77399
H -4.33019 6.10768 7.19448
O 6.07883 -1.34949 -7.35462
H 5.44089 -0.790005 -6.82545
H 6.26105 -0.906985 -8.23267
O 14.7057 4.8336 12.3786
H 14.4399 5.77947 12.5648
H 14.1155 4.21358 12.8955
O -8.64835 -3.87618 -9.03313
H -8.36873 -2.95958 -8.74741
H -7.98557 -4.54622 -8.69882
O -11.2056 -9.51468 13.7002
H -12.0192 -9.8809 13.2486
H -11.0914 -9.95594 14.5902