LAMMPS data file via write_data, version 15 May 2015, timestep = 1000000

4560 atoms
7 atom types
5040 bonds
3 bond types
7200 angles
2 angle types
10560 dihedrals
3 dihedral types
2400 impropers
1 improper types

-1.0763502675555259e-01 4.1387635026745990e+01 xlo xhi
-4.0433884491974936e-02 3.5938433884472119e+01 ylo yhi
-3.5711112484589691e-01 2.9555111124838550e+01 zlo zhi
-6.7234083837551181e-02 -1.7036217651000683e+01 -4.1707816797290791e-02 xy xz yz

Masses

1 12.0107
2 1.008
3 12.0107
4 12.0107
5 12.0107
6 12.0107
7 12.0107

Pair Coeffs # lj/cut/coul/long

1 0.07 3.55
2 0.03 2.42
3 0.07 3.55
4 0.07 3.55
5 0.07 3.55
6 0 0
7 0.07 3.55

Bond Coeffs # harmonic

1 469 1.4
2 367 1.08
3 469 0.7

Angle Coeffs # harmonic

1 35 120
2 63 120

Dihedral Coeffs # opls

1 0 7.25 0 0
2 0 7.25 0 0
3 0 7.25 0 0

Improper Coeffs # cvff

1 2.5 -1 2

Atoms # full

219 13 3 0.0000000000000000e+00 -3.1542616059294204e-01 2.8469669429068238e+00 3.2798980290480313e+00 1 0 0
220 13 4 -1.1500000000000000e-01 3.0454107658003982e-01 3.7043604234129135e+00 2.4031276428436184e+00 1 0 0
224 13 2 1.1500000000000000e-01 5.5305118869742809e-01 4.7322949773727343e+00 2.6967914235508745e+00 1 0 0
580 33 4 -1.1500000000000000e-01 2.4772240626070583e+00 6.9453703982117077e+00 3.3635285297500781e+00 1 0 0
228 13 3 0.0000000000000000e+00 -5.6853755686739094e-01 1.4987746217254090e+00 2.8357869739972532e+00 1 0 0
1005 54 4 -1.1500000000000000e-01 -4.9155882860059448e+00 7.6465579443246936e+00 8.8233201692454806e+00 1 0 0
600 34 2 1.1500000000000000e-01 -9.1399112170170049e-02 5.9172454006344068e+00 6.8999262156800647e+00 1 0 0
234 13 2 1.1500000000000000e-01 1.2163397971318410e+00 3.9193037168864042e+00 5.3450022414255305e-01 1 0 0
4380 233 4 -1.1500000000000000e-01 2.8024615631826069e+00 1.0517745818645055e+00 3.3644979113554663e+00 1 1 0
4383 233 2 1.1500000000000000e-01 3.2368646292477488e+00 1.4879304783790286e+00 8.3898522696494426e-01 1 1 0
733 13 6 0.0000000000000000e+00 -5.0371413308490576e-01 2.1630949047635517e+00 3.1515686081168863e+00 1 0 0
988 53 3 0.0000000000000000e+00 -1.0354156227891314e+00 7.8189414022685426e+00 2.8855390523254014e+00 1 0 0
230 13 1 -1.1500000000000000e-01 7.0274254939228153e-01 3.2231745342432285e+00 1.1329438604129773e+00 1 0 0
217 13 7 -1.1500000000000000e-01 -1.3843120365287089e+00 2.3977841691405750e+00 5.4227846568242351e+00 1 0 0
218 13 5 -1.1500000000000000e-01 -7.1419512886670189e-01 3.2376595050221577e+00 4.5632273982342246e+00 1 0 0
221 13 1 -1.1500000000000000e-01 -1.8114796796660282e+00 1.1510762803125019e+00 4.9178242909998220e+00 1 0 0
222 13 2 1.1500000000000000e-01 -1.7736601661091895e+00 2.8263689294139387e+00 6.3249896211485641e+00 1 0 0
223 13 2 1.1500000000000000e-01 -4.7127393031139020e-01 4.2925947991927895e+00 4.8549617500168045e+00 1 0 0
4390 233 1 -1.1500000000000000e-01 2.7400844293730646e+00 7.5635808078403732e-01 4.7406700360369340e+00 1 1 0
993 53 2 1.1500000000000000e-01 -1.5890362163335152e+00 5.7682822589646516e+00 3.3749788493867099e+00 1 0 0
4378 233 5 -1.1500000000000000e-01 3.5165070071944546e+00 4.8755421542474042e-01 1.1202028149586061e+00 1 1 0
603 34 2 1.1500000000000000e-01 8.9286773001790998e-01 3.9514988285727881e+00 7.6957675676951531e+00 1 0 0
245 14 4 -1.1500000000000000e-01 -5.1797958549619842e+00 1.5942516169754424e+00 9.4517845027132257e+00 1 0 0
226 13 1 -1.1500000000000000e-01 3.6880480360029522e-01 1.9496279980910680e+00 6.0794408253561261e-01 1 0 0
579 33 3 0.0000000000000000e+00 3.1447975558689398e+00 6.0213428285150599e+00 2.5661924132953420e+00 1 0 0
252 14 2 1.1500000000000000e-01 -3.3184275181788969e+00 4.3871107664594398e+00 8.4982738301313265e+00 1 0 0
581 33 1 -1.1500000000000000e-01 4.6856150980559672e+00 4.2275357785611707e+00 9.2626063052936303e-01 1 0 0
986 53 1 -1.1500000000000000e-01 -2.5460203972722117e-01 8.4637158273284268e+00 6.0835022749036094e-01 1 0 0
577 33 7 -1.1500000000000000e-01 4.1168684287584787e+00 5.4844096319976732e+00 4.1625804746174455e-01 1 0 0
588 33 3 0.0000000000000000e+00 3.6841912291844103e+00 4.8655026316886509e+00 3.1270658773580480e+00 1 0 0
589 33 4 -1.1500000000000000e-01 4.4707255431562691e+00 3.9975898699761228e+00 2.3422055488478208e+00 1 0 0
593 33 2 1.1500000000000000e-01 4.8171317724093381e+00 3.0995432183215890e+00 2.8038755280576511e+00 1 0 0
753 33 6 0.0000000000000000e+00 3.2930793160594538e+00 5.3531421818509077e+00 2.7371517403947525e+00 1 0 0
989 53 4 -1.1500000000000000e-01 -1.4552414197114603e+00 6.7820961151603276e+00 3.7535032876356862e+00 1 0 0
585 33 2 1.1500000000000000e-01 5.1647485099407691e+00 3.4823501968061557e+00 1.9013791483787645e-01 1 0 0
578 33 5 -1.1500000000000000e-01 3.3994029064186777e+00 6.3231291239373375e+00 1.2531542892281027e+00 1 0 0
1004 54 1 -1.1500000000000000e-01 -4.2031667660213579e+00 8.5573556516824816e+00 8.0384817176351806e+00 1 0 0
4384 233 2 1.1500000000000000e-01 2.4444580447563551e+00 2.0885683696773718e+00 3.0424462808715904e+00 1 1 0
586 33 1 -1.1500000000000000e-01 2.6494096229751607e+00 5.4280263091220711e+00 5.2923989355423791e+00 1 0 0
587 33 4 -1.1500000000000000e-01 3.4624302802496936e+00 4.6086274780202503e+00 4.4806272414714128e+00 1 0 0
591 33 2 1.1500000000000000e-01 2.3374508405057464e+00 5.1420055181013442e+00 6.3135202084737800e+00 1 0 0
248 14 1 -1.1500000000000000e-01 -3.9174861372685408e+00 3.7398339051276630e+00 9.0542207164289934e+00 1 0 0
4401 234 2 1.1500000000000000e-01 -6.4353743366338101e-01 1.5996160955376622e+00 8.4679639208518633e+00 1 1 0
590 33 1 -1.1500000000000000e-01 2.1651409068349721e+00 6.6586257743931103e+00 4.7138913146387429e+00 1 0 0
584 33 2 1.1500000000000000e-01 2.0677745999161625e+00 7.7864194557525517e+00 2.8169166108710257e+00 1 0 0
225 13 2 1.1500000000000000e-01 -2.4170432866652081e+00 5.1075354466905565e-01 5.5829037295653192e+00 1 0 0
229 13 4 -1.1500000000000000e-01 -1.3183431336232367e+00 6.7771477043607098e-01 3.6905864641003934e+00 1 0 0
596 34 5 -1.1500000000000000e-01 -1.1159602189098763e+00 6.4585423370220134e+00 8.8257191817806433e+00 1 0 0
985 53 2 1.1500000000000000e-01 -2.1405403634596913e+00 6.4322543045046379e+00 5.8931537407869978e+00 1 0 0
599 34 1 -1.1500000000000000e-01 3.6189022882505295e-01 4.5447284391148317e+00 8.3838390608287625e+00 1 0 0
594 33 2 1.1500000000000000e-01 1.5490984829474472e+00 7.2646848991404340e+00 5.3001030737190202e+00 1 0 0
1010 54 2 1.1500000000000000e-01 -5.0976117208195006e+00 6.5962340840162552e+00 8.5651414815442628e+00 1 0 0
595 34 7 -1.1500000000000000e-01 -3.3455331683397294e-01 5.7168868905053323e+00 7.9254723306372625e+00 1 0 0
981 53 1 -1.1500000000000000e-01 -1.7622339539170102e+00 7.1377359774469751e+00 5.0807160301178875e+00 1 0 0
977 53 7 -1.1500000000000000e-01 -1.5117209779132417e+00 8.4271468978858834e+00 5.6238531310367073e+00 1 0 0
4394 233 2 1.1500000000000000e-01 2.3449926485930477e+00 1.5401597260018218e+00 5.3752809006477049e+00 1 1 0
583 33 2 1.1500000000000000e-01 2.9396036936376673e+00 7.1250565419912757e+00 8.0998389091221368e-01 1 0 0
4396 234 5 -1.1500000000000000e-01 -3.9688768480296499e-01 6.5149560380556193e-01 8.9518804003214978e+00 1 1 0
592 33 2 1.1500000000000000e-01 3.8699911165842416e+00 3.6252915012950671e+00 4.7996917061644444e+00 1 0 0
1493 53 6 0.0000000000000000e+00 -9.1122676721801776e-01 8.4858020044957208e+00 2.9950512944946164e+00 1 0 0
1009 54 2 1.1500000000000000e-01 -3.9476008060698478e+00 8.3726514644511436e+00 6.9636349199571379e+00 1 0 0
987 53 4 -1.1500000000000000e-01 -8.0414908147258224e-01 7.5370979341700179e+00 1.4972799859650798e+00 1 0 0
601 34 2 1.1500000000000000e-01 -1.6964447279302153e+00 7.2987259924548296e+00 8.4662879066267909e+00 1 0 0
244 14 1 -1.1500000000000000e-01 -4.4984484779223202e+00 2.4893158928283392e+00 8.6028381800952705e+00 1 0 0
4379 233 3 0.0000000000000000e+00 3.2957284125588542e+00 1.0024320874329326e-01 2.4608999873757496e+00 1 1 0
4400 234 2 1.1500000000000000e-01 4.7252615306079360e-01 4.3959044352418299e-02 7.0188008188849986e+00 1 1 0
227 13 4 -1.1500000000000000e-01 -2.1161410888853183e-01 1.0986026585271949e+00 1.5311055584619029e+00 1 0 0
232 13 2 1.1500000000000000e-01 -4.5337844706377689e-01 9.2847958400451722e-02 1.2811820310778319e+00 1 0 0
982 53 2 1.1500000000000000e-01 -1.7760962560717890e+00 8.6167449402628993e+00 6.6251577380868270e+00 1 0 0
249 14 2 1.1500000000000000e-01 -4.3078651411825106e+00 2.2457485893009621e+00 7.5629226619038077e+00 1 0 0
1082 58 2 1.1500000000000000e-01 2.8103344394053620e+00 6.6187002394216323e+00 8.0719400908599113e+00 1 0 0
250 14 2 1.1500000000000000e-01 -5.4302335108600772e+00 5.3922618175397363e-01 9.1622705841682652e+00 1 0 0
235 14 7 -1.1500000000000000e-01 -5.4366297244260728e+00 2.5181553109687425e+00 1.3518618867361354e+01 1 0 0
236 14 5 -1.1500000000000000e-01 -4.7780668575952223e+00 3.4225458568541991e+00 1.2623141410519585e+01 1 0 0
623 35 4 -1.1500000000000000e-01 -4.5004295002667805e+00 4.1930268807768654e+00 1.9362164037695806e+01 1 0 0
734 14 6 0.0000000000000000e+00 -5.0582684474125674e+00 2.4494201037102403e+00 1.1227100601913810e+01 1 0 0
239 14 1 -1.1500000000000000e-01 -6.1296399303191436e+00 1.3777107350832782e+00 1.3037488277344078e+01 1 0 0
240 14 2 1.1500000000000000e-01 -5.2045473292888005e+00 2.6913262031319207e+00 1.4567278582380560e+01 1 0 0
999 54 1 -1.1500000000000000e-01 -5.7682425911316049e+00 7.1681981431859532e+00 1.2392762539553848e+01 1 0 0
1006 54 3 0.0000000000000000e+00 -5.0736057246828778e+00 7.9605780669337074e+00 1.0201485471102924e+01 1 0 0
754 34 6 0.0000000000000000e+00 -8.0255612035952151e-01 5.5715021611330533e+00 1.0437286290504741e+01 1 0 0
237 14 3 0.0000000000000000e+00 -4.7582592983096221e+00 3.1142402972191618e+00 1.1287836451027033e+01 1 0 0
611 34 2 1.1500000000000000e-01 8.4176223293862584e-01 3.3098783829553367e+00 9.9667640195911247e+00 1 0 0
597 34 3 0.0000000000000000e+00 -1.1546398123970807e+00 6.1119726110346750e+00 1.0199846287205490e+01 1 0 0
263 15 4 -1.1500000000000000e-01 -8.8202644253664459e+00 1.3446986248638111e+00 1.6449465180568055e+01 1 0 0
255 15 3 0.0000000000000000e+00 -8.5060323889943916e+00 2.9070547437178251e+00 1.8320962528715420e+01 1 0 0
256 15 4 -1.1500000000000000e-01 -8.0354439903302435e+00 3.8878378624723666e+00 1.7441812020943473e+01 1 0 0
260 15 2 1.1500000000000000e-01 -7.7747764923556186e+00 4.8555593398621992e+00 1.7799397090954280e+01 1 0 0
609 34 2 1.1500000000000000e-01 -1.3882403964539449e+00 5.0213497283157595e+00 1.3820558548728458e+01 1 0 0
610 34 2 1.1500000000000000e-01 9.1112061771950081e-02 3.7419146853071106e+00 1.2289616629507634e+01 1 0 0
264 15 3 0.0000000000000000e+00 -8.9419105901200808e+00 1.6553201558888144e+00 1.7813946040349073e+01 1 0 0
602 34 2 1.1500000000000000e-01 -2.4525406038914901e+00 7.7781022045193788e+00 1.0633221496000440e+01 1 0 0
266 15 1 -1.1500000000000000e-01 -7.9744411096552081e+00 3.5822590725696619e+00 1.6031520473644608e+01 1 0 0
628 35 2 1.1500000000000000e-01 -3.9333883007716048e+00 3.3040508849032224e+00 1.9459479976998797e+01 1 0 0
265 15 4 -1.1500000000000000e-01 -9.5731585068779292e+00 7.8938332715433279e-01 1.8673023050185328e+01 1 0 0
243 14 2 1.1500000000000000e-01 -6.4452753298711958e+00 6.1965357520195707e-01 1.3705248415493545e+01 1 0 0
735 15 6 0.0000000000000000e+00 -8.6554199056620718e+00 2.2763683448145282e+00 1.7980747946897470e+01 1 0 0
246 14 3 0.0000000000000000e+00 -5.3633218277887318e+00 1.9510930208356634e+00 1.0810754181908820e+01 1 0 0
1029 55 2 1.1500000000000000e-01 -1.0010612912136407e+01 5.8861318065051069e+00 1.8261901249468757e+01 1 0 0
604 34 1 -1.1500000000000000e-01 -1.3562442007598472e+00 5.2740896213504671e+00 1.2790326673962106e+01 1 0 0
605 34 4 -1.1500000000000000e-01 -4.6582056613482781e-01 4.5410562370816514e+00 1.1898606718101657e+01 1 0 0
606 34 3 0.0000000000000000e+00 -4.5435400941397663e-01 4.9596531709442786e+00 1.0609019344274788e+01 1 0 0
1011 54 2 1.1500000000000000e-01 -5.9576020426884577e+00 6.0562972012801808e+00 1.0576091652295426e+01 1 0 0
1025 55 4 -1.1500000000000000e-01 -9.7941144540662499e+00 6.8758411107288033e+00 1.8653521506619914e+01 1 0 0
1083 58 2 1.1500000000000000e-01 1.9759965798317545e+00 6.0680541324016311e+00 1.0236803938509347e+01 1 0 0
1023 55 4 -1.1500000000000000e-01 -8.9037343982751604e+00 7.3923840594694594e+00 1.6454529860920868e+01 1 0 0
241 14 2 1.1500000000000000e-01 -4.2652354416629716e+00 4.3701132989659284e+00 1.3012887314504999e+01 1 0 0
1024 55 3 0.0000000000000000e+00 -9.1162728716822237e+00 7.7955587697140727e+00 1.7762303962981694e+01 1 0 0
598 34 4 -1.1500000000000000e-01 -1.9585782824331686e+00 6.8750797546990192e+00 1.1079080736918881e+01 1 0 0
4408 234 1 -1.1500000000000000e-01 -1.5054711568060091e+00 7.6643886876328493e-01 1.2586491883266618e+01 1 1 0
1495 55 6 0.0000000000000000e+00 -8.7730740088000054e+00 8.3760885234085727e+00 1.7902921784947630e+01 1 0 0
613 35 7 -1.1500000000000000e-01 -4.4378105362953812e+00 5.8783000613635030e+00 1.5552904369357408e+01 1 0 0
618 35 2 1.1500000000000000e-01 -4.3364306040241809e+00 6.2304512173621562e+00 1.4536327013131247e+01 1 0 0
615 35 3 0.0000000000000000e+00 -5.1855270305379841e+00 5.9372794480850306e+00 1.7829738217215443e+01 1 0 0
617 35 1 -1.1500000000000000e-01 -3.7280881618767658e+00 4.6626949170375847e+00 1.5760628505893681e+01 1 0 0
621 35 2 1.1500000000000000e-01 -3.0910782952154348e+00 4.1948222646665148e+00 1.4965518165857603e+01 1 0 0
624 35 3 0.0000000000000000e+00 -4.5798276084607608e+00 4.7015503262258367e+00 1.8028638194614409e+01 1 0 0
625 35 4 -1.1500000000000000e-01 -3.8569291075089840e+00 4.0528909829395596e+00 1.6953757655744813e+01 1 0 0
629 35 2 1.1500000000000000e-01 -3.3510599104961916e+00 3.1652069835467107e+00 1.7178310614896876e+01 1 0 0
755 35 6 0.0000000000000000e+00 -4.9773153853505683e+00 5.2597385836290300e+00 1.7830789218190187e+01 1 0 0
270 15 2 1.1500000000000000e-01 -7.7059286257902873e+00 4.3537473538398714e+00 1.5283400107303585e+01 1 0 0
4398 234 4 -1.1500000000000000e-01 -1.2706003841632887e+00 1.1916725341950691e+00 1.1224159611411013e+01 1 1 0
267 15 2 1.1500000000000000e-01 -8.4429500556016990e+00 2.1603106445621694e+00 1.4479964123004621e+01 1 0 0
614 35 5 -1.1500000000000000e-01 -5.1775521710839314e+00 6.5337279081260533e+00 1.6570223416351535e+01 1 0 0
247 14 4 -1.1500000000000000e-01 -6.0960971284159307e+00 1.1067980629560905e+00 1.1682602488387140e+01 1 0 0
4419 235 2 1.1500000000000000e-01 -4.7009807220406277e+00 1.3550799601826093e+00 1.6433756735355576e+01 1 1 0
4412 234 2 1.1500000000000000e-01 -2.0789449502714801e+00 1.3131246088655182e+00 1.3342462962780589e+01 1 1 0
608 34 1 -1.1500000000000000e-01 -2.0966974893860613e+00 6.4072927981921790e+00 1.2419007391545096e+01 1 0 0
1027 55 2 1.1500000000000000e-01 -8.0018370536328991e+00 8.0089354858340549e+00 1.4545658470926391e+01 1 0 0
612 34 2 1.1500000000000000e-01 -2.6318462009801893e+00 6.9556135412416715e+00 1.3203799573366354e+01 1 0 0
4416 235 4 -1.1500000000000000e-01 -5.5562619705352327e+00 7.1234577565293078e-01 1.8811703777922723e+01 1 1 0
262 15 1 -1.1500000000000000e-01 -8.3417648830876328e+00 2.3073344310541732e+00 1.5568733424199108e+01 1 0 0
620 35 2 1.1500000000000000e-01 -6.3161011050958882e+00 7.5169297921426157e+00 1.8752510588441471e+01 1 0 0
4402 234 2 1.1500000000000000e-01 -1.6973128698656810e+00 2.2047364270857921e+00 1.0942016093935315e+01 1 1 0
1494 54 6 0.0000000000000000e+00 -4.6496680204462617e+00 8.4796181925337670e+00 1.0465794094906093e+01 1 0 0
619 35 2 1.1500000000000000e-01 -5.7392635799045522e+00 7.3973720409421455e+00 1.6398120615949807e+01 1 0 0
1007 54 4 -1.1500000000000000e-01 -5.6051045499292469e+00 6.9520422317004416e+00 1.1008638855568053e+01 1 0 0
238 14 4 -1.1500000000000000e-01 -4.1381813163750074e+00 4.0613582205082288e+00 1.0409912613125268e+01 1 0 0
1003 54 2 1.1500000000000000e-01 -6.2996862641543032e+00 6.3951647946022376e+00 1.3011361538909814e+01 1 0 0
995 54 7 -1.1500000000000000e-01 -5.3337853920870248e+00 8.3560284379032552e+00 1.2939575455011871e+01 1 0 0
4420 235 2 1.1500000000000000e-01 -5.6565324340987360e+00 1.7124680426458558e+00 1.8525969670474385e+01 1 1 0
616 35 4 -1.1500000000000000e-01 -5.7498627805191864e+00 6.6308536398546902e+00 1.8895569034156768e+01 1 0 0
4397 234 3 0.0000000000000000e+00 -6.4316859129404058e-01 2.6204592920185282e-01 1.0324416849723727e+01 1 1 0
1022 55 1 -1.1500000000000000e-01 -8.2077324034763901e+00 8.2636078256602250e+00 1.5533615944825598e+01 1 0 0
607 34 4 -1.1500000000000000e-01 3.4319076421506178e-01 4.2478544023818099e+00 9.7482208447997518e+00 1 0 0
1028 55 2 1.1500000000000000e-01 -9.3161033672268321e+00 6.5000031360325430e+00 1.5998696478713644e+01 1 0 0
4414 235 5 -1.1500000000000000e-01 -4.6382582310181384e+00 3.4487255109658277e-01 1.6614755062049845e+01 1 1 0
242 14 2 1.1500000000000000e-01 -3.8257027092335014e+00 5.0423297407698904e+00 1.0804681916040725e+01 1 0 0
251 14 2 1.1500000000000000e-01 -6.5483492297594879e+00 1.0088280856349519e-01 1.1443977040168985e+01 1 0 0
268 15 2 1.1500000000000000e-01 -9.1640192227873118e+00 4.1241774324179548e-01 1.5995411236696388e+01 1 0 0
1000 54 2 1.1500000000000000e-01 -5.4359948095833417e+00 8.5428134898996682e+00 1.3983620397321207e+01 1 0 0
1100 59 2 1.1500000000000000e-01 -9.0874653726801657e-01 6.8383759825731394e+00 1.5279356756121009e+01 1 0 0
1371 74 2 1.1500000000000000e-01 2.4038426049332351e-01 8.9115704671347427e+00 9.9697569052394890e+00 1 0 0
269 15 2 1.1500000000000000e-01 -1.0045560245041603e+01 1.3582271832401800e-02 1.8194430251307338e+01 1 0 0
281 16 4 -1.1500000000000000e-01 -1.2851169555243143e+01 1.4202359312509687e+00 2.4040308869573142e+01 1 0 0
280 16 1 -1.1500000000000000e-01 -1.1878179731149769e+01 2.1605120783928293e+00 2.3311504454954051e+01 1 0 0
258 15 2 1.1500000000000000e-01 -9.1276484158229056e+00 2.4029182584523632e+00 2.1729525761229851e+01 1 0 0
634 36 4 -1.1500000000000000e-01 -9.3858209563948769e+00 7.1024158505957189e+00 2.5784463446360753e+01 1 0 0
279 16 2 1.1500000000000000e-01 -1.5133490797730278e+01 4.7522158973600015e-01 2.7795629804685245e+01 1 0 0
4448 236 2 1.1500000000000000e-01 -1.0740946817361012e+01 1.1722590624031519e+00 2.8251078644882387e+01 1 1 0
284 16 1 -1.1500000000000000e-01 -1.1438399957107867e+01 3.3138930155218405e+00 2.3928341748140031e+01 1 0 0
627 35 2 1.1500000000000000e-01 -5.1267684623616310e+00 4.4519740542562518e+00 2.1432702283669688e+01 1 0 0
630 35 2 1.1500000000000000e-01 -6.3171276342353382e+00 6.6006484736732407e+00 2.0982628735459304e+01 1 0 0
288 16 2 1.1500000000000000e-01 -1.0705241044073446e+01 3.9097610166483774e+00 2.3369174462057824e+01 1 0 0
271 16 7 -1.1500000000000000e-01 -1.3979098284045829e+01 2.4227379906721822e+00 2.7906277470463184e+01 1 0 0
272 16 5 -1.1500000000000000e-01 -1.3055704312826313e+01 3.2229740639272393e+00 2.7249237354287928e+01 1 0 0
273 16 3 0.0000000000000000e+00 -1.2716398169945517e+01 2.9419163123425895e+00 2.5955465603866269e+01 1 0 0
274 16 4 -1.1500000000000000e-01 -1.1824946335056136e+01 3.7295221360824464e+00 2.5217738091048766e+01 1 0 0
275 16 1 -1.1500000000000000e-01 -1.4555610966573346e+01 1.2484101314515192e+00 2.7302590330177896e+01 1 0 0
1045 56 2 1.1500000000000000e-01 -1.2066276048822687e+01 7.4843276777729795e+00 2.2229169786044842e+01 1 0 0
277 16 2 1.1500000000000000e-01 -1.2735136876419176e+01 4.1816564853173048e+00 2.7636289769506355e+01 1 0 0
278 16 2 1.1500000000000000e-01 -1.1440712421752897e+01 4.6766626413856622e+00 2.5562018746901334e+01 1 0 0
4432 236 5 -1.1500000000000000e-01 -8.8773113831018495e+00 1.8179232378563240e-01 2.4163426589239172e+01 1 1 0
282 16 3 0.0000000000000000e+00 -1.3236950008137395e+01 1.7737551130454001e+00 2.5361694967530440e+01 1 0 0
1043 56 4 -1.1500000000000000e-01 -1.4038954751513437e+01 6.7693602466805576e+00 2.6521373569826235e+01 1 0 0
736 16 6 0.0000000000000000e+00 -1.3089375489646914e+01 2.3526160771227032e+00 2.5802168394482219e+01 1 0 0
632 36 5 -1.1500000000000000e-01 -8.6308425216766711e+00 6.2537020869472828e+00 2.3556351008284523e+01 1 0 0
636 36 2 1.1500000000000000e-01 -7.9410635201636230e+00 5.3996190172545102e+00 2.1664439284436835e+01 1 0 0
4438 236 2 1.1500000000000000e-01 -1.0145398881015740e+01 1.6816074785464699e+00 2.5911985483811350e+01 1 1 0
259 15 2 1.1500000000000000e-01 -8.3732731839527368e+00 4.2835435169644080e+00 1.9960065304748468e+01 1 0 0
1035 56 1 -1.1500000000000000e-01 -1.4345130072752495e+01 7.2304020066597401e+00 2.7794080544607429e+01 1 0 0
4444 236 1 -1.1500000000000000e-01 -1.0153192504739300e+01 4.0885242752713247e-01 2.7682197126453261e+01 1 1 0
644 36 1 -1.1500000000000000e-01 -9.7394653876317978e+00 6.8546148437494789e+00 2.7140649315030124e+01 1 0 0
631 36 7 -1.1500000000000000e-01 -8.0390684945526747e+00 5.2055045581630468e+00 2.2765426386741293e+01 1 0 0
635 36 1 -1.1500000000000000e-01 -7.5821152406975356e+00 4.0549038130591919e+00 2.3466261546577453e+01 1 0 0
638 36 2 1.1500000000000000e-01 -9.7104272476883509e+00 8.0789896250698625e+00 2.5417329554922134e+01 1 0 0
639 36 2 1.1500000000000000e-01 -6.9348824184083808e+00 3.3722591846270538e+00 2.2802192000018429e+01 1 0 0
283 16 4 -1.1500000000000000e-01 -1.4078331563740351e+01 9.5318527419228738e-01 2.6064444175339087e+01 1 0 0
622 35 1 -1.1500000000000000e-01 -5.1326374203738343e+00 4.8819987376864109e+00 2.0450798489005397e+01 1 0 0
253 15 7 -1.1500000000000000e-01 -9.1016204018929692e+00 2.3041341486653835e+00 2.0580123915236488e+01 1 0 0
286 16 2 1.1500000000000000e-01 -1.3207497094056684e+01 4.9886715849691510e-01 2.3551715654898061e+01 1 0 0
633 36 3 0.0000000000000000e+00 -8.8820711011708013e+00 6.0561995819864096e+00 2.4939811169723068e+01 1 0 0
4437 236 2 1.1500000000000000e-01 -9.1573262848423767e+00 1.1526337586413902e+00 2.3764572809842310e+01 1 1 0
640 36 1 -1.1500000000000000e-01 -9.3722597447716129e+00 5.6126572561493093e+00 2.7715973855031674e+01 1 0 0
641 36 4 -1.1500000000000000e-01 -8.8050570143035820e+00 4.6106706566595435e+00 2.6952778727337112e+01 1 0 0
642 36 3 0.0000000000000000e+00 -8.6069661451675383e+00 4.8151399511981641e+00 2.5536974584399896e+01 1 0 0
643 36 4 -1.1500000000000000e-01 -7.9954242777772979e+00 3.8161908984492174e+00 2.4785313963465949e+01 1 0 0
4430 235 2 1.1500000000000000e-01 -6.3692946547691855e+00 1.0168180822918715e+00 2.0735955867058241e+01 1 1 0
257 15 1 -1.1500000000000000e-01 -9.4883002887908212e+00 1.0213886078777230e+00 2.0090186712191578e+01 1 0 0
647 36 2 1.1500000000000000e-01 -7.6608526644557884e+00 2.8875383363673817e+00 2.5183887892011544e+01 1 0 0
756 36 6 0.0000000000000000e+00 -8.7126032718616564e+00 5.3446134804484853e+00 2.5095541700119536e+01 1 0 0
1047 56 2 1.1500000000000000e-01 -1.4264718941309180e+01 5.7585718114065934e+00 2.6268085525196131e+01 1 0 0
4434 236 4 -1.1500000000000000e-01 -9.9025672232330173e+00 6.8410460710671261e-01 2.6324350154459843e+01 1 1 0
1017 55 1 -1.1500000000000000e-01 -1.0134995015924922e+01 7.3513776902121624e+00 1.9930764684039840e+01 1 0 0
1042 56 3 0.0000000000000000e+00 -1.3295179287632072e+01 7.5101547774581165e+00 2.5561312555984554e+01 1 0 0
648 36 2 1.1500000000000000e-01 -1.0292837810372539e+01 7.6397665570886968e+00 2.7667377214038716e+01 1 0 0
645 36 2 1.1500000000000000e-01 -9.6066079769629198e+00 5.4315677855534208e+00 2.8748001214650763e+01 1 0 0
1039 56 2 1.1500000000000000e-01 -1.4857029301676814e+01 6.6712432386366789e+00 2.8544873400029289e+01 1 0 0
4426 235 1 -1.1500000000000000e-01 -5.9309379387986834e+00 2.7527361304741599e-01 2.0113732646872229e+01 1 1 0
1496 56 6 0.0000000000000000e+00 -1.2953917433325325e+01 8.1535429006002555e+00 2.5603145587073435e+01 1 0 0
1040 56 1 -1.1500000000000000e-01 -1.2226536319155404e+01 7.7286806194884754e+00 2.3260094388586861e+01 1 0 0
582 33 2 1.1500000000000000e-01 -1.2799341714782408e+01 5.7838706214933886e+00 2.9286636481866456e+01 1 0 -1
285 16 2 1.1500000000000000e-01 -1.1580147676948611e+01 1.9292397216994379e+00 2.2290748410552190e+01 1 0 0
1021 55 2 1.1500000000000000e-01 -1.0796265012496059e+01 6.7663979359987962e+00 2.0516357392106411e+01 1 0 0
637 36 2 1.1500000000000000e-01 -8.9864390846515665e+00 7.0861565421565720e+00 2.2964548744099162e+01 1 0 0
1041 56 4 -1.1500000000000000e-01 -1.2971612822503491e+01 6.9937405978183067e+00 2.4245724341379297e+01 1 0 0
276 16 2 1.1500000000000000e-01 -1.4293140692544442e+01 2.6636418672952846e+00 2.8878308684541800e+01 1 0 0
646 36 2 1.1500000000000000e-01 -8.4728143293899443e+00 3.6294104600423300e+00 2.7333429341882841e+01 1 0 0
1046 56 2 1.1500000000000000e-01 -1.3401774839053438e+01 6.0161955829247615e+00 2.3990133652314857e+01 1 0 0
287 16 2 1.1500000000000000e-01 -1.4301323667233767e+01 -2.4462356244208616e-02 2.5557312463469010e+01 1 0 0
626 35 1 -1.1500000000000000e-01 -5.7916664804427249e+00 6.0736284781852650e+00 2.0220564454651939e+01 1 0 0
261 15 2 1.1500000000000000e-01 -9.8747057179644600e+00 2.3181913222871350e-01 2.0720218715732869e+01 1 0 0
1118 60 2 1.1500000000000000e-01 -5.3033756439375317e+00 6.4714809929527162e+00 2.3252935661143212e+01 1 0 0
1013 55 7 -1.1500000000000000e-01 -9.7322673665955985e+00 8.6397574789635332e+00 2.0307419563231697e+01 1 0 0
254 15 5 -1.1500000000000000e-01 -8.6207009305923599e+00 3.2281966402213293e+00 1.9674110751133114e+01 1 0 0
1031 56 7 -1.1500000000000000e-01 -1.3953533856542673e+01 8.5095530905624308e+00 2.8091358484781924e+01 1 0 0
1033 56 3 0.0000000000000000e+00 -1.2876106222633073e+01 8.8166881824967280e+00 2.5894288915427595e+01 1 0 0
4382 233 2 1.1500000000000000e-01 -1.2487931975063720e+01 3.1945619450933695e-02 2.9193129210137304e+01 1 1 -1
231 13 2 1.1500000000000000e-01 -1.6316867762145250e+01 1.6503423923914193e+00 2.9485412821861065e+01 1 0 -1
2120 114 2 1.1500000000000000e-01 -1.2210284553542561e-01 1.7300768370310223e+01 7.2486386306692676e+00 1 0 0
980 53 4 -1.1500000000000000e-01 -1.9496761737509538e-01 1.0047790198773120e+01 2.4626668602615567e+00 1 0 0
984 53 2 1.1500000000000000e-01 1.2168707309118743e-01 1.1007103585500445e+01 2.8500253781144806e+00 1 0 0
1363 74 2 1.1500000000000000e-01 6.0872982270835241e-01 9.4962573660284733e+00 7.5143102939982400e+00 1 0 0
1764 94 1 -1.1500000000000000e-01 -4.5476054653847484e+00 1.4677904524076295e+01 8.7417624436875574e+00 1 0 0
2253 93 6 0.0000000000000000e+00 -6.7145514832461095e-01 1.4491663616874417e+01 3.1361095915151842e+00 1 0 0
1012 54 2 1.1500000000000000e-01 -3.3766290591431143e+00 1.0615041803511655e+01 7.8392837145295395e+00 1 0 0
1741 93 1 -1.1500000000000000e-01 -2.1218023921899221e+00 1.3633124105599018e+01 5.0596326731098671e+00 1 0 0
2115 114 7 -1.1500000000000000e-01 -1.9246274667480812e-01 1.7170400373197442e+01 8.2826111378898783e+00 1 0 0
983 53 2 1.1500000000000000e-01 -8.6219763589743259e-01 1.0413617528744787e+01 5.0691600308453859e+00 1 0 0
2106 113 1 -1.1500000000000000e-01 2.6032131624543369e+00 1.6900502067497673e+01 6.0662077737800253e+00 1 0 0
1754 93 2 1.1500000000000000e-01 1.3617746187371751e+00 1.6048038428082094e+01 5.7298135425976204e-01 1 0 0
1367 74 4 -1.1500000000000000e-01 -1.6782164765181129e-02 9.8614310960910725e+00 9.5603042732962145e+00 1 0 0
2111 113 2 1.1500000000000000e-01 2.3480849437048894e+00 1.6589484982895478e+01 7.0577722450455287e+00 1 0 0
1338 73 5 -1.1500000000000000e-01 3.2242231802147434e+00 1.2397301638452552e+01 1.4132105411482241e+00 1 0 0
1339 73 3 0.0000000000000000e+00 2.9895727655136053e+00 1.1893426032344834e+01 2.7399098882919182e+00 1 0 0
1340 73 4 -1.1500000000000000e-01 2.3353095288481667e+00 1.2752767077222218e+01 3.6549521316853708e+00 1 0 0
1341 73 1 -1.1500000000000000e-01 4.4156543359219445e+00 1.0388812746639976e+01 8.2201436215946488e-01 1 0 0
1337 73 7 -1.1500000000000000e-01 3.8618206206137065e+00 1.1633420504533822e+01 4.4708671799767341e-01 1 0 0
1343 73 2 1.1500000000000000e-01 2.9785188594302339e+00 1.3440843794995571e+01 1.0976033947612662e+00 1 0 0
1348 73 3 0.0000000000000000e+00 3.4562494432680886e+00 1.0615080856392547e+01 3.0720143883877769e+00 1 0 0
1349 73 4 -1.1500000000000000e-01 4.1544676282701749e+00 9.8839836781460395e+00 2.1009032344285816e+00 1 0 0
1513 73 6 0.0000000000000000e+00 3.2397135022815533e+00 1.1278386485417352e+01 3.0229454710591521e+00 1 0 0
1351 73 2 1.1500000000000000e-01 2.8059030691071447e+00 1.0777324709103461e+01 6.4770875395199905e+00 1 0 0
1354 73 2 1.1500000000000000e-01 1.9727498230061160e+00 1.3019724308876036e+01 5.8343856244277150e+00 1 0 0
1346 73 1 -1.1500000000000000e-01 2.8144374772055398e+00 1.1103058429163617e+01 5.4012081934801994e+00 1 0 0
1347 73 4 -1.1500000000000000e-01 3.2260740862861250e+00 1.0231722218951562e+01 4.4012939650726226e+00 1 0 0
1350 73 1 -1.1500000000000000e-01 2.3026901743631867e+00 1.2355750989563976e+01 4.9791099023685454e+00 1 0 0
1345 73 2 1.1500000000000000e-01 4.9679953511237365e+00 9.7988895019517877e+00 1.0761710091593368e-01 1 0 0
1745 93 2 1.1500000000000000e-01 -2.7241822127131274e+00 1.3045698262740682e+01 5.7742314743858492e+00 1 0 0
1359 74 1 -1.1500000000000000e-01 2.6189820868146985e-01 1.0203705010237021e+01 8.1762465912575237e+00 1 0 0
1355 74 7 -1.1500000000000000e-01 -4.7952157115669358e-02 1.1495251985146538e+01 7.7314416919733979e+00 1 0 0
994 53 2 1.1500000000000000e-01 3.7630616088947139e-01 1.0493230951539228e+01 4.8244091728410721e-01 1 0 0
1360 74 2 1.1500000000000000e-01 1.2850249532548741e-01 1.1788030235479052e+01 6.6761253881536540e+00 1 0 0
1746 93 1 -1.1500000000000000e-01 -2.2482640420482647e-02 1.4288405565511374e+01 7.3397958136665475e-01 1 0 0
1748 93 3 0.0000000000000000e+00 -1.0080391886963980e+00 1.3890255658058875e+01 2.9548361318416805e+00 1 0 0
2123 114 2 1.1500000000000000e-01 4.8734419229075687e-01 1.5129340074136282e+01 8.2112238056857532e+00 1 0 0
2112 113 2 1.1500000000000000e-01 3.5834132235122453e+00 1.5136312349829090e+01 5.3864978326644222e+00 1 0 0
1747 93 4 -1.1500000000000000e-01 -7.9272363417102398e-01 1.3502074109424894e+01 1.6132481607632227e+00 1 0 0